FOO
138240
    1MOL0     O    1   7.316   6.776   7.949 -0.0031  0.2171 -0.3376
    1MOL0     C    2   7.323   6.657   7.984 -0.5409  0.5364 -0.3160
    1MOL0     O    3   7.325   6.604   8.112 -0.9419 -0.2701 -0.1888
    1MOL0     C    4   7.273   6.690   8.203  0.5708 -0.6094 -0.6936
    1MOL0     C    5   7.344   6.785   8.272 -0.4917  0.4405 -0.3443
    1MOL0     C    6   7.295   6.867   8.377  0.4402  0.5241 -0.3408
    1MOL0     C    7   7.161   6.857   8.412 -0.6350  0.3418  0.3435
    1MOL0     O    8   7.107   6.932   8.514 -0.6470  1.0641 -0.7227
    1MOL0     C    9   7.147   7.072   8.511 -0.1418 -0.7064  0.0397
    1MOL0     C   10   7.042   7.130   8.606  0.5578  0.2087  0.8157
    1MOL0     C   11   7.057   7.069   8.749  0.1272 -0.5215  0.5435
    1MOL0     C   12   7.058   7.167   8.868  0.0406 -0.8156 -0.3355
    1MOL0     C   13   7.113   7.122   9.001  0.6099 -0.4384 -0.7871
    1MOL0     C   14   7.029   6.992   9.039 -0.2145  0.1600 -0.7538
    1MOL0     C   15   7.071   6.935   9.177  0.1490  0.0678 -0.0150
    1MOL0     C   16   6.993   6.810   9.213 -0.0478  0.5825  0.1397
    1MOL0     N   17   6.846   6.845   9.233 -0.2588  0.4496  0.7407
    1MOL0     C   18   6.797   6.920   9.332  0.4415 -0.2774 -0.0111
    1MOL0     C   19   6.659   6.891   9.336 -0.3286  0.1910 -0.0943
    1MOL0     C   20   6.564   6.948   9.443 -0.5639 -0.2694  0.4045
    1MOL0     C   21   6.427   6.877   9.445  0.3399  0.7523  0.0172
    1MOL0     C   22   6.432   6.768   9.547 -0.5181 -0.4657  0.1854
    1MOL0     C   23   6.300   6.700   9.577  0.2983  0.1134  0.3860
    1MOL0     O   24   6.310   6.560   9.547 -0.1826  0.6280 -0.0455
    1MOL0     C   25   6.381   6.476   9.628  0.4364  0.0879 -0.1514
    1MOL0     C   26   6.445   6.504   9.746 -0.4439 -0.0183 -0.1346
    1MOL0     C   27   6.524   6.407   9.810  0.6662  0.0092  0.2213
    1MOL0     C   28   6.584   6.451   9.945  0.1406  0.0817  0.6010
    1MOL0     C   29   6.554   6.283   9.742  1.2906  0.1373 -0.6593
    1MOL0     C   30   6.658   6.179   9.779 -0.0185 -0.2178 -0.2861
    1MOL0     O   31   6.665   6.060   9.709 -0.2756 -0.7306 -0.8900
    1MOL0     C   32   6.755   5.966   9.736 -0.6033  1.1077  0.3444
    1MOL0     C   33   6.896   5.994   9.712  0.4557  0.5091  0.6177
    1MOL0     C   34   6.982   5.891   9.720 -1.0739  1.0267 -0.4248
    1MOL0     C   35   6.949   5.770   9.782 -0.0003  0.1162 -0.5276
    1MOL0     O   36   7.057   5.687   9.806  0.5267  0.1661  0.3573
    1MOL0     C   37   7.066   5.595   9.920 -0.5487  0.8230  0.9484
    1MOL0     C   38   7.140   5.473   9.864 -0.0732  0.3085  0.6301
    1MOL0     C   39   7.165   5.361   9.963 -0.3281  1.7796 -0.5167
    1MOL0     C   40   7.188   5.228   9.887 -0.2362  1.0468 -0.4306
    1MOL0     C   41   7.302   5.243   9.797  1.3624  0.1824 -0.7443
    1MOL0     C   42   7.378   5.117   9.763 -1.4315 -0.5254 -0.5865
    1MOL0     C   43   7.319   5.012   9.660  0.1715 -0.0942 -0.2322
    1MOL0     C   44   7.395   4.876   9.639  0.5619 -1.0619  0.3910
    1MOL0    Cl   45   7.455   4.824   9.791 -0.1965 -0.0923 -0.0301
    1MOL0     C   46   6.815   5.759   9.832 -0.4640  0.8064  0.0969
    1MOL0     C   47   6.719   5.853   9.807  0.1480  0.3840  0.6916
    1MOL0     O   48   6.738   6.214   9.866  0.1441 -0.6181 -0.9255
    1MOL0     C   49   6.484   6.255   9.622  1.1752  0.1078  0.1741
    1MOL0     C   50   6.409   6.358   9.566  0.4446 -0.4263 -0.5874
    1MOL0     N   51   6.634   6.809   9.227 -0.6741  0.4686  0.2751
    1MOL0     N   52   6.746   6.786   9.164  0.8644 -0.3140  1.1659
    1MOL0     C   53   7.089   6.747   8.352 -0.3114 -0.3941  0.5628
    1MOL0     C   54   7.143   6.677   8.248  0.1073  1.4732 -0.3925
    1MOL0     C   55   7.342   6.555   7.876  0.0657  0.7437  0.4908
    1MOL0     C   56   7.305   6.419   7.896 -0.8311  0.8144  0.0266
    1MOL0     C   57   7.322   6.323   7.788  0.9869 -0.3721 -0.3781
    1MOL0     C   58   7.377   6.363   7.669 -0.4956 -0.4583  0.5030
    1MOL0     O   59   7.380   6.265   7.574  0.0259 -0.7269 -0.3209
    1MOL0     C   60   7.335   6.300   7.443  0.5805 -0.2780  1.1803
    1MOL0     C   61   7.273   6.181   7.366  0.0382  0.0734 -0.0668
    1MOL0     C   62   7.130   6.129   7.402 -0.7072 -1.1261  0.1430
    1MOL0     C   63   7.130   6.091   7.551  0.0606 -0.4922 -0.8891
    1MOL0     C   64   6.991   6.089   7.610  0.2803  0.0290 -0.2903
    1MOL0     C   65   6.881   6.085   7.661  0.1572 -0.4965 -0.7400
    1MOL0     C   66   7.405   6.500   7.647 -0.2065  0.3502 -0.5147
    1MOL0     C   67   7.378   6.596   7.743  0.3436  0.5676  0.5769
    1MOL0     H   68   7.447   6.802   8.241  0.3742 -0.0971  1.9902
    1MOL0     H   69   7.362   6.935   8.427 -0.2977 -0.1506  1.6638
    1MOL0     H   70   7.250   7.086   8.544 -0.5061  0.3882  0.7745
    1MOL0     H   71   7.139   7.112   8.410  1.9306 -1.9267 -0.6653
    1MOL0     H   72   7.037   7.239   8.600  1.2262  0.2862  1.5223
    1MOL0     H   73   6.944   7.103   8.566  2.3270 -0.8145 -3.3286
    1MOL0     H   74   6.982   6.989   8.754 -2.7412  1.7890 -1.6443
    1MOL0     H   75   7.154   7.020   8.761 -0.2556 -1.0617  1.5749
    1MOL0     H   76   7.123   7.251   8.841  0.0992 -0.6672  0.2437
    1MOL0     H   77   6.955   7.197   8.892  1.6649  2.3892  4.0219
    1MOL0     H   78   7.217   7.087   8.996  0.9902  0.3435  0.8984
    1MOL0     H   79   7.093   7.200   9.075 -1.2469 -0.7306 -0.9305
    1MOL0     H   80   6.920   7.005   9.035 -0.1927  0.0142 -2.3153
    1MOL0     H   81   7.056   6.921   8.960 -1.5537 -2.7679  1.2364
    1MOL0     H   82   7.175   6.902   9.178 -0.0222 -0.5632 -1.0560
    1MOL0     H   83   7.040   7.011   9.249  2.7242  0.5966  0.6282
    1MOL0     H   84   7.035   6.769   9.305  0.7040  0.7246 -0.1320
    1MOL0     H   85   6.999   6.734   9.133  0.8044 -0.7313  1.3942
    1MOL0     H   86   6.852   6.982   9.402 -1.9844  0.0877  1.7229
    1MOL0     H   87   6.621   6.936   9.536 -2.1024 -2.1580  1.1763
    1MOL0     H   88   6.544   7.052   9.416 -0.6177 -0.5504 -0.7131
    1MOL0     H   89   6.395   6.838   9.348  0.5496  1.0604 -0.1771
    1MOL0     H   90   6.344   6.943   9.472 -2.2904 -1.9185 -1.0974
    1MOL0     H   91   6.465   6.817   9.639  1.3475 -0.9091 -0.2212
    1MOL0     H   92   6.511   6.700   9.514  0.7912  0.8244  0.5635
    1MOL0     H   93   6.214   6.737   9.521  1.7289  2.0683 -0.6163
    1MOL0     H   94   6.281   6.701   9.685 -0.2734  0.7019  0.2856
    1MOL0     H   95   6.434   6.601   9.793  0.9667 -1.4660  3.5710
    1MOL0     H   96   6.519   6.421  10.028 -0.2671 -0.0508  0.2336
    1MOL0     H   97   6.689   6.424   9.962  0.4390  1.5220  1.1771
    1MOL0     H   98   6.593   6.560   9.941  1.0371  0.5334  6.3906
    1MOL0     H   99   6.938   6.078   9.659  2.0404 -0.3396  0.4835
    1MOL0     H  100   7.083   5.910   9.685 -1.9420 -1.0957 -4.8487
    1MOL0     H  101   7.120   5.616  10.012  1.4430  2.2949 -0.4724
    1MOL0     H  102   6.968   5.562   9.956 -0.6516  0.6735  0.5424
    1MOL0     H  103   7.086   5.440   9.775  3.1124  3.0143 -2.6170
    1MOL0     H  104   7.241   5.505   9.836 -1.2113  2.6907 -1.0141
    1MOL0     H  105   7.085   5.333  10.033 -0.5455  2.1953 -0.5942
    1MOL0     H  106   7.254   5.382  10.024  0.3090 -1.9640  0.0583
    1MOL0     H  107   7.216   5.154   9.963 -1.0951 -0.3057 -1.3767
    1MOL0     H  108   7.099   5.194   9.833 -0.4512  0.8961  0.0061
    1MOL0     H  109   7.364   5.322   9.840 -0.4677  1.6713 -0.7080
    1MOL0     H  110   7.260   5.283   9.704  1.8456 -0.9864 -1.4943
    1MOL0     H  111   7.477   5.148   9.730 -0.2041 -0.9065  2.4117
    1MOL0     H  112   7.395   5.065   9.857  3.9976 -2.9132 -2.5073
    1MOL0     H  113   7.307   5.065   9.566  1.7069  2.4088  0.8682
    1MOL0     H  114   7.220   5.000   9.705 -0.2656  1.7218 -0.6114
    1MOL0     H  115   7.477   4.907   9.574 -2.0324  2.5022 -1.5335
    1MOL0     H  116   7.341   4.800   9.582  2.0410 -2.5336  0.8858
    1MOL0     H  117   6.800   5.669   9.890 -1.4695  1.4678  0.9042
    1MOL0     H  118   6.617   5.831   9.837  0.3539 -2.4119 -0.2996
    1MOL0     H  119   6.498   6.157   9.577 -1.7256 -0.0030 -0.6444
    1MOL0     H  120   6.349   6.347   9.476 -0.8112 -3.5661  0.4817
    1MOL0     H  121   6.991   6.711   8.382 -0.9587  0.7204 -0.1414
    1MOL0     H  122   7.078   6.608   8.196  1.8392 -0.5142 -0.0140
    1MOL0     H  123   7.272   6.392   7.995 -0.3336 -1.1157 -0.2932
    1MOL0     H  124   7.287   6.224   7.815 -1.0323  0.0933 -1.1241
    1MOL0     H  125   7.256   6.376   7.443  1.1246  0.3427 -0.4729
    1MOL0     H  126   7.417   6.328   7.376  1.6263 -0.3588  2.3842
    1MOL0     H  127   7.344   6.101   7.385 -0.8285 -1.0668 -1.4413
    1MOL0     H  128   7.284   6.202   7.259 -0.5204  1.0056  0.0450
    1MOL0     H  129   7.115   6.038   7.345  0.3906  0.1249 -2.3135
    1MOL0     H  130   7.044   6.192   7.378  1.1648 -0.1030 -5.4095
    1MOL0     H  131   7.187   6.160   7.614  1.3513 -1.3252 -1.1260
    1MOL0     H  132   7.171   5.990   7.554 -1.1917 -1.0312  1.7943
    1MOL0     H  133   6.777   6.075   7.687  0.9145  0.5176  3.4779
    1MOL0     H  134   7.440   6.516   7.545 -2.5345  0.4927 -1.3557
    1MOL0     H  135   7.393   6.698   7.710  0.7849 -0.5418 -3.1778
    2MOL0     O  136   0.892  11.478   7.089  0.0700 -0.2622  0.3870
    2MOL0     C  137   0.959  11.411   7.162  0.5013  0.0403 -0.5480
    2MOL0     O  138   0.906  11.313   7.236 -0.4720 -0.2582 -0.4337
    2MOL0     C  139   0.766  11.315   7.259 -0.4368  0.3243 -0.4725
    2MOL0     C  140   0.695  11.423   7.315 -0.5342  0.1296  0.2266
    2MOL0     C  141   0.566  11.409   7.340 -0.8662  0.8185  0.3727
    2MOL0     C  142   0.494  11.308   7.284 -1.5516 -0.1844 -0.2861
    2MOL0     O  143   0.361  11.295   7.286  0.2046  0.2972  0.5806
    2MOL0     C  144   0.273  11.413   7.271  0.3722 -0.1564 -0.3848
    2MOL0     C  145   0.126  11.358   7.233 -0.0505 -0.2540  0.7420
    2MOL0     C  146   0.059  11.261   7.325 -0.0074 -0.7236 -0.9489
    2MOL0     C  147   0.123  11.123   7.318  0.8227 -0.1736 -0.3087
    2MOL0     C  148   0.010  11.018   7.308  1.3368  0.4257 -0.3072
    2MOL0     C  149   0.053  10.871   7.315 -0.0626  0.2127 -0.0432
    2MOL0     C  150  -0.061  10.758   7.320 -0.5450 -0.3205  0.0857
    2MOL0     C  151  -0.175  10.773   7.418 -0.1971 -0.2894 -0.7097
    2MOL0     N  152  -0.246  10.642   7.436 -0.1899  0.3194  0.3643
    2MOL0     C  153  -0.275  10.557   7.333 -0.4805 -0.3924  0.0258
    2MOL0     C  154  -0.286  10.432   7.384  0.1139  0.5934 -0.1103
    2MOL0     C  155  -0.309  10.306   7.299 -0.1992 -0.3272 -0.4699
    2MOL0     C  156  -0.242  10.302   7.160  1.0816  0.1136 -0.5032
    2MOL0     C  157  -0.096  10.285   7.163 -0.2579 -1.3156 -0.8125
    2MOL0     C  158  -0.033  10.240   7.029 -0.5110 -0.5656  0.5917
    2MOL0     O  159  -0.059  10.109   6.989 -0.0421  0.1219 -0.3451
    2MOL0     C  160  -0.025  10.017   7.087 -1.2302 -0.4267 -0.4067
    2MOL0     C  161   0.111  10.034   7.146 -0.0649 -0.4423 -0.2010
    2MOL0     C  162   0.150   9.954   7.258  0.5995  0.1730  0.2733
    2MOL0     C  163   0.289   9.970   7.313  0.9625  0.6029 -0.3782
    2MOL0     C  164   0.061   9.846   7.292 -0.1587 -0.2908 -0.1704
    2MOL0     C  165   0.087   9.753   7.400  0.7680 -0.1810 -1.0265
    2MOL0     O  166   0.084   9.622   7.375 -0.5258  0.6644  0.5095
    2MOL0     C  167   0.129   9.529   7.474 -0.0793 -0.4347  0.4919
    2MOL0     C  168   0.046   9.478   7.574  1.2492  0.1398  0.2608
    2MOL0     C  169   0.097   9.406   7.679 -0.0717  1.3221 -0.6742
    2MOL0     C  170   0.240   9.369   7.680  1.1317  0.3318  0.3181
    2MOL0     O  171   0.295   9.296   7.779 -1.1797 -0.1833  0.6722
    2MOL0     C  172   0.220   9.233   7.879  0.6326 -0.0482 -0.7233
    2MOL0     C  173   0.296   9.150   7.981  0.4886  0.3316 -0.6403
    2MOL0     C  174   0.205   9.047   8.056  0.6781 -0.0064 -0.3455
    2MOL0     C  175   0.216   8.900   7.988  0.0907  0.5685  0.6198
    2MOL0     C  176   0.129   8.882   7.864 -0.4574 -0.7603  0.6562
    2MOL0     C  177   0.130   8.734   7.816 -0.8032  0.5401  0.4773
    2MOL0     C  178   0.086   8.738   7.670  0.8606 -0.2163  0.3947
    2MOL0     C  179   0.019   8.615   7.609  0.4595  0.0294 -0.1348
    2MOL0    Cl  180  -0.130   8.566   7.701  0.6438  0.3835  0.2820
    2MOL0     C  181   0.321   9.410   7.574  0.9441 -0.1348 -0.8356
    2MOL0     C  182   0.267   9.491   7.474 -0.1747 -0.0607 -1.1890
    2MOL0     O  183   0.103   9.812   7.506 -0.7474 -0.9251 -0.1000
    2MOL0     C  184  -0.065   9.827   7.219 -0.0376  0.5734  0.1136
    2MOL0     C  185  -0.106   9.908   7.120  0.3352 -1.4132  0.1191
    2MOL0     N  186  -0.268  10.441   7.524 -0.6192 -0.0260 -0.4879
    2MOL0     N  187  -0.245  10.565   7.548  0.0094  0.1223 -0.2234
    2MOL0     C  188   0.561  11.198   7.221 -0.4589 -0.5686  0.8615
    2MOL0     C  189   0.698  11.203   7.206 -0.3376 -0.7448  0.6193
    2MOL0     C  190   1.109  11.429   7.187 -1.2462  0.5907 -0.3792
    2MOL0     C  191   1.185  11.538   7.138  0.6913 -0.0691  0.6148
    2MOL0     C  192   1.330  11.546   7.159 -0.6472 -0.8893 -0.0287
    2MOL0     C  193   1.396  11.451   7.236  0.4703  0.7435  0.7890
    2MOL0     O  194   1.537  11.455   7.228 -0.5822 -0.1129 -0.0689
    2MOL0     C  195   1.593  11.360   7.314 -0.3940 -0.7173  0.0149
    2MOL0     C  196   1.748  11.378   7.311  0.4726 -0.4432 -0.2223
    2MOL0     C  197   1.781  11.513   7.382  0.0292  0.5874 -1.0992
    2MOL0     C  198   1.716  11.551   7.526  0.1319 -0.1179 -0.0767
    2MOL0     C  199   1.756  11.438   7.614  0.1914 -0.5657  1.2592
    2MOL0     C  200   1.792  11.336   7.663 -0.1699 -0.5336 -0.2812
    2MOL0     C  201   1.318  11.335   7.279  0.4981  0.3800  0.3965
    2MOL0     C  202   1.177  11.333   7.260 -0.5999  1.1674  0.3734
    2MOL0     H  203   0.737  11.520   7.339 -1.2699 -0.0052  2.1981
    2MOL0     H  204   0.518  11.490   7.395  0.9852  1.1527  1.5731
    2MOL0     H  205   0.254  11.470   7.362  0.2600  0.4917 -0.8097
    2MOL0     H  206   0.316  11.478   7.194 -1.2099  2.2334  0.6173
    2MOL0     H  207   0.072  11.450   7.210  1.6346  0.4842 -0.5333
    2MOL0     H  208   0.147  11.312   7.136 -0.4115 -2.7085  1.7413
    2MOL0     H  209   0.057  11.308   7.424  4.1279  0.1996 -1.1305
    2MOL0     H  210  -0.046  11.258   7.292 -1.0565  0.2163  1.9943
    2MOL0     H  211   0.186  11.113   7.229  2.8677 -1.5947  1.1938
    2MOL0     H  212   0.186  11.107   7.406  2.3080 -1.8123 -1.5834
    2MOL0     H  213  -0.052  11.033   7.397  1.3445 -2.6733  0.3517
    2MOL0     H  214  -0.047  11.034   7.216 -0.7698  1.0011  1.0440
    2MOL0     H  215   0.125  10.857   7.234 -1.4575 -0.7251 -1.1831
    2MOL0     H  216   0.110  10.862   7.408 -0.5749  3.1760  0.6662
    2MOL0     H  217  -0.103  10.749   7.219  0.2676  2.2163 -0.5517
    2MOL0     H  218  -0.015  10.662   7.346  0.9130  1.3915  4.7951
    2MOL0     H  219  -0.242  10.854   7.387  3.2481  2.9139 -0.5057
    2MOL0     H  220  -0.130  10.800   7.514 -0.2750  1.6334 -1.1612
    2MOL0     H  221  -0.280  10.589   7.230 -1.4564  1.1829  0.5335
    2MOL0     H  222  -0.264  10.223   7.353  2.9905  0.0012 -2.4033
    2MOL0     H  223  -0.415  10.280   7.288 -1.0709  3.1523 -1.3399
    2MOL0     H  224  -0.266  10.397   7.112 -0.9556  0.4530  1.0279
    2MOL0     H  225  -0.290  10.217   7.112 -0.8867  0.5589  0.5851
    2MOL0     H  226  -0.061  10.212   7.238  1.5573 -0.1949 -0.5036
    2MOL0     H  227  -0.061  10.384   7.192  0.6222 -1.6474 -0.7181
    2MOL0     H  228   0.072  10.271   7.021 -0.9515  3.2021  5.0402
    2MOL0     H  229  -0.084  10.296   6.951 -0.2027 -0.0672  0.7424
    2MOL0     H  230   0.189  10.100   7.109  0.2993 -1.1775 -0.7910
    2MOL0     H  231   0.277   9.970   7.422 -2.2148  1.0486 -0.6285
    2MOL0     H  232   0.339   9.877   7.287  0.8485  0.2249  0.6835
    2MOL0     H  233   0.335  10.064   7.282  2.6223 -0.2042 -0.4198
    2MOL0     H  234  -0.057   9.509   7.590  1.6711 -0.3447  6.0315
    2MOL0     H  235   0.040   9.366   7.762  1.3687 -0.6509 -0.5527
    2MOL0     H  236   0.180   9.306   7.949 -0.2561 -2.9363  1.9900
    2MOL0     H  237   0.133   9.177   7.842 -1.6025  0.5624  3.0549
    2MOL0     H  238   0.384   9.096   7.943 -1.3491 -2.4694 -1.2058
    2MOL0     H  239   0.344   9.216   8.054 -1.1051  0.2653  0.5176
    2MOL0     H  240   0.109   9.098   8.060  1.0884  0.7136  1.1986
    2MOL0     H  241   0.236   9.050   8.161 -1.0400  0.0271  0.1855
    2MOL0     H  242   0.321   8.881   7.961 -0.8719 -3.6768 -0.8458
    2MOL0     H  243   0.181   8.821   8.054 -1.5902  1.8559  1.3479
    2MOL0     H  244   0.152   8.961   7.792 -3.1638  2.1242  2.6795
    2MOL0     H  245   0.027   8.916   7.886  1.3269  3.3497  4.1828
    2MOL0     H  246   0.233   8.700   7.823 -2.3356 -4.8730  1.5258
    2MOL0     H  247   0.058   8.668   7.866  0.9040 -3.4595 -1.8537
    2MOL0     H  248   0.173   8.758   7.607 -0.9053 -1.2518 -2.6300
    2MOL0     H  249   0.025   8.824   7.641  0.7766 -0.4891 -0.2640
    2MOL0     H  250   0.078   8.523   7.604 -1.2403 -1.0659 -1.2653
    2MOL0     H  251   0.003   8.630   7.501  0.0363 -1.8253 -0.3598
    2MOL0     H  252   0.429   9.402   7.578  0.8381 -3.0674 -1.1480
    2MOL0     H  253   0.326   9.532   7.392  1.8515 -0.1364  0.1479
    2MOL0     H  254  -0.132   9.744   7.238 -2.8425  3.3902  4.0162
    2MOL0     H  255  -0.196   9.900   7.060  1.1602  0.2573 -1.4410
    2MOL0     H  256   0.509  11.105   7.201 -0.2439  0.1072 -4.3781
    2MOL0     H  257   0.756  11.141   7.139 -1.2929  0.0487 -1.0290
    2MOL0     H  258   1.127  11.608   7.078  0.1007  0.4305  1.7368
    2MOL0     H  259   1.386  11.630   7.120  0.6748 -0.5247  2.4303
    2MOL0     H  260   1.547  11.358   7.413  0.5296 -2.8198  0.4376
    2MOL0     H  261   1.564  11.257   7.293 -1.0228 -0.8132  1.2985
    2MOL0     H  262   1.779  11.386   7.207  1.9858 -1.3122  0.1297
    2MOL0     H  263   1.807  11.295   7.351 -1.0712 -1.6890 -0.4322
    2MOL0     H  264   1.757  11.600   7.319  0.7509  0.6813 -1.2527
    2MOL0     H  265   1.889  11.504   7.392 -0.2715 -0.5621  2.7039
    2MOL0     H  266   1.607  11.552   7.516  0.1020 -0.0868  0.2449
    2MOL0     H  267   1.748  11.651   7.556 -0.7897 -0.0995  0.8860
    2MOL0     H  268   1.832  11.245   7.702 -0.4078 -0.2680  0.6079
    2MOL0     H  269   1.353  11.243   7.324  2.8113  1.0026  0.0094
    2MOL0     H  270   1.121  11.244   7.288 -2.6647  1.0881 -3.3965
    3MOL0     O  271   6.080   1.808   6.302 -0.7183  0.4215 -0.3568
    3MOL0     C  272   6.055   1.814   6.184  0.7608  1.3954  0.2625
    3MOL0     O  273   6.086   1.924   6.097  0.5555  0.3416 -0.0435
    3MOL0     C  274   6.180   2.022   6.118  0.6925  0.3112 -0.6137
    3MOL0     C  275   6.222   2.109   6.020  0.7843 -0.3413 -0.2026
    3MOL0     C  276   6.310   2.216   6.030 -1.1025 -0.4680  1.2665
    3MOL0     C  277   6.360   2.243   6.157 -0.5827  1.3896 -0.0408
    3MOL0     O  278   6.446   2.348   6.159 -0.1908 -0.2104  0.4198
    3MOL0     C  279   6.586   2.337   6.216 -0.2267  0.0649 -0.1052
    3MOL0     C  280   6.682   2.344   6.091  0.5511 -0.3847  0.5385
    3MOL0     C  281   6.724   2.210   6.046  0.0117 -0.0692 -0.6773
    3MOL0     C  282   6.688   2.167   5.904  1.0294  0.0687  0.5667
    3MOL0     C  283   6.729   2.032   5.881 -0.2901  0.4895 -0.8912
    3MOL0     C  284   6.699   1.996   5.732  0.7331  0.2752 -0.6369
    3MOL0     C  285   6.761   1.864   5.674 -1.0244 -1.6416 -0.2030
    3MOL0     C  286   6.688   1.734   5.710 -0.3520 -0.0543 -0.1111
    3MOL0     N  287   6.764   1.610   5.691  0.1634  0.9134 -0.4307
    3MOL0     C  288   6.703   1.486   5.724 -0.0039  0.7558 -0.9812
    3MOL0     C  289   6.812   1.396   5.715  0.1505  0.2196 -0.7050
    3MOL0     C  290   6.806   1.244   5.722 -0.7016  0.5391 -0.0515
    3MOL0     C  291   6.836   1.201   5.575  0.1200  0.5625 -0.3231
    3MOL0     C  292   6.828   1.045   5.578  0.0980  0.3762  0.0810
    3MOL0     C  293   6.882   0.979   5.448  0.1417  0.2865  0.1477
    3MOL0     O  294   6.828   1.044   5.334  0.7430 -0.2711 -0.1507
    3MOL0     C  295   6.880   0.992   5.210 -0.5036  0.8114  0.0425
    3MOL0     C  296   7.000   1.029   5.155 -0.6069  0.2575 -0.7313
    3MOL0     C  297   7.074   0.965   5.061  1.0319  0.5980 -0.2359
    3MOL0     C  298   7.213   1.011   5.036 -0.4424  0.3978  0.2075
    3MOL0     C  299   7.011   0.858   4.989  0.1962  0.4945 -0.1257
    3MOL0     C  300   7.090   0.769   4.892  0.6199  0.0395 -0.6469
    3MOL0     O  301   7.040   0.649   4.852 -0.6645 -0.2201  1.0868
    3MOL0     C  302   7.088   0.581   4.743  0.7297  0.5777 -0.4164
    3MOL0     C  303   7.007   0.575   4.622  0.7669 -0.0500 -0.2158
    3MOL0     C  304   7.044   0.492   4.518  0.0270 -0.2340 -0.9041
    3MOL0     C  305   7.156   0.415   4.535  0.3074  0.4627  0.2663
    3MOL0     O  306   7.183   0.322   4.441  0.3832  0.9941  0.1396
    3MOL0     C  307   7.160   0.352   4.304  0.5484 -1.0545  0.0963
    3MOL0     C  308   7.242   0.266   4.203  0.4724 -0.8926 -0.1826
    3MOL0     C  309   7.386   0.257   4.233 -0.7977  1.3274 -0.0712
    3MOL0     C  310   7.450   0.131   4.193 -0.8357  0.0180  1.1168
    3MOL0     C  311   7.603   0.158   4.191  0.1617 -0.1521  0.2353
    3MOL0     C  312   7.666   0.017   4.201  0.5002 -0.6281 -1.0596
    3MOL0     C  313   7.817   0.014   4.182 -0.6854 -0.8491 -0.2804
    3MOL0     C  314   7.880   0.092   4.061 -0.2671  0.5303 -0.3335
    3MOL0    Cl  315   7.849   0.017   3.900 -0.0032  0.0741  0.0025
    3MOL0     C  316   7.244   0.428   4.645 -0.3478 -0.1772 -0.4032
    3MOL0     C  317   7.210   0.510   4.759  0.2255  1.1871 -0.4613
    3MOL0     O  318   7.194   0.814   4.850 -0.8488 -0.3144  0.3863
    3MOL0     C  319   6.883   0.816   5.033  0.3601 -0.0662 -0.0201
    3MOL0     C  320   6.816   0.884   5.134  0.0886 -0.4590 -0.2128
    3MOL0     N  321   6.924   1.464   5.667 -0.0573  0.7934 -0.0485
    3MOL0     N  322   6.898   1.591   5.652 -0.2474 -0.3287 -0.4026
    3MOL0     C  323   6.328   2.164   6.269  0.0879  0.0115 -0.0200
    3MOL0     C  324   6.245   2.050   6.246 -0.0239 -0.1923 -1.0812
    3MOL0     C  325   6.000   1.699   6.106  0.7359  0.0093 -0.1632
    3MOL0     C  326   5.962   1.709   5.965 -0.6754  0.1647 -0.3372
    3MOL0     C  327   5.899   1.595   5.902  0.4539 -0.3736 -0.8026
    3MOL0     C  328   5.855   1.481   5.974  1.5874 -0.5510 -0.7597
    3MOL0     O  329   5.785   1.375   5.923  0.7122  0.2479 -0.2713
    3MOL0     C  330   5.701   1.398   5.810  0.4541  0.5173 -0.1723
    3MOL0     C  331   5.728   1.323   5.685 -0.4294  0.3331  0.5548
    3MOL0     C  332   5.642   1.363   5.568  1.2023  0.1693 -0.0293
    3MOL0     C  333   5.658   1.261   5.467  0.2905  0.0658 -0.4680
    3MOL0     C  334   5.742   1.301   5.353  0.7223 -0.6738  0.4703
    3MOL0     C  335   5.820   1.337   5.267  0.9085  0.6000 -0.4522
    3MOL0     C  336   5.894   1.480   6.105  0.2424 -0.2369  0.3408
    3MOL0     C  337   5.962   1.585   6.168 -0.2301  0.6871  0.7393
    3MOL0     H  338   6.167   2.098   5.927 -0.3315  2.4255  0.0625
    3MOL0     H  339   6.352   2.275   5.949 -0.0764  0.9598  2.7607
    3MOL0     H  340   6.606   2.422   6.282 -0.5581  2.0371 -2.3543
    3MOL0     H  341   6.612   2.256   6.284  1.0808  0.2347 -0.3766
    3MOL0     H  342   6.634   2.398   6.009  0.7865  1.7798  1.7538
    3MOL0     H  343   6.778   2.394   6.105  1.3756 -1.2379 -1.5860
    3MOL0     H  344   6.830   2.201   6.070  0.0787 -0.8697 -1.2316
    3MOL0     H  345   6.679   2.135   6.111  2.2877 -0.8761  0.0545
    3MOL0     H  346   6.583   2.173   5.872  1.2889 -0.9348 -0.5249
    3MOL0     H  347   6.748   2.227   5.836  0.1958  0.6882  0.3518
    3MOL0     H  348   6.837   2.028   5.898 -0.1318  0.3472 -1.8679
    3MOL0     H  349   6.668   1.966   5.943 -0.3539 -0.5853 -2.0665
    3MOL0     H  350   6.593   1.986   5.707  1.3023 -1.0728 -2.7715
    3MOL0     H  351   6.738   2.077   5.668  1.2268  0.2943 -0.3133
    3MOL0     H  352   6.771   1.878   5.566 -0.3631  0.6782  0.1036
    3MOL0     H  353   6.865   1.856   5.708  0.2816  1.4247 -2.9246
    3MOL0     H  354   6.601   1.729   5.644  2.2117 -0.3675 -3.8225
    3MOL0     H  355   6.652   1.745   5.812 -5.3140 -2.5554 -1.2939
    3MOL0     H  356   6.595   1.477   5.739  0.1133  2.1065  0.9591
    3MOL0     H  357   6.875   1.207   5.799 -0.0119  0.3058 -0.7670
    3MOL0     H  358   6.702   1.218   5.740 -0.9442  2.3700  1.4943
    3MOL0     H  359   6.940   1.223   5.553  0.3342 -1.0346 -1.0756
    3MOL0     H  360   6.768   1.238   5.498  0.6607 -0.7907 -1.5008
    3MOL0     H  361   6.720   1.029   5.577 -0.0484  1.0870  1.7634
    3MOL0     H  362   6.869   0.992   5.665  2.9705  1.8869 -0.2181
    3MOL0     H  363   6.868   0.871   5.446  2.7736 -0.1329 -1.2986
    3MOL0     H  364   6.990   0.997   5.452  0.0859  0.5737  0.3489
    3MOL0     H  365   7.056   1.105   5.208  0.2979  0.2485 -1.6419
    3MOL0     H  366   7.241   1.025   4.931 -0.5928  1.3454  0.2880
    3MOL0     H  367   7.261   1.099   5.079  1.9255 -2.4558  4.1093
    3MOL0     H  368   7.278   0.935   5.081  2.9280  1.7359 -1.9677
    3MOL0     H  369   6.911   0.624   4.611  0.4280 -0.7768 -0.5157
    3MOL0     H  370   6.982   0.483   4.430 -1.9705  0.7521  0.3222
    3MOL0     H  371   7.053   0.340   4.286  0.6743  1.8568 -4.0883
    3MOL0     H  372   7.185   0.458   4.288 -0.5624 -0.6025  1.1696
    3MOL0     H  373   7.204   0.165   4.219 -0.8346 -0.9347 -2.8812
    3MOL0     H  374   7.220   0.288   4.098  0.0433 -1.6696 -0.2651
    3MOL0     H  375   7.408   0.294   4.333  5.7156 -1.6662  0.1278
    3MOL0     H  376   7.431   0.331   4.166 -1.2967  0.5811 -1.2689
    3MOL0     H  377   7.411   0.049   4.254 -3.3781 -0.9767 -1.5457
    3MOL0     H  378   7.422   0.086   4.096 -0.7753 -0.7476  1.4488
    3MOL0     H  379   7.623   0.200   4.290  1.3995 -1.6331  0.6567
    3MOL0     H  380   7.628   0.231   4.114 -0.3955  1.6019  1.6558
    3MOL0     H  381   7.625  -0.024   4.294 -5.8836  5.3077 -0.4581
    3MOL0     H  382   7.618  -0.050   4.129 -1.3999 -1.3034  0.7482
    3MOL0     H  383   7.828  -0.093   4.160 -0.3825 -1.5900  2.8794
    3MOL0     H  384   7.865   0.035   4.278 -1.0903 -2.2623  0.2662
    3MOL0     H  385   7.987   0.096   4.084 -1.0170  0.9959  4.0073
    3MOL0     H  386   7.832   0.191   4.053 -1.4939  0.0230  0.4158
    3MOL0     H  387   7.325   0.357   4.660 -1.8137 -2.8400 -3.8014
    3MOL0     H  388   7.275   0.504   4.845 -1.2204  0.9585  0.6492
    3MOL0     H  389   6.830   0.736   4.981 -0.6651  1.1917 -0.9853
    3MOL0     H  390   6.718   0.849   5.164 -1.8673  3.3820 -1.4551
    3MOL0     H  391   6.354   2.160   6.375 -1.5530  0.2718  0.4253
    3MOL0     H  392   6.224   1.992   6.335 -0.2863  2.7945  0.9336
    3MOL0     H  393   5.976   1.790   5.894 -0.0261  0.6860  0.3709
    3MOL0     H  394   5.849   1.615   5.808 -3.6512  0.0146  1.2398
    3MOL0     H  395   5.603   1.369   5.848  2.0022 -0.7868  3.2652
    3MOL0     H  396   5.708   1.500   5.772  4.6596 -0.4982 -2.8855
    3MOL0     H  397   5.709   1.218   5.706  3.3249 -0.8247 -1.0143
    3MOL0     H  398   5.836   1.328   5.667 -0.3578 -3.5209 -0.9957
    3MOL0     H  399   5.656   1.460   5.520  0.5415 -0.3351 -1.2834
    3MOL0     H  400   5.540   1.356   5.609  0.0981 -1.3362 -2.7641
    3MOL0     H  401   5.556   1.236   5.437  0.2185 -1.3920  0.8561
    3MOL0     H  402   5.700   1.170   5.511 -0.2605  0.9296  1.9859
    3MOL0     H  403   5.872   1.388   5.189  1.6538  0.8481  0.1976
    3MOL0     H  404   5.864   1.401   6.173 -0.2450 -0.3176  0.0365
    3MOL0     H  405   5.996   1.577   6.271  2.0693 -0.0730 -0.0281
    4MOL0     O  406   6.078   4.197   7.409 -0.7337  0.6153  0.3403
    4MOL0     C  407   5.993   4.145   7.341  0.6840  0.5531 -0.4178
    4MOL0     O  408   6.005   4.100   7.211  0.0319  0.5036  0.7730
    4MOL0     C  409   6.126   4.106   7.141 -0.6490 -0.4827 -0.6800
    4MOL0     C  410   6.257   4.118   7.197 -0.1491 -0.4257  0.0398
    4MOL0     C  411   6.367   4.126   7.118 -0.8017 -0.8287  0.4519
    4MOL0     C  412   6.358   4.127   6.983 -0.2392 -0.2489  0.6662
    4MOL0     O  413   6.472   4.151   6.911  0.3924  0.2441  0.0613
    4MOL0     C  414   6.473   4.188   6.763  0.6233 -0.3982  0.1837
    4MOL0     C  415   6.485   4.345   6.756  0.1809 -0.6764  0.2861
    4MOL0     C  416   6.353   4.419   6.784 -0.5515  0.4633 -0.0100
    4MOL0     C  417   6.360   4.511   6.907 -0.5284  0.2512 -0.1482
    4MOL0     C  418   6.231   4.575   6.946  0.6192 -0.3610 -0.3284
    4MOL0     C  419   6.224   4.654   7.081 -0.4134 -0.3150  0.4662
    4MOL0     C  420   6.273   4.558   7.192  0.6949  0.2279  0.5214
    4MOL0     C  421   6.175   4.439   7.217  0.3328 -0.1851 -0.3446
    4MOL0     N  422   6.043   4.489   7.265 -0.8729  0.5840 -0.1958
    4MOL0     C  423   6.024   4.560   7.381 -0.0321 -0.8974 -0.8269
    4MOL0     C  424   5.891   4.599   7.379 -0.7635 -0.5126 -0.0459
    4MOL0     C  425   5.820   4.643   7.502  0.0068 -0.0546 -0.1215
    4MOL0     C  426   5.721   4.756   7.483 -0.3412 -0.4632 -0.2192
    4MOL0     C  427   5.793   4.893   7.476  0.1025  0.4950 -0.1745
    4MOL0     C  428   5.700   5.019   7.458 -0.0075 -0.1450 -0.4803
    4MOL0     O  429   5.611   4.990   7.344  0.2565 -0.0562 -0.3524
    4MOL0     C  430   5.589   5.072   7.242 -1.2541 -0.2334 -0.0237
    4MOL0     C  431   5.592   5.213   7.255 -0.0528  0.0445  0.1972
    4MOL0     C  432   5.583   5.299   7.147  0.2725 -0.7752 -0.1740
    4MOL0     C  433   5.600   5.443   7.167  0.3037  0.0257 -0.3336
    4MOL0     C  434   5.573   5.244   7.022  0.6886 -0.1689 -0.4483
    4MOL0     C  435   5.569   5.328   6.899 -0.8987 -0.6082 -0.7304
    4MOL0     O  436   5.612   5.250   6.796  0.5280  0.0144  0.0235
    4MOL0     C  437   5.627   5.317   6.675 -0.5544  0.1680 -0.0105
    4MOL0     C  438   5.721   5.418   6.661 -0.9828 -0.3487 -0.0092
    4MOL0     C  439   5.742   5.488   6.541  0.1727 -0.2059  0.7824
    4MOL0     C  440   5.660   5.452   6.422 -0.1840 -0.6576 -1.0247
    4MOL0     O  441   5.670   5.529   6.306 -0.9000  0.6009 -0.2489
    4MOL0     C  442   5.579   5.636   6.285 -0.9631  0.8401  0.0714
    4MOL0     C  443   5.552   5.645   6.134  0.5873 -0.0706 -0.8025
    4MOL0     C  444   5.661   5.701   6.049  0.2004  0.2835 -0.3439
    4MOL0     C  445   5.637   5.701   5.902  0.0991  0.1079 -0.3644
    4MOL0     C  446   5.518   5.796   5.859  0.0768  0.1551 -0.1735
    4MOL0     C  447   5.384   5.721   5.833 -1.1928  0.0370  0.5189
    4MOL0     C  448   5.391   5.605   5.726  0.5733  0.1264 -0.5580
    4MOL0     C  449   5.340   5.474   5.779  0.3608  0.1657  0.2111
    4MOL0    Cl  450   5.174   5.492   5.836 -0.1504 -0.1991 -0.0036
    4MOL0     C  451   5.573   5.342   6.434 -0.7545 -0.1470 -0.5796
    4MOL0     C  452   5.560   5.269   6.551 -0.1669  0.3256  0.5421
    4MOL0     O  453   5.526   5.441   6.893 -0.2863 -0.1259  0.3131
    4MOL0     C  454   5.554   5.105   7.002  0.1227 -0.3899  0.2271
    4MOL0     C  455   5.575   5.021   7.108  0.1725 -0.0046 -0.2383
    4MOL0     N  456   5.839   4.547   7.255 -0.4320  0.2274 -0.4214
    4MOL0     N  457   5.928   4.479   7.193 -0.1409  0.2035 -0.3306
    4MOL0     C  458   6.233   4.098   6.924 -0.1485 -0.2792 -0.1856
    4MOL0     C  459   6.114   4.089   7.000 -0.4361 -0.1983  0.6409
    4MOL0     C  460   5.859   4.119   7.409  0.2680  0.1705  0.0348
    4MOL0     C  461   5.807   4.225   7.481 -0.5059 -0.4494  0.4271
    4MOL0     C  462   5.692   4.214   7.550  0.6260  0.1713  0.2952
    4MOL0     C  463   5.613   4.098   7.537 -0.3334  0.4102  0.5472
    4MOL0     O  464   5.486   4.087   7.607  0.0538  0.3357  0.5874
    4MOL0     C  465   5.431   4.208   7.660 -0.0780 -0.2826  0.5241
    4MOL0     C  466   5.282   4.196   7.683 -0.8754  0.0581 -0.3714
    4MOL0     C  467   5.247   4.074   7.773 -0.1596 -0.5504  0.0374
    4MOL0     C  468   5.095   4.067   7.806 -0.2049 -0.7150  0.2922
    4MOL0     C  469   5.011   4.073   7.685  0.1348  0.1216 -0.4824
    4MOL0     C  470   4.936   4.079   7.592 -0.2895  1.3596  0.8122
    4MOL0     C  471   5.668   3.980   7.480 -0.4177 -0.3518  0.8810
    4MOL0     C  472   5.783   3.994   7.398  0.5778 -0.1092 -0.1838
    4MOL0     H  473   6.277   4.131   7.303 -1.7244 -0.2170  0.3490
    4MOL0     H  474   6.455   4.155   7.174 -0.6693  1.7611 -0.9151
    4MOL0     H  475   6.559   4.147   6.709  3.6441 -0.5689  4.6039
    4MOL0     H  476   6.382   4.154   6.714 -0.0879  2.1294 -0.4154
    4MOL0     H  477   6.566   4.378   6.822  1.7830  1.6108 -2.5490
    4MOL0     H  478   6.528   4.368   6.658  0.9475 -1.5521  0.4040
    4MOL0     H  479   6.349   4.473   6.690  2.8152 -3.0427 -2.4856
    4MOL0     H  480   6.274   4.343   6.791 -1.8434  1.7921  0.4846
    4MOL0     H  481   6.415   4.467   6.991 -0.0884  1.5622  0.2736
    4MOL0     H  482   6.420   4.595   6.870 -0.4944 -1.0803 -3.4775
    4MOL0     H  483   6.202   4.644   6.866 -1.8104 -1.3763 -0.4144
    4MOL0     H  484   6.161   4.491   6.948  2.4526 -2.0269 -1.8738
    4MOL0     H  485   6.288   4.741   7.066  1.2485 -1.3661  1.1476
    4MOL0     H  486   6.125   4.698   7.086 -0.1838  1.1914 -3.7914
    4MOL0     H  487   6.375   4.526   7.168 -0.1607 -0.2877 -3.0950
    4MOL0     H  488   6.277   4.611   7.287  2.6290  3.2660 -1.0743
    4MOL0     H  489   6.222   4.377   7.294 -4.0555 -0.6178  2.3641
    4MOL0     H  490   6.159   4.377   7.128  2.5426 -0.8104 -0.3582
    4MOL0     H  491   6.098   4.591   7.454  0.2978  0.1693 -1.5809
    4MOL0     H  492   5.770   4.559   7.550  4.7277 -2.1355  1.8163
    4MOL0     H  493   5.889   4.661   7.585 -0.7213  4.6706 -0.2508
    4MOL0     H  494   5.656   4.745   7.570 -2.2924  1.7156 -1.2981
    4MOL0     H  495   5.664   4.742   7.391 -1.5733 -1.5077  0.6663
    4MOL0     H  496   5.862   4.886   7.391  0.0677  2.3440 -0.3959
    4MOL0     H  497   5.858   4.911   7.563 -0.0683  1.6925 -0.2745
    4MOL0     H  498   5.751   5.113   7.431 -2.5414  1.1836 -0.9499
    4MOL0     H  499   5.642   5.032   7.550 -3.6724  0.3040 -2.6421
    4MOL0     H  500   5.607   5.257   7.353 -3.9415 -0.6419  1.2548
    4MOL0     H  501   5.509   5.501   7.152 -0.6935 -2.2015 -4.1665
    4MOL0     H  502   5.624   5.435   7.274 -2.4934 -2.7278  0.2249
    4MOL0     H  503   5.683   5.483   7.108 -0.8025  1.5731 -0.9206
    4MOL0     H  504   5.787   5.449   6.742 -1.9911 -1.3127  1.2177
    4MOL0     H  505   5.810   5.572   6.536 -0.8534  0.8175  2.6710
    4MOL0     H  506   5.486   5.618   6.339  0.2512  0.2154  2.0789
    4MOL0     H  507   5.620   5.734   6.311  1.9353 -0.7429  2.0752
    4MOL0     H  508   5.527   5.540   6.115  1.3810 -0.8694  2.0453
    4MOL0     H  509   5.460   5.704   6.121  1.8977  1.8869 -1.7722
    4MOL0     H  510   5.739   5.632   6.083 -1.4366 -0.6023  1.8980
    4MOL0     H  511   5.691   5.797   6.093  1.6092  0.7073 -2.1383
    4MOL0     H  512   5.733   5.729   5.857  0.8036  0.4794  1.2777
    4MOL0     H  513   5.607   5.599   5.875 -2.9409  1.2046 -1.4488
    4MOL0     H  514   5.547   5.839   5.763  0.1741 -0.9718 -0.6601
    4MOL0     H  515   5.511   5.882   5.927  1.7191 -1.8439  2.7839
    4MOL0     H  516   5.354   5.671   5.926  1.3618 -1.8027  0.4516
    4MOL0     H  517   5.315   5.803   5.810 -0.9520  1.6021  4.4296
    4MOL0     H  518   5.491   5.587   5.685  0.7745  0.2888 -0.1432
    4MOL0     H  519   5.344   5.650   5.638 -2.4749  0.8922  1.3204
    4MOL0     H  520   5.405   5.450   5.864  0.1950  2.2328  0.9622
    4MOL0     H  521   5.352   5.402   5.698 -2.5879  1.3710 -1.4457
    4MOL0     H  522   5.513   5.324   6.346  1.8547  1.1016 -2.7509
    4MOL0     H  523   5.493   5.184   6.561  0.5928 -0.0687  3.0403
    4MOL0     H  524   5.556   5.054   6.906 -0.0273 -2.5241  1.2939
    4MOL0     H  525   5.586   4.916   7.085  0.1666 -0.4279  1.5402
    4MOL0     H  526   6.217   4.093   6.817 -0.5016  0.2650 -0.1594
    4MOL0     H  527   6.023   4.073   6.945  0.7427 -0.0283 -1.4807
    4MOL0     H  528   5.857   4.320   7.493  1.3632 -1.5576  1.8153
    4MOL0     H  529   5.664   4.293   7.618  0.0726  0.0494  0.2130
    4MOL0     H  530   5.473   4.231   7.758 -1.2876  2.9207  0.4084
    4MOL0     H  531   5.439   4.295   7.594 -0.2847 -1.1600 -0.7008
    4MOL0     H  532   5.238   4.178   7.584 -0.7011  1.4684 -0.7256
    4MOL0     H  533   5.239   4.286   7.727  0.3811  0.5295 -0.0645
    4MOL0     H  534   5.309   4.080   7.862  0.2860 -0.2421 -0.2888
    4MOL0     H  535   5.261   3.982   7.715  0.4719  1.1403 -2.6578
    4MOL0     H  536   5.083   4.156   7.868  2.8393 -0.0783  0.1050
    4MOL0     H  537   5.066   3.988   7.876 -1.2255  0.6510  1.4688
    4MOL0     H  538   4.870   4.083   7.508  1.7907  1.4053 -0.9206
    4MOL0     H  539   5.600   3.896   7.476 -1.9847  0.7293  2.7678
    4MOL0     H  540   5.818   3.912   7.337 -3.0663 -0.2369 -2.3785
    5MOL0     O  541   1.900   8.615   9.372  0.1499  0.0475  0.5393
    5MOL0     C  542   1.964   8.691   9.298  0.3541  0.1472 -1.0228
    5MOL0     O  543   2.085   8.649   9.246 -1.2364 -0.1456  0.5826
    5MOL0     C  544   2.143   8.516   9.264  0.0753 -0.1828 -0.5719
    5MOL0     C  545   2.280   8.510   9.267  0.5400  0.2331 -0.4741
    5MOL0     C  546   2.344   8.392   9.299  0.3128  1.1817 -0.0124
    5MOL0     C  547   2.268   8.279   9.334 -0.1599 -0.0559  0.4281
    5MOL0     O  548   2.325   8.167   9.392  0.0158 -1.1909  0.3025
    5MOL0     C  549   2.428   8.092   9.318  0.1524 -0.6306  0.4000
    5MOL0     C  550   2.428   7.963   9.394  0.4212 -0.5060 -0.3478
    5MOL0     C  551   2.503   7.861   9.322 -0.0464  0.3060 -0.2748
    5MOL0     C  552   2.540   7.742   9.423 -0.4018 -0.6621 -1.4505
    5MOL0     C  553   2.561   7.612   9.359 -0.9639 -0.8187 -0.6161
    5MOL0     C  554   2.426   7.553   9.311 -0.1283  0.5447 -0.3068
    5MOL0     C  555   2.442   7.412   9.247  0.4370  0.3239 -0.9073
    5MOL0     C  556   2.420   7.308   9.357  0.7356 -0.3996  0.2707
    5MOL0     N  557   2.451   7.175   9.302 -0.4342  0.0795  0.0345
    5MOL0     C  558   2.411   7.134   9.172  0.2687 -0.5624  0.1409
    5MOL0     C  559   2.461   7.005   9.158  0.2576  0.0931 -0.8771
    5MOL0     C  560   2.418   6.927   9.031 -0.9680 -0.6044 -1.0779
    5MOL0     C  561   2.263   6.896   9.022  0.5431 -0.1365  0.1114
    5MOL0     C  562   2.210   6.810   9.124  0.3263 -0.1861  0.5030
    5MOL0     C  563   2.284   6.677   9.144  0.0790 -0.3426  0.3079
    5MOL0     O  564   2.254   6.589   9.035 -0.0219 -0.2033  0.0306
    5MOL0     C  565   2.281   6.456   9.044 -0.2265  0.6878 -0.1898
    5MOL0     C  566   2.230   6.382   8.942  0.8281  0.2167 -0.6855
    5MOL0     C  567   2.222   6.246   8.935  0.2445  0.6042  0.5802
    5MOL0     C  568   2.162   6.184   8.807  0.0083  0.6971 -0.4071
    5MOL0     C  569   2.270   6.169   9.036 -0.2158 -1.1622 -0.6139
    5MOL0     C  570   2.248   6.021   9.045  0.1615  0.4322  0.2630
    5MOL0     O  571   2.290   5.969   9.158  0.3127 -0.2212  0.7898
    5MOL0     C  572   2.214   5.879   9.221 -0.5763  0.8522 -0.9303
    5MOL0     C  573   2.285   5.766   9.272  1.0582 -0.5527 -0.2894
    5MOL0     C  574   2.206   5.668   9.340 -0.1506 -0.0021  0.2711
    5MOL0     C  575   2.064   5.680   9.359 -0.8022  0.6197 -0.8085
    5MOL0     O  576   1.994   5.579   9.409  0.3843  0.4474 -0.8928
    5MOL0     C  577   1.899   5.527   9.303 -0.6474 -0.2698 -0.3575
    5MOL0     C  578   1.968   5.456   9.183  1.4436 -0.0021 -0.2770
    5MOL0     C  579   1.862   5.400   9.085 -0.3120  0.5303  0.0392
    5MOL0     C  580   1.792   5.504   9.013  0.0614  0.6118 -0.3099
    5MOL0     C  581   1.674   5.451   8.916 -0.2753  0.2830 -0.4317
    5MOL0     C  582   1.714   5.344   8.809 -1.0210  0.6603 -0.6043
    5MOL0     C  583   1.589   5.301   8.737  0.5423  0.1126  0.3856
    5MOL0     C  584   1.615   5.224   8.606  1.1846 -0.0977 -1.5864
    5MOL0    Cl  585   1.771   5.120   8.612  0.1953 -0.1406 -0.3061
    5MOL0     C  586   1.999   5.787   9.304 -1.7559  0.5407 -0.7859
    5MOL0     C  587   2.073   5.881   9.225 -0.2943  0.3592 -0.5036
    5MOL0     O  588   2.182   5.954   8.963  0.0351  0.2985 -0.3008
    5MOL0     C  589   2.326   6.239   9.152 -0.3349  0.5035 -0.1286
    5MOL0     C  590   2.335   6.380   9.151  0.7102 -0.0810 -0.8983
    5MOL0     N  591   2.516   6.964   9.278 -0.3568  0.4093 -0.0480
    5MOL0     N  592   2.509   7.068   9.363 -0.1965  0.2677  0.2589
    5MOL0     C  593   2.128   8.282   9.323 -0.4306  0.7926  0.5970
    5MOL0     C  594   2.067   8.400   9.280  0.3790  0.8762  0.0523
    5MOL0     C  595   1.907   8.819   9.262  1.6620 -1.0305 -0.2589
    5MOL0     C  596   1.785   8.867   9.322 -0.5958 -0.0082 -0.1788
    5MOL0     C  597   1.728   8.992   9.281  0.7192  0.4464 -0.2445
    5MOL0     C  598   1.804   9.081   9.200 -0.7107  0.3366 -0.0193
    5MOL0     O  599   1.747   9.198   9.152  0.1389 -0.2050  0.3279
    5MOL0     C  600   1.679   9.284   9.236 -0.6115 -0.4268  0.7897
    5MOL0     C  601   1.634   9.412   9.156 -0.6518  0.0532  0.8616
    5MOL0     C  602   1.762   9.495   9.122  0.1138 -0.8519 -0.7150
    5MOL0     C  603   1.731   9.630   9.055 -0.8710  0.5459  0.5168
    5MOL0     C  604   1.637   9.700   9.147  0.1567 -0.1671 -0.1140
    5MOL0     C  605   1.565   9.765   9.223 -0.4988  0.2545 -0.7133
    5MOL0     C  606   1.926   9.034   9.144 -0.6713 -0.2431 -0.6496
    5MOL0     C  607   1.975   8.905   9.175 -0.2320 -0.7267  1.0135
    5MOL0     H  608   2.330   8.599   9.231  1.2955 -1.0702 -2.8038
    5MOL0     H  609   2.452   8.376   9.301  0.1915  0.3228  0.0118
    5MOL0     H  610   2.401   8.078   9.213 -0.1433  1.5511  0.1238
    5MOL0     H  611   2.524   8.144   9.314 -1.2020  1.9926 -1.9145
    5MOL0     H  612   2.461   7.983   9.496  2.0959 -3.7375 -0.1153
    5MOL0     H  613   2.325   7.928   9.402  0.5252 -0.8870 -0.6430
    5MOL0     H  614   2.438   7.829   9.240 -4.0105 -2.5757  3.5376
    5MOL0     H  615   2.600   7.904   9.295  0.2627 -0.8709 -1.1449
    5MOL0     H  616   2.634   7.765   9.473 -1.6114  1.3704  0.0532
    5MOL0     H  617   2.456   7.727   9.491  0.9294  3.3030  1.4407
    5MOL0     H  618   2.638   7.622   9.282 -0.2932  2.6859  0.3610
    5MOL0     H  619   2.596   7.553   9.444 -3.2767  1.0516  1.8109
    5MOL0     H  620   2.352   7.537   9.391  0.5281  0.0318  0.2110
    5MOL0     H  621   2.385   7.609   9.227  0.9221  1.0503 -0.4916
    5MOL0     H  622   2.359   7.407   9.176  0.8613  0.6032 -1.4262
    5MOL0     H  623   2.536   7.387   9.196  1.4343 -2.8290  2.0887
    5MOL0     H  624   2.318   7.306   9.395  0.4706 -3.0580 -0.3751
    5MOL0     H  625   2.486   7.329   9.442  0.1599 -1.2188  0.9305
    5MOL0     H  626   2.357   7.194   9.100  0.3456 -2.3956 -1.5223
    5MOL0     H  627   2.442   6.992   8.947 -0.8625  0.0183 -0.5723
    5MOL0     H  628   2.473   6.832   9.027 -0.4011 -0.4260  1.1906
    5MOL0     H  629   2.233   6.848   8.929  0.5123  1.1101 -0.5453
    5MOL0     H  630   2.208   6.990   9.026  2.2543  1.1509 -2.9896
    5MOL0     H  631   2.110   6.770   9.105  1.4528 -2.8829 -0.2272
    5MOL0     H  632   2.198   6.860   9.221 -4.2502 -1.9043  1.0757
    5MOL0     H  633   2.237   6.625   9.228 -0.9810 -1.8653 -1.1564
    5MOL0     H  634   2.385   6.710   9.169  0.7662 -2.6630  0.8433
    5MOL0     H  635   2.185   6.444   8.864 -0.3770  1.5892  1.0112
    5MOL0     H  636   2.067   6.143   8.844  0.7182 -0.1906  0.5045
    5MOL0     H  637   2.151   6.263   8.732  2.9783  0.5749 -1.0854
    5MOL0     H  638   2.229   6.111   8.762  0.8283  1.3443 -0.2487
    5MOL0     H  639   2.394   5.763   9.274  1.1684  0.9406  2.8917
    5MOL0     H  640   2.259   5.584   9.385 -0.2816  0.6536  1.7195
    5MOL0     H  641   1.834   5.459   9.359 -0.0247 -0.3957  0.2337
    5MOL0     H  642   1.841   5.612   9.266 -1.3401 -1.5020 -2.2309
    5MOL0     H  643   2.043   5.512   9.126 -0.8119  2.1287 -1.3698
    5MOL0     H  644   2.029   5.378   9.231  1.7174  1.3075  1.6262
    5MOL0     H  645   1.789   5.329   9.126  1.8933  0.1857  3.9384
    5MOL0     H  646   1.929   5.349   9.015  1.5702  0.3752  1.8581
    5MOL0     H  647   1.752   5.573   9.089  2.5737  1.4631  0.3193
    5MOL0     H  648   1.861   5.565   8.954  0.1264  0.6082 -0.2379
    5MOL0     H  649   1.612   5.530   8.873 -1.4696  0.0204  0.7375
    5MOL0     H  650   1.605   5.395   8.980  0.4601 -2.8554 -2.1768
    5MOL0     H  651   1.786   5.380   8.734  0.7164 -0.0082  0.6662
    5MOL0     H  652   1.752   5.263   8.872 -0.9301 -0.1271 -1.6461
    5MOL0     H  653   1.526   5.388   8.713  1.4923  0.4156 -1.1702
    5MOL0     H  654   1.533   5.235   8.804 -3.2884  1.3625 -1.3129
    5MOL0     H  655   1.618   5.292   8.521 -0.5282  2.0946 -0.0079
    5MOL0     H  656   1.531   5.156   8.593  0.8469  0.2216 -1.1200
    5MOL0     H  657   1.893   5.812   9.311 -1.6880  0.5776  0.3061
    5MOL0     H  658   2.019   5.962   9.178  1.0278  1.6043  0.0402
    5MOL0     H  659   2.376   6.183   9.231  0.2557  0.3803 -0.5845
    5MOL0     H  660   2.382   6.415   9.242  1.0688 -0.7643 -0.8141
    5MOL0     H  661   2.079   8.192   9.357  2.2819  0.0789  3.0582
    5MOL0     H  662   1.959   8.409   9.279  0.3493  0.4724 -1.2421
    5MOL0     H  663   1.739   8.791   9.384 -0.3116 -0.4281 -0.4713
    5MOL0     H  664   1.623   9.011   9.301  1.1137  0.3100  2.3233
    5MOL0     H  665   1.581   9.242   9.262 -1.3737  0.7564 -0.0811
    5MOL0     H  666   1.736   9.314   9.324  2.6096 -0.9074 -0.9772
    5MOL0     H  667   1.558   9.465   9.213 -1.3260 -0.3870  0.3931
    5MOL0     H  668   1.592   9.373   9.062  0.2676 -1.0584  0.8800
    5MOL0     H  669   1.824   9.422   9.069 -0.9792 -2.2348 -0.1688
    5MOL0     H  670   1.820   9.506   9.215  0.0204 -2.4515 -0.4328
    5MOL0     H  671   1.684   9.632   8.956  0.6617  5.5777 -0.4032
    5MOL0     H  672   1.828   9.676   9.033  0.8197 -2.2947  1.5433
    5MOL0     H  673   1.514   9.817   9.301  0.1344 -2.1561  1.4433
    5MOL0     H  674   1.986   9.108   9.091 -1.1460  1.5605  1.2090
    5MOL0     H  675   2.067   8.866   9.132 -0.7555  1.0064 -2.0223
    6MOL0     O  676   3.832   7.206   3.251  0.3162 -0.1448  0.0890
    6MOL0     C  677   3.854   7.210   3.365  0.2870 -0.1453 -0.9107
    6MOL0     O  678   3.907   7.318   3.428 -0.7765  0.4196 -0.3961
    6MOL0     C  679   3.973   7.428   3.363  0.8582  0.2532 -0.4971
    6MOL0     C  680   4.088   7.481   3.418 -0.3271  0.2785  0.1082
    6MOL0     C  681   4.163   7.580   3.336 -0.3886  0.4874 -0.3750
    6MOL0     C  682   4.117   7.620   3.206  0.0786  0.1202  0.4957
    6MOL0     O  683   4.167   7.731   3.124 -0.6176  0.1702 -0.5932
    6MOL0     C  684   4.314   7.746   3.135 -1.1245 -0.2559  0.5561
    6MOL0     C  685   4.369   7.833   3.021 -0.3710  0.5202  0.1684
    6MOL0     C  686   4.314   7.982   3.016 -0.1941 -0.4121 -1.4680
    6MOL0     C  687   4.399   8.063   2.915 -0.8174 -0.8448 -0.1741
    6MOL0     C  688   4.349   8.212   2.895  0.1397  0.0674 -0.9814
    6MOL0     C  689   4.462   8.290   2.822  0.1714  0.4993  0.0902
    6MOL0     C  690   4.411   8.435   2.810 -0.6410 -0.2926  0.2749
    6MOL0     C  691   4.519   8.522   2.738 -0.3251 -1.0947 -0.0242
    6MOL0     N  692   4.481   8.666   2.717 -0.1631  0.8309 -0.0350
    6MOL0     C  693   4.367   8.689   2.642 -0.3417 -0.7561  0.2714
    6MOL0     C  694   4.387   8.823   2.597  0.7482  0.5873 -0.0800
    6MOL0     C  695   4.318   8.922   2.508 -0.1174 -0.3092 -0.3263
    6MOL0     C  696   4.184   8.868   2.464  0.1753  0.6292 -0.5348
    6MOL0     C  697   4.179   8.780   2.333  0.3450 -0.6742  0.6270
    6MOL0     C  698   4.236   8.638   2.352 -0.5860  0.3512  0.5468
    6MOL0     O  699   4.171   8.573   2.461 -0.2723 -0.4231  0.4693
    6MOL0     C  700   4.212   8.439   2.488 -0.9858  0.2903 -1.2822
    6MOL0     C  701   4.317   8.376   2.424 -0.9266 -0.6024  0.5816
    6MOL0     C  702   4.351   8.242   2.446 -0.2442 -0.2823 -0.5765
    6MOL0     C  703   4.465   8.182   2.366 -0.3872 -0.0412  0.4568
    6MOL0     C  704   4.257   8.162   2.521  0.4315  0.6168 -0.1191
    6MOL0     C  705   4.244   8.012   2.511  0.6089  0.4843 -0.0552
    6MOL0     O  706   4.177   7.956   2.608  0.1242  0.3932 -0.3892
    6MOL0     C  707   4.180   7.823   2.641 -0.2662 -0.2055 -0.5353
    6MOL0     C  708   4.086   7.780   2.731 -0.2852 -1.0832 -0.1002
    6MOL0     C  709   4.078   7.651   2.770 -0.3376 -0.0182  0.4610
    6MOL0     C  710   4.173   7.561   2.726  0.1165 -0.0278  0.0201
    6MOL0     O  711   4.169   7.430   2.741  0.2393 -0.1130 -0.2996
    6MOL0     C  712   4.147   7.387   2.875  1.1495  0.1267  0.2193
    6MOL0     C  713   4.279   7.342   2.945  0.4197  0.1396 -0.0181
    6MOL0     C  714   4.238   7.294   3.091 -0.1037 -0.1820 -0.0770
    6MOL0     C  715   4.328   7.182   3.152 -0.8413  0.5802  0.3627
    6MOL0     C  716   4.269   7.107   3.267  0.7929  0.5833 -0.9969
    6MOL0     C  717   4.368   7.010   3.329  0.6166  0.3600  0.4424
    6MOL0     C  718   4.308   6.960   3.459  0.0052  0.3449 -0.3188
    6MOL0     C  719   4.339   6.816   3.503  0.2740 -1.0813  0.6540
    6MOL0    Cl  720   4.222   6.774   3.630  0.3503 -0.2798 -0.0316
    6MOL0     C  721   4.259   7.600   2.638 -0.0317 -0.7266  0.5950
    6MOL0     C  722   4.272   7.728   2.592 -0.4094 -0.0444 -0.7907
    6MOL0     O  723   4.282   7.962   2.411 -0.5342  0.6077  0.1372
    6MOL0     C  724   4.161   8.230   2.594 -0.0423  0.6680  0.1294
    6MOL0     C  725   4.145   8.370   2.584 -0.8859  0.9151 -0.5532
    6MOL0     N  726   4.520   8.861   2.636 -0.6837 -0.1622  1.6753
    6MOL0     N  727   4.570   8.769   2.708  0.1624 -0.3284 -0.9870
    6MOL0     C  728   4.000   7.569   3.163  0.0499 -1.0650 -0.1787
    6MOL0     C  729   3.932   7.470   3.235  0.0591  0.5482 -0.1931
    6MOL0     C  730   3.813   7.104   3.453 -1.0021 -0.4863 -0.3397
    6MOL0     C  731   3.697   7.032   3.425  1.0118  1.7828 -0.5750
    6MOL0     C  732   3.666   6.912   3.484 -0.0750  0.4143 -0.4353
    6MOL0     C  733   3.749   6.866   3.597 -0.4578 -0.6626 -0.7045
    6MOL0     O  734   3.737   6.746   3.661  0.5570  0.3898  0.5297
    6MOL0     C  735   3.637   6.755   3.770 -0.5204 -0.2031  0.7883
    6MOL0     C  736   3.709   6.701   3.896 -0.1519 -1.0860 -0.1328
    6MOL0     C  737   3.819   6.803   3.943 -0.0428  0.5294  0.3980
    6MOL0     C  738   3.861   6.765   4.089 -0.2116 -0.0949 -0.1803
    6MOL0     C  739   3.944   6.643   4.106 -0.4548  0.1291 -1.0524
    6MOL0     C  740   3.999   6.533   4.114 -0.0146 -0.0474 -0.1663
    6MOL0     C  741   3.856   6.942   3.626 -0.4322 -0.1177 -0.9704
    6MOL0     C  742   3.889   7.073   3.567  0.1521 -0.7857  0.6988
    6MOL0     H  743   4.131   7.457   3.514  2.3684  0.8365 -0.8742
    6MOL0     H  744   4.255   7.636   3.353  0.4741 -0.9823  0.1132
    6MOL0     H  745   4.345   7.795   3.228  3.9366 -0.3711 -0.7735
    6MOL0     H  746   4.344   7.641   3.134  0.2661  0.1228  0.9710
    6MOL0     H  747   4.477   7.830   3.037 -0.8345 -0.2279  3.9963
    6MOL0     H  748   4.336   7.793   2.925 -3.3997  2.1076  0.4179
    6MOL0     H  749   4.210   7.970   2.985 -0.1956  1.5397 -2.3442
    6MOL0     H  750   4.304   8.030   3.113  1.0579 -1.6216 -0.6893
    6MOL0     H  751   4.501   8.079   2.951 -1.3331  2.9916 -0.0051
    6MOL0     H  752   4.397   8.009   2.820 -0.9538  0.5128 -0.9597
    6MOL0     H  753   4.250   8.208   2.849 -0.7403  0.0415  0.8380
    6MOL0     H  754   4.316   8.258   2.988  0.4014 -0.4646 -0.6187
    6MOL0     H  755   4.549   8.289   2.889  0.6509  1.7931 -0.4733
    6MOL0     H  756   4.483   8.254   2.721 -0.7558  2.3656 -0.8237
    6MOL0     H  757   4.316   8.430   2.757 -0.6512  1.1552  0.1295
    6MOL0     H  758   4.381   8.459   2.913  3.5352 -0.2464  1.6611
    6MOL0     H  759   4.556   8.484   2.642 -0.1364  0.5571 -0.6423
    6MOL0     H  760   4.609   8.535   2.798  1.2390 -0.3023 -2.3879
    6MOL0     H  761   4.271   8.640   2.638 -0.6632 -0.1170 -3.2824
    6MOL0     H  762   4.300   9.014   2.565 -1.2874 -0.9907  0.4451
    6MOL0     H  763   4.378   8.937   2.418 -0.0404 -1.6557 -0.5169
    6MOL0     H  764   4.122   8.956   2.447 -1.5205 -0.2548  0.7906
    6MOL0     H  765   4.130   8.810   2.539 -1.6183  2.3875 -0.3814
    6MOL0     H  766   4.234   8.825   2.250  2.2068  0.9089  2.5984
    6MOL0     H  767   4.074   8.767   2.304  0.7696 -2.4152 -0.2597
    6MOL0     H  768   4.343   8.655   2.368 -0.3861  0.2906 -0.6305
    6MOL0     H  769   4.218   8.575   2.264 -1.9972 -0.1317  1.1559
    6MOL0     H  770   4.377   8.423   2.347  0.4900 -3.5897 -0.2663
    6MOL0     H  771   4.489   8.090   2.421  0.4238  0.0295  0.2240
    6MOL0     H  772   4.436   8.154   2.264  1.4983 -2.1360  0.4261
    6MOL0     H  773   4.555   8.244   2.361 -1.6581  1.7821 -1.5727
    6MOL0     H  774   4.021   7.853   2.779 -1.2635 -0.9890 -1.5123
    6MOL0     H  775   4.000   7.620   2.837 -0.3980 -0.0191  0.3904
    6MOL0     H  776   4.090   7.455   2.938 -0.2557  0.0121 -0.8904
    6MOL0     H  777   4.090   7.295   2.861  0.6373  0.6501 -1.3075
    6MOL0     H  778   4.317   7.263   2.880  1.1286 -1.0335  1.7610
    6MOL0     H  779   4.355   7.420   2.948  1.4567 -0.8243 -0.4952
    6MOL0     H  780   4.140   7.249   3.075 -0.8602  1.9392 -2.0729
    6MOL0     H  781   4.223   7.368   3.170 -2.0543 -2.0388  1.3968
    6MOL0     H  782   4.347   7.119   3.064 -2.1302  0.4014  0.2005
    6MOL0     H  783   4.423   7.225   3.185 -1.1037  0.8242  0.8021
    6MOL0     H  784   4.176   7.063   3.230  0.9909 -0.2932 -0.4572
    6MOL0     H  785   4.254   7.174   3.352  4.0295 -2.8426  2.6639
    6MOL0     H  786   4.384   6.923   3.265  1.2811  0.2700  0.7249
    6MOL0     H  787   4.470   7.047   3.338  1.3563 -1.3339 -0.4192
    6MOL0     H  788   4.199   6.958   3.448 -0.1559 -0.0932  1.1643
    6MOL0     H  789   4.338   7.040   3.528  0.7838 -1.4546  1.5165
    6MOL0     H  790   4.442   6.815   3.541  0.8167  4.8350  0.2314
    6MOL0     H  791   4.320   6.753   3.416 -1.7622 -0.7567  0.8238
    6MOL0     H  792   4.335   7.536   2.594  2.1445  2.7878 -1.2216
    6MOL0     H  793   4.345   7.750   2.515  1.2127  1.7429  1.1464
    6MOL0     H  794   4.087   8.182   2.656  2.3784 -3.5230  0.1553
    6MOL0     H  795   4.070   8.414   2.649 -0.5552  0.3007  0.2588
    6MOL0     H  796   3.964   7.597   3.065 -1.1826 -3.6992 -0.5557
    6MOL0     H  797   3.843   7.431   3.187 -1.2926  3.8842 -0.6992
    6MOL0     H  798   3.646   7.078   3.341 -1.4322  0.1290 -0.0804
    6MOL0     H  799   3.580   6.850   3.461 -0.1444  0.4888 -0.3762
    6MOL0     H  800   3.604   6.859   3.776  4.2149  1.5577  0.2643
    6MOL0     H  801   3.545   6.697   3.753  0.6910 -2.2447  0.8982
    6MOL0     H  802   3.763   6.606   3.887  4.0446  0.9188  1.3316
    6MOL0     H  803   3.632   6.681   3.971  0.3233 -0.4506  0.5375
    6MOL0     H  804   3.787   6.908   3.937 -3.3595 -0.1436  3.1370
    6MOL0     H  805   3.909   6.781   3.885  0.6055 -0.0512  1.5674
    6MOL0     H  806   3.776   6.764   4.157  0.4827  0.6172  0.7137
    6MOL0     H  807   3.928   6.846   4.120  0.3973 -1.5206  2.4774
    6MOL0     H  808   4.058   6.444   4.129 -0.3854  0.2021  3.8451
    6MOL0     H  809   3.908   6.921   3.719 -1.1589  0.2489 -0.4617
    6MOL0     H  810   3.973   7.124   3.612  0.4336 -0.6528  0.0319
    7MOL0     O  811   5.169  10.024   5.674 -0.0227  0.0279 -0.4735
    7MOL0     C  812   5.292  10.031   5.707  1.0302 -0.2141 -0.3012
    7MOL0     O  813   5.347  10.144   5.770 -0.8048  0.9275 -0.2123
    7MOL0     C  814   5.270  10.249   5.805  0.0205 -0.4979  0.5255
    7MOL0     C  815   5.150  10.234   5.871  0.2130  0.1503 -0.1566
    7MOL0     C  816   5.057  10.340   5.900 -0.4705 -0.1848 -0.3020
    7MOL0     C  817   5.090  10.469   5.861 -0.8578 -0.1594  0.1415
    7MOL0     O  818   5.011  10.568   5.913  0.6099  0.5267  0.7937
    7MOL0     C  819   5.018  10.699   5.853 -1.3098 -0.2824 -0.0297
    7MOL0     C  820   4.945  10.703   5.713 -0.1575  0.8979  0.4638
    7MOL0     C  821   4.800  10.673   5.731 -1.3487  0.6865  0.5317
    7MOL0     C  822   4.717  10.775   5.811 -0.5093 -0.0964 -0.5717
    7MOL0     C  823   4.594  10.704   5.861 -0.7776  0.0735  0.5640
    7MOL0     C  824   4.468  10.778   5.919 -0.6500  0.4523  0.0440
    7MOL0     C  825   4.398  10.676   6.011  0.1216  0.0672 -0.0567
    7MOL0     C  826   4.325  10.570   5.932 -0.0769 -0.5080 -0.4877
    7MOL0     N  827   4.410  10.459   5.885 -0.2494 -0.1261  0.1136
    7MOL0     C  828   4.494  10.377   5.958  0.2459  0.8149 -0.9029
    7MOL0     C  829   4.546  10.291   5.871 -0.1488  0.2959  0.2600
    7MOL0     C  830   4.640  10.179   5.904  0.1094 -1.4639  0.3110
    7MOL0     C  831   4.584  10.079   6.000 -0.2094 -0.6261 -0.1871
    7MOL0     C  832   4.687   9.965   6.031  0.4635 -0.5142 -1.0102
    7MOL0     C  833   4.720   9.937   6.182 -0.3501 -0.5873  0.3733
    7MOL0     O  834   4.799  10.038   6.246  0.2027 -0.4942  0.5371
    7MOL0     C  835   4.735  10.146   6.306 -0.1657 -0.0724  0.0331
    7MOL0     C  836   4.768  10.273   6.254  0.4665 -0.9599 -1.2924
    7MOL0     C  837   4.708  10.388   6.295 -0.4371  0.9494 -0.3598
    7MOL0     C  838   4.770  10.509   6.227 -1.1395 -0.4236 -0.4358
    7MOL0     C  839   4.598  10.384   6.391  1.1508  0.6194 -0.3456
    7MOL0     C  840   4.521  10.508   6.421  0.7180  0.9486 -0.4441
    7MOL0     O  841   4.485  10.587   6.315 -0.4314 -0.2241  0.7416
    7MOL0     C  842   4.416  10.699   6.345  0.1544  0.6897  0.1090
    7MOL0     C  843   4.282  10.695   6.383  0.0307  0.1521  1.1827
    7MOL0     C  844   4.206  10.812   6.410 -0.7060 -0.5081 -0.6775
    7MOL0     C  845   4.272  10.937   6.406  0.2959 -0.6695  0.2862
    7MOL0     O  846   4.192  11.049   6.437  0.0781  1.1457  0.5892
    7MOL0     C  847   4.202  11.132   6.317  0.3178 -0.4304  0.6846
    7MOL0     C  848   4.066  11.188   6.274  0.1249 -0.6936 -0.2773
    7MOL0     C  849   3.974  11.065   6.239 -0.1094 -0.5659 -0.2092
    7MOL0     C  850   3.847  11.124   6.192 -0.1845 -0.5146 -0.1487
    7MOL0     C  851   3.738  11.018   6.192 -0.2561  0.6272 -0.0759
    7MOL0     C  852   3.593  11.076   6.157 -0.5694 -0.0688  0.7435
    7MOL0     C  853   3.483  10.975   6.169  0.1450 -0.9175 -0.2390
    7MOL0     C  854   3.460  10.894   6.052 -0.0610  0.8786  0.5102
    7MOL0    Cl  855   3.338  10.966   5.935 -0.3537  0.4696 -0.1763
    7MOL0     C  856   4.405  10.944   6.368 -0.2107 -0.8310  0.9391
    7MOL0     C  857   4.477  10.825   6.342 -0.0346  0.6006 -0.2480
    7MOL0     O  858   4.495  10.526   6.542  0.3404 -0.3002  0.4083
    7MOL0     C  859   4.555  10.255   6.434 -0.4148 -0.0580  0.3904
    7MOL0     C  860   4.627  10.137   6.398  0.6892  0.6559 -1.1020
    7MOL0     N  861   4.492  10.315   5.742 -0.2743  0.0062 -0.6714
    7MOL0     N  862   4.418  10.416   5.750  0.2583 -0.2552 -0.2922
    7MOL0     C  863   5.210  10.486   5.794  0.1261 -0.3847 -0.3705
    7MOL0     C  864   5.300  10.379   5.761  0.9378 -0.3148 -0.4048
    7MOL0     C  865   5.370   9.920   5.658 -0.5403  0.8218 -0.3281
    7MOL0     C  866   5.500   9.896   5.715  0.8795  0.1375 -0.1480
    7MOL0     C  867   5.580   9.787   5.692 -0.1240 -0.8081 -0.2213
    7MOL0     C  868   5.543   9.704   5.586 -0.1820  0.3141  0.0702
    7MOL0     O  869   5.596   9.585   5.555 -0.5955 -0.7514 -0.2976
    7MOL0     C  870   5.732   9.552   5.589 -0.2503  1.0370  0.3622
    7MOL0     C  871   5.798   9.422   5.536 -0.6247  0.0724  0.4200
    7MOL0     C  872   5.817   9.398   5.385 -0.4607  0.3371 -0.4567
    7MOL0     C  873   5.838   9.252   5.356 -0.1226  0.5036 -0.0191
    7MOL0     C  874   5.726   9.171   5.371  0.8524 -0.1876  0.2056
    7MOL0     C  875   5.622   9.105   5.389  0.0805 -0.3472 -1.1022
    7MOL0     C  876   5.420   9.721   5.519 -1.1608  0.8380 -0.8104
    7MOL0     C  877   5.338   9.824   5.560 -0.3511 -1.0566 -0.8568
    7MOL0     H  878   5.127  10.132   5.900  0.1178  0.0203 -0.6774
    7MOL0     H  879   4.964  10.311   5.949 -0.6156 -1.3885 -1.2184
    7MOL0     H  880   4.981  10.770   5.928  1.9419 -2.5446  4.1397
    7MOL0     H  881   5.123  10.729   5.848 -1.4901  0.7916  1.8569
    7MOL0     H  882   4.963  10.804   5.674 -1.0316  0.3017 -1.5938
    7MOL0     H  883   4.983  10.636   5.636  0.3425  1.7709 -0.0710
    7MOL0     H  884   4.754  10.654   5.634 -1.2534 -1.7288  0.8742
    7MOL0     H  885   4.796  10.573   5.777  1.7861 -0.3356 -1.1887
    7MOL0     H  886   4.775  10.815   5.895 -1.9380  0.6261  0.1159
    7MOL0     H  887   4.683  10.864   5.757 -3.6568  1.1177  2.9871
    7MOL0     H  888   4.557  10.654   5.771  0.1984  0.9382 -0.3490
    7MOL0     H  889   4.618  10.613   5.917 -0.1949 -1.5221 -2.0928
    7MOL0     H  890   4.503  10.869   5.969  1.1235  2.3651 -4.1653
    7MOL0     H  891   4.397  10.808   5.841 -2.0705 -2.2472  0.1872
    7MOL0     H  892   4.468  10.630   6.081  1.4141  1.5817 -0.3096
    7MOL0     H  893   4.330  10.732   6.075  0.7298  0.6027  0.1272
    7MOL0     H  894   4.279  10.609   5.841 -2.6332 -1.8360  0.1557
    7MOL0     H  895   4.248  10.528   5.997  1.7416 -0.1409  2.0436
    7MOL0     H  896   4.513  10.386   6.064  0.6801  0.8098 -0.9768
    7MOL0     H  897   4.654  10.123   5.811 -1.3166 -0.8811 -0.2916
    7MOL0     H  898   4.735  10.225   5.932 -0.8485 -0.6435  2.4799
    7MOL0     H  899   4.497  10.029   5.957 -0.3068 -0.3338 -0.3305
    7MOL0     H  900   4.560  10.133   6.092 -1.2516 -0.0816 -0.7622
    7MOL0     H  901   4.785  10.001   5.996 -0.1742  1.1194 -1.1998
    7MOL0     H  902   4.662   9.869   5.985  1.0124 -2.5223  2.5035
    7MOL0     H  903   4.772   9.841   6.186 -0.9593 -1.0352 -1.5137
    7MOL0     H  904   4.624   9.922   6.233 -1.8057 -1.2884 -2.3847
    7MOL0     H  905   4.860  10.286   6.198  1.7832  0.6502  1.0926
    7MOL0     H  906   4.772  10.585   6.305 -2.3275  1.5894 -2.2788
    7MOL0     H  907   4.869  10.495   6.184 -1.5465 -2.2419 -0.8704
    7MOL0     H  908   4.699  10.556   6.158  1.0350  0.5986 -2.0853
    7MOL0     H  909   4.243  10.594   6.389  1.4109 -0.4345  0.6977
    7MOL0     H  910   4.104  10.799   6.443 -0.2307  0.7571  1.5145
    7MOL0     H  911   4.261  11.223   6.329  3.0950 -2.2563  1.8413
    7MOL0     H  912   4.252  11.081   6.234 -0.8895  3.1588 -2.5487
    7MOL0     H  913   4.022  11.225   6.367  1.0954 -1.5890  0.5629
    7MOL0     H  914   4.057  11.274   6.207 -3.9653 -0.7631 -0.0840
    7MOL0     H  915   3.964  11.007   6.331  2.8548  0.7260  1.0545
    7MOL0     H  916   4.012  10.997   6.162  2.8373 -0.4782  1.0534
    7MOL0     H  917   3.820  11.193   6.273  0.9632 -0.1390 -0.0668
    7MOL0     H  918   3.858  11.191   6.106 -2.1927 -0.8445 -0.7158
    7MOL0     H  919   3.748  10.947   6.274 -0.6620 -3.7270 -3.4438
    7MOL0     H  920   3.771  10.957   6.107 -0.8166  0.3958 -0.1249
    7MOL0     H  921   3.576  11.152   6.235 -0.4228  0.3704  0.3495
    7MOL0     H  922   3.595  11.121   6.057  2.6085 -2.4698 -0.4012
    7MOL0     H  923   3.389  11.026   6.192  0.6879  0.2846 -0.6183
    7MOL0     H  924   3.504  10.903   6.249 -3.0599 -0.8226  0.8153
    7MOL0     H  925   3.429  10.799   6.097 -0.9300  1.6131  1.4874
    7MOL0     H  926   3.556  10.880   6.001 -0.7626 -1.0225 -0.3895
    7MOL0     H  927   4.453  11.037   6.343 -0.2056 -1.3040 -0.9377
    7MOL0     H  928   4.582  10.827   6.313  0.0964  0.8032  0.2367
    7MOL0     H  929   4.486  10.254   6.518 -1.1756 -0.7603 -0.2196
    7MOL0     H  930   4.597  10.040   6.438  1.0928  0.3402 -1.5499
    7MOL0     H  931   5.245  10.579   5.752 -0.7349 -0.2179 -0.7292
    7MOL0     H  932   5.390  10.403   5.706  0.2304  1.9580 -0.6850
    7MOL0     H  933   5.519   9.957   5.803 -0.4146 -0.9933  0.9630
    7MOL0     H  934   5.670   9.759   5.746  0.3393 -1.0988 -1.1232
    7MOL0     H  935   5.805   9.631   5.571  3.5388 -1.9240  1.5196
    7MOL0     H  936   5.732   9.545   5.698 -0.1099 -0.2811  0.2893
    7MOL0     H  937   5.733   9.337   5.562 -1.7444  1.1925  1.3721
    7MOL0     H  938   5.891   9.398   5.589  1.0840  0.9370 -1.9997
    7MOL0     H  939   5.909   9.453   5.362  0.9345 -1.0116  1.6153
    7MOL0     H  940   5.734   9.436   5.325 -1.7462  0.2106  1.1797
    7MOL0     H  941   5.912   9.206   5.422 -1.3752  1.0028  1.7919
    7MOL0     H  942   5.870   9.230   5.254 -1.8337 -3.4094  0.0839
    7MOL0     H  943   5.542   9.034   5.395  0.0871 -0.5196 -2.5841
    7MOL0     H  944   5.387   9.665   5.432  0.1961 -2.3878  0.5688
    7MOL0     H  945   5.249   9.840   5.500  0.5287  0.6651 -1.7696
    8MOL0     O  946   7.857   4.729   8.650 -0.1624  0.1268  0.3982
    8MOL0     C  947   7.905   4.782   8.741 -0.7777  0.2023  0.3442
    8MOL0     O  948   7.948   4.712   8.850 -0.1926 -0.8602 -0.9085
    8MOL0     C  949   7.909   4.577   8.875 -0.6186  0.0360 -0.2275
    8MOL0     C  950   7.784   4.522   8.875  0.6119 -0.8727  0.5651
    8MOL0     C  951   7.754   4.391   8.905  0.0330 -0.5884 -0.3529
    8MOL0     C  952   7.855   4.301   8.947 -0.7216 -0.4541  0.5749
    8MOL0     O  953   7.822   4.174   8.974  0.7166 -0.4151 -0.0437
    8MOL0     C  954   7.846   4.119   9.099 -0.2298 -0.1736 -1.0512
    8MOL0     C  955   7.907   3.977   9.104  0.2234  0.7023  0.1988
    8MOL0     C  956   8.050   3.980   9.046  0.3437  0.1887  0.7119
    8MOL0     C  957   8.115   3.840   9.032  0.7109 -0.8781  0.1812
    8MOL0     C  958   8.154   3.774   9.159  0.0071 -0.2684 -1.2380
    8MOL0     C  959   8.289   3.846   9.209 -0.2261 -1.0125 -0.8316
    8MOL0     C  960   8.361   3.776   9.326  0.0289 -0.5064 -0.1167
    8MOL0     C  961   8.486   3.851   9.368 -0.3929 -0.2225 -1.1086
    8MOL0     N  962   8.452   3.987   9.421  0.1703 -0.0677 -0.0053
    8MOL0     C  963   8.498   4.105   9.370 -0.5106 -0.0189 -0.2000
    8MOL0     C  964   8.431   4.203   9.440  0.1577 -0.0704  0.5844
    8MOL0     C  965   8.432   4.349   9.403  1.6581  0.3507  1.0209
    8MOL0     C  966   8.347   4.381   9.274  0.0219  0.4716 -1.0405
    8MOL0     C  967   8.392   4.520   9.228  0.5233  0.0454  0.0338
    8MOL0     C  968   8.317   4.546   9.091 -0.5409 -0.9604  0.6457
    8MOL0     O  969   8.367   4.671   9.050 -0.5758  0.0834  0.1686
    8MOL0     C  970   8.305   4.791   9.081  0.6754 -0.5421  0.1604
    8MOL0     C  971   8.189   4.809   9.158  0.1821 -0.0194 -0.6935
    8MOL0     C  972   8.140   4.936   9.202  0.3582 -0.1835  0.6232
    8MOL0     C  973   8.028   4.928   9.302  0.2219 -0.6614  0.3896
    8MOL0     C  974   8.204   5.055   9.153 -0.0650  0.0184 -0.6036
    8MOL0     C  975   8.159   5.187   9.196  0.1114 -0.4269  1.1047
    8MOL0     O  976   8.080   5.264   9.106 -0.3797 -0.1219 -0.3214
    8MOL0     C  977   8.041   5.387   9.145  0.1164 -1.3061 -0.3096
    8MOL0     C  978   8.101   5.505   9.100 -0.1372 -0.1365  1.2268
    8MOL0     C  979   8.053   5.632   9.141  1.0540  0.4004  0.2163
    8MOL0     C  980   7.942   5.640   9.227  0.4305 -0.7779 -0.1272
    8MOL0     O  981   7.884   5.755   9.271 -0.3675 -0.4025 -0.0972
    8MOL0     C  982   7.844   5.839   9.157  1.0186 -0.0206  0.8911
    8MOL0     C  983   7.728   5.786   9.085  0.3655  0.0417 -0.3059
    8MOL0     C  984   7.646   5.886   9.008 -0.9711 -0.1529  0.1428
    8MOL0     C  985   7.720   5.980   8.913 -0.5430 -0.3632  0.2604
    8MOL0     C  986   7.626   6.045   8.808  0.3834  0.8416 -0.0370
    8MOL0     C  987   7.583   5.940   8.705 -0.1869  0.5224  0.2270
    8MOL0     C  988   7.504   6.010   8.599 -0.0121 -0.1363  1.5948
    8MOL0     C  989   7.417   5.906   8.533 -0.5314 -0.4887  0.2655
    8MOL0    Cl  990   7.520   5.778   8.453 -0.2580  0.0133  0.2024
    8MOL0     C  991   7.884   5.525   9.281  1.2544 -0.9412  0.8151
    8MOL0     C  992   7.935   5.401   9.238  0.4883 -1.3421  0.4532
    8MOL0     O  993   8.191   5.213   9.314 -0.1689 -0.6331 -0.2966
    8MOL0     C  994   8.326   5.038   9.091 -0.0740 -0.7380  1.1955
    8MOL0     C  995   8.370   4.912   9.045 -0.2909 -0.2127  0.1604
    8MOL0     N  996   8.368   4.139   9.542  0.2919 -0.7265  0.0922
    8MOL0     N  997   8.372   4.009   9.522 -0.2463 -0.7541  0.4382
    8MOL0     C  998   7.990   4.353   8.957 -0.1190  0.0225 -0.8300
    8MOL0     C  999   8.008   4.492   8.926 -0.6156  0.6187 -0.2416
    8MOL0     C 1000   7.953   4.923   8.719 -0.5637  1.2286  0.4361
    8MOL0     C 1001   8.015   4.999   8.821  1.0255  0.0530 -0.4267
    8MOL0     C 1002   8.047   5.132   8.803  1.1525  0.3346 -0.8508
    8MOL0     C 1003   8.041   5.186   8.676 -0.2810 -0.7805 -0.6858
    8MOL0     O 1004   8.077   5.321   8.665  0.2157 -0.0331  0.8860
    8MOL0     C 1005   7.987   5.395   8.747  1.1151  0.3007  0.5947
    8MOL0     C 1006   7.932   5.534   8.678  0.5351 -0.0928 -0.2463
    8MOL0     C 1007   7.831   5.607   8.755 -0.1274  0.4922  0.0625
    8MOL0     C 1008   7.689   5.540   8.769 -0.4247  0.0594  0.3714
    8MOL0     C 1009   7.665   5.488   8.907 -0.6683 -0.2410  0.9237
    8MOL0     C 1010   7.666   5.418   9.005  0.6627 -0.0619  0.5880
    8MOL0     C 1011   8.008   5.104   8.569  0.2325  0.4952  0.0003
    8MOL0     C 1012   7.942   4.984   8.595 -0.6610 -0.0625  0.6202
    8MOL0     H 1013   7.707   4.598   8.866  0.6884 -0.9076 -0.6215
    8MOL0     H 1014   7.649   4.362   8.909 -0.0943 -0.1815  3.5551
    8MOL0     H 1015   7.906   4.187   9.161  0.2395  0.0936 -1.7811
    8MOL0     H 1016   7.750   4.110   9.151  0.7453  1.2053  1.1637
    8MOL0     H 1017   7.910   3.932   9.203  3.1212 -0.6792 -0.4232
    8MOL0     H 1018   7.842   3.902   9.057  1.0011 -1.2914  2.1589
    8MOL0     H 1019   8.035   4.015   8.944 -1.0891  1.3193  1.2622
    8MOL0     H 1020   8.104   4.057   9.102  1.7810 -1.2976  1.4444
    8MOL0     H 1021   8.031   3.781   8.995  0.6918 -1.9107  1.7504
    8MOL0     H 1022   8.196   3.843   8.959  0.5399  1.6580 -0.0017
    8MOL0     H 1023   8.070   3.780   9.229  2.5117  4.1012  1.8988
    8MOL0     H 1024   8.192   3.672   9.150  1.6632  0.4150 -2.4425
    8MOL0     H 1025   8.360   3.840   9.126  1.7470  2.7260  0.3926
    8MOL0     H 1026   8.258   3.943   9.248 -2.6445 -2.5274  1.3547
    8MOL0     H 1027   8.281   3.763   9.400  0.5286  1.4736  0.8291
    8MOL0     H 1028   8.404   3.684   9.286  3.3536  1.4339 -1.3936
    8MOL0     H 1029   8.564   3.868   9.293 -1.3626 -0.2130 -2.1411
    8MOL0     H 1030   8.524   3.796   9.455 -1.5329  0.9040  0.1418
    8MOL0     H 1031   8.566   4.115   9.286  0.0847  1.5226  0.4334
    8MOL0     H 1032   8.392   4.405   9.489 -2.3942  0.5707 -0.7580
    8MOL0     H 1033   8.529   4.389   9.373 -0.6498  2.0201 -6.1131
    8MOL0     H 1034   8.243   4.401   9.300 -0.1356  0.9071 -1.9571
    8MOL0     H 1035   8.369   4.309   9.195  2.0798  1.5122 -1.4779
    8MOL0     H 1036   8.500   4.521   9.208  0.5598  0.1126  0.2261
    8MOL0     H 1037   8.353   4.583   9.308 -1.5401  0.8333 -1.5271
    8MOL0     H 1038   8.208   4.541   9.097 -0.4720 -1.8759  1.3755
    8MOL0     H 1039   8.355   4.470   9.022  1.7182 -0.2320  1.0113
    8MOL0     H 1040   8.142   4.726   9.211  1.4401 -0.1685  0.2363
    8MOL0     H 1041   8.028   4.830   9.350 -0.8831 -0.8759 -0.0105
    8MOL0     H 1042   8.048   5.001   9.381  1.2551 -1.1147  0.5542
    8MOL0     H 1043   7.927   4.943   9.264 -0.2271  1.4228  2.1671
    8MOL0     H 1044   8.200   5.498   9.056 -0.7121  0.9818 -0.3358
    8MOL0     H 1045   8.093   5.726   9.105  2.2756 -0.1963 -0.0426
    8MOL0     H 1046   7.830   5.945   9.178 -3.1091  0.4768 -2.8504
    8MOL0     H 1047   7.913   5.859   9.074  0.8265 -0.5701  0.5846
    8MOL0     H 1048   7.762   5.707   9.017  4.5828  2.3136 -1.1885
    8MOL0     H 1049   7.662   5.748   9.164  1.2297  1.2732  1.0438
    8MOL0     H 1050   7.589   5.954   9.073 -1.8251 -1.3766  0.7142
    8MOL0     H 1051   7.565   5.829   8.962 -0.9124  0.9476 -1.4186
    8MOL0     H 1052   7.769   6.056   8.975  1.3260  0.4752 -2.0487
    8MOL0     H 1053   7.801   5.924   8.865  0.9644  1.8222  0.1072
    8MOL0     H 1054   7.674   6.123   8.749 -0.0202 -0.2242 -1.8456
    8MOL0     H 1055   7.532   6.078   8.853  0.0588 -0.4532  0.2579
    8MOL0     H 1056   7.673   5.897   8.661 -0.2068  1.9270 -1.2675
    8MOL0     H 1057   7.518   5.865   8.751 -1.4342  2.4031  1.6433
    8MOL0     H 1058   7.564   6.068   8.528 -2.7243 -0.9131 -1.5933
    8MOL0     H 1059   7.427   6.079   8.635 -2.7438 -1.6462 -0.8478
    8MOL0     H 1060   7.361   5.952   8.451 -0.9162  1.2710  1.4559
    8MOL0     H 1061   7.350   5.847   8.596 -3.6476  0.5896 -1.8199
    8MOL0     H 1062   7.787   5.523   9.329  0.3413 -3.1794 -0.8999
    8MOL0     H 1063   7.880   5.315   9.276 -2.9391 -1.2622 -3.5065
    8MOL0     H 1064   8.396   5.119   9.073 -1.5692 -0.1043 -2.8375
    8MOL0     H 1065   8.450   4.906   8.972 -1.2883 -0.5693 -0.9316
    8MOL0     H 1066   8.069   4.287   8.992 -0.1887  0.2508 -0.2397
    8MOL0     H 1067   8.107   4.537   8.926 -0.0614 -0.3867 -3.0887
    8MOL0     H 1068   8.023   4.957   8.921 -0.0555  3.3245  1.1783
    8MOL0     H 1069   8.074   5.195   8.887 -2.2552  1.4326 -0.4215
    8MOL0     H 1070   7.903   5.330   8.774  1.2145 -0.0570  0.0485
    8MOL0     H 1071   8.045   5.423   8.836  2.5724  2.4551 -0.9510
    8MOL0     H 1072   7.881   5.510   8.585 -1.5179 -4.3261  1.7024
    8MOL0     H 1073   8.017   5.600   8.658  0.7507  0.9343  3.3716
    8MOL0     H 1074   7.797   5.700   8.707  0.5688  1.9500  2.2582
    8MOL0     H 1075   7.887   5.634   8.845  1.0424 -0.8174 -0.2448
    8MOL0     H 1076   7.687   5.462   8.693  1.3761 -0.2881  0.6450
    8MOL0     H 1077   7.607   5.612   8.758 -1.8928 -1.5547  0.4623
    8MOL0     H 1078   7.666   5.362   9.097  3.0402 -1.3318 -0.0834
    8MOL0     H 1079   7.997   5.149   8.471 -2.9702  0.9082  0.4517
    8MOL0     H 1080   7.905   4.933   8.507  1.9237 -2.4717  0.7562
    9MOL0     O 1081   2.680   8.753   7.483  1.0461 -0.2290 -0.4421
    9MOL0     C 1082   2.740   8.857   7.516 -0.9354  0.1854  0.1715
    9MOL0     O 1083   2.822   8.877   7.625 -0.5806 -0.7424 -0.4067
    9MOL0     C 1084   2.871   8.764   7.685  0.8336 -0.0110 -0.2292
    9MOL0     C 1085   2.951   8.674   7.604 -0.0143 -0.2239  0.4677
    9MOL0     C 1086   2.999   8.559   7.672  0.6139  1.0553  0.4838
    9MOL0     C 1087   2.976   8.526   7.813  0.1120  0.0158 -0.7531
    9MOL0     O 1088   3.035   8.409   7.862  0.2746 -0.1967 -0.1999
    9MOL0     C 1089   3.039   8.378   8.002  0.0988 -0.0970 -0.0928
    9MOL0     C 1090   3.110   8.250   8.023 -0.3163  0.4463  0.5734
    9MOL0     C 1091   3.254   8.239   7.962  1.2933  1.2668  0.1060
    9MOL0     C 1092   3.286   8.095   7.946  0.2293  0.9109  0.3419
    9MOL0     C 1093   3.425   8.062   7.884  0.0174 -0.6047 -0.4604
    9MOL0     C 1094   3.450   8.127   7.749  0.2623 -0.7151 -0.2507
    9MOL0     C 1095   3.342   8.088   7.646 -0.6158 -0.5050 -0.5710
    9MOL0     C 1096   3.391   8.142   7.513  1.0302 -0.2580  0.0158
    9MOL0     N 1097   3.274   8.186   7.428  0.2272  0.3444  0.5512
    9MOL0     C 1098   3.177   8.100   7.394 -0.6224 -0.1365  0.4684
    9MOL0     C 1099   3.077   8.174   7.351  0.1249 -0.3366  0.1618
    9MOL0     C 1100   2.934   8.130   7.313 -0.3515 -0.3860 -0.1720
    9MOL0     C 1101   2.838   8.135   7.429 -0.6317 -0.7312 -0.0782
    9MOL0     C 1102   2.815   7.995   7.497  0.3502  0.7288 -0.1368
    9MOL0     C 1103   2.788   8.009   7.657 -0.1037 -0.3536  0.3144
    9MOL0     O 1104   2.655   8.064   7.668 -0.0094 -0.6175  0.3282
    9MOL0     C 1105   2.622   8.163   7.750  0.9652  0.1487  0.4432
    9MOL0     C 1106   2.506   8.237   7.722 -0.4829 -0.3655  0.8372
    9MOL0     C 1107   2.443   8.318   7.822 -0.6179  0.6037  0.1930
    9MOL0     C 1108   2.303   8.366   7.800 -0.2374 -1.0967 -0.0895
    9MOL0     C 1109   2.512   8.343   7.942  0.2574  0.7474  0.5128
    9MOL0     C 1110   2.474   8.429   8.050 -1.3498 -0.7041  0.1816
    9MOL0     O 1111   2.532   8.549   8.057 -0.1372  0.1300  0.3696
    9MOL0     C 1112   2.519   8.636   8.160  0.5793  1.2360  0.7488
    9MOL0     C 1113   2.560   8.767   8.130  0.1564  0.3020  0.0517
    9MOL0     C 1114   2.546   8.872   8.221  0.3321 -1.3122  0.4426
    9MOL0     C 1115   2.509   8.852   8.352 -0.1536  0.6091  1.2332
    9MOL0     O 1116   2.490   8.946   8.444  0.3026 -0.4508 -0.0951
    9MOL0     C 1117   2.475   9.094   8.411  0.1327  1.5645  0.8456
    9MOL0     C 1118   2.483   9.171   8.538 -0.2498 -0.0277  0.4108
    9MOL0     C 1119   2.464   9.327   8.523  0.7185  0.1143  0.0604
    9MOL0     C 1120   2.321   9.367   8.557 -1.1860  0.3687 -0.4663
    9MOL0     C 1121   2.289   9.517   8.550 -0.4655  0.1184 -0.4177
    9MOL0     C 1122   2.320   9.575   8.409 -0.4994 -0.2106 -0.3416
    9MOL0     C 1123   2.273   9.723   8.388 -0.0096 -0.1702 -0.3887
    9MOL0     C 1124   2.324   9.813   8.503  0.0829  0.8381  0.5820
    9MOL0    Cl 1125   2.505   9.793   8.505  0.0405  0.7208  0.2503
    9MOL0     C 1126   2.479   8.715   8.392  0.7624  0.5130  0.2015
    9MOL0     C 1127   2.473   8.612   8.294  0.2123 -0.1071  0.2477
    9MOL0     O 1128   2.383   8.397   8.118 -0.0973  0.4830  0.0339
    9MOL0     C 1129   2.634   8.275   7.960  0.5057  0.0653  0.5210
    9MOL0     C 1130   2.686   8.185   7.872  1.2117 -0.2447 -0.8775
    9MOL0     N 1131   3.129   8.302   7.334 -1.0169  0.6765 -0.0795
    9MOL0     N 1132   3.246   8.309   7.381  0.5104 -0.7942  0.6002
    9MOL0     C 1133   2.897   8.618   7.891  0.7616 -0.0154 -0.2172
    9MOL0     C 1134   2.847   8.737   7.823 -0.4039  0.4773 -0.2368
    9MOL0     C 1135   2.699   8.983   7.449 -0.5784  0.0652  0.3572
    9MOL0     C 1136   2.692   9.110   7.517 -0.0032  0.0587 -0.3235
    9MOL0     C 1137   2.656   9.234   7.455  0.1611 -0.3294  0.4918
    9MOL0     C 1138   2.605   9.223   7.330 -0.0361  0.5853 -0.7084
    9MOL0     O 1139   2.537   9.331   7.285 -0.4660 -0.7053 -0.3861
    9MOL0     C 1140   2.481   9.343   7.155  0.2879 -0.2465 -0.4241
    9MOL0     C 1141   2.410   9.474   7.137  0.0232 -0.4230 -0.9081
    9MOL0     C 1142   2.266   9.457   7.200  0.5582  0.1503  0.6014
    9MOL0     C 1143   2.268   9.457   7.350 -0.4689  0.3435 -0.7125
    9MOL0     C 1144   2.251   9.593   7.391 -0.0948  0.4548  0.5768
    9MOL0     C 1145   2.248   9.707   7.426 -0.3214  0.2156  0.1207
    9MOL0     C 1146   2.610   9.101   7.253  0.0223  0.4595 -0.0535
    9MOL0     C 1147   2.645   8.983   7.313 -0.3741  0.3259  0.5238
    9MOL0     H 1148   2.978   8.693   7.501 -0.4745  0.8520  0.5279
    9MOL0     H 1149   3.060   8.503   7.601 -0.0105  2.7240 -1.4678
    9MOL0     H 1150   3.073   8.465   8.059  0.7234 -0.3944  0.0017
    9MOL0     H 1151   2.938   8.369   8.042  0.9511  0.9873  2.5097
    9MOL0     H 1152   3.101   8.221   8.128  2.0115  1.4545  1.1045
    9MOL0     H 1153   3.051   8.181   7.962  0.2779 -0.3833  0.9244
    9MOL0     H 1154   3.255   8.281   7.861  0.9224 -1.3172 -1.0456
    9MOL0     H 1155   3.327   8.288   8.028  1.7260 -0.7993  1.2674
    9MOL0     H 1156   3.283   8.047   8.044 -0.8245 -0.6113 -0.3895
    9MOL0     H 1157   3.214   8.041   7.883 -0.1648  0.3260  1.2700
    9MOL0     H 1158   3.498   8.092   7.960  0.3462  1.4647 -1.5151
    9MOL0     H 1159   3.438   7.954   7.875  2.3453 -0.6205  1.8096
    9MOL0     H 1160   3.436   8.235   7.758 -2.2499 -0.9921 -0.0679
    9MOL0     H 1161   3.548   8.096   7.712 -1.2672 -3.7841 -2.1446
    9MOL0     H 1162   3.331   7.979   7.643  0.0327 -0.5537 -3.2724
    9MOL0     H 1163   3.246   8.131   7.676  0.6500 -1.1205  5.7504
    9MOL0     H 1164   3.457   8.077   7.454 -0.3518 -3.0612  1.3683
    9MOL0     H 1165   3.448   8.234   7.529 -0.4487  0.5490  0.8924
    9MOL0     H 1166   3.173   7.994   7.418 -1.9336  0.1486  1.6310
    9MOL0     H 1167   2.902   8.213   7.250  3.1751  1.7271  0.5247
    9MOL0     H 1168   2.939   8.036   7.257 -0.1419 -0.8351  0.5802
    9MOL0     H 1169   2.743   8.179   7.395 -0.7534  0.9919  2.2245
    9MOL0     H 1170   2.890   8.194   7.505  2.9822 -1.1150 -2.0395
    9MOL0     H 1171   2.903   7.933   7.480  0.7950  0.5424  2.4864
    9MOL0     H 1172   2.737   7.945   7.439  1.7660 -0.7448 -0.8419
    9MOL0     H 1173   2.864   8.074   7.702 -1.5574  1.4996  0.1914
    9MOL0     H 1174   2.792   7.909   7.701  0.5133  0.1307  1.4104
    9MOL0     H 1175   2.443   8.243   7.634 -0.8985  0.6753  1.1891
    9MOL0     H 1176   2.237   8.364   7.887 -0.5250  2.5755 -0.0339
    9MOL0     H 1177   2.318   8.473   7.782  3.3044 -1.6250 -1.0485
    9MOL0     H 1178   2.263   8.314   7.712  2.0147 -2.2192 -0.5165
    9MOL0     H 1179   2.572   8.784   8.023 -0.1886 -3.9302 -0.8324
    9MOL0     H 1180   2.575   8.974   8.195  1.6178 -1.6000  0.6654
    9MOL0     H 1181   2.562   9.117   8.349 -0.5275  0.3803 -0.5951
    9MOL0     H 1182   2.384   9.114   8.354  0.2931  0.9697  0.3589
    9MOL0     H 1183   2.400   9.137   8.601 -1.5534  1.5549 -0.3479
    9MOL0     H 1184   2.585   9.157   8.575 -0.0185  1.3068  0.3453
    9MOL0     H 1185   2.480   9.364   8.421 -1.6397  2.9845  0.5833
    9MOL0     H 1186   2.529   9.376   8.596 -1.7715  2.1149  1.1029
    9MOL0     H 1187   2.256   9.316   8.486  1.6804 -0.2994 -2.7976
    9MOL0     H 1188   2.289   9.334   8.657  0.3207  0.1964 -0.0090
    9MOL0     H 1189   2.333   9.571   8.634  0.3579 -0.7321 -0.2774
    9MOL0     H 1190   2.184   9.533   8.577 -0.4577 -2.8632  1.9373
    9MOL0     H 1191   2.427   9.572   8.385 -0.4481  1.9856 -0.5950
    9MOL0     H 1192   2.268   9.517   8.332  0.5446  0.2647 -1.4486
    9MOL0     H 1193   2.165   9.738   8.391  0.1920  2.0716  4.2519
    9MOL0     H 1194   2.310   9.751   8.289  1.7215  1.2197  0.5870
    9MOL0     H 1195   2.273   9.791   8.597 -0.2494  3.5892  1.1193
    9MOL0     H 1196   2.304   9.920   8.489  0.6849  0.9409  0.4681
    9MOL0     H 1197   2.454   8.694   8.495  0.1897  0.5191  0.0682
    9MOL0     H 1198   2.432   8.519   8.332 -0.4713  0.0927  0.0122
    9MOL0     H 1199   2.692   8.302   8.047  1.7138 -0.6727 -0.0349
    9MOL0     H 1200   2.767   8.119   7.904  1.7700  0.6361 -0.4459
    9MOL0     H 1201   2.873   8.620   7.997  0.1071 -1.8712 -0.2946
    9MOL0     H 1202   2.782   8.811   7.868 -0.2958  0.0023  0.7097
    9MOL0     H 1203   2.747   9.131   7.608  0.4395 -0.4990 -0.4508
    9MOL0     H 1204   2.652   9.330   7.506  0.1143 -0.8390  1.4635
    9MOL0     H 1205   2.556   9.344   7.075 -1.7018  0.8802 -2.3600
    9MOL0     H 1206   2.415   9.258   7.139 -0.6105  0.3523  0.0166
    9MOL0     H 1207   2.392   9.494   7.031 -1.0291 -1.1429 -0.8729
    9MOL0     H 1208   2.460   9.548   7.200  0.1495 -1.3081  0.0551
    9MOL0     H 1209   2.222   9.366   7.160  1.5010 -1.1330  2.3651
    9MOL0     H 1210   2.189   9.531   7.176  1.0407  0.7468  0.8485
    9MOL0     H 1211   2.357   9.427   7.406  2.2099  5.0012 -1.9301
    9MOL0     H 1212   2.183   9.407   7.400 -0.5708  2.4020  1.3711
    9MOL0     H 1213   2.257   9.813   7.441  3.4881  0.2230 -0.9579
    9MOL0     H 1214   2.567   9.082   7.155 -2.1379 -2.6755  1.3279
    9MOL0     H 1215   2.650   8.884   7.269  2.9745  1.1215 -1.2383
   10MOL0     O 1216   8.733   0.247  11.385 -0.0835 -0.4074  0.3294
   10MOL0     C 1217   8.614   0.277  11.391  0.4502  0.9140 -0.1559
   10MOL0     O 1218   8.531   0.249  11.499 -0.2292 -0.0482  0.0951
   10MOL0     C 1219   8.589   0.208  11.617  0.9170  0.5051  0.1084
   10MOL0     C 1220   8.535   0.102  11.686 -0.3342 -0.2230  0.1081
   10MOL0     C 1221   8.593   0.056  11.802 -0.6839  0.0291 -0.0509
   10MOL0     C 1222   8.696   0.137  11.863 -0.1542  0.2197 -0.7654
   10MOL0     O 1223   8.749   0.115  11.986  0.4198  0.7374 -1.1595
   10MOL0     C 1224   8.728  -0.009  12.056  0.4804  0.4973  0.6949
   10MOL0     C 1225   8.814  -0.009  12.191  1.0309  0.2304  0.2946
   10MOL0     C 1226   8.962   0.019  12.163 -0.3204 -0.3074  0.2791
   10MOL0     C 1227   9.044  -0.015  12.286 -0.5869  0.2558  0.2119
   10MOL0     C 1228   9.007   0.055  12.418  0.5515  0.2078  0.5887
   10MOL0     C 1229   9.118   0.035  12.520 -1.3652 -0.0489  0.6246
   10MOL0     C 1230   9.065   0.078  12.661 -0.1019  0.3320 -0.0872
   10MOL0     C 1231   9.149   0.033  12.782  0.7905 -0.7127 -0.0638
   10MOL0     N 1232   9.252   0.135  12.818 -0.1945 -0.5045 -0.5503
   10MOL0     C 1233   9.369   0.157  12.754 -0.3947  0.6617  0.3465
   10MOL0     C 1234   9.412   0.279  12.795 -0.9863 -0.0450 -0.9683
   10MOL0     C 1235   9.546   0.346  12.760  0.0950  0.4951 -1.1218
   10MOL0     C 1236   9.613   0.413  12.881 -0.1879 -0.7544 -0.0340
   10MOL0     C 1237   9.730   0.489  12.833 -0.3664  0.1560 -0.0365
   10MOL0     C 1238   9.821   0.538  12.945  0.4244 -0.2515  0.2082
   10MOL0     O 1239   9.893   0.432  13.015  0.0850 -0.8583 -0.3156
   10MOL0     C 1240  10.002   0.487  13.082  0.8228 -0.7835 -0.2086
   10MOL0     C 1241  10.046   0.624  13.099 -0.1803  0.3048  0.3479
   10MOL0     C 1242  10.161   0.653  13.170 -0.1527 -0.2206  0.2862
   10MOL0     C 1243  10.196   0.804  13.181 -0.3530 -0.0392 -0.7255
   10MOL0     C 1244  10.251   0.553  13.214 -0.0042 -0.0403 -0.7940
   10MOL0     C 1245  10.390   0.584  13.268  0.1708 -0.0063 -0.8199
   10MOL0     O 1246  10.462   0.468  13.298  0.3913  0.6317  0.3395
   10MOL0     C 1247  10.594   0.469  13.327 -0.0507 -0.1980 -0.4180
   10MOL0     C 1248  10.661   0.351  13.287  0.6882 -0.0405  0.1818
   10MOL0     C 1249  10.799   0.333  13.311  0.1072 -0.1233  0.2930
   10MOL0     C 1250  10.878   0.423  13.377  0.4352 -0.3350  0.0647
   10MOL0     O 1251  11.014   0.402  13.387  0.3639  0.4998 -0.3012
   10MOL0     C 1252  11.095   0.493  13.463  0.2756 -0.0535  0.5464
   10MOL0     C 1253  11.241   0.468  13.446 -0.0990 -0.1309 -0.0616
   10MOL0     C 1254  11.283   0.331  13.504  0.9026 -0.3441 -0.8493
   10MOL0     C 1255  11.391   0.264  13.424  0.6243  0.2421 -0.5844
   10MOL0     C 1256  11.406   0.116  13.456  1.1851  0.3941 -0.3990
   10MOL0     C 1257  11.539   0.057  13.396 -0.1334 -0.7468 -0.0958
   10MOL0     C 1258  11.582   0.111  13.258  0.8846  0.0124 -0.3760
   10MOL0     C 1259  11.701   0.037  13.197  0.4219 -0.8917  0.4472
   10MOL0    Cl 1260  11.717   0.121  13.041 -0.2268  0.1516 -0.2992
   10MOL0     C 1261  10.806   0.540  13.420 -1.2083  0.7636  0.3804
   10MOL0     C 1262  10.672   0.558  13.400 -0.4017  0.6911  0.2112
   10MOL0     O 1263  10.432   0.695  13.288 -0.5038 -0.3726 -0.2494
   10MOL0     C 1264  10.210   0.424  13.204  1.0559 -0.5862  0.2999
   10MOL0     C 1265  10.077   0.398  13.151 -0.5558 -0.6722 -0.7290
   10MOL0     N 1266   9.326   0.319  12.891  0.0602 -0.6858  0.4996
   10MOL0     N 1267   9.235   0.235  12.913  0.7817  0.9045 -0.8074
   10MOL0     C 1268   8.738   0.251  11.798 -0.1147 -0.2698 -0.2560
   10MOL0     C 1269   8.698   0.280  11.671 -0.1530 -0.4591  0.6029
   10MOL0     C 1270   8.535   0.330  11.275  0.5351  0.0186  0.5848
   10MOL0     C 1271   8.413   0.394  11.287 -1.1115  0.4151 -0.6066
   10MOL0     C 1272   8.356   0.459  11.177  0.5376  0.6044 -0.4023
   10MOL0     C 1273   8.411   0.451  11.061  0.1838 -0.6489 -0.1366
   10MOL0     O 1274   8.340   0.506  10.954  0.2382  0.5548  0.8848
   10MOL0     C 1275   8.315   0.419  10.836 -0.4130 -0.1147  0.9880
   10MOL0     C 1276   8.220   0.476  10.737  0.6812 -1.1449 -0.6728
   10MOL0     C 1277   8.176   0.376  10.641  0.3380 -0.6197 -0.2091
   10MOL0     C 1278   8.055   0.420  10.555  0.9176  0.1672 -0.6912
   10MOL0     C 1279   8.090   0.517  10.447  0.2126 -0.2442  0.1575
   10MOL0     C 1280   8.123   0.585  10.352 -0.6772  0.3392  0.6586
   10MOL0     C 1281   8.536   0.387  11.043 -1.2874 -0.4771 -0.1245
   10MOL0     C 1282   8.600   0.328  11.151 -0.8487  0.7680  0.0897
   10MOL0     H 1283   8.461   0.040  11.636 -0.0549 -1.3198  1.0036
   10MOL0     H 1284   8.548  -0.033  11.847  3.3528 -1.8268  0.7309
   10MOL0     H 1285   8.622  -0.025  12.079 -0.0614 -1.8024 -2.6582
   10MOL0     H 1286   8.739  -0.104  12.002  0.8894 -1.3327  3.7260
   10MOL0     H 1287   8.771   0.075  12.246 -0.0654 -1.0902  1.5121
   10MOL0     H 1288   8.802  -0.109  12.232  0.1973  0.6654  1.1615
   10MOL0     H 1289   9.000  -0.054  12.091  0.2673  1.0312 -0.7978
   10MOL0     H 1290   8.978   0.122  12.131  1.3440 -0.3333  0.9468
   10MOL0     H 1291   9.038  -0.124  12.298 -1.2184 -0.0307 -2.2568
   10MOL0     H 1292   9.149   0.013  12.273 -0.6555 -0.4386 -2.2510
   10MOL0     H 1293   8.986   0.162  12.403  0.4951 -0.0628 -1.7359
   10MOL0     H 1294   8.919   0.005  12.458  0.2758 -0.3417 -0.6674
   10MOL0     H 1295   9.139  -0.072  12.516  1.1585  0.3088  2.0238
   10MOL0     H 1296   9.210   0.086  12.489 -0.8056 -1.1590  0.3996
   10MOL0     H 1297   9.045   0.184  12.677 -0.4307  0.3645 -0.6844
   10MOL0     H 1298   8.966   0.034  12.676 -0.1282  0.2537 -0.4776
   10MOL0     H 1299   9.188  -0.069  12.768  0.5031 -0.6211 -1.6398
   10MOL0     H 1300   9.076   0.043  12.863 -1.2614  5.1554 -2.1213
   10MOL0     H 1301   9.412   0.091  12.679 -0.1246 -1.6187  2.3933
   10MOL0     H 1302   9.621   0.285  12.709  0.5784  1.9998 -2.2793
   10MOL0     H 1303   9.508   0.417  12.686 -2.5947 -1.3617 -1.6311
   10MOL0     H 1304   9.633   0.347  12.966  1.4800 -0.5405 -0.2365
   10MOL0     H 1305   9.542   0.490  12.910  0.1640 -0.3756 -0.1719
   10MOL0     H 1306   9.680   0.574  12.784 -3.4568 -1.7877 -0.5005
   10MOL0     H 1307   9.775   0.430  12.753 -2.1872 -4.0195  1.7242
   10MOL0     H 1308   9.768   0.603  13.015 -0.4857 -0.7022 -0.0452
   10MOL0     H 1309   9.891   0.604  12.892  2.7514 -2.8801 -0.2576
   10MOL0     H 1310   9.984   0.698  13.049  0.2073 -0.1720 -0.8621
   10MOL0     H 1311  10.196   0.823  13.289 -4.0181 -1.1099 -0.3906
   10MOL0     H 1312  10.292   0.832  13.138 -0.8526  0.7082 -1.3713
   10MOL0     H 1313  10.120   0.867  13.135 -1.8752  1.0683  2.9055
   10MOL0     H 1314  10.606   0.273  13.236  2.4666 -0.4459 -1.2062
   10MOL0     H 1315  10.855   0.246  13.278 -0.1127  0.0575 -0.5763
   10MOL0     H 1316  11.079   0.592  13.420  1.3071  1.0584  2.5646
   10MOL0     H 1317  11.065   0.467  13.565  0.1758 -0.3549  0.4414
   10MOL0     H 1318  11.255   0.463  13.338  1.7073 -2.2964  0.2006
   10MOL0     H 1319  11.291   0.551  13.496 -2.8385  0.9864  1.0091
   10MOL0     H 1320  11.193   0.269  13.498 -1.4950  2.8481 -0.6005
   10MOL0     H 1321  11.301   0.336  13.611 -0.0239 -4.2649 -0.3606
   10MOL0     H 1322  11.370   0.277  13.317  1.3607 -2.1238 -1.0633
   10MOL0     H 1323  11.486   0.318  13.426  0.8831 -0.2190  1.2147
   10MOL0     H 1324  11.327   0.050  13.419  2.7001 -1.9763  0.3466
   10MOL0     H 1325  11.423   0.113  13.564  0.4528  3.1991 -0.1383
   10MOL0     H 1326  11.617   0.083  13.467  0.1037  2.0369 -1.2234
   10MOL0     H 1327  11.536  -0.052  13.396 -0.2034 -0.7458 -0.4510
   10MOL0     H 1328  11.599   0.218  13.249  2.4740 -0.1851  0.0146
   10MOL0     H 1329  11.493   0.087  13.199 -1.8247 -2.2016  4.1032
   10MOL0     H 1330  11.693  -0.072  13.184  2.8940 -0.8695 -2.2538
   10MOL0     H 1331  11.793   0.062  13.250  0.1307 -0.6077  0.8197
   10MOL0     H 1332  10.847   0.616  13.486  1.4100 -0.3867  0.2252
   10MOL0     H 1333  10.615   0.645  13.430  0.5876  1.7410 -0.8453
   10MOL0     H 1334  10.264   0.331  13.224 -1.0521 -2.2339 -1.2202
   10MOL0     H 1335  10.059   0.291  13.147 -0.0175 -0.7533 -1.0426
   10MOL0     H 1336   8.783   0.329  11.858  4.0708 -0.5467 -2.6961
   10MOL0     H 1337   8.737   0.366  11.620  2.5637 -0.3135  2.6872
   10MOL0     H 1338   8.368   0.405  11.385  2.4984 -2.0811  1.5533
   10MOL0     H 1339   8.254   0.495  11.168  1.0508  2.3441  0.1963
   10MOL0     H 1340   8.414   0.397  10.794 -0.6279 -1.4295  1.1203
   10MOL0     H 1341   8.270   0.326  10.871 -0.8928 -0.4051 -0.3361
   10MOL0     H 1342   8.265   0.560  10.683 -1.9963  2.1390  1.7810
   10MOL0     H 1343   8.138   0.518  10.795  2.3987 -1.5632  2.2645
   10MOL0     H 1344   8.138   0.286  10.690 -1.2688  0.7870  1.2778
   10MOL0     H 1345   8.256   0.342  10.575  0.4916  2.6101 -1.8481
   10MOL0     H 1346   7.977   0.465  10.618  0.9471 -0.1751 -0.4066
   10MOL0     H 1347   8.002   0.331  10.520 -1.8207  0.6035  1.8743
   10MOL0     H 1348   8.151   0.648  10.270 -0.4365 -0.5335  0.0509
   10MOL0     H 1349   8.581   0.383  10.945  2.2941  0.1288  1.3560
   10MOL0     H 1350   8.692   0.276  11.128 -0.9015  0.5874  0.2786
   11MOL0     O 1351   6.419   1.935   9.902  0.3378  0.2308 -0.0480
   11MOL0     C 1352   6.326   1.855   9.911 -0.2319 -0.2044  0.7779
   11MOL0     O 1353   6.195   1.893   9.957 -0.6536 -0.1586 -0.7803
   11MOL0     C 1354   6.189   2.014  10.010 -0.4390  0.2760 -0.1790
   11MOL0     C 1355   6.228   2.037  10.143 -0.1838  0.9468 -0.1866
   11MOL0     C 1356   6.214   2.153  10.209 -0.1892 -0.0246 -0.5375
   11MOL0     C 1357   6.172   2.267  10.138  0.7123  0.5289  0.4835
   11MOL0     O 1358   6.179   2.389  10.190  0.4492 -0.2528  0.3324
   11MOL0     C 1359   6.220   2.498  10.110 -0.1431 -0.0521  0.3214
   11MOL0     C 1360   6.292   2.602  10.200  0.5841 -0.3953 -0.0667
   11MOL0     C 1361   6.316   2.740  10.137  0.4133  0.6186 -0.2985
   11MOL0     C 1362   6.413   2.727  10.019 -0.2524  0.0713  0.2824
   11MOL0     C 1363   6.477   2.868   9.991 -0.2961 -0.5128 -0.2887
   11MOL0     C 1364   6.359   2.954   9.934 -0.5079  0.5391  0.3008
   11MOL0     C 1365   6.396   3.103   9.902 -0.0211 -0.6176  0.3550
   11MOL0     C 1366   6.508   3.125   9.802  0.5474 -0.1135  0.2379
   11MOL0     N 1367   6.575   3.254   9.805  0.2370  0.1755  0.6184
   11MOL0     C 1368   6.654   3.285   9.909  0.6055 -0.7620 -0.0441
   11MOL0     C 1369   6.752   3.366   9.863  0.5919 -0.3932  0.0264
   11MOL0     C 1370   6.878   3.421   9.921  0.1294  0.0044  0.7595
   11MOL0     C 1371   6.891   3.407  10.075 -0.3646 -0.7215  0.4424
   11MOL0     C 1372   7.024   3.479  10.108 -0.5782  0.7912 -0.3068
   11MOL0     C 1373   7.015   3.551  10.240 -0.0348 -0.2576 -0.5071
   11MOL0     O 1374   6.909   3.645  10.237  0.4637 -1.0721  0.1388
   11MOL0     C 1375   6.921   3.754  10.316  0.4334 -0.5655  0.0327
   11MOL0     C 1376   6.988   3.760  10.435  0.1425 -0.0411 -0.4414
   11MOL0     C 1377   6.988   3.886  10.505  0.0982 -0.4660  0.3251
   11MOL0     C 1378   7.055   3.906  10.640  0.3679  0.4651 -0.0062
   11MOL0     C 1379   6.909   3.999  10.452  0.1420 -0.1935 -0.3211
   11MOL0     C 1380   6.903   4.126  10.517 -0.0364 -0.2942  0.3731
   11MOL0     O 1381   6.935   4.227  10.439 -0.0020 -0.0656  0.0068
   11MOL0     C 1382   6.952   4.345  10.500  0.2617 -1.1410 -0.1380
   11MOL0     C 1383   7.082   4.393  10.547  0.2602  0.0242  1.1620
   11MOL0     C 1384   7.092   4.515  10.612  0.1057  0.0476  0.7148
   11MOL0     C 1385   6.970   4.595  10.634 -0.8669 -0.4160  0.8362
   11MOL0     O 1386   6.981   4.727  10.671 -0.6461  0.7454  0.4710
   11MOL0     C 1387   7.062   4.760  10.793  0.2920  0.1254 -0.3818
   11MOL0     C 1388   7.065   4.911  10.814  0.2948  1.3280 -0.1387
   11MOL0     C 1389   7.135   4.945  10.949 -0.2835 -0.3962  0.0464
   11MOL0     C 1390   7.151   5.100  10.964  0.5841  1.3387 -0.4988
   11MOL0     C 1391   7.253   5.123  11.069 -0.2499  0.1001 -0.0992
   11MOL0     C 1392   7.275   5.269  11.117 -0.5831 -0.3105  0.1188
   11MOL0     C 1393   7.355   5.336  11.002  0.2726 -0.3321 -0.1263
   11MOL0     C 1394   7.407   5.482  11.035 -0.0629 -1.0125  0.9886
   11MOL0    Cl 1395   7.538   5.458  11.157 -0.1536  0.1198 -0.2177
   11MOL0     C 1396   6.850   4.545  10.582  0.2156 -0.5881 -0.1279
   11MOL0     C 1397   6.838   4.418  10.525 -0.9641  0.1638  0.0399
   11MOL0     O 1398   6.872   4.127  10.635  0.4743  0.2870  0.7852
   11MOL0     C 1399   6.856   3.994  10.318  0.1017 -0.1640 -0.9267
   11MOL0     C 1400   6.872   3.871  10.255 -0.4207 -0.5119  0.3950
   11MOL0     N 1401   6.731   3.380   9.731  0.3437 -0.2374  0.1266
   11MOL0     N 1402   6.620   3.321   9.691 -0.6275 -0.6937  0.0384
   11MOL0     C 1403   6.126   2.251  10.006  0.2074  0.0542  0.2185
   11MOL0     C 1404   6.139   2.122   9.942 -0.0053  0.3495 -1.1993
   11MOL0     C 1405   6.360   1.719   9.879 -0.7167 -0.1688 -0.4324
   11MOL0     C 1406   6.286   1.615   9.944  0.9131 -0.1074  0.2447
   11MOL0     C 1407   6.305   1.478   9.906  0.2687 -0.4388 -0.1789
   11MOL0     C 1408   6.407   1.442   9.820 -0.5121  0.4179  0.8474
   11MOL0     O 1409   6.423   1.319   9.774 -0.3432  0.5208 -0.3045
   11MOL0     C 1410   6.478   1.236   9.881 -0.2258 -0.6110 -0.0017
   11MOL0     C 1411   6.401   1.095   9.882  0.8453  0.6240  0.0770
   11MOL0     C 1412   6.244   1.117   9.899 -0.5715  1.0847  0.0909
   11MOL0     C 1413   6.169   0.988   9.863  0.2292 -0.4816  0.8551
   11MOL0     C 1414   6.027   1.020   9.846  1.3884 -0.3669 -0.3984
   11MOL0     C 1415   5.909   1.060   9.829 -0.0306  0.2110 -0.9117
   11MOL0     C 1416   6.490   1.538   9.767 -0.1895 -0.1474 -0.3161
   11MOL0     C 1417   6.471   1.673   9.795  0.6214  0.3561 -1.2349
   11MOL0     H 1418   6.260   1.949  10.197 -0.0330  1.3527  0.3914
   11MOL0     H 1419   6.249   2.153  10.312 -1.8363  1.7917  0.0643
   11MOL0     H 1420   6.296   2.466  10.038 -1.3262 -2.2141 -0.0364
   11MOL0     H 1421   6.137   2.554  10.065 -3.1026 -2.6617  2.1422
   11MOL0     H 1422   6.243   2.619  10.296 -1.3780 -1.9755 -0.7102
   11MOL0     H 1423   6.381   2.548  10.231  0.5401 -0.9945 -0.9522
   11MOL0     H 1424   6.222   2.787  10.106  1.2070  2.3004 -0.3056
   11MOL0     H 1425   6.351   2.815  10.210  2.0094  1.8262 -2.1910
   11MOL0     H 1426   6.497   2.657  10.026  0.6600  1.1970  0.9454
   11MOL0     H 1427   6.353   2.694   9.934 -0.5519 -1.6174  1.1173
   11MOL0     H 1428   6.500   2.899  10.093 -4.8628 -1.4758  1.2700
   11MOL0     H 1429   6.562   2.864   9.921 -1.3978  2.3908 -1.9815
   11MOL0     H 1430   6.322   2.907   9.843 -0.8353 -2.0001  1.6613
   11MOL0     H 1431   6.284   2.963  10.014  1.1042  1.2196  1.8207
   11MOL0     H 1432   6.308   3.151   9.861  2.0917  0.8931 -2.7776
   11MOL0     H 1433   6.425   3.150   9.997  2.1665  0.7515 -0.9126
   11MOL0     H 1434   6.467   3.102   9.703  3.1929 -2.1311 -0.5079
   11MOL0     H 1435   6.586   3.051   9.821  1.8756  0.7744 -1.4727
   11MOL0     H 1436   6.639   3.246  10.009  1.1955  2.2830  1.3618
   11MOL0     H 1437   6.960   3.363   9.877 -0.2667  0.3474 -0.4676
   11MOL0     H 1438   6.888   3.524   9.886  1.9552 -1.0045 -2.0170
   11MOL0     H 1439   6.910   3.302  10.097  0.3718 -0.8964 -0.9702
   11MOL0     H 1440   6.805   3.461  10.117  0.1839  0.9855 -0.5199
   11MOL0     H 1441   7.053   3.547  10.028  0.0892 -1.2356 -1.9063
   11MOL0     H 1442   7.095   3.395  10.112 -0.5814  0.8336  1.0112
   11MOL0     H 1443   7.114   3.590  10.265  0.2537 -1.8456  0.9507
   11MOL0     H 1444   6.995   3.480  10.320  0.4754 -0.2647 -0.3811
   11MOL0     H 1445   7.045   3.685  10.489  0.6699  1.0755  0.6197
   11MOL0     H 1446   6.975   3.894  10.713 -2.8150 -0.5217 -3.3376
   11MOL0     H 1447   7.112   3.817  10.670  4.5156  2.1440 -2.0657
   11MOL0     H 1448   7.108   4.001  10.649 -1.9742  1.8263  0.0075
   11MOL0     H 1449   7.165   4.327  10.528  0.0867  0.2208 -0.3881
   11MOL0     H 1450   7.188   4.555  10.644 -0.1327  0.5234  0.8442
   11MOL0     H 1451   7.021   4.712  10.882 -3.0468  1.9202 -0.7560
   11MOL0     H 1452   7.166   4.730  10.778  0.1387 -1.4319  1.3224
   11MOL0     H 1453   7.090   4.972  10.726 -0.4745  0.9246 -0.6506
   11MOL0     H 1454   6.963   4.945  10.835  0.8069  3.4234 -0.7287
   11MOL0     H 1455   7.227   4.891  10.975  0.0965 -0.5261 -1.4594
   11MOL0     H 1456   7.074   4.919  11.036  0.9804  1.5854  1.5983
   11MOL0     H 1457   7.188   5.151  10.875 -3.4295  2.7813 -1.5474
   11MOL0     H 1458   7.053   5.146  10.979  0.8843  2.4406 -1.7768
   11MOL0     H 1459   7.347   5.085  11.029 -0.0664 -0.3005  0.6900
   11MOL0     H 1460   7.232   5.072  11.164 -2.3025  0.3772 -0.3599
   11MOL0     H 1461   7.179   5.318  11.135  1.2343  3.1827  1.3863
   11MOL0     H 1462   7.329   5.276  11.212 -3.9350  1.3380  2.0947
   11MOL0     H 1463   7.303   5.333  10.905  2.5156 -1.9721 -1.3783
   11MOL0     H 1464   7.442   5.271  10.993  2.1625  2.1863 -1.4817
   11MOL0     H 1465   7.330   5.548  11.076 -0.9730 -2.4267  1.6513
   11MOL0     H 1466   7.458   5.530  10.950 -0.9479 -1.1090  0.3943
   11MOL0     H 1467   6.769   4.616  10.590 -1.3417 -2.2676 -0.4217
   11MOL0     H 1468   6.744   4.372  10.495 -0.8207 -1.5681  2.0627
   11MOL0     H 1469   6.809   4.072  10.259 -1.7685 -1.8418 -1.7896
   11MOL0     H 1470   6.843   3.858  10.152 -1.2496 -1.9182  0.7730
   11MOL0     H 1471   6.089   2.340   9.955  3.8183  1.4377 -0.2712
   11MOL0     H 1472   6.115   2.103   9.838  0.7973 -2.3547 -0.9735
   11MOL0     H 1473   6.209   1.624  10.020 -1.5718 -3.8793 -1.4959
   11MOL0     H 1474   6.244   1.399   9.949  0.9913 -0.6789  0.4218
   11MOL0     H 1475   6.583   1.220   9.856 -0.8172  0.0159 -3.3596
   11MOL0     H 1476   6.468   1.283   9.979 -1.8273  0.2759 -0.5508
   11MOL0     H 1477   6.446   1.021   9.949  1.9376 -0.7619 -2.0661
   11MOL0     H 1478   6.432   1.056   9.785  1.7241 -0.9003  0.9334
   11MOL0     H 1479   6.207   1.204   9.845  0.1102  2.1363  1.2660
   11MOL0     H 1480   6.221   1.127  10.006  2.9436 -2.8378  1.5032
   11MOL0     H 1481   6.195   0.900   9.922  5.2870 -0.2580 -0.5251
   11MOL0     H 1482   6.200   0.963   9.761 -1.9213 -2.6755  0.6456
   11MOL0     H 1483   5.817   1.112   9.810 -1.4690 -0.5018  2.9986
   11MOL0     H 1484   6.587   1.506   9.731  0.6202  0.7625  0.9892
   11MOL0     H 1485   6.536   1.749   9.752  2.5202 -0.3322  0.2908
   12MOL0     O 1486  10.790   8.902   8.234 -0.4351  0.3319  0.3761
   12MOL0     C 1487  10.746   8.926   8.123 -0.7910 -0.0283 -0.1402
   12MOL0     O 1488  10.631   8.992   8.100  0.6751 -0.6007 -0.6997
   12MOL0     C 1489  10.588   9.079   8.199 -0.2700 -1.2969 -0.7820
   12MOL0     C 1490  10.488   9.024   8.281  0.1424  0.3920 -0.2136
   12MOL0     C 1491  10.452   9.102   8.395  0.5509  0.7362  0.1258
   12MOL0     C 1492  10.505   9.227   8.429 -0.2476 -0.6756  0.1817
   12MOL0     O 1493  10.475   9.305   8.537 -0.5568 -0.4274 -1.2467
   12MOL0     C 1494  10.374   9.261   8.624  0.0253 -0.0292  1.0481
   12MOL0     C 1495  10.361   9.362   8.738  0.2613  0.3799 -0.7795
   12MOL0     C 1496  10.302   9.494   8.698  0.0743  0.4818  0.0901
   12MOL0     C 1497  10.319   9.592   8.812 -0.0071  0.4578  0.2652
   12MOL0     C 1498  10.223   9.714   8.811 -0.0512 -0.5320 -0.4266
   12MOL0     C 1499  10.237   9.800   8.676 -0.4908 -0.3465 -0.0173
   12MOL0     C 1500  10.376   9.869   8.682  0.1174  0.0366 -0.3842
   12MOL0     C 1501  10.394   9.968   8.569 -0.7673  0.4972 -1.1453
   12MOL0     N 1502  10.518  10.043   8.617  0.2732 -0.4371 -0.7969
   12MOL0     C 1503  10.518  10.137   8.719  1.5375 -0.2172  0.2227
   12MOL0     C 1504  10.638  10.180   8.730  0.1674  0.0323  0.0072
   12MOL0     C 1505  10.675  10.302   8.795  0.3683  0.0065 -0.6240
   12MOL0     C 1506  10.771  10.287   8.920  0.3220  0.2636  0.0663
   12MOL0     C 1507  10.912  10.333   8.902 -0.0822  0.0634 -0.3816
   12MOL0     C 1508  11.014  10.253   8.986  0.1029  0.2295  0.3158
   12MOL0     O 1509  11.121  10.338   9.039 -0.5274  0.1407  0.3338
   12MOL0     C 1510  11.228  10.345   8.956 -0.0653  0.0590 -0.2651
   12MOL0     C 1511  11.213  10.427   8.841 -1.6730  0.4595 -0.4849
   12MOL0     C 1512  11.330  10.450   8.762  0.1321  1.0557  0.8574
   12MOL0     C 1513  11.324  10.541   8.641 -0.2499  0.9149  0.7743
   12MOL0     C 1514  11.450  10.373   8.791 -0.1507  0.2509  0.9235
   12MOL0     C 1515  11.570  10.388   8.710 -0.4296  0.5183  1.1004
   12MOL0     O 1516  11.687  10.362   8.774  0.2710  0.2786 -0.6985
   12MOL0     C 1517  11.799  10.418   8.717 -0.3744  0.2148  0.0823
   12MOL0     C 1518  11.806  10.552   8.675 -0.2654 -0.3560  0.4818
   12MOL0     C 1519  11.919  10.609   8.622 -0.3364  0.2056  0.5531
   12MOL0     C 1520  12.041  10.534   8.635 -0.9685 -0.6418 -0.3598
   12MOL0     O 1521  12.165  10.576   8.597  0.9228 -0.5139  0.1150
   12MOL0     C 1522  12.172  10.701   8.533  0.3979 -0.0992  0.5668
   12MOL0     C 1523  12.303  10.704   8.456 -0.6588  0.2587 -0.3204
   12MOL0     C 1524  12.312  10.603   8.335 -0.2204  0.1189  0.0354
   12MOL0     C 1525  12.436  10.635   8.247 -0.6765 -0.3983 -0.5795
   12MOL0     C 1526  12.436  10.548   8.120 -0.0002 -0.9673  0.0119
   12MOL0     C 1527  12.349  10.614   8.007 -0.4464 -0.2082 -0.4201
   12MOL0     C 1528  12.380  10.564   7.866 -0.1516 -0.2231  1.4528
   12MOL0     C 1529  12.320  10.427   7.845  0.2305  0.7761 -0.4083
   12MOL0    Cl 1530  12.325  10.372   7.675 -0.0072 -0.0034 -0.0943
   12MOL0     C 1531  12.037  10.403   8.678  0.7435 -0.4858 -0.6264
   12MOL0     C 1532  11.918  10.346   8.718 -0.1728  0.9310  0.5907
   12MOL0     O 1533  11.563  10.409   8.590  0.9115 -0.3047  0.4090
   12MOL0     C 1534  11.451  10.280   8.902 -0.1210 -0.7864  0.5951
   12MOL0     C 1535  11.344  10.275   8.987 -0.0136  1.1166 -0.1013
   12MOL0     N 1536  10.716  10.101   8.650  0.5841  0.2860 -0.1769
   12MOL0     N 1537  10.649  10.017   8.588  0.3651 -0.0017  0.3699
   12MOL0     C 1538  10.593   9.284   8.342 -0.4871  0.0733  0.0986
   12MOL0     C 1539  10.634   9.208   8.223 -0.4461  0.0481  0.5597
   12MOL0     C 1540  10.814   8.864   8.015  0.9881 -0.2287 -0.2256
   12MOL0     C 1541  10.748   8.861   7.889  0.1356  0.2830 -0.0103
   12MOL0     C 1542  10.808   8.791   7.781 -0.8026 -0.2491 -0.7781
   12MOL0     C 1543  10.926   8.712   7.798  0.1549  0.1483 -0.1711
   12MOL0     O 1544  10.967   8.630   7.694 -0.4175 -0.8128  0.1659
   12MOL0     C 1545  10.887   8.597   7.576  0.1671 -0.1736 -0.0297
   12MOL0     C 1546  10.898   8.450   7.555 -0.5820 -0.2368 -1.0449
   12MOL0     C 1547  10.888   8.409   7.406 -0.4220 -0.7420  0.2545
   12MOL0     C 1548  11.024   8.371   7.348 -0.6037  0.4162  0.1721
   12MOL0     C 1549  11.056   8.235   7.394  0.2218  0.6127 -0.1220
   12MOL0     C 1550  11.072   8.126   7.447 -0.4204  1.3271  0.0696
   12MOL0     C 1551  10.996   8.723   7.922  0.6096 -0.0097 -0.3782
   12MOL0     C 1552  10.936   8.803   8.026 -1.1374  0.4911  0.0295
   12MOL0     H 1553  10.441   8.930   8.254 -2.0530  1.2589  0.3696
   12MOL0     H 1554  10.371   9.056   8.451 -0.9962 -0.4051 -2.8445
   12MOL0     H 1555  10.280   9.259   8.567  0.8469 -3.3055 -0.4425
   12MOL0     H 1556  10.381   9.156   8.656 -0.0196 -0.0284  1.0612
   12MOL0     H 1557  10.294   9.322   8.815  2.9457 -0.7075  1.1539
   12MOL0     H 1558  10.455   9.364   8.794 -1.5514  0.8938  2.5453
   12MOL0     H 1559  10.354   9.530   8.609 -1.3178  2.3757 -0.0187
   12MOL0     H 1560  10.193   9.488   8.692  0.0102 -1.4153  1.8738
   12MOL0     H 1561  10.293   9.540   8.904 -0.7520  0.7555  0.2305
   12MOL0     H 1562  10.425   9.619   8.815 -0.6962  3.6902 -0.1258
   12MOL0     H 1563  10.118   9.687   8.815 -0.7566  1.6843 -1.9769
   12MOL0     H 1564  10.239   9.780   8.897 -1.3196 -0.5168 -0.1832
   12MOL0     H 1565  10.235   9.733   8.590 -3.3521  1.4553 -1.4767
   12MOL0     H 1566  10.153   9.867   8.659 -2.7262 -2.9518  0.0352
   12MOL0     H 1567  10.387   9.924   8.776  1.1361 -0.9320  0.0879
   12MOL0     H 1568  10.463   9.803   8.683 -0.5893 -1.3405  5.6947
   12MOL0     H 1569  10.325  10.052   8.560  0.4073  1.8260  1.0965
   12MOL0     H 1570  10.412   9.924   8.471 -0.7109  0.4084 -1.0967
   12MOL0     H 1571  10.431  10.174   8.773  0.6405 -1.3488 -0.4034
   12MOL0     H 1572  10.714  10.375   8.723  3.2852 -0.8353 -0.0353
   12MOL0     H 1573  10.583  10.347   8.833  1.4509  1.0076  0.8746
   12MOL0     H 1574  10.770  10.180   8.944  0.4551  0.3583  0.5062
   12MOL0     H 1575  10.732  10.352   8.999  2.1651  2.7569 -0.9370
   12MOL0     H 1576  10.927  10.437   8.933 -0.7031  0.7447 -2.2191
   12MOL0     H 1577  10.938  10.316   8.797 -0.6574  0.3430 -0.5739
   12MOL0     H 1578  11.060  10.177   8.921  0.1881 -0.1988  0.8723
   12MOL0     H 1579  10.956  10.205   9.065 -1.6831 -1.4805 -1.9102
   12MOL0     H 1580  11.123  10.479   8.811 -0.0905  2.7566 -1.5552
   12MOL0     H 1581  11.413  10.604   8.641  1.4620 -1.3386 -0.4686
   12MOL0     H 1582  11.335  10.474   8.555  0.4764  1.9558  0.0298
   12MOL0     H 1583  11.228  10.593   8.631 -1.2143 -0.9678 -0.4447
   12MOL0     H 1584  11.709  10.601   8.676 -0.3145 -0.4123  2.1315
   12MOL0     H 1585  11.912  10.705   8.572  3.1026 -0.6021 -1.8615
   12MOL0     H 1586  12.093  10.707   8.457 -2.4928 -2.7821  3.0788
   12MOL0     H 1587  12.154  10.779   8.607  0.3364  0.3733  0.0578
   12MOL0     H 1588  12.334  10.803   8.421  0.9367 -0.0456  0.1452
   12MOL0     H 1589  12.380  10.681   8.530 -0.9759 -1.1442 -0.3972
   12MOL0     H 1590  12.220  10.610   8.277  0.7264  0.0133 -1.5566
   12MOL0     H 1591  12.317  10.505   8.384 -3.2890  0.4246  1.1553
   12MOL0     H 1592  12.439  10.742   8.225  2.2873 -0.2560  0.1016
   12MOL0     H 1593  12.530  10.611   8.297  0.0436  1.8438 -0.7396
   12MOL0     H 1594  12.401  10.446   8.140 -1.6072 -0.7601 -1.5002
   12MOL0     H 1595  12.537  10.547   8.077 -0.4555 -0.5974 -1.1123
   12MOL0     H 1596  12.244  10.617   8.037  0.1272 -2.7321  2.3090
   12MOL0     H 1597  12.373  10.721   8.009  0.9533 -0.4469 -1.9358
   12MOL0     H 1598  12.486  10.551   7.844 -0.5616 -3.0064  0.6845
   12MOL0     H 1599  12.333  10.629   7.793 -1.9698 -1.1298  1.7570
   12MOL0     H 1600  12.214  10.446   7.867  0.6589  0.7975  1.8614
   12MOL0     H 1601  12.361  10.351   7.912  1.1901 -1.8708 -3.6730
   12MOL0     H 1602  12.127  10.344   8.687  1.1593  0.3906  1.6107
   12MOL0     H 1603  11.927  10.245   8.756  2.6065  0.3816 -1.2030
   12MOL0     H 1604  11.537  10.223   8.936  0.3705 -0.5485 -0.2225
   12MOL0     H 1605  11.353  10.208   9.072  1.5596 -0.8972 -1.7432
   12MOL0     H 1606  10.627   9.387   8.347 -0.1198  0.1363 -2.4579
   12MOL0     H 1607  10.706   9.242   8.150 -0.6246 -1.7289 -0.4946
   12MOL0     H 1608  10.657   8.917   7.870  0.4684  0.3038 -1.7201
   12MOL0     H 1609  10.759   8.791   7.684 -1.9502  1.3886 -0.2468
   12MOL0     H 1610  10.780   8.615   7.582 -0.6538 -4.5459  2.8727
   12MOL0     H 1611  10.937   8.648   7.493 -0.1947  2.3816  1.2254
   12MOL0     H 1612  10.816   8.400   7.607 -0.5530 -0.9005 -1.6231
   12MOL0     H 1613  10.998   8.422   7.592 -0.6575 -0.8070 -1.2650
   12MOL0     H 1614  10.854   8.486   7.336 -1.5038 -0.7124  0.7994
   12MOL0     H 1615  10.819   8.325   7.392 -0.2820 -0.8865  0.4343
   12MOL0     H 1616  11.100   8.432   7.396 -0.5354  0.0907  0.4811
   12MOL0     H 1617  11.038   8.378   7.239 -0.5587 -0.6774  0.0917
   12MOL0     H 1618  11.085   8.040   7.511  1.5144  1.7873  0.3651
   12MOL0     H 1619  11.081   8.660   7.946  0.8108 -0.7633 -2.7181
   12MOL0     H 1620  10.993   8.797   8.118 -1.3164  0.1015  0.1175
   13MOL0     O 1621   3.167   7.285   0.736  0.0150 -0.3034  0.8844
   13MOL0     C 1622   3.138   7.213   0.641 -0.2963 -0.4177  0.6813
   13MOL0     O 1623   3.036   7.126   0.634 -0.0575  0.3472 -0.0649
   13MOL0     C 1624   2.957   7.095   0.741 -0.7817  0.5693 -0.5416
   13MOL0     C 1625   2.976   7.121   0.882 -0.0411  0.7160 -0.2306
   13MOL0     C 1626   2.890   7.071   0.983  0.9510 -0.1763 -0.6167
   13MOL0     C 1627   2.775   7.005   0.948 -0.2595  0.2689 -0.2965
   13MOL0     O 1628   2.693   6.972   1.053 -0.3227  0.1937 -0.0294
   13MOL0     C 1629   2.566   6.909   1.026 -0.6619  0.2087 -0.2661
   13MOL0     C 1630   2.566   6.755   1.007 -0.5730  1.0052 -0.2699
   13MOL0     C 1631   2.611   6.689   1.135 -0.3069  0.4322  0.7721
   13MOL0     C 1632   2.523   6.581   1.189 -0.1739  0.2845  0.7153
   13MOL0     C 1633   2.408   6.625   1.274  0.2888 -0.4897 -0.4107
   13MOL0     C 1634   2.285   6.678   1.194 -0.1968 -0.7359  0.2144
   13MOL0     C 1635   2.200   6.742   1.305 -0.1424 -0.0964 -0.1964
   13MOL0     C 1636   2.077   6.801   1.239  1.3295 -0.2156 -0.5277
   13MOL0     N 1637   2.096   6.877   1.109  0.7506 -0.2370 -1.2772
   13MOL0     C 1638   2.080   6.818   0.988 -0.6168 -0.2851 -0.7280
   13MOL0     C 1639   2.132   6.923   0.907 -1.1303  1.2574  0.4425
   13MOL0     C 1640   2.155   6.896   0.757  0.6970 -0.0016 -0.1527
   13MOL0     C 1641   2.237   6.767   0.729  0.0490 -0.2820 -0.9550
   13MOL0     C 1642   2.163   6.645   0.673  0.9062 -0.7249 -0.6370
   13MOL0     C 1643   2.265   6.556   0.621  1.3309  0.4866  0.7174
   13MOL0     O 1644   2.368   6.521   0.719 -0.2698 -0.2898  0.8210
   13MOL0     C 1645   2.494   6.518   0.664 -0.1326  0.5814 -0.1706
   13MOL0     C 1646   2.579   6.434   0.727  0.1109 -0.3412 -0.0024
   13MOL0     C 1647   2.718   6.435   0.713  0.9772 -0.1014 -0.3768
   13MOL0     C 1648   2.791   6.342   0.795  0.2799  0.6824  0.0428
   13MOL0     C 1649   2.783   6.525   0.622 -0.9953 -0.5180 -0.3987
   13MOL0     C 1650   2.931   6.532   0.592 -0.5638 -0.2072  1.2358
   13MOL0     O 1651   2.976   6.605   0.483 -0.6145 -0.2065 -0.6130
   13MOL0     C 1652   3.106   6.646   0.485 -0.4459 -0.6303 -0.0873
   13MOL0     C 1653   3.129   6.782   0.496 -0.5509 -1.0284  0.0913
   13MOL0     C 1654   3.264   6.835   0.500  0.5618 -0.5082  0.0316
   13MOL0     C 1655   3.376   6.749   0.504 -0.5392 -0.2254 -0.0753
   13MOL0     O 1656   3.490   6.822   0.500  0.0978 -0.4698 -0.5437
   13MOL0     C 1657   3.603   6.775   0.419  0.0291 -0.5763 -0.3693
   13MOL0     C 1658   3.657   6.888   0.338 -0.1430  0.0270 -0.0704
   13MOL0     C 1659   3.796   6.852   0.264 -0.2259  0.4672  0.0287
   13MOL0     C 1660   3.866   6.977   0.226 -0.7640  0.7156 -0.2856
   13MOL0     C 1661   4.011   6.948   0.176 -0.4163 -0.3055 -0.9430
   13MOL0     C 1662   4.030   6.843   0.069 -0.5959  0.3676  0.2035
   13MOL0     C 1663   3.968   6.877  -0.072  0.0323 -0.0849  0.9315
   13MOL0     C 1664   4.033   6.997  -0.120 -0.1146  0.0663 -0.2035
   13MOL0    Cl 1665   3.939   7.145  -0.076 -0.2814  0.1121  0.4771
   13MOL0     C 1666   3.357   6.608   0.483  0.6052  0.1416  0.1858
   13MOL0     C 1667   3.223   6.567   0.486  0.4414 -0.1127  0.3111
   13MOL0     O 1668   3.014   6.492   0.673  0.9203  0.5599 -0.0555
   13MOL0     C 1669   2.699   6.606   0.544  0.9494 -0.2700 -0.2307
   13MOL0     C 1670   2.552   6.609   0.572  0.4647  0.9429  0.0125
   13MOL0     N 1671   2.178   7.019   0.983 -0.6383  0.4004  0.0994
   13MOL0     N 1672   2.158   7.000   1.105 -0.1038 -0.4722 -0.6830
   13MOL0     C 1673   2.749   6.967   0.811 -0.5489  0.2003  0.2305
   13MOL0     C 1674   2.842   7.021   0.707  0.2811 -0.9250  0.0898
   13MOL0     C 1675   3.210   7.224   0.511  0.5811 -0.0013  0.1868
   13MOL0     C 1676   3.351   7.243   0.514  0.5829 -0.5914  0.4377
   13MOL0     C 1677   3.425   7.247   0.389  0.1362 -0.0581 -0.6440
   13MOL0     C 1678   3.355   7.221   0.273  0.6942  0.2218 -0.3223
   13MOL0     O 1679   3.410   7.219   0.149  0.4992  0.3558  0.5750
   13MOL0     C 1680   3.550   7.259   0.139  0.2556  0.5606  0.1590
   13MOL0     C 1681   3.589   7.238  -0.003  0.1461  0.1853 -0.3532
   13MOL0     C 1682   3.575   7.092  -0.043 -0.0271  0.1057  0.1591
   13MOL0     C 1683   3.581   7.070  -0.190  0.3691  0.0111 -0.2227
   13MOL0     C 1684   3.473   7.147  -0.258 -0.4654  0.0561  0.5687
   13MOL0     C 1685   3.386   7.188  -0.331  1.0598  0.0327 -0.0300
   13MOL0     C 1686   3.217   7.200   0.273 -0.5684  0.0786 -0.4647
   13MOL0     C 1687   3.145   7.203   0.388  0.3124  0.3185 -0.1118
   13MOL0     H 1688   3.054   7.188   0.916 -0.5578  1.3608 -0.2767
   13MOL0     H 1689   2.902   7.098   1.087 -0.9904  0.9576 -0.6247
   13MOL0     H 1690   2.495   6.922   1.108  0.1242 -0.7896  0.6046
   13MOL0     H 1691   2.525   6.947   0.932 -1.2417 -0.8890 -0.4767
   13MOL0     H 1692   2.464   6.733   0.975 -0.2747  1.4836 -1.6307
   13MOL0     H 1693   2.643   6.726   0.934  0.2651  0.2647  0.8716
   13MOL0     H 1694   2.710   6.643   1.121 -1.2219 -0.9065 -1.9601
   13MOL0     H 1695   2.616   6.758   1.220  0.1372 -2.1463  2.9851
   13MOL0     H 1696   2.489   6.522   1.104  0.8856  1.3482 -0.4813
   13MOL0     H 1697   2.587   6.517   1.250 -2.3168 -2.0127  0.6975
   13MOL0     H 1698   2.358   6.541   1.325 -3.5527  2.7938  1.8805
   13MOL0     H 1699   2.440   6.694   1.352  0.7916 -0.2417 -0.8341
   13MOL0     H 1700   2.317   6.762   1.133 -0.3502 -0.2598  0.7796
   13MOL0     H 1701   2.234   6.610   1.124  0.3066 -2.0752  1.1010
   13MOL0     H 1702   2.179   6.660   1.374  2.1365 -2.4666 -2.1050
   13MOL0     H 1703   2.260   6.823   1.349  1.5210 -1.4772  0.1921
   13MOL0     H 1704   2.016   6.848   1.317  1.0880 -2.5587  0.8035
   13MOL0     H 1705   2.030   6.703   1.225  0.4393 -0.7431  4.2548
   13MOL0     H 1706   2.028   6.726   0.964 -2.2530  0.7572 -1.3454
   13MOL0     H 1707   2.065   6.894   0.694 -0.6551 -0.5801  1.7195
   13MOL0     H 1708   2.211   6.983   0.722 -0.8323  1.0909  0.0356
   13MOL0     H 1709   2.292   6.751   0.822 -1.8119 -1.6851 -0.0175
   13MOL0     H 1710   2.307   6.797   0.650  0.7129 -0.1764 -0.3365
   13MOL0     H 1711   2.095   6.685   0.597  0.6169  0.0454  0.0084
   13MOL0     H 1712   2.097   6.592   0.741 -0.0236 -0.3238 -1.2068
   13MOL0     H 1713   2.300   6.584   0.521  0.2893  1.5412  0.6191
   13MOL0     H 1714   2.219   6.459   0.603  1.0812  0.9113 -1.0719
   13MOL0     H 1715   2.535   6.352   0.783  0.0265 -1.8841 -2.1893
   13MOL0     H 1716   2.729   6.289   0.867 -0.5760  3.2614  1.3290
   13MOL0     H 1717   2.846   6.267   0.737  1.1988  0.9614  0.5175
   13MOL0     H 1718   2.863   6.394   0.859 -0.9962 -0.1123  2.2157
   13MOL0     H 1719   3.042   6.847   0.494  0.4667  0.3809 -2.1520
   13MOL0     H 1720   3.285   6.940   0.518  0.7728 -0.8136  1.7195
   13MOL0     H 1721   3.689   6.750   0.482 -2.0968  0.1953  3.1135
   13MOL0     H 1722   3.576   6.692   0.353  1.2970 -1.4499  0.1738
   13MOL0     H 1723   3.580   6.925   0.269  1.1959  1.7856 -0.7177
   13MOL0     H 1724   3.683   6.975   0.400  4.4733  2.0157 -4.1540
   13MOL0     H 1725   3.788   6.785   0.178  0.6783 -1.1156  1.1160
   13MOL0     H 1726   3.862   6.795   0.330  0.0256 -2.7939 -2.7655
   13MOL0     H 1727   3.815   7.029   0.145 -1.5880  2.2479  1.1440
   13MOL0     H 1728   3.866   7.044   0.313  3.6617 -0.3201  0.7225
   13MOL0     H 1729   4.061   6.911   0.265 -0.0651 -0.7197 -1.3073
   13MOL0     H 1730   4.065   7.041   0.155 -4.2743  2.0553 -1.5085
   13MOL0     H 1731   4.132   6.804   0.061 -0.6887 -0.2670  1.8084
   13MOL0     H 1732   3.977   6.752   0.100  2.4735 -1.5580  0.1751
   13MOL0     H 1733   3.861   6.899  -0.066  0.3746  1.2834  3.8765
   13MOL0     H 1734   3.995   6.786  -0.126  0.2715  1.7205 -2.2160
   13MOL0     H 1735   4.018   6.988  -0.228  0.3839  3.2974 -0.6553
   13MOL0     H 1736   4.141   7.008  -0.103 -0.0926  2.0124 -1.3193
   13MOL0     H 1737   3.419   6.519   0.478 -3.1695 -2.6713 -1.7059
   13MOL0     H 1738   3.214   6.460   0.475  3.9938 -0.2700 -2.9506
   13MOL0     H 1739   2.743   6.687   0.487  0.1048  1.7412  1.8239
   13MOL0     H 1740   2.481   6.688   0.548 -2.5830 -0.6275  3.0028
   13MOL0     H 1741   2.659   6.914   0.782 -2.2107  2.4289  1.0853
   13MOL0     H 1742   2.832   6.990   0.604  2.6251 -0.6710 -0.2770
   13MOL0     H 1743   3.395   7.278   0.606  0.3792  1.8117 -0.3172
   13MOL0     H 1744   3.532   7.266   0.387  0.9400 -3.7678 -2.9071
   13MOL0     H 1745   3.556   7.368   0.152  0.3529  0.6107 -0.3185
   13MOL0     H 1746   3.612   7.192   0.200 -1.6053 -2.3378 -0.9277
   13MOL0     H 1747   3.695   7.261  -0.010 -0.0770  1.2603 -0.2812
   13MOL0     H 1748   3.534   7.315  -0.057 -0.1717 -0.7124 -1.3427
   13MOL0     H 1749   3.478   7.054  -0.010 -0.2706 -0.7910 -1.4657
   13MOL0     H 1750   3.651   7.027   0.003  1.4455  1.1160 -0.7709
   13MOL0     H 1751   3.571   6.964  -0.215 -1.0403 -0.2465  1.2782
   13MOL0     H 1752   3.679   7.112  -0.217 -0.5811  0.7845 -2.7377
   13MOL0     H 1753   3.319   7.232  -0.402  1.9963  1.6145  0.0148
   13MOL0     H 1754   3.160   7.175   0.184 -0.0890 -0.3698 -0.6499
   13MOL0     H 1755   3.037   7.198   0.374  0.0112  0.0436  1.9422
   14MOL0     O 1756   2.229   3.345   6.438  0.1571 -0.4413 -0.3132
   14MOL0     C 1757   2.294   3.412   6.358  0.0926  0.7468  0.9740
   14MOL0     O 1758   2.271   3.536   6.314  0.9863 -0.1999  1.0769
   14MOL0     C 1759   2.139   3.586   6.317  1.0621  1.4397  0.1295
   14MOL0     C 1760   2.017   3.514   6.353  0.0478 -1.0918  0.1162
   14MOL0     C 1761   1.890   3.578   6.357 -0.2618  0.1844  0.4199
   14MOL0     C 1762   1.882   3.711   6.321  0.5922 -0.7328  0.5277
   14MOL0     O 1763   1.762   3.780   6.305 -0.0549 -0.2492  0.5072
   14MOL0     C 1764   1.647   3.755   6.387  0.0782 -0.8867  0.2704
   14MOL0     C 1765   1.557   3.880   6.407  0.2358  0.3601 -0.8345
   14MOL0     C 1766   1.637   3.999   6.443  0.6537  0.5438 -0.6965
   14MOL0     C 1767   1.708   3.986   6.580 -0.4666  0.3873 -0.0620
   14MOL0     C 1768   1.759   4.110   6.653 -1.2824 -0.4675  0.3311
   14MOL0     C 1769   1.760   4.096   6.799 -0.0342 -0.6870 -0.3877
   14MOL0     C 1770   1.792   4.223   6.879 -0.3588 -0.3505 -0.0962
   14MOL0     C 1771   1.821   4.193   7.028 -0.1414 -0.7202  0.3002
   14MOL0     N 1772   1.699   4.177   7.117 -1.1004  0.7821 -0.3249
   14MOL0     C 1773   1.672   4.070   7.201 -0.2561  0.6260  0.8911
   14MOL0     C 1774   1.538   4.066   7.202 -0.0059 -0.7621 -0.1765
   14MOL0     C 1775   1.447   3.955   7.267  0.2964 -0.5850  0.4697
   14MOL0     C 1776   1.496   3.824   7.205 -0.4867  0.6241  0.3527
   14MOL0     C 1777   1.383   3.727   7.223  0.6514 -0.0617  0.9409
   14MOL0     C 1778   1.385   3.611   7.114 -0.0001 -0.4500 -0.3168
   14MOL0     O 1779   1.505   3.529   7.113 -0.1798 -0.0209  0.0580
   14MOL0     C 1780   1.518   3.418   7.193  0.2401 -1.3192  0.5592
   14MOL0     C 1781   1.424   3.372   7.285 -0.1860  0.0013 -0.5480
   14MOL0     C 1782   1.458   3.259   7.366  0.5121 -0.2616  1.0866
   14MOL0     C 1783   1.353   3.229   7.471 -0.3916 -0.4923 -0.6213
   14MOL0     C 1784   1.570   3.178   7.337  0.3690  0.9857 -0.0921
   14MOL0     C 1785   1.605   3.046   7.410  0.1929  0.7821  0.2127
   14MOL0     O 1786   1.736   3.006   7.378  0.1855  0.2370 -0.7864
   14MOL0     C 1787   1.782   2.885   7.410 -0.5414  1.1170  0.0160
   14MOL0     C 1788   1.694   2.767   7.404 -0.3299 -1.5256  0.3745
   14MOL0     C 1789   1.746   2.646   7.448  0.8037  0.5505 -0.1491
   14MOL0     C 1790   1.871   2.630   7.498  0.1277  0.8041 -0.8221
   14MOL0     O 1791   1.922   2.507   7.538 -0.4685 -0.9797 -0.4391
   14MOL0     C 1792   1.939   2.408   7.437  0.4967  0.3301  0.1846
   14MOL0     C 1793   2.074   2.357   7.448 -0.5815  0.6401  1.0151
   14MOL0     C 1794   2.104   2.224   7.374 -0.1573 -1.0884  0.9512
   14MOL0     C 1795   2.213   2.151   7.447 -0.3467 -0.3994 -0.4310
   14MOL0     C 1796   2.355   2.214   7.418  0.1270  1.0736 -0.1847
   14MOL0     C 1797   2.450   2.139   7.512  0.3249  0.4275 -0.1347
   14MOL0     C 1798   2.577   2.214   7.542 -0.0113 -0.3020  0.3879
   14MOL0     C 1799   2.671   2.121   7.630 -0.5174  0.6842  0.2988
   14MOL0    Cl 1800   2.742   1.988   7.546  0.0154  0.1311 -0.0951
   14MOL0     C 1801   1.958   2.736   7.510 -0.2661 -0.1707  0.5212
   14MOL0     C 1802   1.911   2.862   7.464  0.2507  0.4474  0.0594
   14MOL0     O 1803   1.542   3.006   7.510 -0.6149  0.5927  0.9305
   14MOL0     C 1804   1.665   3.227   7.236  0.8059 -0.5885 -0.8500
   14MOL0     C 1805   1.636   3.355   7.175  0.6955  0.7083  0.0823
   14MOL0     N 1806   1.489   4.179   7.146  0.4270  0.1519 -0.6734
   14MOL0     N 1807   1.589   4.240   7.091 -0.0084 -0.4483 -0.5362
   14MOL0     C 1808   1.994   3.788   6.303 -0.0246  0.0986  0.8896
   14MOL0     C 1809   2.117   3.727   6.289 -0.2053  0.1171 -0.7805
   14MOL0     C 1810   2.417   3.345   6.314  0.5155 -0.5592 -0.3765
   14MOL0     C 1811   2.445   3.205   6.329  0.9154 -0.5196  0.7248
   14MOL0     C 1812   2.569   3.152   6.301  0.2726 -0.0258 -1.3779
   14MOL0     C 1813   2.663   3.222   6.229 -0.3922 -0.1598 -0.4181
   14MOL0     O 1814   2.783   3.182   6.184 -0.3406 -0.0347  1.0302
   14MOL0     C 1815   2.837   3.047   6.214  0.2885  0.1296  1.1195
   14MOL0     C 1816   2.978   3.044   6.145  0.1707  0.1094  0.3897
   14MOL0     C 1817   2.973   3.034   6.002  1.4062  0.1626 -0.0075
   14MOL0     C 1818   3.094   2.978   5.933 -1.6729  0.3319 -0.2354
   14MOL0     C 1819   3.219   3.063   5.947  0.5214 -0.0662  0.8022
   14MOL0     C 1820   3.333   3.098   5.968  0.0830 -0.2453  0.4095
   14MOL0     C 1821   2.637   3.356   6.212 -0.3180 -0.6703  0.5650
   14MOL0     C 1822   2.522   3.423   6.261 -1.3126  0.0464  0.6247
   14MOL0     H 1823   2.012   3.408   6.375 -2.2487 -0.8340  1.0159
   14MOL0     H 1824   1.801   3.523   6.381 -0.7622  2.4234  4.5865
   14MOL0     H 1825   1.599   3.663   6.355  3.9849 -2.4879 -1.7283
   14MOL0     H 1826   1.677   3.728   6.488 -1.6553  0.5584  1.2289
   14MOL0     H 1827   1.505   3.905   6.314 -0.1228 -2.7317 -1.5850
   14MOL0     H 1828   1.491   3.853   6.491 -2.8659  1.5320 -2.7032
   14MOL0     H 1829   1.715   4.020   6.369  3.1854  1.3319  2.0124
   14MOL0     H 1830   1.581   4.093   6.449 -0.2414 -0.0470  0.5314
   14MOL0     H 1831   1.637   3.939   6.649  1.2024 -1.0233  0.7831
   14MOL0     H 1832   1.791   3.916   6.564  0.0868  1.3328 -1.4935
   14MOL0     H 1833   1.861   4.143   6.631  0.5546 -2.3164  4.8431
   14MOL0     H 1834   1.698   4.194   6.617 -1.6301 -0.3417  1.1972
   14MOL0     H 1835   1.669   4.054   6.843 -1.5212  2.1278 -0.5673
   14MOL0     H 1836   1.848   4.036   6.825 -0.1864 -0.3031  1.0924
   14MOL0     H 1837   1.885   4.275   6.851 -0.8627  1.0473  0.7496
   14MOL0     H 1838   1.712   4.295   6.859 -0.5380 -0.9866 -1.8916
   14MOL0     H 1839   1.880   4.279   7.062  1.6366 -0.4836 -3.0177
   14MOL0     H 1840   1.892   4.110   7.037  1.0289  0.3087  0.9030
   14MOL0     H 1841   1.731   3.992   7.247 -2.7264 -2.9077 -1.4934
   14MOL0     H 1842   1.456   3.945   7.376 -3.5720  0.4543  1.0562
   14MOL0     H 1843   1.341   3.972   7.245 -0.1987 -1.9456  1.5973
   14MOL0     H 1844   1.593   3.787   7.239 -0.4005  1.3328  0.8771
   14MOL0     H 1845   1.516   3.850   7.100  2.2536  0.7652  0.8333
   14MOL0     H 1846   1.283   3.769   7.211 -1.0374 -3.9937 -0.7007
   14MOL0     H 1847   1.382   3.680   7.322 -0.5419  1.3400  1.6219
   14MOL0     H 1848   1.359   3.647   7.014  0.4355 -2.4671 -1.2026
   14MOL0     H 1849   1.304   3.546   7.147  0.9986 -0.0419  3.4026
   14MOL0     H 1850   1.325   3.414   7.297  0.1702  1.0024 -0.9954
   14MOL0     H 1851   1.341   3.120   7.475  4.6327 -1.3275 -1.6215
   14MOL0     H 1852   1.409   3.263   7.558  0.1863 -1.3122 -0.6667
   14MOL0     H 1853   1.260   3.286   7.460  2.7167  5.1303 -1.5369
   14MOL0     H 1854   1.594   2.765   7.361  0.1722  2.3335 -1.4055
   14MOL0     H 1855   1.679   2.561   7.445 -2.2267  2.7810 -2.9062
   14MOL0     H 1856   1.867   2.327   7.451  1.5718 -0.5500  0.7564
   14MOL0     H 1857   1.919   2.452   7.339  1.6396  2.9818  1.0460
   14MOL0     H 1858   2.135   2.439   7.409  1.5406  0.2623  3.2618
   14MOL0     H 1859   2.099   2.345   7.554 -2.0967  2.6313  1.6697
   14MOL0     H 1860   2.125   2.235   7.267 -1.2745  1.6066  0.9126
   14MOL0     H 1861   2.011   2.166   7.379 -0.0845 -1.3110 -0.0185
   14MOL0     H 1862   2.202   2.134   7.554 -1.0155 -0.9505 -0.5769
   14MOL0     H 1863   2.209   2.050   7.404 -1.1365 -1.1950  1.3982
   14MOL0     H 1864   2.351   2.322   7.435 -0.0109  1.1792 -0.8851
   14MOL0     H 1865   2.383   2.192   7.315 -1.7027 -1.3112 -0.2522
   14MOL0     H 1866   2.394   2.131   7.606 -1.3862  5.1956 -0.4926
   14MOL0     H 1867   2.482   2.039   7.481  0.1878 -0.5302  2.5266
   14MOL0     H 1868   2.556   2.302   7.603 -3.2408 -1.1734  0.7256
   14MOL0     H 1869   2.628   2.235   7.448 -0.8727 -0.9224 -0.2395
   14MOL0     H 1870   2.617   2.092   7.720 -0.0643 -0.1281  0.3160
   14MOL0     H 1871   2.764   2.170   7.660  0.5774 -2.0318  1.6839
   14MOL0     H 1872   2.059   2.725   7.548  0.0306 -1.4081 -0.5404
   14MOL0     H 1873   1.968   2.954   7.468 -0.1893  0.6800  1.4757
   14MOL0     H 1874   1.745   3.162   7.203  0.4249  0.4639 -4.1815
   14MOL0     H 1875   1.696   3.391   7.093 -1.6376  2.3482 -1.0436
   14MOL0     H 1876   1.980   3.892   6.274 -0.1098 -0.4838 -1.3566
   14MOL0     H 1877   2.205   3.789   6.276  0.2373 -0.8115 -2.7123
   14MOL0     H 1878   2.362   3.138   6.349  1.3859 -1.0350  0.9922
   14MOL0     H 1879   2.585   3.045   6.313  1.6910  0.2941 -0.1394
   14MOL0     H 1880   2.840   3.044   6.323 -0.4371 -0.0262  1.1411
   14MOL0     H 1881   2.766   2.973   6.175 -1.2736  0.9734  2.2632
   14MOL0     H 1882   3.024   2.954   6.186  1.4208  2.2283  4.2365
   14MOL0     H 1883   3.039   3.127   6.185  1.1141  0.2589 -1.2882
   14MOL0     H 1884   2.960   3.129   5.949  2.9190  0.8803  0.8199
   14MOL0     H 1885   2.890   2.965   5.987  1.8747 -1.2744  3.2945
   14MOL0     H 1886   3.079   2.983   5.824 -0.4705 -0.3325 -0.4408
   14MOL0     H 1887   3.119   2.877   5.963  3.6714  1.8752  1.4755
   14MOL0     H 1888   3.424   3.148   5.997 -0.9740  0.0250  3.7750
   14MOL0     H 1889   2.715   3.402   6.152 -0.0449 -1.6401  0.1693
   14MOL0     H 1890   2.524   3.531   6.252  0.1438 -0.0404 -0.3969
   15MOL0     O 1891   7.811   0.714   2.563 -0.2055  0.4032 -0.8957
   15MOL0     C 1892   7.717   0.643   2.513 -0.1100 -0.4647  0.0161
   15MOL0     O 1893   7.633   0.569   2.579  0.2985 -1.0263  0.0816
   15MOL0     C 1894   7.631   0.581   2.721 -0.5558 -0.0118  0.6043
   15MOL0     C 1895   7.667   0.483   2.811  0.5793  0.5653  0.4088
   15MOL0     C 1896   7.652   0.491   2.949  1.4335 -0.9972  0.1194
   15MOL0     C 1897   7.611   0.612   3.001 -0.8367  0.0403 -0.0804
   15MOL0     O 1898   7.600   0.640   3.136 -0.8552 -0.6802  0.2265
   15MOL0     C 1899   7.624   0.536   3.232  0.0264 -0.0225  0.4208
   15MOL0     C 1900   7.595   0.581   3.373 -0.3900  0.2202 -0.0055
   15MOL0     C 1901   7.689   0.691   3.439  1.1669  0.4066  0.1685
   15MOL0     C 1902   7.627   0.823   3.464 -0.2241 -0.5670  0.4999
   15MOL0     C 1903   7.620   0.904   3.330  0.4672 -0.5247 -0.1938
   15MOL0     C 1904   7.566   1.048   3.344  0.5606  0.6230  0.5925
   15MOL0     C 1905   7.577   1.116   3.207 -0.1383  0.5028 -0.5788
   15MOL0     C 1906   7.504   1.245   3.215  0.1247  0.2814  0.6300
   15MOL0     N 1907   7.357   1.221   3.165 -0.0666  0.1677 -1.2339
   15MOL0     C 1908   7.243   1.230   3.243 -0.3264  0.3643 -0.0764
   15MOL0     C 1909   7.136   1.220   3.151 -1.2314  0.4129 -0.4395
   15MOL0     C 1910   6.994   1.236   3.172 -0.8648  0.0586  0.5724
   15MOL0     C 1911   6.963   1.276   3.311  0.0375 -0.5659  0.0079
   15MOL0     C 1912   6.829   1.344   3.329  0.6378 -0.3019 -0.0174
   15MOL0     C 1913   6.800   1.404   3.461  0.0827 -0.1069  0.1597
   15MOL0     O 1914   6.662   1.445   3.461  0.1776 -0.5618  0.0574
   15MOL0     C 1915   6.623   1.563   3.410  0.0279 -0.7198 -0.2451
   15MOL0     C 1916   6.493   1.586   3.426  0.0500  0.3859  0.8110
   15MOL0     C 1917   6.426   1.703   3.375 -0.1717 -0.3676 -0.2395
   15MOL0     C 1918   6.281   1.718   3.408 -0.0186 -0.4480  0.4052
   15MOL0     C 1919   6.513   1.803   3.312 -0.4987 -0.3304 -0.8506
   15MOL0     C 1920   6.451   1.925   3.249 -1.0218 -0.4805 -0.2315
   15MOL0     O 1921   6.324   1.967   3.290 -0.2703  0.4954  0.0388
   15MOL0     C 1922   6.260   2.053   3.206  0.0800 -0.6114 -0.0295
   15MOL0     C 1923   6.179   2.011   3.109  0.7415  0.4804  0.3794
   15MOL0     C 1924   6.116   2.113   3.035  0.0797  0.0727 -0.0276
   15MOL0     C 1925   6.152   2.252   3.055 -0.0871  0.7324 -1.8732
   15MOL0     O 1926   6.094   2.355   2.994 -0.5507  0.2339  0.2200
   15MOL0     C 1927   6.075   2.338   2.851 -0.2724  0.4679  0.1357
   15MOL0     C 1928   6.009   2.465   2.802 -0.3707 -0.9063 -0.0073
   15MOL0     C 1929   5.851   2.450   2.796  0.1405 -0.0896 -0.0223
   15MOL0     C 1930   5.816   2.371   2.672 -0.3864  0.0125  0.4510
   15MOL0     C 1931   5.671   2.329   2.672  1.3248  0.0129  0.2393
   15MOL0     C 1932   5.663   2.251   2.537  0.4889  0.2079  0.3743
   15MOL0     C 1933   5.517   2.196   2.517 -0.8808 -0.5061 -0.2001
   15MOL0     C 1934   5.498   2.091   2.407 -0.9962 -0.7343  0.6589
   15MOL0    Cl 1935   5.621   1.956   2.435  1.0601 -0.0442 -0.0775
   15MOL0     C 1936   6.249   2.288   3.145  0.2080  0.5926 -0.2427
   15MOL0     C 1937   6.304   2.187   3.226  0.7267  0.1921  0.3043
   15MOL0     O 1938   6.514   1.986   3.161  0.0421  0.1624 -0.2561
   15MOL0     C 1939   6.653   1.778   3.307 -0.1698  0.0739 -0.5127
   15MOL0     C 1940   6.706   1.662   3.349  0.2727  0.3587  0.8935
   15MOL0     N 1941   7.189   1.192   3.020  0.8465  0.8911 -0.1920
   15MOL0     N 1942   7.318   1.211   3.037 -0.3485 -0.3080  0.6924
   15MOL0     C 1943   7.589   0.721   2.920  0.6457  1.1735  0.4624
   15MOL0     C 1944   7.595   0.704   2.781  0.0615  0.0764 -0.8844
   15MOL0     C 1945   7.732   0.624   2.367  0.6029  0.1593 -0.4090
   15MOL0     C 1946   7.826   0.695   2.285 -0.5312  0.1123 -1.1579
   15MOL0     C 1947   7.828   0.679   2.148 -0.0374 -0.3909 -0.9291
   15MOL0     C 1948   7.734   0.590   2.092 -0.9036 -0.1561  0.4620
   15MOL0     O 1949   7.737   0.562   1.960  0.2360 -0.8325  0.1677
   15MOL0     C 1950   7.869   0.566   1.895 -0.3343  0.5607 -0.7227
   15MOL0     C 1951   7.870   0.453   1.798  0.1747  0.0459 -0.2536
   15MOL0     C 1952   8.013   0.421   1.742 -0.7074  0.1673  0.8168
   15MOL0     C 1953   8.041   0.273   1.732  0.7536  0.0703  0.4861
   15MOL0     C 1954   8.109   0.221   1.854  0.4667  0.0055 -0.1383
   15MOL0     C 1955   8.157   0.174   1.958  0.9286  0.7540  0.3144
   15MOL0     C 1956   7.638   0.526   2.172 -0.5153  0.4188  0.4030
   15MOL0     C 1957   7.645   0.533   2.306 -0.2283 -0.5195 -0.2936
   15MOL0     H 1958   7.674   0.381   2.774 -3.1950  0.4929 -0.4423
   15MOL0     H 1959   7.665   0.405   3.015  2.2499 -0.6360  0.4381
   15MOL0     H 1960   7.565   0.447   3.211  1.2079 -0.3470 -1.8336
   15MOL0     H 1961   7.730   0.512   3.223 -0.2052 -1.4758  1.2461
   15MOL0     H 1962   7.494   0.622   3.382  0.4631  2.2034  1.1674
   15MOL0     H 1963   7.609   0.484   3.420  2.2157 -1.7208 -4.1865
   15MOL0     H 1964   7.718   0.650   3.537  2.5683 -0.9308 -0.7512
   15MOL0     H 1965   7.784   0.702   3.385  2.7733 -4.6948  1.3500
   15MOL0     H 1966   7.528   0.807   3.506  0.0196  0.1068  1.3759
   15MOL0     H 1967   7.701   0.866   3.533  1.2294 -2.6861  0.3693
   15MOL0     H 1968   7.724   0.909   3.296  0.5097 -2.4437 -0.4539
   15MOL0     H 1969   7.564   0.847   3.256 -0.0869  0.4373 -0.5263
   15MOL0     H 1970   7.460   1.035   3.370  1.1542 -1.6771  2.1578
   15MOL0     H 1971   7.624   1.097   3.423  1.0499  1.6233 -0.3689
   15MOL0     H 1972   7.680   1.129   3.173 -0.0750 -3.4646 -2.5882
   15MOL0     H 1973   7.533   1.047   3.133  1.1291  1.2019 -2.0361
   15MOL0     H 1974   7.557   1.313   3.148 -0.1360  2.8272  2.8368
   15MOL0     H 1975   7.513   1.283   3.317  1.7178 -1.9905  1.4296
   15MOL0     H 1976   7.243   1.267   3.346  2.7729  0.6245 -0.0936
   15MOL0     H 1977   6.980   1.318   3.101 -0.9077  0.9965  1.6439
   15MOL0     H 1978   6.942   1.146   3.136 -0.1656  0.3665 -1.3496
   15MOL0     H 1979   7.047   1.336   3.347  2.1998 -4.5494  2.1768
   15MOL0     H 1980   6.958   1.186   3.372  0.0507 -0.3556  0.3234
   15MOL0     H 1981   6.747   1.274   3.311 -0.0467 -0.2970  2.5995
   15MOL0     H 1982   6.823   1.426   3.257 -2.3149 -0.4322 -0.0447
   15MOL0     H 1983   6.866   1.484   3.496  1.6670 -1.6557  0.8530
   15MOL0     H 1984   6.816   1.328   3.538  1.2177 -0.6209 -0.5773
   15MOL0     H 1985   6.443   1.511   3.486 -1.8729  0.9544  0.0017
   15MOL0     H 1986   6.270   1.781   3.497  2.1102  0.4611  0.0997
   15MOL0     H 1987   6.216   1.758   3.330  0.3849  3.1867  1.7267
   15MOL0     H 1988   6.248   1.616   3.425 -1.9508 -0.2579 -1.7532
   15MOL0     H 1989   6.153   1.908   3.086  0.7979  0.9920 -2.3390
   15MOL0     H 1990   6.046   2.084   2.957 -2.5685  0.6773  1.9732
   15MOL0     H 1991   6.167   2.327   2.794 -0.2618  1.2427 -0.0134
   15MOL0     H 1992   6.005   2.255   2.849  1.7760 -1.4979  2.6131
   15MOL0     H 1993   6.023   2.545   2.875 -1.6349 -1.0079  0.3823
   15MOL0     H 1994   6.048   2.505   2.708 -0.6644 -0.1196  0.2000
   15MOL0     H 1995   5.813   2.551   2.781 -0.3143 -0.5594 -2.3495
   15MOL0     H 1996   5.824   2.394   2.887 -0.2258  1.1146  0.6313
   15MOL0     H 1997   5.844   2.424   2.581 -1.0214  0.6606  0.6225
   15MOL0     H 1998   5.879   2.281   2.670  1.2252  1.1020  0.6760
   15MOL0     H 1999   5.604   2.416   2.668  3.1700  1.4673 -0.0572
   15MOL0     H 2000   5.634   2.264   2.752  3.4185 -0.6842  0.7017
   15MOL0     H 2001   5.691   2.312   2.451 -0.2745 -0.7069 -0.5550
   15MOL0     H 2002   5.727   2.163   2.533 -0.5123 -0.4944 -0.9533
   15MOL0     H 2003   5.444   2.277   2.499  1.3683  1.4338 -1.1781
   15MOL0     H 2004   5.490   2.141   2.607 -1.4715  1.3862  0.8515
   15MOL0     H 2005   5.502   2.133   2.306 -1.4245 -0.6438  0.6799
   15MOL0     H 2006   5.401   2.041   2.409  1.2535 -5.9883 -1.6764
   15MOL0     H 2007   6.264   2.388   3.184 -1.9408  0.8369  0.0460
   15MOL0     H 2008   6.373   2.210   3.307 -2.3785  1.8684  2.6678
   15MOL0     H 2009   6.710   1.858   3.260 -1.1870  0.3996 -1.2306
   15MOL0     H 2010   6.813   1.658   3.334 -0.0972 -0.5337 -2.0642
   15MOL0     H 2011   7.549   0.809   2.970 -0.0508  2.6367 -2.4402
   15MOL0     H 2012   7.559   0.776   2.708 -0.4072 -0.5120 -1.2445
   15MOL0     H 2013   7.893   0.756   2.345 -0.6097 -0.5851 -0.3505
   15MOL0     H 2014   7.898   0.741   2.093 -0.8844  1.7782  0.3176
   15MOL0     H 2015   7.884   0.659   1.839  2.8976 -0.7147 -2.2408
   15MOL0     H 2016   7.950   0.552   1.967  0.4189  2.5064 -1.1218
   15MOL0     H 2017   7.813   0.478   1.708  1.4483  1.1575 -0.7724
   15MOL0     H 2018   7.822   0.368   1.849  2.7209  0.1048  2.4745
   15MOL0     H 2019   8.087   0.482   1.794  0.7204 -1.2192  0.4826
   15MOL0     H 2020   8.006   0.467   1.643 -5.4774  0.5112  1.0860
   15MOL0     H 2021   8.102   0.255   1.643 -2.0190 -1.3759 -1.2641
   15MOL0     H 2022   7.946   0.221   1.715  0.7875 -1.6477  4.3828
   15MOL0     H 2023   8.180   0.142   2.058 -0.6502 -0.5512  0.2901
   15MOL0     H 2024   7.571   0.456   2.124  0.6588  0.3989 -1.3106
   15MOL0     H 2025   7.568   0.477   2.357  0.1983  0.0207  0.9928
   16MOL0     O 2026   1.136   7.552   0.276  0.3474 -1.2180  0.6503
   16MOL0     C 2027   1.083   7.660   0.303  0.4625  0.5987  0.2994
   16MOL0     O 2028   0.991   7.673   0.402 -0.3175  0.8269 -0.0960
   16MOL0     C 2029   1.040   7.722   0.522  0.2410 -1.4050 -0.3298
   16MOL0     C 2030   0.944   7.774   0.610 -0.1651  0.2311  1.2350
   16MOL0     C 2031   0.988   7.812   0.736 -0.4219 -0.2990  0.6391
   16MOL0     C 2032   1.120   7.808   0.769  0.9895  0.0707 -0.7795
   16MOL0     O 2033   1.157   7.854   0.894 -0.3481 -0.2330  0.3530
   16MOL0     C 2034   1.296   7.860   0.923 -0.3127 -0.0669 -0.4661
   16MOL0     C 2035   1.333   7.950   1.046 -0.4392  0.1916  1.4837
   16MOL0     C 2036   1.455   7.903   1.121 -0.7094 -0.2581 -0.7825
   16MOL0     C 2037   1.474   7.982   1.253 -0.3191  0.0159  0.3333
   16MOL0     C 2038   1.609   7.962   1.315 -0.7132  1.2486 -0.6514
   16MOL0     C 2039   1.637   8.026   1.452 -0.2898  0.4868 -0.7046
   16MOL0     C 2040   1.762   7.966   1.516 -0.8031 -1.5334 -0.4725
   16MOL0     C 2041   1.791   8.016   1.664  0.6701 -0.4146 -0.2919
   16MOL0     N 2042   1.908   7.965   1.721  0.4341 -0.8452  0.3339
   16MOL0     C 2043   2.032   7.990   1.685 -0.0384 -0.4585  0.5762
   16MOL0     C 2044   2.111   7.943   1.783  0.2144 -0.1520 -0.0829
   16MOL0     C 2045   2.264   7.925   1.781 -0.5053  0.3298 -0.3449
   16MOL0     C 2046   2.331   8.028   1.691  0.3434  0.8365 -0.1539
   16MOL0     C 2047   2.485   8.031   1.687 -0.4120  0.1023 -0.4954
   16MOL0     C 2048   2.530   8.161   1.618  0.0806  0.4066 -0.7252
   16MOL0     O 2049   2.664   8.195   1.657  0.7401  0.7884 -0.4622
   16MOL0     C 2050   2.698   8.257   1.776 -0.9840  0.2940 -0.3030
   16MOL0     C 2051   2.608   8.291   1.876 -0.8050 -0.2818  0.3474
   16MOL0     C 2052   2.644   8.376   1.984  0.1595  0.0759 -0.9399
   16MOL0     C 2053   2.537   8.442   2.069  0.0762  0.7328 -0.2711
   16MOL0     C 2054   2.786   8.392   2.010  0.0820 -0.3474  0.1611
   16MOL0     C 2055   2.834   8.466   2.123 -0.3297 -0.4105  0.5633
   16MOL0     O 2056   2.959   8.508   2.107 -0.7363  0.6325  0.2931
   16MOL0     C 2057   3.035   8.540   2.214 -0.4191  0.1759  0.1724
   16MOL0     C 2058   3.006   8.643   2.295  0.5239  0.3628  0.1763
   16MOL0     C 2059   3.093   8.679   2.397 -0.2403 -0.1922 -0.8169
   16MOL0     C 2060   3.204   8.609   2.431  0.0185 -0.4539  0.5458
   16MOL0     O 2061   3.281   8.642   2.531 -0.8406 -0.7485  0.7314
   16MOL0     C 2062   3.423   8.657   2.506  0.1324  0.6837 -0.0628
   16MOL0     C 2063   3.478   8.677   2.647 -0.7549 -0.1566 -0.2964
   16MOL0     C 2064   3.456   8.811   2.714  0.0768 -0.7578  0.0112
   16MOL0     C 2065   3.516   8.840   2.849 -1.4378 -0.1334  0.4157
   16MOL0     C 2066   3.439   8.953   2.914  1.0433 -0.4212 -0.5409
   16MOL0     C 2067   3.483   8.985   3.067  0.1748  0.5287 -0.0962
   16MOL0     C 2068   3.435   8.869   3.159 -0.5048 -1.2082  0.1798
   16MOL0     C 2069   3.282   8.854   3.173  0.0144  0.0749 -0.3266
   16MOL0    Cl 2070   3.200   8.985   3.261 -0.5110 -0.0503  0.1467
   16MOL0     C 2071   3.241   8.504   2.353  0.0503  0.8559  0.1202
   16MOL0     C 2072   3.160   8.476   2.243 -0.2203  0.3383  0.3242
   16MOL0     O 2073   2.772   8.485   2.222 -0.6657 -0.2794  0.1403
   16MOL0     C 2074   2.875   8.344   1.909  0.1884  0.6920 -0.1681
   16MOL0     C 2075   2.827   8.287   1.789 -0.1207  0.7565 -0.0948
   16MOL0     N 2076   2.036   7.861   1.861 -0.0667  0.3739  0.4717
   16MOL0     N 2077   1.912   7.883   1.829 -0.3870 -0.0209 -0.2453
   16MOL0     C 2078   1.209   7.761   0.678 -0.0045  0.1328 -0.2798
   16MOL0     C 2079   1.172   7.714   0.561  0.1246 -0.4012  0.2945
   16MOL0     C 2080   1.095   7.783   0.225 -0.4687 -0.3454 -0.3314
   16MOL0     C 2081   1.153   7.767   0.092 -0.3073  0.5345 -0.1984
   16MOL0     C 2082   1.167   7.886   0.018  0.4215  0.5659  0.3141
   16MOL0     C 2083   1.117   8.013   0.051  0.1172 -0.3205  0.0025
   16MOL0     O 2084   1.121   8.121  -0.037  0.0584  0.3775  0.7860
   16MOL0     C 2085   1.044   8.236  -0.002 -0.0593  0.8438 -0.1293
   16MOL0     C 2086   1.083   8.339  -0.106 -0.6934  0.0392 -0.0594
   16MOL0     C 2087   1.056   8.299  -0.247  0.3732  1.0564  0.1353
   16MOL0     C 2088   1.040   8.419  -0.329  0.6507 -1.2101  0.0664
   16MOL0     C 2089   0.979   8.386  -0.461  0.1150  0.0725 -0.4380
   16MOL0     C 2090   0.924   8.363  -0.566  0.6481 -0.2633 -0.4198
   16MOL0     C 2091   1.054   8.008   0.177  0.2009 -0.6547  0.1964
   16MOL0     C 2092   1.041   7.905   0.266  0.6656 -0.8018 -0.1654
   16MOL0     H 2093   0.840   7.796   0.591 -0.5082 -0.9696  1.6571
   16MOL0     H 2094   0.924   7.852   0.814 -1.1828  1.7447 -0.9709
   16MOL0     H 2095   1.329   7.759   0.947  0.7910  0.4638  0.3578
   16MOL0     H 2096   1.356   7.888   0.835 -4.4604  1.4031 -3.1133
   16MOL0     H 2097   1.354   8.050   1.007 -0.8908 -0.6229 -1.0359
   16MOL0     H 2098   1.249   7.940   1.116 -1.1767  1.2238  0.7757
   16MOL0     H 2099   1.452   7.799   1.155 -2.7052  0.7395  2.5716
   16MOL0     H 2100   1.539   7.923   1.054 -0.8295  0.8729 -0.6164
   16MOL0     H 2101   1.458   8.089   1.233  1.9314  0.3837  0.2074
   16MOL0     H 2102   1.399   7.943   1.323  0.6445  0.5317  1.6998
   16MOL0     H 2103   1.619   7.855   1.333  2.0411  1.1943 -1.9780
   16MOL0     H 2104   1.688   7.992   1.245  0.5186  0.0683  0.2008
   16MOL0     H 2105   1.618   8.133   1.440  2.7555  1.3141  0.7583
   16MOL0     H 2106   1.548   7.997   1.509 -1.8428  3.2039 -1.5903
   16MOL0     H 2107   1.746   7.858   1.518 -3.5157 -1.1956 -0.7418
   16MOL0     H 2108   1.850   7.993   1.457 -1.4761  0.0172 -0.8214
   16MOL0     H 2109   1.709   7.992   1.732  2.0872  1.7079  2.3454
   16MOL0     H 2110   1.803   8.124   1.656  1.3199 -0.2480  2.2203
   16MOL0     H 2111   2.065   8.026   1.588 -2.3012  0.2243 -0.0032
   16MOL0     H 2112   2.294   7.929   1.886  0.1387  1.6717 -0.5577
   16MOL0     H 2113   2.302   7.826   1.754  1.8846  0.2328  2.7367
   16MOL0     H 2114   2.293   8.117   1.742  1.7004  0.0131  2.4612
   16MOL0     H 2115   2.287   8.016   1.591 -1.3873  1.5279  0.4813
   16MOL0     H 2116   2.512   7.936   1.640 -1.1834 -1.8028  2.6117
   16MOL0     H 2117   2.519   8.028   1.791  3.1728  1.1962 -1.4698
   16MOL0     H 2118   2.460   8.238   1.650  1.1794  0.0501  2.9823
   16MOL0     H 2119   2.521   8.159   1.509 -0.9537  1.9346 -0.6955
   16MOL0     H 2120   2.507   8.257   1.856 -1.5454 -0.2033  3.4255
   16MOL0     H 2121   2.512   8.397   2.166  2.7621 -1.7034 -0.5661
   16MOL0     H 2122   2.560   8.547   2.087 -2.6568  2.0333 -3.2516
   16MOL0     H 2123   2.442   8.435   2.014 -0.4515 -1.8402  0.8020
   16MOL0     H 2124   2.927   8.713   2.271 -0.5859 -1.3149 -1.2971
   16MOL0     H 2125   3.070   8.760   2.465  3.6779 -2.4412  3.8026
   16MOL0     H 2126   3.461   8.578   2.441  0.0141  1.3774 -0.9912
   16MOL0     H 2127   3.444   8.745   2.444  0.6022 -0.0367 -0.9609
   16MOL0     H 2128   3.431   8.601   2.711 -1.5627  2.1139  1.9597
   16MOL0     H 2129   3.582   8.650   2.626 -1.2048 -1.6730 -0.6761
   16MOL0     H 2130   3.347   8.809   2.722 -0.1702  2.0920 -1.4989
   16MOL0     H 2131   3.478   8.898   2.651 -0.7822  1.5290  2.6704
   16MOL0     H 2132   3.512   8.753   2.916  1.8952  1.4642  2.9808
   16MOL0     H 2133   3.624   8.855   2.843 -1.1656 -1.7678  0.6578
   16MOL0     H 2134   3.335   8.920   2.917  1.2410 -1.3767 -2.4503
   16MOL0     H 2135   3.446   9.046   2.857  2.0801 -0.8194 -1.1065
   16MOL0     H 2136   3.589   9.009   3.074 -0.2827  2.0373  2.6704
   16MOL0     H 2137   3.433   9.073   3.109 -0.7792  0.8073 -1.6941
   16MOL0     H 2138   3.474   8.891   3.259  0.5410  0.2012 -0.5000
   16MOL0     H 2139   3.482   8.775   3.129 -1.8459 -1.7767 -0.2211
   16MOL0     H 2140   3.260   8.764   3.231 -1.9131  0.4025 -0.4893
   16MOL0     H 2141   3.221   8.839   3.083  0.3816 -1.0829 -0.4060
   16MOL0     H 2142   3.322   8.439   2.385  1.4135  2.9662  1.1636
   16MOL0     H 2143   3.174   8.380   2.194  0.4904  0.1988  0.7744
   16MOL0     H 2144   2.981   8.365   1.904  0.2107  0.4649 -0.8348
   16MOL0     H 2145   2.898   8.248   1.717 -1.6760 -2.2442 -0.1473
   16MOL0     H 2146   1.313   7.741   0.703 -1.0260 -3.3469  1.8634
   16MOL0     H 2147   1.250   7.685   0.491  0.0927 -3.2330  1.3044
   16MOL0     H 2148   1.173   7.670   0.046 -1.6743 -0.2572  0.8085
   16MOL0     H 2149   1.204   7.866  -0.082  5.6609 -1.1245  2.2676
   16MOL0     H 2150   0.937   8.218  -0.016 -0.0644  1.7242 -1.4290
   16MOL0     H 2151   1.067   8.271   0.099  3.4958 -1.2785 -0.0398
   16MOL0     H 2152   1.191   8.354  -0.100 -0.6328 -0.4474  0.1356
   16MOL0     H 2153   1.034   8.430  -0.072  1.4330  0.5728  1.8412
   16MOL0     H 2154   0.959   8.248  -0.251  0.6527  0.5562 -0.4779
   16MOL0     H 2155   1.134   8.234  -0.287  0.5270  2.8039 -2.7605
   16MOL0     H 2156   1.134   8.474  -0.344  1.0510 -1.9259 -0.0748
   16MOL0     H 2157   0.970   8.491  -0.285  1.1058 -0.4150 -0.4752
   16MOL0     H 2158   0.895   8.348  -0.668 -1.4008  0.3823  0.0192
   16MOL0     H 2159   1.002   8.095   0.217  1.5446 -0.0090  0.5812
   16MOL0     H 2160   0.991   7.909   0.362  0.4933  0.3733 -0.2904
   17MOL0     O 2161   9.829  11.339   0.936  0.6954 -0.0668  1.2867
   17MOL0     C 2162   9.884  11.232   0.966  0.0122 -0.0709  0.2583
   17MOL0     O 2163   9.913  11.134   0.877  0.0868 -0.4587  0.4239
   17MOL0     C 2164   9.890  11.151   0.743 -0.0616 -0.3028  0.4611
   17MOL0     C 2165   9.772  11.205   0.697 -0.0426 -0.3096  0.3287
   17MOL0     C 2166   9.751  11.218   0.563 -0.3459  0.5966  0.3067
   17MOL0     C 2167   9.842  11.173   0.469  0.2495 -0.5000 -0.1375
   17MOL0     O 2168   9.835  11.189   0.330 -0.3231 -0.5914 -0.0845
   17MOL0     C 2169   9.706  11.226   0.272  0.4206  0.2228  0.0794
   17MOL0     C 2170   9.708  11.187   0.120  0.8955  0.9827  0.2031
   17MOL0     C 2171   9.571  11.181   0.039 -0.3978 -0.2569 -0.9114
   17MOL0     C 2172   9.516  11.322   0.025  0.2743 -1.0324 -0.1135
   17MOL0     C 2173   9.419  11.345  -0.090 -0.1182 -0.8859 -0.3336
   17MOL0     C 2174   9.414  11.488  -0.108 -0.3073  0.2413  0.0793
   17MOL0     C 2175   9.349  11.517  -0.244 -0.2394 -0.1979  0.4673
   17MOL0     C 2176   9.351  11.674  -0.259  0.7665  0.2222 -1.4090
   17MOL0     N 2177   9.475  11.724  -0.301  0.1668  0.2781 -1.0025
   17MOL0     C 2178   9.537  11.718  -0.422  0.5299  0.4111 -0.9341
   17MOL0     C 2179   9.627  11.829  -0.414 -0.1065  0.1406 -0.0878
   17MOL0     C 2180   9.686  11.895  -0.536  0.7511  0.0883 -0.8321
   17MOL0     C 2181   9.811  11.987  -0.524  0.2583  0.8368 -0.0540
   17MOL0     C 2182   9.772  12.134  -0.533 -0.0117 -1.1452  0.2116
   17MOL0     C 2183   9.729  12.172  -0.677 -0.1744 -0.5409  0.0004
   17MOL0     O 2184   9.834  12.160  -0.768  0.4525 -0.6889  0.3255
   17MOL0     C 2185   9.943  12.248  -0.745 -0.1498  0.1117 -0.9160
   17MOL0     C 2186  10.071  12.215  -0.690 -0.3111  0.1407  0.1310
   17MOL0     C 2187  10.176  12.308  -0.664  0.1926  0.6525  0.2497
   17MOL0     C 2188  10.306  12.264  -0.609 -0.0568  0.1626 -1.2121
   17MOL0     C 2189  10.158  12.443  -0.711  1.2139  0.5938 -0.3450
   17MOL0     C 2190  10.252  12.553  -0.697 -0.3067  1.0785  0.2938
   17MOL0     O 2191  10.200  12.675  -0.695 -0.3370  0.0204 -0.4451
   17MOL0     C 2192  10.260  12.783  -0.641 -1.4835  0.1783  0.2269
   17MOL0     C 2193  10.399  12.801  -0.603  0.1331 -0.5561 -0.5846
   17MOL0     C 2194  10.435  12.929  -0.550 -0.3554  0.0676  0.5410
   17MOL0     C 2195  10.337  13.031  -0.542  0.5550 -0.5678  0.1817
   17MOL0     O 2196  10.384  13.145  -0.494  0.2529 -0.5287  0.4438
   17MOL0     C 2197  10.430  13.244  -0.585  0.3888 -0.6016 -0.3411
   17MOL0     C 2198  10.420  13.385  -0.512 -0.7156 -0.0225 -0.2094
   17MOL0     C 2199  10.483  13.381  -0.374 -0.3359 -0.3443 -0.7437
   17MOL0     C 2200  10.565  13.507  -0.341 -0.4726 -0.0202  0.4517
   17MOL0     C 2201  10.688  13.539  -0.430 -0.2571 -0.4590 -0.1671
   17MOL0     C 2202  10.796  13.438  -0.431 -0.6733  0.3329  0.0023
   17MOL0     C 2203  10.859  13.403  -0.295 -0.5420 -0.0252 -0.7858
   17MOL0     C 2204  11.009  13.373  -0.292  1.1198  0.9061  0.8088
   17MOL0    Cl 2205  11.105  13.507  -0.337 -0.3500 -0.2001  0.5627
   17MOL0     C 2206  10.207  13.010  -0.592 -0.0606 -0.9045 -0.0763
   17MOL0     C 2207  10.166  12.885  -0.636  0.0105  0.2067  0.4765
   17MOL0     O 2208  10.369  12.523  -0.672  0.3219  0.5612  0.5330
   17MOL0     C 2209  10.033  12.466  -0.774 -0.3008  0.6126  0.4762
   17MOL0     C 2210   9.932  12.370  -0.796 -0.0485 -0.3398 -0.3066
   17MOL0     N 2211   9.613  11.895  -0.288 -0.7986 -0.0003 -0.4493
   17MOL0     N 2212   9.521  11.835  -0.221 -0.0863  0.1844  0.4945
   17MOL0     C 2213   9.955  11.108   0.522  0.9262  0.4989  0.3538
   17MOL0     C 2214   9.978  11.099   0.654  0.0147  0.7779  0.3011
   17MOL0     C 2215   9.931  11.216   1.112  0.1168 -0.2792  1.1810
   17MOL0     C 2216   9.924  11.322   1.192  0.0540 -0.5714 -0.0318
   17MOL0     C 2217   9.968  11.333   1.327  1.4556 -0.3916 -0.1490
   17MOL0     C 2218  10.028  11.218   1.378 -0.3116  1.1187  0.4539
   17MOL0     O 2219  10.077  11.224   1.505  0.4261  0.1644  0.2203
   17MOL0     C 2220  10.105  11.106   1.587 -0.1583 -0.9274 -0.4052
   17MOL0     C 2221  10.089  11.128   1.740 -0.7549 -0.4443  0.1772
   17MOL0     C 2222   9.958  11.138   1.804 -1.0453 -0.0862 -0.7570
   17MOL0     C 2223   9.967  11.174   1.950 -0.0229  0.5723 -0.4775
   17MOL0     C 2224   9.983  11.064   2.037  0.1281 -0.1763 -0.1346
   17MOL0     C 2225   9.968  10.972   2.112 -0.7230  0.6751 -0.9226
   17MOL0     C 2226  10.039  11.101   1.287  0.8133  0.0667  0.2122
   17MOL0     C 2227   9.996  11.110   1.155 -0.2457  0.5067  0.3515
   17MOL0     H 2228   9.695  11.241   0.764  1.1360  0.9492  1.0561
   17MOL0     H 2229   9.663  11.278   0.542  0.2400  1.3247 -0.1234
   17MOL0     H 2230   9.633  11.165   0.326  1.4938 -1.2410 -0.0729
   17MOL0     H 2231   9.679  11.331   0.288  0.9517  0.2550  0.8565
   17MOL0     H 2232   9.781  11.245   0.063  1.6977 -0.9926 -0.8809
   17MOL0     H 2233   9.733  11.081   0.122 -3.0637 -0.1362 -0.9369
   17MOL0     H 2234   9.599  11.138  -0.058 -2.6371  0.4840 -1.9467
   17MOL0     H 2235   9.499  11.111   0.083  0.1353 -0.9530 -1.1228
   17MOL0     H 2236   9.477  11.348   0.124  0.9532  0.3404 -0.1802
   17MOL0     H 2237   9.597  11.395   0.027 -0.0899 -0.6001  2.2377
   17MOL0     H 2238   9.457  11.297  -0.180  1.0777 -0.1058 -0.2509
   17MOL0     H 2239   9.318  11.313  -0.059 -0.3528  1.4738  1.7053
   17MOL0     H 2240   9.362  11.537  -0.024 -4.9592 -2.4726 -0.9061
   17MOL0     H 2241   9.517  11.526  -0.106  0.9325 -2.8150  2.3482
   17MOL0     H 2242   9.394  11.464  -0.327 -1.7452  0.0132 -0.5282
   17MOL0     H 2243   9.251  11.468  -0.246 -1.0217  1.2696  0.8882
   17MOL0     H 2244   9.314  11.718  -0.166  1.6834 -0.2193 -0.8323
   17MOL0     H 2245   9.271  11.678  -0.334 -0.0303 -3.2751 -0.9349
   17MOL0     H 2246   9.512  11.665  -0.513  1.9285 -0.4634 -0.8343
   17MOL0     H 2247   9.709  11.814  -0.606 -1.5918 -1.1824 -0.2110
   17MOL0     H 2248   9.605  11.956  -0.577  1.1576  1.2359 -0.0027
   17MOL0     H 2249   9.865  11.957  -0.614 -1.8196  1.0461 -1.4612
   17MOL0     H 2250   9.865  11.969  -0.431  0.7329 -0.3491 -0.5468
   17MOL0     H 2251   9.853  12.204  -0.512 -2.0507  1.7635 -0.9145
   17MOL0     H 2252   9.696  12.152  -0.457 -0.0286 -4.1850  1.0500
   17MOL0     H 2253   9.694  12.275  -0.669  1.0476  0.0853 -1.9153
   17MOL0     H 2254   9.657  12.100  -0.717  0.7459 -2.2049  1.2013
   17MOL0     H 2255  10.094  12.111  -0.665  1.1806  0.3770 -0.1792
   17MOL0     H 2256  10.386  12.269  -0.684  0.3622  1.9159 -0.7050
   17MOL0     H 2257  10.337  12.313  -0.517 -1.5262 -2.2974  0.7069
   17MOL0     H 2258  10.322  12.169  -0.558  3.9973  1.9680  1.3857
   17MOL0     H 2259  10.475  12.724  -0.601  2.9252  1.9916  1.9785
   17MOL0     H 2260  10.538  12.951  -0.525  0.3472 -1.2779 -0.9835
   17MOL0     H 2261  10.530  13.212  -0.616 -1.0047 -1.5579 -4.4546
   17MOL0     H 2262  10.370  13.235  -0.675 -1.5605  0.8516  0.7310
   17MOL0     H 2263  10.468  13.463  -0.574  2.8048 -1.0357  1.0118
   17MOL0     H 2264  10.313  13.406  -0.511 -0.7327  0.0846 -1.5050
   17MOL0     H 2265  10.552  13.296  -0.376  0.1862 -0.1886  3.0465
   17MOL0     H 2266  10.407  13.357  -0.299  0.2045 -0.5347 -0.2460
   17MOL0     H 2267  10.505  13.594  -0.369  0.5909 -0.2524 -3.0938
   17MOL0     H 2268  10.599  13.512  -0.237 -2.5524 -1.4967  1.2754
   17MOL0     H 2269  10.723  13.636  -0.394 -0.6678 -0.9379  1.6487
   17MOL0     H 2270  10.662  13.559  -0.535 -3.1240  0.8657  0.6794
   17MOL0     H 2271  10.761  13.342  -0.471 -0.1104  0.0314  0.2170
   17MOL0     H 2272  10.868  13.476  -0.505 -0.2385  1.3857  0.9433
   17MOL0     H 2273  10.804  13.317  -0.255 -2.3836 -0.2384 -3.5312
   17MOL0     H 2274  10.844  13.481  -0.220 -2.9174  0.0259 -1.2132
   17MOL0     H 2275  11.007  13.301  -0.373 -1.6716  1.0582  0.6339
   17MOL0     H 2276  11.028  13.322  -0.197 -0.9348 -0.8559  0.3637
   17MOL0     H 2277  10.132  13.088  -0.600  2.2517  1.4446 -0.1514
   17MOL0     H 2278  10.070  12.871  -0.683 -0.8657  1.0952  1.9336
   17MOL0     H 2279  10.011  12.559  -0.826 -1.8374 -0.7574 -1.5158
   17MOL0     H 2280   9.840  12.395  -0.847 -0.6722  1.9774  1.7736
   17MOL0     H 2281  10.024  11.079   0.444 -1.3670 -0.7621 -1.3248
   17MOL0     H 2282  10.066  11.046   0.690 -0.6353 -0.1590  0.5636
   17MOL0     H 2283   9.884  11.408   1.141 -2.9773 -2.1280 -0.5092
   17MOL0     H 2284   9.960  11.417   1.395  0.0792 -1.8030  1.5265
   17MOL0     H 2285  10.047  11.021   1.547 -2.4666  1.8311 -3.4873
   17MOL0     H 2286  10.211  11.082   1.573  0.7275  2.6893 -0.7989
   17MOL0     H 2287  10.140  11.223   1.759 -0.3390 -0.0612 -2.4949
   17MOL0     H 2288  10.138  11.037   1.776 -1.9410 -0.9588  0.5465
   17MOL0     H 2289   9.890  11.054   1.790 -2.7944  1.0875  0.2054
   17MOL0     H 2290   9.913  11.229   1.762 -0.3744  0.6853  0.1290
   17MOL0     H 2291   9.873  11.222   1.977  1.1130  2.8370 -0.2916
   17MOL0     H 2292  10.043  11.252   1.959 -1.6546  2.4715 -2.3515
   17MOL0     H 2293   9.958  10.896   2.185 -0.9473  0.9057 -0.7138
   17MOL0     H 2294  10.085  11.009   1.322 -1.8760 -1.6070 -0.2737
   17MOL0     H 2295   9.998  11.024   1.089  0.3727  0.5817  0.2669
   18MOL0     O 2296   0.972   6.743   9.536  0.3492 -0.0155  1.0555
   18MOL0     C 2297   1.055   6.659   9.532 -0.2446 -0.3879  0.3341
   18MOL0     O 2298   1.103   6.595   9.416 -0.0031 -0.1360  0.2592
   18MOL0     C 2299   1.031   6.603   9.303  0.2519 -0.6995 -0.0032
   18MOL0     C 2300   0.901   6.576   9.310  0.2638  0.4215  0.0771
   18MOL0     C 2301   0.823   6.572   9.190 -0.2004  0.1330  0.0639
   18MOL0     C 2302   0.874   6.608   9.066 -0.1234 -0.0559  0.5330
   18MOL0     O 2303   0.803   6.599   8.945  0.3055 -0.8146 -0.2629
   18MOL0     C 2304   0.841   6.492   8.858  0.9032 -1.5409 -1.1324
   18MOL0     C 2305   0.741   6.479   8.745 -0.1358  0.0691  0.6373
   18MOL0     C 2306   0.621   6.386   8.770  0.0708  0.8117 -1.2821
   18MOL0     C 2307   0.527   6.424   8.875 -0.2022 -0.3784 -0.4871
   18MOL0     C 2308   0.440   6.304   8.902  0.7551 -0.6649  0.2159
   18MOL0     C 2309   0.340   6.332   9.008  0.2930  0.1234 -0.3035
   18MOL0     C 2310   0.406   6.351   9.159 -0.5469  0.7338 -0.1458
   18MOL0     C 2311   0.391   6.231   9.247 -0.8239 -1.4953 -0.1449
   18MOL0     N 2312   0.506   6.231   9.349  0.3910  0.5407  0.8186
   18MOL0     C 2313   0.620   6.148   9.337  0.3129  0.2313  0.0641
   18MOL0     C 2314   0.709   6.200   9.430  0.3687 -0.3010 -0.4265
   18MOL0     C 2315   0.842   6.164   9.475  0.1464 -0.6276  0.5691
   18MOL0     C 2316   0.929   6.113   9.358  1.4686  0.0925  0.3837
   18MOL0     C 2317   0.990   6.231   9.288 -0.3915  0.0110 -1.2463
   18MOL0     C 2318   1.039   6.183   9.153 -0.4320  0.5491  0.2707
   18MOL0     O 2319   0.931   6.160   9.071  0.1242 -0.4648  0.3751
   18MOL0     C 2320   0.946   6.123   8.942  1.4343 -0.2934 -0.3055
   18MOL0     C 2321   0.824   6.082   8.889  0.3798  0.3912 -0.2643
   18MOL0     C 2322   0.798   6.052   8.761 -0.5083 -0.7063 -0.3760
   18MOL0     C 2323   0.665   6.014   8.717 -1.2446  1.1869  0.6967
   18MOL0     C 2324   0.910   6.068   8.676  0.0795  0.1858  0.1467
   18MOL0     C 2325   0.896   6.056   8.530 -0.2788  0.0608  0.1948
   18MOL0     O 2326   0.988   5.975   8.471 -0.8083  0.1360 -0.0563
   18MOL0     C 2327   1.012   5.971   8.343 -1.1062 -0.0259 -0.0520
   18MOL0     C 2328   1.147   5.952   8.307 -0.8756 -0.0021 -0.1103
   18MOL0     C 2329   1.195   5.958   8.178  0.0120  0.2470  0.8397
   18MOL0     C 2330   1.102   5.982   8.069  0.1291 -0.5908  0.1533
   18MOL0     O 2331   1.155   5.997   7.939 -0.7020  0.9246  0.3283
   18MOL0     C 2332   1.100   6.083   7.846 -0.8793 -0.8768 -0.2219
   18MOL0     C 2333   1.120   6.018   7.710  0.2266 -0.0326 -0.4409
   18MOL0     C 2334   1.122   6.131   7.602 -0.2177 -0.5742  0.8578
   18MOL0     C 2335   1.149   6.071   7.467  0.0868 -0.4138 -0.1130
   18MOL0     C 2336   1.295   6.024   7.443 -0.0929  0.2543  0.6769
   18MOL0     C 2337   1.323   6.003   7.292 -0.7135 -1.3613  0.1222
   18MOL0     C 2338   1.235   5.893   7.226  1.0629  0.6148 -1.0361
   18MOL0     C 2339   1.276   5.859   7.083 -0.0917  0.3571 -0.1713
   18MOL0    Cl 2340   1.419   5.755   7.078 -0.3746 -0.1159 -0.0087
   18MOL0     C 2341   0.969   6.009   8.101  0.0795 -1.0198 -0.2499
   18MOL0     C 2342   0.930   6.002   8.236  0.0557  0.6104 -0.1150
   18MOL0     O 2343   0.796   6.110   8.468 -0.3371  0.4498 -1.2372
   18MOL0     C 2344   1.038   6.095   8.724 -0.6858  0.4411 -0.2728
   18MOL0     C 2345   1.055   6.133   8.859 -0.6100 -0.1405  0.0833
   18MOL0     N 2346   0.639   6.298   9.499  0.4815  0.2937  0.2522
   18MOL0     N 2347   0.523   6.313   9.453  0.5850  0.3244 -0.0220
   18MOL0     C 2348   1.011   6.634   9.054  0.2025 -0.2591 -0.3218
   18MOL0     C 2349   1.088   6.629   9.174 -0.2137  0.5855 -0.2290
   18MOL0     C 2350   1.098   6.617   9.668 -1.1768  0.4017  0.2265
   18MOL0     C 2351   1.106   6.703   9.785  0.6926 -0.2005  0.1519
   18MOL0     C 2352   1.150   6.654   9.918 -0.9865  0.2596 -0.4919
   18MOL0     C 2353   1.167   6.512   9.931 -0.3487 -1.8339 -0.6192
   18MOL0     O 2354   1.193   6.447  10.044  0.5527 -0.1250  0.0649
   18MOL0     C 2355   1.118   6.491  10.155  0.1050  0.1046 -0.8275
   18MOL0     C 2356   1.110   6.379  10.255  0.0372 -0.6258  0.8297
   18MOL0     C 2357   1.082   6.250  10.193  0.1993  0.4805  0.3113
   18MOL0     C 2358   1.004   6.153  10.295 -0.6379 -0.1417 -0.3013
   18MOL0     C 2359   0.865   6.206  10.303 -0.2186  0.0689  0.3211
   18MOL0     C 2360   0.751   6.239  10.313 -0.1339 -0.1711  0.2686
   18MOL0     C 2361   1.175   6.441   9.816  0.1608  0.5484  1.0979
   18MOL0     C 2362   1.138   6.482   9.684 -0.2985 -0.4111 -0.0355
   18MOL0     H 2363   0.849   6.560   9.404  0.1582  3.6066  0.6954
   18MOL0     H 2364   0.724   6.529   9.193  0.0275 -0.7650 -2.4336
   18MOL0     H 2365   0.944   6.509   8.825  0.7872  1.1913 -0.3487
   18MOL0     H 2366   0.848   6.401   8.918  0.8544 -0.5012  0.5151
   18MOL0     H 2367   0.703   6.569   8.695 -0.9238 -1.3710 -1.5492
   18MOL0     H 2368   0.791   6.425   8.664 -0.2710 -0.1169  0.6768
   18MOL0     H 2369   0.566   6.370   8.677 -0.7382  0.3152 -0.7321
   18MOL0     H 2370   0.659   6.289   8.802 -2.2366  0.9812  2.5801
   18MOL0     H 2371   0.572   6.457   8.969  0.5712 -0.6836 -0.7448
   18MOL0     H 2372   0.468   6.508   8.838  0.1634 -0.2539 -0.7922
   18MOL0     H 2373   0.393   6.277   8.808 -0.0875 -1.7264  0.9207
   18MOL0     H 2374   0.508   6.228   8.942  3.8508  1.0416 -1.4475
   18MOL0     H 2375   0.294   6.428   8.983 -0.6886 -0.3754 -0.4291
   18MOL0     H 2376   0.270   6.249   9.009  0.7741 -0.3180 -1.8385
   18MOL0     H 2377   0.511   6.383   9.156 -0.0387 -0.8543 -1.1364
   18MOL0     H 2378   0.342   6.414   9.220 -3.3848 -2.6843  0.7408
   18MOL0     H 2379   0.406   6.135   9.197  2.5255 -0.1465 -2.0018
   18MOL0     H 2380   0.295   6.230   9.300  0.8839 -1.3954  3.2463
   18MOL0     H 2381   0.632   6.062   9.272 -0.2281  1.8999 -2.4035
   18MOL0     H 2382   0.886   6.244   9.535  2.9708 -0.8717 -0.9891
   18MOL0     H 2383   0.836   6.073   9.536 -0.0339 -1.6410 -0.9032
   18MOL0     H 2384   0.868   6.055   9.288  1.1271  0.5891  0.2704
   18MOL0     H 2385   1.011   6.049   9.392  1.3529 -0.9321 -1.1765
   18MOL0     H 2386   1.075   6.278   9.340 -1.2906  1.4408 -1.0182
   18MOL0     H 2387   0.911   6.304   9.269 -2.4837 -1.9184 -0.3955
   18MOL0     H 2388   1.101   6.093   9.164 -0.2880  0.7644  1.3181
   18MOL0     H 2389   1.102   6.260   9.107 -1.3805 -0.0367 -2.1733
   18MOL0     H 2390   0.741   6.083   8.959  0.8853  3.7677  0.4532
   18MOL0     H 2391   0.589   6.003   8.794 -0.8762 -0.3811  0.8646
   18MOL0     H 2392   0.621   6.079   8.641  0.4359 -0.8568 -2.2065
   18MOL0     H 2393   0.677   5.915   8.672 -0.1789  2.5009 -2.1151
   18MOL0     H 2394   1.218   5.930   8.386 -3.4438 -0.3597  2.2833
   18MOL0     H 2395   1.301   5.946   8.160 -0.6967 -1.5583 -3.5194
   18MOL0     H 2396   0.993   6.095   7.866 -0.4584 -1.6144  2.9774
   18MOL0     H 2397   1.141   6.184   7.857  3.3529 -2.4755  0.8703
   18MOL0     H 2398   1.204   5.948   7.709  0.3239 -0.0637  2.2820
   18MOL0     H 2399   1.027   5.966   7.688 -0.8325  2.6594 -2.9012
   18MOL0     H 2400   1.193   6.213   7.615  0.4031 -1.1735  1.3844
   18MOL0     H 2401   1.023   6.178   7.596  1.1468  2.3561 -4.0601
   18MOL0     H 2402   1.079   5.989   7.450  1.7560 -2.2969  1.6410
   18MOL0     H 2403   1.120   6.142   7.389 -0.7760  0.7340  1.2099
   18MOL0     H 2404   1.306   5.932   7.501  1.3252  1.8658  3.1528
   18MOL0     H 2405   1.370   6.089   7.489  1.0851 -0.7381  0.2186
   18MOL0     H 2406   1.315   6.100   7.243  1.6831 -1.5015 -0.6834
   18MOL0     H 2407   1.430   5.980   7.289  0.0307  1.4138  1.8546
   18MOL0     H 2408   1.139   5.945   7.224  1.1456  0.9481  1.0605
   18MOL0     H 2409   1.240   5.810   7.296 -0.6901  1.2329 -0.1041
   18MOL0     H 2410   1.308   5.948   7.029  0.0033  1.6092  1.8099
   18MOL0     H 2411   1.196   5.814   7.024  0.8979 -0.7773 -0.6923
   18MOL0     H 2412   0.897   6.046   8.029 -0.4591 -0.4383  0.5576
   18MOL0     H 2413   0.831   6.042   8.251 -0.0405  0.2280  0.3073
   18MOL0     H 2414   1.124   6.104   8.659 -1.7425  0.4184 -1.7194
   18MOL0     H 2415   1.143   6.184   8.897  1.2450 -2.3165 -1.0759
   18MOL0     H 2416   1.069   6.648   8.964 -3.2102  1.5247 -2.4512
   18MOL0     H 2417   1.191   6.660   9.183  0.3045 -0.7298 -1.2723
   18MOL0     H 2418   1.081   6.807   9.765 -3.2467 -1.7047 -4.5353
   18MOL0     H 2419   1.156   6.729   9.995 -2.2504  2.7615 -2.6525
   18MOL0     H 2420   1.151   6.585  10.202 -1.3235  0.4980 -0.5557
   18MOL0     H 2421   1.015   6.522  10.131 -0.0755 -0.4168 -0.7307
   18MOL0     H 2422   1.031   6.398  10.328  1.4192  2.1880  1.7451
   18MOL0     H 2423   1.204   6.365  10.308  1.0377  0.4266 -0.6155
   18MOL0     H 2424   1.179   6.200  10.177  1.7802  2.3247  3.2039
   18MOL0     H 2425   1.027   6.253  10.099  2.4759  1.8259 -1.0583
   18MOL0     H 2426   1.054   6.159  10.393  0.4631  0.4513 -0.8801
   18MOL0     H 2427   1.005   6.048  10.264  0.3328 -1.1660  2.8088
   18MOL0     H 2428   0.654   6.281  10.328  0.3496  1.8930 -1.8298
   18MOL0     H 2429   1.214   6.340   9.826  0.0428 -0.1279 -3.1780
   18MOL0     H 2430   1.146   6.411   9.602  2.6679 -2.6501  1.9536
   19MOL0     O 2431   2.630   9.518   1.440  0.8324  0.3100  1.0343
   19MOL0     C 2432   2.652   9.522   1.556  0.2678 -0.8798 -0.5989
   19MOL0     O 2433   2.741   9.600   1.619 -0.2926  0.3458 -0.1679
   19MOL0     C 2434   2.827   9.677   1.536  0.6649  0.3162 -0.4982
   19MOL0     C 2435   2.925   9.615   1.468 -0.5386  0.2829  0.0434
   19MOL0     C 2436   3.021   9.681   1.389  0.0040  0.1942  0.1708
   19MOL0     C 2437   3.012   9.817   1.380 -0.1640 -0.0283 -0.4511
   19MOL0     O 2438   3.116   9.879   1.310 -0.1895 -0.7495  0.6024
   19MOL0     C 2439   3.112  10.024   1.301  0.1284  0.0717 -0.3906
   19MOL0     C 2440   3.219  10.077   1.211  0.5545 -0.2450  0.1884
   19MOL0     C 2441   3.235  10.221   1.255  0.1756 -0.1515 -0.6211
   19MOL0     C 2442   3.326  10.295   1.162  1.0899 -0.1992  0.0699
   19MOL0     C 2443   3.312  10.441   1.191 -0.3235 -0.3216 -0.1819
   19MOL0     C 2444   3.335  10.515   1.062 -0.1031  0.1650  0.8415
   19MOL0     C 2445   3.298  10.666   1.064  0.5321 -0.9623 -0.3643
   19MOL0     C 2446   3.372  10.743   1.172 -0.2107  0.2276 -0.1574
   19MOL0     N 2447   3.328  10.884   1.178 -0.5810 -0.3503 -0.7495
   19MOL0     C 2448   3.315  10.974   1.074 -0.1100 -0.3370 -0.5739
   19MOL0     C 2449   3.283  11.090   1.129  0.2609  0.7077  0.9410
   19MOL0     C 2450   3.279  11.218   1.050  0.9371  0.5568 -0.1003
   19MOL0     C 2451   3.418  11.266   1.019 -0.1651 -0.9545 -0.1867
   19MOL0     C 2452   3.502  11.299   1.149  0.0996 -0.1184 -0.5237
   19MOL0     C 2453   3.418  11.386   1.244  0.1196 -0.7794  0.6808
   19MOL0     O 2454   3.385  11.512   1.184  0.5644  0.1173 -0.2994
   19MOL0     C 2455   3.401  11.624   1.261 -0.0094 -1.3444 -0.1356
   19MOL0     C 2456   3.430  11.734   1.170 -0.5876 -0.2925  0.4286
   19MOL0     C 2457   3.405  11.868   1.213  0.2489 -0.0108  0.3806
   19MOL0     C 2458   3.404  11.982   1.107 -0.4638 -0.1019 -0.5778
   19MOL0     C 2459   3.391  11.887   1.350  0.3557  0.6126  0.2032
   19MOL0     C 2460   3.407  12.021   1.415  0.4762 -0.3987 -0.0293
   19MOL0     O 2461   3.527  12.087   1.399 -0.3714 -0.8908 -0.6732
   19MOL0     C 2462   3.518  12.213   1.450 -0.5588  0.5910 -0.0744
   19MOL0     C 2463   3.611  12.240   1.546 -0.4354  0.3670  0.8622
   19MOL0     C 2464   3.635  12.364   1.609  0.0129  0.1524  0.0248
   19MOL0     C 2465   3.548  12.470   1.575  0.4574 -0.2855 -0.0288
   19MOL0     O 2466   3.548  12.595   1.626 -0.4831  0.4581 -0.0412
   19MOL0     C 2467   3.661  12.637   1.702 -0.1850 -0.2126  0.1750
   19MOL0     C 2468   3.667  12.796   1.718 -0.3009 -1.1468  1.0041
   19MOL0     C 2469   3.568  12.838   1.826 -0.2526 -0.2175 -0.5477
   19MOL0     C 2470   3.556  12.988   1.853 -0.4915  0.7285  0.0519
   19MOL0     C 2471   3.695  13.041   1.907  0.3600  0.2088 -0.7349
   19MOL0     C 2472   3.680  13.167   1.979  0.6840 -0.6543  0.1615
   19MOL0     C 2473   3.808  13.235   2.030 -0.8871  0.0471 -0.0496
   19MOL0     C 2474   3.794  13.377   2.088  0.1087  0.3171  0.6526
   19MOL0    Cl 2475   3.684  13.390   2.221 -0.2125 -0.4502  0.0889
   19MOL0     C 2476   3.454  12.442   1.478 -0.1909  0.2004 -0.5892
   19MOL0     C 2477   3.433  12.318   1.413 -0.2583  0.2006  0.9849
   19MOL0     O 2478   3.320  12.049   1.494 -0.3002 -0.4536 -0.0460
   19MOL0     C 2479   3.368  11.777   1.433 -0.3764 -1.3216 -0.7499
   19MOL0     C 2480   3.365  11.647   1.391 -0.3191 -0.7221 -0.5244
   19MOL0     N 2481   3.277  11.074   1.269  0.2752  0.5517 -0.4992
   19MOL0     N 2482   3.309  10.951   1.293 -0.9017  0.4740  0.3064
   19MOL0     C 2483   2.908   9.884   1.455 -0.3272 -0.2789  0.9825
   19MOL0     C 2484   2.822   9.819   1.537  0.2459 -0.1388  0.3128
   19MOL0     C 2485   2.568   9.424   1.644 -0.6935  0.2351  0.0526
   19MOL0     C 2486   2.570   9.428   1.785 -0.2498 -0.1051  0.8135
   19MOL0     C 2487   2.526   9.313   1.854  0.1792 -0.2360 -0.3908
   19MOL0     C 2488   2.432   9.221   1.796  0.3784  0.0163 -0.0188
   19MOL0     O 2489   2.384   9.128   1.882  0.2846 -0.3147  0.1741
   19MOL0     C 2490   2.286   9.026   1.838 -0.3892 -0.3050  0.0745
   19MOL0     C 2491   2.146   9.060   1.889 -0.7868 -0.1705  0.4558
   19MOL0     C 2492   2.040   8.970   1.831 -0.4555 -0.0543  0.5063
   19MOL0     C 2493   2.081   8.821   1.809  0.1616 -0.2800 -0.1671
   19MOL0     C 2494   2.139   8.749   1.922  0.0512  0.1639 -1.2410
   19MOL0     C 2495   2.203   8.685   2.004  0.6417 -0.6539 -0.4237
   19MOL0     C 2496   2.418   9.223   1.654 -0.2265 -0.2235 -0.8091
   19MOL0     C 2497   2.482   9.329   1.579  1.3994  0.8647  0.3715
   19MOL0     H 2498   2.931   9.507   1.478 -0.9633  0.4527  3.3959
   19MOL0     H 2499   3.095   9.627   1.330  0.5203  0.6735  0.3709
   19MOL0     H 2500   3.021  10.055   1.249 -0.7340 -0.8381  0.5463
   19MOL0     H 2501   3.119  10.057   1.405 -0.9314 -0.4160 -0.1565
   19MOL0     H 2502   3.314  10.024   1.216  0.2301 -0.8092  0.5486
   19MOL0     H 2503   3.173  10.077   1.112 -2.3681  1.0502  1.4183
   19MOL0     H 2504   3.132  10.257   1.249  0.6243  1.7604  1.8023
   19MOL0     H 2505   3.270  10.229   1.358 -1.2797 -3.4274  0.2764
   19MOL0     H 2506   3.425  10.252   1.174 -0.3379 -3.7893  0.2000
   19MOL0     H 2507   3.280  10.267   1.066 -1.5048 -1.3665  1.5336
   19MOL0     H 2508   3.213  10.467   1.230 -0.6231 -1.3766 -0.2014
   19MOL0     H 2509   3.383  10.467   1.270 -0.9311  2.0595 -0.3338
   19MOL0     H 2510   3.438  10.510   1.025 -0.1990  2.4018  0.0899
   19MOL0     H 2511   3.269  10.465   0.990 -1.3906  2.7246  0.0938
   19MOL0     H 2512   3.313  10.708   0.964 -1.5032  4.5600  1.3107
   19MOL0     H 2513   3.191  10.681   1.079  0.3689 -1.2791 -1.1269
   19MOL0     H 2514   3.482  10.747   1.173  0.0154 -3.0457  1.4034
   19MOL0     H 2515   3.338  10.702   1.267 -2.1317  0.0096 -0.8980
   19MOL0     H 2516   3.339  10.932   0.977 -0.1986 -0.9014 -0.3564
   19MOL0     H 2517   3.212  11.201   0.964 -3.2326 -0.3001  3.0007
   19MOL0     H 2518   3.227  11.300   1.100  0.9893  1.6980 -1.8011
   19MOL0     H 2519   3.423  11.362   0.967  2.1117 -0.3900  0.9293
   19MOL0     H 2520   3.471  11.191   0.959  1.1156 -1.0682  1.0171
   19MOL0     H 2521   3.592  11.356   1.125  0.4449 -0.5049 -0.1569
   19MOL0     H 2522   3.536  11.212   1.205  3.1108  1.9930  1.2144
   19MOL0     H 2523   3.475  11.397   1.337  1.4659  0.8962 -0.2711
   19MOL0     H 2524   3.324  11.339   1.273  0.1085 -3.2583 -2.8268
   19MOL0     H 2525   3.453  11.706   1.067 -0.4449 -0.7828  0.5924
   19MOL0     H 2526   3.499  12.033   1.093 -0.7172  0.6086  0.2031
   19MOL0     H 2527   3.377  11.953   1.005  2.0956 -5.3339 -0.0934
   19MOL0     H 2528   3.331  12.045   1.159  1.4329  0.9074  0.9762
   19MOL0     H 2529   3.683  12.161   1.567 -0.1934  0.9597  2.3067
   19MOL0     H 2530   3.718  12.388   1.674 -1.7666  3.7730  1.2526
   19MOL0     H 2531   3.684  12.587   1.796  1.5143  1.2024  0.5675
   19MOL0     H 2532   3.745  12.613   1.636  1.0936 -0.3408  1.7773
   19MOL0     H 2533   3.767  12.838   1.730 -0.3833 -0.3549 -0.7485
   19MOL0     H 2534   3.630  12.838   1.624  1.8119  1.1072  1.0969
   19MOL0     H 2535   3.594  12.780   1.915  0.9286  1.0890 -0.0133
   19MOL0     H 2536   3.468  12.811   1.791 -1.0589  1.4154  0.3952
   19MOL0     H 2537   3.544  13.038   1.757  2.7539  3.5206  0.8790
   19MOL0     H 2538   3.461  13.000   1.906 -1.4596 -0.7389 -1.2955
   19MOL0     H 2539   3.759  13.051   1.819  3.8349 -3.0131  1.1202
   19MOL0     H 2540   3.750  12.968   1.968 -0.6978 -1.9146 -2.1933
   19MOL0     H 2541   3.638  13.240   1.909  1.0534 -0.5746  0.0174
   19MOL0     H 2542   3.610  13.149   2.061 -0.3438  0.1282 -0.5126
   19MOL0     H 2543   3.883  13.240   1.950  0.6598 -0.1718  1.3278
   19MOL0     H 2544   3.858  13.169   2.101 -1.3515  0.0252  0.2564
   19MOL0     H 2545   3.763  13.441   2.005  0.5844  1.0186  1.0012
   19MOL0     H 2546   3.889  13.423   2.120  2.2681 -0.9766 -3.2812
   19MOL0     H 2547   3.380  12.511   1.438  0.4480  1.1553 -0.1609
   19MOL0     H 2548   3.365  12.297   1.331  1.4932 -4.1258  0.3365
   19MOL0     H 2549   3.351  11.791   1.539  0.0063  1.0397 -0.9474
   19MOL0     H 2550   3.327  11.563   1.449 -1.7434 -1.0902 -1.9199
   19MOL0     H 2551   2.902   9.991   1.437  3.9114  0.7264  4.1148
   19MOL0     H 2552   2.740   9.873   1.584  0.3976  1.6908 -1.4231
   19MOL0     H 2553   2.639   9.499   1.830 -1.2536  1.1461  0.4283
   19MOL0     H 2554   2.567   9.297   1.953 -1.8926 -0.7155  0.4573
   19MOL0     H 2555   2.283   9.012   1.729  3.1674  0.0607 -0.2108
   19MOL0     H 2556   2.334   8.934   1.873  2.4077 -0.6889 -4.0686
   19MOL0     H 2557   2.116   9.163   1.871 -1.7472 -0.9787 -3.7302
   19MOL0     H 2558   2.148   9.042   1.997  0.5260 -2.0166  0.1689
   19MOL0     H 2559   2.009   9.000   1.730 -0.1763 -1.6296 -0.0771
   19MOL0     H 2560   1.952   8.963   1.896 -1.1796 -1.1080 -0.5319
   19MOL0     H 2561   2.145   8.820   1.721 -2.0062 -0.8932 -1.8392
   19MOL0     H 2562   1.990   8.767   1.781 -0.5072  0.5952  0.2697
   19MOL0     H 2563   2.241   8.622   2.082  2.1748  0.8129  0.0749
   19MOL0     H 2564   2.341   9.167   1.601 -2.2181 -0.1275  1.7869
   19MOL0     H 2565   2.446   9.323   1.477  2.3260  0.3999  0.0589
   20MOL0     O 2566   5.277  10.898   9.586 -0.6604 -0.8774  0.1475
   20MOL0     C 2567   5.219  10.957   9.500  0.0616 -0.2447 -0.3290
   20MOL0     O 2568   5.148  10.891   9.403 -0.1584  0.1025 -0.1523
   20MOL0     C 2569   5.114  10.761   9.421 -0.0507  0.7037 -0.2497
   20MOL0     C 2570   5.205  10.651   9.421 -0.2978 -0.7907 -0.4284
   20MOL0     C 2571   5.175  10.522   9.452  0.3997 -0.9861 -0.2054
   20MOL0     C 2572   5.044  10.492   9.482  0.1622 -0.8206  0.1189
   20MOL0     O 2573   4.994  10.371   9.530 -0.0245  0.6592  0.2834
   20MOL0     C 2574   5.077  10.256   9.550  0.7302 -0.3949  0.5473
   20MOL0     C 2575   4.992  10.154   9.629 -1.0656 -0.1524  0.1399
   20MOL0     C 2576   5.073  10.027   9.665  0.0259  0.4408 -0.4319
   20MOL0     C 2577   4.972   9.915   9.705  0.4101  0.6033  0.1186
   20MOL0     C 2578   4.868   9.945   9.809  0.1606 -0.1683  0.8146
   20MOL0     C 2579   4.779   9.837   9.870 -0.5955  0.5457  0.1053
   20MOL0     C 2580   4.693   9.757   9.771 -0.3961 -0.9513 -0.4217
   20MOL0     C 2581   4.606   9.860   9.686 -0.0202  0.8755 -0.2365
   20MOL0     N 2582   4.508   9.780   9.599 -0.2096 -1.0276  0.6516
   20MOL0     C 2583   4.377   9.767   9.629  0.5794 -0.1883  0.0075
   20MOL0     C 2584   4.322   9.673   9.555  0.4790  0.5466 -0.4291
   20MOL0     C 2585   4.181   9.632   9.545  0.1200  0.0094 -0.1283
   20MOL0     C 2586   4.097   9.667   9.671  0.0428  0.1555 -0.2643
   20MOL0     C 2587   3.950   9.617   9.662 -0.8608 -0.4945 -0.1945
   20MOL0     C 2588   3.866   9.667   9.789 -0.5803 -0.5196 -0.6291
   20MOL0     O 2589   3.924   9.622   9.914 -0.7119  0.4834  0.2495
   20MOL0     C 2590   3.878   9.672  10.035  0.1715 -0.5686 -0.6972
   20MOL0     C 2591   3.968   9.681  10.139  0.5360  1.0684 -0.3115
   20MOL0     C 2592   3.930   9.727  10.269  0.1624  0.4832 -0.7416
   20MOL0     C 2593   4.041   9.719  10.362  0.7072 -0.3264  0.4120
   20MOL0     C 2594   3.800   9.771  10.298  0.5413 -0.3528  0.0624
   20MOL0     C 2595   3.753   9.810  10.434 -0.5096 -0.1157  0.2320
   20MOL0     O 2596   3.625   9.855  10.436 -0.3315  0.7707 -0.2048
   20MOL0     C 2597   3.585   9.881  10.560 -0.8504 -0.0141  0.7204
   20MOL0     C 2598   3.514   9.792  10.637  0.0436  1.0189 -0.3290
   20MOL0     C 2599   3.446   9.839  10.749 -0.0082  0.2463 -0.1982
   20MOL0     C 2600   3.451   9.968  10.798  0.3941  0.3970 -0.0398
   20MOL0     O 2601   3.375   9.988  10.910  0.4724 -0.4259  0.9999
   20MOL0     C 2602   3.409  10.103  10.994  0.5403  0.5626 -0.0942
   20MOL0     C 2603   3.327  10.101  11.123 -0.3388  0.2544  0.6050
   20MOL0     C 2604   3.175  10.074  11.099 -0.0413 -0.1215  0.2042
   20MOL0     C 2605   3.093  10.106  11.218 -0.5453  0.2615  0.9272
   20MOL0     C 2606   2.946  10.110  11.175  0.0040  0.4174  0.1499
   20MOL0     C 2607   2.864  10.132  11.299  0.2511  0.3836 -0.2653
   20MOL0     C 2608   2.806   9.999  11.358 -0.1474  0.0976  0.6787
   20MOL0     C 2609   2.723  10.029  11.485 -0.1505 -0.2245  0.0486
   20MOL0    Cl 2610   2.647   9.885  11.536 -0.3488 -0.0605  0.0351
   20MOL0     C 2611   3.537  10.062  10.727  0.3640  0.8955  0.6633
   20MOL0     C 2612   3.604  10.014  10.608 -0.3992  0.4462  0.1158
   20MOL0     O 2613   3.827   9.803  10.530 -0.1691 -0.5099  0.5896
   20MOL0     C 2614   3.717   9.782  10.182  1.1108  0.2801  0.8737
   20MOL0     C 2615   3.749   9.736  10.058 -0.7038 -0.1942 -0.3804
   20MOL0     N 2616   4.420   9.616   9.484  0.6701 -0.3107  0.4464
   20MOL0     N 2617   4.532   9.684   9.499  0.2983 -0.2077  0.2810
   20MOL0     C 2618   4.948  10.592   9.486 -0.9110 -0.7260  0.1526
   20MOL0     C 2619   4.988  10.724   9.444  0.2223  0.0311  0.5485
   20MOL0     C 2620   5.219  11.104   9.491 -0.1734 -0.1982  0.2065
   20MOL0     C 2621   5.343  11.169   9.483 -0.4473 -0.6961  0.0741
   20MOL0     C 2622   5.340  11.305   9.483  0.8012  0.4511 -0.9045
   20MOL0     C 2623   5.233  11.388   9.485  0.2764  0.4211 -0.8800
   20MOL0     O 2624   5.246  11.522   9.488 -0.0583 -0.1560 -0.6358
   20MOL0     C 2625   5.134  11.612   9.501  0.2303 -0.7122 -0.0911
   20MOL0     C 2626   5.071  11.590   9.644  0.2099  0.5940  0.8422
   20MOL0     C 2627   5.146  11.642   9.760  0.4573 -0.0818  0.5635
   20MOL0     C 2628   5.092  11.612   9.903  0.6331  0.6735  0.4403
   20MOL0     C 2629   5.162  11.708   9.992  0.8371  0.2084 -0.4346
   20MOL0     C 2630   5.217  11.777  10.069  0.0348 -0.7602  0.9774
   20MOL0     C 2631   5.107  11.317   9.482  0.0888 -0.2274  0.4495
   20MOL0     C 2632   5.100  11.180   9.484  0.6910  1.0989  0.3555
   20MOL0     H 2633   5.302  10.681   9.383 -0.5610 -1.6800 -1.8811
   20MOL0     H 2634   5.248  10.442   9.462 -0.8745 -1.9912  1.9409
   20MOL0     H 2635   5.125  10.230   9.455 -0.8835  2.0084 -1.0241
   20MOL0     H 2636   5.163  10.280   9.612  0.3592  0.2400  0.8268
   20MOL0     H 2637   4.947  10.192   9.722 -0.1212  2.4556 -0.3842
   20MOL0     H 2638   4.907  10.126   9.565 -3.0709 -1.4325  3.1195
   20MOL0     H 2639   5.136   9.979   9.589  1.1873  0.6888  0.3420
   20MOL0     H 2640   5.136  10.040   9.754  0.2945 -0.5241 -0.4708
   20MOL0     H 2641   4.926   9.893   9.608 -2.4792  0.7682  1.3430
   20MOL0     H 2642   5.025   9.828   9.745  0.6077 -0.4072 -2.2260
   20MOL0     H 2643   4.918   9.998   9.891  0.9525 -3.0229  2.3353
   20MOL0     H 2644   4.796  10.020   9.775 -1.1326 -1.7514 -0.0943
   20MOL0     H 2645   4.844   9.769   9.924  0.6313  0.1518 -1.7699
   20MOL0     H 2646   4.714   9.884   9.945 -1.2950 -0.4577  0.1486
   20MOL0     H 2647   4.758   9.705   9.699  1.0665 -0.7599  0.7182
   20MOL0     H 2648   4.627   9.693   9.831  0.3403  0.3236  1.8555
   20MOL0     H 2649   4.683   9.893   9.616 -0.3321  2.9009  0.3185
   20MOL0     H 2650   4.566   9.947   9.738  0.3644  1.3569 -0.7400
   20MOL0     H 2651   4.317   9.830   9.693  3.2100 -0.2529  2.7702
   20MOL0     H 2652   4.144   9.674   9.451  1.9059 -0.6794 -1.1973
   20MOL0     H 2653   4.178   9.523   9.537  0.3761 -0.2802  2.6490
   20MOL0     H 2654   4.092   9.776   9.679  0.2414  0.2413 -1.2321
   20MOL0     H 2655   4.146   9.632   9.762 -1.4271  0.4617  0.6877
   20MOL0     H 2656   3.942   9.509   9.646  1.0716 -0.4154 -2.1544
   20MOL0     H 2657   3.903   9.665   9.575 -3.3573  0.3218  1.4746
   20MOL0     H 2658   3.766   9.624   9.774 -1.6222  1.6642 -0.3799
   20MOL0     H 2659   3.856   9.776   9.793  0.2940 -0.4548 -0.0622
   20MOL0     H 2660   4.063   9.629  10.146  0.3999  1.0848  2.5686
   20MOL0     H 2661   4.134   9.712  10.305  1.0102 -1.9257  1.0631
   20MOL0     H 2662   4.043   9.816  10.411 -2.2590 -1.2845  2.7295
   20MOL0     H 2663   4.038   9.642  10.439 -4.2684 -0.4276  0.4087
   20MOL0     H 2664   3.494   9.690  10.605 -2.0373 -0.0670  3.7329
   20MOL0     H 2665   3.386   9.769  10.806  1.9866 -0.0437  1.6856
   20MOL0     H 2666   3.516  10.102  11.018  0.1636  0.2269  1.7193
   20MOL0     H 2667   3.398  10.198  10.940  1.6274  0.2795 -0.8476
   20MOL0     H 2668   3.373  10.030  11.193  0.4908  0.1909  0.0091
   20MOL0     H 2669   3.351  10.202  11.156  3.2902 -0.5591  0.9429
   20MOL0     H 2670   3.167   9.968  11.076  3.6645 -0.4594 -0.0941
   20MOL0     H 2671   3.152  10.142  11.017  1.4941  2.8140  2.0356
   20MOL0     H 2672   3.111  10.025  11.290 -1.8222 -0.4684  0.4699
   20MOL0     H 2673   3.122  10.201  11.262  1.8239  0.6128 -1.2147
   20MOL0     H 2674   2.919  10.014  11.129 -0.4032  1.0579 -0.9696
   20MOL0     H 2675   2.917  10.180  11.096 -0.0355 -2.1070 -2.2552
   20MOL0     H 2676   2.922  10.191  11.371  2.3035 -1.5487 -0.2146
   20MOL0     H 2677   2.772  10.186  11.278 -1.1179 -0.8077  2.2858
   20MOL0     H 2678   2.886   9.929  11.384 -0.9200 -1.7473 -1.5452
   20MOL0     H 2679   2.753   9.942  11.280  2.1908  1.0249 -1.7599
   20MOL0     H 2680   2.649  10.106  11.462  0.6711  0.6138  0.1509
   20MOL0     H 2681   2.790  10.070  11.561 -2.5481  0.0145  2.1359
   20MOL0     H 2682   3.538  10.166  10.759  1.6380  0.4347  2.2576
   20MOL0     H 2683   3.663  10.085  10.551  0.7269 -0.5205  0.0256
   20MOL0     H 2684   3.618   9.824  10.192  1.5849  1.5674  0.3660
   20MOL0     H 2685   3.674   9.738   9.979  0.0609  0.2667 -1.1097
   20MOL0     H 2686   4.850  10.559   9.520 -1.5875  0.6962 -0.3109
   20MOL0     H 2687   4.893  10.775   9.432 -1.0963 -2.4951 -0.4432
   20MOL0     H 2688   5.433  11.109   9.481  1.0104  1.2103  2.9579
   20MOL0     H 2689   5.436  11.355   9.487  1.7297 -1.0741 -2.7858
   20MOL0     H 2690   5.163  11.714   9.475  0.0774 -0.9139 -1.1000
   20MOL0     H 2691   5.064  11.597   9.419  0.1726 -0.2590 -0.1274
   20MOL0     H 2692   5.060  11.483   9.664  1.5665 -0.4607 -3.0728
   20MOL0     H 2693   4.975  11.643   9.649  0.5891  1.3070  0.7502
   20MOL0     H 2694   5.163  11.749   9.750  0.5543 -0.2190 -0.9034
   20MOL0     H 2695   5.243  11.590   9.754  0.1583 -0.6382  0.4914
   20MOL0     H 2696   5.104  11.507   9.929 -1.6920  0.5271  1.0744
   20MOL0     H 2697   4.984  11.621   9.914  0.6106 -1.3805  2.4929
   20MOL0     H 2698   5.240  11.854  10.140 -2.0895  2.3431 -1.4540
   20MOL0     H 2699   5.021  11.383   9.473  0.2920  0.1548  1.1666
   20MOL0     H 2700   5.008  11.127   9.504  1.7504  0.2842  3.7872
   21MOL0     O 2701   9.219   8.853   4.718 -0.2747 -0.3466  0.1563
   21MOL0     C 2702   9.217   8.927   4.618 -0.6906 -0.2475  0.0662
   21MOL0     O 2703   9.335   8.986   4.555  0.0793  0.2396  0.5897
   21MOL0     C 2704   9.455   8.960   4.614  0.6152  0.5579  0.1696
   21MOL0     C 2705   9.494   9.058   4.706 -0.2112  0.0701 -0.4615
   21MOL0     C 2706   9.624   9.055   4.759 -0.5581 -0.1859 -0.2821
   21MOL0     C 2707   9.705   8.947   4.742  0.3486  0.0967  0.0163
   21MOL0     O 2708   9.829   8.930   4.807  0.8276 -0.3234  0.1101
   21MOL0     C 2709   9.893   8.804   4.813  0.4350 -0.3629 -0.4237
   21MOL0     C 2710  10.008   8.818   4.899  0.3120  0.6640 -1.1165
   21MOL0     C 2711  10.133   8.863   4.833 -0.3937  0.1248 -0.0796
   21MOL0     C 2712  10.134   9.014   4.791  0.5393  0.0393 -0.8580
   21MOL0     C 2713  10.257   9.037   4.699 -0.0435  0.1560  0.2606
   21MOL0     C 2714  10.390   9.018   4.769  0.3897  0.0502  0.0756
   21MOL0     C 2715  10.403   9.100   4.893  0.0942  0.1681 -0.2082
   21MOL0     C 2716  10.417   9.248   4.850  0.2121  0.4866 -0.6634
   21MOL0     N 2717  10.416   9.326   4.977 -0.7436 -0.4564 -0.7878
   21MOL0     C 2718  10.506   9.427   5.005 -0.3923  0.5477 -1.0149
   21MOL0     C 2719  10.463   9.483   5.119 -0.3862  0.3036 -0.8567
   21MOL0     C 2720  10.515   9.608   5.182 -0.4331 -0.7863  0.5996
   21MOL0     C 2721  10.538   9.587   5.335 -0.2159 -1.2674  0.6190
   21MOL0     C 2722  10.596   9.708   5.389 -0.1163 -1.0540 -0.1987
   21MOL0     C 2723  10.626   9.705   5.542 -0.6488 -0.2878 -0.0603
   21MOL0     O 2724  10.759   9.671   5.579 -0.2023  0.2397 -0.6207
   21MOL0     C 2725  10.859   9.757   5.565  0.2637  0.3511  0.6912
   21MOL0     C 2726  10.988   9.703   5.586 -0.1873  0.3524  0.1477
   21MOL0     C 2727  11.106   9.787   5.591 -0.1195 -0.5078 -1.0619
   21MOL0     C 2728  11.234   9.724   5.630 -0.2176  0.2900 -0.3065
   21MOL0     C 2729  11.087   9.927   5.581  1.0367  0.4247  0.5840
   21MOL0     C 2730  11.200  10.028   5.591 -0.0597 -0.8858 -0.5222
   21MOL0     O 2731  11.319  10.000   5.540 -0.1449 -0.8699  0.2739
   21MOL0     C 2732  11.417  10.089   5.583 -0.9887  0.4354 -0.4327
   21MOL0     C 2733  11.471  10.055   5.706 -0.6539 -0.2757 -1.0192
   21MOL0     C 2734  11.566  10.130   5.765 -0.0627 -0.5046  0.4933
   21MOL0     C 2735  11.628  10.242   5.694  0.0853  0.5859  0.1802
   21MOL0     O 2736  11.715  10.316   5.766 -0.3816 -0.7159 -0.4663
   21MOL0     C 2737  11.686  10.461   5.757 -0.9847  0.6784 -0.3032
   21MOL0     C 2738  11.722  10.551   5.878  0.3053  0.3013 -0.1638
   21MOL0     C 2739  11.877  10.557   5.895 -0.0294  0.3717  0.7798
   21MOL0     C 2740  11.905  10.643   6.020  0.8194  0.6714 -0.3463
   21MOL0     C 2741  11.890  10.794   5.995 -0.1216 -1.6207  0.2851
   21MOL0     C 2742  12.019  10.866   6.042 -0.1686 -0.5022 -0.3117
   21MOL0     C 2743  11.992  11.020   6.000 -0.0944  0.4089 -0.4047
   21MOL0     C 2744  12.122  11.103   6.010  0.0211 -1.0139  0.1063
   21MOL0    Cl 2745  12.080  11.271   5.963  0.1966 -0.2967 -0.4019
   21MOL0     C 2746  11.571  10.272   5.569 -0.0631  0.8782  0.6195
   21MOL0     C 2747  11.473  10.194   5.515  0.2778  0.2165  0.5913
   21MOL0     O 2748  11.167  10.136   5.637  0.5684  0.5464 -0.1132
   21MOL0     C 2749  10.960   9.977   5.549  0.3161  0.5217 -0.0235
   21MOL0     C 2750  10.845   9.895   5.540  0.1294 -0.3712 -1.4161
   21MOL0     N 2751  10.353   9.416   5.156  0.7311  0.7185 -0.6541
   21MOL0     N 2752  10.317   9.319   5.073 -0.1599 -0.1364  0.0307
   21MOL0     C 2753   9.664   8.843   4.657 -0.7381 -0.7559  0.6618
   21MOL0     C 2754   9.540   8.849   4.590  1.5365 -0.1233 -0.0631
   21MOL0     C 2755   9.089   8.965   4.561  0.6351 -0.2842 -0.1273
   21MOL0     C 2756   9.085   9.032   4.433 -0.4646  0.1552  0.2074
   21MOL0     C 2757   8.965   9.052   4.364  0.4989  0.1801 -0.2462
   21MOL0     C 2758   8.846   8.998   4.419 -0.1984  0.6453 -0.2435
   21MOL0     O 2759   8.732   9.021   4.349  0.5224 -0.1909  0.7570
   21MOL0     C 2760   8.709   8.944   4.229 -0.1260 -0.2555  0.5392
   21MOL0     C 2761   8.699   8.791   4.254 -0.1329  0.1410  0.6469
   21MOL0     C 2762   8.707   8.702   4.129  0.1166  1.0090  0.0523
   21MOL0     C 2763   8.593   8.730   4.028 -0.9154 -1.0565  0.2016
   21MOL0     C 2764   8.585   8.628   3.921  0.2963  0.1400  0.2247
   21MOL0     C 2765   8.575   8.547   3.827  0.7078 -0.4371 -0.0576
   21MOL0     C 2766   8.852   8.942   4.545  0.0171 -0.4624  0.9725
   21MOL0     C 2767   8.971   8.925   4.611  0.4072 -0.1910 -0.0242
   21MOL0     H 2768   9.422   9.136   4.727 -0.3299 -0.1412 -0.0570
   21MOL0     H 2769   9.652   9.133   4.829 -0.5288 -1.1884  0.8552
   21MOL0     H 2770   9.819   8.729   4.844  2.3372 -1.1465  2.7227
   21MOL0     H 2771   9.928   8.775   4.714  0.7535 -0.6094 -0.2417
   21MOL0     H 2772   9.982   8.882   4.984  3.7242 -0.7260  1.2095
   21MOL0     H 2773  10.023   8.721   4.948 -1.2150  1.0043  0.1170
   21MOL0     H 2774  10.221   8.833   4.892  2.2072 -2.7574 -4.7033
   21MOL0     H 2775  10.155   8.803   4.744  2.2794  2.1309 -0.9206
   21MOL0     H 2776  10.045   9.036   4.731 -1.3758  0.4180  1.9565
   21MOL0     H 2777  10.122   9.089   4.870  1.2045  0.5021 -1.1857
   21MOL0     H 2778  10.254   8.980   4.606 -3.1669 -2.0919  1.5516
   21MOL0     H 2779  10.250   9.141   4.666 -2.5380  0.2644  0.9345
   21MOL0     H 2780  10.414   8.912   4.778  0.5521  0.1152  0.4481
   21MOL0     H 2781  10.467   9.064   4.707  0.9937  0.6594  1.2394
   21MOL0     H 2782  10.321   9.079   4.963 -1.8413  4.2338 -0.9187
   21MOL0     H 2783  10.498   9.072   4.937 -1.4366 -1.7173  2.1423
   21MOL0     H 2784  10.323   9.279   4.804 -0.7063  1.9540  1.9502
   21MOL0     H 2785  10.509   9.264   4.792  1.2275  1.4850  1.1131
   21MOL0     H 2786  10.594   9.461   4.952 -0.1974 -0.6857 -1.5132
   21MOL0     H 2787  10.605   9.646   5.132  0.8061 -2.1964  1.6259
   21MOL0     H 2788  10.436   9.682   5.175  1.6891  1.4635 -1.5108
   21MOL0     H 2789  10.615   9.510   5.340  1.6841  0.4325 -1.0155
   21MOL0     H 2790  10.441   9.559   5.378 -1.6938  1.0178 -0.9659
   21MOL0     H 2791  10.526   9.791   5.379 -1.0351 -1.5562  1.6038
   21MOL0     H 2792  10.695   9.731   5.347 -0.5278  3.1103  0.6110
   21MOL0     H 2793  10.559   9.631   5.588 -1.0022  0.5270  0.7582
   21MOL0     H 2794  10.605   9.802   5.588  0.9710 -1.2219  2.8860
   21MOL0     H 2795  10.984   9.599   5.613 -4.5146 -0.3896 -2.4156
   21MOL0     H 2796  11.236   9.617   5.653  1.5075  0.1164 -1.1091
   21MOL0     H 2797  11.313   9.752   5.559  3.6969  1.3971  3.9547
   21MOL0     H 2798  11.271   9.773   5.721 -0.6628  0.6862 -0.3342
   21MOL0     H 2799  11.437   9.970   5.764 -1.6770  2.1110  2.1696
   21MOL0     H 2800  11.596  10.104   5.866 -0.6325  2.9163  1.6975
   21MOL0     H 2801  11.747  10.502   5.676  0.6600  2.5713  1.7610
   21MOL0     H 2802  11.580  10.484   5.745 -0.9500  0.5936 -0.8011
   21MOL0     H 2803  11.662  10.642   5.878  0.3515  0.3320 -0.2011
   21MOL0     H 2804  11.682  10.494   5.963  0.9425 -0.8679 -0.6136
   21MOL0     H 2805  11.913  10.600   5.801 -0.8276  1.3983  0.9354
   21MOL0     H 2806  11.930  10.464   5.920 -0.9757 -0.0873  1.1468
   21MOL0     H 2807  11.827  10.616   6.093  0.1227  3.8727  0.2334
   21MOL0     H 2808  12.004  10.615   6.056  0.8322  0.1550 -0.7837
   21MOL0     H 2809  11.815  10.832   6.066 -0.5934 -0.4015 -0.8110
   21MOL0     H 2810  11.867  10.808   5.889 -0.1332 -2.2908  0.1991
   21MOL0     H 2811  12.008  10.857   6.150 -4.3424  1.8626 -0.3553
   21MOL0     H 2812  12.109  10.821   5.997 -1.1167 -0.4669 -2.3271
   21MOL0     H 2813  11.910  11.058   6.061 -1.1115  1.4601 -2.3360
   21MOL0     H 2814  11.964  11.046   5.898  3.9445  2.3168 -1.2560
   21MOL0     H 2815  12.208  11.064   5.956  0.6240 -0.7394  0.8532
   21MOL0     H 2816  12.157  11.102   6.114  1.1836  0.4428 -0.2473
   21MOL0     H 2817  11.600  10.360   5.512  0.5847  1.9779  2.5496
   21MOL0     H 2818  11.423  10.211   5.420 -4.2249  0.8891  2.7705
   21MOL0     H 2819  10.951  10.078   5.511  2.8858  1.2525  1.0703
   21MOL0     H 2820  10.753   9.949   5.520 -0.6396 -1.0577  0.1359
   21MOL0     H 2821   9.725   8.756   4.632 -1.3911 -0.9061 -0.4273
   21MOL0     H 2822   9.501   8.770   4.526  3.4160 -1.5994  0.5216
   21MOL0     H 2823   9.167   9.075   4.377 -0.6079  1.7266  1.1532
   21MOL0     H 2824   8.957   9.095   4.264  2.1621  3.1185  0.7437
   21MOL0     H 2825   8.617   8.985   4.186 -0.7450  1.1316  2.9930
   21MOL0     H 2826   8.783   8.962   4.150  0.4496 -0.4234  1.0374
   21MOL0     H 2827   8.613   8.772   4.320 -0.1975 -2.6698 -0.0985
   21MOL0     H 2828   8.786   8.769   4.317  0.2304 -1.1128 -0.2564
   21MOL0     H 2829   8.699   8.598   4.160  1.4269  1.4653  2.1760
   21MOL0     H 2830   8.802   8.715   4.077  0.5967  2.2331  1.1719
   21MOL0     H 2831   8.606   8.828   3.981 -2.2002 -2.0279 -2.3228
   21MOL0     H 2832   8.496   8.739   4.078 -1.5909  2.8894 -1.4304
   21MOL0     H 2833   8.573   8.475   3.748  0.3304 -0.0510 -0.4064
   21MOL0     H 2834   8.766   8.912   4.603 -0.8007  0.8161  0.4720
   21MOL0     H 2835   8.978   8.871   4.705  4.2780  2.1291  1.2611
   22MOL0     O 2836   9.228   2.583   5.832 -0.1750 -0.0234 -0.3778
   22MOL0     C 2837   9.285   2.614   5.934 -0.9290 -0.6271 -0.2833
   22MOL0     O 2838   9.399   2.554   5.991 -0.2970  0.0931 -0.5465
   22MOL0     C 2839   9.463   2.463   5.904 -0.8955 -1.5221 -0.1126
   22MOL0     C 2840   9.415   2.335   5.888  1.2564 -0.4218 -0.3688
   22MOL0     C 2841   9.480   2.239   5.809  0.7965 -0.3306 -0.5763
   22MOL0     C 2842   9.592   2.275   5.730  0.3896  0.1297 -0.2007
   22MOL0     O 2843   9.655   2.192   5.648  0.2357  0.6810  0.2498
   22MOL0     C 2844   9.607   2.051   5.625 -0.1850 -1.1789  0.3644
   22MOL0     C 2845   9.495   2.044   5.517  1.6522 -0.0395  0.7017
   22MOL0     C 2846   9.449   1.902   5.511 -0.5400  1.3374 -0.0412
   22MOL0     C 2847   9.388   1.861   5.645  0.0541 -0.1658 -0.0627
   22MOL0     C 2848   9.284   1.751   5.618 -2.0140 -0.7932 -0.4018
   22MOL0     C 2849   9.221   1.705   5.755 -0.4379 -0.4129 -0.2829
   22MOL0     C 2850   9.306   1.646   5.857  0.3275 -0.6878 -0.0652
   22MOL0     C 2851   9.239   1.576   5.972 -0.5901  0.1533  0.0609
   22MOL0     N 2852   9.141   1.658   6.054 -0.2048 -0.6037  0.6469
   22MOL0     C 2853   9.059   1.612   6.158 -0.0478 -0.2448 -0.5590
   22MOL0     C 2854   8.997   1.724   6.211 -0.8234 -0.8335 -0.7041
   22MOL0     C 2855   8.906   1.712   6.331 -0.1856  0.1727 -0.0878
   22MOL0     C 2856   8.985   1.640   6.451  0.0905  0.3279  0.4366
   22MOL0     C 2857   9.128   1.693   6.481  0.6703  0.2440  0.7128
   22MOL0     C 2858   9.124   1.815   6.571 -0.1471  0.9748  0.3057
   22MOL0     O 2859   9.115   1.935   6.493  0.2314  0.1903 -0.1995
   22MOL0     C 2860   9.086   2.045   6.574 -0.2336 -0.5730 -0.5131
   22MOL0     C 2861   9.142   2.074   6.698 -0.0693  0.3756  1.3153
   22MOL0     C 2862   9.104   2.187   6.759 -0.1486 -0.2942  0.6201
   22MOL0     C 2863   9.156   2.198   6.897  0.2628  0.9379 -1.4808
   22MOL0     C 2864   9.017   2.285   6.695 -0.0780  0.0150  0.0826
   22MOL0     C 2865   8.979   2.415   6.749 -0.3455 -0.6935 -0.6919
   22MOL0     O 2866   8.968   2.515   6.664  0.0840 -0.5439 -1.1241
   22MOL0     C 2867   9.007   2.647   6.691  0.6004  0.0623 -0.0954
   22MOL0     C 2868   8.914   2.740   6.748  0.3796  0.1589  0.3707
   22MOL0     C 2869   8.955   2.877   6.771 -0.5967 -0.3551  0.1667
   22MOL0     C 2870   9.083   2.907   6.763 -0.0446  0.3120 -0.3286
   22MOL0     O 2871   9.105   3.040   6.801  0.1066  0.2679  0.9356
   22MOL0     C 2872   9.247   3.083   6.806 -0.4065 -0.6976 -0.0601
   22MOL0     C 2873   9.324   3.022   6.930  0.3815 -0.6663 -0.0095
   22MOL0     C 2874   9.243   3.043   7.059 -0.8262 -0.3934 -0.1592
   22MOL0     C 2875   9.297   2.979   7.182 -0.8483 -0.1690 -0.8441
   22MOL0     C 2876   9.198   2.988   7.294  0.1094  0.1712 -0.6070
   22MOL0     C 2877   9.255   2.920   7.419 -1.4873 -0.3096  0.3536
   22MOL0     C 2878   9.163   2.926   7.537  0.2235  0.2576 -0.2519
   22MOL0     C 2879   9.169   3.064   7.610  0.1298 -0.4677  0.1758
   22MOL0    Cl 2880   9.076   3.083   7.764  0.1424 -0.0326  0.3011
   22MOL0     C 2881   9.175   2.814   6.711 -0.3697  0.4426  0.6150
   22MOL0     C 2882   9.131   2.682   6.677 -0.6436 -0.8090 -0.7951
   22MOL0     O 2883   8.970   2.424   6.875  0.0772  0.3551 -0.1187
   22MOL0     C 2884   8.981   2.264   6.563  0.4567 -0.7762  0.3550
   22MOL0     C 2885   9.003   2.134   6.510 -1.3033 -0.2603 -0.4024
   22MOL0     N 2886   9.055   1.831   6.147 -0.5231  0.3061 -0.2321
   22MOL0     N 2887   9.137   1.793   6.056 -0.3223  0.5188  0.5710
   22MOL0     C 2888   9.649   2.404   5.751  0.7658  0.8305  0.3703
   22MOL0     C 2889   9.589   2.493   5.840 -0.1252  0.0656 -1.8046
   22MOL0     C 2890   9.221   2.720   6.002  0.1500 -0.7104  0.5334
   22MOL0     C 2891   9.274   2.768   6.127  0.3745  0.3045 -0.5726
   22MOL0     C 2892   9.217   2.872   6.199 -1.4515 -0.4939  0.5867
   22MOL0     C 2893   9.110   2.942   6.151  0.3418  0.5983 -0.4025
   22MOL0     O 2894   9.046   3.044   6.216  0.1333  0.7040  0.3973
   22MOL0     C 2895   9.011   3.020   6.353  0.1841 -0.1334  0.2898
   22MOL0     C 2896   8.873   2.953   6.357 -0.3020  0.1090 -0.8244
   22MOL0     C 2897   8.755   3.033   6.377  0.3134  0.0625 -0.0949
   22MOL0     C 2898   8.618   2.959   6.367  0.0302 -0.6894  0.4594
   22MOL0     C 2899   8.580   2.903   6.491  0.4475  0.7476 -0.2823
   22MOL0     C 2900   8.538   2.878   6.601 -0.2593 -0.5450 -1.0933
   22MOL0     C 2901   9.056   2.901   6.031 -0.9199 -0.3442 -0.5526
   22MOL0     C 2902   9.108   2.792   5.961 -0.4634  0.6452  0.4557
   22MOL0     H 2903   9.320   2.302   5.929  1.9944 -3.8255 -1.0914
   22MOL0     H 2904   9.438   2.139   5.797  0.2956 -0.3210  0.8846
   22MOL0     H 2905   9.689   1.991   5.585 -0.8641 -1.6991 -0.2672
   22MOL0     H 2906   9.569   2.015   5.720 -0.2301  0.4449  0.9953
   22MOL0     H 2907   9.415   2.115   5.539 -0.8716 -2.0284 -1.4440
   22MOL0     H 2908   9.536   2.072   5.420  1.7187 -0.5330  0.5874
   22MOL0     H 2909   9.379   1.888   5.428 -0.3339  1.2467 -0.2028
   22MOL0     H 2910   9.532   1.833   5.493 -0.1539  0.6531  3.7159
   22MOL0     H 2911   9.466   1.833   5.716 -0.0838 -0.5270 -0.0520
   22MOL0     H 2912   9.331   1.941   5.693 -1.6854 -3.0041  3.0775
   22MOL0     H 2913   9.198   1.782   5.558 -2.3596 -1.7995 -0.4459
   22MOL0     H 2914   9.338   1.670   5.569 -1.6779 -1.5418  1.1216
   22MOL0     H 2915   9.174   1.792   5.802  0.2581 -0.0678 -0.1972
   22MOL0     H 2916   9.146   1.631   5.725 -0.8260  0.1541 -0.7396
   22MOL0     H 2917   9.380   1.579   5.812 -1.3529 -0.2362 -3.9225
   22MOL0     H 2918   9.358   1.734   5.896 -1.9803  0.2707  1.0527
   22MOL0     H 2919   9.315   1.529   6.035 -0.4003  1.1504  0.6042
   22MOL0     H 2920   9.189   1.487   5.932  0.7593  0.2099 -1.9068
   22MOL0     H 2921   9.043   1.509   6.188  2.7876  0.0884  2.7650
   22MOL0     H 2922   8.881   1.816   6.355  1.3011 -0.1109  3.4144
   22MOL0     H 2923   8.823   1.653   6.292  0.3654 -0.7596  0.1235
   22MOL0     H 2924   9.007   1.537   6.422 -2.9079 -0.1565 -0.4541
   22MOL0     H 2925   8.931   1.638   6.546 -0.1889  1.6518  0.3338
   22MOL0     H 2926   9.172   1.749   6.398 -3.7342  4.7209  0.9682
   22MOL0     H 2927   9.186   1.606   6.513 -0.1151 -0.5753 -0.0236
   22MOL0     H 2928   9.223   1.814   6.618 -0.6852  0.7189  1.4594
   22MOL0     H 2929   9.051   1.824   6.652  2.1184  1.0427  2.4378
   22MOL0     H 2930   9.206   1.999   6.744 -1.3123 -0.7817  1.2445
   22MOL0     H 2931   9.174   2.303   6.921 -0.1652  0.4386  1.4772
   22MOL0     H 2932   9.085   2.147   6.963 -0.0747  1.0840 -1.7257
   22MOL0     H 2933   9.255   2.156   6.915 -1.0248 -1.2227  1.3860
   22MOL0     H 2934   8.809   2.718   6.765  0.0683  1.1098 -0.2157
   22MOL0     H 2935   8.882   2.945   6.813 -1.8226 -1.7746  0.4378
   22MOL0     H 2936   9.314   3.054   6.725  3.0910  2.5666  1.3771
   22MOL0     H 2937   9.251   3.192   6.807  4.3472 -0.6384  1.0231
   22MOL0     H 2938   9.336   2.914   6.920  2.2004 -0.5205  0.2405
   22MOL0     H 2939   9.424   3.063   6.951  0.4136 -0.0129 -1.3155
   22MOL0     H 2940   9.147   2.997   7.035 -0.2231 -0.7005 -2.1770
   22MOL0     H 2941   9.230   3.150   7.073  2.8900 -0.1361  3.0679
   22MOL0     H 2942   9.322   2.879   7.147  3.0316  0.4528 -0.2788
   22MOL0     H 2943   9.392   3.018   7.219 -1.0861  1.0053 -1.4223
   22MOL0     H 2944   9.103   2.940   7.268  0.1856 -1.2023  1.4095
   22MOL0     H 2945   9.181   3.093   7.318  2.2596  0.3905  0.2019
   22MOL0     H 2946   9.267   2.814   7.394 -0.7366 -0.7978  2.5299
   22MOL0     H 2947   9.349   2.965   7.453 -1.0273  1.1241 -2.5334
   22MOL0     H 2948   9.203   2.861   7.616 -3.5803 -1.6643  0.3146
   22MOL0     H 2949   9.058   2.902   7.518 -0.1038  2.0398 -0.8781
   22MOL0     H 2950   9.133   3.143   7.543  0.6246 -1.1542 -0.9304
   22MOL0     H 2951   9.273   3.093   7.630 -0.1096  1.0053 -0.5937
   22MOL0     H 2952   9.279   2.844   6.703  1.3046 -4.6996 -1.6215
   22MOL0     H 2953   9.194   2.605   6.634  1.5514  0.4818 -0.0887
   22MOL0     H 2954   8.916   2.342   6.524  1.3221 -0.5675 -0.6940
   22MOL0     H 2955   8.979   2.124   6.405  1.6060  0.3997 -1.2203
   22MOL0     H 2956   9.739   2.438   5.700 -0.1407  0.1132 -1.8334
   22MOL0     H 2957   9.658   2.576   5.856  0.9820 -1.3031  1.3203
   22MOL0     H 2958   9.362   2.724   6.174 -0.9881  1.7040  3.8621
   22MOL0     H 2959   9.262   2.917   6.287  0.2905  1.3442 -1.1112
   22MOL0     H 2960   9.082   2.949   6.396 -0.2666 -0.0137  1.2722
   22MOL0     H 2961   9.019   3.112   6.413  1.4613 -0.9259  1.4152
   22MOL0     H 2962   8.868   2.880   6.438 -2.1850 -0.4643 -1.4103
   22MOL0     H 2963   8.860   2.893   6.266 -0.4854 -1.2937  0.1025
   22MOL0     H 2964   8.762   3.105   6.296 -2.7867  1.2485  0.5280
   22MOL0     H 2965   8.757   3.078   6.477  0.4476 -2.2407  1.0308
   22MOL0     H 2966   8.630   2.875   6.298  0.6079 -0.5367  0.3669
   22MOL0     H 2967   8.540   3.035   6.354  0.3459 -0.0735  1.9158
   22MOL0     H 2968   8.504   2.874   6.702  0.7196 -0.2511 -0.7449
   22MOL0     H 2969   8.970   2.957   5.995  1.9825  3.2694 -2.6003
   22MOL0     H 2970   9.055   2.752   5.875 -3.8814 -2.5823  3.6540
   23MOL0     O 2971  10.763   1.305   5.434 -0.0703 -0.0712 -0.0660
   23MOL0     C 2972  10.832   1.360   5.515 -0.0467 -0.9363  0.6015
   23MOL0     O 2973  10.830   1.344   5.646 -0.4287  0.0799  0.0679
   23MOL0     C 2974  10.730   1.264   5.705  0.5724 -0.3957 -0.5081
   23MOL0     C 2975  10.672   1.142   5.660 -0.5822 -0.0723  0.0330
   23MOL0     C 2976  10.565   1.082   5.726  0.2304 -0.2660 -0.2939
   23MOL0     C 2977  10.502   1.142   5.836  0.3154 -0.4530 -0.6402
   23MOL0     O 2978  10.386   1.088   5.884  0.7664 -0.3782  0.4997
   23MOL0     C 2979  10.296   1.033   5.789  0.7790 -0.3337  0.6437
   23MOL0     C 2980  10.150   1.041   5.834  0.2148 -0.6317 -0.4301
   23MOL0     C 2981  10.089   0.915   5.889 -0.2356 -0.1208 -0.3423
   23MOL0     C 2982   9.941   0.922   5.917  0.7477  0.5082  0.0072
   23MOL0     C 2983   9.888   0.777   5.922 -1.5845 -0.0729  0.1586
   23MOL0     C 2984   9.742   0.775   5.934 -0.1730  0.0450  0.5975
   23MOL0     C 2985   9.709   0.624   5.945  0.2984 -0.4335  0.7233
   23MOL0     C 2986   9.566   0.603   5.886  0.0372 -0.1330 -0.2532
   23MOL0     N 2987   9.511   0.473   5.909 -0.7991  0.0607 -0.4292
   23MOL0     C 2988   9.540   0.352   5.847 -0.6076 -0.6691  0.0906
   23MOL0     C 2989   9.483   0.262   5.925 -0.2434  0.3411  0.1998
   23MOL0     C 2990   9.502   0.111   5.917  0.6478 -0.5549  0.5845
   23MOL0     C 2991   9.425   0.072   5.789 -0.4327 -0.1514 -0.2083
   23MOL0     C 2992   9.394  -0.072   5.766 -0.0740 -0.1547  1.1294
   23MOL0     C 2993   9.332  -0.147   5.874 -0.9311  0.4814 -0.9179
   23MOL0     O 2994   9.206  -0.096   5.931 -0.0731 -0.1015  0.3417
   23MOL0     C 2995   9.090  -0.100   5.847  0.1151  0.3092 -0.1401
   23MOL0     C 2996   8.984  -0.024   5.900 -0.1114  0.8875 -0.8886
   23MOL0     C 2997   8.877   0.007   5.824 -0.1914  1.0624  0.1840
   23MOL0     C 2998   8.782   0.114   5.873  0.8089  0.5323 -0.3960
   23MOL0     C 2999   8.863  -0.034   5.688 -0.0954  0.0475 -0.2097
   23MOL0     C 3000   8.756   0.007   5.588  0.2665  1.0863  0.5284
   23MOL0     O 3001   8.753  -0.056   5.467 -0.1769 -0.6770  0.7805
   23MOL0     C 3002   8.682   0.006   5.366  0.5083  0.4510  0.2488
   23MOL0     C 3003   8.696   0.142   5.325  0.2836  0.3474 -0.6544
   23MOL0     C 3004   8.629   0.191   5.216 -0.5795 -0.2518 -0.5704
   23MOL0     C 3005   8.550   0.110   5.134 -0.4476  0.3552 -0.9824
   23MOL0     O 3006   8.483   0.157   5.027  0.1577 -1.0290  0.2327
   23MOL0     C 3007   8.426   0.284   5.045 -1.5810  0.7501  0.0863
   23MOL0     C 3008   8.312   0.304   4.945 -0.0176  0.4853  0.0625
   23MOL0     C 3009   8.218   0.187   4.933  0.1969 -0.7281  0.0909
   23MOL0     C 3010   8.134   0.130   5.047 -0.4438  0.1647  0.4797
   23MOL0     C 3011   8.036   0.011   5.017 -0.1801 -0.1506  0.4304
   23MOL0     C 3012   8.104  -0.114   4.974  0.4866 -0.9262 -0.0973
   23MOL0     C 3013   8.019  -0.205   4.881  0.3661 -1.0186  0.2620
   23MOL0     C 3014   7.935  -0.292   4.982  0.1784 -0.3376 -0.4762
   23MOL0    Cl 3015   8.028  -0.440   5.026  0.1385  0.5603  0.7053
   23MOL0     C 3016   8.547  -0.027   5.169 -0.2048  0.9915  0.0262
   23MOL0     C 3017   8.611  -0.075   5.285  0.4036 -0.6084 -0.2701
   23MOL0     O 3018   8.680   0.102   5.615 -0.0304 -0.8768 -0.3425
   23MOL0     C 3019   8.963  -0.120   5.650 -0.9996  0.4914  0.6997
   23MOL0     C 3020   9.074  -0.157   5.722  0.8449 -0.5149  0.0610
   23MOL0     N 3021   9.427   0.325   6.031 -0.4830 -0.4237 -0.8915
   23MOL0     N 3022   9.423   0.450   6.020 -0.5084  0.9990 -0.9771
   23MOL0     C 3023  10.559   1.267   5.881 -0.4346  0.0225 -0.1078
   23MOL0     C 3024  10.675   1.320   5.829 -1.1631 -0.4350 -0.1184
   23MOL0     C 3025  10.934   1.451   5.468  0.4026  0.5453  0.3488
   23MOL0     C 3026  11.012   1.525   5.558  0.4840  0.7862  0.1299
   23MOL0     C 3027  11.109   1.604   5.511 -0.4067 -0.8629  0.6318
   23MOL0     C 3028  11.134   1.620   5.372  0.2053  0.5707 -0.4362
   23MOL0     O 3029  11.233   1.704   5.341 -0.7431  0.3794  1.0282
   23MOL0     C 3030  11.296   1.679   5.214 -0.3509  0.3249  0.4140
   23MOL0     C 3031  11.445   1.719   5.202  0.2161 -0.0189  0.7938
   23MOL0     C 3032  11.543   1.655   5.303  0.7545 -0.4389  0.2766
   23MOL0     C 3033  11.620   1.539   5.247 -0.3261 -0.0386  0.0653
   23MOL0     C 3034  11.669   1.445   5.353  0.8173 -0.3997 -0.6576
   23MOL0     C 3035  11.722   1.362   5.415  0.0982  0.5564 -0.3753
   23MOL0     C 3036  11.044   1.559   5.282  0.1813  0.8264 -0.5696
   23MOL0     C 3037  10.954   1.467   5.326 -0.1303  1.0836 -0.0216
   23MOL0     H 3038  10.705   1.100   5.566 -3.4108  0.4770 -1.3024
   23MOL0     H 3039  10.522   0.984   5.709  0.3317 -0.8568  2.3711
   23MOL0     H 3040  10.300   1.085   5.693  2.0438  1.6263  1.6735
   23MOL0     H 3041  10.323   0.931   5.762  2.0176 -0.1254  1.0023
   23MOL0     H 3042  10.161   1.112   5.916 -0.0737 -1.2556  0.1656
   23MOL0     H 3043  10.091   1.081   5.750 -1.0426 -2.6507 -0.5995
   23MOL0     H 3044  10.106   0.843   5.807  3.1604 -0.2347  0.3299
   23MOL0     H 3045  10.146   0.890   5.979  0.0913  2.6976  0.2987
   23MOL0     H 3046   9.911   0.958   6.016 -0.2521  0.7383 -0.3664
   23MOL0     H 3047   9.894   0.982   5.838 -0.2330  0.0480  0.2194
   23MOL0     H 3048   9.923   0.728   5.831  0.2025 -1.5669  1.5617
   23MOL0     H 3049   9.935   0.716   6.000 -0.6762 -3.6070 -2.8934
   23MOL0     H 3050   9.705   0.832   6.020 -2.0832  1.6920 -1.1910
   23MOL0     H 3051   9.699   0.825   5.847 -0.6429 -0.4033  0.5661
   23MOL0     H 3052   9.780   0.551   5.904  2.1510  1.5588  0.1670
   23MOL0     H 3053   9.713   0.594   6.050 -1.2394 -0.2148  0.8621
   23MOL0     H 3054   9.571   0.621   5.778 -0.7837 -0.1714 -0.2996
   23MOL0     H 3055   9.504   0.682   5.929 -1.1115 -2.5257  2.8316
   23MOL0     H 3056   9.611   0.332   5.768  2.3236 -2.2770  2.8729
   23MOL0     H 3057   9.604   0.074   5.910  1.1833  1.0665 -0.9916
   23MOL0     H 3058   9.469   0.078   6.016  1.9556  2.1316  2.0240
   23MOL0     H 3059   9.473   0.125   5.707 -1.9601 -0.2397 -1.2069
   23MOL0     H 3060   9.330   0.127   5.792  0.1363  0.8620  2.8936
   23MOL0     H 3061   9.489  -0.124   5.748  0.8886  1.1148  2.3697
   23MOL0     H 3062   9.332  -0.089   5.677  0.6465  0.9291  0.4001
   23MOL0     H 3063   9.405  -0.159   5.955 -5.1885  0.2715  3.3327
   23MOL0     H 3064   9.316  -0.249   5.838 -1.1866  1.2647 -3.1335
   23MOL0     H 3065   9.000   0.005   6.003  0.6184  0.7793 -0.9662
   23MOL0     H 3066   8.812   0.145   5.974  2.7664  0.6563 -0.9818
   23MOL0     H 3067   8.800   0.207   5.819 -1.2540 -0.2234 -2.5354
   23MOL0     H 3068   8.678   0.082   5.871  0.1281  2.1103  2.9831
   23MOL0     H 3069   8.764   0.209   5.377 -1.9890  1.0649  1.5884
   23MOL0     H 3070   8.647   0.291   5.176 -0.9708 -1.2143 -3.3664
   23MOL0     H 3071   8.395   0.265   5.149  0.9743 -2.5248  0.4131
   23MOL0     H 3072   8.500   0.365   5.042  3.4343 -3.0672  3.1157
   23MOL0     H 3073   8.250   0.389   4.975  3.7382  3.7726 -0.7722
   23MOL0     H 3074   8.345   0.320   4.842  1.0918  2.1889  0.6507
   23MOL0     H 3075   8.282   0.100   4.912  0.5235 -0.5815  0.4752
   23MOL0     H 3076   8.146   0.214   4.855 -1.2480  0.9192  1.9301
   23MOL0     H 3077   8.206   0.108   5.126 -0.2781 -1.3550 -0.0638
   23MOL0     H 3078   8.075   0.213   5.088  0.5928  0.8200  0.6774
   23MOL0     H 3079   7.979   0.055   4.935  4.2328  2.2656 -1.6777
   23MOL0     H 3080   7.976  -0.008   5.106  2.4420 -1.2699  2.0966
   23MOL0     H 3081   8.195  -0.082   4.922  0.8728 -0.9366  0.5571
   23MOL0     H 3082   8.145  -0.174   5.056 -1.1470 -1.5050  0.3453
   23MOL0     H 3083   8.079  -0.263   4.811 -0.4910  0.1461 -1.5450
   23MOL0     H 3084   7.945  -0.141   4.831  1.0023  2.0026  2.8517
   23MOL0     H 3085   7.838  -0.320   4.940 -0.6108 -2.7462  2.5694
   23MOL0     H 3086   7.914  -0.240   5.076 -1.5733  0.7090 -1.3947
   23MOL0     H 3087   8.494  -0.080   5.090 -0.3378  0.9651  0.1307
   23MOL0     H 3088   8.581  -0.177   5.307 -2.5626  0.5575  1.7102
   23MOL0     H 3089   8.958  -0.162   5.550 -1.2447 -0.7785  1.2201
   23MOL0     H 3090   9.148  -0.218   5.672  1.5755  0.9856 -0.7701
   23MOL0     H 3091  10.511   1.324   5.960  1.9979 -0.1912  1.6549
   23MOL0     H 3092  10.724   1.401   5.882 -0.1490 -0.2167 -1.3215
   23MOL0     H 3093  10.983   1.516   5.663 -0.9436  0.5618 -0.2642
   23MOL0     H 3094  11.169   1.658   5.584  0.5489  1.1573 -1.4895
   23MOL0     H 3095  11.295   1.572   5.192  1.4223  0.5674 -1.0486
   23MOL0     H 3096  11.246   1.729   5.130 -0.7694 -0.1377  0.3819
   23MOL0     H 3097  11.432   1.827   5.216 -2.8231  0.3482 -3.1428
   23MOL0     H 3098  11.491   1.703   5.105 -1.3869  0.0158 -0.0080
   23MOL0     H 3099  11.487   1.644   5.397  0.7190  5.0601  1.2079
   23MOL0     H 3100  11.620   1.728   5.327 -1.5629  2.2532  0.0435
   23MOL0     H 3101  11.703   1.588   5.196 -1.9518  1.5355 -1.2453
   23MOL0     H 3102  11.560   1.487   5.172 -0.2899  2.6559 -2.0083
   23MOL0     H 3103  11.770   1.279   5.462  2.0174  0.4473 -2.3783
   23MOL0     H 3104  11.056   1.574   5.175  3.6726 -2.7274 -0.8826
   23MOL0     H 3105  10.888   1.417   5.256  1.8801  1.5158 -2.3808
   24MOL0     O 3106   9.520   2.836   8.570 -0.0424 -0.4291  0.7935
   24MOL0     C 3107   9.524   2.822   8.450 -1.1870 -0.3646  0.1211
   24MOL0     O 3108   9.594   2.731   8.380 -0.5058  0.3146  0.5708
   24MOL0     C 3109   9.703   2.674   8.428 -0.3293  0.2426 -0.5120
   24MOL0     C 3110   9.728   2.538   8.414 -0.7119 -1.0909 -0.2567
   24MOL0     C 3111   9.849   2.470   8.453  0.8173 -0.1288 -0.3792
   24MOL0     C 3112   9.941   2.548   8.512  0.2899  0.0523 -0.2088
   24MOL0     O 3113  10.048   2.479   8.572  0.0562  0.3250  0.5331
   24MOL0     C 3114  10.164   2.557   8.611  0.1098  0.1834 -0.0414
   24MOL0     C 3115  10.147   2.610   8.753 -0.8118  0.7436 -0.7479
   24MOL0     C 3116  10.270   2.673   8.813  0.1968 -0.0161 -0.6431
   24MOL0     C 3117  10.241   2.690   8.959  0.4179  0.0734  0.1403
   24MOL0     C 3118  10.356   2.767   9.022 -0.0807  0.6357  0.6238
   24MOL0     C 3119  10.485   2.696   9.025 -1.4224  0.5628  0.8336
   24MOL0     C 3120  10.572   2.773   9.116  0.0042  0.0954  0.1979
   24MOL0     C 3121  10.641   2.909   9.084  0.0844 -0.2481 -0.0515
   24MOL0     N 3122  10.732   2.896   8.966 -0.2770  0.0155  0.2255
   24MOL0     C 3123  10.844   2.812   8.957  0.0280  0.1909  0.6018
   24MOL0     C 3124  10.894   2.842   8.835 -0.7383  0.8076  1.6990
   24MOL0     C 3125  11.029   2.800   8.770  0.3646  0.2001 -0.5275
   24MOL0     C 3126  11.006   2.754   8.636  0.4986 -0.9331 -0.5435
   24MOL0     C 3127  11.119   2.655   8.599  0.3658  0.2119  0.6983
   24MOL0     C 3128  11.260   2.722   8.595  0.2124 -0.1436  0.1217
   24MOL0     O 3129  11.337   2.685   8.711  0.8128  0.0522 -0.3313
   24MOL0     C 3130  11.458   2.742   8.736 -0.2091 -0.1736 -0.3059
   24MOL0     C 3131  11.522   2.687   8.855 -0.1083 -0.8806  0.9118
   24MOL0     C 3132  11.660   2.726   8.879  0.4651 -0.0531 -1.1385
   24MOL0     C 3133  11.719   2.662   8.999 -1.0593 -0.7406  0.0959
   24MOL0     C 3134  11.718   2.821   8.793  1.2292 -0.5693 -0.6607
   24MOL0     C 3135  11.849   2.883   8.817 -0.0465 -0.0665  0.3756
   24MOL0     O 3136  11.859   3.022   8.777  0.1255  0.5013 -0.3067
   24MOL0     C 3137  11.973   3.075   8.728  0.4109 -0.4214 -0.6986
   24MOL0     C 3138  12.054   3.018   8.634 -1.0455 -0.1145 -0.2462
   24MOL0     C 3139  12.182   3.081   8.600 -0.1945 -0.2621  0.2044
   24MOL0     C 3140  12.216   3.209   8.643  0.1190  0.8832 -0.4043
   24MOL0     O 3141  12.329   3.271   8.598 -0.0488  0.5557 -0.7258
   24MOL0     C 3142  12.443   3.195   8.628  0.9216 -0.1316  0.7532
   24MOL0     C 3143  12.576   3.270   8.612 -0.1760 -0.0465 -1.5868
   24MOL0     C 3144  12.599   3.347   8.751  0.4331  0.7975  0.0777
   24MOL0     C 3145  12.672   3.252   8.840 -0.4591 -0.4869  0.1375
   24MOL0     C 3146  12.668   3.286   8.995 -0.1302 -0.6508 -0.3090
   24MOL0     C 3147  12.717   3.436   9.005  0.8136  0.1988 -1.0579
   24MOL0     C 3148  12.731   3.482   9.144 -0.1942  0.5313 -1.2962
   24MOL0     C 3149  12.603   3.516   9.220  0.2892  0.0113  0.3882
   24MOL0    Cl 3150  12.553   3.680   9.172 -0.0729  0.1090 -0.2249
   24MOL0     C 3151  12.129   3.258   8.742 -0.5674 -0.7637  0.6105
   24MOL0     C 3152  12.016   3.200   8.791  0.6453 -0.5837  0.1021
   24MOL0     O 3153  11.946   2.820   8.862 -0.3327  0.0662 -0.0598
   24MOL0     C 3154  11.641   2.880   8.691 -0.1187 -0.2611  1.0416
   24MOL0     C 3155  11.513   2.844   8.667 -0.3789 -0.9786  0.2577
   24MOL0     N 3156  10.815   2.934   8.771  0.7294  0.2429  0.2855
   24MOL0     N 3157  10.714   2.959   8.845 -0.2655  0.3000 -0.3515
   24MOL0     C 3158   9.929   2.688   8.504  0.3967 -0.3797 -0.3541
   24MOL0     C 3159   9.807   2.753   8.454 -0.8944 -0.1805  0.3602
   24MOL0     C 3160   9.435   2.910   8.375  1.2181 -0.2890  0.5817
   24MOL0     C 3161   9.389   2.863   8.247 -1.1319  0.4189  0.0950
   24MOL0     C 3162   9.329   2.942   8.155  0.3006  0.5469  0.1959
   24MOL0     C 3163   9.315   3.078   8.179  0.1738  0.2470  0.1995
   24MOL0     O 3164   9.249   3.157   8.090 -0.5134  0.5593 -0.2164
   24MOL0     C 3165   9.102   3.162   8.098 -1.1359  0.5068  0.0395
   24MOL0     C 3166   9.047   3.299   8.055 -0.4222 -0.8334 -0.1622
   24MOL0     C 3167   8.895   3.309   8.083  0.1929 -1.2535  0.0883
   24MOL0     C 3168   8.802   3.223   7.994  0.2577  0.1253 -0.0619
   24MOL0     C 3169   8.660   3.263   8.000 -0.9665  1.1443 -0.0951
   24MOL0     C 3170   8.547   3.292   7.997  0.1849 -0.0056  0.5757
   24MOL0     C 3171   9.353   3.124   8.301  0.1618 -0.0452  0.5457
   24MOL0     C 3172   9.410   3.048   8.399 -0.7957 -0.0415 -0.6922
   24MOL0     H 3173   9.658   2.470   8.368 -0.0984 -0.4502 -2.2215
   24MOL0     H 3174   9.841   2.365   8.427 -2.1152  0.0655 -0.5944
   24MOL0     H 3175  10.262   2.509   8.621  0.5813  1.6058  3.5022
   24MOL0     H 3176  10.172   2.632   8.532 -1.0439 -0.1948 -0.5343
   24MOL0     H 3177  10.061   2.677   8.766 -0.9927  0.0282  2.5745
   24MOL0     H 3178  10.126   2.521   8.813  3.9821  2.4192  4.2114
   24MOL0     H 3179  10.359   2.611   8.810 -0.0577 -0.4441  0.1729
   24MOL0     H 3180  10.299   2.769   8.768  2.2991 -0.2032  0.1984
   24MOL0     H 3181  10.155   2.755   8.979  3.3524  3.6815  2.3294
   24MOL0     H 3182  10.238   2.589   8.999  1.8263 -0.5556 -1.2371
   24MOL0     H 3183  10.367   2.865   8.974 -2.0032 -0.2120 -1.7413
   24MOL0     H 3184  10.318   2.779   9.124 -2.7039 -5.0822  0.6578
   24MOL0     H 3185  10.482   2.593   9.061  4.4745  0.1826  1.2909
   24MOL0     H 3186  10.539   2.696   8.929  2.9811  2.9759  2.9756
   24MOL0     H 3187  10.504   2.789   9.200 -0.9117 -1.3776 -0.2264
   24MOL0     H 3188  10.652   2.707   9.152  1.8528  1.7617 -0.6441
   24MOL0     H 3189  10.694   2.944   9.173 -3.5069  0.3793  2.0229
   24MOL0     H 3190  10.555   2.973   9.060  0.6364  0.6931  0.4383
   24MOL0     H 3191  10.893   2.759   9.038 -0.1499  0.5601  0.9569
   24MOL0     H 3192  11.104   2.879   8.769  0.7365 -0.1054  1.1955
   24MOL0     H 3193  11.078   2.721   8.827 -1.4171  1.2411  2.7203
   24MOL0     H 3194  10.997   2.839   8.567  0.6436 -0.7885 -0.3853
   24MOL0     H 3195  10.913   2.697   8.630  1.4088 -2.3961 -1.3282
   24MOL0     H 3196  11.093   2.617   8.500  1.1927 -0.4068  0.7130
   24MOL0     H 3197  11.109   2.570   8.668  3.0189 -0.4871  0.3205
   24MOL0     H 3198  11.242   2.830   8.584 -3.8622 -0.7874 -1.4601
   24MOL0     H 3199  11.321   2.687   8.512  2.9709  3.6283  0.2814
   24MOL0     H 3200  11.465   2.617   8.916 -1.3068 -0.4903  0.2834
   24MOL0     H 3201  11.795   2.601   8.949 -0.9393 -0.8087  0.3596
   24MOL0     H 3202  11.770   2.735   9.062 -1.0458  2.4511 -3.2854
   24MOL0     H 3203  11.651   2.600   9.058 -2.4938  1.2378  0.6038
   24MOL0     H 3204  12.040   2.926   8.578 -0.2171 -0.9582  0.9135
   24MOL0     H 3205  12.245   3.027   8.529 -0.8828  1.4268 -1.7886
   24MOL0     H 3206  12.429   3.145   8.724 -0.6250 -1.7138 -0.2052
   24MOL0     H 3207  12.448   3.115   8.553 -0.2071 -0.2316  0.7677
   24MOL0     H 3208  12.658   3.199   8.599 -0.4451 -1.4425  2.7457
   24MOL0     H 3209  12.555   3.319   8.517 -1.7334  1.3013 -0.6019
   24MOL0     H 3210  12.510   3.392   8.796 -0.0169  0.6549 -0.6503
   24MOL0     H 3211  12.661   3.432   8.720  0.7694 -0.0361 -1.6645
   24MOL0     H 3212  12.646   3.147   8.829  2.1152 -1.2266  0.4405
   24MOL0     H 3213  12.775   3.253   8.801 -0.4058 -3.4219 -0.0235
   24MOL0     H 3214  12.721   3.218   9.062 -1.4749 -2.2763 -0.8173
   24MOL0     H 3215  12.566   3.287   9.035  0.5949  1.4210  1.6751
   24MOL0     H 3216  12.812   3.441   8.950 -0.1143 -1.5397 -2.9521
   24MOL0     H 3217  12.637   3.497   8.962 -1.7143 -0.4550  2.3178
   24MOL0     H 3218  12.807   3.560   9.148  1.2214 -0.8083 -0.8388
   24MOL0     H 3219  12.777   3.402   9.204 -4.3661  1.5310  4.0064
   24MOL0     H 3220  12.607   3.516   9.329  3.1270  1.3506  0.3879
   24MOL0     H 3221  12.527   3.439   9.201  0.6482 -0.7899  1.9813
   24MOL0     H 3222  12.167   3.352   8.781 -0.4695 -0.9882  1.0642
   24MOL0     H 3223  11.977   3.250   8.879  1.3180 -1.7099  1.0818
   24MOL0     H 3224  11.675   2.960   8.625  2.1983 -3.0432 -1.3992
   24MOL0     H 3225  11.462   2.879   8.579  1.8928  0.5886 -0.5232
   24MOL0     H 3226  10.010   2.756   8.527 -1.4663  1.0811  2.4606
   24MOL0     H 3227   9.793   2.857   8.426  0.9989 -0.2351 -0.9670
   24MOL0     H 3228   9.406   2.761   8.215 -1.2231  1.2147 -2.7446
   24MOL0     H 3229   9.279   2.891   8.074  0.6200  0.0957  0.2841
   24MOL0     H 3230   9.072   3.088   8.023  0.5446  0.3731 -0.5510
   24MOL0     H 3231   9.068   3.125   8.195  2.2985  2.0330  2.0241
   24MOL0     H 3232   9.064   3.326   7.950 -0.9810  2.2558  0.4281
   24MOL0     H 3233   9.104   3.372   8.114 -0.2661  0.4222 -1.7840
   24MOL0     H 3234   8.867   3.414   8.092  0.4519 -1.0638 -1.1271
   24MOL0     H 3235   8.889   3.271   8.186 -0.4085  3.3244  1.9909
   24MOL0     H 3236   8.812   3.119   8.025 -1.9047  0.1791  0.9900
   24MOL0     H 3237   8.841   3.236   7.892 -0.8719 -0.3070 -0.5715
   24MOL0     H 3238   8.444   3.321   8.003  0.3280  1.0805 -1.5346
   24MOL0     H 3239   9.344   3.228   8.329 -0.2976  0.7395 -2.2139
   24MOL0     H 3240   9.428   3.100   8.492 -2.8216 -2.1441  0.9748
   25MOL0     O 3241   9.992  11.144   8.982  0.1621 -0.2290  0.1554
   25MOL0     C 3242   9.972  11.029   8.953 -0.0557  0.1481  0.4997
   25MOL0     O 3243  10.062  10.943   8.895  0.8012 -0.1224 -0.1236
   25MOL0     C 3244  10.174  11.000   8.835 -0.8224 -0.7302  0.2708
   25MOL0     C 3245  10.169  11.114   8.754  0.7046 -0.3369 -0.4396
   25MOL0     C 3246  10.274  11.175   8.686  0.0850  0.0275  0.0513
   25MOL0     C 3247  10.399  11.114   8.702 -0.2225  1.4808  0.5966
   25MOL0     O 3248  10.516  11.156   8.649 -0.3351 -1.0576  0.0046
   25MOL0     C 3249  10.520  11.299   8.629  0.4144 -0.0670 -0.1279
   25MOL0     C 3250  10.635  11.336   8.526  0.2358  0.7708 -0.1398
   25MOL0     C 3251  10.676  11.495   8.529  0.9847 -0.3680  0.2479
   25MOL0     C 3252  10.821  11.522   8.577  0.3940 -0.1784  0.2993
   25MOL0     C 3253  10.879  11.658   8.529  0.4190 -0.7857 -0.3780
   25MOL0     C 3254  10.968  11.631   8.401  0.6411 -0.2963 -0.4666
   25MOL0     C 3255  10.881  11.623   8.274 -0.0938 -0.0856 -1.6835
   25MOL0     C 3256  10.930  11.701   8.153 -0.6440  0.1702  0.2157
   25MOL0     N 3257  11.042  11.622   8.102  0.9936  0.0711  0.7640
   25MOL0     C 3258  11.177  11.634   8.140  0.5565  0.6392  0.0671
   25MOL0     C 3259  11.242  11.566   8.045 -0.5456  0.0831 -0.6815
   25MOL0     C 3260  11.392  11.570   8.032  0.1664  0.2611  0.7809
   25MOL0     C 3261  11.445  11.713   7.994  0.7331 -0.2242 -0.0960
   25MOL0     C 3262  11.589  11.726   8.008 -0.2309  0.9038 -0.1947
   25MOL0     C 3263  11.627  11.877   7.981  0.3641  0.6644 -0.5507
   25MOL0     O 3264  11.630  11.925   7.845 -1.2465  0.3400  0.4548
   25MOL0     C 3265  11.549  12.031   7.820 -0.6497  0.1400  0.8021
   25MOL0     C 3266  11.576  12.152   7.886 -0.2821  0.1659 -0.2630
   25MOL0     C 3267  11.494  12.257   7.857 -0.1951  0.5539 -0.2624
   25MOL0     C 3268  11.518  12.384   7.937  0.6647 -0.6712 -0.3937
   25MOL0     C 3269  11.393  12.244   7.765  0.3499 -0.8957  0.3515
   25MOL0     C 3270  11.287  12.349   7.763 -0.9452 -0.2715  0.5701
   25MOL0     O 3271  11.237  12.401   7.874  0.3896  0.3700  0.6339
   25MOL0     C 3272  11.145  12.496   7.858 -0.6067  0.4934 -0.6381
   25MOL0     C 3273  11.033  12.483   7.773 -1.0090  0.0047 -0.4580
   25MOL0     C 3274  10.942  12.595   7.764 -0.2002  0.2386  0.1219
   25MOL0     C 3275  10.954  12.701   7.847  0.1217 -0.0160  0.1657
   25MOL0     O 3276  10.845  12.780   7.834  0.2007 -1.5297 -0.5856
   25MOL0     C 3277  10.805  12.852   7.952  0.1867  0.2104 -0.2466
   25MOL0     C 3278  10.664  12.803   7.989  0.7406 -0.0260 -0.0023
   25MOL0     C 3279  10.673  12.657   8.048  0.3431 -0.4100  0.2663
   25MOL0     C 3280  10.654  12.659   8.201  0.4121  0.5249  0.2804
   25MOL0     C 3281  10.684  12.515   8.264 -1.2935 -0.5225  0.9238
   25MOL0     C 3282  10.835  12.479   8.288 -0.1989  0.2686  0.0107
   25MOL0     C 3283  10.926  12.451   8.172 -0.1993  0.1257  0.5212
   25MOL0     C 3284  11.076  12.450   8.219 -0.6847 -0.0744  1.2447
   25MOL0    Cl 3285  11.087  12.335   8.359 -0.3780  0.3218 -0.2456
   25MOL0     C 3286  11.067  12.721   7.930  0.6781 -1.2248 -0.7932
   25MOL0     C 3287  11.153  12.609   7.940  0.5422 -0.1265 -0.5639
   25MOL0     O 3288  11.261  12.386   7.650 -0.5075 -0.1035 -0.8922
   25MOL0     C 3289  11.367  12.120   7.696  1.2780  0.1610 -0.4150
   25MOL0     C 3290  11.449  12.014   7.723 -0.8390 -0.2222 -0.4346
   25MOL0     N 3291  11.157  11.518   7.945 -0.1821  0.4852  0.4344
   25MOL0     N 3292  11.038  11.556   7.979  0.2074  0.5224  0.0002
   25MOL0     C 3293  10.411  10.989   8.775 -0.9540 -0.2205  1.0802
   25MOL0     C 3294  10.300  10.930   8.832 -0.6357 -0.8237 -0.4301
   25MOL0     C 3295   9.834  10.978   8.971 -1.4527 -0.2099 -0.7386
   25MOL0     C 3296   9.737  11.019   9.066  0.4070 -0.2081  0.0685
   25MOL0     C 3297   9.615  10.953   9.063  0.2036 -0.4873 -0.0184
   25MOL0     C 3298   9.584  10.846   8.978 -0.2929 -0.2869 -0.2157
   25MOL0     O 3299   9.466  10.774   8.982  0.2870 -0.5854 -0.4698
   25MOL0     C 3300   9.352  10.812   9.067  0.4813  0.0346 -0.0302
   25MOL0     C 3301   9.283  10.938   9.029 -0.2285 -0.3052 -0.4225
   25MOL0     C 3302   9.215  10.915   8.894 -0.5252  0.3008 -0.9822
   25MOL0     C 3303   9.061  10.936   8.889  0.6242 -0.3204 -0.3368
   25MOL0     C 3304   8.997  10.840   8.978  0.2588 -0.8102 -0.7498
   25MOL0     C 3305   8.930  10.778   9.060  0.2073 -0.8914 -0.0829
   25MOL0     C 3306   9.681  10.818   8.884  0.6132  1.0002  0.0901
   25MOL0     C 3307   9.803  10.877   8.876  0.2042  0.2738  0.3294
   25MOL0     H 3308  10.066  11.147   8.741  1.4300  1.6198 -1.6561
   25MOL0     H 3309  10.262  11.262   8.622  1.1821  0.5400  0.5152
   25MOL0     H 3310  10.427  11.334   8.583 -0.9073 -3.2390 -0.0946
   25MOL0     H 3311  10.533  11.334   8.732  2.0747  0.5526 -0.5257
   25MOL0     H 3312  10.726  11.275   8.537  0.6216  0.6702 -3.1480
   25MOL0     H 3313  10.601  11.313   8.425 -0.5526  1.0585  0.0546
   25MOL0     H 3314  10.663  11.541   8.431  0.1236 -0.4797  0.3061
   25MOL0     H 3315  10.611  11.552   8.595 -0.0963 -1.2625 -0.0146
   25MOL0     H 3316  10.833  11.515   8.685  0.0307  0.0651  0.3582
   25MOL0     H 3317  10.877  11.439   8.533  0.0745 -0.8481  1.1317
   25MOL0     H 3318  10.800  11.731   8.507  1.5290  0.3285 -0.7941
   25MOL0     H 3319  10.930  11.710   8.610 -2.4713 -0.9402  1.6953
   25MOL0     H 3320  11.039  11.713   8.385  2.0416 -1.4804 -0.5809
   25MOL0     H 3321  11.034  11.544   8.405 -2.4035 -2.7749 -0.4961
   25MOL0     H 3322  10.867  11.516   8.253  0.5608 -0.3414 -0.8629
   25MOL0     H 3323  10.780  11.662   8.289 -0.4561 -1.3564 -0.6286
   25MOL0     H 3324  10.967  11.802   8.175 -0.5597  0.4796 -1.2561
   25MOL0     H 3325  10.855  11.708   8.074 -1.7290  1.5189  1.3018
   25MOL0     H 3326  11.217  11.687   8.225  0.3255  2.2525 -0.7890
   25MOL0     H 3327  11.441  11.543   8.125 -1.3781  2.4800  2.3397
   25MOL0     H 3328  11.426  11.501   7.954  0.1933  0.7104  0.3880
   25MOL0     H 3329  11.392  11.770   8.071  0.1963  2.5440 -2.3514
   25MOL0     H 3330  11.411  11.742   7.895  2.4433  0.8273 -0.4055
   25MOL0     H 3331  11.634  11.647   7.947 -3.3369 -2.6302  1.6535
   25MOL0     H 3332  11.619  11.707   8.111  0.9892  0.2055 -0.6565
   25MOL0     H 3333  11.720  11.904   8.032 -0.3540  2.8138 -0.2782
   25MOL0     H 3334  11.552  11.922   8.047  0.2396  0.4018 -0.5128
   25MOL0     H 3335  11.665  12.158   7.949  1.7939 -0.1493 -2.9822
   25MOL0     H 3336  11.620  12.424   7.929 -1.2149  5.0413 -0.2835
   25MOL0     H 3337  11.460  12.467   7.897 -0.5769 -1.4188 -0.1993
   25MOL0     H 3338  11.491  12.357   8.039 -1.3912 -1.4821 -1.1006
   25MOL0     H 3339  11.025  12.392   7.715  1.3251  1.1379 -2.7829
   25MOL0     H 3340  10.866  12.591   7.687  0.5704 -0.7182 -0.6156
   25MOL0     H 3341  10.869  12.824   8.036  0.2986  2.9184  0.6716
   25MOL0     H 3342  10.811  12.960   7.936  0.3304 -0.0448 -2.2525
   25MOL0     H 3343  10.631  12.868   8.070 -2.4217 -0.5401 -0.7470
   25MOL0     H 3344  10.591  12.798   7.907 -1.2382 -1.6702  1.7261
   25MOL0     H 3345  10.768  12.609   8.024  0.8462 -0.8322  2.8186
   25MOL0     H 3346  10.593  12.592   8.012  0.6867  0.0330 -1.3537
   25MOL0     H 3347  10.709  12.739   8.251 -0.5803  1.3569  0.0568
   25MOL0     H 3348  10.547  12.670   8.223  0.1992 -1.5416  0.5270
   25MOL0     H 3349  10.640  12.431   8.209 -0.5193 -2.8574  3.6006
   25MOL0     H 3350  10.645  12.509   8.366  0.9075 -0.8286  1.8064
   25MOL0     H 3351  10.887  12.559   8.342  0.3717  0.6534 -1.0725
   25MOL0     H 3352  10.831  12.394   8.356  0.6623  0.1639 -0.0581
   25MOL0     H 3353  10.923  12.540   8.108 -0.6199  0.1115  0.5190
   25MOL0     H 3354  10.909  12.362   8.111 -1.5702  1.3573 -0.9856
   25MOL0     H 3355  11.116  12.545   8.253  0.1149  0.5936 -1.3410
   25MOL0     H 3356  11.133  12.421   8.131 -3.8065  0.2202 -1.0537
   25MOL0     H 3357  11.073  12.801   8.003 -2.5857  0.8313 -2.5393
   25MOL0     H 3358  11.233  12.609   8.013  1.8679 -2.8811 -1.8775
   25MOL0     H 3359  11.276  12.108   7.637  0.7257  1.3347  0.1639
   25MOL0     H 3360  11.440  11.911   7.690 -2.0144  0.9762 -4.3747
   25MOL0     H 3361  10.508  10.939   8.781 -2.4058 -3.2521  1.3665
   25MOL0     H 3362  10.304  10.844   8.898  1.6503  0.0005  0.6082
   25MOL0     H 3363   9.766  11.098   9.134 -2.2561  1.8544 -1.0287
   25MOL0     H 3364   9.540  10.985   9.135 -0.1422 -2.4906  0.5800
   25MOL0     H 3365   9.281  10.729   9.066  0.2519  0.2306 -0.6123
   25MOL0     H 3366   9.388  10.833   9.168 -2.7588  1.4558  0.9641
   25MOL0     H 3367   9.352  11.022   9.031 -0.4517 -0.1178  2.2590
   25MOL0     H 3368   9.213  10.970   9.107  0.2675 -1.9342  0.7451
   25MOL0     H 3369   9.240  10.814   8.861  0.1503 -0.0251  0.4483
   25MOL0     H 3370   9.266  10.993   8.838  1.9724  0.4238  1.2733
   25MOL0     H 3371   9.029  10.923   8.785  0.9289 -0.5661 -0.4026
   25MOL0     H 3372   9.041  11.041   8.913  0.7974  0.0563 -1.7609
   25MOL0     H 3373   8.885  10.736   9.148  2.0209  2.0767  2.4815
   25MOL0     H 3374   9.668  10.735   8.815 -0.8432  1.4176 -0.1643
   25MOL0     H 3375   9.871  10.839   8.800 -0.8958  1.5324 -1.3788
   26MOL0     O 3376   8.155   3.618   1.658  0.1799  0.2024  0.2703
   26MOL0     C 3377   8.112   3.731   1.686 -0.4758 -1.3272 -0.7147
   26MOL0     O 3378   8.178   3.857   1.659  1.1634 -0.5047  0.8204
   26MOL0     C 3379   8.292   3.856   1.579  0.7156  0.7620 -0.7544
   26MOL0     C 3380   8.295   3.817   1.449  0.3298  0.4182  0.7584
   26MOL0     C 3381   8.391   3.862   1.364  0.0543 -0.1836  0.2349
   26MOL0     C 3382   8.508   3.928   1.403  1.3036 -0.0704  0.2251
   26MOL0     O 3383   8.583   3.987   1.309  0.5512 -0.0311  0.2507
   26MOL0     C 3384   8.718   4.038   1.343  0.2960  0.2303  0.4822
   26MOL0     C 3385   8.783   4.125   1.226 -0.1535 -0.1036 -0.1929
   26MOL0     C 3386   8.703   4.247   1.190  0.5625  0.1931  0.6422
   26MOL0     C 3387   8.762   4.325   1.079 -0.1005  0.7341 -0.1950
   26MOL0     C 3388   8.866   4.434   1.125 -0.4522  0.0466  0.3706
   26MOL0     C 3389   8.896   4.538   1.009  0.7352 -0.1339  0.5394
   26MOL0     C 3390   8.996   4.643   1.050 -0.2621  0.1330  0.3326
   26MOL0     C 3391   8.991   4.758   0.953  0.9127  0.0769 -0.1002
   26MOL0     N 3392   9.070   4.868   1.002 -0.4362  0.1016 -0.8213
   26MOL0     C 3393   9.206   4.869   1.043  0.3676  0.4019 -0.6967
   26MOL0     C 3394   9.220   4.982   1.116 -0.0863  0.2285 -0.1518
   26MOL0     C 3395   9.336   5.030   1.207 -0.6186 -0.5156  0.4251
   26MOL0     C 3396   9.298   5.137   1.316 -0.1310 -0.0813  0.1126
   26MOL0     C 3397   9.417   5.220   1.385  0.5285  1.5301 -0.9098
   26MOL0     C 3398   9.495   5.309   1.281  0.3332 -0.1556 -0.7855
   26MOL0     O 3399   9.577   5.245   1.185  0.3391  0.1128 -0.1274
   26MOL0     C 3400   9.709   5.242   1.208 -0.3085 -0.6374  0.6865
   26MOL0     C 3401   9.794   5.347   1.182 -0.1359 -0.7126 -0.4201
   26MOL0     C 3402   9.934   5.331   1.182 -0.2769 -0.4292  0.3347
   26MOL0     C 3403  10.013   5.464   1.156 -0.8226 -0.3000  0.2839
   26MOL0     C 3404   9.989   5.200   1.190 -0.2284 -0.4619  0.6551
   26MOL0     C 3405  10.139   5.173   1.176 -0.2957 -0.6301  0.0248
   26MOL0     O 3406  10.221   5.274   1.118  0.8379  0.1055 -0.0371
   26MOL0     C 3407  10.350   5.246   1.090  0.3826 -0.0896 -0.7264
   26MOL0     C 3408  10.384   5.119   1.040  0.0225 -0.2860 -0.5199
   26MOL0     C 3409  10.512   5.098   0.971  0.4549  0.5599 -0.8387
   26MOL0     C 3410  10.610   5.192   0.977 -0.1038  0.4160 -0.1306
   26MOL0     O 3411  10.724   5.173   0.905  0.0210  0.0922 -0.1025
   26MOL0     C 3412  10.833   5.262   0.878  0.3039 -0.7574  0.6123
   26MOL0     C 3413  10.800   5.358   0.766  0.3856 -1.0318  0.5861
   26MOL0     C 3414  10.761   5.279   0.641 -0.5247  0.3852 -0.0456
   26MOL0     C 3415  10.887   5.249   0.557 -0.6841 -1.3142 -0.0182
   26MOL0     C 3416  10.866   5.146   0.446  0.5326  0.1552 -0.5235
   26MOL0     C 3417  10.888   5.000   0.497  0.6555 -0.7251  0.5234
   26MOL0     C 3418  10.852   4.903   0.397 -0.1047  0.5641 -0.1904
   26MOL0     C 3419  10.917   4.767   0.431  0.9548  0.2533 -0.1454
   26MOL0    Cl 3420  11.088   4.763   0.371 -0.2618  0.4874 -0.4555
   26MOL0     C 3421  10.578   5.311   1.041  0.0296  0.9069  0.5755
   26MOL0     C 3422  10.452   5.343   1.097  0.1910 -0.7132  0.3984
   26MOL0     O 3423  10.179   5.071   1.235 -0.1700 -0.2634 -0.6109
   26MOL0     C 3424   9.904   5.093   1.228  0.0553  0.1224  0.7675
   26MOL0     C 3425   9.764   5.116   1.217 -0.2979  0.4019  0.4001
   26MOL0     N 3426   9.110   5.053   1.094  0.6104 -0.6334  0.7802
   26MOL0     N 3427   9.020   4.991   1.035  0.6685  0.7952 -0.2156
   26MOL0     C 3428   8.517   3.952   1.548  0.0666 -0.3664  1.0888
   26MOL0     C 3429   8.409   3.925   1.633  0.3082  0.3213  0.4023
   26MOL0     C 3430   7.979   3.733   1.747  0.0986 -0.3400 -0.3094
   26MOL0     C 3431   7.933   3.860   1.789 -0.2441 -0.4249  0.4362
   26MOL0     C 3432   7.790   3.876   1.825  0.5056  0.5394  0.3983
   26MOL0     C 3433   7.706   3.769   1.837 -0.3197 -0.1587  0.0271
   26MOL0     O 3434   7.568   3.762   1.878  0.4284 -0.2140 -0.3597
   26MOL0     C 3435   7.496   3.891   1.887 -0.3526 -0.2943  0.1374
   26MOL0     C 3436   7.502   3.930   2.032  0.6048  0.6204 -0.4060
   26MOL0     C 3437   7.424   4.060   2.064  1.2600 -0.2729 -0.5895
   26MOL0     C 3438   7.485   4.193   2.008  0.9155  0.0600  0.2838
   26MOL0     C 3439   7.438   4.225   1.870  1.8500  0.8178  0.2382
   26MOL0     C 3440   7.392   4.262   1.766 -0.6923  0.9158  0.2789
   26MOL0     C 3441   7.762   3.643   1.806 -0.6159 -0.1950  0.8722
   26MOL0     C 3442   7.895   3.623   1.753  0.9874 -0.3193  0.0535
   26MOL0     H 3443   8.203   3.771   1.414 -0.3614  1.1909  1.5018
   26MOL0     H 3444   8.370   3.846   1.259 -4.0381  0.1385  0.8339
   26MOL0     H 3445   8.713   4.107   1.428 -0.8590  0.3425  0.3473
   26MOL0     H 3446   8.776   3.953   1.380 -0.4508  0.6070  2.6428
   26MOL0     H 3447   8.883   4.151   1.261 -0.2431  2.3272 -1.5361
   26MOL0     H 3448   8.795   4.051   1.146  2.3407  0.8988 -0.8238
   26MOL0     H 3449   8.601   4.217   1.163  0.2971  0.2364  1.5751
   26MOL0     H 3450   8.694   4.320   1.271 -1.1838  3.9476 -2.6334
   26MOL0     H 3451   8.809   4.256   1.007 -0.1438  1.1776 -0.6611
   26MOL0     H 3452   8.683   4.374   1.021  0.2127  0.3854 -0.9400
   26MOL0     H 3453   8.822   4.479   1.214 -3.3275  0.5844 -1.2303
   26MOL0     H 3454   8.954   4.380   1.162  0.2175  0.7119 -0.2233
   26MOL0     H 3455   8.917   4.478   0.920 -0.5330  1.0659 -0.6223
   26MOL0     H 3456   8.809   4.593   0.973 -0.5324 -1.6128  1.2267
   26MOL0     H 3457   8.975   4.671   1.153 -0.7673 -2.9832  1.1618
   26MOL0     H 3458   9.096   4.598   1.046 -0.9235 -1.3234 -2.8270
   26MOL0     H 3459   8.890   4.801   0.945  0.6650 -0.2568  1.0107
   26MOL0     H 3460   9.019   4.729   0.851 -0.2238 -2.7736  0.2998
   26MOL0     H 3461   9.285   4.795   1.049  3.1562  3.2915  3.7997
   26MOL0     H 3462   9.381   4.949   1.264 -2.7021  0.4473  3.7550
   26MOL0     H 3463   9.417   5.064   1.142 -0.9362 -0.9794 -0.2156
   26MOL0     H 3464   9.237   5.108   1.402  1.1237  1.1664  1.4904
   26MOL0     H 3465   9.235   5.216   1.273  0.9436 -0.9884 -3.4104
   26MOL0     H 3466   9.481   5.144   1.431 -0.4330  1.5543  0.5302
   26MOL0     H 3467   9.373   5.275   1.469  3.3272  1.6969  0.5660
   26MOL0     H 3468   9.547   5.386   1.339  0.9545 -1.9638  1.1692
   26MOL0     H 3469   9.415   5.375   1.245 -0.7863  0.9350  3.2339
   26MOL0     H 3470   9.736   5.437   1.163 -0.1686 -1.2086 -2.9050
   26MOL0     H 3471   9.962   5.561   1.146  4.5000  3.0122  1.3421
   26MOL0     H 3472  10.088   5.479   1.233 -0.9746 -3.8785  1.2898
   26MOL0     H 3473  10.065   5.463   1.060 -3.1785  3.2715 -1.2619
   26MOL0     H 3474  10.317   5.034   1.045  0.4488 -0.5808  2.9782
   26MOL0     H 3475  10.529   5.001   0.926  2.3473 -0.6428  2.1181
   26MOL0     H 3476  10.852   5.316   0.972 -0.7677 -2.8065  2.0885
   26MOL0     H 3477  10.928   5.214   0.858  0.7867  0.7502 -0.9160
   26MOL0     H 3478  10.711   5.418   0.785  0.9640 -0.3638  1.2768
   26MOL0     H 3479  10.885   5.427   0.755  1.0258 -1.8405  0.3871
   26MOL0     H 3480  10.697   5.334   0.571 -0.7155  1.6588  1.0927
   26MOL0     H 3481  10.721   5.178   0.658 -2.3938  0.2009 -4.3046
   26MOL0     H 3482  10.918   5.342   0.510  0.9074  0.3075  3.8016
   26MOL0     H 3483  10.973   5.231   0.623  1.2606 -0.9745 -2.3294
   26MOL0     H 3484  10.948   5.163   0.376  0.1634 -0.7350 -1.1847
   26MOL0     H 3485  10.765   5.155   0.405 -0.0694 -1.3005  0.5397
   26MOL0     H 3486  10.991   4.975   0.526  0.8018  0.3719  0.9978
   26MOL0     H 3487  10.831   4.994   0.590 -3.6122  0.7219 -1.7305
   26MOL0     H 3488  10.896   4.936   0.302  1.6751 -1.7411 -0.2435
   26MOL0     H 3489  10.744   4.894   0.385 -0.3083 -1.2298  2.3516
   26MOL0     H 3490  10.874   4.691   0.365  2.8582  1.0409 -2.4204
   26MOL0     H 3491  10.909   4.747   0.539  2.8838  2.8604  0.5967
   26MOL0     H 3492  10.660   5.381   1.030 -0.0847  0.7335 -1.8111
   26MOL0     H 3493  10.459   5.445   1.132 -1.6919 -0.2234 -0.5594
   26MOL0     H 3494   9.939   4.990   1.227 -1.6290 -0.4820 -0.2979
   26MOL0     H 3495   9.682   5.045   1.212 -1.6047  1.9432 -2.7709
   26MOL0     H 3496   8.600   4.007   1.591 -1.2819 -0.1814  3.6195
   26MOL0     H 3497   8.417   3.968   1.732  1.0125 -0.5829  0.7529
   26MOL0     H 3498   7.999   3.946   1.784  1.0340 -1.4539 -0.8066
   26MOL0     H 3499   7.769   3.979   1.850 -1.3306  0.0643  0.9765
   26MOL0     H 3500   7.532   3.961   1.812  0.7006 -1.9412 -0.9578
   26MOL0     H 3501   7.391   3.865   1.870  0.1021 -1.4644 -1.0545
   26MOL0     H 3502   7.606   3.942   2.064  1.0206  1.9022 -2.0846
   26MOL0     H 3503   7.461   3.853   2.098 -1.4038  0.8825 -1.2499
   26MOL0     H 3504   7.417   4.078   2.172  2.2517  2.1847 -0.8720
   26MOL0     H 3505   7.320   4.045   2.033  0.4754 -3.3311  2.7301
   26MOL0     H 3506   7.593   4.178   1.998  1.3078  2.6926 -0.3702
   26MOL0     H 3507   7.457   4.271   2.080 -3.2862 -3.1628  2.5936
   26MOL0     H 3508   7.351   4.300   1.674  3.5297  2.6669 -1.1009
   26MOL0     H 3509   7.700   3.562   1.842  2.4477 -2.7686  0.8306
   26MOL0     H 3510   7.921   3.519   1.733 -3.1998 -1.1865 -2.0514
   27MOL0     O 3511  11.404   0.083   8.375 -0.1365 -0.1681  0.0328
   27MOL0     C 3512  11.447   0.040   8.480  0.1382 -0.4893  0.3127
   27MOL0     O 3513  11.561   0.083   8.541  0.3511  0.3986  0.7865
   27MOL0     C 3514  11.620   0.190   8.476 -0.2120  1.0302 -0.0083
   27MOL0     C 3515  11.595   0.317   8.522  0.2478  0.3788  0.0335
   27MOL0     C 3516  11.669   0.428   8.471  0.4310  1.4852  0.4788
   27MOL0     C 3517  11.772   0.412   8.375 -1.0116 -0.3803  0.2164
   27MOL0     O 3518  11.845   0.513   8.315 -0.5022 -0.8207 -0.4833
   27MOL0     C 3519  11.814   0.650   8.347 -0.6425  0.3492  0.7324
   27MOL0     C 3520  11.898   0.738   8.255 -0.8529  1.1807 -0.7664
   27MOL0     C 3521  12.049   0.693   8.249  0.4794 -0.2579 -0.1960
   27MOL0     C 3522  12.136   0.780   8.151 -0.1637  0.7446  0.3696
   27MOL0     C 3523  12.199   0.901   8.221  0.3180 -0.4246 -0.6318
   27MOL0     C 3524  12.291   0.986   8.133 -0.2284 -1.0277  0.1296
   27MOL0     C 3525  12.328   1.113   8.195  1.5525  0.2167 -0.4231
   27MOL0     C 3526  12.445   1.175   8.126 -0.1233 -0.4249  0.8008
   27MOL0     N 3527  12.576   1.126   8.163 -0.8192 -0.7922 -0.4972
   27MOL0     C 3528  12.662   1.034   8.114 -0.7066 -0.1005  0.5385
   27MOL0     C 3529  12.780   1.046   8.179  0.2407 -0.0938  0.8876
   27MOL0     C 3530  12.898   0.958   8.153 -0.1196 -0.2735 -0.3684
   27MOL0     C 3531  13.010   1.058   8.107 -1.2571 -0.3973 -0.2237
   27MOL0     C 3532  12.991   1.126   7.971  0.1221 -0.3393  0.7905
   27MOL0     C 3533  12.937   1.037   7.858  0.8462  0.4123  0.4602
   27MOL0     O 3534  12.928   1.118   7.745  0.2160 -0.3918  0.5236
   27MOL0     C 3535  12.839   1.084   7.643  0.1867 -1.1643 -1.1839
   27MOL0     C 3536  12.849   1.165   7.537 -0.5453  0.8373 -0.5268
   27MOL0     C 3537  12.759   1.159   7.430  0.5292  0.8813  0.8672
   27MOL0     C 3538  12.767   1.255   7.318 -0.3030 -0.1332  0.1002
   27MOL0     C 3539  12.656   1.056   7.437 -0.0893 -0.9141 -0.0679
   27MOL0     C 3540  12.548   1.045   7.342 -1.0755 -0.3151  0.0674
   27MOL0     O 3541  12.485   1.162   7.313 -0.0824  0.3420 -0.0563
   27MOL0     C 3542  12.386   1.164   7.215 -0.3813  0.4223 -0.8041
   27MOL0     C 3543  12.408   1.196   7.080 -0.1651  0.1353  0.2464
   27MOL0     C 3544  12.305   1.169   6.990  0.2430  0.6281 -0.3904
   27MOL0     C 3545  12.175   1.143   7.023  0.3770 -0.2651 -0.6160
   27MOL0     O 3546  12.075   1.142   6.927 -0.2788  1.0947 -0.2155
   27MOL0     C 3547  11.934   1.133   6.972 -0.0866 -0.0571 -0.3171
   27MOL0     C 3548  11.857   1.131   6.844 -0.6349 -0.4938 -0.3936
   27MOL0     C 3549  11.703   1.120   6.885 -0.3413 -0.3666  0.0035
   27MOL0     C 3550  11.643   0.998   6.819  1.1865  0.5137 -0.3313
   27MOL0     C 3551  11.492   0.986   6.870 -1.9130 -0.2640  0.9051
   27MOL0     C 3552  11.414   1.103   6.819 -0.4468 -0.4664 -0.0014
   27MOL0     C 3553  11.258   1.103   6.853  0.6625 -0.3796 -0.2018
   27MOL0     C 3554  11.175   1.075   6.731  0.9658 -0.2014  0.7719
   27MOL0    Cl 3555  11.010   1.016   6.782 -0.6551 -0.2758 -0.0414
   27MOL0     C 3556  12.150   1.142   7.157 -0.3750  0.8022 -0.7968
   27MOL0     C 3557  12.254   1.138   7.255  0.8415  0.6326 -0.0025
   27MOL0     O 3558  12.525   0.936   7.285  0.7050 -0.6295  0.1792
   27MOL0     C 3559  12.652   0.967   7.540  0.1421  0.1775 -0.3608
   27MOL0     C 3560  12.748   0.981   7.646  0.4441  0.2405 -0.6907
   27MOL0     N 3561  12.760   1.135   8.279 -0.3259  0.1448  0.0497
   27MOL0     N 3562  12.640   1.177   8.268 -0.3160  0.2003  0.1170
   27MOL0     C 3563  11.801   0.277   8.338 -0.4405 -0.2386  0.2149
   27MOL0     C 3564  11.728   0.173   8.390 -0.4714  0.2062  0.2559
   27MOL0     C 3565  11.378  -0.071   8.550  0.5219  0.6644  0.1658
   27MOL0     C 3566  11.411  -0.101   8.684 -0.1350 -0.1446  0.2064
   27MOL0     C 3567  11.350  -0.204   8.749  0.3025  0.8760 -0.2528
   27MOL0     C 3568  11.252  -0.277   8.680 -0.0871  1.0023  0.1191
   27MOL0     O 3569  11.206  -0.387   8.760 -0.4662  0.2304  1.0164
   27MOL0     C 3570  11.058  -0.397   8.774  0.2549 -0.6727 -0.6520
   27MOL0     C 3571  11.009  -0.535   8.740  0.2636 -0.0356 -0.7215
   27MOL0     C 3572  11.014  -0.554   8.586  0.7968  0.2118  0.3117
   27MOL0     C 3573  10.932  -0.677   8.551  0.4977 -0.1311 -0.0298
   27MOL0     C 3574  10.788  -0.637   8.539  0.8855  0.5520 -0.5178
   27MOL0     C 3575  10.676  -0.599   8.526  0.5383  0.3796 -0.4635
   27MOL0     C 3576  11.221  -0.251   8.538 -0.7477  0.0567  0.6322
   27MOL0     C 3577  11.282  -0.142   8.469  0.4069  0.1077  0.0239
   27MOL0     H 3578  11.520   0.336   8.598  2.8681  0.0602  2.8444
   27MOL0     H 3579  11.642   0.526   8.511 -1.1254  0.6532  1.6028
   27MOL0     H 3580  11.708   0.675   8.339 -0.0095  2.8026 -1.2084
   27MOL0     H 3581  11.856   0.678   8.444  2.7007  0.7587 -0.6682
   27MOL0     H 3582  11.844   0.732   8.160 -2.4203  0.7157  0.1041
   27MOL0     H 3583  11.901   0.841   8.292  1.7385  2.1152 -3.2145
   27MOL0     H 3584  12.100   0.683   8.346 -1.1896 -0.8721  0.6595
   27MOL0     H 3585  12.061   0.594   8.205 -1.2985  0.5012 -2.5920
   27MOL0     H 3586  12.225   0.727   8.117 -0.4723  2.1707 -3.0073
   27MOL0     H 3587  12.080   0.800   8.059 -1.2629 -1.9720  0.3653
   27MOL0     H 3588  12.111   0.963   8.244 -1.6811 -2.4709 -2.3152
   27MOL0     H 3589  12.240   0.856   8.312  0.6267 -0.8909 -1.0008
   27MOL0     H 3590  12.375   0.921   8.108  0.9873  0.4975  0.1091
   27MOL0     H 3591  12.235   1.012   8.043  0.9430 -2.4640 -1.0484
   27MOL0     H 3592  12.244   1.183   8.202  1.1127 -0.4314  1.3136
   27MOL0     H 3593  12.364   1.080   8.293  1.9422 -0.0046 -0.6400
   27MOL0     H 3594  12.444   1.283   8.147  0.4649 -0.5844  1.7413
   27MOL0     H 3595  12.429   1.165   8.019  1.3472  1.3565  0.3694
   27MOL0     H 3596  12.646   0.953   8.043  1.5399  1.1510 -1.5828
   27MOL0     H 3597  12.922   0.899   8.241  2.5853 -3.4538 -2.9647
   27MOL0     H 3598  12.875   0.896   8.066 -2.1718  0.3379 -0.3333
   27MOL0     H 3599  13.098   0.993   8.107  1.3182  2.8307  0.0768
   27MOL0     H 3600  13.026   1.136   8.181 -0.3030 -1.0158  0.2495
   27MOL0     H 3601  13.079   1.185   7.941 -0.5510 -0.7625 -2.3852
   27MOL0     H 3602  12.917   1.201   8.001  2.2661  1.6181  1.5058
   27MOL0     H 3603  12.837   1.010   7.891  1.2151  1.1530  2.3336
   27MOL0     H 3604  13.006   0.952   7.856  2.6915  1.8259 -2.6409
   27MOL0     H 3605  12.920   1.248   7.547 -1.3621  1.6653 -1.3901
   27MOL0     H 3606  12.685   1.328   7.323  0.0520  0.4774 -2.0586
   27MOL0     H 3607  12.867   1.298   7.330  0.4961 -2.1320  1.0391
   27MOL0     H 3608  12.754   1.210   7.219  0.1379 -1.6951  0.7206
   27MOL0     H 3609  12.510   1.220   7.051 -0.3390 -1.5391 -2.0204
   27MOL0     H 3610  12.330   1.180   6.885  0.5407  0.9860 -0.2847
   27MOL0     H 3611  11.918   1.041   7.028 -0.7982 -0.6809 -1.5108
   27MOL0     H 3612  11.906   1.219   7.035 -0.8688 -0.2812 -0.3481
   27MOL0     H 3613  11.869   1.224   6.788  0.4333 -0.8148 -0.7253
   27MOL0     H 3614  11.898   1.040   6.797  1.8739  0.7479 -0.7801
   27MOL0     H 3615  11.658   1.213   6.848  2.3092  1.5858  1.3189
   27MOL0     H 3616  11.687   1.124   6.993  0.8091  1.6919  0.1429
   27MOL0     H 3617  11.638   1.006   6.710 -1.0204 -1.2882 -0.4371
   27MOL0     H 3618  11.690   0.904   6.848 -2.0656 -0.7049  1.5297
   27MOL0     H 3619  11.488   0.975   6.979 -0.2419 -0.2317  0.9993
   27MOL0     H 3620  11.444   0.898   6.825  0.3326 -1.9762  1.6838
   27MOL0     H 3621  11.456   1.189   6.872 -1.0241  0.5162 -1.0911
   27MOL0     H 3622  11.439   1.118   6.714 -0.9382 -1.4200 -0.2663
   27MOL0     H 3623  11.237   1.202   6.894  1.0850 -0.4578  0.2189
   27MOL0     H 3624  11.237   1.033   6.935  0.1023  3.6121  3.4504
   27MOL0     H 3625  11.217   0.989   6.678  1.3628  0.2372  0.3700
   27MOL0     H 3626  11.169   1.159   6.660  3.2898 -1.1601 -0.6961
   27MOL0     H 3627  12.053   1.138   7.206  0.3343 -2.9011  0.5875
   27MOL0     H 3628  12.234   1.117   7.360  1.4459  2.6980  0.5586
   27MOL0     H 3629  12.585   0.882   7.547 -0.3856  0.4472 -1.8225
   27MOL0     H 3630  12.743   0.911   7.728 -1.4885  0.9847 -0.0939
   27MOL0     H 3631  11.890   0.264   8.277 -0.5645  0.0635 -0.0331
   27MOL0     H 3632  11.742   0.067   8.370  1.5374  0.0470  2.1712
   27MOL0     H 3633  11.488  -0.048   8.739 -1.3243 -0.3198  2.1276
   27MOL0     H 3634  11.372  -0.225   8.853 -2.8071  0.8894  0.5150
   27MOL0     H 3635  11.028  -0.365   8.874  1.5863 -4.7623  1.3113
   27MOL0     H 3636  11.021  -0.330   8.696 -0.1323  0.1941  0.2567
   27MOL0     H 3637  10.913  -0.557   8.788 -0.5869  1.4258 -1.6753
   27MOL0     H 3638  11.076  -0.607   8.788  0.5759  1.1131  0.6514
   27MOL0     H 3639  11.113  -0.575   8.543 -0.7519  1.3168 -4.4530
   27MOL0     H 3640  10.973  -0.471   8.528 -1.4597 -1.5756 -0.8263
   27MOL0     H 3641  10.933  -0.751   8.631 -0.5778 -0.7246 -0.5492
   27MOL0     H 3642  10.980  -0.723   8.464  0.8263 -1.3573  0.7693
   27MOL0     H 3643  10.579  -0.554   8.526 -1.1484 -2.9263 -0.0075
   27MOL0     H 3644  11.143  -0.311   8.491 -0.9644 -0.4711  1.6487
   27MOL0     H 3645  11.269  -0.126   8.363  2.0695  0.3310 -0.1653
   28MOL0     O 3646   9.886   6.176  10.266  0.3434  0.7329  0.1350
   28MOL0     C 3647   9.900   6.141  10.383 -0.5597  0.2805 -0.1177
   28MOL0     O 3648  10.012   6.173  10.460  0.2912  0.1141 -0.9638
   28MOL0     C 3649  10.106   6.253  10.400  0.3503 -0.3886  1.1721
   28MOL0     C 3650  10.179   6.218  10.279 -0.9774 -0.8453 -0.0412
   28MOL0     C 3651  10.264   6.304  10.211 -0.3877 -0.2433 -1.1542
   28MOL0     C 3652  10.289   6.427  10.273 -0.6219 -1.6829  0.3767
   28MOL0     O 3653  10.374   6.518  10.221 -0.4172 -0.1996  0.4631
   28MOL0     C 3654  10.361   6.532  10.081 -0.3852  0.6435  0.6180
   28MOL0     C 3655  10.437   6.645  10.030 -0.1681  0.5465  0.7360
   28MOL0     C 3656  10.357   6.741   9.941  0.1716 -0.5663  0.2793
   28MOL0     C 3657  10.461   6.841   9.882  0.0426 -0.3379  0.9901
   28MOL0     C 3658  10.399   6.947   9.780 -0.1571  0.8972  0.1828
   28MOL0     C 3659  10.328   6.890   9.658 -1.2137  0.3566  0.8825
   28MOL0     C 3660  10.259   6.998   9.564 -0.1702  0.1929  0.5237
   28MOL0     C 3661  10.201   6.917   9.445 -0.5550 -0.4732 -0.2924
   28MOL0     N 3662  10.274   6.962   9.330  0.3195  0.3340 -0.3491
   28MOL0     C 3663  10.407   6.938   9.307  0.6150  0.5984 -0.3649
   28MOL0     C 3664  10.431   6.983   9.183 -0.8665 -0.3649 -0.6636
   28MOL0     C 3665  10.546   6.946   9.104 -0.9237 -0.8396  0.4164
   28MOL0     C 3666  10.624   7.078   9.078 -0.5523  0.3377  0.0887
   28MOL0     C 3667  10.776   7.056   9.071  0.9379 -0.2281  0.5349
   28MOL0     C 3668  10.841   7.047   9.209  0.2215 -0.3386  0.4000
   28MOL0     O 3669  10.979   7.014   9.188 -0.1881  0.1082  0.0826
   28MOL0     C 3670  11.051   6.992   9.306  0.2586 -0.4182  0.0388
   28MOL0     C 3671  11.135   6.885   9.305 -0.1355  0.8347 -0.6140
   28MOL0     C 3672  11.222   6.852   9.419  0.4053 -0.2039 -0.0021
   28MOL0     C 3673  11.338   6.756   9.392 -0.2010 -0.6992  0.3945
   28MOL0     C 3674  11.204   6.924   9.539  1.3869 -0.4468 -0.0801
   28MOL0     C 3675  11.273   6.906   9.658 -0.0738 -0.2922 -0.9115
   28MOL0     O 3676  11.279   7.007   9.745  0.1603  0.0586  0.6832
   28MOL0     C 3677  11.324   6.981   9.871 -1.2605  0.1377 -0.0510
   28MOL0     C 3678  11.461   7.009   9.915  0.1756  0.1690 -0.2420
   28MOL0     C 3679  11.498   6.993  10.053  0.9286  0.7428  0.4200
   28MOL0     C 3680  11.403   6.961  10.157 -0.3499 -0.0060 -0.6761
   28MOL0     O 3681  11.442   6.933  10.294  0.5849 -0.4715 -0.6514
   28MOL0     C 3682  11.543   7.015  10.349 -1.0348  0.2601  0.8824
   28MOL0     C 3683  11.499   7.164  10.360  0.6713  0.0928 -0.0450
   28MOL0     C 3684  11.377   7.187  10.450  0.9259 -0.4772 -0.1753
   28MOL0     C 3685  11.401   7.147  10.598 -1.0925 -0.4294  0.3616
   28MOL0     C 3686  11.288   7.193  10.694 -0.6483  0.1046 -0.1515
   28MOL0     C 3687  11.276   7.347  10.709 -0.9661  0.4947 -0.3911
   28MOL0     C 3688  11.191   7.374  10.836 -0.6219  0.1326 -0.1392
   28MOL0     C 3689  11.177   7.526  10.862 -0.1452  0.9206 -0.7407
   28MOL0    Cl 3690  11.325   7.604  10.917 -0.1169  0.2807  0.3564
   28MOL0     C 3691  11.280   6.922  10.107  0.0249 -0.4757 -0.2520
   28MOL0     C 3692  11.245   6.926   9.968  0.3297 -0.3093  1.1976
   28MOL0     O 3693  11.336   6.804   9.679  0.5277  0.8215  0.0387
   28MOL0     C 3694  11.113   7.037   9.536  1.0511 -0.7305 -0.5481
   28MOL0     C 3695  11.036   7.069   9.423  0.5918  0.0331 -0.0382
   28MOL0     N 3696  10.325   7.059   9.150  0.1583 -0.0560 -0.1214
   28MOL0     N 3697  10.223   7.045   9.232 -0.5376  0.5830 -0.6243
   28MOL0     C 3698  10.236   6.452  10.396  0.7496  0.0933 -1.0587
   28MOL0     C 3699  10.149   6.366  10.468  0.5398  0.4605 -0.4009
   28MOL0     C 3700   9.787   6.061  10.438 -0.0957 -1.1240 -0.1562
   28MOL0     C 3701   9.816   5.996  10.556 -0.1601 -0.2654  0.9961
   28MOL0     C 3702   9.737   5.901  10.606 -0.2035  0.4231  0.3700
   28MOL0     C 3703   9.609   5.886  10.542  1.1455  1.5177 -0.2195
   28MOL0     O 3704   9.530   5.798  10.605 -0.0427  0.0120 -0.0492
   28MOL0     C 3705   9.409   5.745  10.534 -0.5921  0.1232  0.2656
   28MOL0     C 3706   9.364   5.606  10.573 -1.3156 -0.6539  0.0678
   28MOL0     C 3707   9.477   5.504  10.598  1.1183 -0.3596  0.7353
   28MOL0     C 3708   9.419   5.361  10.617 -0.1070 -0.4203 -0.0277
   28MOL0     C 3709   9.342   5.341  10.741 -0.6588  0.4026  0.4157
   28MOL0     C 3710   9.279   5.317  10.848  0.3326  0.8154  0.7392
   28MOL0     C 3711   9.576   5.953  10.430  0.3722 -0.5075  0.6001
   28MOL0     C 3712   9.668   6.040  10.374  0.4840  0.0823 -0.0695
   28MOL0     H 3713  10.153   6.130  10.220  0.0806 -0.2445 -1.4662
   28MOL0     H 3714  10.318   6.278  10.120 -1.4671 -0.7507 -1.6765
   28MOL0     H 3715  10.386   6.449  10.015  0.6972 -0.5294  2.4210
   28MOL0     H 3716  10.255   6.545  10.055 -0.1149  0.3103 -0.7119
   28MOL0     H 3717  10.482   6.701  10.112  0.5535 -1.4189  1.7327
   28MOL0     H 3718  10.519   6.600   9.973  0.0602  0.4816  1.1184
   28MOL0     H 3719  10.303   6.683   9.866  0.2741 -0.3230  0.0160
   28MOL0     H 3720  10.276   6.785  10.001 -0.3569 -1.9928  0.6569
   28MOL0     H 3721  10.516   6.882   9.966  0.0760 -1.7847  1.7098
   28MOL0     H 3722  10.531   6.787   9.818 -1.3810 -2.0706  0.7923
   28MOL0     H 3723  10.309   6.979   9.834 -1.1506  1.1363 -1.5685
   28MOL0     H 3724  10.469   7.031   9.769  0.0498  1.2175  3.0936
   28MOL0     H 3725  10.406   6.830   9.611 -0.1626 -0.4043  3.4354
   28MOL0     H 3726  10.251   6.816   9.681 -2.5291  1.2790 -0.3640
   28MOL0     H 3727  10.176   7.041   9.620 -2.2430 -1.9199 -0.7301
   28MOL0     H 3728  10.327   7.078   9.531  0.0588  0.9016  2.5847
   28MOL0     H 3729  10.096   6.939   9.425  0.4537  3.7576 -1.8309
   28MOL0     H 3730  10.212   6.808   9.453 -1.2822 -0.4584  1.4849
   28MOL0     H 3731  10.466   6.864   9.360  0.9040 -1.5495 -3.4486
   28MOL0     H 3732  10.609   6.874   9.158  2.3555  1.1408 -0.4225
   28MOL0     H 3733  10.524   6.900   9.008  1.8829 -2.8445  0.5915
   28MOL0     H 3734  10.610   7.162   9.147 -0.7893  2.5845 -2.5165
   28MOL0     H 3735  10.592   7.126   8.985  2.5286  0.3534 -1.0595
   28MOL0     H 3736  10.813   7.140   9.011  1.1710 -0.1710  0.7578
   28MOL0     H 3737  10.806   6.963   9.022  2.1727 -0.2156  1.2323
   28MOL0     H 3738  10.793   6.968   9.268 -1.6281  0.6120  0.2178
   28MOL0     H 3739  10.823   7.138   9.267  0.2535 -2.6338  4.3994
   28MOL0     H 3740  11.141   6.824   9.215  0.2156  3.0570 -2.1889
   28MOL0     H 3741  11.440   6.787   9.416 -0.2228 -0.9718  0.8543
   28MOL0     H 3742  11.331   6.662   9.449 -1.5707 -0.6042  0.4228
   28MOL0     H 3743  11.338   6.734   9.285 -1.2280  3.3165 -0.5999
   28MOL0     H 3744  11.543   7.043   9.852 -1.0697  0.4679 -1.7632
   28MOL0     H 3745  11.598   7.009  10.091  1.5656 -2.2994  0.2729
   28MOL0     H 3746  11.561   6.997  10.455  0.6764 -0.5281  0.4929
   28MOL0     H 3747  11.641   6.999  10.302 -1.5061  1.8384 -0.7863
   28MOL0     H 3748  11.570   7.231  10.410  0.8466 -1.3434  1.7539
   28MOL0     H 3749  11.477   7.213  10.265  2.4679  3.8544  1.2650
   28MOL0     H 3750  11.291   7.139  10.402  1.4986 -0.7613 -0.9436
   28MOL0     H 3751  11.349   7.292  10.445  0.0226 -0.5140  2.4618
   28MOL0     H 3752  11.419   7.041  10.614  0.3100 -0.1203  0.9647
   28MOL0     H 3753  11.487   7.208  10.628 -0.0883 -1.7582  0.2908
   28MOL0     H 3754  11.311   7.155  10.794  0.1255 -1.5071 -0.9223
   28MOL0     H 3755  11.193   7.151  10.659 -0.4715 -1.6616  1.3447
   28MOL0     H 3756  11.374   7.393  10.720 -0.3796 -1.1025  1.9030
   28MOL0     H 3757  11.224   7.387  10.621 -0.4480  2.3991  0.1189
   28MOL0     H 3758  11.225   7.312  10.919 -0.8750 -1.5791 -1.2744
   28MOL0     H 3759  11.093   7.331  10.816  1.0750 -2.8329 -2.8823
   28MOL0     H 3760  11.091   7.548  10.926  1.2759  2.3070  0.8265
   28MOL0     H 3761  11.153   7.580  10.770  0.5108  0.3624 -1.2528
   28MOL0     H 3762  11.216   6.875  10.180 -1.5725  4.0681  1.6270
   28MOL0     H 3763  11.154   6.874   9.939  1.1075  0.2225 -2.7563
   28MOL0     H 3764  11.099   7.103   9.621  2.1494 -0.3736 -0.6238
   28MOL0     H 3765  10.974   7.158   9.429 -0.8043 -0.8459 -0.8245
   28MOL0     H 3766  10.274   6.525  10.467 -1.4429 -0.7329  1.0883
   28MOL0     H 3767  10.110   6.396  10.565  1.3202 -1.1267  0.4449
   28MOL0     H 3768   9.908   6.011  10.612  1.5528  1.3382 -1.9570
   28MOL0     H 3769   9.755   5.841  10.695  1.5505 -0.9172 -0.8450
   28MOL0     H 3770   9.322   5.811  10.534  1.2008  2.6692 -1.1796
   28MOL0     H 3771   9.426   5.740  10.426 -0.2375  2.9091  0.1210
   28MOL0     H 3772   9.302   5.593  10.483  2.9094  1.9848 -3.6516
   28MOL0     H 3773   9.310   5.610  10.668  2.5757 -0.0669  2.4863
   28MOL0     H 3774   9.514   5.525  10.699  0.6143  0.3366  0.7827
   28MOL0     H 3775   9.546   5.507  10.513 -3.6098  1.0834 -3.5443
   28MOL0     H 3776   9.503   5.291  10.609  5.0043  4.9358  0.1929
   28MOL0     H 3777   9.354   5.342  10.531 -0.5791 -3.8274  0.9381
   28MOL0     H 3778   9.234   5.294  10.942 -2.9766 -0.2850 -0.9480
   28MOL0     H 3779   9.480   5.935  10.382  0.1858 -2.3759  1.5723
   28MOL0     H 3780   9.635   6.094  10.286  1.3941 -0.1926 -0.5977
   29MOL0     O 3781   3.611   9.649   1.832 -0.5091  0.4226  1.0146
   29MOL0     C 3782   3.538   9.684   1.738 -0.0176 -1.4982 -0.5449
   29MOL0     O 3783   3.461   9.605   1.664  0.5554 -0.1717  0.1747
   29MOL0     C 3784   3.492   9.467   1.663  0.4673 -0.4413 -0.2621
   29MOL0     C 3785   3.611   9.409   1.627 -0.2913  0.4300  0.5201
   29MOL0     C 3786   3.619   9.271   1.603 -0.4765  0.1267 -0.1828
   29MOL0     C 3787   3.509   9.186   1.629  0.5773 -1.0335  0.7019
   29MOL0     O 3788   3.531   9.051   1.637 -0.3791 -0.0476  0.4170
   29MOL0     C 3789   3.423   8.962   1.624  0.5514 -0.7180 -0.3698
   29MOL0     C 3790   3.474   8.829   1.576 -0.7208  1.0957 -0.6515
   29MOL0     C 3791   3.347   8.745   1.566 -0.1165 -1.1046  1.0624
   29MOL0     C 3792   3.375   8.608   1.511  0.1997 -0.0959 -0.4549
   29MOL0     C 3793   3.250   8.533   1.470  1.1666  0.7549 -0.6401
   29MOL0     C 3794   3.288   8.419   1.375 -0.2653  0.3479 -0.0539
   29MOL0     C 3795   3.165   8.343   1.313  1.4009  0.0188  0.5538
   29MOL0     C 3796   3.055   8.300   1.409  0.3431 -0.0562  0.3646
   29MOL0     N 3797   2.942   8.233   1.338  0.1697  0.9425  0.3757
   29MOL0     C 3798   2.868   8.118   1.386 -0.4031  0.4947  0.1418
   29MOL0     C 3799   2.802   8.078   1.275  0.4389 -0.2088  0.2136
   29MOL0     C 3800   2.717   7.951   1.287 -0.1071 -1.0276  0.5252
   29MOL0     C 3801   2.667   7.910   1.147  0.1064  0.2076  0.0842
   29MOL0     C 3802   2.543   7.998   1.104  0.5898 -1.2805  0.2400
   29MOL0     C 3803   2.539   8.005   0.946  0.2112  0.1942 -0.4071
   29MOL0     O 3804   2.533   7.868   0.892  0.0073 -0.3075 -0.0301
   29MOL0     C 3805   2.425   7.823   0.815  1.4068 -0.5795 -0.3273
   29MOL0     C 3806   2.313   7.899   0.779  0.8614  0.0487 -1.1344
   29MOL0     C 3807   2.217   7.848   0.691  0.9754  0.2706  0.4905
   29MOL0     C 3808   2.100   7.948   0.645 -0.0074  0.5969  0.3351
   29MOL0     C 3809   2.229   7.723   0.630 -0.1836  0.0537  0.1722
   29MOL0     C 3810   2.132   7.667   0.533  0.0794  0.6114 -0.2262
   29MOL0     O 3811   2.153   7.548   0.467  0.9190  0.5252 -0.0768
   29MOL0     C 3812   2.067   7.505   0.366 -0.0617  0.2994 -0.8227
   29MOL0     C 3813   2.093   7.535   0.229  1.0394 -0.6983  0.4915
   29MOL0     C 3814   2.001   7.493   0.126  0.3140 -0.3921 -0.0355
   29MOL0     C 3815   1.879   7.438   0.162  1.0013  0.2293 -0.6783
   29MOL0     O 3816   1.799   7.401   0.061 -0.2203 -0.3826 -0.1696
   29MOL0     C 3817   1.657   7.373   0.072  0.6082  0.2542  0.2682
   29MOL0     C 3818   1.562   7.484   0.101  0.3144 -0.4425 -1.1384
   29MOL0     C 3819   1.563   7.605  -0.002  0.4898 -0.1660  1.1662
   29MOL0     C 3820   1.527   7.552  -0.143 -0.0888 -0.1640  0.1190
   29MOL0     C 3821   1.379   7.520  -0.158  0.0027 -1.0101 -0.3345
   29MOL0     C 3822   1.339   7.469  -0.296  0.2128 -0.9416 -0.8613
   29MOL0     C 3823   1.388   7.325  -0.309 -0.3674  0.4596  0.8245
   29MOL0     C 3824   1.445   7.305  -0.442  0.4848 -0.5384 -0.4383
   29MOL0    Cl 3825   1.351   7.390  -0.576  0.1706 -0.0244  0.1281
   29MOL0     C 3826   1.846   7.420   0.299  0.1894  0.6356  0.2262
   29MOL0     C 3827   1.941   7.442   0.404 -1.1253  0.5012  0.5599
   29MOL0     O 3828   2.021   7.724   0.540  0.0315  0.0884  1.3455
   29MOL0     C 3829   2.349   7.649   0.660  0.7173 -0.0974 -0.1008
   29MOL0     C 3830   2.440   7.702   0.752  1.1842 -0.5424  0.0344
   29MOL0     N 3831   2.812   8.175   1.178 -0.0948 -0.7147 -0.3951
   29MOL0     N 3832   2.907   8.263   1.211 -0.5285  0.0398  0.7767
   29MOL0     C 3833   3.390   9.246   1.669  0.1198 -0.2486 -0.1663
   29MOL0     C 3834   3.379   9.381   1.688 -1.0212  0.3269  0.9099
   29MOL0     C 3835   3.534   9.834   1.712 -0.2306 -0.6426 -0.6104
   29MOL0     C 3836   3.593   9.927   1.802 -0.5377 -0.1469 -0.1406
   29MOL0     C 3837   3.576  10.065   1.794 -0.4046  0.8015 -0.4008
   29MOL0     C 3838   3.485  10.116   1.707 -0.4749  0.0835  1.1312
   29MOL0     O 3839   3.452  10.249   1.733 -0.1488  0.2269 -0.6599
   29MOL0     C 3840   3.330  10.298   1.684  0.1458  0.2858 -0.7438
   29MOL0     C 3841   3.373  10.428   1.613  0.5617  0.4716  0.4144
   29MOL0     C 3842   3.490  10.516   1.667  0.2312  0.5350 -0.8860
   29MOL0     C 3843   3.532  10.627   1.575  0.3232  0.1046 -0.1150
   29MOL0     C 3844   3.620  10.717   1.647 -0.0378 -0.4084  0.0172
   29MOL0     C 3845   3.710  10.799   1.683  1.1044  1.0519  0.5273
   29MOL0     C 3846   3.424  10.033   1.612 -0.4641 -0.1267  0.0107
   29MOL0     C 3847   3.457   9.899   1.617  0.9575 -0.5324 -0.3671
   29MOL0     H 3848   3.688   9.482   1.601  0.5472 -0.3120  0.8856
   29MOL0     H 3849   3.701   9.214   1.561  0.4893 -0.1061  1.9074
   29MOL0     H 3850   3.365   8.950   1.716  1.5409  1.6779  0.6425
   29MOL0     H 3851   3.355   9.007   1.551 -1.9163 -1.7858  1.1525
   29MOL0     H 3852   3.530   8.826   1.482  2.0415 -2.5290  0.8702
   29MOL0     H 3853   3.527   8.778   1.657 -2.0441  0.2314 -0.3016
   29MOL0     H 3854   3.302   8.735   1.665 -0.4986 -0.3193  0.9771
   29MOL0     H 3855   3.271   8.789   1.500  0.2080  1.6383  2.3915
   29MOL0     H 3856   3.439   8.611   1.422  0.9796  2.2172  0.1144
   29MOL0     H 3857   3.415   8.537   1.583  1.0096  0.6302 -0.1731
   29MOL0     H 3858   3.196   8.496   1.558  1.0530 -2.9027 -2.0757
   29MOL0     H 3859   3.179   8.591   1.411 -2.1383 -0.2233  2.0482
   29MOL0     H 3860   3.339   8.471   1.294  0.1210  2.3176  1.3890
   29MOL0     H 3861   3.354   8.350   1.428 -0.4035 -0.1284 -0.4985
   29MOL0     H 3862   3.122   8.416   1.243  0.4169 -0.4801  0.6258
   29MOL0     H 3863   3.199   8.273   1.236  0.5913  3.0710 -2.8970
   29MOL0     H 3864   3.014   8.389   1.458  1.0391  1.1614 -1.1670
   29MOL0     H 3865   3.105   8.231   1.478 -0.1831  1.0041  1.8647
   29MOL0     H 3866   2.867   8.071   1.484 -3.4750  0.7846  0.3332
   29MOL0     H 3867   2.786   7.872   1.316  0.6694  0.4239  2.8695
   29MOL0     H 3868   2.635   7.961   1.360 -0.2955 -0.2294  0.2121
   29MOL0     H 3869   2.639   7.805   1.153  2.3973 -0.4712 -0.0602
   29MOL0     H 3870   2.750   7.932   1.080 -1.1523  3.7837 -0.5387
   29MOL0     H 3871   2.548   8.094   1.156  0.8396 -3.7877  5.4900
   29MOL0     H 3872   2.443   7.955   1.119 -0.9925  0.7809 -3.1450
   29MOL0     H 3873   2.631   8.049   0.906  1.0762 -1.0893  0.1118
   29MOL0     H 3874   2.456   8.069   0.914 -0.3309  0.1175  0.7974
   29MOL0     H 3875   2.302   7.990   0.838  0.7002  0.9490 -2.5109
   29MOL0     H 3876   2.109   8.042   0.701 -0.7415 -0.4092  2.2448
   29MOL0     H 3877   2.100   7.955   0.536 -1.5600 -2.1841  0.0657
   29MOL0     H 3878   2.007   7.903   0.681 -1.3014  1.4056 -1.8042
   29MOL0     H 3879   2.183   7.590   0.205 -0.1650  1.9401  1.5790
   29MOL0     H 3880   2.019   7.519   0.022  2.0976  1.4469  0.6559
   29MOL0     H 3881   1.624   7.314  -0.014  0.7122 -2.5259  1.9970
   29MOL0     H 3882   1.646   7.306   0.158  0.5311 -0.4009 -0.2423
   29MOL0     H 3883   1.456   7.455   0.106 -0.8033  3.1906 -1.1590
   29MOL0     H 3884   1.585   7.528   0.199  1.1481 -2.6123 -0.2816
   29MOL0     H 3885   1.668   7.637  -0.002 -0.0969  2.1007 -1.4191
   29MOL0     H 3886   1.495   7.682   0.033 -0.2645  1.3526 -3.0436
   29MOL0     H 3887   1.563   7.615  -0.225  0.8541 -2.8534 -1.6504
   29MOL0     H 3888   1.586   7.463  -0.165  1.2521  0.9832 -1.1838
   29MOL0     H 3889   1.308   7.599  -0.135 -0.2543 -0.9045 -1.4730
   29MOL0     H 3890   1.373   7.433  -0.091  0.8626 -1.2044 -0.4917
   29MOL0     H 3891   1.230   7.471  -0.307  0.0047 -1.1076  0.8381
   29MOL0     H 3892   1.383   7.538  -0.368  0.1879 -1.5026 -1.4284
   29MOL0     H 3893   1.304   7.257  -0.293  0.8872 -0.9500  1.6626
   29MOL0     H 3894   1.471   7.297  -0.242  1.3927  3.4305  0.0647
   29MOL0     H 3895   1.458   7.199  -0.467 -0.5962 -0.7027 -0.3543
   29MOL0     H 3896   1.546   7.346  -0.443  0.4913 -0.5480 -0.0689
   29MOL0     H 3897   1.752   7.378   0.333  0.2811 -1.5833 -1.9818
   29MOL0     H 3898   1.933   7.424   0.511 -2.8281 -1.4413  0.1725
   29MOL0     H 3899   2.355   7.550   0.616 -3.3343 -0.1203 -0.9868
   29MOL0     H 3900   2.525   7.639   0.777  0.6805 -0.7798  1.2049
   29MOL0     H 3901   3.307   9.191   1.711 -1.1032  1.5002 -0.2158
   29MOL0     H 3902   3.290   9.434   1.720 -1.5091  0.1140 -0.0637
   29MOL0     H 3903   3.662   9.875   1.868 -1.2443 -1.4881 -0.4071
   29MOL0     H 3904   3.617  10.128   1.872 -4.3344  1.7360  1.1319
   29MOL0     H 3905   3.270  10.230   1.622  2.3277 -0.9696 -1.5996
   29MOL0     H 3906   3.275  10.322   1.775  3.3309  0.0332  1.4264
   29MOL0     H 3907   3.282  10.486   1.591 -0.3870 -1.8938 -2.3658
   29MOL0     H 3908   3.400  10.402   1.511 -2.9667  2.6958 -1.2986
   29MOL0     H 3909   3.576  10.452   1.688 -2.0692 -2.2328  0.9498
   29MOL0     H 3910   3.470  10.559   1.766  1.0645 -2.7615  0.8454
   29MOL0     H 3911   3.450  10.680   1.525  2.0312  1.0924 -2.0170
   29MOL0     H 3912   3.585  10.576   1.495  0.5386 -0.8581  0.6154
   29MOL0     H 3913   3.778  10.868   1.729  1.1910 -0.6833  3.2117
   29MOL0     H 3914   3.358  10.060   1.530  0.2077  2.2173  0.1818
   29MOL0     H 3915   3.400   9.827   1.560 -0.5505 -2.2735  3.0203
   30MOL0     O 3916  10.107   9.884   2.427  0.1432 -0.1404 -0.1803
   30MOL0     C 3917  10.214   9.886   2.364  0.3182  0.6400 -1.2203
   30MOL0     O 3918  10.236   9.825   2.242 -0.2688 -0.5029 -0.2681
   30MOL0     C 3919  10.145   9.756   2.173 -0.7969 -0.1613  0.3447
   30MOL0     C 3920  10.027   9.692   2.219 -1.3372 -0.1025  0.3947
   30MOL0     C 3921   9.937   9.633   2.121  0.1165  0.0286  0.2124
   30MOL0     C 3922   9.975   9.627   1.987  0.5635  0.4935 -1.6031
   30MOL0     O 3923   9.892   9.577   1.887  0.0378  0.3856  0.9092
   30MOL0     C 3924   9.759   9.543   1.905  0.0522  0.4667  0.6727
   30MOL0     C 3925   9.715   9.497   1.768  0.5586 -0.3862  0.8546
   30MOL0     C 3926   9.566   9.479   1.759 -0.9808 -0.0422 -0.3710
   30MOL0     C 3927   9.512   9.413   1.637  0.0169  0.2993 -0.1342
   30MOL0     C 3928   9.352   9.402   1.635  0.4290  0.5370 -0.2730
   30MOL0     C 3929   9.298   9.324   1.516  0.0041 -0.3981 -0.0714
   30MOL0     C 3930   9.331   9.397   1.384  0.4553  0.3560 -0.5766
   30MOL0     C 3931   9.281   9.537   1.386  0.2694  0.2231 -0.5315
   30MOL0     N 3932   9.306   9.603   1.258  0.0513  0.3175  0.3707
   30MOL0     C 3933   9.415   9.687   1.245 -0.5858 -0.2492  0.3066
   30MOL0     C 3934   9.394   9.733   1.117  0.7920  0.4249 -0.5347
   30MOL0     C 3935   9.477   9.843   1.056  0.0784  0.5787  0.1552
   30MOL0     C 3936   9.572   9.770   0.951  0.0990 -0.6267  1.0750
   30MOL0     C 3937   9.666   9.872   0.893  0.3505  0.6511  0.1510
   30MOL0     C 3938   9.766   9.805   0.795  0.9333  0.3684  0.3783
   30MOL0     O 3939   9.834   9.692   0.834 -0.4587  0.1039 -0.1229
   30MOL0     C 3940   9.802   9.568   0.790  0.5591  0.4030 -0.7274
   30MOL0     C 3941   9.900   9.464   0.801 -0.1488 -0.0725  0.7419
   30MOL0     C 3942   9.890   9.334   0.739  0.4025 -0.5834 -0.1951
   30MOL0     C 3943  10.004   9.229   0.743 -0.6161 -0.8440  0.1413
   30MOL0     C 3944   9.766   9.299   0.679 -0.1513  0.1484  0.2957
   30MOL0     C 3945   9.738   9.162   0.615  0.2543  0.5274 -0.0961
   30MOL0     O 3946   9.620   9.163   0.532  0.1967  0.2348  0.9867
   30MOL0     C 3947   9.592   9.073   0.433 -1.4976  0.5759  0.5812
   30MOL0     C 3948   9.559   8.937   0.456 -0.0023  0.0981 -0.0702
   30MOL0     C 3949   9.551   8.840   0.355  0.0643 -1.4686 -0.1456
   30MOL0     C 3950   9.593   8.869   0.235 -0.0645 -0.2405  0.2629
   30MOL0     O 3951   9.584   8.767   0.143 -0.6085  0.2370  0.1565
   30MOL0     C 3952   9.675   8.752   0.027 -0.8909  0.8626  0.2303
   30MOL0     C 3953   9.650   8.613  -0.041 -1.0822 -0.0079 -1.1434
   30MOL0     C 3954   9.776   8.518  -0.026 -0.2397  0.6100  0.1743
   30MOL0     C 3955   9.893   8.540  -0.135  0.3083 -0.3577  0.6853
   30MOL0     C 3956   9.976   8.413  -0.163 -0.1606  0.2802  0.3230
   30MOL0     C 3957  10.083   8.429  -0.284  0.0575  0.5363 -0.3334
   30MOL0     C 3958  10.109   8.298  -0.354 -0.0141 -0.2950 -0.4509
   30MOL0     C 3959  10.223   8.216  -0.284 -0.0428  0.9372  0.9331
   30MOL0    Cl 3960  10.374   8.311  -0.266 -0.0937  0.1762 -0.3264
   30MOL0     C 3961   9.637   9.002   0.196  0.0234 -0.0740  0.2073
   30MOL0     C 3962   9.633   9.101   0.297  0.5191 -0.4651 -0.3894
   30MOL0     O 3963   9.823   9.077   0.612  0.1642  0.4712 -0.1651
   30MOL0     C 3964   9.670   9.396   0.669  0.1046 -0.7303 -0.0525
   30MOL0     C 3965   9.699   9.536   0.717  0.5420 -0.6441  1.1222
   30MOL0     N 3966   9.295   9.658   1.051  0.1837  0.5691  0.0612
   30MOL0     N 3967   9.236   9.578   1.148  0.5367  0.2670  0.6521
   30MOL0     C 3968  10.099   9.676   1.953 -0.5306 -0.2422  0.5233
   30MOL0     C 3969  10.185   9.744   2.040 -0.7949  0.6612  0.7836
   30MOL0     C 3970  10.325   9.966   2.422 -0.1143  0.7560 -0.8496
   30MOL0     C 3971  10.304  10.055   2.526  0.5718 -0.3342  0.0693
   30MOL0     C 3972  10.402  10.134   2.581 -0.1485  0.3625 -0.1217
   30MOL0     C 3973  10.534  10.114   2.554  0.7473  0.0037  0.4332
   30MOL0     O 3974  10.627  10.189   2.617  0.3447 -0.3924 -0.6621
   30MOL0     C 3975  10.750  10.226   2.549 -0.7310  0.3424 -0.7631
   30MOL0     C 3976  10.720  10.346   2.451 -0.0641 -0.7897 -0.0803
   30MOL0     C 3977  10.660  10.475   2.519  0.2341  0.6891  0.5427
   30MOL0     C 3978  10.630  10.585   2.411  0.5034 -0.6926 -0.2036
   30MOL0     C 3979  10.753  10.652   2.359 -0.2035 -0.5735 -0.3209
   30MOL0     C 3980  10.833  10.729   2.321  0.2883 -0.3851  0.7327
   30MOL0     C 3981  10.569  10.004   2.467  0.8603 -0.2867  1.5569
   30MOL0     C 3982  10.468   9.949   2.390 -0.8964  0.5092 -0.6107
   30MOL0     H 3983   9.994   9.695   2.322 -0.9273  1.9554  0.5073
   30MOL0     H 3984   9.843   9.589   2.152  0.5311  0.2574  1.8928
   30MOL0     H 3985   9.754   9.458   1.974  0.7156  1.1668  1.6186
   30MOL0     H 3986   9.704   9.626   1.950  1.9201  0.9835  2.1855
   30MOL0     H 3987   9.736   9.561   1.682 -1.3662  0.3833  0.9118
   30MOL0     H 3988   9.769   9.409   1.733  0.9352 -0.6746  2.1108
   30MOL0     H 3989   9.534   9.424   1.848 -0.1217 -0.8423 -0.5538
   30MOL0     H 3990   9.517   9.578   1.762 -1.6258 -0.3689  0.7615
   30MOL0     H 3991   9.536   9.461   1.542 -4.4353 -0.6324 -2.0053
   30MOL0     H 3992   9.551   9.312   1.622 -0.4325  0.0980  0.0399
   30MOL0     H 3993   9.321   9.343   1.722 -0.8060  4.6604  2.3750
   30MOL0     H 3994   9.307   9.502   1.644  1.3472  1.2950 -3.0621
   30MOL0     H 3995   9.342   9.224   1.510  0.6583 -0.0439 -1.8060
   30MOL0     H 3996   9.192   9.314   1.543  0.7864 -0.4158  3.4018
   30MOL0     H 3997   9.437   9.386   1.359  0.6072  2.9044 -1.3617
   30MOL0     H 3998   9.269   9.347   1.310  0.1257 -0.0194 -0.0511
   30MOL0     H 3999   9.315   9.608   1.463 -1.1970 -1.0533  1.3766
   30MOL0     H 4000   9.174   9.530   1.407  0.8806  0.7984  3.6403
   30MOL0     H 4001   9.495   9.717   1.311 -1.9145 -0.7551  2.2692
   30MOL0     H 4002   9.424   9.927   1.010 -1.8943 -0.8540 -0.2721
   30MOL0     H 4003   9.550   9.880   1.129 -0.6613 -0.8745  1.6946
   30MOL0     H 4004   9.500   9.730   0.879 -1.2971  2.6302  0.4769
   30MOL0     H 4005   9.623   9.686   1.000 -4.9077 -4.3906  0.6807
   30MOL0     H 4006   9.725   9.898   0.981 -0.6534  0.7953  0.7927
   30MOL0     H 4007   9.635   9.964   0.842  3.0017  1.9395  0.6454
   30MOL0     H 4008   9.841   9.881   0.769  0.0246  1.1330 -0.0808
   30MOL0     H 4009   9.706   9.796   0.704 -0.8530  0.1649  1.5259
   30MOL0     H 4010   9.986   9.477   0.866 -0.1471 -2.6137  1.3508
   30MOL0     H 4011   9.987   9.154   0.820  0.6643 -0.1744  1.1140
   30MOL0     H 4012  10.036   9.178   0.652 -2.0203 -1.6117  0.0457
   30MOL0     H 4013  10.096   9.273   0.783 -0.3900 -1.4278  0.2796
   30MOL0     H 4014   9.526   8.899   0.552  0.3659 -0.2443 -0.0793
   30MOL0     H 4015   9.520   8.738   0.371 -2.0733 -1.0780 -1.3670
   30MOL0     H 4016   9.648   8.839  -0.034 -1.2453  3.1057  3.3461
   30MOL0     H 4017   9.778   8.755   0.064 -0.1091 -2.0459 -1.4224
   30MOL0     H 4018   9.561   8.557  -0.011 -0.2205 -1.9088 -1.9445
   30MOL0     H 4019   9.658   8.629  -0.148  0.0430 -0.4231 -1.1399
   30MOL0     H 4020   9.742   8.417  -0.049  3.0738  0.4325 -6.1321
   30MOL0     H 4021   9.818   8.536   0.073 -2.4248 -0.3139  1.3388
   30MOL0     H 4022   9.853   8.559  -0.235 -0.2479 -0.6239  0.8534
   30MOL0     H 4023   9.961   8.618  -0.099 -1.7417  1.9952 -0.2051
   30MOL0     H 4024   9.916   8.323  -0.181  0.2176  0.1761 -0.4677
   30MOL0     H 4025  10.045   8.376  -0.086  0.3803 -0.3059 -0.4301
   30MOL0     H 4026  10.045   8.496  -0.361  0.8372  1.3346 -0.0375
   30MOL0     H 4027  10.170   8.485  -0.247 -1.5106  2.6360  0.3401
   30MOL0     H 4028  10.145   8.309  -0.457 -4.3940  1.4637 -2.0509
   30MOL0     H 4029  10.013   8.246  -0.350 -0.3304  0.2966 -0.1400
   30MOL0     H 4030  10.246   8.121  -0.334  1.0312  0.2264  2.6937
   30MOL0     H 4031  10.196   8.173  -0.187  1.1439 -1.3262  0.3338
   30MOL0     H 4032   9.668   9.025   0.094  2.3107 -1.8137  0.4212
   30MOL0     H 4033   9.697   9.185   0.275  0.8596 -0.8135 -0.7318
   30MOL0     H 4034   9.568   9.377   0.639  0.4420 -0.2919 -1.5623
   30MOL0     H 4035   9.614   9.602   0.705 -2.0483 -3.6630  1.3923
   30MOL0     H 4036  10.137   9.677   1.852 -2.3377  2.3574 -0.2388
   30MOL0     H 4037  10.277   9.783   1.998  0.5707 -0.2063  2.7934
   30MOL0     H 4038  10.205  10.071   2.568  0.0346  0.7234 -1.4845
   30MOL0     H 4039  10.373  10.206   2.657  0.7505 -0.0850  0.6726
   30MOL0     H 4040  10.830  10.259   2.615 -2.2910 -0.5737  1.7078
   30MOL0     H 4041  10.791  10.132   2.510  0.7719 -0.6580  2.8055
   30MOL0     H 4042  10.655  10.315   2.369  0.6713 -0.5054 -0.7896
   30MOL0     H 4043  10.814  10.369   2.399  2.4649 -0.5844  4.0746
   30MOL0     H 4044  10.727  10.521   2.592 -0.6788 -2.0620  3.3030
   30MOL0     H 4045  10.572  10.434   2.568  0.0711  0.8571  0.3953
   30MOL0     H 4046  10.582  10.660   2.474 -2.1657  0.4655 -3.2910
   30MOL0     H 4047  10.568  10.547   2.328 -0.7005  1.3575 -0.3118
   30MOL0     H 4048  10.898  10.807   2.287  1.9956 -2.4082 -0.9241
   30MOL0     H 4049  10.672   9.976   2.449  1.4007  2.0259  0.6878
   30MOL0     H 4050  10.499   9.877   2.314  1.3428 -2.2854  2.6688
   31MOL0     O 4051   0.992   1.398   7.903  0.5979 -0.1250  0.0706
   31MOL0     C 4052   1.085   1.388   7.827  0.3006  0.4746  1.0916
   31MOL0     O 4053   1.084   1.352   7.694  0.1215  0.0644 -0.0243
   31MOL0     C 4054   0.951   1.323   7.653  0.3886 -0.4894  0.2555
   31MOL0     C 4055   0.865   1.427   7.618 -0.3436  0.2482 -0.2757
   31MOL0     C 4056   0.731   1.407   7.592  0.2095  0.3504 -0.1915
   31MOL0     C 4057   0.679   1.281   7.595 -0.2112 -0.4961 -0.3801
   31MOL0     O 4058   0.547   1.257   7.560 -0.8420 -0.1584  0.4229
   31MOL0     C 4059   0.473   1.345   7.475 -0.2804 -0.6552 -0.1821
   31MOL0     C 4060   0.336   1.292   7.474 -0.4823  0.2698  0.5407
   31MOL0     C 4061   0.283   1.259   7.611  0.9701 -0.0267 -0.5674
   31MOL0     C 4062   0.131   1.231   7.614  0.7841 -0.1576 -0.0239
   31MOL0     C 4063   0.076   1.271   7.752  0.3338  0.4798  0.3172
   31MOL0     C 4064  -0.074   1.243   7.772  0.9923 -0.3228  1.1690
   31MOL0     C 4065  -0.182   1.292   7.684 -1.0007 -0.7094 -0.7078
   31MOL0     C 4066  -0.213   1.441   7.721  0.8037  0.7994 -0.1560
   31MOL0     N 4067  -0.312   1.496   7.633  0.0404 -0.2259 -0.1077
   31MOL0     C 4068  -0.444   1.478   7.625 -0.2925  0.2368  0.5805
   31MOL0     C 4069  -0.483   1.551   7.518 -0.6055  0.0642  0.2299
   31MOL0     C 4070  -0.623   1.552   7.459  0.7199 -1.0967 -0.5060
   31MOL0     C 4071  -0.653   1.651   7.350  0.1505  0.0336  1.1386
   31MOL0     C 4072  -0.604   1.632   7.212 -0.3112  0.0823  0.2588
   31MOL0     C 4073  -0.626   1.491   7.154 -0.0877  0.1600 -0.3481
   31MOL0     O 4074  -0.638   1.503   7.014  0.5891 -0.6105 -0.2084
   31MOL0     C 4075  -0.519   1.552   6.958 -0.4006 -0.0556  0.6304
   31MOL0     C 4076  -0.507   1.668   6.894  0.6092 -0.6304  0.1826
   31MOL0     C 4077  -0.382   1.701   6.832 -0.6235  0.4818 -0.0456
   31MOL0     C 4078  -0.360   1.846   6.773  0.2700  0.4210  0.2015
   31MOL0     C 4079  -0.269   1.607   6.840  0.3353  0.2424  0.2346
   31MOL0     C 4080  -0.141   1.632   6.754 -0.1451  0.2699  0.7638
   31MOL0     O 4081  -0.086   1.518   6.726  0.2099  0.8231 -0.5015
   31MOL0     C 4082   0.047   1.504   6.701 -0.1613  0.5770  0.1047
   31MOL0     C 4083   0.150   1.559   6.777 -0.1126  0.1490  0.0056
   31MOL0     C 4084   0.277   1.544   6.739  0.2283 -0.2098 -0.5283
   31MOL0     C 4085   0.310   1.463   6.634 -0.0115  1.4032 -0.3292
   31MOL0     O 4086   0.444   1.444   6.612 -0.3362 -0.4706 -0.3631
   31MOL0     C 4087   0.501   1.340   6.521 -0.5575  0.4966 -0.1461
   31MOL0     C 4088   0.649   1.387   6.521  0.9475 -0.1305 -0.3256
   31MOL0     C 4089   0.753   1.328   6.431  1.1075  0.3743  0.3870
   31MOL0     C 4090   0.791   1.180   6.462  0.2789 -0.2291 -0.0544
   31MOL0     C 4091   0.854   1.102   6.345 -0.4807 -0.1324 -0.2969
   31MOL0     C 4092   0.982   1.160   6.296 -0.1132  1.1342  0.9977
   31MOL0     C 4093   1.041   1.074   6.187  0.4111  0.2356  0.1417
   31MOL0     C 4094   1.162   1.141   6.106  0.8773 -0.1872  0.2740
   31MOL0    Cl 4095   1.305   1.148   6.194 -0.3302 -0.1891 -0.3430
   31MOL0     C 4096   0.212   1.396   6.564 -0.3298  0.4930 -0.2221
   31MOL0     C 4097   0.086   1.414   6.604  0.1499  0.2642 -0.2133
   31MOL0     O 4098  -0.092   1.740   6.737  0.1828  0.1502 -0.5543
   31MOL0     C 4099  -0.287   1.485   6.902  0.2208  0.5790 -0.4730
   31MOL0     C 4100  -0.413   1.457   6.951  0.2781 -0.4431 -0.8191
   31MOL0     N 4101  -0.376   1.619   7.466  0.0572 -0.3787  0.1317
   31MOL0     N 4102  -0.268   1.579   7.530  0.2510  1.4472 -0.1141
   31MOL0     C 4103   0.764   1.178   7.617 -0.2730  0.3887 -0.7792
   31MOL0     C 4104   0.900   1.198   7.640  0.0890 -0.0472  0.3229
   31MOL0     C 4105   1.218   1.429   7.886 -0.4590  0.7641 -0.6905
   31MOL0     C 4106   1.229   1.454   8.025 -0.0002  0.2866  0.7578
   31MOL0     C 4107   1.352   1.502   8.075  0.0707 -0.2379  0.9696
   31MOL0     C 4108   1.473   1.497   8.007 -0.2721  0.0735  0.2681
   31MOL0     O 4109   1.595   1.538   8.063 -0.0995 -0.2452 -0.7442
   31MOL0     C 4110   1.709   1.454   8.027 -0.5684 -0.1786  0.5320
   31MOL0     C 4111   1.844   1.534   8.067  0.5946 -0.0394 -0.0650
   31MOL0     C 4112   1.864   1.677   8.012  0.6098  0.6956 -0.2399
   31MOL0     C 4113   1.876   1.683   7.863 -0.4776  1.0270  0.1084
   31MOL0     C 4114   1.980   1.589   7.809  0.2552 -0.2305  0.0422
   31MOL0     C 4115   2.061   1.519   7.756 -0.5554 -0.5410 -0.5085
   31MOL0     C 4116   1.462   1.462   7.870 -0.1097  0.1093 -0.1136
   31MOL0     C 4117   1.335   1.437   7.809  0.1004  0.6227 -0.4931
   31MOL0     H 4118   0.899   1.528   7.601  0.8861 -0.4605 -2.5027
   31MOL0     H 4119   0.675   1.499   7.577 -1.8220 -0.6537  0.8546
   31MOL0     H 4120   0.468   1.448   7.509 -0.2921  0.0566 -2.2287
   31MOL0     H 4121   0.515   1.349   7.374  2.4759 -3.6247  0.6815
   31MOL0     H 4122   0.286   1.381   7.437  2.7661  1.1211 -2.3243
   31MOL0     H 4123   0.328   1.200   7.416  2.6518  0.2980 -0.1492
   31MOL0     H 4124   0.339   1.171   7.643  2.4993  0.5772 -1.4255
   31MOL0     H 4125   0.312   1.351   7.664 -1.5879  1.0184 -0.8499
   31MOL0     H 4126   0.081   1.287   7.534 -3.0540 -0.9898  1.5579
   31MOL0     H 4127   0.098   1.128   7.595  0.9643  0.2407 -3.1008
   31MOL0     H 4128   0.127   1.210   7.827 -1.7458  0.4586  1.8057
   31MOL0     H 4129   0.096   1.375   7.779  0.6308  1.0459 -1.8736
   31MOL0     H 4130  -0.084   1.135   7.760  0.6979  0.0159 -5.9524
   31MOL0     H 4131  -0.099   1.284   7.870 -0.1625  1.4147  0.1972
   31MOL0     H 4132  -0.145   1.282   7.582 -0.1037 -0.3747 -0.4217
   31MOL0     H 4133  -0.278   1.245   7.706 -1.1320 -0.4619 -0.7445
   31MOL0     H 4134  -0.116   1.491   7.732  1.2242  0.0515 -0.3862
   31MOL0     H 4135  -0.257   1.446   7.821 -2.5339 -0.4878 -1.4249
   31MOL0     H 4136  -0.502   1.411   7.687  0.3376  0.6176  1.5939
   31MOL0     H 4137  -0.653   1.449   7.435 -1.2706 -0.8858  0.8644
   31MOL0     H 4138  -0.690   1.581   7.540  1.3604  1.5854 -0.8464
   31MOL0     H 4139  -0.615   1.751   7.375 -0.8157  2.2419 -4.5754
   31MOL0     H 4140  -0.760   1.660   7.327 -0.1158 -1.5292  1.6620
   31MOL0     H 4141  -0.496   1.640   7.200 -0.4028 -1.1943 -2.2600
   31MOL0     H 4142  -0.644   1.710   7.146 -2.6886  0.4082  1.9468
   31MOL0     H 4143  -0.717   1.450   7.200  0.3975  1.0592  1.5345
   31MOL0     H 4144  -0.540   1.427   7.174  0.2406  0.2466 -1.4477
   31MOL0     H 4145  -0.589   1.739   6.890 -0.9113 -2.1458  2.1250
   31MOL0     H 4146  -0.306   1.839   6.678 -1.1864  0.2486 -0.6454
   31MOL0     H 4147  -0.458   1.882   6.741  0.3150 -0.9512 -1.6251
   31MOL0     H 4148  -0.307   1.914   6.841  2.1103 -0.9332  0.1939
   31MOL0     H 4149   0.111   1.628   6.852  0.2167  2.7938 -2.0812
   31MOL0     H 4150   0.353   1.611   6.779  0.4987  0.7517 -2.5265
   31MOL0     H 4151   0.474   1.243   6.563 -0.2439 -0.0627 -1.1938
   31MOL0     H 4152   0.459   1.356   6.421 -1.4313 -1.0764 -0.0492
   31MOL0     H 4153   0.638   1.495   6.503  0.5870  0.1878  1.5938
   31MOL0     H 4154   0.679   1.375   6.625  3.4066  0.6269 -0.8882
   31MOL0     H 4155   0.840   1.393   6.440  1.3334 -0.1254  2.1108
   31MOL0     H 4156   0.721   1.339   6.327  0.5491  1.3363  0.6408
   31MOL0     H 4157   0.848   1.174   6.555 -0.2707  3.2403  0.6189
   31MOL0     H 4158   0.699   1.127   6.490  0.9492 -1.8982 -0.8216
   31MOL0     H 4159   0.778   1.097   6.267 -1.1584 -2.1618  0.4210
   31MOL0     H 4160   0.872   0.998   6.376 -3.3488 -1.0427 -1.4144
   31MOL0     H 4161   0.955   1.257   6.255  0.3569 -0.2163 -2.9080
   31MOL0     H 4162   1.057   1.180   6.374 -0.1954  1.2444  1.0493
   31MOL0     H 4163   0.965   1.066   6.109  1.6286  0.6836 -1.1190
   31MOL0     H 4164   1.072   0.973   6.215 -0.6140 -0.5829 -1.5353
   31MOL0     H 4165   1.135   1.244   6.078  1.5632  0.3375  1.4412
   31MOL0     H 4166   1.165   1.092   6.009  0.2593 -0.6823  0.4942
   31MOL0     H 4167   0.241   1.341   6.474 -0.0832  1.2903 -0.6447
   31MOL0     H 4168   0.013   1.382   6.529  2.7365  0.5336 -3.0216
   31MOL0     H 4169  -0.213   1.406   6.910  0.0077  0.2997 -1.1433
   31MOL0     H 4170  -0.433   1.357   6.987  0.2892 -1.4999 -3.5159
   31MOL0     H 4171   0.728   1.076   7.614  0.9728 -0.1218  0.3336
   31MOL0     H 4172   0.964   1.115   7.666 -1.5130 -1.7631 -0.9822
   31MOL0     H 4173   1.134   1.457   8.079  0.0938  0.2262  0.9264
   31MOL0     H 4174   1.333   1.532   8.178 -2.8498 -2.1382  1.0857
   31MOL0     H 4175   1.708   1.359   8.082 -0.0767  0.3218  1.4384
   31MOL0     H 4176   1.722   1.431   7.921  2.7209 -1.1845  1.0107
   31MOL0     H 4177   1.927   1.468   8.036 -0.8252 -0.8561 -2.3990
   31MOL0     H 4178   1.849   1.543   8.176  3.4801  1.0482 -0.1899
   31MOL0     H 4179   1.955   1.719   8.055 -0.1344  2.0245  0.1017
   31MOL0     H 4180   1.786   1.745   8.050  1.3860  0.2833  2.2597
   31MOL0     H 4181   1.898   1.788   7.842 -0.3001  0.8805 -0.4312
   31MOL0     H 4182   1.777   1.667   7.818  0.4796  1.8041 -2.4407
   31MOL0     H 4183   2.147   1.489   7.700  0.4275  3.0308 -1.2043
   31MOL0     H 4184   1.544   1.466   7.799  0.3126  1.2876  0.4106
   31MOL0     H 4185   1.322   1.417   7.703 -0.9906 -0.4241 -0.1878
   32MOL0     O 4186   4.851   3.285   8.417 -0.0088  0.1099 -0.5345
   32MOL0     C 4187   4.851   3.186   8.343  0.6900  0.4028  0.3052
   32MOL0     O 4188   4.801   3.067   8.381  1.1082  0.6995  0.9056
   32MOL0     C 4189   4.723   3.072   8.487  0.2867 -0.7904 -0.4130
   32MOL0     C 4190   4.581   3.094   8.479  0.0184  0.1766 -0.5270
   32MOL0     C 4191   4.509   3.086   8.599  0.7422 -0.2772 -1.3519
   32MOL0     C 4192   4.566   3.069   8.719  0.0866  0.1743 -0.3099
   32MOL0     O 4193   4.476   3.065   8.825  0.1066  0.9155  0.0523
   32MOL0     C 4194   4.533   3.057   8.958  1.0459  0.2082  1.0201
   32MOL0     C 4195   4.418   3.092   9.053  0.4377  0.1121  0.0034
   32MOL0     C 4196   4.467   3.059   9.200  0.1713 -0.9720 -0.2319
   32MOL0     C 4197   4.337   3.036   9.287 -0.5945  1.0752 -0.0902
   32MOL0     C 4198   4.347   3.044   9.437 -0.1859 -0.1646 -0.0972
   32MOL0     C 4199   4.393   3.182   9.489  0.3278 -0.0900 -0.0490
   32MOL0     C 4200   4.437   3.185   9.638  0.0252 -0.3072 -0.9812
   32MOL0     C 4201   4.522   3.308   9.680 -0.9123  0.5626 -0.4939
   32MOL0     N 4202   4.443   3.428   9.711  0.0551  0.3523  0.6428
   32MOL0     C 4203   4.391   3.506   9.604  0.4086  0.3797  0.0012
   32MOL0     C 4204   4.347   3.622   9.657  0.2158  0.7465 -0.3524
   32MOL0     C 4205   4.300   3.751   9.607  0.2593 -1.3246 -0.8045
   32MOL0     C 4206   4.294   3.859   9.716 -0.2593 -0.1296 -0.9342
   32MOL0     C 4207   4.244   3.995   9.670  0.3152  0.0264  0.3441
   32MOL0     C 4208   4.108   3.988   9.599 -0.3982 -0.6998 -1.2063
   32MOL0     O 4209   4.080   4.124   9.567 -0.7408 -0.7188  0.0754
   32MOL0     C 4210   3.959   4.146   9.502  0.2770  1.3049  0.2023
   32MOL0     C 4211   3.932   4.285   9.490  0.8197  0.4815  1.7553
   32MOL0     C 4212   3.814   4.328   9.421 -1.2079 -0.0557 -0.2994
   32MOL0     C 4213   3.806   4.478   9.393 -0.1031  0.8557 -0.3853
   32MOL0     C 4214   3.725   4.235   9.372  0.1104 -0.5802 -0.2600
   32MOL0     C 4215   3.594   4.261   9.310 -0.4312 -0.4073 -0.0134
   32MOL0     O 4216   3.508   4.156   9.316  0.5608  0.8169  0.7872
   32MOL0     C 4217   3.382   4.167   9.264 -0.4974 -0.2544  0.5550
   32MOL0     C 4218   3.289   4.248   9.339 -0.6470  0.1504  0.4260
   32MOL0     C 4219   3.157   4.272   9.293 -1.1819  0.0641 -0.6028
   32MOL0     C 4220   3.118   4.211   9.176  0.5983  0.0548  0.1455
   32MOL0     O 4221   2.982   4.237   9.141 -0.4809  0.9718 -0.2142
   32MOL0     C 4222   2.871   4.210   9.221  0.5674  0.1102 -0.1295
   32MOL0     C 4223   2.759   4.307   9.167 -0.3402 -0.2720  0.2770
   32MOL0     C 4224   2.633   4.308   9.269  0.5408 -0.7818  0.7858
   32MOL0     C 4225   2.662   4.389   9.408  0.0090  0.3194  0.0066
   32MOL0     C 4226   2.530   4.414   9.487  0.5705  0.3800  0.2251
   32MOL0     C 4227   2.551   4.483   9.620 -0.5432  0.3164  0.6800
   32MOL0     C 4228   2.434   4.483   9.713 -0.1933  0.7259 -0.3926
   32MOL0     C 4229   2.477   4.566   9.836  0.8627 -0.2155 -0.2094
   32MOL0    Cl 4230   2.487   4.749   9.807 -0.0112 -0.3043  0.3845
   32MOL0     C 4231   3.201   4.130   9.103 -0.6019  0.1688 -0.8060
   32MOL0     C 4232   3.332   4.110   9.145 -0.7499  0.4953 -1.1996
   32MOL0     O 4233   3.570   4.369   9.261  0.9366  0.4481 -0.5372
   32MOL0     C 4234   3.753   4.098   9.389 -0.0958 -0.7174 -0.4218
   32MOL0     C 4235   3.867   4.054   9.451 -0.2804 -0.4049  0.2265
   32MOL0     N 4236   4.364   3.602   9.792  0.0265 -0.4568  0.1637
   32MOL0     N 4237   4.424   3.495   9.831  0.3383  0.3630  0.3479
   32MOL0     C 4238   4.703   3.046   8.728 -0.1190 -0.1571 -0.8154
   32MOL0     C 4239   4.786   3.053   8.609  0.2101  0.7447 -1.0373
   32MOL0     C 4240   4.920   3.190   8.209  0.0202 -0.2211  0.7155
   32MOL0     C 4241   5.023   3.280   8.180  1.1458 -0.4891 -0.3213
   32MOL0     C 4242   5.094   3.288   8.054  0.1332  0.5769 -0.0933
   32MOL0     C 4243   5.063   3.194   7.949 -0.2883 -0.0377 -0.0063
   32MOL0     O 4244   5.148   3.201   7.837  0.1304  0.4409 -0.1435
   32MOL0     C 4245   5.205   3.075   7.788 -0.0244 -0.0535 -0.3643
   32MOL0     C 4246   5.307   3.033   7.904  0.3029 -0.8653  0.0085
   32MOL0     C 4247   5.381   2.898   7.886  0.1364 -0.2450  0.0085
   32MOL0     C 4248   5.426   2.880   7.739  0.2535 -1.0631 -0.9497
   32MOL0     C 4249   5.521   2.990   7.703 -0.4331  0.5461 -1.2740
   32MOL0     C 4250   5.598   3.067   7.670 -0.4082 -1.1558  0.2037
   32MOL0     C 4251   4.947   3.103   7.976  0.0560 -0.4691  0.2382
   32MOL0     C 4252   4.885   3.102   8.102  1.2034 -0.2726  0.1153
   32MOL0     H 4253   4.543   3.115   8.380 -0.3110 -0.2455 -0.4979
   32MOL0     H 4254   4.402   3.094   8.581  0.6945 -0.5290 -1.1840
   32MOL0     H 4255   4.566   2.958   8.988 -2.2494 -1.7292 -1.0466
   32MOL0     H 4256   4.610   3.133   8.971 -0.2716  1.7687  0.1862
   32MOL0     H 4257   4.392   3.198   9.046  0.3550 -0.0090 -1.9280
   32MOL0     H 4258   4.333   3.029   9.025  2.9968 -3.2869 -0.8240
   32MOL0     H 4259   4.518   2.962   9.206 -2.3652 -2.3104  1.8315
   32MOL0     H 4260   4.531   3.142   9.230 -0.7104 -0.5009  0.3867
   32MOL0     H 4261   4.264   3.109   9.251  0.1694  1.5175 -0.7660
   32MOL0     H 4262   4.305   2.934   9.266  3.4978 -0.2662 -0.7328
   32MOL0     H 4263   4.251   3.015   9.482  2.3040 -1.8598  4.8881
   32MOL0     H 4264   4.416   2.965   9.469  2.2424  0.7845 -2.5913
   32MOL0     H 4265   4.480   3.215   9.432  2.5037 -2.5556  1.5973
   32MOL0     H 4266   4.304   3.242   9.468  0.9479  0.7793 -0.2069
   32MOL0     H 4267   4.349   3.171   9.701  1.8239 -1.0632  1.5099
   32MOL0     H 4268   4.490   3.091   9.655 -0.2769 -0.5491 -1.3661
   32MOL0     H 4269   4.590   3.325   9.596  0.5188 -0.7283  0.3457
   32MOL0     H 4270   4.578   3.274   9.768 -1.5193  0.1729 -0.2472
   32MOL0     H 4271   4.397   3.485   9.498  1.1366 -0.2004  0.1472
   32MOL0     H 4272   4.357   3.776   9.518  1.1843 -3.0244 -0.7375
   32MOL0     H 4273   4.200   3.742   9.563 -1.0452  1.7891  1.1682
   32MOL0     H 4274   4.394   3.880   9.755 -0.3154  1.2015 -1.4258
   32MOL0     H 4275   4.235   3.818   9.799 -0.9705  0.7102 -1.0102
   32MOL0     H 4276   4.315   4.037   9.598 -2.8908  1.3837 -2.2798
   32MOL0     H 4277   4.239   4.063   9.755 -0.5797  0.7500 -0.2627
   32MOL0     H 4278   4.026   3.951   9.662 -1.7164 -0.0394 -2.4670
   32MOL0     H 4279   4.105   3.923   9.511  1.4791 -2.1870 -0.2418
   32MOL0     H 4280   3.996   4.363   9.530  0.7401  1.8920 -0.7091
   32MOL0     H 4281   3.839   4.494   9.290 -1.0161 -0.9744 -1.0098
   32MOL0     H 4282   3.703   4.513   9.399 -0.3996  0.0215 -0.4298
   32MOL0     H 4283   3.880   4.532   9.453 -1.1215  2.8383 -0.8287
   32MOL0     H 4284   3.328   4.293   9.430  1.6559 -2.5504  0.9422
   32MOL0     H 4285   3.077   4.333   9.333 -0.7015  2.0990 -2.5705
   32MOL0     H 4286   2.845   4.104   9.212 -3.6377  1.0982 -1.6813
   32MOL0     H 4287   2.893   4.230   9.326  4.2255 -2.1952 -0.2784
   32MOL0     H 4288   2.805   4.405   9.156 -0.8962  0.1291  1.3171
   32MOL0     H 4289   2.728   4.260   9.073 -1.5847 -1.9315  1.4396
   32MOL0     H 4290   2.604   4.205   9.291  0.3195 -1.2670 -1.5081
   32MOL0     H 4291   2.548   4.363   9.226 -0.4397 -1.1339  2.2051
   32MOL0     H 4292   2.722   4.326   9.475 -1.5463 -0.1958  0.9682
   32MOL0     H 4293   2.720   4.477   9.380  1.1074 -0.7227 -1.1139
   32MOL0     H 4294   2.490   4.316   9.511  1.9402  0.0197  1.1322
   32MOL0     H 4295   2.452   4.462   9.427 -0.4076 -0.9436  0.3971
   32MOL0     H 4296   2.634   4.433   9.672 -0.4399 -0.5186 -0.2792
   32MOL0     H 4297   2.585   4.585   9.599  0.1990 -0.1310 -0.3469
   32MOL0     H 4298   2.403   4.383   9.744 -3.8497  1.1803 -2.1195
   32MOL0     H 4299   2.343   4.526   9.670 -0.9197 -0.2775  0.0930
   32MOL0     H 4300   2.572   4.540   9.882  1.3718  0.9539 -0.5353
   32MOL0     H 4301   2.405   4.567   9.918  2.4154  2.7113  1.2884
   32MOL0     H 4302   3.140   4.084   9.026 -3.1525 -2.1425  2.3215
   32MOL0     H 4303   3.406   4.040   9.108 -0.1588  0.5989 -0.2683
   32MOL0     H 4304   3.695   4.014   9.353  2.0238 -1.5471 -2.1057
   32MOL0     H 4305   3.893   3.949   9.457  0.9031 -0.1204  0.1773
   32MOL0     H 4306   4.761   3.028   8.818  0.3497 -0.0058 -1.0833
   32MOL0     H 4307   4.892   3.031   8.619 -0.1000 -1.4842 -1.9678
   32MOL0     H 4308   5.049   3.348   8.260 -0.8564  0.4310 -0.4033
   32MOL0     H 4309   5.177   3.357   8.041  0.0221  0.5165 -1.1772
   32MOL0     H 4310   5.143   2.987   7.767  1.0827 -0.7647 -0.6790
   32MOL0     H 4311   5.251   3.095   7.691  2.9915  1.8035  1.3044
   32MOL0     H 4312   5.260   3.018   8.001 -2.3299  0.5396 -0.9520
   32MOL0     H 4313   5.379   3.114   7.917  0.0295 -0.8676  1.6727
   32MOL0     H 4314   5.324   2.810   7.917  0.8649 -0.1924  1.6439
   32MOL0     H 4315   5.464   2.897   7.958  0.5805 -0.9897 -0.5058
   32MOL0     H 4316   5.345   2.888   7.666  0.0070 -2.3296 -0.8439
   32MOL0     H 4317   5.485   2.788   7.731  2.0364 -0.1641  0.9781
   32MOL0     H 4318   5.661   3.147   7.635 -0.2515 -1.2619  0.2441
   32MOL0     H 4319   4.917   3.044   7.890  1.1955  1.3521 -1.4892
   32MOL0     H 4320   4.803   3.032   8.109 -0.1746  1.4001  2.2135
   33MOL0     O 4321   4.387   1.098   9.673  0.0899  0.8742 -0.4835
   33MOL0     C 4322   4.420   1.214   9.651 -0.4563 -0.3662  0.3188
   33MOL0     O 4323   4.363   1.331   9.705 -0.0935  0.8939  0.3107
   33MOL0     C 4324   4.228   1.315   9.755 -0.0045  0.7053  0.1324
   33MOL0     C 4325   4.199   1.409   9.851  0.3414 -1.4824 -0.1757
   33MOL0     C 4326   4.079   1.403   9.914  0.7587 -0.3139 -0.6110
   33MOL0     C 4327   3.972   1.309   9.890 -0.5666 -0.2570 -0.5545
   33MOL0     O 4328   3.859   1.306   9.964  0.4829 -0.3452 -0.2220
   33MOL0     C 4329   3.828   1.429  10.040  0.6364 -0.2405 -0.2364
   33MOL0     C 4330   3.693   1.401  10.109 -0.7146 -0.2613 -0.3577
   33MOL0     C 4331   3.689   1.278  10.216 -0.1207 -0.8815  0.2315
   33MOL0     C 4332   3.544   1.237  10.232  0.2754 -0.5344  0.3166
   33MOL0     C 4333   3.455   1.337  10.321 -1.0864 -0.0084  0.4362
   33MOL0     C 4334   3.399   1.278  10.447 -0.3705 -0.0966  0.7749
   33MOL0     C 4335   3.298   1.367  10.520  0.1004  0.7759  0.9026
   33MOL0     C 4336   3.255   1.296  10.645  0.0680 -0.6140 -1.0052
   33MOL0     N 4337   3.146   1.382  10.706 -0.9517  0.2946  0.0412
   33MOL0     C 4338   3.046   1.333  10.788 -0.4392 -0.5570  0.4053
   33MOL0     C 4339   2.994   1.449  10.838  0.7527  0.1841  0.1038
   33MOL0     C 4340   2.877   1.448  10.949  0.0374  1.0166  0.1447
   33MOL0     C 4341   2.839   1.576  11.022  0.2155  1.3768  0.5554
   33MOL0     C 4342   2.721   1.572  11.108 -0.0744 -0.2698 -0.3619
   33MOL0     C 4343   2.694   1.705  11.179 -0.1975 -0.4868 -0.1665
   33MOL0     O 4344   2.575   1.693  11.260 -0.1701 -0.6753 -0.3915
   33MOL0     C 4345   2.571   1.769  11.378 -0.7604  0.7976 -0.3790
   33MOL0     C 4346   2.537   1.899  11.360  0.3840  0.3087  0.1054
   33MOL0     C 4347   2.546   1.987  11.470  0.0057  1.3951  1.4169
   33MOL0     C 4348   2.507   2.129  11.437 -0.1694  0.2001 -0.4796
   33MOL0     C 4349   2.583   1.935  11.594  0.3518  0.2443  0.1723
   33MOL0     C 4350   2.607   2.020  11.715  0.4535 -0.4602  0.4920
   33MOL0     O 4351   2.596   1.964  11.839 -0.6083  0.0018 -0.7084
   33MOL0     C 4352   2.625   2.039  11.951 -0.1267  0.0448  0.1250
   33MOL0     C 4353   2.752   2.073  11.976 -0.1170 -0.5888 -0.3342
   33MOL0     C 4354   2.788   2.146  12.088  0.4764  0.6247 -0.3356
   33MOL0     C 4355   2.690   2.207  12.172 -0.2317  0.3633 -0.8840
   33MOL0     O 4356   2.722   2.287  12.280 -0.1657 -0.5510  0.2083
   33MOL0     C 4357   2.830   2.250  12.363 -0.7612 -0.0356 -0.4484
   33MOL0     C 4358   2.940   2.348  12.378 -0.5430  0.1873 -0.0267
   33MOL0     C 4359   2.897   2.481  12.444 -0.1198  0.0453 -0.0558
   33MOL0     C 4360   3.006   2.520  12.542  0.3792  0.4941 -0.0634
   33MOL0     C 4361   2.977   2.660  12.593 -0.4339  0.0076 -0.2013
   33MOL0     C 4362   3.087   2.733  12.656 -1.0364  0.2557 -0.2828
   33MOL0     C 4363   3.209   2.771  12.567  0.0422 -0.0183  0.0244
   33MOL0     C 4364   3.200   2.894  12.494  0.1205  0.1433  1.7890
   33MOL0    Cl 4365   3.130   2.864  12.331 -0.3924  0.1030 -0.5882
   33MOL0     C 4366   2.564   2.178  12.144  1.1655 -0.0749  0.9687
   33MOL0     C 4367   2.526   2.085  12.035  0.1171 -0.0750  0.2337
   33MOL0     O 4368   2.663   2.123  11.693 -0.6630  0.8655 -0.5451
   33MOL0     C 4369   2.618   1.800  11.612 -0.6670 -0.7427  1.6114
   33MOL0     C 4370   2.624   1.719  11.501  0.2768  0.1111 -0.1399
   33MOL0     N 4371   3.051   1.562  10.786  0.7734 -0.7817  0.3177
   33MOL0     N 4372   3.150   1.518  10.719  0.1517 -0.1313 -0.2324
   33MOL0     C 4373   4.004   1.229   9.775  1.2661  0.4338  0.0432
   33MOL0     C 4374   4.131   1.228   9.709  0.0145 -0.1433  0.1329
   33MOL0     C 4375   4.548   1.241   9.576  0.3284 -0.6693  0.2019
   33MOL0     C 4376   4.627   1.146   9.517 -0.1826 -0.5698 -0.3694
   33MOL0     C 4377   4.755   1.174   9.480 -1.1588  0.1172  0.8424
   33MOL0     C 4378   4.800   1.306   9.477 -0.1798 -0.1072  0.0030
   33MOL0     O 4379   4.925   1.342   9.437  1.1192  0.1719  0.7971
   33MOL0     C 4380   5.040   1.266   9.455 -0.1898  0.6111  0.9321
   33MOL0     C 4381   5.156   1.339   9.523  0.4294 -0.4177 -0.5675
   33MOL0     C 4382   5.100   1.409   9.661 -0.1587  0.0815  0.0568
   33MOL0     C 4383   5.215   1.441   9.752 -0.4550 -1.1630  0.9747
   33MOL0     C 4384   5.303   1.538   9.694  0.4195  0.7164  0.5042
   33MOL0     C 4385   5.377   1.613   9.631 -0.3462  0.2200 -0.6555
   33MOL0     C 4386   4.713   1.412   9.517 -0.6114  0.7382  0.4987
   33MOL0     C 4387   4.586   1.374   9.568 -0.5953 -0.0925  0.6265
   33MOL0     H 4388   4.257   1.493   9.889 -3.8511  0.3002  3.0203
   33MOL0     H 4389   4.064   1.479   9.990 -1.5810  0.1474 -1.4513
   33MOL0     H 4390   3.898   1.450  10.121 -1.0659  2.2653  0.7227
   33MOL0     H 4391   3.822   1.521   9.981 -0.9541 -1.1866 -1.6280
   33MOL0     H 4392   3.657   1.496  10.150 -0.8802 -1.0739  1.4855
   33MOL0     H 4393   3.620   1.372  10.033  1.0790 -4.0933 -0.8706
   33MOL0     H 4394   3.756   1.206  10.168  0.5690  0.3167 -0.6583
   33MOL0     H 4395   3.737   1.306  10.310  2.0007 -0.4393 -0.9319
   33MOL0     H 4396   3.491   1.227  10.137 -0.1779  1.0058  0.3740
   33MOL0     H 4397   3.538   1.142  10.286  0.6893  0.8552  2.9980
   33MOL0     H 4398   3.514   1.425  10.348 -0.5924 -0.7583  1.9337
   33MOL0     H 4399   3.377   1.373  10.253  0.4080 -0.2599 -1.5062
   33MOL0     H 4400   3.355   1.182  10.418  0.6018 -0.4509  0.4427
   33MOL0     H 4401   3.486   1.254  10.508 -0.3279 -1.3537  0.2495
   33MOL0     H 4402   3.363   1.452  10.544  1.3404 -0.2474  1.2668
   33MOL0     H 4403   3.214   1.408  10.463  0.9537  3.1288  1.2108
   33MOL0     H 4404   3.344   1.274  10.705 -0.0413 -2.1004 -1.3481
   33MOL0     H 4405   3.210   1.198  10.628 -2.4759 -0.9477  5.1791
   33MOL0     H 4406   3.004   1.234  10.800 -2.0812 -0.1464 -1.3505
   33MOL0     H 4407   2.791   1.408  10.894  1.4785  1.4437 -2.5804
   33MOL0     H 4408   2.909   1.379  11.028  1.5037 -0.6319 -1.7546
   33MOL0     H 4409   2.822   1.658  10.952  0.9256  0.8458 -0.2756
   33MOL0     H 4410   2.924   1.612  11.081  0.2992  2.1710 -0.0356
   33MOL0     H 4411   2.715   1.491  11.182 -1.0580  1.4772  1.5929
   33MOL0     H 4412   2.639   1.567  11.036 -0.0749  2.3762 -0.6357
   33MOL0     H 4413   2.684   1.791  11.111  3.1737  0.4091  0.2636
   33MOL0     H 4414   2.776   1.735  11.245  0.4905  0.9884 -1.5915
   33MOL0     H 4415   2.511   1.924  11.258 -1.1804 -0.4626  0.2966
   33MOL0     H 4416   2.460   2.136  11.339 -3.2819  3.4959  0.9947
   33MOL0     H 4417   2.430   2.166  11.505  1.8948  4.8231 -0.2576
   33MOL0     H 4418   2.594   2.195  11.444 -2.0347  3.0745 -2.4312
   33MOL0     H 4419   2.825   2.020  11.917  0.8947 -3.1096  2.8676
   33MOL0     H 4420   2.893   2.165  12.107  0.0048  2.2710  0.9183
   33MOL0     H 4421   2.784   2.227  12.460  1.5092 -1.6512  0.3304
   33MOL0     H 4422   2.884   2.157  12.342 -2.4444 -0.7564 -1.8320
   33MOL0     H 4423   3.015   2.294  12.438 -0.4625  1.4553  1.0494
   33MOL0     H 4424   2.980   2.370  12.279 -2.0980 -0.4392 -0.8266
   33MOL0     H 4425   2.801   2.466  12.494 -0.9882  0.2815 -1.5876
   33MOL0     H 4426   2.872   2.560  12.373  1.2589  1.1053  0.5866
   33MOL0     H 4427   3.018   2.447  12.622  2.0810  0.8325  0.0296
   33MOL0     H 4428   3.099   2.517  12.484  0.3213 -1.3606 -0.1226
   33MOL0     H 4429   2.907   2.648  12.676  1.0758 -1.1762  0.9583
   33MOL0     H 4430   2.935   2.726  12.516  1.2244  0.3935 -0.8117
   33MOL0     H 4431   3.037   2.813  12.713 -3.7072 -0.3375 -1.6399
   33MOL0     H 4432   3.129   2.658  12.723  2.0758  0.4887 -1.7994
   33MOL0     H 4433   3.250   2.697  12.499  1.2281 -0.1046  0.8044
   33MOL0     H 4434   3.276   2.793  12.651 -2.1969 -1.2421  2.3001
   33MOL0     H 4435   3.300   2.931  12.472 -0.9299  1.6632 -0.9364
   33MOL0     H 4436   3.141   2.966  12.551 -1.0410 -0.3876  1.2884
   33MOL0     H 4437   2.496   2.234  12.208  1.9429  0.4797  1.3335
   33MOL0     H 4438   2.422   2.055  12.024 -1.1397  3.3174  1.4561
   33MOL0     H 4439   2.640   1.757  11.710 -3.0378 -1.7608  1.7773
   33MOL0     H 4440   2.657   1.619  11.528 -3.7708 -0.5442  3.5267
   33MOL0     H 4441   3.928   1.165   9.731  0.2807  0.7990  1.1897
   33MOL0     H 4442   4.143   1.168   9.620 -0.4152 -1.3251  0.8378
   33MOL0     H 4443   4.601   1.042   9.501  0.8541 -0.3751 -4.4394
   33MOL0     H 4444   4.814   1.094   9.435  0.5261  1.0749  1.2464
   33MOL0     H 4445   5.018   1.167   9.495  1.6265 -0.0495  0.3696
   33MOL0     H 4446   5.074   1.232   9.357  2.2124 -0.4826  2.0702
   33MOL0     H 4447   5.200   1.419   9.463  0.6178  0.0301  0.1594
   33MOL0     H 4448   5.234   1.264   9.541 -0.1467 -1.0447 -0.6399
   33MOL0     H 4449   5.027   1.353   9.720  0.7008  0.8742  1.9237
   33MOL0     H 4450   5.054   1.505   9.635  0.3181  1.4683  3.8140
   33MOL0     H 4451   5.277   1.353   9.768 -0.3084 -1.4764 -1.0117
   33MOL0     H 4452   5.178   1.486   9.845 -2.8855  0.6635 -0.7372
   33MOL0     H 4453   5.411   1.688   9.563  3.6502 -2.0318 -1.4781
   33MOL0     H 4454   4.738   1.516   9.500 -0.0153  0.7242  1.2254
   33MOL0     H 4455   4.514   1.450   9.597 -0.4370 -0.3438  1.7398
   34MOL0     O 4456   9.024   0.234   8.914  0.8311  0.2814  0.1783
   34MOL0     C 4457   9.128   0.180   8.879 -0.2857 -0.7319  0.8548
   34MOL0     O 4458   9.247   0.195   8.941 -0.0370 -0.1677 -0.2943
   34MOL0     C 4459   9.282   0.314   9.007  0.3623  0.7490 -0.0718
   34MOL0     C 4460   9.231   0.450   8.981  0.6987  1.3868  0.5102
   34MOL0     C 4461   9.288   0.563   9.038  0.5078  0.8139 -0.6468
   34MOL0     C 4462   9.373   0.541   9.141 -0.8574 -0.2803 -0.3431
   34MOL0     O 4463   9.396   0.642   9.226 -0.6256  0.3151  0.3178
   34MOL0     C 4464   9.438   0.602   9.364  0.5941 -1.1148 -0.0316
   34MOL0     C 4465   9.349   0.687   9.461  0.3780  0.8476  0.4742
   34MOL0     C 4466   9.353   0.842   9.426 -0.7007 -0.7145  0.1219
   34MOL0     C 4467   9.326   0.925   9.559 -0.1840 -0.7793  0.6295
   34MOL0     C 4468   9.223   1.043   9.544 -0.1848  0.6877 -0.4043
   34MOL0     C 4469   9.227   1.126   9.413  0.5203  0.1899  0.3181
   34MOL0     C 4470   9.170   1.270   9.433  0.1105 -0.2486 -0.8440
   34MOL0     C 4471   9.021   1.276   9.473  0.5828 -0.8847 -0.1534
   34MOL0     N 4472   9.001   1.263   9.624  0.4794 -0.3464 -0.3355
   34MOL0     C 4473   9.029   1.358   9.720 -1.0176  0.2625  0.0033
   34MOL0     C 4474   9.019   1.295   9.842 -0.8818  1.0710 -0.1780
   34MOL0     C 4475   9.061   1.346   9.979 -0.0693  0.3044 -0.1158
   34MOL0     C 4476   9.148   1.241  10.065 -0.9315 -0.0598  0.0971
   34MOL0     C 4477   9.074   1.108  10.106  0.5747 -0.0511 -0.5389
   34MOL0     C 4478   9.164   1.020  10.190 -0.4641  0.7173 -0.0029
   34MOL0     O 4479   9.190   1.092  10.308 -0.0952  0.5007 -0.6238
   34MOL0     C 4480   9.321   1.099  10.363  0.8575 -0.2692 -0.3795
   34MOL0     C 4481   9.336   1.133  10.498  0.1056 -1.1665  0.3393
   34MOL0     C 4482   9.468   1.153  10.557  0.4817 -0.4458 -0.4587
   34MOL0     C 4483   9.479   1.186  10.701 -0.0634 -1.3739 -0.0365
   34MOL0     C 4484   9.583   1.141  10.474  0.2863 -0.1914 -1.0623
   34MOL0     C 4485   9.727   1.170  10.519  0.3997  0.8678 -0.0963
   34MOL0     O 4486   9.818   1.221  10.425  1.1503 -0.3803 -0.2938
   34MOL0     C 4487   9.950   1.221  10.461  0.6531 -0.0591  0.0153
   34MOL0     C 4488   9.993   1.342  10.520 -0.3297  0.0711  0.1139
   34MOL0     C 4489  10.129   1.362  10.541  0.1290 -0.0987  0.2454
   34MOL0     C 4490  10.221   1.271  10.505  0.8137 -0.1706  0.6643
   34MOL0     O 4491  10.354   1.288  10.515  0.7073  0.6885 -0.0158
   34MOL0     C 4492  10.410   1.414  10.557  0.1518 -0.0006  0.3511
   34MOL0     C 4493  10.553   1.411  10.565  0.0272 -0.5165  0.1592
   34MOL0     C 4494  10.606   1.543  10.620 -0.0908  0.4324 -1.3311
   34MOL0     C 4495  10.751   1.518  10.653 -0.3531 -0.0311 -0.2291
   34MOL0     C 4496  10.817   1.642  10.697 -0.4170 -0.7974 -0.1284
   34MOL0     C 4497  10.966   1.621  10.731 -1.2203  0.0440  0.0119
   34MOL0     C 4498  11.024   1.762  10.777 -0.0758 -0.1383  0.2607
   34MOL0     C 4499  11.172   1.770  10.807  0.3161  0.7935 -0.1650
   34MOL0    Cl 4500  11.232   1.613  10.883  0.1920 -0.1620 -0.1112
   34MOL0     C 4501  10.176   1.149  10.438 -1.5245 -0.1738  0.4215
   34MOL0     C 4502  10.041   1.125  10.411  0.8517  1.1620 -1.0900
   34MOL0     O 4503   9.761   1.120  10.634 -0.4531 -0.8597 -0.3703
   34MOL0     C 4504   9.556   1.123  10.340 -1.1729 -0.5853 -0.5212
   34MOL0     C 4505   9.428   1.114  10.282 -0.2327 -0.1771 -0.5942
   34MOL0     N 4506   8.971   1.169   9.814  0.4304 -0.0262  1.0826
   34MOL0     N 4507   8.961   1.151   9.687 -0.5014 -0.4468 -0.3156
   34MOL0     C 4508   9.438   0.415   9.159 -0.2759 -0.5757  0.1727
   34MOL0     C 4509   9.386   0.305   9.096 -0.8035  0.8025  0.2743
   34MOL0     C 4510   9.106   0.080   8.768 -0.1030  0.5261 -0.1321
   34MOL0     C 4511   9.213   0.016   8.703  0.2243 -0.1378  0.5100
   34MOL0     C 4512   9.196  -0.069   8.596  0.9813 -0.5099 -0.5490
   34MOL0     C 4513   9.064  -0.106   8.563  0.1400 -0.0618 -0.7516
   34MOL0     O 4514   9.046  -0.207   8.473 -0.2374 -0.5844 -0.0069
   34MOL0     C 4515   9.156  -0.268   8.398 -0.5401 -0.3277 -0.1797
   34MOL0     C 4516   9.223  -0.389   8.473 -0.3234  0.6445 -0.6118
   34MOL0     C 4517   9.129  -0.493   8.530 -0.1131  0.1484 -0.0004
   34MOL0     C 4518   9.056  -0.576   8.409  0.3628  0.1998 -0.0328
   34MOL0     C 4519   9.146  -0.666   8.335 -0.4391 -0.7780 -0.6392
   34MOL0     C 4520   9.214  -0.739   8.281 -0.4432 -0.1366 -0.2719
   34MOL0     C 4521   8.960  -0.046   8.618  0.1309 -0.1430 -0.6851
   34MOL0     C 4522   8.981   0.041   8.723  0.4838 -0.2445  0.6313
   34MOL0     H 4523   9.148   0.469   8.913 -0.8201 -2.1775  1.1849
   34MOL0     H 4524   9.251   0.659   9.003 -1.0350  1.2113  1.8438
   34MOL0     H 4525   9.425   0.496   9.387  1.4193 -1.0815  0.6113
   34MOL0     H 4526   9.544   0.623   9.379  1.4807 -3.9080 -1.7154
   34MOL0     H 4527   9.240   0.671   9.464  0.3784  0.8558  0.5271
   34MOL0     H 4528   9.390   0.678   9.562  2.0567 -0.6956 -0.2953
   34MOL0     H 4529   9.447   0.874   9.381 -0.5176 -2.5116 -0.8504
   34MOL0     H 4530   9.277   0.852   9.348 -0.6637 -2.5291 -0.1761
   34MOL0     H 4531   9.296   0.858   9.640  0.1819  1.9903  3.2473
   34MOL0     H 4532   9.420   0.974   9.586 -1.7543  3.3510 -0.5457
   34MOL0     H 4533   9.122   1.003   9.553  0.8516 -1.8650  0.9869
   34MOL0     H 4534   9.248   1.113   9.624  1.7865 -1.5251  1.0809
   34MOL0     H 4535   9.330   1.122   9.375  1.1429 -0.3900  1.9857
   34MOL0     H 4536   9.168   1.074   9.337  3.2622 -1.6434 -0.7142
   34MOL0     H 4537   9.229   1.325   9.507 -3.2031  0.3071  1.5798
   34MOL0     H 4538   9.181   1.326   9.339  1.0744  3.4291  1.2375
   34MOL0     H 4539   8.955   1.203   9.426 -2.1091 -0.1878  2.2517
   34MOL0     H 4540   8.976   1.374   9.452 -2.5963 -0.8892  5.0639
   34MOL0     H 4541   9.061   1.462   9.712  0.1933 -0.1115 -0.1975
   34MOL0     H 4542   9.121   1.435   9.959 -2.5455  1.7857 -1.4695
   34MOL0     H 4543   8.980   1.389  10.039 -2.7077 -3.1979 -0.8155
   34MOL0     H 4544   9.172   1.302  10.152 -2.1752  0.2199  0.2563
   34MOL0     H 4545   9.243   1.216  10.015 -0.6260 -1.0444  1.1278
   34MOL0     H 4546   9.012   1.049  10.039 -1.8055 -0.1752  1.6198
   34MOL0     H 4547   9.000   1.139  10.180  1.9160  0.9172  0.4485
   34MOL0     H 4548   9.254   0.999  10.133  1.5083  0.7982  2.8675
   34MOL0     H 4549   9.118   0.924  10.214  2.3369 -0.8211 -0.4522
   34MOL0     H 4550   9.258   1.135  10.573  0.6081 -3.6603  1.0204
   34MOL0     H 4551   9.499   1.293  10.712  1.0283 -1.7257  1.9431
   34MOL0     H 4552   9.387   1.155  10.753 -1.2846 -0.4476 -1.5485
   34MOL0     H 4553   9.563   1.144  10.757  2.3253  2.7278 -0.1769
   34MOL0     H 4554   9.923   1.420  10.550  1.8114  2.5863 -1.0169
   34MOL0     H 4555  10.164   1.452  10.591  0.9196  0.7118 -1.6489
   34MOL0     H 4556  10.382   1.493  10.487  1.2518  1.4410  1.4522
   34MOL0     H 4557  10.394   1.439  10.662 -3.0716 -0.4853  0.0645
   34MOL0     H 4558  10.580   1.326  10.628  3.9750 -0.4017 -1.1497
   34MOL0     H 4559  10.589   1.384  10.465 -1.4325  0.0907 -0.5624
   34MOL0     H 4560  10.551   1.566  10.711 -0.2756  0.0673 -1.3476
   34MOL0     H 4561  10.595   1.625  10.549  0.5486  1.8130  0.1036
   34MOL0     H 4562  10.764   1.440  10.729  1.5316  2.6601  2.4201
   34MOL0     H 4563  10.807   1.496  10.561  0.6531  3.8004 -0.7102
   34MOL0     H 4564  10.764   1.680  10.786  1.9469  0.9612  0.6277
   34MOL0     H 4565  10.804   1.715  10.617  0.4173 -0.5336 -0.0289
   34MOL0     H 4566  10.978   1.539  10.803  0.2498 -0.9801 -1.3138
   34MOL0     H 4567  11.006   1.570  10.643 -3.4330 -2.9518  0.5949
   34MOL0     H 4568  10.959   1.795  10.858 -1.1082  0.1078 -0.6393
   34MOL0     H 4569  11.000   1.832  10.697 -1.0567  0.9816  1.4881
   34MOL0     H 4570  11.174   1.849  10.882 -5.1924 -2.5368  4.3079
   34MOL0     H 4571  11.229   1.797  10.718 -1.2319  0.5127 -1.2909
   34MOL0     H 4572  10.254   1.085  10.398 -2.3318 -1.2019  0.4516
   34MOL0     H 4573   9.998   1.037  10.364  0.0227  1.1043 -0.2639
   34MOL0     H 4574   9.641   1.113  10.274 -0.0455 -2.0734  1.0530
   34MOL0     H 4575   9.413   1.125  10.175 -1.8857 -1.1589 -0.4964
   34MOL0     H 4576   9.517   0.400   9.231  0.1379 -4.6702 -0.8838
   34MOL0     H 4577   9.428   0.206   9.112  1.0822  1.1634 -1.8704
   34MOL0     H 4578   9.314   0.047   8.727 -0.3650  1.5351  0.9844
   34MOL0     H 4579   9.287  -0.113   8.557  0.4712 -0.9771 -1.2351
   34MOL0     H 4580   9.122  -0.301   8.299  1.3822 -0.4007 -0.8440
   34MOL0     H 4581   9.241  -0.205   8.371 -1.1307  1.3938  1.6896
   34MOL0     H 4582   9.278  -0.348   8.559  0.8819  5.7946 -3.4030
   34MOL0     H 4583   9.297  -0.437   8.408  1.2475  1.6398  0.3459
   34MOL0     H 4584   9.052  -0.452   8.595 -0.5824 -0.7039 -0.0080
   34MOL0     H 4585   9.190  -0.564   8.586  2.1020 -0.7714 -3.2702
   34MOL0     H 4586   9.016  -0.502   8.341  4.1129  1.9260 -0.6296
   34MOL0     H 4587   8.976  -0.634   8.456 -0.6393  0.3333 -1.5387
   34MOL0     H 4588   9.292  -0.798   8.238 -1.3592 -1.7921  0.2801
   34MOL0     H 4589   8.859  -0.082   8.602 -0.7572  0.8502  2.0963
   34MOL0     H 4590   8.898   0.078   8.782  0.5091 -0.6594  0.9274
   35MOL0     O 4591   6.115   9.905   4.302  0.4933  0.0507  0.3965
   35MOL0     C 4592   6.060   9.922   4.193  0.0013 -0.8213  0.2536
   35MOL0     O 4593   5.931   9.905   4.174  0.5623  0.1780  0.1715
   35MOL0     C 4594   5.850   9.848   4.269 -0.0522 -0.8443  0.0450
   35MOL0     C 4595   5.747   9.919   4.323  0.9038 -0.3869 -0.2726
   35MOL0     C 4596   5.665   9.855   4.424 -0.7343  0.0497  0.1259
   35MOL0     C 4597   5.689   9.734   4.472 -0.7354 -0.1099  0.3329
   35MOL0     O 4598   5.619   9.677   4.576 -0.2649 -0.1041  0.5789
   35MOL0     C 4599   5.576   9.769   4.681  0.1133  0.0262 -0.4613
   35MOL0     C 4600   5.482   9.701   4.796  0.5980 -0.0019  0.8682
   35MOL0     C 4601   5.482   9.783   4.927 -0.1249  0.8459 -0.7596
   35MOL0     C 4602   5.384   9.718   5.036  0.4047  0.6431 -0.0704
   35MOL0     C 4603   5.451   9.585   5.089  0.3580  0.4984 -0.2672
   35MOL0     C 4604   5.343   9.519   5.172  0.3390 -0.4747  0.2530
   35MOL0     C 4605   5.388   9.379   5.231  0.4209 -0.5312 -0.4484
   35MOL0     C 4606   5.280   9.292   5.300 -0.1415  0.1813 -1.0786
   35MOL0     N 4607   5.248   9.335   5.438  0.1059 -0.3023  1.0255
   35MOL0     C 4608   5.335   9.355   5.536  0.2662 -0.1872 -0.7406
   35MOL0     C 4609   5.259   9.418   5.626  0.7401 -0.3579 -0.1120
   35MOL0     C 4610   5.303   9.496   5.745 -0.7676 -0.4512 -0.2947
   35MOL0     C 4611   5.219   9.611   5.795  0.2669  0.8299  0.4423
   35MOL0     C 4612   5.135   9.568   5.912  0.1150 -0.6438 -0.5272
   35MOL0     C 4613   5.109   9.667   6.031  0.4039  0.1175  0.9093
   35MOL0     O 4614   5.239   9.727   6.070  0.6170  0.5347  0.0545
   35MOL0     C 4615   5.245   9.847   6.125 -0.3472  0.1390 -0.3699
   35MOL0     C 4616   5.368   9.913   6.107  0.5029 -0.3641  0.0257
   35MOL0     C 4617   5.375  10.055   6.130  0.9948 -0.1553 -0.1586
   35MOL0     C 4618   5.508  10.124   6.089  0.3603 -0.0883 -0.4098
   35MOL0     C 4619   5.263  10.124   6.181  0.8802  0.3574  0.4395
   35MOL0     C 4620   5.272  10.264   6.220 -0.1241 -0.4041 -0.0458
   35MOL0     O 4621   5.153  10.311   6.269  0.7841  0.6542  0.4956
   35MOL0     C 4622   5.146  10.444   6.301 -0.7677 -0.4395 -0.3628
   35MOL0     C 4623   5.117  10.492   6.439  0.5784 -0.4603  0.8286
   35MOL0     C 4624   5.083  10.627   6.468  0.5138 -0.4599 -0.3564
   35MOL0     C 4625   5.084  10.725   6.363  0.1249  0.6703  0.1173
   35MOL0     O 4626   5.038  10.852   6.361  0.1244 -0.2623  0.2001
   35MOL0     C 4627   5.018  10.921   6.485 -0.5849  0.1386  0.0929
   35MOL0     C 4628   4.989  11.067   6.454 -0.0049 -1.3537 -0.0686
   35MOL0     C 4629   5.109  11.138   6.389 -0.7461  0.0911 -0.0324
   35MOL0     C 4630   5.214  11.182   6.493 -0.1764  0.0198 -0.1603
   35MOL0     C 4631   5.344  11.224   6.430  0.1843  0.0695 -0.6594
   35MOL0     C 4632   5.451  11.305   6.522 -0.4215  0.8020 -1.7576
   35MOL0     C 4633   5.499  11.217   6.631 -0.4461 -0.3789 -1.3206
   35MOL0     C 4634   5.574  11.081   6.596  0.8289 -0.0081 -0.4111
   35MOL0    Cl 4635   5.712  11.100   6.488 -0.1983  0.4398  0.1580
   35MOL0     C 4636   5.114  10.683   6.231  0.4171  0.1334  0.1734
   35MOL0     C 4637   5.147  10.548   6.203  0.4105  0.2804 -0.1398
   35MOL0     O 4638   5.374  10.335   6.200 -0.1909 -0.3185  0.2671
   35MOL0     C 4639   5.142  10.053   6.206 -0.2416 -0.0660  0.8882
   35MOL0     C 4640   5.136   9.922   6.179  1.0958  0.4712 -0.9335
   35MOL0     N 4641   5.126   9.423   5.596 -0.6567 -0.2768  0.0915
   35MOL0     N 4642   5.119   9.375   5.477 -0.4506  0.4228 -0.0873
   35MOL0     C 4643   5.779   9.652   4.403 -0.6308 -0.7077 -0.5946
   35MOL0     C 4644   5.873   9.707   4.304  0.2646 -0.0035 -0.5246
   35MOL0     C 4645   6.145   9.943   4.065  1.0328 -0.1323 -0.7968
   35MOL0     C 4646   6.285   9.942   4.070  0.3843 -0.3440  0.0150
   35MOL0     C 4647   6.364   9.953   3.952  0.4426 -0.2205  0.6200
   35MOL0     C 4648   6.295   9.989   3.828  0.1273  0.3025 -0.9557
   35MOL0     O 4649   6.375  10.030   3.723 -0.6975 -0.0964  0.1037
   35MOL0     C 4650   6.382  10.167   3.681  0.7760  0.2562 -1.1173
   35MOL0     C 4651   6.416  10.270   3.791  0.3299  0.1467  0.5048
   35MOL0     C 4652   6.499  10.395   3.747 -0.0939 -0.5968  0.2415
   35MOL0     C 4653   6.433  10.489   3.649  0.3143 -0.2239  0.3028
   35MOL0     C 4654   6.498  10.485   3.521  0.6194  0.5062  0.9688
   35MOL0     C 4655   6.559  10.462   3.418 -0.0933  0.7137 -0.2892
   35MOL0     C 4656   6.162   9.977   3.819  0.1622 -0.0763 -0.8251
   35MOL0     C 4657   6.088   9.949   3.937 -0.3181 -0.2776  0.5445
   35MOL0     H 4658   5.728  10.023   4.300  0.2722 -0.5944 -0.7067
   35MOL0     H 4659   5.586   9.920   4.461  0.2474  1.3860 -0.0503
   35MOL0     H 4660   5.665   9.807   4.732 -0.4781  0.8118  0.0209
   35MOL0     H 4661   5.526   9.861   4.650  1.9902  2.1494  2.3150
   35MOL0     H 4662   5.377   9.696   4.767 -0.5916  1.3105  4.3313
   35MOL0     H 4663   5.518   9.601   4.818  2.0329 -0.0825 -1.5266
   35MOL0     H 4664   5.583   9.785   4.970 -0.8155  0.4487  0.9512
   35MOL0     H 4665   5.449   9.886   4.912 -0.7634  1.1927  2.3214
   35MOL0     H 4666   5.361   9.793   5.112  0.5241 -0.6087  1.2502
   35MOL0     H 4667   5.290   9.696   4.985 -0.0359 -0.3219  1.0892
   35MOL0     H 4668   5.480   9.515   5.010 -0.9848 -1.0477  0.5444
   35MOL0     H 4669   5.537   9.620   5.148  0.1331 -0.1871  0.4848
   35MOL0     H 4670   5.305   9.580   5.255  0.0652 -2.7879  1.9491
   35MOL0     H 4671   5.252   9.499   5.116 -0.6947 -3.4491  2.7114
   35MOL0     H 4672   5.426   9.324   5.144 -0.5352 -2.9132  0.5486
   35MOL0     H 4673   5.473   9.392   5.299 -0.7381 -0.2123  0.9811
   35MOL0     H 4674   5.311   9.187   5.295  2.0911  0.7010  0.4169
   35MOL0     H 4675   5.184   9.298   5.248 -0.3102  0.8087 -0.7008
   35MOL0     H 4676   5.443   9.347   5.532  0.2440 -2.5373  1.2816
   35MOL0     H 4677   5.314   9.419   5.823  1.1604  2.8350  3.0041
   35MOL0     H 4678   5.402   9.535   5.724 -0.6945  0.3450  1.3701
   35MOL0     H 4679   5.149   9.641   5.716 -1.5449 -0.0687  1.6238
   35MOL0     H 4680   5.280   9.697   5.822  1.3185  0.7160 -1.3965
   35MOL0     H 4681   5.187   9.487   5.964 -0.1897  0.8808  2.3542
   35MOL0     H 4682   5.039   9.527   5.878  0.3262 -3.1160  1.5790
   35MOL0     H 4683   5.064   9.607   6.111 -0.3883 -1.9682 -0.9850
   35MOL0     H 4684   5.035   9.744   6.006 -0.3543 -1.0614 -0.6760
   35MOL0     H 4685   5.459   9.861   6.078  0.8197  0.6389 -0.8586
   35MOL0     H 4686   5.502  10.221   6.039  3.6976  1.5329  1.9359
   35MOL0     H 4687   5.559  10.147   6.183  0.2705  1.2566 -0.6742
   35MOL0     H 4688   5.571  10.048   6.040 -0.7920 -1.6223  0.4205
   35MOL0     H 4689   5.131  10.419   6.519  0.5987  0.4007  1.6289
   35MOL0     H 4690   5.050  10.670   6.562 -0.1265  0.1720 -0.8603
   35MOL0     H 4691   4.936  10.867   6.533  0.9776  0.9117  3.9905
   35MOL0     H 4692   5.113  10.899   6.534  0.2988  1.0408 -1.1522
   35MOL0     H 4693   4.912  11.086   6.379  4.0620  3.4330 -3.8107
   35MOL0     H 4694   4.956  11.118   6.545  0.3615  0.6119 -0.9898
   35MOL0     H 4695   5.083  11.225   6.328  3.5785 -0.8045 -3.6594
   35MOL0     H 4696   5.164  11.067   6.326 -2.2569 -0.4601 -0.7739
   35MOL0     H 4697   5.170  11.252   6.565 -0.6498 -0.8062  0.3714
   35MOL0     H 4698   5.251  11.099   6.553  3.8070  0.6426 -1.4223
   35MOL0     H 4699   5.311  11.291   6.350  0.3547  2.0342  0.8499
   35MOL0     H 4700   5.396  11.132   6.401  0.6564 -1.3845  4.0389
   35MOL0     H 4701   5.538  11.332   6.462  1.7413  0.3123  0.9956
   35MOL0     H 4702   5.397  11.397   6.547  0.0803  0.5879  0.2345
   35MOL0     H 4703   5.425  11.190   6.707  0.1090 -0.7021 -0.8896
   35MOL0     H 4704   5.576  11.272   6.685 -0.7695 -2.1141  1.0642
   35MOL0     H 4705   5.496  11.025   6.542  0.1976  1.6812 -1.3283
   35MOL0     H 4706   5.602  11.037   6.692 -4.3657 -1.0357  0.9798
   35MOL0     H 4707   5.096  10.753   6.150 -0.0093  0.5759  0.6430
   35MOL0     H 4708   5.152  10.509   6.102 -1.1073 -3.2505  0.9945
   35MOL0     H 4709   5.059  10.106   6.250  2.3626  3.3662  2.1370
   35MOL0     H 4710   5.052   9.858   6.205  2.7089 -2.3929 -2.2803
   35MOL0     H 4711   5.795   9.545   4.417 -1.2556 -0.4835  2.4305
   35MOL0     H 4712   5.953   9.654   4.254  2.0761  3.2659 -1.4284
   35MOL0     H 4713   6.322   9.936   4.172 -0.3754 -0.8443  0.2731
   35MOL0     H 4714   6.472   9.960   3.958  0.3846  0.1065  1.4354
   35MOL0     H 4715   6.458  10.179   3.604  2.0146  0.5734  0.1234
   35MOL0     H 4716   6.287  10.196   3.635  0.5944  2.9102  0.6774
   35MOL0     H 4717   6.487  10.217   3.855 -0.1383  0.5224  1.3435
   35MOL0     H 4718   6.328  10.289   3.852 -3.0096 -5.6445 -1.7432
   35MOL0     H 4719   6.595  10.362   3.705  1.5830  0.4682  2.9358
   35MOL0     H 4720   6.536  10.448   3.835  4.2481  0.0499 -1.7047
   35MOL0     H 4721   6.440  10.590   3.691  1.0384  0.6984 -1.8762
   35MOL0     H 4722   6.328  10.467   3.627  0.2287  1.8504 -1.8058
   35MOL0     H 4723   6.615  10.435   3.330 -0.4290 -1.1167  0.0077
   35MOL0     H 4724   6.113   9.996   3.724 -0.6536 -0.4222 -0.4832
   35MOL0     H 4725   5.983   9.929   3.917 -1.3544  3.6409  1.2791
   36MOL0     O 4726   8.843   0.688   4.188  0.3305 -0.0528 -0.5156
   36MOL0     C 4727   8.942   0.740   4.133 -0.4061  0.1775  0.0208
   36MOL0     O 4728   9.039   0.671   4.053 -0.6364 -0.2242 -0.5853
   36MOL0     C 4729   9.031   0.542   4.082 -0.2170 -0.2076 -0.2377
   36MOL0     C 4730   9.076   0.503   4.209 -0.0047 -0.6469  0.0711
   36MOL0     C 4731   9.070   0.365   4.233 -0.0337 -0.2473 -0.4670
   36MOL0     C 4732   9.017   0.268   4.134  0.7753 -0.0524  0.4061
   36MOL0     O 4733   9.008   0.131   4.141  0.0963 -0.4211  0.0590
   36MOL0     C 4734   9.112   0.078   4.213 -0.6308  1.3031  1.2002
   36MOL0     C 4735   9.120  -0.072   4.204  0.2067  0.0923 -0.1253
   36MOL0     C 4736   9.251  -0.152   4.235 -0.0505  0.1805  0.5398
   36MOL0     C 4737   9.248  -0.303   4.183 -0.3420 -0.3089 -0.0682
   36MOL0     C 4738   9.274  -0.305   4.034 -0.2677  0.3203 -0.7918
   36MOL0     C 4739   9.252  -0.448   3.978 -0.7027  0.1883 -0.2443
   36MOL0     C 4740   9.288  -0.442   3.816  0.3484 -0.1776 -0.6438
   36MOL0     C 4741   9.428  -0.398   3.770 -0.7142 -0.0711 -0.2844
   36MOL0     N 4742   9.532  -0.483   3.818  0.1143 -0.1120 -0.0214
   36MOL0     C 4743   9.617  -0.466   3.931  0.4979 -0.4635  0.3507
   36MOL0     C 4744   9.699  -0.579   3.924  0.1631  0.5453  0.2661
   36MOL0     C 4745   9.796  -0.618   4.028  0.4499  0.2076  0.9304
   36MOL0     C 4746   9.928  -0.554   4.007 -0.4904 -0.7247 -0.7584
   36MOL0     C 4747   9.988  -0.583   3.868 -0.1924 -0.1363  0.6482
   36MOL0     C 4748  10.138  -0.557   3.871  0.3791  0.3113  0.4260
   36MOL0     O 4749  10.173  -0.439   3.946  0.2146  0.2603 -0.6309
   36MOL0     C 4750  10.304  -0.412   3.962 -0.5672  0.8510  0.7603
   36MOL0     C 4751  10.344  -0.380   4.092  0.3651 -0.2564 -1.1963
   36MOL0     C 4752  10.480  -0.368   4.131 -1.3551 -0.5313 -0.2075
   36MOL0     C 4753  10.500  -0.317   4.266  0.0504  0.6624 -0.5717
   36MOL0     C 4754  10.579  -0.374   4.033  0.9768 -0.9453 -1.0225
   36MOL0     C 4755  10.724  -0.351   4.060  0.5193 -0.2556  0.2108
   36MOL0     O 4756  10.813  -0.422   3.984  0.5970 -0.6054 -1.0248
   36MOL0     C 4757  10.951  -0.410   3.991 -0.3327  0.6515  1.4061
   36MOL0     C 4758  11.032  -0.447   4.102  0.5145  0.0477  0.5734
   36MOL0     C 4759  11.167  -0.425   4.089 -0.0367  0.0142  0.5081
   36MOL0     C 4760  11.227  -0.378   3.970  0.2183  0.3649  0.0947
   36MOL0     O 4761  11.354  -0.359   3.934  0.7608 -0.5519  0.8147
   36MOL0     C 4762  11.448  -0.342   4.041 -0.5419 -0.1408  0.5826
   36MOL0     C 4763  11.590  -0.322   3.977 -0.1856  0.2961 -0.6549
   36MOL0     C 4764  11.698  -0.321   4.089  0.3659 -0.2616 -0.1445
   36MOL0     C 4765  11.825  -0.266   4.020 -0.6892 -0.7594  0.7226
   36MOL0     C 4766  11.898  -0.331   3.904  0.4268 -1.0461 -0.9695
   36MOL0     C 4767  11.949  -0.480   3.929 -0.3201  0.0474  0.6528
   36MOL0     C 4768  12.028  -0.527   3.809  0.4326 -0.4138  0.2195
   36MOL0     C 4769  12.110  -0.655   3.824  0.3522  0.0693 -0.7093
   36MOL0    Cl 4770  12.234  -0.668   3.718 -0.0346 -0.0973  0.0994
   36MOL0     C 4771  11.149  -0.352   3.866 -0.0327  0.6295  0.0153
   36MOL0     C 4772  11.013  -0.373   3.869 -0.1090  1.4543 -0.0765
   36MOL0     O 4773  10.764  -0.276   4.151 -1.0108  0.1337  1.3294
   36MOL0     C 4774  10.542  -0.409   3.904  0.8902  0.2258  0.3698
   36MOL0     C 4775  10.405  -0.431   3.873  0.3896  0.3836 -0.0246
   36MOL0     N 4776   9.672  -0.648   3.803  0.7045  0.0474 -0.4482
   36MOL0     N 4777   9.565  -0.599   3.759  0.6794 -0.2607  1.2644
   36MOL0     C 4778   8.978   0.319   4.012 -0.3165 -0.6194  0.0442
   36MOL0     C 4779   8.994   0.453   3.981 -0.3583  0.1453  0.5920
   36MOL0     C 4780   8.968   0.885   4.160 -0.9380  0.2867  0.4957
   36MOL0     C 4781   8.855   0.962   4.200  0.3371 -0.1815  0.2259
   36MOL0     C 4782   8.858   1.098   4.204  1.0164  0.4241  0.2048
   36MOL0     C 4783   8.973   1.175   4.186 -0.8022  0.1222  1.0080
   36MOL0     O 4784   8.981   1.310   4.219 -0.1559 -0.1735 -0.1013
   36MOL0     C 4785   9.057   1.399   4.134  0.1086  0.0756 -0.6254
   36MOL0     C 4786   9.069   1.541   4.194 -0.3207  0.1295 -1.0255
   36MOL0     C 4787   8.949   1.642   4.156 -0.9149  0.1859  0.2747
   36MOL0     C 4788   8.971   1.792   4.185  0.9715 -0.4141  0.7381
   36MOL0     C 4789   8.862   1.866   4.117 -0.6879  0.2059  0.3277
   36MOL0     C 4790   8.779   1.942   4.059 -0.3600 -0.7697 -0.4317
   36MOL0     C 4791   9.086   1.097   4.148  0.5163 -0.6798 -0.8414
   36MOL0     C 4792   9.090   0.959   4.133  0.1368  0.3127  0.2845
   36MOL0     H 4793   9.120   0.568   4.284 -1.5659  2.0002 -1.1694
   36MOL0     H 4794   9.093   0.318   4.328  1.1529 -0.2148 -0.7273
   36MOL0     H 4795   9.203   0.114   4.164 -1.7580  1.1381 -1.1367
   36MOL0     H 4796   9.110   0.126   4.311 -0.7096  3.6346  0.1136
   36MOL0     H 4797   9.042  -0.116   4.267  0.4929  0.6481  0.6295
   36MOL0     H 4798   9.086  -0.105   4.106  1.1376  2.0689 -1.1685
   36MOL0     H 4799   9.337  -0.096   4.196 -0.2379  0.3396  0.3587
   36MOL0     H 4800   9.257  -0.145   4.344 -0.6705  0.6910  0.5465
   36MOL0     H 4801   9.326  -0.363   4.231 -0.6036 -2.0638 -1.7195
   36MOL0     H 4802   9.148  -0.344   4.202 -1.4013 -0.5444 -4.8479
   36MOL0     H 4803   9.193  -0.253   3.982  1.2425 -0.6338 -4.3636
   36MOL0     H 4804   9.371  -0.261   4.009  1.0180 -0.8900  1.6754
   36MOL0     H 4805   9.310  -0.525   4.030 -0.0146  0.9254  0.0919
   36MOL0     H 4806   9.148  -0.482   3.978 -1.1109  1.2807 -1.9340
   36MOL0     H 4807   9.275  -0.548   3.792  1.1482 -0.8349  1.5393
   36MOL0     H 4808   9.210  -0.386   3.765  1.3231  0.4960 -1.4253
   36MOL0     H 4809   9.442  -0.299   3.814 -0.9686  1.1747 -2.8263
   36MOL0     H 4810   9.427  -0.388   3.661  1.1680  0.7863 -0.2595
   36MOL0     H 4811   9.621  -0.389   4.007  0.6428  0.5682 -0.6775
   36MOL0     H 4812   9.765  -0.594   4.131  3.0837 -0.1354  1.8792
   36MOL0     H 4813   9.814  -0.724   4.012 -0.6929  0.4433 -2.7680
   36MOL0     H 4814   9.994  -0.593   4.085 -2.4931 -1.7559  0.4742
   36MOL0     H 4815   9.912  -0.448   4.028 -0.1120 -0.7892 -0.1383
   36MOL0     H 4816   9.940  -0.513   3.799 -0.0227 -0.8794 -0.2458
   36MOL0     H 4817   9.975  -0.687   3.837  2.3466 -1.3792  3.3481
   36MOL0     H 4818  10.165  -0.537   3.767 -1.7862 -0.0344 -0.2633
   36MOL0     H 4819  10.190  -0.647   3.903 -0.2017  0.5274  2.0779
   36MOL0     H 4820  10.255  -0.381   4.155 -0.5515  0.9017 -2.4185
   36MOL0     H 4821  10.584  -0.367   4.316 -2.8153 -0.5363  3.5171
   36MOL0     H 4822  10.531  -0.213   4.247 -0.7616  0.6562 -2.1593
   36MOL0     H 4823  10.412  -0.322   4.330 -0.0208  0.3694 -0.6880
   36MOL0     H 4824  10.980  -0.484   4.190  1.5233  2.3538  2.2487
   36MOL0     H 4825  11.238  -0.448   4.167  2.9673  1.0336 -1.7498
   36MOL0     H 4826  11.424  -0.250   4.094  0.8713  1.1367 -0.8822
   36MOL0     H 4827  11.443  -0.430   4.106 -0.3141  0.8619  1.9998
   36MOL0     H 4828  11.606  -0.394   3.896 -0.9919 -3.9343  2.5733
   36MOL0     H 4829  11.584  -0.221   3.936 -0.6774  0.3565 -0.4398
   36MOL0     H 4830  11.723  -0.421   4.126  3.4843 -1.1276 -3.9526
   36MOL0     H 4831  11.676  -0.263   4.179  2.7630 -0.4299  0.6224
   36MOL0     H 4832  11.800  -0.161   4.001  4.0832  0.9404  2.3408
   36MOL0     H 4833  11.896  -0.256   4.103 -0.1270 -1.3682  0.3255
   36MOL0     H 4834  11.981  -0.269   3.870 -0.4799 -0.0084 -1.3618
   36MOL0     H 4835  11.829  -0.337   3.819  0.4207  1.2845 -1.1812
   36MOL0     H 4836  12.026  -0.487   4.007  0.6074 -3.0719 -0.3834
   36MOL0     H 4837  11.869  -0.545   3.963  2.4476 -2.9394  2.0117
   36MOL0     H 4838  12.103  -0.456   3.774 -0.0420  0.0946  0.2244
   36MOL0     H 4839  11.951  -0.546   3.733  1.0337  1.0683 -0.7979
   36MOL0     H 4840  12.042  -0.739   3.808  3.1826 -2.5032 -0.0623
   36MOL0     H 4841  12.140  -0.663   3.929  0.8437  2.1930 -0.6386
   36MOL0     H 4842  11.177  -0.298   3.776  1.0623 -1.6878 -1.1214
   36MOL0     H 4843  10.952  -0.361   3.780 -1.2151  3.2059  0.8640
   36MOL0     H 4844  10.611  -0.398   3.821  0.8514  0.5629  0.3794
   36MOL0     H 4845  10.366  -0.447   3.773  0.9380  0.1449 -0.2011
   36MOL0     H 4846   8.942   0.250   3.937  0.1033  0.1427 -0.8731
   36MOL0     H 4847   8.965   0.489   3.883  0.0122 -0.7936  0.1270
   36MOL0     H 4848   8.767   0.904   4.226 -0.4904 -0.7996 -3.3879
   36MOL0     H 4849   8.765   1.142   4.237 -0.9675 -2.7306 -0.7329
   36MOL0     H 4850   9.155   1.354   4.118  0.1714 -1.4908  3.1140
   36MOL0     H 4851   9.012   1.409   4.035 -1.5442  2.8248  0.2880
   36MOL0     H 4852   9.165   1.580   4.160  0.4161 -0.0498  0.7459
   36MOL0     H 4853   9.076   1.531   4.303  0.1969  1.8123 -0.8768
   36MOL0     H 4854   8.861   1.607   4.211 -0.4967 -4.2676 -1.4240
   36MOL0     H 4855   8.919   1.632   4.051 -0.7168  0.6752  0.1704
   36MOL0     H 4856   9.068   1.829   4.149  1.0527  3.0852  3.9208
   36MOL0     H 4857   8.992   1.807   4.291  0.3563 -1.8224  1.0832
   36MOL0     H 4858   8.713   2.012   4.012  1.1819  1.7148  0.8682
   36MOL0     H 4859   9.175   1.150   4.117  0.0976 -0.9358 -2.6083
   36MOL0     H 4860   9.177   0.903   4.101  0.6086  1.4536 -0.5023
   37MOL0     O 4861   2.110  10.536   4.778  0.8473  0.6443  0.3854
   37MOL0     C 4862   2.197  10.510   4.862 -0.1347 -0.0859  0.0651
   37MOL0     O 4863   2.266  10.602   4.935 -0.0346 -0.0482  0.0587
   37MOL0     C 4864   2.234  10.730   4.970 -0.1596  0.0174  0.3097
   37MOL0     C 4865   2.130  10.809   4.920 -0.5031 -0.0868 -0.7104
   37MOL0     C 4866   2.115  10.939   4.970 -0.2417  1.1312  0.4832
   37MOL0     C 4867   2.196  10.984   5.070  1.2094 -0.0891 -0.0512
   37MOL0     O 4868   2.178  11.116   5.112  0.4804 -0.2759  0.2928
   37MOL0     C 4869   2.194  11.219   5.010  0.2525 -0.7520 -0.7096
   37MOL0     C 4870   2.064  11.304   5.015  0.7714 -0.6894  0.1896
   37MOL0     C 4871   2.051  11.410   4.904 -0.6696 -0.2377 -1.3554
   37MOL0     C 4872   1.923  11.488   4.921 -0.9001 -0.4385  0.1574
   37MOL0     C 4873   1.903  11.600   4.811  0.6830 -0.0671 -0.4146
   37MOL0     C 4874   1.780  11.684   4.847 -0.0555  0.3061  0.2740
   37MOL0     C 4875   1.739  11.804   4.756 -0.4876  1.2273 -0.0215
   37MOL0     C 4876   1.868  11.881   4.708 -0.1867  0.5548 -0.4471
   37MOL0     N 4877   1.830  12.006   4.642 -0.0566  0.0545  0.1997
   37MOL0     C 4878   1.813  12.119   4.712 -0.8448  0.3287 -0.4738
   37MOL0     C 4879   1.766  12.204   4.612  0.1880  0.2038 -0.1352
   37MOL0     C 4880   1.733  12.352   4.624  0.7162  0.8972  0.0984
   37MOL0     C 4881   1.708  12.411   4.761 -0.4858  0.0176 -0.3507
   37MOL0     C 4882   1.622  12.534   4.748  0.4743  0.8632  0.4547
   37MOL0     C 4883   1.680  12.671   4.687 -0.5760  0.4317 -0.3495
   37MOL0     O 4884   1.567  12.775   4.668  0.3304  0.0457  0.0713
   37MOL0     C 4885   1.575  12.857   4.556  0.1099  0.9567 -0.4839
   37MOL0     C 4886   1.472  12.945   4.552  0.1690 -0.5412  0.1746
   37MOL0     C 4887   1.457  13.040   4.447 -1.0638 -0.0412  0.2811
   37MOL0     C 4888   1.350  13.144   4.487 -0.5050 -0.5688  0.3243
   37MOL0     C 4889   1.539  13.033   4.331 -0.0321  0.2875 -0.1993
   37MOL0     C 4890   1.536  13.142   4.221 -0.1988  0.3544 -0.6246
   37MOL0     O 4891   1.662  13.167   4.175 -0.0415  0.2392 -0.0706
   37MOL0     C 4892   1.698  13.272   4.099  0.5133  0.3712 -0.6783
   37MOL0     C 4893   1.817  13.348   4.143  0.8993  0.5951  0.3507
   37MOL0     C 4894   1.850  13.452   4.058  0.1061 -0.0162  0.0897
   37MOL0     C 4895   1.775  13.488   3.950  0.6900 -0.8478 -0.8557
   37MOL0     O 4896   1.816  13.594   3.881  0.0525  1.0687 -0.4214
   37MOL0     C 4897   1.734  13.652   3.781  0.0385  0.7583  0.2927
   37MOL0     C 4898   1.793  13.787   3.739  0.0552  0.3220  0.8657
   37MOL0     C 4899   1.726  13.846   3.605 -0.0088 -1.1055  0.2338
   37MOL0     C 4900   1.840  13.932   3.535  0.0138 -0.0905  0.4260
   37MOL0     C 4901   1.778  14.028   3.440  0.0772 -0.0252 -0.0555
   37MOL0     C 4902   1.856  14.045   3.311 -0.1616 -0.4842 -0.5710
   37MOL0     C 4903   1.993  14.113   3.329  0.2839 -0.2689  0.2487
   37MOL0     C 4904   2.051  14.120   3.181  0.0798  0.4682  0.0149
   37MOL0    Cl 4905   2.002  14.263   3.099 -0.3956 -0.0167 -0.0484
   37MOL0     C 4906   1.661  13.409   3.912  0.8804  0.1577  0.3996
   37MOL0     C 4907   1.627  13.295   3.983 -0.2176  0.6697 -0.5620
   37MOL0     O 4908   1.439  13.218   4.208 -0.1597  0.6227  0.6485
   37MOL0     C 4909   1.651  12.942   4.333  0.6798 -0.0171 -0.2470
   37MOL0     C 4910   1.661  12.854   4.450  0.0898  0.4925  0.7092
   37MOL0     N 4911   1.746  12.136   4.499 -1.1581  0.5739  0.5406
   37MOL0     N 4912   1.786  12.012   4.511  0.2808 -1.0972  0.1137
   37MOL0     C 4913   2.287  10.904   5.127  0.5906 -0.2616 -1.3247
   37MOL0     C 4914   2.309  10.778   5.084  0.4236  0.8048 -0.4835
   37MOL0     C 4915   2.226  10.365   4.883 -0.2627  0.0347  0.7008
   37MOL0     C 4916   2.143  10.273   4.819 -0.2631  0.7827  0.5519
   37MOL0     C 4917   2.162  10.138   4.831  1.6202  0.6036  0.5337
   37MOL0     C 4918   2.265  10.086   4.901 -0.1099  0.1093 -0.5212
   37MOL0     O 4919   2.290   9.955   4.928  0.1122  0.8215 -0.8792
   37MOL0     C 4920   2.233   9.846   4.843 -1.2768  0.4511  0.4501
   37MOL0     C 4921   2.108   9.788   4.912 -0.2687  0.6235  0.0234
   37MOL0     C 4922   2.022   9.695   4.823  0.5848 -0.1510  0.0779
   37MOL0     C 4923   1.891   9.643   4.879  1.0213 -0.4542  0.0154
   37MOL0     C 4924   1.915   9.548   4.989 -0.4091 -0.6039  0.1747
   37MOL0     C 4925   1.952   9.477   5.081  0.2321  0.3520 -0.0272
   37MOL0     C 4926   2.352  10.174   4.965  0.8508 -0.6189  0.3434
   37MOL0     C 4927   2.333  10.313   4.954 -0.0594  0.6404  0.2554
   37MOL0     H 4928   2.068  10.773   4.839 -1.7898 -0.8419  0.5716
   37MOL0     H 4929   2.031  10.987   4.920  0.2913  1.2427 -0.3219
   37MOL0     H 4930   2.286  11.278   5.017 -1.5939  2.1048  2.6931
   37MOL0     H 4931   2.187  11.171   4.912 -1.3161  1.4762 -1.7857
   37MOL0     H 4932   1.977  11.238   5.016 -1.7366  2.1547  4.6422
   37MOL0     H 4933   2.052  11.360   5.109  0.4440 -0.8747  0.2604
   37MOL0     H 4934   2.133  11.482   4.912  3.1733 -4.3714  3.0882
   37MOL0     H 4935   2.056  11.369   4.803  2.0713 -3.3245 -0.1248
   37MOL0     H 4936   1.842  11.416   4.906 -0.4615 -0.9713  0.2806
   37MOL0     H 4937   1.920  11.531   5.021  0.9032  0.3310 -0.0803
   37MOL0     H 4938   1.998  11.655   4.804  0.7724 -0.4244 -4.3412
   37MOL0     H 4939   1.872  11.559   4.714  1.3444 -1.9758  0.1500
   37MOL0     H 4940   1.693  11.618   4.852 -0.2811  0.6231  0.6631
   37MOL0     H 4941   1.810  11.716   4.948  1.8194 -1.5603  0.3642
   37MOL0     H 4942   1.670  11.762   4.683 -3.5231  5.0394  0.3516
   37MOL0     H 4943   1.687  11.873   4.823 -3.5578  0.6870 -1.6733
   37MOL0     H 4944   1.912  11.822   4.627  0.8265  0.7464 -0.0402
   37MOL0     H 4945   1.943  11.895   4.786 -0.3544 -0.3713 -0.1003
   37MOL0     H 4946   1.820  12.133   4.820  0.2107 -3.1767  0.0522
   37MOL0     H 4947   1.801  12.419   4.571  1.6720  4.2338  4.8038
   37MOL0     H 4948   1.644  12.367   4.563  0.3322  0.9236  0.6505
   37MOL0     H 4949   1.804  12.441   4.805  0.1914  0.9491 -2.3784
   37MOL0     H 4950   1.660  12.337   4.826  2.4450 -0.2373  1.7778
   37MOL0     H 4951   1.591  12.557   4.851  1.4774 -0.5066  1.0903
   37MOL0     H 4952   1.544  12.519   4.673  1.9367  2.4767 -1.4795
   37MOL0     H 4953   1.736  12.648   4.595  1.1539 -4.3499  1.5683
   37MOL0     H 4954   1.748  12.711   4.763 -2.6188  2.4967  0.5245
   37MOL0     H 4955   1.398  12.939   4.631  0.0456 -1.8351 -0.0251
   37MOL0     H 4956   1.385  13.247   4.472  0.0161 -0.4112  2.3468
   37MOL0     H 4957   1.257  13.116   4.438 -2.1388  1.3545  2.1604
   37MOL0     H 4958   1.320  13.128   4.591  4.4317 -0.4249  2.0608
   37MOL0     H 4959   1.878  13.321   4.228  0.8445 -0.3974  0.0895
   37MOL0     H 4960   1.928  13.522   4.086  2.0351  0.0106 -4.4203
   37MOL0     H 4961   1.716  13.584   3.697 -0.1172  1.9440 -0.6770
   37MOL0     H 4962   1.635  13.679   3.820  0.2295  3.1172 -0.6721
   37MOL0     H 4963   1.802  13.857   3.822  3.5877 -2.7253  3.3760
   37MOL0     H 4964   1.899  13.777   3.714  0.2082 -0.6246  1.8228
   37MOL0     H 4965   1.655  13.918   3.647 -0.0512 -0.7921 -0.3634
   37MOL0     H 4966   1.678  13.772   3.540 -0.0748 -0.3004 -0.6599
   37MOL0     H 4967   1.909  13.992   3.594 -0.4603 -0.0657  0.9606
   37MOL0     H 4968   1.900  13.859   3.480  1.8777  2.4414 -1.1494
   37MOL0     H 4969   1.737  14.121   3.482 -2.0466  0.3241 -2.6424
   37MOL0     H 4970   1.689  13.979   3.398 -0.4621 -1.3963  2.4728
   37MOL0     H 4971   1.893  13.945   3.287 -0.3114 -2.4695  5.5641
   37MOL0     H 4972   1.790  14.094   3.239 -1.9001 -0.9280  0.6541
   37MOL0     H 4973   2.052  14.045   3.392 -0.5005 -1.3940 -0.1826
   37MOL0     H 4974   1.991  14.209   3.382  0.5634  0.8962 -1.7645
   37MOL0     H 4975   2.015  14.039   3.117  2.3909 -3.2525  3.0147
   37MOL0     H 4976   2.160  14.108   3.181 -0.0233 -0.8063  1.5045
   37MOL0     H 4977   1.603  13.418   3.821 -5.0237 -3.4457  3.2167
   37MOL0     H 4978   1.540  13.235   3.956 -0.2048  1.0127 -1.4032
   37MOL0     H 4979   1.743  12.955   4.278  1.0886  1.2985  0.6958
   37MOL0     H 4980   1.758  12.804   4.454  1.0727  2.0248 -1.5965
   37MOL0     H 4981   2.339  10.937   5.216  0.2775  0.6202 -1.4547
   37MOL0     H 4982   2.368  10.705   5.140 -3.9770 -3.3740 -0.6415
   37MOL0     H 4983   2.060  10.293   4.752  0.9176  0.3656 -1.1034
   37MOL0     H 4984   2.091  10.077   4.777  2.5898  0.1205 -0.2360
   37MOL0     H 4985   2.206   9.887   4.746  3.0401  1.7998 -0.4040
   37MOL0     H 4986   2.313   9.773   4.828 -0.4366  1.3231  0.6552
   37MOL0     H 4987   2.057   9.880   4.941  1.6433  2.1156 -1.0909
   37MOL0     H 4988   2.140   9.740   5.005 -0.3707  0.2842 -0.1123
   37MOL0     H 4989   2.068   9.605   4.780  1.5986  0.7949 -0.8894
   37MOL0     H 4990   1.994   9.753   4.735  0.7556 -2.7458 -1.7982
   37MOL0     H 4991   1.843   9.591   4.795  3.1258 -2.3567 -0.0906
   37MOL0     H 4992   1.830   9.725   4.918 -0.2171  0.6536 -3.7760
   37MOL0     H 4993   1.998   9.442   5.171  1.3370  1.6278 -0.0599
   37MOL0     H 4994   2.435  10.134   5.022  0.2395 -0.5557  1.2911
   37MOL0     H 4995   2.394  10.385   5.007 -0.1240 -0.5553  2.0482
   38MOL0     O 4996  11.212   6.927  10.921  0.0739 -0.1572  0.0923
   38MOL0     C 4997  11.202   6.826  10.850  0.4030 -0.4053  0.2599
   38MOL0     O 4998  11.303   6.772  10.776 -0.2708 -0.5548  0.5672
   38MOL0     C 4999  11.439   6.815  10.773 -0.3224  0.3688  0.6055
   38MOL0     C 5000  11.502   6.924  10.846  0.3101  0.3854 -0.3387
   38MOL0     C 5001  11.635   6.956  10.811  0.0181  0.4799  1.0911
   38MOL0     C 5002  11.707   6.884  10.712 -0.3921 -1.2329  1.7600
   38MOL0     O 5003  11.834   6.911  10.664  0.2018 -0.0617  0.6927
   38MOL0     C 5004  11.930   6.892  10.766 -0.4307 -0.4266 -0.5756
   38MOL0     C 5005  12.063   6.882  10.698 -0.5498  0.0865 -0.2840
   38MOL0     C 5006  12.074   6.748  10.626  0.1622  0.5646  0.1876
   38MOL0     C 5007  12.212   6.732  10.554  0.4719  0.2726 -0.8696
   38MOL0     C 5008  12.202   6.622  10.446 -0.3260  0.8994 -0.5622
   38MOL0     C 5009  12.339   6.605  10.372  1.0818 -0.1276 -0.0118
   38MOL0     C 5010  12.408   6.739  10.321  0.4838  0.1516 -0.5117
   38MOL0     C 5011  12.329   6.789  10.196 -0.7541 -0.1092 -0.2234
   38MOL0     N 5012  12.374   6.923  10.152  0.2592  0.4863  1.3857
   38MOL0     C 5013  12.377   7.037  10.223 -0.4808 -0.3561  0.0497
   38MOL0     C 5014  12.454   7.125  10.156  0.2707 -0.3520  0.1127
   38MOL0     C 5015  12.522   7.248  10.215 -0.2250 -0.6485  0.5300
   38MOL0     C 5016  12.477   7.382  10.144  0.5210  0.3277  0.6653
   38MOL0     C 5017  12.563   7.506  10.187 -0.1486  0.4831  0.1481
   38MOL0     C 5018  12.552   7.621  10.083  0.1549  0.4732 -0.3923
   38MOL0     O 5019  12.431   7.697  10.083  0.0683 -0.5091 -0.2528
   38MOL0     C 5020  12.421   7.803  10.172 -0.1748  0.4503 -0.0134
   38MOL0     C 5021  12.514   7.833  10.268 -0.3769  0.1452 -0.7757
   38MOL0     C 5022  12.490   7.944  10.354 -0.5005 -0.1187  0.1261
   38MOL0     C 5023  12.603   7.986  10.453  0.1812  0.1023  0.9575
   38MOL0     C 5024  12.374   8.021  10.348  0.2447 -0.6150  1.0837
   38MOL0     C 5025  12.340   8.144  10.437 -0.2353 -0.1196  0.1594
   38MOL0     O 5026  12.237   8.220  10.399 -0.2092  0.1355 -0.3005
   38MOL0     C 5027  12.175   8.301  10.494 -0.8318  0.6593  0.1930
   38MOL0     C 5028  12.173   8.270  10.632  0.0361 -0.4241  0.2075
   38MOL0     C 5029  12.124   8.364  10.725 -0.5048  0.0754  0.3518
   38MOL0     C 5030  12.085   8.490  10.687  0.5421 -0.0576  0.3125
   38MOL0     O 5031  12.034   8.573  10.787  0.6169 -0.2521  0.0406
   38MOL0     C 5032  12.035   8.716  10.779 -0.6142  0.3110  0.5058
   38MOL0     C 5033  11.927   8.789  10.865 -0.1651  0.1153  0.2175
   38MOL0     C 5034  11.980   8.813  11.006  0.3643  0.0561  0.1685
   38MOL0     C 5035  12.013   8.684  11.085 -0.3978 -0.4542 -0.6673
   38MOL0     C 5036  11.879   8.624  11.145 -0.5988 -0.4090 -0.1161
   38MOL0     C 5037  11.886   8.511  11.243 -0.1869 -1.0531  0.8042
   38MOL0     C 5038  11.871   8.555  11.392 -0.8836  0.2178 -0.9011
   38MOL0     C 5039  11.987   8.488  11.474 -0.2832 -0.1446  0.7520
   38MOL0    Cl 5040  12.149   8.543  11.415 -0.2014 -0.3487 -0.4264
   38MOL0     C 5041  12.065   8.523  10.553 -0.7894  0.7659  0.4053
   38MOL0     C 5042  12.118   8.429  10.460  0.2102  0.6037 -0.4209
   38MOL0     O 5043  12.410   8.171  10.530 -0.0175  0.4159  0.4787
   38MOL0     C 5044  12.281   7.987  10.241  0.4803  0.2061 -0.9322
   38MOL0     C 5045  12.306   7.872  10.164  1.3214 -0.4137  0.5630
   38MOL0     N 5046  12.492   7.060  10.043 -0.7070  0.1733 -0.5463
   38MOL0     N 5047  12.458   6.939  10.042  0.3408  1.2209 -1.0405
   38MOL0     C 5048  11.646   6.779  10.654 -0.9152 -0.0408  0.6837
   38MOL0     C 5049  11.518   6.735  10.677 -0.3466 -0.5714  1.0112
   38MOL0     C 5050  11.070   6.760  10.852 -0.5496  0.5488 -0.7013
   38MOL0     C 5051  11.051   6.629  10.803 -0.2392 -0.8425  0.0141
   38MOL0     C 5052  10.929   6.560  10.827  0.8218 -1.2501  0.2687
   38MOL0     C 5053  10.816   6.614  10.896 -0.2583 -0.8249  0.3898
   38MOL0     O 5054  10.691   6.558  10.905  0.4093 -0.1952  0.1672
   38MOL0     C 5055  10.694   6.431  10.970 -0.1843  0.0663  0.1924
   38MOL0     C 5056  10.582   6.335  10.940  0.8927 -0.1251 -0.6610
   38MOL0     C 5057  10.507   6.287  11.068  0.0990  0.3874 -0.7998
   38MOL0     C 5058  10.431   6.403  11.139 -0.7309  0.0329 -0.2758
   38MOL0     C 5059  10.363   6.346  11.254  0.0226  0.4376 -0.2107
   38MOL0     C 5060  10.283   6.316  11.339  0.9792 -0.8194 -0.6106
   38MOL0     C 5061  10.834   6.748  10.935  0.0161 -0.4975 -0.1201
   38MOL0     C 5062  10.955   6.814  10.912 -0.4387 -0.0697 -0.3532
   38MOL0     H 5063  11.447   6.964  10.931 -0.8638 -4.3634  1.4455
   38MOL0     H 5064  11.688   7.034  10.865 -0.9377  0.3349  2.2829
   38MOL0     H 5065  11.931   6.968  10.844 -0.1374 -0.6931 -0.3180
   38MOL0     H 5066  11.908   6.802  10.824  0.3092  1.1349  2.2896
   38MOL0     H 5067  12.080   6.970  10.635  0.8336  0.6542  0.8302
   38MOL0     H 5068  12.142   6.884  10.774 -0.7957  2.0511 -0.0249
   38MOL0     H 5069  12.049   6.665  10.693 -1.9605  1.1813  0.2330
   38MOL0     H 5070  11.999   6.754  10.547 -1.6577  6.1011  1.9525
   38MOL0     H 5071  12.241   6.822  10.500  1.9840  1.7907  2.2463
   38MOL0     H 5072  12.284   6.717  10.635  0.7565 -1.5971 -1.4224
   38MOL0     H 5073  12.175   6.525  10.487 -0.8497  1.5255  0.6153
   38MOL0     H 5074  12.126   6.654  10.374  1.1154  1.4553 -1.9108
   38MOL0     H 5075  12.408   6.555  10.441 -3.9218 -1.7008  4.5610
   38MOL0     H 5076  12.322   6.545  10.282 -0.2503  1.4719 -0.8708
   38MOL0     H 5077  12.404   6.822  10.392  0.8844  0.7778 -1.2126
   38MOL0     H 5078  12.514   6.716  10.306  0.7637  0.6969  0.5839
   38MOL0     H 5079  12.221   6.801  10.203 -1.4728 -2.8049 -3.7629
   38MOL0     H 5080  12.351   6.709  10.125  0.2284  0.0321 -0.1029
   38MOL0     H 5081  12.339   7.051  10.323 -1.8906  0.0925 -0.5255
   38MOL0     H 5082  12.484   7.249  10.317 -2.2403 -0.7278 -0.1719
   38MOL0     H 5083  12.629   7.240  10.196 -0.5166 -1.7412 -0.9185
   38MOL0     H 5084  12.368   7.379  10.138  0.4974 -4.8285 -0.5469
   38MOL0     H 5085  12.499   7.380  10.037  1.0686 -1.3930  0.7802
   38MOL0     H 5086  12.668   7.481  10.205 -0.1833 -0.2401 -0.5729
   38MOL0     H 5087  12.529   7.540  10.285  1.8312  2.7570  0.1488
   38MOL0     H 5088  12.549   7.566   9.988  1.2508  1.5307 -1.0800
   38MOL0     H 5089  12.641   7.684  10.090 -0.4946  1.6918 -2.2502
   38MOL0     H 5090  12.604   7.773  10.280 -1.8856 -1.8248  1.8221
   38MOL0     H 5091  12.629   8.092  10.457  1.5714 -0.2594  2.3312
   38MOL0     H 5092  12.564   7.956  10.551  2.1336 -1.0982  1.4332
   38MOL0     H 5093  12.697   7.931  10.441  0.1052  0.4262 -1.8233
   38MOL0     H 5094  12.206   8.181  10.684 -0.1448 -1.0686 -0.7470
   38MOL0     H 5095  12.121   8.335  10.830 -1.6546 -1.2855 -0.0390
   38MOL0     H 5096  12.136   8.747  10.807 -0.2135 -0.3995 -0.1270
   38MOL0     H 5097  12.022   8.748  10.675  0.1731  0.2618  0.3909
   38MOL0     H 5098  11.912   8.891  10.830  4.5606  1.2077  0.6974
   38MOL0     H 5099  11.835   8.731  10.875 -0.3703  0.0524 -1.7775
   38MOL0     H 5100  11.903   8.873  11.055 -2.0042 -1.4057 -1.5778
   38MOL0     H 5101  12.066   8.881  11.001 -0.8637  2.0079  2.8096
   38MOL0     H 5102  12.070   8.613  11.024  2.0079  2.5125 -2.1220
   38MOL0     H 5103  12.086   8.706  11.163 -2.2733 -2.3528  1.7880
   38MOL0     H 5104  11.824   8.581  11.061  1.6556 -0.6298 -1.5849
   38MOL0     H 5105  11.814   8.705  11.179  2.5432  1.3580  2.2984
   38MOL0     H 5106  11.810   8.442  11.204  2.1600 -2.1094 -2.2936
   38MOL0     H 5107  11.979   8.455  11.238  0.8593  0.5231  1.7548
   38MOL0     H 5108  11.783   8.502  11.431 -0.6707  1.6864  1.8044
   38MOL0     H 5109  11.866   8.663  11.405  1.8612  0.7136 -3.2097
   38MOL0     H 5110  11.998   8.380  11.462  1.3814  0.2872 -3.0064
   38MOL0     H 5111  11.973   8.515  11.579 -2.0042  1.7245  0.1095
   38MOL0     H 5112  12.015   8.613  10.518  0.5147  1.0608 -0.8426
   38MOL0     H 5113  12.116   8.456  10.355  2.9756 -0.0137 -0.6923
   38MOL0     H 5114  12.198   8.056  10.234  1.3784  1.1836 -2.3000
   38MOL0     H 5115  12.238   7.853  10.081  0.8992 -0.5945  0.9461
   38MOL0     H 5116  11.697   6.726  10.575  0.9188  2.2710  0.2034
   38MOL0     H 5117  11.468   6.647  10.640 -1.4460  1.3965 -2.6352
   38MOL0     H 5118  11.135   6.589  10.747 -1.5693 -1.4241 -1.6233
   38MOL0     H 5119  10.921   6.458  10.791  1.3043 -2.5047  3.4053
   38MOL0     H 5120  10.788   6.382  10.941 -0.4298 -1.0394  1.2116
   38MOL0     H 5121  10.712   6.442  11.077  0.2109 -3.9816  0.7048
   38MOL0     H 5122  10.620   6.243  10.896 -1.2728 -1.9152  0.9787
   38MOL0     H 5123  10.511   6.375  10.866 -0.3782 -2.3132 -0.6892
   38MOL0     H 5124  10.571   6.231  11.137  0.9566  1.1359 -0.9684
   38MOL0     H 5125  10.438   6.207  11.038  1.8259 -1.3843 -0.2580
   38MOL0     H 5126  10.363   6.446  11.065 -0.3917  2.8751  0.9371
   38MOL0     H 5127  10.499   6.474  11.187 -1.5302 -0.0874  1.0960
   38MOL0     H 5128  10.216   6.274  11.412 -1.8658 -3.2420 -4.2353
   38MOL0     H 5129  10.753   6.809  10.975 -0.9770 -1.8454 -0.0111
   38MOL0     H 5130  10.968   6.914  10.951 -2.2834  1.4568 -3.2894
   39MOL0     O 5131   2.898   8.507   4.175 -0.5238  0.1306 -0.6243
   39MOL0     C 5132   2.937   8.420   4.251  0.1722 -0.4576 -0.7900
   39MOL0     O 5133   2.996   8.446   4.372 -0.7135 -0.8775 -0.1284
   39MOL0     C 5134   3.053   8.568   4.386  0.0584 -0.2932 -0.6507
   39MOL0     C 5135   3.194   8.584   4.367  0.0752 -0.0369 -0.9461
   39MOL0     C 5136   3.243   8.713   4.395  0.2464 -0.2320 -0.1456
   39MOL0     C 5137   3.162   8.828   4.412  0.0357 -0.0168  0.1541
   39MOL0     O 5138   3.223   8.946   4.436  0.0811 -0.2751  0.0875
   39MOL0     C 5139   3.153   9.054   4.481  0.3035 -0.3678 -0.3917
   39MOL0     C 5140   3.256   9.169   4.490 -0.3384 -0.1114 -0.2440
   39MOL0     C 5141   3.339   9.210   4.363  0.9814 -0.2062 -0.1587
   39MOL0     C 5142   3.235   9.243   4.254  0.5811  0.1703  1.0837
   39MOL0     C 5143   3.311   9.291   4.127 -0.9575 -0.8145 -0.4179
   39MOL0     C 5144   3.205   9.309   4.019 -0.7868 -0.5520 -0.0514
   39MOL0     C 5145   3.269   9.364   3.881  0.5667  0.7845 -0.5784
   39MOL0     C 5146   3.186   9.312   3.762 -0.0051 -0.0239 -0.3323
   39MOL0     N 5147   3.059   9.380   3.750 -0.0582  0.9191  0.2056
   39MOL0     C 5148   3.048   9.515   3.708  0.2105  0.1179  0.6170
   39MOL0     C 5149   2.916   9.543   3.699  0.0156  0.5434 -0.6802
   39MOL0     C 5150   2.850   9.669   3.661  0.4692  0.7159  0.4620
   39MOL0     C 5151   2.872   9.706   3.515  0.1770 -0.6931  0.0205
   39MOL0     C 5152   2.783   9.831   3.468 -0.0090  0.4421  1.4567
   39MOL0     C 5153   2.796   9.954   3.564  0.1945 -0.3159 -0.5909
   39MOL0     O 5154   2.918  10.022   3.550  0.5409 -0.7635  0.6375
   39MOL0     C 5155   2.929  10.121   3.444  0.9672  0.8975 -0.0339
   39MOL0     C 5156   2.859  10.239   3.453 -0.3363 -0.6040  0.8150
   39MOL0     C 5157   2.882  10.335   3.353  0.0685 -1.2015 -0.6971
   39MOL0     C 5158   2.822  10.474   3.382  0.8884 -0.2419  0.1295
   39MOL0     C 5159   2.965  10.309   3.247  1.1819 -0.6263  0.4179
   39MOL0     C 5160   2.976  10.404   3.127  0.7837  1.1191  0.6292
   39MOL0     O 5161   3.027  10.348   3.007 -0.5815 -0.0912  0.1077
   39MOL0     C 5162   3.057  10.445   2.910 -0.7672 -1.1906 -0.0871
   39MOL0     C 5163   3.004  10.444   2.790  0.2680 -0.5201 -0.8986
   39MOL0     C 5164   3.040  10.532   2.681  0.2994  0.8844  0.9781
   39MOL0     C 5165   3.143  10.624   2.696 -0.7372 -1.0434  1.2133
   39MOL0     O 5166   3.201  10.707   2.601  0.0314  0.0739 -0.0038
   39MOL0     C 5167   3.131  10.717   2.477  0.8378  0.0145 -0.0724
   39MOL0     C 5168   3.217  10.802   2.385 -0.6507  0.4207 -0.7106
   39MOL0     C 5169   3.276  10.921   2.461  0.0934 -0.0252 -0.8046
   39MOL0     C 5170   3.421  10.926   2.522  0.4603  0.7083  0.3495
   39MOL0     C 5171   3.514  10.963   2.410 -0.1231 -0.0430  0.7499
   39MOL0     C 5172   3.519  11.116   2.414 -0.3601  0.1019  0.7916
   39MOL0     C 5173   3.608  11.176   2.527 -0.8619 -0.2453 -0.8064
   39MOL0     C 5174   3.633  11.320   2.500 -1.3875 -0.4202 -0.6802
   39MOL0    Cl 5175   3.741  11.381   2.632 -0.0719  0.1990  0.1854
   39MOL0     C 5176   3.206  10.626   2.825 -0.1884  0.1446  0.6022
   39MOL0     C 5177   3.163  10.535   2.927  0.3494  0.0712 -0.2975
   39MOL0     O 5178   2.936  10.525   3.134 -0.0114 -0.7350 -0.4656
   39MOL0     C 5179   3.024  10.191   3.234 -0.0480  0.2251 -0.5325
   39MOL0     C 5180   3.004  10.093   3.337 -0.3687 -0.0678  0.1749
   39MOL0     N 5181   2.852   9.428   3.751 -0.2068 -0.7308 -0.0612
   39MOL0     N 5182   2.938   9.334   3.788 -0.3683 -0.4177  0.1502
   39MOL0     C 5183   3.024   8.814   4.411  1.0727 -0.3739  0.1722
   39MOL0     C 5184   2.972   8.684   4.387 -0.3620 -0.0641  0.6133
   39MOL0     C 5185   2.927   8.287   4.191  0.2496 -0.2367  0.4692
   39MOL0     C 5186   2.855   8.263   4.067  0.3783 -1.1669 -0.4904
   39MOL0     C 5187   2.863   8.142   3.994 -0.0211 -0.9153 -0.1191
   39MOL0     C 5188   2.946   8.040   4.051 -0.2744  0.9176  1.2285
   39MOL0     O 5189   2.986   7.929   3.973 -0.3383 -0.4025 -0.0139
   39MOL0     C 5190   2.961   7.931   3.833  0.5886  0.0532  0.3440
   39MOL0     C 5191   2.985   7.790   3.795  0.1396 -0.7594  0.0014
   39MOL0     C 5192   3.122   7.744   3.851  0.2442  0.5733 -0.2387
   39MOL0     C 5193   3.183   7.641   3.754  0.1502  0.2395 -0.5220
   39MOL0     C 5194   3.146   7.496   3.754  0.3195 -0.1773  0.4415
   39MOL0     C 5195   3.101   7.377   3.746 -0.2323 -0.1995 -0.1509
   39MOL0     C 5196   3.002   8.055   4.179 -0.3998 -0.8057  0.9637
   39MOL0     C 5197   2.988   8.175   4.251  0.2375  0.7041 -0.3659
   39MOL0     H 5198   3.262   8.502   4.345 -0.4618 -1.2214  1.5054
   39MOL0     H 5199   3.346   8.745   4.406  0.3619  0.6458 -2.9917
   39MOL0     H 5200   3.068   9.079   4.416  0.6824 -0.9472 -1.1290
   39MOL0     H 5201   3.111   9.033   4.579  4.0967  3.2509  2.3351
   39MOL0     H 5202   3.213   9.258   4.538 -0.9826 -0.0158 -0.9775
   39MOL0     H 5203   3.332   9.129   4.558  1.7613  0.3243 -2.2026
   39MOL0     H 5204   3.400   9.299   4.380  0.2798 -0.2141  3.0382
   39MOL0     H 5205   3.400   9.123   4.339  0.5966 -1.7370  3.6830
   39MOL0     H 5206   3.177   9.155   4.226  0.0034  1.0101 -0.4832
   39MOL0     H 5207   3.164   9.321   4.283 -0.0462  1.3427 -2.9020
   39MOL0     H 5208   3.372   9.381   4.142 -2.2392  0.3650 -1.9503
   39MOL0     H 5209   3.385   9.214   4.100 -1.0635 -1.1810  0.2966
   39MOL0     H 5210   3.173   9.207   3.996  1.2442 -1.0894 -0.7145
   39MOL0     H 5211   3.117   9.360   4.061  0.2376  0.0800  1.4102
   39MOL0     H 5212   3.287   9.471   3.886 -1.0615  1.2786 -3.1908
   39MOL0     H 5213   3.374   9.333   3.873  0.6109  1.0979 -1.3408
   39MOL0     H 5214   3.179   9.204   3.770  3.3076 -0.2285  1.5212
   39MOL0     H 5215   3.236   9.325   3.666  1.0020  3.0863  0.4694
   39MOL0     H 5216   3.137   9.572   3.687 -0.0092 -0.2642 -1.5277
   39MOL0     H 5217   2.741   9.667   3.670  0.5309 -1.3382  1.1185
   39MOL0     H 5218   2.891   9.746   3.728  4.4406  0.2346 -1.1437
   39MOL0     H 5219   2.844   9.626   3.447 -1.6619 -1.1192  1.2152
   39MOL0     H 5220   2.975   9.732   3.490 -0.5607 -0.9217 -3.8721
   39MOL0     H 5221   2.676   9.811   3.472 -0.5611  2.1115 -1.4781
   39MOL0     H 5222   2.806   9.865   3.366 -4.5496  0.3206  0.1726
   39MOL0     H 5223   2.778   9.913   3.663 -0.3142  0.1370 -0.4933
   39MOL0     H 5224   2.712  10.024   3.553 -0.9011 -1.5965 -0.7047
   39MOL0     H 5225   2.791  10.266   3.534 -0.4982  1.8607 -0.0689
   39MOL0     H 5226   2.758  10.482   3.471  0.4276 -0.0007 -0.2188
   39MOL0     H 5227   2.908  10.537   3.405 -0.2985  1.5168 -0.0421
   39MOL0     H 5228   2.765  10.514   3.298  3.2627 -0.2850 -1.5877
   39MOL0     H 5229   2.924  10.372   2.776 -0.1644 -0.0259 -1.0333
   39MOL0     H 5230   2.998  10.513   2.583  2.7747  1.1275 -0.1909
   39MOL0     H 5231   3.103  10.626   2.423 -1.6293 -0.3758  1.6864
   39MOL0     H 5232   3.036  10.770   2.490  2.0897  2.3728  0.1292
   39MOL0     H 5233   3.293  10.742   2.333 -0.7696  1.8910 -2.7216
   39MOL0     H 5234   3.147  10.836   2.308  1.4098  1.5135 -2.2262
   39MOL0     H 5235   3.210  10.936   2.547  1.1980  2.2801 -0.2720
   39MOL0     H 5236   3.260  11.016   2.408  3.0687  1.0433  0.0255
   39MOL0     H 5237   3.426  10.984   2.615  2.0336  0.1252  0.6622
   39MOL0     H 5238   3.445  10.829   2.567  0.5823 -0.0749 -1.3316
   39MOL0     H 5239   3.478  10.928   2.313 -1.5909  2.6330  0.2141
   39MOL0     H 5240   3.615  10.928   2.430  0.0669  0.6787  1.1059
   39MOL0     H 5241   3.567  11.158   2.326  1.3097  1.3126  2.2121
   39MOL0     H 5242   3.420  11.163   2.413 -0.3465  0.3058 -2.9486
   39MOL0     H 5243   3.706  11.128   2.518 -0.7617  0.3376 -3.4341
   39MOL0     H 5244   3.576  11.143   2.627  2.1080 -2.0038 -0.2934
   39MOL0     H 5245   3.543  11.380   2.516 -0.6075  0.1283  2.2845
   39MOL0     H 5246   3.671  11.342   2.400 -0.9091  0.4209 -0.3343
   39MOL0     H 5247   3.285  10.700   2.827  1.9217 -1.9629 -0.6432
   39MOL0     H 5248   3.215  10.519   3.021 -3.0480 -1.9433  1.4053
   39MOL0     H 5249   3.079  10.164   3.145 -2.6118 -1.6319 -1.6721
   39MOL0     H 5250   3.060  10.002   3.324  0.8763  0.9450 -2.1846
   39MOL0     H 5251   2.952   8.895   4.423  2.2460  1.4130 -3.5903
   39MOL0     H 5252   2.868   8.673   4.356  0.3342 -0.0611 -2.0042
   39MOL0     H 5253   2.788   8.334   4.019  1.3000  0.7712  0.9693
   39MOL0     H 5254   2.801   8.135   3.905 -1.7971  1.4666  0.8524
   39MOL0     H 5255   2.858   7.964   3.812  0.5888 -1.9364 -3.6016
   39MOL0     H 5256   3.013   8.009   3.777 -1.4293  0.6351 -0.8401
   39MOL0     H 5257   2.978   7.793   3.686  0.3890 -3.0729 -0.1226
   39MOL0     H 5258   2.911   7.723   3.839 -1.0550  1.6958  2.0161
   39MOL0     H 5259   3.108   7.700   3.951  1.3913  2.1657  0.6705
   39MOL0     H 5260   3.188   7.830   3.861  0.4984  0.1999  1.6703
   39MOL0     H 5261   3.292   7.637   3.769  0.4916  1.5006 -2.3350
   39MOL0     H 5262   3.173   7.688   3.656  1.0101  2.2521  0.3110
   39MOL0     H 5263   3.072   7.274   3.737  0.0647 -0.1663 -1.8666
   39MOL0     H 5264   3.060   7.970   4.211 -0.9722 -1.1561  1.0887
   39MOL0     H 5265   3.041   8.180   4.346  1.0769 -1.5262 -0.6555
   40MOL0     O 5266   9.246   8.485   2.728 -0.0183 -0.8918  0.1816
   40MOL0     C 5267   9.237   8.406   2.638 -0.2670 -0.1421  1.1275
   40MOL0     O 5268   9.338   8.317   2.602 -0.4867 -0.5123 -0.7292
   40MOL0     C 5269   9.434   8.301   2.693  0.1638 -0.5938 -0.0619
   40MOL0     C 5270   9.574   8.298   2.661  0.1938  0.0455 -1.2709
   40MOL0     C 5271   9.672   8.263   2.756  0.1661  0.3993 -0.1527
   40MOL0     C 5272   9.634   8.225   2.884  0.0767 -0.4262 -0.3203
   40MOL0     O 5273   9.729   8.181   2.967 -0.5856  0.3478  0.8618
   40MOL0     C 5274   9.850   8.256   2.978  0.6441  0.3602 -0.2532
   40MOL0     C 5275   9.920   8.221   3.112 -0.2122  1.0498  0.5301
   40MOL0     C 5276   9.955   8.076   3.125 -0.0371  0.0477  0.1555
   40MOL0     C 5277   9.876   7.986   3.223 -0.4289 -0.3823  0.6514
   40MOL0     C 5278   9.945   7.844   3.221  0.2139 -0.4778 -0.9111
   40MOL0     C 5279   9.886   7.779   3.348 -0.0160 -0.4708 -0.7115
   40MOL0     C 5280   9.951   7.646   3.379 -0.4682 -0.1413 -0.0047
   40MOL0     C 5281   9.905   7.588   3.505  0.2227  0.5118 -0.0840
   40MOL0     N 5282   9.955   7.667   3.613 -0.0630  0.1535  0.0155
   40MOL0     C 5283  10.089   7.677   3.658  0.8900 -0.8626 -0.2636
   40MOL0     C 5284  10.087   7.770   3.759  0.6578 -0.3313 -1.1247
   40MOL0     C 5285  10.220   7.820   3.816 -0.1079 -1.0694  0.1940
   40MOL0     C 5286  10.261   7.740   3.943 -0.8204  0.0745 -0.2738
   40MOL0     C 5287  10.151   7.739   4.054 -1.0231 -0.8444 -0.5425
   40MOL0     C 5288  10.203   7.662   4.175 -0.1444 -0.8036 -0.3533
   40MOL0     O 5289  10.335   7.708   4.217  0.3071 -0.2096 -1.3812
   40MOL0     C 5290  10.398   7.663   4.333  0.6538 -0.2220  0.5339
   40MOL0     C 5291  10.490   7.753   4.396 -0.9294 -0.3088  0.3033
   40MOL0     C 5292  10.557   7.728   4.516  0.4391  0.1142 -1.1732
   40MOL0     C 5293  10.619   7.847   4.574 -0.6012  0.5393 -0.1388
   40MOL0     C 5294  10.512   7.606   4.585  0.0613  0.3152  0.3709
   40MOL0     C 5295  10.540   7.574   4.736  1.2664  0.2212  0.3173
   40MOL0     O 5296  10.619   7.655   4.818 -0.2104 -0.2535 -0.1277
   40MOL0     C 5297  10.655   7.600   4.946  0.1371  0.5174  0.2539
   40MOL0     C 5298  10.578   7.639   5.055 -0.2258  0.4560 -0.0984
   40MOL0     C 5299  10.599   7.577   5.181  0.6984 -0.1700 -0.0438
   40MOL0     C 5300  10.693   7.478   5.199  0.0343 -0.3242 -0.9573
   40MOL0     O 5301  10.718   7.424   5.317  0.0912 -0.0418  0.1903
   40MOL0     C 5302  10.700   7.511   5.430 -0.1503 -1.0455  0.1447
   40MOL0     C 5303  10.801   7.459   5.536  0.8572  0.5583  1.1818
   40MOL0     C 5304  10.936   7.408   5.487 -0.0698  0.3301  0.5823
   40MOL0     C 5305  11.018   7.506   5.411 -0.6563  0.4423  0.4195
   40MOL0     C 5306  11.147   7.444   5.369 -0.7420 -0.2644  0.4154
   40MOL0     C 5307  11.142   7.358   5.235  0.8991 -0.3127  0.1931
   40MOL0     C 5308  11.108   7.456   5.124 -0.5686 -0.6136 -0.1388
   40MOL0     C 5309  11.113   7.383   4.990 -0.5045  0.0212 -0.8026
   40MOL0    Cl 5310  11.283   7.355   4.958  0.0948 -0.2021 -0.3836
   40MOL0     C 5311  10.758   7.430   5.080  0.6746  0.5205 -0.0641
   40MOL0     C 5312  10.743   7.490   4.958 -0.3840 -0.2694  0.7836
   40MOL0     O 5313  10.490   7.476   4.783 -0.2851  0.3712  0.1707
   40MOL0     C 5314  10.419   7.515   4.518 -1.3600  0.0255 -0.3584
   40MOL0     C 5315  10.362   7.546   4.401 -0.7143  0.5776 -0.1513
   40MOL0     N 5316   9.960   7.820   3.774  1.2638 -0.4175 -0.4650
   40MOL0     N 5317   9.887   7.764   3.680 -0.7432  0.5726 -0.4934
   40MOL0     C 5318   9.498   8.225   2.917  0.7557 -0.5795 -0.5566
   40MOL0     C 5319   9.400   8.263   2.828 -0.3645  1.2174 -0.5686
   40MOL0     C 5320   9.124   8.387   2.557  0.9804 -0.9111 -0.6177
   40MOL0     C 5321   9.116   8.295   2.454  0.8523  0.2915  0.1627
   40MOL0     C 5322   8.999   8.274   2.380  1.0246  0.5708  0.0417
   40MOL0     C 5323   8.884   8.345   2.409 -0.6903 -0.9291 -1.3693
   40MOL0     O 5324   8.765   8.331   2.349  0.5935 -0.1201 -0.5934
   40MOL0     C 5325   8.734   8.214   2.263 -0.0997  0.5000 -0.5132
   40MOL0     C 5326   8.795   8.239   2.118  0.1322  0.2476  0.4120
   40MOL0     C 5327   8.823   8.113   2.032  0.0278  0.4365 -0.5230
   40MOL0     C 5328   8.709   8.002   2.027  0.5278 -0.4189 -0.0210
   40MOL0     C 5329   8.761   7.882   1.963 -0.1243 -0.6504 -0.3427
   40MOL0     C 5330   8.807   7.785   1.909 -0.2327  0.1926 -0.5294
   40MOL0     C 5331   8.887   8.438   2.514 -0.5495  0.0846 -0.5995
   40MOL0     C 5332   9.005   8.459   2.588  0.3607  0.2360 -0.2127
   40MOL0     H 5333   9.594   8.326   2.558 -0.6563 -0.8893 -1.7103
   40MOL0     H 5334   9.775   8.257   2.723  0.5983  1.9872  0.7899
   40MOL0     H 5335   9.917   8.245   2.892 -0.3866  0.5847 -1.1074
   40MOL0     H 5336   9.816   8.360   2.978 -2.7039 -0.6141 -0.3530
   40MOL0     H 5337  10.011   8.281   3.116  0.8075 -0.2228 -1.6555
   40MOL0     H 5338   9.850   8.236   3.195 -2.1480 -5.4767  0.6504
   40MOL0     H 5339   9.964   8.029   3.026  1.4645  3.2869 -1.3754
   40MOL0     H 5340  10.060   8.088   3.155 -0.6129  0.0350  2.2768
   40MOL0     H 5341   9.888   8.030   3.323 -0.6548 -3.4162  2.1244
   40MOL0     H 5342   9.771   7.984   3.195 -0.6199  0.0470  1.3084
   40MOL0     H 5343   9.925   7.796   3.125  0.7610 -2.1436 -0.2283
   40MOL0     H 5344  10.054   7.844   3.228  0.2095  0.6570 -0.6941
   40MOL0     H 5345   9.892   7.852   3.429 -1.5261  0.5172 -1.4430
   40MOL0     H 5346   9.785   7.749   3.318 -0.3668  0.5907 -0.6144
   40MOL0     H 5347   9.910   7.579   3.304  0.5319 -0.7034 -0.0703
   40MOL0     H 5348  10.060   7.638   3.372 -0.6226 -2.9676 -0.1787
   40MOL0     H 5349   9.941   7.485   3.501  1.3483  0.7875  1.7343
   40MOL0     H 5350   9.798   7.599   3.524  0.3903 -0.3901  1.5771
   40MOL0     H 5351  10.171   7.626   3.609  1.2787  0.3839 -0.9619
   40MOL0     H 5352  10.298   7.798   3.743 -0.4464  1.7313 -1.1508
   40MOL0     H 5353  10.222   7.928   3.829 -0.3659 -1.1620  1.0869
   40MOL0     H 5354  10.357   7.782   3.975 -0.3084  0.5749 -2.3410
   40MOL0     H 5355  10.276   7.635   3.916  4.3257  0.0841  1.4906
   40MOL0     H 5356  10.063   7.679   4.030  0.1204 -2.9436  0.2140
   40MOL0     H 5357  10.115   7.840   4.075 -0.2413 -0.4724 -0.9470
   40MOL0     H 5358  10.223   7.560   4.142  1.8035 -0.2891 -0.9242
   40MOL0     H 5359  10.128   7.684   4.252 -0.8666  0.8389 -1.4869
   40MOL0     H 5360  10.519   7.850   4.356 -2.0118  0.2495  0.8162
   40MOL0     H 5361  10.715   7.813   4.613 -1.2698 -0.0379  1.0552
   40MOL0     H 5362  10.643   7.926   4.502 -0.7112 -0.0847 -0.8635
   40MOL0     H 5363  10.561   7.892   4.655  2.1582  2.2428  1.0445
   40MOL0     H 5364  10.499   7.712   5.040 -0.5672  0.5859  1.9290
   40MOL0     H 5365  10.546   7.604   5.272  2.3828 -0.0752  0.9523
   40MOL0     H 5366  10.733   7.610   5.396  0.0769 -1.2481 -0.2285
   40MOL0     H 5367  10.595   7.510   5.461 -0.6266  2.2271 -0.9068
   40MOL0     H 5368  10.819   7.529   5.617  0.2845  2.1750 -0.0316
   40MOL0     H 5369  10.746   7.369   5.567  3.8310 -0.3333  4.4569
   40MOL0     H 5370  10.915   7.312   5.439  0.8550  0.2110  0.4023
   40MOL0     H 5371  10.989   7.389   5.581  0.0879  1.6366  0.7788
   40MOL0     H 5372  10.967   7.554   5.327 -0.6971 -2.6901 -1.5139
   40MOL0     H 5373  11.040   7.583   5.485 -0.5852 -1.4395  2.4382
   40MOL0     H 5374  11.188   7.378   5.445  2.5647 -0.7087 -1.5548
   40MOL0     H 5375  11.211   7.531   5.352 -0.2578 -0.9436 -1.6154
   40MOL0     H 5376  11.238   7.306   5.221 -0.8791 -4.0190  0.4717
   40MOL0     H 5377  11.067   7.278   5.239  3.4859 -2.8888  1.8209
   40MOL0     H 5378  11.187   7.532   5.121 -0.5906 -0.5543  0.7050
   40MOL0     H 5379  11.009   7.503   5.135  0.2520  1.0076  0.7617
   40MOL0     H 5380  11.057   7.445   4.919 -0.6250  0.9018  0.0376
   40MOL0     H 5381  11.062   7.287   5.004  1.3615 -0.5384  4.1152
   40MOL0     H 5382  10.811   7.338   5.104 -1.5582 -0.6532  0.6803
   40MOL0     H 5383  10.795   7.453   4.870 -0.0995 -1.4537  1.4345
   40MOL0     H 5384  10.387   7.419   4.556 -2.9311  0.8654  0.5104
   40MOL0     H 5385  10.288   7.474   4.368  1.8454 -1.9612 -0.7632
   40MOL0     H 5386   9.466   8.187   3.014 -2.1588  1.1240 -0.7146
   40MOL0     H 5387   9.293   8.265   2.849 -0.3247  1.3192 -0.3670
   40MOL0     H 5388   9.201   8.238   2.418 -1.0325 -3.7214  1.4770
   40MOL0     H 5389   8.990   8.207   2.294 -2.0126 -0.1097  0.7679
   40MOL0     H 5390   8.778   8.127   2.313 -0.1644  2.1514  2.7027
   40MOL0     H 5391   8.626   8.203   2.249 -0.3492 -3.0577  2.4553
   40MOL0     H 5392   8.881   8.305   2.133  0.5040  0.0998 -0.9311
   40MOL0     H 5393   8.723   8.296   2.059  0.9917 -1.6030 -2.6335
   40MOL0     H 5394   8.914   8.065   2.069 -0.0708  1.1672  0.6962
   40MOL0     H 5395   8.847   8.143   1.929  1.0088 -1.9510 -1.0807
   40MOL0     H 5396   8.631   8.040   1.960 -0.2724 -1.1757  0.4619
   40MOL0     H 5397   8.667   7.977   2.125 -1.2118  1.3742 -0.2359
   40MOL0     H 5398   8.842   7.701   1.853 -1.2525  0.5019 -1.6674
   40MOL0     H 5399   8.798   8.495   2.538 -0.9867 -1.6394  2.4346
   40MOL0     H 5400   9.008   8.527   2.672  0.3568 -0.1466  0.1003
   41MOL0     O 5401  11.137   0.383   0.390  0.4395 -0.6840 -0.9564
   41MOL0     C 5402  11.117   0.410   0.275 -0.9440  0.4759 -0.4116
   41MOL0     O 5403  11.202   0.408   0.182 -0.2140  0.7067 -0.2277
   41MOL0     C 5404  11.319   0.342   0.218  0.2184  0.2478  0.4244
   41MOL0     C 5405  11.416   0.397   0.306  0.3384 -1.6462  0.3703
   41MOL0     C 5406  11.536   0.331   0.324 -0.4677 -0.8990  0.1603
   41MOL0     C 5407  11.568   0.226   0.237  0.0841  0.0681  0.6932
   41MOL0     O 5408  11.680   0.158   0.230  0.3684 -0.4147  0.0815
   41MOL0     C 5409  11.799   0.230   0.251 -0.0594  0.7515 -1.1721
   41MOL0     C 5410  11.920   0.156   0.200  0.5452  0.4960  0.8750
   41MOL0     C 5411  11.924   0.172   0.048 -1.0281  0.3630 -0.0988
   41MOL0     C 5412  12.038   0.092  -0.013 -0.6509 -0.7891 -0.5615
   41MOL0     C 5413  12.034   0.096  -0.166  0.1419  0.3959  0.1008
   41MOL0     C 5414  12.005   0.234  -0.228  1.1896  0.6429 -0.3095
   41MOL0     C 5415  12.044   0.226  -0.377  0.2233 -0.2987  0.2661
   41MOL0     C 5416  11.988   0.345  -0.464 -0.6071 -0.9026 -0.4419
   41MOL0     N 5417  12.041   0.348  -0.600  0.0331 -0.2096  0.2947
   41MOL0     C 5418  12.170   0.360  -0.631  0.5843 -0.6540 -0.1675
   41MOL0     C 5419  12.165   0.370  -0.765 -1.0539  0.2696  0.7280
   41MOL0     C 5420  12.297   0.407  -0.837  0.1108 -0.4657  0.6311
   41MOL0     C 5421  12.274   0.544  -0.909 -1.3778  0.3855 -0.0550
   41MOL0     C 5422  12.288   0.674  -0.839 -0.0638 -0.2694 -1.5370
   41MOL0     C 5423  12.249   0.791  -0.920  0.0283  0.6414  0.4829
   41MOL0     O 5424  12.247   0.926  -0.864 -0.7353 -0.6804  0.9437
   41MOL0     C 5425  12.189   1.015  -0.947 -0.4302  0.6264  0.0473
   41MOL0     C 5426  12.150   1.135  -0.890  0.2732 -0.3359 -0.1777
   41MOL0     C 5427  12.106   1.240  -0.971  1.0862  0.3731  0.5368
   41MOL0     C 5428  12.053   1.349  -0.888  0.4199 -0.3266  0.6682
   41MOL0     C 5429  12.110   1.229  -1.117  0.1241 -0.3304 -0.2617
   41MOL0     C 5430  12.081   1.356  -1.201 -0.3523 -0.4528 -0.0714
   41MOL0     O 5431  12.032   1.334  -1.324 -0.0516 -0.7135  0.2704
   41MOL0     C 5432  11.981   1.439  -1.395 -0.5528 -0.8271  0.6186
   41MOL0     C 5433  11.845   1.484  -1.386 -0.5352 -0.0946  1.1931
   41MOL0     C 5434  11.801   1.602  -1.450  0.3315 -0.3286 -0.3911
   41MOL0     C 5435  11.903   1.675  -1.527  0.8515  0.2288 -0.0377
   41MOL0     O 5436  11.855   1.773  -1.609 -0.7368 -0.6724  0.2730
   41MOL0     C 5437  11.849   1.743  -1.748  0.1248  0.7435  0.3373
   41MOL0     C 5438  11.757   1.838  -1.814  0.2375 -0.6003 -0.1300
   41MOL0     C 5439  11.618   1.809  -1.789 -0.7391  0.5311 -0.1304
   41MOL0     C 5440  11.521   1.929  -1.763  0.6334 -0.1163 -0.2252
   41MOL0     C 5441  11.376   1.886  -1.765 -0.2516  0.4471  0.6328
   41MOL0     C 5442  11.329   1.867  -1.915  0.9111  0.3371 -0.2530
   41MOL0     C 5443  11.182   1.841  -1.907  0.6021  0.5783 -0.5027
   41MOL0     C 5444  11.117   1.849  -2.042  0.6884  0.0065  0.6085
   41MOL0    Cl 5445  10.956   1.770  -2.045 -0.1493 -0.2159  0.3437
   41MOL0     C 5446  12.033   1.627  -1.547  0.0728  0.0292  0.3238
   41MOL0     C 5447  12.069   1.510  -1.479  0.0038  1.1414  0.9844
   41MOL0     O 5448  12.115   1.465  -1.156  0.1527  0.4494  0.5365
   41MOL0     C 5449  12.147   1.105  -1.173  0.6540  0.5344 -0.2200
   41MOL0     C 5450  12.185   1.000  -1.090 -0.4651  0.6451 -0.1014
   41MOL0     N 5451  12.036   0.363  -0.817 -0.6560 -0.3859 -0.3810
   41MOL0     N 5452  11.962   0.340  -0.712 -0.0943 -1.3687 -0.4833
   41MOL0     C 5453  11.476   0.179   0.138 -0.7904 -0.1304 -0.0275
   41MOL0     C 5454  11.353   0.244   0.125 -0.1294  0.1047 -0.5874
   41MOL0     C 5455  10.978   0.440   0.228  0.3245 -0.2562 -0.2761
   41MOL0     C 5456  10.950   0.470   0.095  0.6683 -0.8832 -1.1364
   41MOL0     C 5457  10.819   0.505   0.060 -0.8199  0.3947 -0.3945
   41MOL0     C 5458  10.709   0.514   0.151  0.6272  0.6350 -0.4577
   41MOL0     O 5459  10.581   0.549   0.118 -0.6384 -0.0028  0.4193
   41MOL0     C 5460  10.548   0.529  -0.023  0.6744  1.2998 -0.0499
   41MOL0     C 5461  10.389   0.535  -0.036  0.1290 -0.0865  0.9568
   41MOL0     C 5462  10.353   0.585  -0.178  0.8864  0.2742  0.1324
   41MOL0     C 5463  10.206   0.635  -0.193 -1.2377  0.4883 -0.9999
   41MOL0     C 5464  10.114   0.520  -0.207  0.3053 -0.1001 -0.3898
   41MOL0     C 5465  10.042   0.418  -0.218 -0.1774  0.2591  0.2258
   41MOL0     C 5466  10.737   0.495   0.283  1.0665  0.4429 -0.6726
   41MOL0     C 5467  10.866   0.452   0.322 -1.0108 -1.2076 -1.0674
   41MOL0     H 5468  11.382   0.475   0.373  0.9215  0.0970 -1.3080
   41MOL0     H 5469  11.605   0.374   0.396 -2.4515  1.9525  0.5094
   41MOL0     H 5470  11.783   0.332   0.215 -4.7001  1.5245  2.1237
   41MOL0     H 5471  11.804   0.243   0.360 -0.6207 -1.0116 -0.9069
   41MOL0     H 5472  12.015   0.183   0.246  1.8051 -0.3092 -1.1386
   41MOL0     H 5473  11.900   0.051   0.224  1.9786  0.4244  1.8291
   41MOL0     H 5474  11.828   0.146   0.001 -0.3284  2.0017 -2.6766
   41MOL0     H 5475  11.928   0.278   0.019 -0.0378 -0.4255 -3.2084
   41MOL0     H 5476  12.129   0.142   0.022 -3.5282  4.3781  0.5594
   41MOL0     H 5477  12.043  -0.014   0.017  0.4702 -0.4625  0.5103
   41MOL0     H 5478  12.127   0.053  -0.203 -0.8711 -1.0149 -0.8842
   41MOL0     H 5479  11.957   0.028  -0.202  0.3112  1.0195 -1.5355
   41MOL0     H 5480  11.900   0.259  -0.208  1.1747 -0.0668  0.5950
   41MOL0     H 5481  12.069   0.313  -0.187  0.8230  0.3003  0.9784
   41MOL0     H 5482  12.152   0.216  -0.397  0.2919 -0.8231  0.8747
   41MOL0     H 5483  12.007   0.131  -0.416  2.6622 -1.8097  1.3874
   41MOL0     H 5484  12.021   0.443  -0.429 -1.6799 -0.8695  0.5664
   41MOL0     H 5485  11.881   0.341  -0.486 -0.6293 -0.5727 -0.4093
   41MOL0     H 5486  12.256   0.363  -0.564 -0.1598  0.0554  0.7739
   41MOL0     H 5487  12.382   0.401  -0.768  0.5427 -3.5310 -0.0192
   41MOL0     H 5488  12.305   0.335  -0.919  0.7253  1.5515 -1.1727
   41MOL0     H 5489  12.177   0.537  -0.958 -1.6131  0.2880  0.4125
   41MOL0     H 5490  12.352   0.558  -0.984  0.1972  5.1263  2.0880
   41MOL0     H 5491  12.391   0.687  -0.805 -0.5099 -0.2569 -0.1130
   41MOL0     H 5492  12.227   0.670  -0.748 -0.9174  0.7538 -2.0372
   41MOL0     H 5493  12.149   0.764  -0.956  0.3387 -0.4727  0.4102
   41MOL0     H 5494  12.311   0.785  -1.010 -1.8544 -1.1922 -0.7746
   41MOL0     H 5495  12.165   1.138  -0.782  0.9862 -0.5034 -0.2683
   41MOL0     H 5496  12.135   1.410  -0.850  0.2296  2.7437 -3.2028
   41MOL0     H 5497  11.991   1.412  -0.953 -0.1146 -1.6038 -0.1074
   41MOL0     H 5498  11.989   1.318  -0.805 -2.0157  2.1330 -0.1537
   41MOL0     H 5499  11.785   1.425  -1.318 -0.7213 -0.5680  0.6350
   41MOL0     H 5500  11.696   1.630  -1.447  0.2477 -0.6725  0.6615
   41MOL0     H 5501  11.950   1.753  -1.789 -0.7052  0.1163 -2.0408
   41MOL0     H 5502  11.816   1.640  -1.768 -1.2039  1.0660  0.7916
   41MOL0     H 5503  11.789   1.941  -1.796  0.6828 -0.7662  0.0331
   41MOL0     H 5504  11.785   1.817  -1.918 -1.7241 -0.9349 -0.6489
   41MOL0     H 5505  11.611   1.740  -1.704 -2.3143  0.6789 -0.0956
   41MOL0     H 5506  11.591   1.752  -1.879 -2.2688  2.6879 -1.1500
   41MOL0     H 5507  11.538   1.975  -1.665 -1.5643 -1.2082  0.7422
   41MOL0     H 5508  11.545   1.994  -1.847 -0.5741 -2.7225 -2.7626
   41MOL0     H 5509  11.320   1.971  -1.725  1.7175  1.5847  1.0904
   41MOL0     H 5510  11.362   1.797  -1.702  1.6171  0.2540  0.8329
   41MOL0     H 5511  11.352   1.964  -1.961 -2.4783  0.7413 -1.3968
   41MOL0     H 5512  11.371   1.779  -1.963  3.2434  1.0708  0.3409
   41MOL0     H 5513  11.130   1.904  -1.833 -0.6562  1.0502 -1.7477
   41MOL0     H 5514  11.174   1.737  -1.875  0.5123  0.2176 -1.6807
   41MOL0     H 5515  11.185   1.801  -2.114  1.0500  0.8012  0.4028
   41MOL0     H 5516  11.110   1.953  -2.075 -1.7935 -0.5290 -0.8252
   41MOL0     H 5517  12.098   1.680  -1.616 -1.8592  0.1418 -1.5230
   41MOL0     H 5518  12.167   1.465  -1.491  0.3902  2.5476 -2.1168
   41MOL0     H 5519  12.150   1.089  -1.281  1.7451 -3.9362  0.2914
   41MOL0     H 5520  12.217   0.909  -1.138 -2.5649 -1.5610  2.3693
   41MOL0     H 5521  11.510   0.111   0.061  2.3360 -0.3346  1.3552
   41MOL0     H 5522  11.288   0.227   0.039  1.8395 -0.5603 -2.0169
   41MOL0     H 5523  11.025   0.471   0.017  4.0170  3.1789  1.7194
   41MOL0     H 5524  10.807   0.520  -0.046 -1.6987 -4.2167 -1.1454
   41MOL0     H 5525  10.597   0.612  -0.076 -2.1601  3.5636  0.6213
   41MOL0     H 5526  10.583   0.434  -0.064  1.7072  0.4383  2.6156
   41MOL0     H 5527  10.350   0.607   0.037  4.3147  2.4383  1.0024
   41MOL0     H 5528  10.350   0.437  -0.006 -1.2669  0.8341  2.3486
   41MOL0     H 5529  10.374   0.499  -0.242 -2.7417 -1.6283  1.1748
   41MOL0     H 5530  10.429   0.657  -0.209  3.2696 -1.9521  0.4828
   41MOL0     H 5531  10.196   0.696  -0.283  0.4449 -0.7037 -2.0788
   41MOL0     H 5532  10.194   0.688  -0.098  0.5490 -0.7261 -0.0210
   41MOL0     H 5533   9.979   0.332  -0.233  1.4917 -0.6792 -2.0039
   41MOL0     H 5534  10.654   0.501   0.353  0.8619 -0.8740 -0.7686
   41MOL0     H 5535  10.886   0.450   0.429  1.4324 -3.4809 -1.4450
   42MOL0     O 5536   4.746  10.753   3.988 -0.6008  0.2626  0.8151
   42MOL0     C 5537   4.832  10.830   3.932  0.3051 -0.0234 -0.9715
   42MOL0     O 5538   4.801  10.925   3.840 -0.1055  0.5713 -1.0095
   42MOL0     C 5539   4.676  10.944   3.813 -0.5397 -0.5183 -0.3151
   42MOL0     C 5540   4.592  11.021   3.893 -0.4476  0.0082  0.2241
   42MOL0     C 5541   4.466  11.042   3.842  1.2568  0.4774  0.0680
   42MOL0     C 5542   4.398  10.967   3.741 -0.4825 -0.1863  0.1107
   42MOL0     O 5543   4.277  10.987   3.686 -0.1785  0.1798  0.4787
   42MOL0     C 5544   4.177  11.072   3.746  0.5245 -0.7358 -0.2223
   42MOL0     C 5545   4.204  11.221   3.720 -0.7530 -0.4217 -0.2412
   42MOL0     C 5546   4.177  11.264   3.579  0.1869  0.7302  0.8114
   42MOL0     C 5547   4.270  11.225   3.473  0.4698  1.0525  0.3154
   42MOL0     C 5548   4.211  11.272   3.335 -0.5741  0.9551  0.8823
   42MOL0     C 5549   4.273  11.226   3.197  0.8920 -0.6261 -0.2657
   42MOL0     C 5550   4.258  11.072   3.188  0.3676 -0.1159 -0.7472
   42MOL0     C 5551   4.293  11.040   3.039 -0.3872  1.1744 -0.0601
   42MOL0     N 5552   4.189  11.061   2.940  0.5871 -0.2725  0.1324
   42MOL0     C 5553   4.061  11.040   2.955  0.2339  0.1150 -0.0796
   42MOL0     C 5554   4.006  11.037   2.829  1.2790 -0.3173 -0.1235
   42MOL0     C 5555   3.857  11.010   2.815  0.7184  1.6113 -0.5123
   42MOL0     C 5556   3.816  10.862   2.824  0.7914 -0.2167  0.4751
   42MOL0     C 5557   3.745  10.814   2.694  0.0730  0.1725  0.9100
   42MOL0     C 5558   3.741  10.660   2.695  0.6726 -0.1792 -0.3030
   42MOL0     O 5559   3.650  10.616   2.798  0.1335 -0.1371 -0.0716
   42MOL0     C 5560   3.701  10.539   2.905 -0.3936  0.0195 -0.3609
   42MOL0     C 5561   3.783  10.433   2.886 -0.5388  0.4214  0.2687
   42MOL0     C 5562   3.822  10.356   3.002  0.9561 -0.4579  1.2854
   42MOL0     C 5563   3.908  10.239   2.964 -0.9994  0.1908  0.2961
   42MOL0     C 5564   3.783  10.382   3.134  0.6566 -0.1403  0.1930
   42MOL0     C 5565   3.821  10.309   3.255 -0.1185  0.7364  0.1674
   42MOL0     O 5566   3.877  10.185   3.238 -0.2500 -0.0413 -0.3048
   42MOL0     C 5567   3.861  10.091   3.331 -0.0888  0.6686 -0.1253
   42MOL0     C 5568   3.741  10.062   3.399  0.1789  0.0190 -0.2206
   42MOL0     C 5569   3.742   9.946   3.476 -0.2202  0.4723  0.1438
   42MOL0     C 5570   3.856   9.882   3.514 -0.3988 -0.7575  1.5994
   42MOL0     O 5571   3.832   9.777   3.597 -1.0484  0.0635 -0.1025
   42MOL0     C 5572   3.906   9.652   3.588 -0.2259 -0.4841  0.1473
   42MOL0     C 5573   3.822   9.548   3.520  0.1335  0.0211  0.5286
   42MOL0     C 5574   3.906   9.413   3.486 -0.1443 -0.2841 -0.2068
   42MOL0     C 5575   3.832   9.305   3.416  0.1524  0.1565  0.3770
   42MOL0     C 5576   3.910   9.187   3.396 -0.5840 -0.1289  0.2998
   42MOL0     C 5577   3.836   9.083   3.320 -0.7608 -0.1153  0.7110
   42MOL0     C 5578   3.895   8.937   3.308 -0.0811 -1.3956  0.0911
   42MOL0     C 5579   3.807   8.850   3.222 -0.3602 -0.3549 -0.5822
   42MOL0    Cl 5580   3.860   8.684   3.243  0.0132  0.0896 -0.0734
   42MOL0     C 5581   3.983   9.922   3.466 -0.0012  0.4868 -1.3494
   42MOL0     C 5582   3.984  10.025   3.366  0.2145 -0.0390 -0.5250
   42MOL0     O 5583   3.772  10.348   3.358  0.8593  0.1936 -0.4027
   42MOL0     C 5584   3.704  10.498   3.145  0.0310 -0.0398  0.8240
   42MOL0     C 5585   3.664  10.577   3.035  1.5023  0.4371 -0.1423
   42MOL0     N 5586   4.099  11.065   2.741  0.0126 -0.6127  0.7700
   42MOL0     N 5587   4.203  11.082   2.806 -0.3137 -0.7472  0.1228
   42MOL0     C 5588   4.485  10.878   3.672 -0.5855  0.1708 -0.1579
   42MOL0     C 5589   4.625  10.873   3.699 -0.1313  0.9860 -0.3738
   42MOL0     C 5590   4.973  10.822   3.963  1.0957  0.7834  0.0261
   42MOL0     C 5591   5.060  10.915   3.918 -0.3934  0.5506 -0.3145
   42MOL0     C 5592   5.198  10.917   3.953 -0.5866 -0.9948  0.7032
   42MOL0     C 5593   5.248  10.816   4.034  0.2415 -0.4132  0.2493
   42MOL0     O 5594   5.378  10.804   4.075  0.3340 -0.0102 -0.8380
   42MOL0     C 5595   5.483  10.807   3.984 -0.2472 -0.9110  0.5774
   42MOL0     C 5596   5.530  10.665   3.949 -0.5320  0.1751 -0.4557
   42MOL0     C 5597   5.576  10.590   4.077 -0.1190  0.6864  0.3610
   42MOL0     C 5598   5.556  10.433   4.055 -0.3891 -0.5027  0.7216
   42MOL0     C 5599   5.419  10.377   4.038  0.4993  0.4070  1.0681
   42MOL0     C 5600   5.310  10.326   4.027  0.3294 -1.6997 -0.1962
   42MOL0     C 5601   5.157  10.723   4.083 -0.4739 -0.4977  0.1554
   42MOL0     C 5602   5.018  10.724   4.048 -1.1889 -0.1336  0.5641
   42MOL0     H 5603   4.617  11.063   3.989 -2.2235  4.1650 -0.8870
   42MOL0     H 5604   4.405  11.102   3.908  0.6455 -0.0583 -0.0000
   42MOL0     H 5605   4.081  11.049   3.700  0.1187 -0.7016  0.5844
   42MOL0     H 5606   4.169  11.053   3.854  0.7940 -2.3195 -0.4515
   42MOL0     H 5607   4.132  11.282   3.776  1.2205  3.6114 -1.6992
   42MOL0     H 5608   4.300  11.256   3.758 -1.3233  4.1865 -2.3420
   42MOL0     H 5609   4.076  11.227   3.561 -0.0814  0.7188  2.1914
   42MOL0     H 5610   4.154  11.371   3.568 -0.5708  0.4910 -0.0607
   42MOL0     H 5611   4.366  11.269   3.503  0.7699 -1.0284  2.8613
   42MOL0     H 5612   4.290  11.117   3.474 -0.8569  0.7740  2.1500
   42MOL0     H 5613   4.110  11.231   3.326 -0.0879  0.0446 -0.9817
   42MOL0     H 5614   4.201  11.380   3.320 -1.0517  0.6445 -1.4842
   42MOL0     H 5615   4.233  11.273   3.107 -2.5108 -0.7111  1.0534
   42MOL0     H 5616   4.379  11.250   3.203  0.5122  1.7630 -1.8446
   42MOL0     H 5617   4.327  11.031   3.262  1.3362  1.3031 -0.8438
   42MOL0     H 5618   4.158  11.034   3.213  1.2160 -3.1502 -1.5641
   42MOL0     H 5619   4.312  10.932   3.043 -3.6867  0.5040  1.0639
   42MOL0     H 5620   4.385  11.092   3.013  0.9212  0.6508  3.0319
   42MOL0     H 5621   4.000  11.017   3.042 -1.8481 -1.6506 -1.8685
   42MOL0     H 5622   3.806  11.048   2.904 -1.7155  1.4454 -1.7722
   42MOL0     H 5623   3.815  11.049   2.722 -2.8290 -1.9252 -0.6557
   42MOL0     H 5624   3.748  10.853   2.910  1.7178  0.1290  1.2588
   42MOL0     H 5625   3.901  10.795   2.839  1.3453  0.6440  1.2869
   42MOL0     H 5626   3.810  10.838   2.609  0.9263  2.8195  2.2214
   42MOL0     H 5627   3.649  10.866   2.692 -1.4910 -2.5252 -0.6965
   42MOL0     H 5628   3.843  10.622   2.700  1.4786  1.8165 -0.6866
   42MOL0     H 5629   3.706  10.620   2.600 -1.9334 -0.6115  0.7497
   42MOL0     H 5630   3.810  10.407   2.784  2.5285 -0.9674  1.2864
   42MOL0     H 5631   3.839  10.156   2.980  0.7202 -0.8002  3.4730
   42MOL0     H 5632   3.957  10.242   2.866  3.2140 -0.1973  2.1386
   42MOL0     H 5633   3.993  10.227   3.033  0.3631 -2.1121 -1.6331
   42MOL0     H 5634   3.662  10.129   3.365 -0.0699 -1.1567 -2.1130
   42MOL0     H 5635   3.643   9.908   3.500  0.7953 -0.7690  2.7446
   42MOL0     H 5636   4.002   9.678   3.544 -1.5855  3.8798 -0.7530
   42MOL0     H 5637   3.928   9.613   3.688  0.8038 -3.1773 -1.0396
   42MOL0     H 5638   3.733   9.536   3.583  1.7348 -0.8889  2.7412
   42MOL0     H 5639   3.796   9.593   3.424 -0.7275  0.5347  0.9911
   42MOL0     H 5640   3.947   9.368   3.577 -0.4229 -0.3565 -0.1171
   42MOL0     H 5641   3.984   9.446   3.416 -1.2975  4.3871  0.4018
   42MOL0     H 5642   3.750   9.267   3.478 -0.5395  2.2836  0.8217
   42MOL0     H 5643   3.797   9.347   3.321 -0.0622  0.5797  0.6416
   42MOL0     H 5644   3.938   9.151   3.495  2.1629  2.3372  0.5396
   42MOL0     H 5645   3.997   9.223   3.340 -0.1432 -0.4532  0.7702
   42MOL0     H 5646   3.737   9.085   3.365 -0.5567  4.5055  1.4668
   42MOL0     H 5647   3.833   9.112   3.214  0.9199 -1.5093  0.2298
   42MOL0     H 5648   3.921   8.894   3.404  3.0483 -0.2776 -0.1505
   42MOL0     H 5649   3.993   8.928   3.260 -0.6599 -2.5812 -0.9320
   42MOL0     H 5650   3.836   8.893   3.126 -0.0554  0.4789 -0.1276
   42MOL0     H 5651   3.698   8.857   3.223 -0.4462 -1.0883 -2.0283
   42MOL0     H 5652   4.070   9.887   3.520 -1.9981  0.1070  1.8826
   42MOL0     H 5653   4.081  10.063   3.335  2.0956 -0.9473  3.5344
   42MOL0     H 5654   3.656  10.529   3.237 -0.7443 -2.9734  1.5409
   42MOL0     H 5655   3.597  10.660   3.056  1.2105 -0.3381  2.2683
   42MOL0     H 5656   4.458  10.825   3.581 -0.8592  2.9994 -1.8175
   42MOL0     H 5657   4.686  10.809   3.636  0.2237 -0.1744  1.0861
   42MOL0     H 5658   5.034  10.995   3.850  0.3507  1.7705  0.8074
   42MOL0     H 5659   5.267  10.992   3.916 -1.8601 -1.2988 -2.6555
   42MOL0     H 5660   5.449  10.848   3.888  1.2601 -3.4733 -1.1772
   42MOL0     H 5661   5.551  10.872   4.039 -2.9352  2.4366  0.2821
   42MOL0     H 5662   5.610  10.668   3.874  0.0471 -2.4034 -0.0276
   42MOL0     H 5663   5.447  10.612   3.901  0.2957 -0.8659 -0.7618
   42MOL0     H 5664   5.513  10.610   4.164 -0.0495 -3.6974  1.6350
   42MOL0     H 5665   5.681  10.615   4.095  0.0968  0.7733 -0.9253
   42MOL0     H 5666   5.608  10.377   4.133 -0.7527 -2.5941 -0.4687
   42MOL0     H 5667   5.599  10.412   3.957 -2.4229 -1.8014  0.0298
   42MOL0     H 5668   5.211  10.286   4.014 -0.3356  0.4453 -2.6731
   42MOL0     H 5669   5.199  10.657   4.159  1.8582 -1.2667 -1.6932
   42MOL0     H 5670   4.951  10.652   4.093 -2.2963  0.9013  0.6112
   43MOL0     O 5671   1.876   0.806   0.552 -0.0089 -0.0438  0.0728
   43MOL0     C 5672   1.935   0.891   0.495 -0.3751 -0.2489 -0.6553
   43MOL0     O 5673   2.070   0.908   0.518  0.2867  0.0424 -0.7451
   43MOL0     C 5674   2.131   0.851   0.630 -0.5433 -0.5287  0.2801
   43MOL0     C 5675   2.269   0.835   0.615 -0.7874  0.7042 -0.3241
   43MOL0     C 5676   2.348   0.763   0.707  0.0102 -0.5920 -0.1685
   43MOL0     C 5677   2.284   0.710   0.818  0.2299 -0.4706 -1.1784
   43MOL0     O 5678   2.360   0.627   0.900 -0.1280 -0.3976 -0.6068
   43MOL0     C 5679   2.461   0.547   0.840 -0.2177  0.1864  0.5779
   43MOL0     C 5680   2.480   0.408   0.909  0.3617  0.0692  0.6773
   43MOL0     C 5681   2.616   0.345   0.865 -0.6442 -0.1042  0.3967
   43MOL0     C 5682   2.648   0.225   0.956 -0.1187 -0.7518  0.3253
   43MOL0     C 5683   2.773   0.160   0.901  0.6857  0.2516  0.4198
   43MOL0     C 5684   2.832   0.065   1.007 -0.7928 -0.6323 -0.0813
   43MOL0     C 5685   2.983   0.030   0.970 -0.0753  0.1718 -0.1168
   43MOL0     C 5686   3.095   0.084   1.064 -0.1377  0.5885  0.3893
   43MOL0     N 5687   3.079   0.224   1.077 -0.8599 -0.1239 -0.8755
   43MOL0     C 5688   3.050   0.298   1.192 -0.2158  0.8396  0.5322
   43MOL0     C 5689   3.046   0.425   1.158  0.2319  0.6683  0.6440
   43MOL0     C 5690   3.017   0.546   1.247 -0.4338 -0.3177 -0.3082
   43MOL0     C 5691   2.893   0.612   1.193  0.7333  0.2348 -0.2958
   43MOL0     C 5692   2.759   0.524   1.193  0.0077  0.0842  0.0154
   43MOL0     C 5693   2.638   0.614   1.166 -0.0808  0.0176 -0.2555
   43MOL0     O 5694   2.621   0.717   1.258  0.0706 -0.3403 -0.6884
   43MOL0     C 5695   2.567   0.702   1.387 -0.3340 -0.0821  0.1081
   43MOL0     C 5696   2.570   0.812   1.471  1.0883 -0.3453  0.2889
   43MOL0     C 5697   2.530   0.807   1.603 -0.3639  0.5286  0.7056
   43MOL0     C 5698   2.540   0.927   1.687 -0.4343  0.6133 -1.3162
   43MOL0     C 5699   2.494   0.685   1.662  0.7321 -0.3952 -0.5940
   43MOL0     C 5700   2.465   0.682   1.805 -0.2816  0.9358 -0.8336
   43MOL0     O 5701   2.334   0.685   1.845  0.2244 -0.4974 -0.0178
   43MOL0     C 5702   2.306   0.713   1.978  0.0313  0.6541  0.1544
   43MOL0     C 5703   2.322   0.843   2.025  0.8480  0.9249 -0.2551
   43MOL0     C 5704   2.303   0.864   2.163  0.1854  0.3196  0.3327
   43MOL0     C 5705   2.269   0.757   2.254  0.1537 -0.3811 -0.2838
   43MOL0     O 5706   2.256   0.774   2.392 -1.1840 -0.0198 -0.0487
   43MOL0     C 5707   2.292   0.904   2.456  0.6905 -1.0945 -0.4649
   43MOL0     C 5708   2.243   0.900   2.595  0.0902  0.3139 -0.1306
   43MOL0     C 5709   2.094   0.865   2.603  0.8088  0.1180  0.4018
   43MOL0     C 5710   2.028   0.906   2.735 -0.1088 -0.6152  0.4423
   43MOL0     C 5711   1.880   0.886   2.715 -0.6919 -0.4710 -0.6734
   43MOL0     C 5712   1.815   1.014   2.655  0.3732  0.3187  0.4926
   43MOL0     C 5713   1.664   0.975   2.628  0.6269 -0.6969 -0.5916
   43MOL0     C 5714   1.601   1.062   2.520  0.4918  0.3097 -0.6284
   43MOL0    Cl 5715   1.582   1.218   2.608  0.1525  0.0474 -0.3140
   43MOL0     C 5716   2.246   0.626   2.199  0.3739  0.0733 -0.0487
   43MOL0     C 5717   2.267   0.603   2.062  0.6119 -0.5909  1.2829
   43MOL0     O 5718   2.561   0.677   1.879 -0.6366 -0.5129  1.2959
   43MOL0     C 5719   2.472   0.576   1.576 -0.0043  0.9048  0.2914
   43MOL0     C 5720   2.511   0.586   1.439 -0.0339 -1.3687 -0.2415
   43MOL0     N 5721   3.082   0.432   1.027  0.4904  0.1574 -0.1456
   43MOL0     N 5722   3.108   0.317   0.981 -0.3268  0.1655  0.1522
   43MOL0     C 5723   2.155   0.745   0.846  0.7738  0.0484 -0.0088
   43MOL0     C 5724   2.071   0.821   0.755  0.3511 -0.8243  0.4415
   43MOL0     C 5725   1.867   0.974   0.394 -0.0878  0.3805  1.0689
   43MOL0     C 5726   1.939   1.047   0.299  0.7058  0.2260 -0.0817
   43MOL0     C 5727   1.887   1.126   0.198 -0.4068 -0.5792  0.3735
   43MOL0     C 5728   1.745   1.131   0.184 -0.6195 -0.0291 -0.0123
   43MOL0     O 5729   1.720   1.201   0.068  0.2604  0.2073 -0.1511
   43MOL0     C 5730   1.575   1.214   0.052  0.6713  0.6973 -0.0668
   43MOL0     C 5731   1.550   1.290  -0.072  0.3751 -0.7041 -0.5846
   43MOL0     C 5732   1.405   1.355  -0.076 -1.4395  0.9735 -0.2720
   43MOL0     C 5733   1.366   1.406  -0.208 -1.0050  0.1729  0.4772
   43MOL0     C 5734   1.230   1.445  -0.219 -0.1534  1.3787  0.0056
   43MOL0     C 5735   1.117   1.474  -0.226  0.5708 -0.0282 -0.6779
   43MOL0     C 5736   1.670   1.050   0.268  0.3224 -0.2986 -0.0700
   43MOL0     C 5737   1.730   0.973   0.377  0.0526  0.4047 -0.4203
   43MOL0     H 5738   2.314   0.864   0.520  0.4997 -0.5343 -0.1291
   43MOL0     H 5739   2.447   0.733   0.674  0.7356  1.5130 -0.0449
   43MOL0     H 5740   2.450   0.535   0.732  1.6731  1.9715  0.1154
   43MOL0     H 5741   2.552   0.607   0.845  0.5652 -1.0088  1.0427
   43MOL0     H 5742   2.484   0.428   1.016  0.0770  1.0136  0.5254
   43MOL0     H 5743   2.399   0.339   0.882  1.9613 -2.2849  1.6154
   43MOL0     H 5744   2.616   0.320   0.758  2.4478  2.4128 -0.3030
   43MOL0     H 5745   2.685   0.424   0.893 -2.6051  1.4956  1.0016
   43MOL0     H 5746   2.663   0.269   1.055  1.3433  1.2859 -0.7222
   43MOL0     H 5747   2.577   0.142   0.961  2.1155 -2.6847  1.4956
   43MOL0     H 5748   2.750   0.096   0.816  1.6029 -0.8675  0.9917
   43MOL0     H 5749   2.847   0.232   0.865 -0.3650  0.8020 -0.7201
   43MOL0     H 5750   2.834   0.118   1.103 -2.6956 -1.5221  0.5024
   43MOL0     H 5751   2.781  -0.031   1.019  0.4890 -1.2401  0.8635
   43MOL0     H 5752   2.987  -0.080   0.973 -4.7255 -0.2053 -0.5352
   43MOL0     H 5753   3.021   0.068   0.875  2.3996 -0.6750  0.4386
   43MOL0     H 5754   3.195   0.067   1.023 -1.2297 -3.3211 -1.1268
   43MOL0     H 5755   3.095   0.030   1.159 -0.9633 -0.1406 -0.0078
   43MOL0     H 5756   3.032   0.258   1.292 -2.0160 -0.1870 -0.1707
   43MOL0     H 5757   3.011   0.512   1.351 -1.0211  0.4780 -0.0717
   43MOL0     H 5758   3.103   0.612   1.244  1.5636 -2.7604 -0.1093
   43MOL0     H 5759   2.888   0.647   1.089  0.0505  1.7556  0.2220
   43MOL0     H 5760   2.875   0.695   1.262 -1.4943 -0.4432  0.0049
   43MOL0     H 5761   2.754   0.448   1.271  0.2077 -2.0560 -1.9640
   43MOL0     H 5762   2.758   0.471   1.098  0.1925 -1.0389  0.6248
   43MOL0     H 5763   2.551   0.546   1.172  1.2798 -1.7784  0.0733
   43MOL0     H 5764   2.637   0.667   1.071  1.6209  2.4135  0.9657
   43MOL0     H 5765   2.600   0.908   1.428 -0.1100  0.0585  0.3006
   43MOL0     H 5766   2.444   0.946   1.736  0.2003  1.2729 -0.2925
   43MOL0     H 5767   2.607   0.918   1.773 -2.8483  1.9701  0.8786
   43MOL0     H 5768   2.574   1.018   1.635  0.0619  0.4719 -1.2480
   43MOL0     H 5769   2.364   0.917   1.958 -1.3245  0.6951 -1.9654
   43MOL0     H 5770   2.321   0.968   2.187 -0.0938  1.0416 -2.2967
   43MOL0     H 5771   2.399   0.929   2.459 -0.0145  2.4110  1.2936
   43MOL0     H 5772   2.237   0.989   2.414 -0.2156 -2.8766 -3.0848
   43MOL0     H 5773   2.304   0.831   2.654 -1.1725 -1.2714 -0.5987
   43MOL0     H 5774   2.245   1.002   2.635 -3.4831  0.1812  0.6999
   43MOL0     H 5775   2.071   0.760   2.586 -1.1851  0.5710  0.0648
   43MOL0     H 5776   2.044   0.927   2.528 -3.3562  1.7540  4.0655
   43MOL0     H 5777   2.059   0.842   2.818 -2.4478 -1.9148  0.4015
   43MOL0     H 5778   2.052   1.010   2.760  1.3001 -0.3536 -1.7411
   43MOL0     H 5779   1.833   0.890   2.814 -0.7594 -0.3598 -0.7096
   43MOL0     H 5780   1.857   0.795   2.658 -3.5918  1.0994 -2.2257
   43MOL0     H 5781   1.817   1.103   2.719  2.1276  0.4090  0.3431
   43MOL0     H 5782   1.864   1.044   2.562  1.3583 -3.4497 -0.3802
   43MOL0     H 5783   1.611   0.991   2.723  2.0411 -0.3065  0.1618
   43MOL0     H 5784   1.655   0.873   2.590 -2.5928  0.6321 -4.0601
   43MOL0     H 5785   1.500   1.025   2.499  0.0847  1.3084 -0.4899
   43MOL0     H 5786   1.666   1.058   2.432  2.4162  1.1377  0.6888
   43MOL0     H 5787   2.212   0.547   2.265 -0.1084 -1.3729 -1.9487
   43MOL0     H 5788   2.264   0.509   2.008  3.9216 -0.6923  1.1057
   43MOL0     H 5789   2.446   0.480   1.619 -1.4358  1.2955  0.3542
   43MOL0     H 5790   2.524   0.496   1.381 -3.4379 -2.4749  0.4716
   43MOL0     H 5791   2.120   0.713   0.943  1.1535 -0.5455 -0.0625
   43MOL0     H 5792   1.973   0.861   0.780  1.2838  0.2937  2.4974
   43MOL0     H 5793   2.047   1.055   0.311  0.3855  0.7516  3.7702
   43MOL0     H 5794   1.943   1.187   0.128 -0.8335 -2.5715 -1.8058
   43MOL0     H 5795   1.521   1.119   0.044  0.7702  0.7839 -2.1482
   43MOL0     H 5796   1.540   1.270   0.140 -0.9609 -0.7016  0.2395
   43MOL0     H 5797   1.564   1.221  -0.156  1.0851 -1.7800  0.3918
   43MOL0     H 5798   1.628   1.367  -0.078 -0.4978  0.4686  1.6849
   43MOL0     H 5799   1.408   1.443  -0.011 -0.5635  0.4950  0.3638
   43MOL0     H 5800   1.336   1.282  -0.033 -0.5837  1.4504  2.0480
   43MOL0     H 5801   1.361   1.318  -0.273 -0.7230 -0.3920  1.2041
   43MOL0     H 5802   1.434   1.487  -0.236 -0.3371 -0.6513 -0.3725
   43MOL0     H 5803   1.012   1.495  -0.224  0.6022  0.3096 -1.8763
   43MOL0     H 5804   1.563   1.046   0.254  0.3911  1.9695 -1.8181
   43MOL0     H 5805   1.680   0.898   0.436  0.9918 -0.2953 -0.4939
   44MOL0     O 5806   7.039   1.749   9.704  0.7563  0.1735 -0.2761
   44MOL0     C 5807   7.130   1.801   9.639  0.2995  0.6789  0.1458
   44MOL0     O 5808   7.146   1.929   9.610 -0.4205 -0.8412 -0.6679
   44MOL0     C 5809   7.056   2.032   9.644 -0.1964  0.2199  0.2508
   44MOL0     C 5810   7.108   2.155   9.677 -0.1196 -0.1304 -0.5756
   44MOL0     C 5811   7.030   2.257   9.709  0.2014 -0.1901 -1.2160
   44MOL0     C 5812   6.886   2.245   9.704  0.2852 -0.8400 -1.1686
   44MOL0     O 5813   6.786   2.336   9.730 -0.2334 -0.2659  1.2944
   44MOL0     C 5814   6.795   2.472   9.674  0.1343 -0.4163 -0.3747
   44MOL0     C 5815   6.703   2.570   9.750 -0.4523  1.5681 -0.3283
   44MOL0     C 5816   6.562   2.581   9.708 -0.0643 -0.0503  0.2553
   44MOL0     C 5817   6.495   2.435   9.710  0.2829 -0.1971 -0.0600
   44MOL0     C 5818   6.345   2.441   9.684  0.1992  0.4576  0.2321
   44MOL0     C 5819   6.294   2.496   9.545  0.0851  0.5176  0.6874
   44MOL0     C 5820   6.355   2.447   9.403  0.1151  0.2946  0.1481
   44MOL0     C 5821   6.345   2.562   9.299 -0.4211 -0.5714  0.5684
   44MOL0     N 5822   6.369   2.526   9.153 -0.2277  0.0363  0.2258
   44MOL0     C 5823   6.268   2.470   9.073 -0.2526 -1.1022  0.5147
   44MOL0     C 5824   6.322   2.413   8.964 -0.1166  0.4391  0.5339
   44MOL0     C 5825   6.259   2.356   8.841 -0.4102 -0.1759 -0.0705
   44MOL0     C 5826   6.332   2.235   8.782 -0.2576  0.0064  0.2177
   44MOL0     C 5827   6.387   2.130   8.891 -0.5196 -0.4908 -0.3037
   44MOL0     C 5828   6.271   2.062   8.965  0.1002 -0.4235  0.2911
   44MOL0     O 5829   6.158   2.040   8.883 -0.0838  0.9552 -0.3463
   44MOL0     C 5830   6.069   1.949   8.937  0.2997  0.2890  0.3173
   44MOL0     C 5831   6.095   1.861   9.044  0.3058  0.4262  0.4002
   44MOL0     C 5832   5.985   1.792   9.100 -0.3380  0.3676  0.4856
   44MOL0     C 5833   6.014   1.713   9.225  0.9779 -0.1855 -0.9202
   44MOL0     C 5834   5.855   1.787   9.039 -0.5362 -0.0952 -0.2362
   44MOL0     C 5835   5.740   1.705   9.081  0.8072 -0.1131 -0.4407
   44MOL0     O 5836   5.621   1.712   9.006  0.1766 -0.2072  0.1679
   44MOL0     C 5837   5.521   1.624   9.034  0.4779  0.3153 -0.3054
   44MOL0     C 5838   5.471   1.586   9.168  0.1748 -0.6293  0.2031
   44MOL0     C 5839   5.373   1.492   9.183  1.0637  0.3120  0.5906
   44MOL0     C 5840   5.288   1.439   9.071 -1.3731 -0.5453  0.2998
   44MOL0     O 5841   5.179   1.356   9.096 -0.2642 -0.1658  0.0255
   44MOL0     C 5842   5.058   1.401   9.040 -0.5919  0.2356  0.4480
   44MOL0     C 5843   5.005   1.504   9.136  0.3273  0.3400  0.2778
   44MOL0     C 5844   4.957   1.634   9.078  0.1177 -0.3821 -0.3131
   44MOL0     C 5845   4.860   1.622   8.963  0.6439 -0.9729  0.2665
   44MOL0     C 5846   4.778   1.750   8.941 -0.1746 -0.5553  0.2183
   44MOL0     C 5847   4.683   1.750   8.824 -0.3767 -0.2396  0.2010
   44MOL0     C 5848   4.575   1.640   8.807 -0.8543 -0.0987  0.8686
   44MOL0     C 5849   4.526   1.636   8.648  0.2890  0.1173  0.4098
   44MOL0    Cl 5850   4.461   1.475   8.590 -0.5345 -0.6943  0.2391
   44MOL0     C 5851   5.332   1.488   8.941  0.7109  0.8431 -0.5095
   44MOL0     C 5852   5.444   1.572   8.925 -0.7487  0.2191 -0.3280
   44MOL0     O 5853   5.752   1.650   9.188  0.0011  0.2178  0.3750
   44MOL0     C 5854   5.837   1.867   8.925 -0.6462  0.2205  0.0224
   44MOL0     C 5855   5.939   1.946   8.875  0.5440 -0.1288 -0.3082
   44MOL0     N 5856   6.462   2.435   8.986 -0.2153  0.3868 -0.5681
   44MOL0     N 5857   6.486   2.494   9.099 -0.1044  0.1630  0.2294
   44MOL0     C 5858   6.843   2.119   9.672 -0.1316 -0.4929 -0.6629
   44MOL0     C 5859   6.919   2.018   9.637 -0.2347  0.0029 -0.4232
   44MOL0     C 5860   7.223   1.699   9.576  0.5675  0.2772  0.6766
   44MOL0     C 5861   7.226   1.566   9.613 -0.0230 -0.0854 -1.0137
   44MOL0     C 5862   7.288   1.479   9.523 -0.3428  0.3275 -0.2217
   44MOL0     C 5863   7.361   1.516   9.413  0.1330  0.0601 -0.4725
   44MOL0     O 5864   7.434   1.418   9.349 -0.7679 -0.4636  0.2235
   44MOL0     C 5865   7.509   1.455   9.233 -0.0829  0.3577 -0.0476
   44MOL0     C 5866   7.437   1.429   9.101 -0.5865  0.1637 -1.4999
   44MOL0     C 5867   7.549   1.398   8.996  0.0786 -1.1156 -0.6069
   44MOL0     C 5868   7.583   1.243   8.990  0.6065 -0.1554  0.2041
   44MOL0     C 5869   7.709   1.231   8.913  0.3997 -0.3947 -0.4046
   44MOL0     C 5870   7.815   1.210   8.861 -0.2683 -0.2044  0.0501
   44MOL0     C 5871   7.342   1.646   9.371 -0.5054 -1.0520  0.9241
   44MOL0     C 5872   7.278   1.728   9.454  0.4367  0.4506  0.8760
   44MOL0     H 5873   7.214   2.172   9.689 -0.2028 -0.8624  1.7013
   44MOL0     H 5874   7.067   2.354   9.741 -1.1092 -0.2269  0.5636
   44MOL0     H 5875   6.900   2.501   9.686  0.2041 -1.6087  2.8941
   44MOL0     H 5876   6.771   2.484   9.568  1.0079  2.1464 -0.3529
   44MOL0     H 5877   6.701   2.546   9.857 -2.0998  0.1033 -0.6418
   44MOL0     H 5878   6.759   2.663   9.737  1.1607  0.6230 -0.4947
   44MOL0     H 5879   6.514   2.654   9.775  1.3188  1.9912 -0.8565
   44MOL0     H 5880   6.543   2.622   9.609 -0.1766  1.0505  0.7098
   44MOL0     H 5881   6.541   2.370   9.635  0.6649 -0.4540  0.3935
   44MOL0     H 5882   6.509   2.387   9.807 -1.4320 -1.0342 -0.1695
   44MOL0     H 5883   6.319   2.338   9.708  0.7384  0.7221  2.1547
   44MOL0     H 5884   6.290   2.497   9.761 -0.4261 -0.0266  0.1387
   44MOL0     H 5885   6.188   2.471   9.531  0.2810  0.9992 -2.4604
   44MOL0     H 5886   6.312   2.603   9.549  0.3403  0.5368 -0.4901
   44MOL0     H 5887   6.457   2.413   9.423 -0.4823 -0.3487  2.4495
   44MOL0     H 5888   6.288   2.367   9.370  0.7762  0.5038 -1.8310
   44MOL0     H 5889   6.417   2.643   9.317 -0.4930 -0.3196 -0.2216
   44MOL0     H 5890   6.245   2.607   9.307 -0.1834 -0.1008  1.0127
   44MOL0     H 5891   6.160   2.469   9.086 -0.0028 -2.7861  3.1085
   44MOL0     H 5892   6.157   2.322   8.864 -0.1900 -0.8982 -0.1511
   44MOL0     H 5893   6.254   2.437   8.767  2.6874 -0.4052 -0.6594
   44MOL0     H 5894   6.423   2.266   8.729  1.1274 -0.9895  1.8968
   44MOL0     H 5895   6.264   2.190   8.710 -1.1446 -1.3591  1.8431
   44MOL0     H 5896   6.449   2.175   8.969  3.0168 -0.3946 -2.9350
   44MOL0     H 5897   6.437   2.048   8.839 -0.7701 -2.2615  2.0688
   44MOL0     H 5898   6.236   2.121   9.049 -2.2415  1.0877 -1.5956
   44MOL0     H 5899   6.310   1.971   9.012  1.8408  1.1125  1.9838
   44MOL0     H 5900   6.194   1.842   9.085  0.8791  1.5004 -0.4254
   44MOL0     H 5901   6.110   1.737   9.273  0.5313  1.3097 -0.7165
   44MOL0     H 5902   5.942   1.724   9.307  0.1715 -4.7489 -0.7379
   44MOL0     H 5903   6.015   1.607   9.197  0.5223 -0.8835  1.4857
   44MOL0     H 5904   5.503   1.642   9.255 -0.4869  1.2243 -0.6868
   44MOL0     H 5905   5.336   1.468   9.282  0.2112  0.8795  0.4236
   44MOL0     H 5906   5.074   1.445   8.941 -1.2872 -0.0376  0.2061
   44MOL0     H 5907   4.989   1.316   9.040 -1.8503  1.1600  3.0242
   44MOL0     H 5908   4.916   1.450   9.171  0.8478 -1.1192 -0.5522
   44MOL0     H 5909   5.075   1.529   9.216 -0.3743 -0.4419  1.1570
   44MOL0     H 5910   5.048   1.686   9.047 -0.5388  2.9654  2.7598
   44MOL0     H 5911   4.909   1.694   9.155 -1.7630 -2.3241  0.1096
   44MOL0     H 5912   4.907   1.600   8.867  1.8846 -0.0136  0.6354
   44MOL0     H 5913   4.788   1.539   8.970  1.0468 -1.3970 -0.4370
   44MOL0     H 5914   4.837   1.841   8.927 -0.7545 -0.2495 -0.2976
   44MOL0     H 5915   4.713   1.761   9.027 -0.0990  0.3772  0.1606
   44MOL0     H 5916   4.624   1.842   8.820  0.6238  0.3706 -0.9977
   44MOL0     H 5917   4.751   1.746   8.739  0.5461 -4.1153  0.9363
   44MOL0     H 5918   4.486   1.636   8.870 -1.8736 -3.2881 -0.5371
   44MOL0     H 5919   4.627   1.545   8.827 -0.4282 -0.0918 -0.1281
   44MOL0     H 5920   4.601   1.658   8.571 -0.9494 -2.5017 -1.6994
   44MOL0     H 5921   4.445   1.709   8.653 -0.6638 -0.9581  4.5862
   44MOL0     H 5922   5.281   1.449   8.853 -2.1174 -0.0823  1.3927
   44MOL0     H 5923   5.471   1.618   8.831 -1.2177  1.7596  0.2662
   44MOL0     H 5924   5.744   1.857   8.869 -0.0081 -0.6417 -0.9142
   44MOL0     H 5925   5.922   2.014   8.793 -0.2495 -1.5385 -1.3503
   44MOL0     H 5926   6.736   2.101   9.681 -1.0605  2.0354 -4.3305
   44MOL0     H 5927   6.865   1.930   9.604 -2.6593  1.2499  0.0662
   44MOL0     H 5928   7.182   1.534   9.707  2.7918 -0.3153  0.3276
   44MOL0     H 5929   7.284   1.372   9.543 -1.2501  0.5538  0.9033
   44MOL0     H 5930   7.555   1.552   9.254 -1.3975  0.3841  3.2902
   44MOL0     H 5931   7.601   1.395   9.231  0.2466  0.8526 -0.0406
   44MOL0     H 5932   7.366   1.510   9.082 -0.6993  0.0828 -1.4214
   44MOL0     H 5933   7.386   1.334   9.120  1.9976 -1.1392 -0.6567
   44MOL0     H 5934   7.642   1.450   9.021 -0.0646 -1.3239  0.4203
   44MOL0     H 5935   7.501   1.423   8.901  0.5585  0.9835 -0.3541
   44MOL0     H 5936   7.499   1.184   8.953 -2.4230  1.5532  3.7486
   44MOL0     H 5937   7.595   1.200   9.090 -1.4884  0.3480  0.7081
   44MOL0     H 5938   7.905   1.177   8.814  0.4169 -0.7973  1.7291
   44MOL0     H 5939   7.391   1.691   9.284 -1.3538  0.0889  1.0151
   44MOL0     H 5940   7.259   1.827   9.413 -3.1649 -0.0106  1.0620
   45MOL0     O 5941  11.257   7.137   1.792 -0.2302 -0.0254  0.3361
   45MOL0     C 5942  11.333   7.052   1.756 -0.2991  0.2352 -0.3482
   45MOL0     O 5943  11.465   7.077   1.724  0.5151  0.1788 -0.1137
   45MOL0     C 5944  11.518   7.203   1.724  0.8331  0.2832 -1.0517
   45MOL0     C 5945  11.533   7.286   1.834  0.0794  0.2013 -0.1494
   45MOL0     C 5946  11.594   7.414   1.828 -0.4912 -0.3169  0.9437
   45MOL0     C 5947  11.636   7.464   1.703  0.4152 -0.3336 -0.0737
   45MOL0     O 5948  11.685   7.586   1.670 -0.5692 -0.3704 -0.3321
   45MOL0     C 5949  11.668   7.700   1.759  0.3227  1.0963 -0.8620
   45MOL0     C 5950  11.794   7.728   1.839  0.0859 -0.1545 -0.0021
   45MOL0     C 5951  11.776   7.722   1.995  0.2627  0.9283  1.4265
   45MOL0     C 5952  11.892   7.794   2.060 -0.2946  0.0069 -0.1855
   45MOL0     C 5953  11.952   7.727   2.178 -0.2850 -0.2362  0.3441
   45MOL0     C 5954  12.053   7.818   2.236 -0.3868  0.4609  0.3700
   45MOL0     C 5955  11.980   7.908   2.346 -0.2303  0.4728  0.5895
   45MOL0     C 5956  12.055   8.025   2.410 -1.6424  0.3013  0.2459
   45MOL0     N 5957  11.976   8.094   2.505 -0.3589 -0.0140  0.0159
   45MOL0     C 5958  11.930   8.045   2.622 -0.5049 -0.2167  0.3634
   45MOL0     C 5959  11.861   8.149   2.674 -0.5478 -1.0190  0.4207
   45MOL0     C 5960  11.782   8.149   2.803 -0.8397 -0.2619 -0.5994
   45MOL0     C 5961  11.882   8.097   2.915  0.3267  0.0958 -0.0331
   45MOL0     C 5962  11.824   8.110   3.055  1.0817  0.5997 -1.0203
   45MOL0     C 5963  11.682   8.062   3.087 -0.4886  1.0124 -0.5946
   45MOL0     O 5964  11.653   8.082   3.226  0.3780  0.4787 -0.2339
   45MOL0     C 5965  11.519   8.050   3.264 -0.7639  0.0823  0.7773
   45MOL0     C 5966  11.424   7.985   3.181  0.1924 -0.2985 -0.4133
   45MOL0     C 5967  11.289   7.961   3.218 -0.6050 -0.0124  0.3602
   45MOL0     C 5968  11.211   7.917   3.109 -1.3446  0.3031  0.3507
   45MOL0     C 5969  11.254   7.981   3.345 -0.7266 -0.0686 -0.4958
   45MOL0     C 5970  11.121   7.963   3.402  0.8972  0.0475 -0.8500
   45MOL0     O 5971  11.101   7.965   3.544 -0.4629 -0.3776 -0.1067
   45MOL0     C 5972  10.974   7.962   3.589  0.2209  0.6903  0.1497
   45MOL0     C 5973  10.900   8.081   3.582 -1.1642  0.1455 -0.2721
   45MOL0     C 5974  10.776   8.091   3.638 -0.0249  0.2532  0.1332
   45MOL0     C 5975  10.719   7.981   3.703 -0.1883  0.7282  0.2308
   45MOL0     O 5976  10.603   7.992   3.760  0.4248  0.3355  0.9162
   45MOL0     C 5977  10.605   8.090   3.863  0.6062  0.5282 -0.6936
   45MOL0     C 5978  10.499   8.069   3.966  0.6397  0.8168 -0.4369
   45MOL0     C 5979  10.525   8.152   4.089  0.3600 -0.0566 -0.5178
   45MOL0     C 5980  10.421   8.113   4.194 -0.8862  0.4447  0.1364
   45MOL0     C 5981  10.400   8.201   4.312  0.1157 -0.1913  0.0372
   45MOL0     C 5982  10.322   8.329   4.273 -0.0151 -0.7466  0.5093
   45MOL0     C 5983  10.302   8.429   4.388 -0.3021 -0.8023 -0.2341
   45MOL0     C 5984  10.251   8.566   4.355  0.1747  0.0258 -0.4727
   45MOL0    Cl 5985  10.076   8.546   4.292 -0.4349  0.0132  0.0022
   45MOL0     C 5986  10.789   7.858   3.701  0.5828  0.9545 -0.0290
   45MOL0     C 5987  10.909   7.847   3.637  0.1808 -0.8492  0.3190
   45MOL0     O 5988  11.035   7.947   3.318  0.3957  0.1220 -0.1686
   45MOL0     C 5989  11.355   8.026   3.435 -0.2773  0.2263 -0.2206
   45MOL0     C 5990  11.479   8.061   3.396 -0.0455 -0.8266  0.3803
   45MOL0     N 5991  11.878   8.267   2.593  0.3476 -0.2317  1.0591
   45MOL0     N 5992  11.946   8.222   2.488  0.0099  0.4746  0.0885
   45MOL0     C 5993  11.618   7.374   1.592  0.4396 -1.0109 -0.0194
   45MOL0     C 5994  11.564   7.250   1.603 -0.3343 -1.0228 -0.9185
   45MOL0     C 5995  11.271   6.923   1.707 -0.0976  0.2752  0.3469
   45MOL0     C 5996  11.141   6.931   1.686  0.1300  0.3513 -0.0144
   45MOL0     C 5997  11.071   6.813   1.650  0.2299 -0.3353  0.4212
   45MOL0     C 5998  11.128   6.684   1.619  0.2579  0.1397 -0.1524
   45MOL0     O 5999  11.083   6.562   1.577  0.3129  0.4737  0.1030
   45MOL0     C 6000  10.934   6.531   1.569  0.8688 -0.0005 -1.3330
   45MOL0     C 6001  10.908   6.400   1.497  0.7634 -0.5823  0.1367
   45MOL0     C 6002  10.753   6.370   1.482  0.6971 -0.0417  0.4338
   45MOL0     C 6003  10.724   6.229   1.431  0.4478  0.5451  0.6152
   45MOL0     C 6004  10.760   6.194   1.296  0.1915 -0.3411  0.8305
   45MOL0     C 6005  10.776   6.193   1.175 -0.3392 -0.2248  1.3519
   45MOL0     C 6006  11.273   6.689   1.629  0.2554  0.9551  0.2670
   45MOL0     C 6007  11.341   6.808   1.671 -0.1732  0.4279  0.5512
   45MOL0     H 6008  11.474   7.261   1.921  1.7582  1.0995  1.3176
   45MOL0     H 6009  11.612   7.473   1.917  0.1246  1.6925 -0.4482
   45MOL0     H 6010  11.641   7.789   1.701  0.0510  0.7054 -1.3507
   45MOL0     H 6011  11.578   7.683   1.819  1.0779  0.5368  0.1346
   45MOL0     H 6012  11.857   7.642   1.814 -2.1388 -1.5716 -0.9799
   45MOL0     H 6013  11.842   7.817   1.797  0.0212 -1.4499 -3.0798
   45MOL0     H 6014  11.681   7.763   2.030 -2.5044 -3.9946  0.6050
   45MOL0     H 6015  11.766   7.615   2.018  0.5478  0.3855 -0.7796
   45MOL0     H 6016  11.975   7.804   1.989  0.2158 -2.8406 -0.0871
   45MOL0     H 6017  11.853   7.891   2.092 -2.1523 -0.6678 -0.2825
   45MOL0     H 6018  11.871   7.723   2.252  0.2212 -0.3778  0.8955
   45MOL0     H 6019  11.995   7.632   2.145  0.5922  0.4621 -0.5688
   45MOL0     H 6020  12.140   7.757   2.261  2.6878  3.5012 -1.9346
   45MOL0     H 6021  12.081   7.886   2.155 -1.6401  2.2214  1.3255
   45MOL0     H 6022  11.884   7.947   2.310  0.1048  1.1863  0.4652
   45MOL0     H 6023  11.962   7.851   2.438 -0.2407 -1.1257 -0.3573
   45MOL0     H 6024  12.096   8.095   2.337  2.3488 -0.4235  1.5782
   45MOL0     H 6025  12.144   7.987   2.460 -0.5593  1.3752 -0.8159
   45MOL0     H 6026  11.944   7.945   2.662  0.4760 -0.6854 -1.0821
   45MOL0     H 6027  11.745   8.249   2.829 -1.5144 -0.2077 -1.7164
   45MOL0     H 6028  11.694   8.089   2.778 -1.3347  0.5755 -0.9216
   45MOL0     H 6029  11.985   8.133   2.907  0.4979 -0.5588 -0.8964
   45MOL0     H 6030  11.899   7.990   2.900  3.4972  0.4144  0.4435
   45MOL0     H 6031  11.845   8.212   3.088  2.8774 -0.1714  0.3760
   45MOL0     H 6032  11.881   8.038   3.114  0.8006  1.0842 -0.1431
   45MOL0     H 6033  11.664   7.956   3.067  0.6522  0.8234 -0.6765
   45MOL0     H 6034  11.612   8.110   3.018  0.1251 -1.6892 -3.3100
   45MOL0     H 6035  11.454   7.957   3.081 -1.1594 -3.6791 -0.0086
   45MOL0     H 6036  11.143   7.836   3.139  1.7857 -2.4557  0.6397
   45MOL0     H 6037  11.167   8.014   3.084  0.1336  0.3313 -2.5029
   45MOL0     H 6038  11.270   7.880   3.025 -3.7295  2.4408 -2.4723
   45MOL0     H 6039  10.941   8.168   3.531 -0.7601  1.6044  2.3357
   45MOL0     H 6040  10.716   8.180   3.622 -0.1333 -0.2506 -3.1245
   45MOL0     H 6041  10.703   8.080   3.910 -1.5127  1.7111  4.6918
   45MOL0     H 6042  10.597   8.190   3.820 -0.2067  1.1601  0.8425
   45MOL0     H 6043  10.401   8.071   3.917  1.5190 -0.7184 -2.3944
   45MOL0     H 6044  10.519   7.963   3.984  2.0487  1.1860  0.3097
   45MOL0     H 6045  10.518   8.259   4.066  0.0379 -0.0013 -0.1823
   45MOL0     H 6046  10.625   8.126   4.124  0.6599 -1.4771 -2.3235
   45MOL0     H 6047  10.328   8.114   4.136 -1.4462  1.0015  1.0269
   45MOL0     H 6048  10.447   8.012   4.226 -0.1370  0.6782  0.2926
   45MOL0     H 6049  10.492   8.235   4.361 -0.1440 -0.9256  1.0730
   45MOL0     H 6050  10.334   8.161   4.389 -0.2955  1.9637  0.8623
   45MOL0     H 6051  10.361   8.377   4.183 -2.6043 -0.4557 -0.5308
   45MOL0     H 6052  10.227   8.287   4.239  0.6011 -0.4437 -1.7407
   45MOL0     H 6053  10.397   8.457   4.436 -0.1835 -0.7884 -0.4733
   45MOL0     H 6054  10.235   8.385   4.462 -2.7797 -0.3229 -2.0550
   45MOL0     H 6055  10.313   8.615   4.280  1.8431 -1.5775 -0.2205
   45MOL0     H 6056  10.256   8.632   4.442 -1.4273 -0.0696 -0.2685
   45MOL0     H 6057  10.737   7.766   3.727 -1.8617  2.4928  0.8973
   45MOL0     H 6058  10.960   7.750   3.638  3.8382  0.8904  0.2037
   45MOL0     H 6059  11.326   8.046   3.538 -1.2963  2.4543 -0.8991
   45MOL0     H 6060  11.557   8.089   3.466  0.7829 -1.8915 -0.0879
   45MOL0     H 6061  11.646   7.399   1.490  1.8760  0.0296  0.5881
   45MOL0     H 6062  11.547   7.180   1.522 -3.8635 -2.7367  1.0438
   45MOL0     H 6063  11.082   7.021   1.699 -1.3433 -0.5922  0.0661
   45MOL0     H 6064  10.963   6.824   1.657  0.1898  0.2978 -0.8089
   45MOL0     H 6065  10.905   6.499   1.669 -2.9125 -1.0317 -2.5855
   45MOL0     H 6066  10.872   6.613   1.533 -0.6128 -0.1839  0.6397
   45MOL0     H 6067  10.967   6.322   1.546 -0.1843 -2.4127 -1.5063
   45MOL0     H 6068  10.947   6.409   1.395  0.1388  3.6760  0.1165
   45MOL0     H 6069  10.708   6.447   1.418  1.1461  1.1011  1.4349
   45MOL0     H 6070  10.695   6.356   1.574 -0.9348 -1.4449 -0.7497
   45MOL0     H 6071  10.616   6.226   1.448  0.8766 -0.2411  3.8601
   45MOL0     H 6072  10.779   6.164   1.499  1.9998  1.0704 -0.0896
   45MOL0     H 6073  10.802   6.187   1.071  0.3082 -1.6922  1.5725
   45MOL0     H 6074  11.320   6.601   1.587 -0.1477 -0.1174  1.9572
   45MOL0     H 6075  11.449   6.817   1.677 -0.3748  4.2110  0.8128
   46MOL0     O 6076   4.929   7.241   4.244  0.0841 -0.1937 -0.1427
   46MOL0     C 6077   4.928   7.265   4.119 -0.4444  0.2916 -0.0102
   46MOL0     O 6078   4.835   7.343   4.048  0.4763 -0.1900  1.0611
   46MOL0     C 6079   4.731   7.404   4.117  0.1429 -0.2057 -1.4380
   46MOL0     C 6080   4.688   7.535   4.087  0.2629  0.3440  0.1734
   46MOL0     C 6081   4.578   7.599   4.145  0.0461  0.4202  0.7319
   46MOL0     C 6082   4.511   7.535   4.248  0.0708 -0.2315 -1.1010
   46MOL0     O 6083   4.401   7.589   4.310  0.1858 -0.8274 -0.2587
   46MOL0     C 6084   4.426   7.702   4.392  0.0470  0.3469 -0.0728
   46MOL0     C 6085   4.287   7.733   4.464 -0.6016  0.1460 -0.4114
   46MOL0     C 6086   4.308   7.850   4.547 -0.1928 -1.0772  0.3201
   46MOL0     C 6087   4.170   7.920   4.560 -1.3271  0.5092  0.7606
   46MOL0     C 6088   4.202   8.051   4.638  0.7876 -0.4582 -0.9626
   46MOL0     C 6089   4.080   8.121   4.687 -0.4993  0.1387 -0.5339
   46MOL0     C 6090   4.104   8.218   4.810 -0.6162  0.6505  0.0083
   46MOL0     C 6091   4.159   8.353   4.761  0.3783 -1.1214 -0.6537
   46MOL0     N 6092   4.174   8.436   4.882  1.2158 -0.9796  0.9832
   46MOL0     C 6093   4.214   8.393   5.007 -0.3990 -0.9011 -0.4541
   46MOL0     C 6094   4.229   8.504   5.077 -0.0399 -0.4221  0.7501
   46MOL0     C 6095   4.241   8.526   5.227  0.1691 -0.1831 -0.1927
   46MOL0     C 6096   4.320   8.425   5.282 -0.4383  0.1351 -0.6811
   46MOL0     C 6097   4.352   8.445   5.433 -0.5498  0.1043  0.3142
   46MOL0     C 6098   4.457   8.561   5.461  1.2386  0.3051  0.3630
   46MOL0     O 6099   4.381   8.683   5.459  0.0545 -0.2280  0.7913
   46MOL0     C 6100   4.322   8.728   5.569 -1.2275  0.0667  0.1215
   46MOL0     C 6101   4.327   8.670   5.693 -0.5095  0.2331 -0.1695
   46MOL0     C 6102   4.253   8.726   5.794  0.7970 -0.1569 -0.1972
   46MOL0     C 6103   4.259   8.650   5.925  0.4804 -0.0233 -0.4922
   46MOL0     C 6104   4.160   8.838   5.781  0.0132  0.7483  0.8802
   46MOL0     C 6105   4.086   8.905   5.889 -0.3112  0.0337  0.3537
   46MOL0     O 6106   3.963   8.947   5.847  0.2123 -0.0272 -0.0171
   46MOL0     C 6107   3.876   8.983   5.952 -0.3392 -0.5619 -0.2982
   46MOL0     C 6108   3.826   8.892   6.048  0.7645  0.0556 -0.4625
   46MOL0     C 6109   3.737   8.938   6.146  0.2611 -0.0118  1.2591
   46MOL0     C 6110   3.696   9.067   6.147 -0.1428 -0.1086 -0.8529
   46MOL0     O 6111   3.608   9.110   6.245  0.5161  0.2461  0.7005
   46MOL0     C 6112   3.555   9.243   6.248  0.1898  0.4731  0.0136
   46MOL0     C 6113   3.448   9.248   6.358  0.4142 -0.2364  0.6688
   46MOL0     C 6114   3.507   9.277   6.504  0.5967  0.9232 -0.5059
   46MOL0     C 6115   3.405   9.280   6.611 -0.3434 -0.2962  0.0415
   46MOL0     C 6116   3.417   9.156   6.705 -0.8815 -0.6180 -0.1069
   46MOL0     C 6117   3.327   9.150   6.824  0.4745  0.2264 -0.1570
   46MOL0     C 6118   3.356   9.261   6.925 -0.4925  0.6233 -0.8970
   46MOL0     C 6119   3.247   9.369   6.930 -0.2377 -0.0608 -0.4895
   46MOL0    Cl 6120   3.100   9.317   6.988  0.3532  0.1497 -0.1208
   46MOL0     C 6121   3.732   9.149   6.042 -0.4929  0.1344 -0.0614
   46MOL0     C 6122   3.818   9.114   5.943  0.1380  0.1454 -0.2590
   46MOL0     O 6123   4.141   8.914   6.000  0.5760  0.4374  0.0900
   46MOL0     C 6124   4.162   8.889   5.647  0.1661 -1.0109 -0.5512
   46MOL0     C 6125   4.247   8.838   5.546  0.2217  0.3262  0.7742
   46MOL0     N 6126   4.195   8.613   4.999  0.0696  1.0121  0.1588
   46MOL0     N 6127   4.158   8.573   4.873 -0.2416 -0.5292  0.5099
   46MOL0     C 6128   4.548   7.406   4.295 -1.1810 -0.2852  0.0584
   46MOL0     C 6129   4.657   7.339   4.220  0.5979 -0.1571 -0.0186
   46MOL0     C 6130   5.040   7.214   4.044 -0.5369 -0.0059  0.2444
   46MOL0     C 6131   5.126   7.116   4.093 -0.0079 -0.1057 -0.0816
   46MOL0     C 6132   5.223   7.061   4.021 -1.5645  0.0786 -0.7167
   46MOL0     C 6133   5.262   7.105   3.901  0.0974  0.8406  0.0487
   46MOL0     O 6134   5.346   7.046   3.814 -0.6050 -0.2870  0.6852
   46MOL0     C 6135   5.302   6.945   3.725  0.9273 -0.6905  0.1452
   46MOL0     C 6136   5.256   6.822   3.795 -0.3945  0.2260  0.0988
   46MOL0     C 6137   5.347   6.748   3.885  0.3516  0.5710  0.2690
   46MOL0     C 6138   5.283   6.652   4.000  0.7070  0.4657  1.2730
   46MOL0     C 6139   5.181   6.555   3.955  0.3380  0.1708  0.6154
   46MOL0     C 6140   5.116   6.464   3.904 -0.9718 -0.3719  1.3432
   46MOL0     C 6141   5.180   7.202   3.840 -0.1269  0.2757 -0.4304
   46MOL0     C 6142   5.067   7.247   3.907 -0.0211  0.0952  1.7172
   46MOL0     H 6143   4.745   7.582   4.007  0.5304 -1.9199 -1.0431
   46MOL0     H 6144   4.550   7.699   4.112 -1.9644 -0.8377 -1.7172
   46MOL0     H 6145   4.497   7.670   4.469 -1.1024 -3.5481 -0.4439
   46MOL0     H 6146   4.456   7.787   4.330  1.5955 -2.3972 -3.3773
   46MOL0     H 6147   4.213   7.751   4.386 -0.0953 -0.6388 -1.0913
   46MOL0     H 6148   4.268   7.643   4.524 -0.4879 -2.1092 -3.5325
   46MOL0     H 6149   4.335   7.815   4.647 -1.6850  0.9333  1.4726
   46MOL0     H 6150   4.390   7.910   4.507 -1.5937  0.2912 -0.6005
   46MOL0     H 6151   4.127   7.945   4.462  0.7929  0.9919 -0.1028
   46MOL0     H 6152   4.103   7.857   4.619 -1.1328  0.1689  0.6198
   46MOL0     H 6153   4.256   8.022   4.729 -2.2710 -0.4287  1.0322
   46MOL0     H 6154   4.263   8.119   4.579 -0.6220  0.6120 -1.2327
   46MOL0     H 6155   4.039   8.175   4.602  1.4785  0.2734 -1.4470
   46MOL0     H 6156   3.991   8.065   4.721 -0.6109  1.8454  2.3843
   46MOL0     H 6157   4.015   8.253   4.863  0.8252  2.3870  1.4236
   46MOL0     H 6158   4.163   8.168   4.887 -0.3491  0.8240 -0.0819
   46MOL0     H 6159   4.092   8.396   4.686 -0.9564 -1.3815  0.3566
   46MOL0     H 6160   4.252   8.357   4.704  1.2157  0.4768  0.7522
   46MOL0     H 6161   4.220   8.295   5.053 -0.6887 -0.0933  1.4150
   46MOL0     H 6162   4.286   8.625   5.244 -2.8785  0.9939  1.7047
   46MOL0     H 6163   4.147   8.515   5.281  0.5114 -0.4308  0.3668
   46MOL0     H 6164   4.419   8.424   5.237 -0.0498 -1.3814  0.1272
   46MOL0     H 6165   4.285   8.322   5.268 -1.1608  0.6247 -2.9637
   46MOL0     H 6166   4.382   8.350   5.477  1.0757 -0.2823 -1.4808
   46MOL0     H 6167   4.257   8.477   5.476 -0.7862  2.7284 -1.8911
   46MOL0     H 6168   4.526   8.559   5.376 -1.4166 -0.5409 -1.9535
   46MOL0     H 6169   4.504   8.538   5.557  1.6857 -2.0952 -0.3519
   46MOL0     H 6170   4.402   8.592   5.707 -1.4315 -1.1180 -2.2034
   46MOL0     H 6171   4.308   8.552   5.921  2.1645  0.7387  0.6468
   46MOL0     H 6172   4.319   8.700   6.001  1.0548  0.7962 -1.4513
   46MOL0     H 6173   4.157   8.636   5.962  1.0094 -1.0369  0.6704
   46MOL0     H 6174   3.865   8.791   6.050  0.7198  0.0215  2.2918
   46MOL0     H 6175   3.696   8.868   6.219 -2.3619  1.8753  1.7256
   46MOL0     H 6176   3.629   9.322   6.230  0.9725 -0.6235 -1.9176
   46MOL0     H 6177   3.494   9.264   6.160  0.9675  0.6950 -0.4868
   46MOL0     H 6178   3.381   9.332   6.335 -2.4713 -2.6415 -0.3875
   46MOL0     H 6179   3.371   9.170   6.362 -0.5542  0.4975 -1.8167
   46MOL0     H 6180   3.570   9.366   6.517  1.1273  0.8184 -2.1452
   46MOL0     H 6181   3.574   9.191   6.506  2.5428  2.3409 -1.6959
   46MOL0     H 6182   3.416   9.381   6.653  2.3486  0.0808 -1.3246
   46MOL0     H 6183   3.311   9.266   6.556  0.6802 -1.5007 -1.5029
   46MOL0     H 6184   3.522   9.138   6.733 -0.7889 -1.2127 -0.8152
   46MOL0     H 6185   3.381   9.072   6.645 -1.9760  1.5119 -2.6321
   46MOL0     H 6186   3.222   9.148   6.795  0.7461  0.2380 -1.1804
   46MOL0     H 6187   3.335   9.050   6.867 -5.4456 -0.5600 -0.1717
   46MOL0     H 6188   3.454   9.300   6.898  0.8917 -2.3339 -0.5203
   46MOL0     H 6189   3.353   9.217   7.026 -1.8093  1.2342 -0.6471
   46MOL0     H 6190   3.239   9.410   6.829 -0.7194 -1.2231 -0.9392
   46MOL0     H 6191   3.281   9.449   6.996  0.7339 -2.0125  1.5140
   46MOL0     H 6192   3.691   9.249   6.048 -1.8241 -0.4741  2.1891
   46MOL0     H 6193   3.856   9.175   5.862 -0.8939 -0.4486 -1.2076
   46MOL0     H 6194   4.091   8.966   5.622  1.0296  0.8529  2.2686
   46MOL0     H 6195   4.241   8.866   5.441 -1.4138 -0.0769  0.7275
   46MOL0     H 6196   4.490   7.353   4.370 -0.7947 -0.1334  0.4745
   46MOL0     H 6197   4.691   7.237   4.233 -2.3578 -2.0114 -4.4377
   46MOL0     H 6198   5.130   7.080   4.195  1.1910 -2.7590 -0.9893
   46MOL0     H 6199   5.286   6.989   4.071 -1.3208  0.4761 -0.4424
   46MOL0     H 6200   5.220   6.984   3.666  1.2387 -0.2609 -0.0077
   46MOL0     H 6201   5.380   6.914   3.655  0.4640  0.3138 -0.8444
   46MOL0     H 6202   5.248   6.749   3.713  2.9400 -0.6758  0.4507
   46MOL0     H 6203   5.161   6.839   3.846  0.7226  0.6897  2.1448
   46MOL0     H 6204   5.411   6.819   3.937 -1.7902  1.7459  1.4014
   46MOL0     H 6205   5.414   6.699   3.813  0.0001  0.5765 -0.0643
   46MOL0     H 6206   5.249   6.723   4.076  1.9040  3.0920 -0.4976
   46MOL0     H 6207   5.355   6.577   4.035  2.7401  1.3706 -0.7841
   46MOL0     H 6208   5.052   6.388   3.865 -3.7018  0.6234  3.5981
   46MOL0     H 6209   5.206   7.242   3.742 -4.0270  3.3849 -0.4210
   46MOL0     H 6210   5.003   7.308   3.844  2.3615 -0.2942 -1.3111
   47MOL0     O 6211   1.118   4.543   2.867 -0.7894 -0.3001 -0.7126
   47MOL0     C 6212   1.074   4.442   2.828 -0.6521  1.4819  0.6525
   47MOL0     O 6213   1.127   4.372   2.721  0.9519 -0.7231 -0.0596
   47MOL0     C 6214   1.256   4.327   2.713 -0.3565  0.3151 -0.5566
   47MOL0     C 6215   1.320   4.286   2.593 -0.5735  0.7832 -0.1534
   47MOL0     C 6216   1.449   4.242   2.596  0.0785  0.0344  0.7472
   47MOL0     C 6217   1.522   4.245   2.715 -0.2560  0.4827 -0.1172
   47MOL0     O 6218   1.657   4.216   2.711 -0.6550 -0.4032  0.0947
   47MOL0     C 6219   1.704   4.097   2.774 -0.2173  0.3468 -0.3708
   47MOL0     C 6220   1.851   4.103   2.754  0.1837 -0.1211 -1.2192
   47MOL0     C 6221   1.931   4.039   2.868  0.2530 -0.2709  0.8289
   47MOL0     C 6222   2.087   4.050   2.830  0.1502 -0.2509  0.1752
   47MOL0     C 6223   2.167   4.008   2.959  0.0927 -0.3186  0.4684
   47MOL0     C 6224   2.148   3.874   3.007 -0.1854  0.0661 -0.1955
   47MOL0     C 6225   2.249   3.820   3.113  1.4261 -0.4727  0.8150
   47MOL0     C 6226   2.374   3.768   3.062 -0.3917 -0.6515  0.1764
   47MOL0     N 6227   2.360   3.632   3.014 -0.5910 -0.4862 -0.0786
   47MOL0     C 6228   2.430   3.530   3.075 -0.9547 -0.0127 -0.5033
   47MOL0     C 6229   2.382   3.422   3.018 -0.0319 -0.1934 -0.1033
   47MOL0     C 6230   2.432   3.284   3.050  0.9485  0.1545 -0.1270
   47MOL0     C 6231   2.326   3.174   3.012 -0.2214  0.0719  0.9212
   47MOL0     C 6232   2.338   3.116   2.871  0.4558 -0.8085  0.2333
   47MOL0     C 6233   2.281   2.981   2.841  0.0086 -0.2446 -0.2992
   47MOL0     O 6234   2.239   2.959   2.710  0.2118  0.0999  0.8008
   47MOL0     C 6235   2.327   2.900   2.617  0.0402 -0.4189  0.0420
   47MOL0     C 6236   2.414   2.792   2.646 -0.3494 -1.3599 -0.1482
   47MOL0     C 6237   2.507   2.744   2.560 -0.4179  0.3776  1.3626
   47MOL0     C 6238   2.580   2.626   2.610 -0.5671  0.7481 -0.1137
   47MOL0     C 6239   2.538   2.809   2.441  0.9088 -0.2357 -0.4760
   47MOL0     C 6240   2.655   2.774   2.350 -0.0339 -0.3067 -0.0700
   47MOL0     O 6241   2.775   2.719   2.404 -0.2458  0.2637 -0.4213
   47MOL0     C 6242   2.880   2.749   2.323  0.3655  0.7596  0.5620
   47MOL0     C 6243   2.938   2.640   2.278 -0.6114 -0.0145  0.5621
   47MOL0     C 6244   3.058   2.634   2.212  0.0073 -0.0167  0.9542
   47MOL0     C 6245   3.104   2.755   2.163 -0.6691  0.3872  0.6878
   47MOL0     O 6246   3.218   2.765   2.081  0.5097  0.6359 -0.1921
   47MOL0     C 6247   3.238   2.666   1.980 -1.1056  0.4855  1.2874
   47MOL0     C 6248   3.381   2.678   1.915 -0.1349 -0.6116  1.1514
   47MOL0     C 6249   3.477   2.653   2.033  0.7529 -0.1725 -0.2567
   47MOL0     C 6250   3.575   2.538   2.004  0.3788  0.1715 -1.0219
   47MOL0     C 6251   3.533   2.401   2.059  0.1629 -0.0744 -0.3806
   47MOL0     C 6252   3.583   2.366   2.207  0.0553 -0.6936  1.0048
   47MOL0     C 6253   3.532   2.252   2.279 -0.5616 -0.7338  0.1591
   47MOL0     C 6254   3.384   2.231   2.249 -0.2035  0.0652 -0.4529
   47MOL0    Cl 6255   3.299   2.383   2.302 -0.6788  0.1374 -0.1569
   47MOL0     C 6256   3.043   2.878   2.206  0.3715  0.0446 -0.3092
   47MOL0     C 6257   2.934   2.877   2.288  0.1179  0.6304  1.1269
   47MOL0     O 6258   2.639   2.812   2.233  0.5938 -1.2776 -0.2179
   47MOL0     C 6259   2.441   2.904   2.409 -1.0573 -0.2422  0.0450
   47MOL0     C 6260   2.339   2.946   2.491  0.3515 -0.0210 -0.2928
   47MOL0     N 6261   2.292   3.456   2.924 -0.0047 -0.6036 -0.7212
   47MOL0     N 6262   2.278   3.586   2.918 -0.2791 -0.3430  0.1422
   47MOL0     C 6263   1.458   4.276   2.834  0.4529  0.5074  0.2743
   47MOL0     C 6264   1.323   4.304   2.838 -0.4394 -0.2859 -0.3442
   47MOL0     C 6265   0.954   4.383   2.891  0.9637 -0.2783  0.1164
   47MOL0     C 6266   0.895   4.258   2.845  0.1082  0.3509  0.3642
   47MOL0     C 6267   0.774   4.212   2.893 -0.3210  0.7665 -0.8055
   47MOL0     C 6268   0.706   4.270   2.995 -0.1465 -0.3104 -0.2931
   47MOL0     O 6269   0.585   4.218   3.034 -0.7905  0.1363 -0.0127
   47MOL0     C 6270   0.571   4.078   3.022  0.4586 -0.0743  0.0125
   47MOL0     C 6271   0.459   4.054   3.123 -0.6200  0.5241 -0.4735
   47MOL0     C 6272   0.329   4.102   3.064 -0.5700  0.2152  0.3892
   47MOL0     C 6273   0.247   4.183   3.159  0.3215  0.4518  0.2050
   47MOL0     C 6274   0.309   4.317   3.178  0.1240  0.3399 -0.1284
   47MOL0     C 6275   0.372   4.418   3.201 -0.8695 -0.1044 -0.1549
   47MOL0     C 6276   0.757   4.390   3.045 -0.4928  0.0215 -0.5476
   47MOL0     C 6277   0.882   4.450   2.991  0.0647 -0.1619 -0.5157
   47MOL0     H 6278   1.264   4.303   2.501 -2.1553 -0.6634  0.4922
   47MOL0     H 6279   1.491   4.219   2.498 -4.1470  0.9365 -1.5479
   47MOL0     H 6280   1.671   4.101   2.878  0.1505 -1.3514 -0.1582
   47MOL0     H 6281   1.676   4.000   2.732  2.6819 -0.6467 -0.2174
   47MOL0     H 6282   1.872   4.034   2.673  0.4723 -2.5565  0.7927
   47MOL0     H 6283   1.889   4.203   2.729 -0.7881  0.4595 -0.4865
   47MOL0     H 6284   1.902   4.090   2.960 -1.8179 -0.4774  0.3397
   47MOL0     H 6285   1.915   3.931   2.879  2.4139 -0.5115  2.1354
   47MOL0     H 6286   2.114   3.995   2.740  1.7680 -0.4751  0.7639
   47MOL0     H 6287   2.108   4.155   2.810 -0.0522 -0.2855 -0.2137
   47MOL0     H 6288   2.273   4.033   2.946 -0.0119 -0.3832 -0.5575
   47MOL0     H 6289   2.127   4.066   3.043  3.7981  4.0130 -0.3559
   47MOL0     H 6290   2.044   3.853   3.034 -1.0459  2.1953 -1.6686
   47MOL0     H 6291   2.167   3.805   2.924 -0.5464  1.3583 -1.3708
   47MOL0     H 6292   2.268   3.887   3.197  2.3887  0.4942 -0.1378
   47MOL0     H 6293   2.208   3.731   3.161  0.5080 -0.5234 -0.0345
   47MOL0     H 6294   2.443   3.756   3.147 -1.0601  0.2844  0.8635
   47MOL0     H 6295   2.421   3.834   2.989 -0.7561 -1.2459 -0.6099
   47MOL0     H 6296   2.508   3.536   3.150  0.8742  0.0424 -2.3393
   47MOL0     H 6297   2.528   3.262   3.002  1.0029 -1.1186  0.5148
   47MOL0     H 6298   2.444   3.273   3.158  0.1110 -1.6188 -0.1746
   47MOL0     H 6299   2.224   3.206   3.035 -1.1644 -1.3914 -0.8775
   47MOL0     H 6300   2.330   3.083   3.074 -1.0111 -0.1190  0.7081
   47MOL0     H 6301   2.446   3.119   2.851  0.4985  2.2660  0.4735
   47MOL0     H 6302   2.292   3.197   2.814 -0.1014  0.5646  2.5092
   47MOL0     H 6303   2.199   2.946   2.905  1.1837 -2.2332  0.2007
   47MOL0     H 6304   2.361   2.910   2.867  1.7972  0.7324 -2.7514
   47MOL0     H 6305   2.398   2.751   2.745  3.9346  0.3441  1.4938
   47MOL0     H 6306   2.637   2.574   2.533  0.0086 -3.6036  2.9243
   47MOL0     H 6307   2.646   2.664   2.689 -0.7265  0.6735  0.0576
   47MOL0     H 6308   2.505   2.554   2.644 -1.2842  2.2459  1.6420
   47MOL0     H 6309   2.906   2.542   2.312 -2.4729  0.7027  1.0145
   47MOL0     H 6310   3.112   2.540   2.211  0.0220 -0.1341  3.6733
   47MOL0     H 6311   3.215   2.565   2.015  3.7832 -2.5819 -2.9430
   47MOL0     H 6312   3.160   2.697   1.911  0.3686  4.0163  1.0107
   47MOL0     H 6313   3.388   2.612   1.828  0.9076  1.0237 -0.0585
   47MOL0     H 6314   3.406   2.779   1.881 -0.7553 -0.9025 -0.2852
   47MOL0     H 6315   3.427   2.626   2.126  0.5642 -1.9416 -0.8404
   47MOL0     H 6316   3.537   2.743   2.053  1.5468 -0.3068 -1.8486
   47MOL0     H 6317   3.589   2.529   1.895 -3.0467  1.1497 -1.6736
   47MOL0     H 6318   3.675   2.554   2.045  1.6943 -0.2681 -3.8083
   47MOL0     H 6319   3.579   2.324   1.996  2.1352  1.9062 -1.5006
   47MOL0     H 6320   3.424   2.408   2.065  0.1771 -0.0640 -0.1172
   47MOL0     H 6321   3.688   2.343   2.187  0.1674  1.2607 -1.2190
   47MOL0     H 6322   3.571   2.460   2.262 -2.1660  0.6773 -1.5681
   47MOL0     H 6323   3.549   2.277   2.384 -2.6617 -1.1727  0.6585
   47MOL0     H 6324   3.591   2.163   2.255 -0.6446 -1.1227  1.3000
   47MOL0     H 6325   3.346   2.149   2.310  2.5659 -1.2785 -0.3735
   47MOL0     H 6326   3.370   2.203   2.144  0.1202 -1.3400 -0.1462
   47MOL0     H 6327   3.072   2.981   2.183  0.8689  0.4832  2.0045
   47MOL0     H 6328   2.892   2.970   2.325  1.0104  1.7879 -0.6535
   47MOL0     H 6329   2.447   2.957   2.314  0.5732 -2.6436 -1.2910
   47MOL0     H 6330   2.270   3.025   2.461 -0.1083 -0.2178  0.2380
   47MOL0     H 6331   1.503   4.268   2.932 -1.2848  1.1879  1.1735
   47MOL0     H 6332   1.264   4.313   2.929 -2.7038 -3.5576 -1.3313
   47MOL0     H 6333   0.943   4.190   2.776 -1.1236  0.6698 -0.8661
   47MOL0     H 6334   0.733   4.125   2.841 -1.8959  2.0529 -1.8075
   47MOL0     H 6335   0.531   4.037   2.929  0.2001  2.2991 -1.0002
   47MOL0     H 6336   0.668   4.037   3.052  0.3885  1.6699  3.0091
   47MOL0     H 6337   0.478   4.099   3.221 -0.7097  0.1620 -0.2913
   47MOL0     H 6338   0.451   3.947   3.141 -3.0571  0.7119 -0.0706
   47MOL0     H 6339   0.267   4.016   3.039  2.0244 -1.6622 -0.0189
   47MOL0     H 6340   0.342   4.162   2.974 -0.7530 -0.9757 -0.4512
   47MOL0     H 6341   0.231   4.145   3.261 -1.2736  0.3397 -0.0467
   47MOL0     H 6342   0.150   4.208   3.115  1.4330  2.1870 -1.3773
   47MOL0     H 6343   0.444   4.496   3.206  2.4106 -2.8952  0.1452
   47MOL0     H 6344   0.699   4.446   3.118 -0.1842 -0.6751  0.2454
   47MOL0     H 6345   0.929   4.544   3.018 -1.4793  1.6418 -3.5647
   48MOL0     O 6346   1.951   3.385   8.510 -0.5524 -0.5702 -0.5211
   48MOL0     C 6347   1.962   3.504   8.553 -0.0716 -0.4684 -0.6788
   48MOL0     O 6348   1.891   3.605   8.500 -0.0820  0.6262 -0.5117
   48MOL0     C 6349   1.771   3.576   8.436  0.7100  0.2204 -0.2274
   48MOL0     C 6350   1.661   3.647   8.482  1.0586  0.6779  0.1912
   48MOL0     C 6351   1.534   3.621   8.413  0.2901  0.3747  0.2923
   48MOL0     C 6352   1.528   3.527   8.307 -0.2921  1.2602  0.8252
   48MOL0     O 6353   1.411   3.503   8.245 -0.2015 -0.3127  0.6792
   48MOL0     C 6354   1.283   3.490   8.317  0.1664  0.3979 -0.1966
   48MOL0     C 6355   1.178   3.461   8.208  0.9254 -1.2662 -0.1078
   48MOL0     C 6356   1.182   3.540   8.076  0.2054 -0.6982 -0.6059
   48MOL0     C 6357   1.127   3.684   8.085 -0.9395  0.3553  0.5557
   48MOL0     C 6358   1.187   3.778   7.984 -0.6410 -0.0600  1.1798
   48MOL0     C 6359   1.161   3.736   7.834  0.3858 -0.0796  0.5775
   48MOL0     C 6360   1.254   3.634   7.764 -0.1863  0.3397  0.8549
   48MOL0     C 6361   1.399   3.697   7.744 -0.1243 -0.3276 -0.4844
   48MOL0     N 6362   1.510   3.610   7.698  0.3348 -0.4186  0.9895
   48MOL0     C 6363   1.546   3.492   7.760  0.0425 -0.0090  0.2998
   48MOL0     C 6364   1.647   3.452   7.675 -0.4740 -0.7341 -0.4687
   48MOL0     C 6365   1.737   3.338   7.703 -0.3287  1.1438  0.3295
   48MOL0     C 6366   1.867   3.363   7.774  0.2714 -0.2624  1.3324
   48MOL0     C 6367   1.858   3.396   7.918 -0.7825 -0.8150 -0.6859
   48MOL0     C 6368   1.977   3.478   7.979  0.2786  1.3827  0.0928
   48MOL0     O 6369   1.983   3.608   7.921 -0.7020  0.0835 -0.3050
   48MOL0     C 6370   1.901   3.713   7.942  0.3997  0.7110  0.3195
   48MOL0     C 6371   1.863   3.756   8.069  0.7747 -0.0387 -0.0724
   48MOL0     C 6372   1.764   3.859   8.085 -0.2701  0.9629  0.0362
   48MOL0     C 6373   1.760   3.905   8.227  0.4870 -0.9226 -0.7127
   48MOL0     C 6374   1.690   3.901   7.966  0.3246  0.3924  0.4421
   48MOL0     C 6375   1.575   4.003   7.965  0.2571  0.2766 -0.1048
   48MOL0     O 6376   1.526   4.045   7.835 -0.7104  0.4673  0.4426
   48MOL0     C 6377   1.445   4.158   7.832 -0.3793  0.4388 -0.6448
   48MOL0     C 6378   1.317   4.153   7.772  0.0733 -0.6568  0.0353
   48MOL0     C 6379   1.258   4.276   7.753  1.2186  0.6004 -0.3974
   48MOL0     C 6380   1.317   4.398   7.794  0.5262  0.8288 -1.2985
   48MOL0     O 6381   1.253   4.517   7.795 -0.4425  0.0631 -0.7899
   48MOL0     C 6382   1.107   4.509   7.788 -0.2547  0.1270 -0.7953
   48MOL0     C 6383   1.047   4.643   7.832 -0.6762 -0.2107 -0.0072
   48MOL0     C 6384   0.902   4.646   7.848  0.0265  0.1429  0.0063
   48MOL0     C 6385   0.857   4.771   7.918  0.5499 -0.5178  0.9936
   48MOL0     C 6386   0.706   4.764   7.949  0.9533  0.0212 -0.0777
   48MOL0     C 6387   0.651   4.639   8.016 -0.2483 -1.4499  0.5143
   48MOL0     C 6388   0.526   4.681   8.086 -0.2468  0.1279 -0.1113
   48MOL0     C 6389   0.495   4.581   8.192 -0.4073  0.3312  1.0188
   48MOL0    Cl 6390   0.325   4.620   8.257 -0.2596 -0.0754  0.0709
   48MOL0     C 6391   1.448   4.401   7.829 -0.5057  0.5882 -0.1576
   48MOL0     C 6392   1.509   4.279   7.858  0.1008  0.9382  0.0557
   48MOL0     O 6393   1.558   4.058   8.069  0.1328 -0.8738 -0.9302
   48MOL0     C 6394   1.732   3.854   7.836 -0.1319  0.8289 -0.0804
   48MOL0     C 6395   1.834   3.763   7.828 -0.1387  0.1113  0.1829
   48MOL0     N 6396   1.655   3.531   7.560 -0.0978 -0.5238  0.5398
   48MOL0     N 6397   1.575   3.629   7.580  0.1781  0.9862  0.5902
   48MOL0     C 6398   1.650   3.460   8.272 -0.5795  0.7028  0.8292
   48MOL0     C 6399   1.769   3.490   8.325 -0.3115 -0.7324  0.4354
   48MOL0     C 6400   2.066   3.531   8.650 -0.5743 -0.5899 -0.7992
   48MOL0     C 6401   2.179   3.449   8.673 -0.7934  1.6384  1.3739
   48MOL0     C 6402   2.263   3.473   8.778 -0.9346  0.1883  0.6327
   48MOL0     C 6403   2.260   3.593   8.849 -0.2127  0.0799 -0.2051
   48MOL0     O 6404   2.366   3.609   8.939 -0.6665  0.5484  0.4579
   48MOL0     C 6405   2.366   3.725   9.029  0.4901  0.1595 -0.1105
   48MOL0     C 6406   2.277   3.713   9.157  0.5373 -0.3400  0.3713
   48MOL0     C 6407   2.289   3.841   9.240  0.4887  0.4730  0.2221
   48MOL0     C 6408   2.415   3.852   9.323  0.0515 -0.9036  0.1262
   48MOL0     C 6409   2.389   3.939   9.440  0.5136  0.1036 -0.6737
   48MOL0     C 6410   2.376   4.020   9.535 -0.2627  0.0092 -0.1202
   48MOL0     C 6411   2.168   3.687   8.819  0.4872 -0.6684  0.4978
   48MOL0     C 6412   2.071   3.657   8.725  0.1390  0.1117 -0.7626
   48MOL0     H 6413   1.653   3.718   8.564 -1.7510  0.3391  0.3385
   48MOL0     H 6414   1.446   3.681   8.431 -1.9474 -1.5019 -3.3230
   48MOL0     H 6415   1.294   3.401   8.378  2.0931  0.4486 -0.3990
   48MOL0     H 6416   1.256   3.574   8.382 -4.8230 -1.2647  0.2948
   48MOL0     H 6417   1.192   3.356   8.183 -2.5515 -1.6824 -0.8778
   48MOL0     H 6418   1.080   3.467   8.257 -0.5024 -1.8278 -2.7202
   48MOL0     H 6419   1.287   3.542   8.047 -0.1490 -0.3866 -1.9272
   48MOL0     H 6420   1.130   3.484   7.998 -0.0728 -2.7762  0.9895
   48MOL0     H 6421   1.018   3.696   8.084 -1.0068 -0.2217 -0.1974
   48MOL0     H 6422   1.158   3.729   8.180 -2.7829  2.1915  0.3651
   48MOL0     H 6423   1.134   3.870   8.010  3.3995  3.6339 -2.2087
   48MOL0     H 6424   1.293   3.800   7.995 -1.1424  2.3671  1.6626
   48MOL0     H 6425   1.060   3.696   7.839 -0.8378  2.4726 -1.6843
   48MOL0     H 6426   1.158   3.827   7.774 -1.1771  0.3387  1.2525
   48MOL0     H 6427   1.269   3.545   7.825 -1.0982 -1.1911 -1.0734
   48MOL0     H 6428   1.200   3.603   7.674 -0.2636 -2.1901  1.6943
   48MOL0     H 6429   1.421   3.731   7.845 -2.0447  2.4739 -0.9247
   48MOL0     H 6430   1.384   3.784   7.680 -3.3551  0.3645  1.0161
   48MOL0     H 6431   1.502   3.445   7.847  1.2089 -0.4411  0.6764
   48MOL0     H 6432   1.678   3.272   7.767  1.3025  3.3275  4.4157
   48MOL0     H 6433   1.759   3.284   7.610 -2.3557 -1.6563  1.3464
   48MOL0     H 6434   1.919   3.438   7.714 -0.7127 -2.4299 -2.5791
   48MOL0     H 6435   1.944   3.286   7.759  1.5481  1.3685 -1.3304
   48MOL0     H 6436   1.855   3.305   7.978  0.6802  0.3860  1.3297
   48MOL0     H 6437   1.771   3.452   7.953  0.1594  0.7537 -0.7695
   48MOL0     H 6438   2.056   3.408   7.950 -2.5433 -1.8634 -0.4450
   48MOL0     H 6439   1.964   3.491   8.087  1.9149  2.2543  0.2182
   48MOL0     H 6440   1.918   3.697   8.142  1.8114 -0.8551 -1.4776
   48MOL0     H 6441   1.662   3.935   8.263  1.9728  2.1150  1.1733
   48MOL0     H 6442   1.792   3.816   8.282 -0.6970 -1.4602 -0.8621
   48MOL0     H 6443   1.824   3.988   8.258 -1.0454 -0.9208  2.9181
   48MOL0     H 6444   1.282   4.055   7.739 -0.9309 -1.3136  2.7681
   48MOL0     H 6445   1.154   4.259   7.728  1.3579 -1.9508  0.3847
   48MOL0     H 6446   1.075   4.475   7.689 -0.8941 -0.6966 -0.3238
   48MOL0     H 6447   1.070   4.437   7.862 -0.7758  0.6632 -0.5305
   48MOL0     H 6448   1.091   4.665   7.930 -0.3166 -2.5256  0.4172
   48MOL0     H 6449   1.088   4.721   7.768  1.9176 -1.2633  0.2366
   48MOL0     H 6450   0.882   4.555   7.907  1.8170  0.0466  0.5259
   48MOL0     H 6451   0.851   4.632   7.752 -0.3123  2.1815 -0.1570
   48MOL0     H 6452   0.908   4.793   8.013 -0.4029  1.2119  1.1608
   48MOL0     H 6453   0.868   4.851   7.844 -2.9147 -1.4479 -0.7212
   48MOL0     H 6454   0.657   4.784   7.852 -0.4067 -0.8405  0.4053
   48MOL0     H 6455   0.677   4.852   8.008 -0.3292 -1.9476  2.4175
   48MOL0     H 6456   0.653   4.555   7.946 -0.4754 -1.9582  1.1046
   48MOL0     H 6457   0.736   4.622   8.084  1.2517  2.1853 -0.2422
   48MOL0     H 6458   0.434   4.701   8.030 -0.2453  3.0550  0.7968
   48MOL0     H 6459   0.546   4.773   8.141  1.7667  1.1430 -2.3520
   48MOL0     H 6460   0.569   4.566   8.271  2.1202  1.8405 -0.8997
   48MOL0     H 6461   0.489   4.480   8.151 -0.0972 -0.7004  3.3378
   48MOL0     H 6462   1.508   4.486   7.860  3.2597 -2.9034  3.3220
   48MOL0     H 6463   1.609   4.266   7.897 -0.0131  1.2972  0.4699
   48MOL0     H 6464   1.674   3.886   7.751 -0.1798 -0.2438 -0.4657
   48MOL0     H 6465   1.871   3.734   7.730  2.6421  3.0787  0.1692
   48MOL0     H 6466   1.642   3.393   8.187 -3.1593 -0.0622  1.5927
   48MOL0     H 6467   1.860   3.443   8.290  1.2328  0.5564  2.4916
   48MOL0     H 6468   2.199   3.365   8.607 -0.2434  2.5037  0.4035
   48MOL0     H 6469   2.345   3.407   8.805  0.0827  1.0983 -0.1237
   48MOL0     H 6470   2.465   3.735   9.074 -0.1536 -2.2133  2.0744
   48MOL0     H 6471   2.338   3.814   8.972 -0.2307  1.3421  2.0067
   48MOL0     H 6472   2.321   3.634   9.219  1.7769 -0.1267 -0.2013
   48MOL0     H 6473   2.169   3.695   9.145  0.4294  0.2897  0.3944
   48MOL0     H 6474   2.205   3.858   9.307 -0.0484 -0.0932 -0.2881
   48MOL0     H 6475   2.278   3.920   9.164  0.7278 -1.5445 -2.0548
   48MOL0     H 6476   2.502   3.883   9.264  0.2801 -1.7363  0.0213
   48MOL0     H 6477   2.432   3.752   9.364 -0.0767 -0.3240  1.6441
   48MOL0     H 6478   2.371   4.088   9.617  0.1459 -1.6886  1.3784
   48MOL0     H 6479   2.152   3.774   8.882  0.7138 -0.7311  0.6429
   48MOL0     H 6480   2.001   3.739   8.713  0.5615  0.3884 -1.3190
   49MOL0     O 6481   9.935   1.929   5.722  0.3359 -0.2543  0.1695
   49MOL0     C 6482   9.890   2.012   5.800 -0.1761  0.3652 -0.5012
   49MOL0     O 6483   9.936   2.132   5.819  0.0650 -0.3368 -0.2125
   49MOL0     C 6484  10.005   2.217   5.731 -0.9654  0.4379  0.3351
   49MOL0     C 6485  10.098   2.309   5.779  0.7379  0.2736  0.3725
   49MOL0     C 6486  10.171   2.389   5.690  0.1223  0.5428  0.1596
   49MOL0     C 6487  10.160   2.382   5.548  0.7557  0.1685 -0.4587
   49MOL0     O 6488  10.238   2.448   5.445  0.3335 -0.4264 -0.0792
   49MOL0     C 6489  10.257   2.594   5.460  0.3322  0.2249 -0.2019
   49MOL0     C 6490  10.132   2.687   5.411  0.0231 -0.2003 -0.4791
   49MOL0     C 6491  10.122   2.690   5.254 -0.4957  0.1497 -0.2783
   49MOL0     C 6492  10.055   2.820   5.217 -0.1226  0.4195  0.2786
   49MOL0     C 6493   9.900   2.807   5.200  0.0900 -0.3893 -0.2293
   49MOL0     C 6494   9.848   2.821   5.056  0.4106 -0.6914  0.1557
   49MOL0     C 6495   9.694   2.849   5.070 -0.3384  1.4079 -0.2287
   49MOL0     C 6496   9.627   2.858   4.932 -0.9340 -0.0427 -0.4068
   49MOL0     N 6497   9.650   2.742   4.836 -0.1076  0.1739 -0.2502
   49MOL0     C 6498   9.579   2.622   4.828 -0.5444 -0.4086  0.1128
   49MOL0     C 6499   9.638   2.559   4.718 -0.4488 -0.9654 -1.4102
   49MOL0     C 6500   9.596   2.427   4.679 -1.1995 -0.1314  0.1410
   49MOL0     C 6501   9.490   2.429   4.565 -0.3170 -0.2577 -0.0104
   49MOL0     C 6502   9.538   2.468   4.431  0.1863 -0.0400  0.2255
   49MOL0     C 6503   9.647   2.376   4.378 -0.0135 -0.1150  0.0550
   49MOL0     O 6504   9.609   2.243   4.380  0.5042  0.4249  0.4887
   49MOL0     C 6505   9.687   2.149   4.317 -0.4523 -0.0186 -0.3285
   49MOL0     C 6506   9.812   2.175   4.258  0.4003 -0.1930 -1.1027
   49MOL0     C 6507   9.877   2.064   4.199  0.2281  0.1253  0.4180
   49MOL0     C 6508  10.002   2.095   4.117  0.4615 -0.3030 -0.5095
   49MOL0     C 6509   9.831   1.928   4.213 -0.0193  0.8189  1.5559
   49MOL0     C 6510   9.897   1.811   4.148 -0.2601  0.4667 -0.0954
   49MOL0     O 6511   9.812   1.726   4.087  0.7092  0.0276 -0.1524
   49MOL0     C 6512   9.863   1.603   4.047 -0.4558  0.7854  0.0364
   49MOL0     C 6513   9.800   1.480   4.089 -0.1510 -0.0669 -0.0721
   49MOL0     C 6514   9.838   1.361   4.029  1.2765 -1.1270  0.7801
   49MOL0     C 6515   9.941   1.358   3.939  0.2943  1.6026  0.4848
   49MOL0     O 6516   9.965   1.235   3.877  0.4107  0.0122  0.5116
   49MOL0     C 6517  10.068   1.223   3.769 -0.0031 -0.3525  0.3210
   49MOL0     C 6518  10.039   1.099   3.698 -0.5627  0.3161 -0.9846
   49MOL0     C 6519   9.916   1.128   3.622  0.8042  0.1837  0.8641
   49MOL0     C 6520   9.810   1.022   3.635  0.3581  0.4302 -0.2234
   49MOL0     C 6521   9.677   1.040   3.558  0.6040 -0.0085 -0.0406
   49MOL0     C 6522   9.611   1.177   3.611  0.9528 -0.0027 -0.5504
   49MOL0     C 6523   9.469   1.191   3.550  0.2936  0.1830 -0.0708
   49MOL0     C 6524   9.465   1.303   3.454  0.3107 -0.0867  0.8216
   49MOL0    Cl 6525   9.316   1.276   3.355  0.5959  0.1834  0.2372
   49MOL0     C 6526  10.011   1.477   3.899 -0.0284  0.5292 -0.1019
   49MOL0     C 6527   9.962   1.593   3.946 -0.1384  0.5160 -0.2654
   49MOL0     O 6528  10.020   1.814   4.140  0.1307 -0.6667  0.3765
   49MOL0     C 6529   9.703   1.907   4.273 -0.4499 -0.1253  0.0414
   49MOL0     C 6530   9.629   2.020   4.318 -0.5300 -0.5101 -0.8408
   49MOL0     N 6531   9.738   2.638   4.672 -1.4289 -0.1103  0.6937
   49MOL0     N 6532   9.750   2.746   4.741 -0.4859 -0.0211 -0.8570
   49MOL0     C 6533  10.065   2.294   5.508 -0.1494 -0.1285 -0.2955
   49MOL0     C 6534   9.987   2.206   5.589  1.1480 -1.1635  0.3266
   49MOL0     C 6535   9.779   1.959   5.887  0.3537  0.0292  0.0387
   49MOL0     C 6536   9.710   1.832   5.863 -0.0743 -0.2973  0.1056
   49MOL0     C 6537   9.609   1.803   5.956  0.2213 -0.2615  0.0929
   49MOL0     C 6538   9.562   1.884   6.061 -0.2892  0.4595  0.6436
   49MOL0     O 6539   9.460   1.831   6.148 -0.3660 -1.2393 -0.8270
   49MOL0     C 6540   9.512   1.774   6.273  0.0660  0.0939 -0.1899
   49MOL0     C 6541   9.523   1.627   6.269  0.6789 -0.0014  0.2718
   49MOL0     C 6542   9.530   1.570   6.406 -0.5696 -0.5792 -0.4890
   49MOL0     C 6543   9.528   1.416   6.404  0.1057 -0.7373  0.1698
   49MOL0     C 6544   9.395   1.379   6.353  0.0972  1.1039  0.4235
   49MOL0     C 6545   9.281   1.351   6.310 -0.1508 -0.2404 -0.7457
   49MOL0     C 6546   9.610   2.016   6.065  0.0794 -0.0795 -0.2808
   49MOL0     C 6547   9.714   2.048   5.981 -0.0365 -0.3340 -0.0918
   49MOL0     H 6548  10.103   2.310   5.888  3.0038  0.3353  0.3166
   49MOL0     H 6549  10.259   2.440   5.729  3.5072 -1.1257 -4.4001
   49MOL0     H 6550  10.276   2.602   5.568  1.3981 -0.9426 -0.2841
   49MOL0     H 6551  10.345   2.621   5.402 -1.2655  2.2754 -1.8582
   49MOL0     H 6552  10.031   2.656   5.441 -0.3167  0.0799 -1.3170
   49MOL0     H 6553  10.137   2.786   5.458  3.1148 -0.6066  0.2787
   49MOL0     H 6554  10.222   2.680   5.213  0.4422  1.8968  1.4396
   49MOL0     H 6555  10.067   2.604   5.215  1.4032 -0.4461 -1.7511
   49MOL0     H 6556  10.091   2.894   5.290  2.1732 -0.2497 -0.0826
   49MOL0     H 6557  10.083   2.852   5.117 -3.1624 -1.2783 -1.2383
   49MOL0     H 6558   9.863   2.713   5.244 -2.6991  2.1528  3.5347
   49MOL0     H 6559   9.847   2.876   5.267  2.7351  1.1868  0.3490
   49MOL0     H 6560   9.905   2.898   5.004  2.1602 -2.6062 -0.9252
   49MOL0     H 6561   9.879   2.730   5.004  1.6198 -0.7402  0.9356
   49MOL0     H 6562   9.649   2.764   5.122 -0.2295 -0.1275 -2.5074
   49MOL0     H 6563   9.683   2.941   5.128 -0.1649  0.7924  0.7959
   49MOL0     H 6564   9.668   2.947   4.884  0.3754 -0.5598 -0.2707
   49MOL0     H 6565   9.521   2.880   4.946 -1.2092  0.7659 -3.0996
   49MOL0     H 6566   9.500   2.594   4.896  1.3777  0.4448  2.8864
   49MOL0     H 6567   9.685   2.369   4.651 -0.2961  1.5014 -0.4834
   49MOL0     H 6568   9.543   2.382   4.763 -1.4551  1.6264  0.9594
   49MOL0     H 6569   9.419   2.505   4.598  2.2375  1.4904  1.8331
   49MOL0     H 6570   9.437   2.333   4.562  0.1167 -0.5581  1.3164
   49MOL0     H 6571   9.593   2.562   4.437  2.9964 -1.5869  0.4029
   49MOL0     H 6572   9.453   2.474   4.362  1.3599  3.2682 -1.1215
   49MOL0     H 6573   9.745   2.378   4.426  0.2630 -0.5670 -0.4714
   49MOL0     H 6574   9.669   2.403   4.274  1.1190  1.5790  0.7078
   49MOL0     H 6575   9.857   2.271   4.235  0.3554 -0.2961 -1.6226
   49MOL0     H 6576  10.017   2.200   4.090  0.9816 -1.2049 -4.3858
   49MOL0     H 6577  10.082   2.056   4.180 -0.2093  0.2078  0.6891
   49MOL0     H 6578  10.004   2.044   4.020 -0.6326  3.2018 -2.5635
   49MOL0     H 6579   9.713   1.480   4.154  0.5470 -0.8181  0.8900
   49MOL0     H 6580   9.786   1.266   4.038  0.2529 -0.6712 -0.0972
   49MOL0     H 6581  10.066   1.306   3.698 -1.6202  0.7117  1.5292
   49MOL0     H 6582  10.158   1.211   3.831 -0.8671  2.8650  2.4361
   49MOL0     H 6583  10.127   1.083   3.635  0.0928  3.8951 -1.1701
   49MOL0     H 6584  10.026   1.018   3.771  2.1036  0.2099 -0.5088
   49MOL0     H 6585   9.942   1.157   3.520  0.6036 -0.1341  0.7218
   49MOL0     H 6586   9.860   1.216   3.655  0.3515 -0.0365  0.6915
   49MOL0     H 6587   9.853   0.928   3.597  0.7739  0.0188  1.2108
   49MOL0     H 6588   9.784   1.007   3.740  1.8199  1.2170  0.2777
   49MOL0     H 6589   9.623   0.945   3.567  1.3576 -0.4555 -0.1117
   49MOL0     H 6590   9.703   1.035   3.451  0.1633 -0.0003 -0.1496
   49MOL0     H 6591   9.616   1.189   3.719  1.0038 -1.1567 -0.4084
   49MOL0     H 6592   9.662   1.266   3.574  0.0555 -0.3064 -2.6631
   49MOL0     H 6593   9.389   1.193   3.625  0.0668  2.1810 -0.3082
   49MOL0     H 6594   9.454   1.103   3.487  2.7574 -0.5019  0.1897
   49MOL0     H 6595   9.553   1.288   3.391 -1.9721 -1.6937 -2.2883
   49MOL0     H 6596   9.459   1.400   3.503  0.3930 -0.1874  1.0299
   49MOL0     H 6597  10.090   1.463   3.826  0.7044 -1.9556  1.0381
   49MOL0     H 6598  10.004   1.690   3.920  1.3453  0.6873  2.4072
   49MOL0     H 6599   9.678   1.803   4.293  0.9007 -0.4018  0.4472
   49MOL0     H 6600   9.529   2.032   4.359 -0.1804  2.0397 -0.5426
   49MOL0     H 6601  10.047   2.288   5.401 -2.1489  0.3498 -0.0243
   49MOL0     H 6602   9.919   2.129   5.553  2.3620 -2.5124  0.8420
   49MOL0     H 6603   9.751   1.772   5.783  0.6871 -0.0315  0.2860
   49MOL0     H 6604   9.557   1.709   5.946 -0.5731  0.4454 -4.1860
   49MOL0     H 6605   9.607   1.819   6.301 -1.1541  1.2306  2.5634
   49MOL0     H 6606   9.433   1.803   6.343  0.8076  1.9837 -0.0894
   49MOL0     H 6607   9.611   1.604   6.208  0.2900 -1.6093  0.2779
   49MOL0     H 6608   9.434   1.597   6.214  0.2760  3.4841 -1.2618
   49MOL0     H 6609   9.459   1.623   6.470  2.8119  0.7678  2.4597
   49MOL0     H 6610   9.624   1.597   6.454 -1.2491 -2.2127  1.9577
   49MOL0     H 6611   9.550   1.388   6.507  5.2872  3.2502  0.5514
   49MOL0     H 6612   9.598   1.362   6.340  1.7339  2.3852 -0.9316
   49MOL0     H 6613   9.182   1.330   6.275 -0.1745  1.7769 -2.0756
   49MOL0     H 6614   9.575   2.093   6.133  2.4033  1.1176 -0.3570
   49MOL0     H 6615   9.766   2.143   5.992 -1.0184  0.1399  0.5758
   50MOL0     O 6616   6.959   4.699   7.523  0.6848 -0.4221  0.3171
   50MOL0     C 6617   6.915   4.615   7.597 -0.0074 -0.1981  0.2301
   50MOL0     O 6618   6.882   4.481   7.568  0.7396  0.8311 -0.6919
   50MOL0     C 6619   6.910   4.426   7.443  0.8812  0.3144  0.0586
   50MOL0     C 6620   7.018   4.446   7.360 -0.0347 -0.0064 -0.1991
   50MOL0     C 6621   7.027   4.367   7.237  0.6492  0.6264  0.7430
   50MOL0     C 6622   6.927   4.273   7.201  0.0475  0.2450  0.4140
   50MOL0     O 6623   6.952   4.207   7.090 -1.1485 -0.0248  1.0237
   50MOL0     C 6624   6.840   4.152   7.013 -0.3512 -0.0072 -0.5147
   50MOL0     C 6625   6.895   4.081   6.883  0.0194 -0.1807 -0.3307
   50MOL0     C 6626   7.002   3.970   6.915 -0.7658 -0.7483  0.7125
   50MOL0     C 6627   7.049   3.899   6.785 -1.0215 -0.6408  0.2582
   50MOL0     C 6628   7.178   3.813   6.799 -0.0637 -0.1901 -0.7329
   50MOL0     C 6629   7.157   3.698   6.903  0.6791 -0.4177  0.3251
   50MOL0     C 6630   7.287   3.619   6.915  0.6702  0.6592 -0.0763
   50MOL0     C 6631   7.398   3.697   6.984  1.0020  0.8959  0.4641
   50MOL0     N 6632   7.354   3.752   7.105  0.1998  1.0841 -0.2573
   50MOL0     C 6633   7.310   3.685   7.221  0.0100  0.2021  0.7627
   50MOL0     C 6634   7.272   3.777   7.311  0.6087 -0.1527 -0.5611
   50MOL0     C 6635   7.211   3.767   7.443 -0.3692  0.7023 -0.5892
   50MOL0     C 6636   7.199   3.628   7.497 -0.7729  0.0769 -0.0135
   50MOL0     C 6637   7.198   3.630   7.649 -0.2549 -0.2632  0.7370
   50MOL0     C 6638   7.145   3.509   7.716  0.0070  0.3689 -1.3916
   50MOL0     O 6639   7.005   3.518   7.736  0.0326 -0.2256  0.5951
   50MOL0     C 6640   6.940   3.401   7.763 -1.0786 -0.2048 -0.0346
   50MOL0     C 6641   7.009   3.285   7.810  0.6909 -0.2962  0.7789
   50MOL0     C 6642   6.932   3.165   7.848 -0.3131 -0.7900 -0.0097
   50MOL0     C 6643   7.018   3.061   7.901 -0.0965 -0.3062 -0.0466
   50MOL0     C 6644   6.794   3.152   7.822  0.3186 -0.3835  0.5131
   50MOL0     C 6645   6.723   3.032   7.843  0.1612 -0.0164  0.0776
   50MOL0     O 6646   6.779   2.920   7.786  0.1781 -0.8437 -0.0897
   50MOL0     C 6647   6.720   2.797   7.812 -0.3994  1.0889 -0.8234
   50MOL0     C 6648   6.780   2.710   7.904 -0.0409 -1.1607  0.1005
   50MOL0     C 6649   6.716   2.587   7.919  0.5198 -0.2972  0.2832
   50MOL0     C 6650   6.604   2.549   7.847 -0.2757 -0.3787 -0.1580
   50MOL0     O 6651   6.563   2.423   7.851  0.2143  0.5256 -0.0063
   50MOL0     C 6652   6.632   2.350   7.758  0.0382  0.2672  0.3752
   50MOL0     C 6653   6.546   2.231   7.726 -0.7767 -0.0714 -0.5035
   50MOL0     C 6654   6.615   2.145   7.623 -0.0422  0.6536 -0.0992
   50MOL0     C 6655   6.531   2.016   7.594 -0.2162 -0.4958  0.5385
   50MOL0     C 6656   6.605   1.890   7.540  0.4221  0.6291 -0.6548
   50MOL0     C 6657   6.505   1.796   7.465 -0.6952 -0.1757 -0.0326
   50MOL0     C 6658   6.389   1.750   7.546 -0.5035  0.1425 -0.0970
   50MOL0     C 6659   6.426   1.619   7.608 -0.1448  0.4833 -0.1365
   50MOL0    Cl 6660   6.288   1.560   7.705  0.3142 -0.1020 -0.6742
   50MOL0     C 6661   6.553   2.626   7.746 -0.8040  0.0139  0.4392
   50MOL0     C 6662   6.617   2.753   7.732 -0.4170  0.4419  0.1034
   50MOL0     O 6663   6.610   3.033   7.884 -0.5397 -0.6511  0.0505
   50MOL0     C 6664   6.731   3.266   7.766  0.5104  0.9465 -0.8783
   50MOL0     C 6665   6.802   3.389   7.740 -0.2060 -0.2314  0.2717
   50MOL0     N 6666   7.312   3.896   7.253 -0.4583  0.4065 -0.5140
   50MOL0     N 6667   7.339   3.886   7.122  0.3318  0.4282  0.0706
   50MOL0     C 6668   6.821   4.256   7.293 -0.5277  0.1067 -0.3363
   50MOL0     C 6669   6.816   4.325   7.412 -0.0094 -0.9395  0.0971
   50MOL0     C 6670   6.913   4.648   7.736 -0.0907  0.1666  0.7345
   50MOL0     C 6671   6.996   4.746   7.782 -0.0305 -0.8599  0.4307
   50MOL0     C 6672   6.994   4.775   7.923 -0.2027 -0.1630 -0.0760
   50MOL0     C 6673   6.896   4.719   8.012  0.5530  0.3074 -0.2125
   50MOL0     O 6674   6.884   4.774   8.139 -0.7837  1.2886 -0.1610
   50MOL0     C 6675   6.802   4.717   8.239  0.2642  0.1396 -0.0653
   50MOL0     C 6676   6.824   4.800   8.366  0.5220 -0.0951  1.3184
   50MOL0     C 6677   6.979   4.808   8.413  0.6953  0.1746 -0.2588
   50MOL0     C 6678   7.017   4.756   8.561 -0.6154  0.4130 -0.1210
   50MOL0     C 6679   6.984   4.624   8.589 -0.1947  0.0289  0.5765
   50MOL0     C 6680   6.970   4.510   8.623 -0.4964  0.6401  1.3870
   50MOL0     C 6681   6.818   4.618   7.962  0.2895 -0.2488  0.3107
   50MOL0     C 6682   6.836   4.574   7.827  1.0303  0.2862 -0.3462
   50MOL0     H 6683   7.101   4.508   7.392  0.4687 -0.5675 -0.3961
   50MOL0     H 6684   7.114   4.370   7.171  0.4151  0.1109  0.4069
   50MOL0     H 6685   6.789   4.082   7.080  1.0923 -0.5395  0.0732
   50MOL0     H 6686   6.770   4.234   6.993 -1.4954 -0.7931  0.1430
   50MOL0     H 6687   6.810   4.032   6.833  1.6127 -0.1544 -3.2655
   50MOL0     H 6688   6.933   4.154   6.811  0.5034  1.6757  1.7021
   50MOL0     H 6689   7.094   4.005   6.964 -0.9054  1.5731 -0.5138
   50MOL0     H 6690   6.956   3.897   6.982 -0.9266  1.0422  2.6816
   50MOL0     H 6691   6.967   3.840   6.743 -1.3280  1.1476 -1.8703
   50MOL0     H 6692   7.072   3.975   6.710  0.0858 -0.5127  0.7150
   50MOL0     H 6693   7.210   3.761   6.708  0.9348 -2.8240  1.0070
   50MOL0     H 6694   7.263   3.872   6.834  0.8407 -1.8648  0.0196
   50MOL0     H 6695   7.123   3.735   7.000 -1.7885 -0.5497 -0.4239
   50MOL0     H 6696   7.078   3.631   6.868 -1.4406  1.4325  1.3413
   50MOL0     H 6697   7.267   3.528   6.973 -1.1362 -0.3512 -2.1700
   50MOL0     H 6698   7.328   3.596   6.817 -1.6441  1.6590 -1.3560
   50MOL0     H 6699   7.428   3.778   6.917 -0.8842 -0.0037 -1.6043
   50MOL0     H 6700   7.482   3.632   7.008  2.8362  3.6712  1.9860
   50MOL0     H 6701   7.305   3.578   7.237 -2.8501  0.1977  0.2860
   50MOL0     H 6702   7.278   3.818   7.514  1.8847 -1.3870 -1.0726
   50MOL0     H 6703   7.113   3.816   7.450  0.5088  2.3802  0.9583
   50MOL0     H 6704   7.290   3.579   7.460 -0.5471 -1.3470  2.1954
   50MOL0     H 6705   7.120   3.561   7.463  2.5475 -2.8621 -2.7111
   50MOL0     H 6706   7.142   3.713   7.692 -1.5026 -0.7173  0.0435
   50MOL0     H 6707   7.302   3.643   7.681 -0.6521 -1.0416  2.4814
   50MOL0     H 6708   7.198   3.503   7.812 -2.6425  0.1533  0.1569
   50MOL0     H 6709   7.183   3.427   7.655  2.2304  0.5352 -0.3418
   50MOL0     H 6710   7.115   3.286   7.835  0.6981 -0.1696  0.7435
   50MOL0     H 6711   7.124   3.073   7.923  0.4002 -4.3515  0.5152
   50MOL0     H 6712   6.972   3.004   7.983  0.6564 -0.0362  0.5718
   50MOL0     H 6713   7.019   2.988   7.820 -1.3056 -0.0543 -0.3176
   50MOL0     H 6714   6.868   2.743   7.959 -0.3688  0.2814 -0.1934
   50MOL0     H 6715   6.757   2.519   7.994 -0.3142  1.8246  2.8055
   50MOL0     H 6716   6.640   2.407   7.665  0.6132 -3.7257 -2.2829
   50MOL0     H 6717   6.734   2.321   7.781 -0.3917  0.0260  2.0949
   50MOL0     H 6718   6.529   2.175   7.819 -2.6646  1.5507  0.2155
   50MOL0     H 6719   6.451   2.265   7.683 -0.3587  1.6461 -0.1310
   50MOL0     H 6720   6.706   2.100   7.664 -1.8169 -4.1517 -0.7952
   50MOL0     H 6721   6.644   2.199   7.533 -0.5384 -0.0269 -0.6783
   50MOL0     H 6722   6.466   1.992   7.678 -2.0961  0.4253 -0.5703
   50MOL0     H 6723   6.458   2.052   7.520 -1.8950 -0.0442  2.3497
   50MOL0     H 6724   6.647   1.833   7.623 -0.2721 -3.8603 -3.0985
   50MOL0     H 6725   6.688   1.912   7.472 -0.2290 -0.6049 -1.8965
   50MOL0     H 6726   6.476   1.840   7.369  0.1949 -1.0858 -0.7361
   50MOL0     H 6727   6.557   1.711   7.421 -3.5913 -0.2499 -3.7782
   50MOL0     H 6728   6.308   1.726   7.478 -2.5225  2.3410  1.3518
   50MOL0     H 6729   6.361   1.827   7.619  1.0642  1.4133 -0.7707
   50MOL0     H 6730   6.500   1.639   7.686 -2.8599  4.3360  1.7953
   50MOL0     H 6731   6.459   1.545   7.534  1.8838 -1.1329  2.2121
   50MOL0     H 6732   6.481   2.590   7.674  0.2204  2.6826 -2.1335
   50MOL0     H 6733   6.580   2.812   7.649 -0.5337  1.1191  0.6315
   50MOL0     H 6734   6.624   3.247   7.767  0.6772 -0.0647  0.6347
   50MOL0     H 6735   6.741   3.479   7.734  1.7201  1.0368 -2.0591
   50MOL0     H 6736   6.749   4.175   7.287 -0.4502  0.0728 -0.8333
   50MOL0     H 6737   6.749   4.280   7.484  1.1910 -1.3386  1.0053
   50MOL0     H 6738   7.065   4.798   7.716  0.3461 -0.3300  1.2298
   50MOL0     H 6739   7.065   4.847   7.963  2.1571 -2.4435  0.0898
   50MOL0     H 6740   6.697   4.714   8.207  1.4836 -1.3228 -4.7203
   50MOL0     H 6741   6.816   4.611   8.257 -0.2443  0.1144  0.1986
   50MOL0     H 6742   6.771   4.758   8.451  0.9867 -2.5510  0.4672
   50MOL0     H 6743   6.791   4.901   8.341 -3.2316 -0.2046  4.9171
   50MOL0     H 6744   7.001   4.915   8.409 -2.1578  0.8482 -0.2183
   50MOL0     H 6745   7.031   4.754   8.334 -1.0955  1.2954 -2.3295
   50MOL0     H 6746   6.961   4.824   8.627 -2.8273 -1.3727 -0.0015
   50MOL0     H 6747   7.124   4.773   8.573 -0.5172  4.4498 -4.1976
   50MOL0     H 6748   6.963   4.413   8.668  1.5511  1.3516  3.4531
   50MOL0     H 6749   6.749   4.564   8.027 -0.9153 -3.4960 -3.3382
   50MOL0     H 6750   6.799   4.477   7.795 -0.4716  0.9666 -0.7741
   51MOL0     O 6751   2.760   8.807   6.739 -0.3292  0.3897 -0.2853
   51MOL0     C 6752   2.776   8.733   6.837  0.2753  0.1979 -0.1900
   51MOL0     O 6753   2.725   8.609   6.852 -0.8509  0.3525  0.2985
   51MOL0     C 6754   2.639   8.558   6.756 -0.6370  0.4471 -0.2690
   51MOL0     C 6755   2.512   8.527   6.793  0.5692 -0.4699  1.0741
   51MOL0     C 6756   2.425   8.457   6.708  0.4020 -0.2388  0.2438
   51MOL0     C 6757   2.470   8.436   6.572 -0.7450  0.1891 -0.1784
   51MOL0     O 6758   2.397   8.364   6.477 -0.6080 -0.5961  0.5072
   51MOL0     C 6759   2.253   8.347   6.485 -0.1522 -0.8104  0.1129
   51MOL0     C 6760   2.197   8.271   6.365 -0.6994 -0.7063 -0.1744
   51MOL0     C 6761   2.278   8.140   6.324  1.4130 -0.5004 -0.2947
   51MOL0     C 6762   2.278   8.117   6.175  0.4516 -0.1963 -0.7242
   51MOL0     C 6763   2.390   8.021   6.121  0.0035  0.9341 -0.7024
   51MOL0     C 6764   2.528   8.083   6.084 -0.8882 -0.7004  0.1072
   51MOL0     C 6765   2.631   7.996   6.017  0.1932  0.5785  0.1166
   51MOL0     C 6766   2.751   8.066   5.973 -0.9318  0.7949  0.1321
   51MOL0     N 6767   2.795   8.035   5.839 -0.8681  0.1997 -0.1760
   51MOL0     C 6768   2.811   7.897   5.792  0.3249 -0.6812 -0.1376
   51MOL0     C 6769   2.879   7.912   5.681  0.7044  0.1203  0.0940
   51MOL0     C 6770   2.898   7.808   5.583  0.2614 -0.4569 -0.1979
   51MOL0     C 6771   3.006   7.708   5.640  0.2239  1.3109  0.0587
   51MOL0     C 6772   3.137   7.785   5.675  0.1179 -0.6311 -0.0491
   51MOL0     C 6773   3.198   7.872   5.559 -0.5894 -0.0248  0.1101
   51MOL0     O 6774   3.205   7.786   5.443 -0.4210  0.1962  0.0505
   51MOL0     C 6775   3.214   7.845   5.315 -0.3956 -0.5119  0.2337
   51MOL0     C 6776   3.241   7.765   5.203 -0.0588 -0.8105 -0.1352
   51MOL0     C 6777   3.255   7.815   5.076  0.4381 -0.5052 -0.1738
   51MOL0     C 6778   3.272   7.709   4.962  0.0617 -0.5299 -1.4022
   51MOL0     C 6779   3.239   7.954   5.052  0.0146  0.3103  0.5259
   51MOL0     C 6780   3.249   8.024   4.920 -0.3007  0.2963  0.0963
   51MOL0     O 6781   3.239   8.158   4.915  0.0901  0.2661  0.4693
   51MOL0     C 6782   3.304   8.207   4.809 -0.3732  0.1263 -0.1999
   51MOL0     C 6783   3.247   8.219   4.681 -0.3616  0.0682 -1.0787
   51MOL0     C 6784   3.308   8.289   4.574 -0.0554 -0.2370  0.2151
   51MOL0     C 6785   3.429   8.349   4.591 -0.0814  0.7219 -0.8960
   51MOL0     O 6786   3.490   8.419   4.486  0.5158 -0.3872  0.2676
   51MOL0     C 6787   3.627   8.413   4.464 -0.4896  0.0472  0.0542
   51MOL0     C 6788   3.707   8.522   4.518 -0.2848 -0.6580 -0.1249
   51MOL0     C 6789   3.690   8.659   4.439 -0.0433  0.5903 -0.1285
   51MOL0     C 6790   3.754   8.665   4.299 -0.1686 -0.5466  0.9079
   51MOL0     C 6791   3.695   8.783   4.217  0.5949 -0.0799  1.0982
   51MOL0     C 6792   3.730   8.914   4.284 -0.5582 -0.0145  0.0713
   51MOL0     C 6793   3.671   9.026   4.205 -0.9261 -0.0785  0.7556
   51MOL0     C 6794   3.710   9.164   4.271 -0.8622 -0.0870 -0.0567
   51MOL0    Cl 6795   3.617   9.300   4.201 -0.4942  0.0995 -0.2676
   51MOL0     C 6796   3.494   8.327   4.717 -0.8761 -1.1638  0.6528
   51MOL0     C 6797   3.430   8.266   4.821  0.1751  0.1075  0.3885
   51MOL0     O 6798   3.271   7.951   4.822  0.3655 -0.1734  0.3152
   51MOL0     C 6799   3.220   8.032   5.159 -0.3582 -0.1347  0.1932
   51MOL0     C 6800   3.205   7.984   5.290 -0.8795  0.7712 -0.0912
   51MOL0     N 6801   2.907   8.052   5.656 -0.2639  0.0513 -0.3495
   51MOL0     N 6802   2.849   8.122   5.747 -0.0829 -0.6668  0.2321
   51MOL0     C 6803   2.602   8.468   6.534  0.4579  0.3373  0.1531
   51MOL0     C 6804   2.689   8.526   6.631  0.2943  0.4237 -0.7559
   51MOL0     C 6805   2.872   8.775   6.945  0.4256 -0.0706  1.1851
   51MOL0     C 6806   2.967   8.880   6.927 -0.0839 -0.3243 -0.0658
   51MOL0     C 6807   3.044   8.916   7.038 -0.5999 -0.1683 -0.3276
   51MOL0     C 6808   3.023   8.855   7.166 -0.0461 -0.5948  0.9166
   51MOL0     O 6809   3.070   8.901   7.286 -0.5004  0.0297 -0.3544
   51MOL0     C 6810   3.102   9.045   7.302 -0.4924  0.1116  0.2262
   51MOL0     C 6811   2.978   9.138   7.295  0.0052 -0.2263  0.0185
   51MOL0     C 6812   3.024   9.281   7.315 -0.2863 -0.5055  0.0131
   51MOL0     C 6813   3.105   9.305   7.444  0.1583 -0.2592 -0.6434
   51MOL0     C 6814   3.057   9.233   7.560 -0.0389 -0.4984 -1.3494
   51MOL0     C 6815   3.034   9.159   7.652 -0.0349  0.5891 -0.5780
   51MOL0     C 6816   2.928   8.750   7.175  0.3443 -0.4102 -0.7424
   51MOL0     C 6817   2.862   8.697   7.061 -0.1994  0.5279 -0.2238
   51MOL0     H 6818   2.465   8.566   6.883  0.7037  1.3285  0.4202
   51MOL0     H 6819   2.325   8.428   6.736 -0.3495  1.3477 -0.6586
   51MOL0     H 6820   2.226   8.297   6.578 -1.2155  0.7596  0.6994
   51MOL0     H 6821   2.201   8.443   6.495  0.2389 -0.7872  2.6124
   51MOL0     H 6822   2.093   8.254   6.392 -0.0899 -2.2833  1.3706
   51MOL0     H 6823   2.192   8.349   6.289  3.3226 -0.3954 -0.3755
   51MOL0     H 6824   2.375   8.150   6.373  1.1359  1.3875 -0.0459
   51MOL0     H 6825   2.229   8.057   6.375 -0.7880  2.6722  3.3432
   51MOL0     H 6826   2.180   8.087   6.136  0.0395  1.0787 -0.7054
   51MOL0     H 6827   2.292   8.210   6.119 -3.4163  0.8776 -0.1661
   51MOL0     H 6828   2.403   7.927   6.175  0.7772  1.3821 -0.0826
   51MOL0     H 6829   2.346   7.999   6.024 -1.5905  2.4333 -0.3642
   51MOL0     H 6830   2.509   8.160   6.009  1.7730 -0.9907 -0.9467
   51MOL0     H 6831   2.577   8.108   6.178 -0.3759 -1.1670 -0.0331
   51MOL0     H 6832   2.655   7.919   6.091 -1.7179  1.6898  2.0002
   51MOL0     H 6833   2.579   7.937   5.941 -2.0407 -0.0243  1.9800
   51MOL0     H 6834   2.835   8.052   6.042 -1.2111  0.4769  0.4146
   51MOL0     H 6835   2.732   8.174   5.974 -0.4197  0.8942  1.2008
   51MOL0     H 6836   2.763   7.815   5.842 -2.4366  1.9877  1.9544
   51MOL0     H 6837   2.797   7.768   5.578  0.3444 -1.3494  2.8493
   51MOL0     H 6838   2.935   7.848   5.489 -1.2538  0.5962 -0.3798
   51MOL0     H 6839   3.031   7.632   5.565  1.1619  1.6643  0.0049
   51MOL0     H 6840   2.967   7.657   5.729 -1.1108 -1.9085 -2.1709
   51MOL0     H 6841   3.207   7.705   5.701 -1.2532 -2.2238 -1.0357
   51MOL0     H 6842   3.129   7.845   5.766 -1.3152 -1.1713  0.2038
   51MOL0     H 6843   3.300   7.906   5.576  0.1311 -1.0599 -1.8743
   51MOL0     H 6844   3.144   7.967   5.548  2.6180  2.0546  1.0842
   51MOL0     H 6845   3.221   7.658   5.211 -2.1467 -0.5152 -0.7407
   51MOL0     H 6846   3.186   7.703   4.895 -2.2523  0.9323  1.2327
   51MOL0     H 6847   3.361   7.732   4.903  0.0588  0.5743 -1.0018
   51MOL0     H 6848   3.297   7.610   5.001  1.4625  0.4902  0.4642
   51MOL0     H 6849   3.151   8.174   4.659  0.3394 -0.7380 -2.6585
   51MOL0     H 6850   3.255   8.290   4.479  0.5827  0.0783 -0.1520
   51MOL0     H 6851   3.663   8.321   4.511  0.5149 -0.4514 -1.5856
   51MOL0     H 6852   3.636   8.401   4.355 -3.1720 -2.5748 -0.0033
   51MOL0     H 6853   3.675   8.527   4.623  0.3995 -2.1418  0.1890
   51MOL0     H 6854   3.815   8.505   4.520  0.2206  2.0869  0.8822
   51MOL0     H 6855   3.729   8.738   4.503 -0.8196 -0.9104  2.3502
   51MOL0     H 6856   3.584   8.681   4.424 -0.4910 -1.6416 -0.6889
   51MOL0     H 6857   3.862   8.682   4.302 -0.3097  0.6134  0.1433
   51MOL0     H 6858   3.747   8.566   4.255  6.7238 -0.9850 -0.3918
   51MOL0     H 6859   3.587   8.780   4.200  0.4811  0.4399  1.6701
   51MOL0     H 6860   3.742   8.789   4.119 -1.0558  1.5009  0.3504
   51MOL0     H 6861   3.680   8.912   4.382 -0.7436 -2.5762 -0.0091
   51MOL0     H 6862   3.838   8.923   4.297 -0.1474 -3.8591  0.4716
   51MOL0     H 6863   3.562   9.024   4.200 -0.8978  0.2758 -0.3917
   51MOL0     H 6864   3.704   9.029   4.101 -2.2222 -0.0706  0.3228
   51MOL0     H 6865   3.815   9.185   4.251 -0.8358 -0.9411 -0.8467
   51MOL0     H 6866   3.693   9.163   4.379  2.3726 -0.6307  0.5268
   51MOL0     H 6867   3.592   8.368   4.739 -2.1963  4.1382 -1.8228
   51MOL0     H 6868   3.486   8.249   4.913  1.3724  0.0961 -0.3182
   51MOL0     H 6869   3.198   8.137   5.145 -1.2063 -0.2334  0.7081
   51MOL0     H 6870   3.183   8.054   5.370  1.7739  2.6696 -0.8827
   51MOL0     H 6871   2.646   8.443   6.438  0.1673 -1.2991  0.4203
   51MOL0     H 6872   2.795   8.547   6.620  0.8768  0.3092  3.1697
   51MOL0     H 6873   2.985   8.929   6.832 -1.5238  1.1153  0.3532
   51MOL0     H 6874   3.110   9.003   7.034 -0.8877  0.0073 -2.0523
   51MOL0     H 6875   3.138   9.059   7.404 -2.5449  0.2804  0.9770
   51MOL0     H 6876   3.174   9.084   7.229  2.4959  0.6060  3.2041
   51MOL0     H 6877   2.904   9.111   7.371 -0.5494 -0.3959 -0.5712
   51MOL0     H 6878   2.939   9.130   7.193 -0.0723 -0.6915  0.0798
   51MOL0     H 6879   2.933   9.341   7.305  1.8001  2.8999  0.2055
   51MOL0     H 6880   3.088   9.319   7.236 -0.3405 -1.6667 -0.6237
   51MOL0     H 6881   3.087   9.411   7.465 -1.9604  0.0078 -3.2776
   51MOL0     H 6882   3.212   9.287   7.433 -0.3311 -4.8222  0.0786
   51MOL0     H 6883   3.003   9.095   7.731  1.7152  0.9984  0.5006
   51MOL0     H 6884   2.921   8.716   7.278  0.5300  3.3831  0.6726
   51MOL0     H 6885   2.805   8.607   7.080  0.7168  0.2956  1.7304
   52MOL0     O 6886   1.184   1.659   3.115 -0.3334 -0.1129 -0.7930
   52MOL0     C 6887   1.235   1.764   3.088 -0.3690  0.5496  0.8988
   52MOL0     O 6888   1.346   1.819   3.139 -0.5268 -0.2641 -0.5239
   52MOL0     C 6889   1.426   1.756   3.232  0.4394  0.4965 -0.4624
   52MOL0     C 6890   1.412   1.757   3.374  0.5255  0.1502 -0.4713
   52MOL0     C 6891   1.491   1.678   3.447  0.3165 -0.8712  0.1925
   52MOL0     C 6892   1.592   1.602   3.394  0.0050  0.3791 -0.0623
   52MOL0     O 6893   1.680   1.549   3.485 -0.7633  0.0303 -0.2096
   52MOL0     C 6894   1.711   1.411   3.458  0.4588  0.3933  0.9531
   52MOL0     C 6895   1.692   1.335   3.589 -0.7293 -0.2243  0.0452
   52MOL0     C 6896   1.814   1.367   3.682  0.0245  1.0183 -1.1861
   52MOL0     C 6897   1.780   1.286   3.810 -0.3187 -0.2286 -0.0875
   52MOL0     C 6898   1.853   1.340   3.932 -0.1565  0.5813  0.3481
   52MOL0     C 6899   2.004   1.296   3.939 -0.5697 -0.0077 -0.9415
   52MOL0     C 6900   2.058   1.300   4.081 -0.0060  0.5504  0.0683
   52MOL0     C 6901   2.075   1.446   4.123  0.5658  0.0923  0.4737
   52MOL0     N 6902   2.120   1.460   4.263  0.4590  0.9440  1.0468
   52MOL0     C 6903   2.217   1.542   4.298  0.8993  0.2375 -0.1620
   52MOL0     C 6904   2.217   1.538   4.431 -0.4836 -0.8106  0.7793
   52MOL0     C 6905   2.319   1.600   4.525  0.4521 -0.7314  0.7718
   52MOL0     C 6906   2.401   1.500   4.599  0.1643  0.3896 -1.4936
   52MOL0     C 6907   2.477   1.392   4.523 -0.1076  0.5992  0.0565
   52MOL0     C 6908   2.609   1.343   4.581 -0.3624 -0.1097 -0.3756
   52MOL0     O 6909   2.586   1.262   4.694  0.9413  0.4235 -0.4114
   52MOL0     C 6910   2.689   1.214   4.766  0.2755 -1.4298 -0.5057
   52MOL0     C 6911   2.645   1.145   4.874  0.3267  0.0123 -0.0809
   52MOL0     C 6912   2.740   1.080   4.951 -0.2868 -0.1606  0.5120
   52MOL0     C 6913   2.687   0.988   5.059  0.3932  0.7215 -0.4715
   52MOL0     C 6914   2.873   1.079   4.909 -0.6798 -0.9376 -0.1018
   52MOL0     C 6915   2.970   0.994   4.964 -1.1396 -0.5641 -0.0837
   52MOL0     O 6916   3.038   0.910   4.876 -0.1581 -0.4633 -0.1663
   52MOL0     C 6917   3.128   0.825   4.920 -0.0932 -0.5860  1.4779
   52MOL0     C 6918   3.090   0.705   4.978  1.5436 -0.1598  0.8010
   52MOL0     C 6919   3.175   0.620   5.041  0.7402 -0.4761  0.2433
   52MOL0     C 6920   3.312   0.640   5.025 -0.0073 -0.4621 -0.9647
   52MOL0     O 6921   3.399   0.552   5.091 -0.0297  0.1666  0.1504
   52MOL0     C 6922   3.368   0.522   5.225  1.0749 -0.7171  0.7058
   52MOL0     C 6923   3.499   0.494   5.302  0.1318  0.5429 -0.7268
   52MOL0     C 6924   3.498   0.592   5.420  0.0531  0.9415  1.1092
   52MOL0     C 6925   3.554   0.728   5.370 -0.9056 -0.3330  0.6733
   52MOL0     C 6926   3.541   0.845   5.467  0.2249  0.0875 -0.3667
   52MOL0     C 6927   3.639   0.963   5.455  0.3458 -0.1500  0.2354
   52MOL0     C 6928   3.774   0.929   5.512 -0.2953  0.1034 -0.1600
   52MOL0     C 6929   3.831   1.066   5.546 -0.1528 -0.0218 -0.7639
   52MOL0    Cl 6930   3.855   1.169   5.403  0.1835 -0.7194 -0.3387
   52MOL0     C 6931   3.362   0.746   4.943 -0.6836 -0.4121  1.0041
   52MOL0     C 6932   3.272   0.852   4.900  0.0749  0.3517 -0.2792
   52MOL0     O 6933   3.007   1.025   5.076 -0.1169 -0.2817  0.4252
   52MOL0     C 6934   2.912   1.161   4.802 -0.8300 -0.1437  1.7160
   52MOL0     C 6935   2.822   1.235   4.727 -0.9560  0.1274  0.6703
   52MOL0     N 6936   2.122   1.446   4.476 -0.2042 -0.2483  0.3461
   52MOL0     N 6937   2.060   1.402   4.371  0.0404 -0.0841  0.4489
   52MOL0     C 6938   1.616   1.610   3.258 -0.0267 -0.1868 -0.0995
   52MOL0     C 6939   1.534   1.684   3.179 -0.8458 -0.4520 -0.5766
   52MOL0     C 6940   1.147   1.850   3.014 -0.5303 -0.3241 -0.2578
   52MOL0     C 6941   1.170   1.992   3.022  0.1745  0.3553 -0.5972
   52MOL0     C 6942   1.083   2.087   2.964 -0.0759  0.5016 -0.8278
   52MOL0     C 6943   0.978   2.045   2.885 -0.0561 -0.4354  0.4132
   52MOL0     O 6944   0.908   2.147   2.826  1.1766 -0.2927  0.5686
   52MOL0     C 6945   0.784   2.109   2.753  0.1240  0.9306  0.5745
   52MOL0     C 6946   0.699   2.226   2.715 -0.1016 -0.2996  0.7547
   52MOL0     C 6947   0.628   2.293   2.831 -0.3615 -0.0607  0.7568
   52MOL0     C 6948   0.548   2.416   2.779 -0.7203 -0.7277 -0.9910
   52MOL0     C 6949   0.430   2.363   2.714  0.4011 -0.2978 -0.1937
   52MOL0     C 6950   0.347   2.316   2.641 -0.3241  0.7084 -0.0966
   52MOL0     C 6951   0.956   1.907   2.865  0.4453 -0.7710  0.0597
   52MOL0     C 6952   1.031   1.810   2.936 -0.1606 -0.4904  0.2666
   52MOL0     H 6953   1.334   1.827   3.404  1.3083  1.4290 -1.3051
   52MOL0     H 6954   1.471   1.664   3.553 -0.0416 -1.9220  0.0024
   52MOL0     H 6955   1.634   1.373   3.389  2.7144 -2.1532 -0.3415
   52MOL0     H 6956   1.804   1.393   3.404 -0.4607  0.5792 -0.7892
   52MOL0     H 6957   1.592   1.360   3.626 -2.6515  0.6682 -4.9548
   52MOL0     H 6958   1.689   1.227   3.574  1.4968 -0.0066 -2.6000
   52MOL0     H 6959   1.906   1.323   3.642  0.4512 -2.1399  2.6001
   52MOL0     H 6960   1.823   1.475   3.701 -1.6964  0.8667  0.8960
   52MOL0     H 6961   1.675   1.310   3.831  0.0861  1.3964  0.2077
   52MOL0     H 6962   1.791   1.177   3.807  0.3895 -0.1570 -0.2956
   52MOL0     H 6963   1.846   1.449   3.944  0.1055  0.6271  0.1130
   52MOL0     H 6964   1.804   1.304   4.023  0.0826 -0.4540  0.0843
   52MOL0     H 6965   2.026   1.192   3.910  0.2867  0.2920 -1.3962
   52MOL0     H 6966   2.054   1.367   3.874 -1.6875  0.5196 -1.2421
   52MOL0     H 6967   1.992   1.251   4.152  0.5144  2.8033  2.2633
   52MOL0     H 6968   2.158   1.256   4.084 -0.9143 -1.6563 -0.3864
   52MOL0     H 6969   1.980   1.501   4.128 -2.2295 -4.3020  0.6971
   52MOL0     H 6970   2.135   1.503   4.052 -0.1645  1.7524  1.1268
   52MOL0     H 6971   2.279   1.588   4.223  0.9768  2.3111  1.1160
   52MOL0     H 6972   2.385   1.662   4.465  2.2074 -3.5844 -0.4707
   52MOL0     H 6973   2.271   1.672   4.592  0.8248  1.3843 -1.1293
   52MOL0     H 6974   2.326   1.443   4.655 -0.4157 -1.1078 -3.6792
   52MOL0     H 6975   2.478   1.549   4.660 -0.8757  2.1071 -1.4949
   52MOL0     H 6976   2.505   1.444   4.431 -0.1199  1.7925  0.7102
   52MOL0     H 6977   2.423   1.298   4.508 -0.7805  0.8405  0.8474
   52MOL0     H 6978   2.678   1.425   4.603  3.2547 -3.5462  2.8775
   52MOL0     H 6979   2.653   1.283   4.501 -0.7706 -1.0527  0.0918
   52MOL0     H 6980   2.539   1.131   4.891  0.4434 -0.2922  0.4263
   52MOL0     H 6981   2.633   1.034   5.142 -0.8420 -1.4048 -0.0077
   52MOL0     H 6982   2.619   0.917   5.011 -4.5838  4.5800  0.1743
   52MOL0     H 6983   2.776   0.941   5.103  0.1565 -1.6204 -2.2439
   52MOL0     H 6984   2.981   0.711   4.979  1.4700  3.3926 -2.6142
   52MOL0     H 6985   3.134   0.547   5.110 -0.4263 -0.3405 -0.2802
   52MOL0     H 6986   3.308   0.600   5.272  0.7501  1.2444 -2.6263
   52MOL0     H 6987   3.306   0.433   5.235  2.0684 -1.9849 -2.7264
   52MOL0     H 6988   3.495   0.389   5.332  2.2491  0.6316  0.0440
   52MOL0     H 6989   3.594   0.508   5.249  0.3164  0.3385 -0.4537
   52MOL0     H 6990   3.567   0.560   5.498  1.8542  0.4252 -0.6239
   52MOL0     H 6991   3.404   0.600   5.477  0.8709 -4.1486  3.7667
   52MOL0     H 6992   3.660   0.702   5.354 -0.9925 -1.1634  1.3533
   52MOL0     H 6993   3.524   0.765   5.272  3.9483  0.1917 -0.9193
   52MOL0     H 6994   3.537   0.804   5.569 -0.4314  0.6801 -0.1433
   52MOL0     H 6995   3.442   0.889   5.448  0.7518  2.2936  1.4260
   52MOL0     H 6996   3.666   0.991   5.353  3.2453 -0.2788  0.8920
   52MOL0     H 6997   3.593   1.054   5.495  2.7384  1.0146  0.5098
   52MOL0     H 6998   3.837   0.880   5.438  2.8405  0.5752  1.9755
   52MOL0     H 6999   3.757   0.870   5.603 -2.1802  0.9941  0.1180
   52MOL0     H 7000   3.927   1.046   5.595 -0.2953  0.7719 -0.1288
   52MOL0     H 7001   3.782   1.133   5.618  0.0875  2.5244 -2.8139
   52MOL0     H 7002   3.465   0.751   4.912 -0.6428  2.8501  1.2888
   52MOL0     H 7003   3.303   0.944   4.853 -0.0817  0.4058 -0.2760
   52MOL0     H 7004   3.012   1.159   4.761 -2.1311  0.3754 -1.8485
   52MOL0     H 7005   2.857   1.296   4.644  0.9332  1.3874  2.3053
   52MOL0     H 7006   1.702   1.553   3.223  1.8191  1.9706  0.6683
   52MOL0     H 7007   1.559   1.678   3.074  0.8255  1.2511 -0.3259
   52MOL0     H 7008   1.250   2.032   3.084 -0.2928  0.7721 -0.2497
   52MOL0     H 7009   1.106   2.191   2.985  0.4327  0.2211  0.0316
   52MOL0     H 7010   0.801   2.047   2.665 -1.0732  0.8650  0.3714
   52MOL0     H 7011   0.714   2.061   2.821 -0.5769  1.7649  0.4645
   52MOL0     H 7012   0.634   2.179   2.640  0.9555 -1.1630  0.3482
   52MOL0     H 7013   0.761   2.301   2.665 -2.3203  0.9681 -0.2092
   52MOL0     H 7014   0.711   2.328   2.894  1.0166  2.2594 -2.0969
   52MOL0     H 7015   0.565   2.219   2.881 -1.5284  1.0614  1.0083
   52MOL0     H 7016   0.613   2.486   2.725  0.7590  1.0259  2.7029
   52MOL0     H 7017   0.519   2.473   2.867 -1.4164  1.5028 -2.5961
   52MOL0     H 7018   0.288   2.264   2.569  2.3187 -0.0419 -1.8909
   52MOL0     H 7019   0.877   1.874   2.799  1.5951 -0.4199 -1.5369
   52MOL0     H 7020   0.997   1.707   2.937 -1.3565 -0.1611  3.0081
   53MOL0     O 7021   0.013   0.795   0.536 -0.1649  0.1558  0.4080
   53MOL0     C 7022   0.006   0.886   0.459 -0.5047 -0.6946  0.2707
   53MOL0     O 7023  -0.110   0.937   0.391  0.5144 -0.4047  0.3366
   53MOL0     C 7024  -0.240   0.886   0.390  0.1737 -0.0348  0.1491
   53MOL0     C 7025  -0.277   0.759   0.440  0.0694 -0.6239  0.3574
   53MOL0     C 7026  -0.411   0.722   0.436 -0.6079  0.2537 -0.5315
   53MOL0     C 7027  -0.513   0.806   0.390 -0.1060  0.2188 -1.0856
   53MOL0     O 7028  -0.645   0.765   0.400  0.3878  0.2505  0.1312
   53MOL0     C 7029  -0.742   0.853   0.453  0.4138 -0.2221 -1.1641
   53MOL0     C 7030  -0.831   0.765   0.540 -0.0778 -0.7640  0.2459
   53MOL0     C 7031  -0.905   0.862   0.633  0.5280  0.7947 -0.9613
   53MOL0     C 7032  -1.007   0.773   0.712  0.1735 -0.6219 -0.9476
   53MOL0     C 7033  -1.091   0.867   0.813  0.3030  0.8292  0.0663
   53MOL0     C 7034  -1.228   0.804   0.852  0.6435  0.0146 -0.4633
   53MOL0     C 7035  -1.223   0.659   0.897  0.8122  0.1602 -0.4013
   53MOL0     C 7036  -1.368   0.614   0.916  0.1334  0.5618  1.0868
   53MOL0     N 7037  -1.435   0.561   0.792  0.0221 -0.9893  0.0077
   53MOL0     C 7038  -1.515   0.624   0.697  1.1415  0.9178  0.5090
   53MOL0     C 7039  -1.564   0.527   0.618  0.7439  0.2816  0.9423
   53MOL0     C 7040  -1.652   0.565   0.506 -0.3565 -0.0812 -0.0624
   53MOL0     C 7041  -1.752   0.666   0.553 -0.5188  2.4427 -0.2783
   53MOL0     C 7042  -1.851   0.686   0.440  0.2706  0.4637 -0.4434
   53MOL0     C 7043  -1.801   0.798   0.341  0.2726 -0.6389 -0.8086
   53MOL0     O 7044  -1.772   0.915   0.414  0.1752  0.0573  0.0756
   53MOL0     C 7045  -1.643   0.976   0.405  0.4511 -0.0965  1.1897
   53MOL0     C 7046  -1.525   0.907   0.378 -0.1878 -0.3398  0.1532
   53MOL0     C 7047  -1.403   0.970   0.379  0.4070  0.4917  0.5316
   53MOL0     C 7048  -1.272   0.886   0.364 -0.2609  0.3861 -0.1168
   53MOL0     C 7049  -1.403   1.108   0.420  0.1799  0.0722  0.8445
   53MOL0     C 7050  -1.265   1.178   0.434  0.2165 -0.2135  0.0961
   53MOL0     O 7051  -1.152   1.154   0.351 -0.7529  0.4660  0.0365
   53MOL0     C 7052  -1.023   1.196   0.397 -0.1107 -0.4812  1.0157
   53MOL0     C 7053  -0.975   1.243   0.512  0.7022 -0.5194  0.5154
   53MOL0     C 7054  -0.848   1.280   0.537  0.6769 -0.0409 -0.1431
   53MOL0     C 7055  -0.748   1.268   0.432  0.3356 -0.7960 -0.8070
   53MOL0     O 7056  -0.630   1.330   0.473 -0.1588  0.1775 -0.1969
   53MOL0     C 7057  -0.514   1.300   0.389 -0.3950 -0.2266  0.2960
   53MOL0     C 7058  -0.415   1.408   0.407 -0.1584  0.1692 -0.5863
   53MOL0     C 7059  -0.346   1.411   0.533 -0.9577 -0.7786 -0.1004
   53MOL0     C 7060  -0.239   1.521   0.535  0.1610 -0.3875 -0.2494
   53MOL0     C 7061  -0.169   1.522   0.677 -0.4845  0.0788  0.6405
   53MOL0     C 7062  -0.028   1.577   0.669  0.0118 -0.4501 -0.4985
   53MOL0     C 7063   0.014   1.638   0.810  0.4402 -0.5754 -0.2657
   53MOL0     C 7064   0.021   1.524   0.918 -0.3757 -0.7260  0.4102
   53MOL0    Cl 7065   0.092   1.374   0.853 -0.1069 -0.5902 -0.8539
   53MOL0     C 7066  -0.786   1.205   0.314 -0.4894  0.6280  0.7334
   53MOL0     C 7067  -0.930   1.179   0.299 -0.0129 -0.2662 -0.1912
   53MOL0     O 7068  -1.274   1.258   0.524 -0.3871 -0.0201 -0.5366
   53MOL0     C 7069  -1.529   1.177   0.450 -0.7762  0.1428 -0.3054
   53MOL0     C 7070  -1.646   1.104   0.444 -0.3694 -0.1134  0.1963
   53MOL0     N 7071  -1.509   0.406   0.668  0.1154  0.4463 -0.0434
   53MOL0     N 7072  -1.440   0.426   0.774  0.0962 -0.1786 -0.0325
   53MOL0     C 7073  -0.474   0.917   0.327 -0.4711 -0.1099 -0.1378
   53MOL0     C 7074  -0.343   0.961   0.333  0.2628 -0.8243  0.4898
   53MOL0     C 7075   0.144   0.941   0.433 -0.9676 -0.9086 -0.3904
   53MOL0     C 7076   0.179   1.010   0.315  0.8313  0.6666 -0.3251
   53MOL0     C 7077   0.302   1.049   0.274  0.1130 -0.1056  0.4609
   53MOL0     C 7078   0.403   1.027   0.363 -0.1001 -0.6987 -0.2490
   53MOL0     O 7079   0.523   1.078   0.319 -0.0029 -0.1274  0.5352
   53MOL0     C 7080   0.639   1.036   0.387 -0.1690 -1.3108 -1.0533
   53MOL0     C 7081   0.752   1.117   0.330  0.7343 -0.3465  0.3043
   53MOL0     C 7082   0.736   1.267   0.370 -0.7395 -0.4537 -0.2183
   53MOL0     C 7083   0.856   1.344   0.310  0.6544 -0.9677  0.8683
   53MOL0     C 7084   0.847   1.392   0.169  0.7352 -0.0053  0.2514
   53MOL0     C 7085   0.861   1.429   0.055  0.9588 -0.7736 -0.2094
   53MOL0     C 7086   0.384   0.966   0.486 -0.0368 -0.0473 -0.0850
   53MOL0     C 7087   0.251   0.925   0.520 -0.3375  0.0532 -0.4148
   53MOL0     H 7088  -0.193   0.697   0.471 -1.5566 -2.0825  2.1219
   53MOL0     H 7089  -0.440   0.625   0.476 -1.8100  1.2103  1.0119
   53MOL0     H 7090  -0.702   0.935   0.513 -0.1604 -2.3197  2.3664
   53MOL0     H 7091  -0.797   0.899   0.370  2.5799 -0.4332 -2.7775
   53MOL0     H 7092  -0.893   0.692   0.487  2.0090 -0.6393 -2.5797
   53MOL0     H 7093  -0.761   0.711   0.605 -1.2200  0.4283  2.5994
   53MOL0     H 7094  -0.844   0.925   0.698  0.6014 -1.8713  1.7326
   53MOL0     H 7095  -0.959   0.940   0.578  2.2461  4.1205  1.7132
   53MOL0     H 7096  -1.074   0.730   0.636  2.2287 -4.5278 -0.7695
   53MOL0     H 7097  -0.951   0.699   0.768  2.3067  2.6740  1.6504
   53MOL0     H 7098  -1.024   0.887   0.898  2.5641 -0.2969 -1.3620
   53MOL0     H 7099  -1.113   0.961   0.761 -0.3930  1.5000  1.5081
   53MOL0     H 7100  -1.274   0.858   0.936 -0.0578 -1.5609  0.1986
   53MOL0     H 7101  -1.292   0.810   0.764  0.7274  1.9524 -0.4543
   53MOL0     H 7102  -1.195   0.588   0.818 -2.1824  0.2210 -1.6387
   53MOL0     H 7103  -1.177   0.664   0.997 -4.6703 -0.1224  2.4817
   53MOL0     H 7104  -1.430   0.691   0.962  0.3261 -0.2277  2.7805
   53MOL0     H 7105  -1.381   0.533   0.989 -1.5663  0.4398  0.6853
   53MOL0     H 7106  -1.534   0.731   0.698 -0.2477  0.6841  0.9996
   53MOL0     H 7107  -1.588   0.597   0.423 -1.9824 -0.7767 -1.6320
   53MOL0     H 7108  -1.699   0.475   0.465 -2.1698  0.1417  1.4443
   53MOL0     H 7109  -1.710   0.764   0.577 -1.7765  3.5698 -2.3818
   53MOL0     H 7110  -1.788   0.637   0.652  2.2356 -1.5481 -0.2147
   53MOL0     H 7111  -1.943   0.727   0.481  0.7804  2.7098 -1.4162
   53MOL0     H 7112  -1.881   0.590   0.398  0.4866 -0.1166  0.6660
   53MOL0     H 7113  -1.883   0.816   0.271 -2.0404  0.7106  2.0558
   53MOL0     H 7114  -1.713   0.765   0.285  2.1727  0.1412  1.5802
   53MOL0     H 7115  -1.526   0.799   0.365  1.2324 -0.4047  0.4083
   53MOL0     H 7116  -1.298   0.785   0.396 -1.3685  0.6249 -0.2270
   53MOL0     H 7117  -1.232   0.878   0.262 -0.1063 -5.4228  0.0993
   53MOL0     H 7118  -1.183   0.925   0.414  0.7830 -0.9260 -0.8839
   53MOL0     H 7119  -1.042   1.259   0.596 -1.1264 -2.0916 -0.5631
   53MOL0     H 7120  -0.825   1.316   0.637 -1.9941  1.9473 -0.1574
   53MOL0     H 7121  -0.475   1.204   0.423 -2.1530 -2.0536 -2.4526
   53MOL0     H 7122  -0.538   1.296   0.283  1.1389  0.6127 -0.1032
   53MOL0     H 7123  -0.348   1.406   0.321 -0.0066 -3.8771 -0.5978
   53MOL0     H 7124  -0.476   1.497   0.391 -0.3349  0.3814  1.0836
   53MOL0     H 7125  -0.305   1.315   0.564 -1.8305 -1.3636 -0.7129
   53MOL0     H 7126  -0.428   1.422   0.605 -1.8119  1.0878 -1.2953
   53MOL0     H 7127  -0.164   1.503   0.457  3.5847 -0.3425  2.7889
   53MOL0     H 7128  -0.279   1.622   0.525  1.8532  0.4838  1.3441
   53MOL0     H 7129  -0.174   1.425   0.727 -1.5408  1.2153  2.9075
   53MOL0     H 7130  -0.237   1.578   0.742 -0.5812 -4.1632  4.7102
   53MOL0     H 7131   0.047   1.505   0.637 -1.5434 -1.3311 -2.3391
   53MOL0     H 7132  -0.037   1.667   0.609 -1.5484  0.4178  0.9346
   53MOL0     H 7133  -0.067   1.710   0.828  0.2647 -0.6818 -0.6361
   53MOL0     H 7134   0.110   1.690   0.814 -0.9748  2.1950  1.9435
   53MOL0     H 7135  -0.083   1.502   0.944 -0.2068 -0.8418  1.0232
   53MOL0     H 7136   0.070   1.553   1.012  0.3351 -1.0716  0.1562
   53MOL0     H 7137  -0.714   1.194   0.233 -0.6525  0.1584  0.6515
   53MOL0     H 7138  -0.968   1.146   0.203  0.2193 -1.8144  0.2223
   53MOL0     H 7139  -1.527   1.283   0.476 -0.3662  0.1993 -0.5538
   53MOL0     H 7140  -1.738   1.160   0.453 -0.0565  0.4808 -0.2786
   53MOL0     H 7141  -0.545   0.978   0.272 -1.5603 -1.8478 -0.7349
   53MOL0     H 7142  -0.310   1.057   0.297 -0.5642 -0.1336  1.5082
   53MOL0     H 7143   0.107   1.006   0.234 -0.5567 -2.7391  0.9252
   53MOL0     H 7144   0.331   1.089   0.177  1.0419 -2.3285 -0.2391
   53MOL0     H 7145   0.629   1.056   0.495 -1.5941 -1.0745 -1.2059
   53MOL0     H 7146   0.653   0.929   0.368  3.0630 -0.9686 -1.1640
   53MOL0     H 7147   0.758   1.106   0.222 -0.2394  3.8296 -0.3442
   53MOL0     H 7148   0.855   1.088   0.356  1.2955 -1.2266 -2.5528
   53MOL0     H 7149   0.742   1.253   0.478  1.3761 -0.9756 -0.3493
   53MOL0     H 7150   0.637   1.296   0.332 -1.2673 -0.4656  1.1168
   53MOL0     H 7151   0.949   1.286   0.314  3.1795  2.4086 -2.2315
   53MOL0     H 7152   0.860   1.446   0.350 -0.4562 -0.2321 -0.7858
   53MOL0     H 7153   0.874   1.438  -0.051 -1.2679 -2.7587 -0.7376
   53MOL0     H 7154   0.466   0.951   0.556 -1.2541  0.6798  1.5518
   53MOL0     H 7155   0.219   0.891   0.618  0.6335  0.7460  0.1616
   54MOL0     O 7156   7.662   2.425   6.451 -0.1669 -0.4995 -1.2026
   54MOL0     C 7157   7.718   2.524   6.406 -0.0229  0.6654  0.7583
   54MOL0     O 7158   7.852   2.532   6.348 -0.2471 -0.5686 -0.1610
   54MOL0     C 7159   7.937   2.420   6.338  0.6001  0.9237  0.6002
   54MOL0     C 7160   7.994   2.383   6.215 -0.1588  0.9460 -0.3566
   54MOL0     C 7161   8.076   2.269   6.205  0.8580  0.2915  0.2646
   54MOL0     C 7162   8.099   2.186   6.318  0.0893  0.0273  0.6512
   54MOL0     O 7163   8.173   2.073   6.294 -0.1906 -0.9194 -0.0218
   54MOL0     C 7164   8.253   2.020   6.404  0.1985 -0.3266 -0.0217
   54MOL0     C 7165   8.189   1.884   6.455  0.7555  0.1386 -0.5871
   54MOL0     C 7166   8.178   1.778   6.350  0.0160  0.5614  0.3417
   54MOL0     C 7167   8.117   1.649   6.401  0.5368 -0.5940 -0.4792
   54MOL0     C 7168   8.206   1.548   6.460 -0.5678  0.7625 -0.9106
   54MOL0     C 7169   8.131   1.474   6.581 -0.0547  0.4609  0.3212
   54MOL0     C 7170   8.179   1.326   6.604 -0.5229  0.4099  0.2359
   54MOL0     C 7171   8.314   1.308   6.687  0.3496  0.4048  0.0959
   54MOL0     N 7172   8.296   1.342   6.832 -0.0791  0.0480  0.7054
   54MOL0     C 7173   8.244   1.256   6.927 -0.1850  0.5728  0.1347
   54MOL0     C 7174   8.248   1.331   7.036 -1.0065 -0.3986 -1.5799
   54MOL0     C 7175   8.228   1.278   7.181 -0.4071 -0.2609 -0.6792
   54MOL0     C 7176   8.090   1.321   7.226  0.2139 -0.8030 -1.1039
   54MOL0     C 7177   8.067   1.251   7.369  0.3847 -0.4672 -0.2467
   54MOL0     C 7178   7.934   1.284   7.424  0.4181 -0.6857 -0.3423
   54MOL0     O 7179   7.918   1.429   7.442 -0.0290  0.1626 -0.2458
   54MOL0     C 7180   7.855   1.477   7.547  1.1623 -0.2635  0.6597
   54MOL0     C 7181   7.905   1.473   7.674 -0.3168  0.0572 -0.8388
   54MOL0     C 7182   7.829   1.511   7.787  1.2678  0.4084 -0.3780
   54MOL0     C 7183   7.881   1.497   7.927 -0.6857 -0.8735  0.8415
   54MOL0     C 7184   7.691   1.563   7.756  0.2391 -0.2565 -0.2316
   54MOL0     C 7185   7.605   1.626   7.867 -0.2877 -0.3655  0.5171
   54MOL0     O 7186   7.510   1.719   7.830 -0.1218 -0.1865  0.4908
   54MOL0     C 7187   7.429   1.762   7.927 -0.1715  0.0652  0.9499
   54MOL0     C 7188   7.326   1.686   7.965  0.0341  0.2184 -0.1749
   54MOL0     C 7189   7.238   1.731   8.068 -0.0384 -0.5014 -0.4749
   54MOL0     C 7190   7.258   1.852   8.129 -0.2698 -0.1440  0.1502
   54MOL0     O 7191   7.172   1.911   8.226 -1.4060 -0.6710 -0.3367
   54MOL0     C 7192   7.061   1.829   8.280  0.7582  1.1432 -0.0583
   54MOL0     C 7193   6.937   1.836   8.182  0.2447  0.5064 -0.0500
   54MOL0     C 7194   6.868   1.974   8.191  0.5848  0.1787  0.2185
   54MOL0     C 7195   6.740   1.981   8.097  0.3119 -0.2293  0.1784
   54MOL0     C 7196   6.662   2.114   8.106 -0.1069 -0.3820  1.3220
   54MOL0     C 7197   6.633   2.160   8.250  0.1445 -1.0988  0.4251
   54MOL0     C 7198   6.552   2.058   8.334  0.7427 -0.7604 -0.4394
   54MOL0     C 7199   6.536   2.107   8.479  1.0053 -0.5701 -0.0709
   54MOL0    Cl 7200   6.407   1.995   8.556 -0.1338 -0.0897  0.0156
   54MOL0     C 7201   7.362   1.926   8.081 -0.9361 -0.3162  0.3226
   54MOL0     C 7202   7.456   1.887   7.986  0.2573 -0.1711  0.0749
   54MOL0     O 7203   7.618   1.589   7.979  0.4798 -0.6250  0.1942
   54MOL0     C 7204   7.651   1.581   7.627  0.2169  0.3082 -0.0112
   54MOL0     C 7205   7.739   1.538   7.526  0.4550 -0.8572 -0.1711
   54MOL0     N 7206   8.307   1.456   7.011 -0.2594  0.3996 -0.3631
   54MOL0     N 7207   8.337   1.458   6.887 -0.5229 -0.3177  0.3347
   54MOL0     C 7208   8.046   2.227   6.446  0.5127 -0.0173 -0.0075
   54MOL0     C 7209   7.963   2.341   6.452  0.2567 -0.1658 -0.2760
   54MOL0     C 7210   7.669   2.662   6.420  0.3607 -0.0945 -0.2169
   54MOL0     C 7211   7.725   2.778   6.354 -0.5017  1.1884 -0.2400
   54MOL0     C 7212   7.677   2.906   6.380  0.6874 -0.0375  0.2319
   54MOL0     C 7213   7.566   2.911   6.462 -0.2579 -0.1040  0.3215
   54MOL0     O 7214   7.515   3.039   6.481 -0.2152 -1.2147 -0.0723
   54MOL0     C 7215   7.596   3.145   6.551 -0.0456 -0.7387  0.3009
   54MOL0     C 7216   7.563   3.281   6.498  0.0715 -0.2959  0.3940
   54MOL0     C 7217   7.665   3.390   6.549 -0.2767  0.4929  0.7901
   54MOL0     C 7218   7.811   3.364   6.491  0.7534 -0.2136  0.8042
   54MOL0     C 7219   7.835   3.453   6.374 -0.0014  0.6565  0.1101
   54MOL0     C 7220   7.857   3.542   6.290 -0.1946  0.6679 -1.2508
   54MOL0     C 7221   7.508   2.813   6.521  0.2897  0.1600 -0.1615
   54MOL0     C 7222   7.562   2.689   6.511  0.8784 -0.1873  0.0261
   54MOL0     H 7223   7.965   2.437   6.126 -1.3433  0.5069 -0.2496
   54MOL0     H 7224   8.092   2.240   6.102 -1.0185 -0.2625  0.0896
   54MOL0     H 7225   8.357   1.991   6.387  0.1568  0.1438 -1.1716
   54MOL0     H 7226   8.262   2.089   6.489 -0.1657 -0.3239  0.0185
   54MOL0     H 7227   8.245   1.844   6.541 -0.5929 -1.1094 -0.2598
   54MOL0     H 7228   8.087   1.891   6.492 -0.0320  1.2832 -2.8353
   54MOL0     H 7229   8.121   1.814   6.264 -3.4361  0.4183  2.3771
   54MOL0     H 7230   8.274   1.738   6.316 -0.2898  2.7844 -3.6617
   54MOL0     H 7231   8.050   1.686   6.479  0.9803 -0.4312 -0.1720
   54MOL0     H 7232   8.045   1.610   6.327 -1.2838  2.9825 -0.8320
   54MOL0     H 7233   8.227   1.482   6.376 -1.1782 -2.0515  1.0070
   54MOL0     H 7234   8.301   1.593   6.488 -1.5228  2.5397 -0.3453
   54MOL0     H 7235   8.136   1.516   6.682  2.9402 -6.0332  3.5368
   54MOL0     H 7236   8.028   1.463   6.546  0.6988 -2.4512 -1.3557
   54MOL0     H 7237   8.117   1.248   6.650  0.2014 -1.9828 -2.5687
   54MOL0     H 7238   8.183   1.282   6.504 -0.9998 -1.6005  1.0606
   54MOL0     H 7239   8.390   1.376   6.648  1.0706 -0.3357  0.1903
   54MOL0     H 7240   8.361   1.210   6.674 -1.2916 -0.2864 -1.0002
   54MOL0     H 7241   8.248   1.147   6.923  1.1559  0.4226  3.1393
   54MOL0     H 7242   8.246   1.171   7.195  1.8806  0.4076  2.9134
   54MOL0     H 7243   8.298   1.329   7.248 -2.4341  1.1584  0.4867
   54MOL0     H 7244   8.012   1.289   7.156 -1.3656 -0.2091  0.3546
   54MOL0     H 7245   8.081   1.429   7.234  3.5726 -0.4075 -1.1720
   54MOL0     H 7246   8.154   1.267   7.434  2.8789 -2.9228 -2.7091
   54MOL0     H 7247   8.065   1.143   7.355  1.2099 -0.2215 -2.6189
   54MOL0     H 7248   7.915   1.231   7.518 -1.1147 -0.4082 -0.4715
   54MOL0     H 7249   7.847   1.257   7.363 -0.0926 -1.2517  0.6056
   54MOL0     H 7250   8.003   1.429   7.668 -0.8641 -1.6190  1.2402
   54MOL0     H 7251   7.812   1.434   7.984  0.0224 -0.5216  2.1135
   54MOL0     H 7252   7.977   1.445   7.923 -0.4009 -0.4099 -3.0941
   54MOL0     H 7253   7.899   1.594   7.974 -0.4355 -2.1955  3.6636
   54MOL0     H 7254   7.290   1.594   7.920 -1.9282  1.1847 -0.7054
   54MOL0     H 7255   7.151   1.671   8.090 -0.2656  0.4060  1.3061
   54MOL0     H 7256   7.105   1.729   8.290 -2.1663 -0.1606  0.8154
   54MOL0     H 7257   7.030   1.859   8.380 -1.4291 -2.5546  0.5519
   54MOL0     H 7258   6.966   1.815   8.078 -1.2314  1.7362 -0.7632
   54MOL0     H 7259   6.867   1.762   8.222 -0.4912  0.6203 -1.0663
   54MOL0     H 7260   6.931   2.055   8.155 -0.2633 -0.4797 -3.0579
   54MOL0     H 7261   6.839   1.998   8.294 -2.1917 -1.0776 -0.1792
   54MOL0     H 7262   6.765   1.960   7.992 -3.3891  1.7665 -1.2780
   54MOL0     H 7263   6.666   1.908   8.131  0.0593  0.2688  0.7099
   54MOL0     H 7264   6.557   2.105   8.075  0.3347  1.0360 -0.8505
   54MOL0     H 7265   6.711   2.195   8.052  0.9156 -1.5387  0.4757
   54MOL0     H 7266   6.729   2.174   8.300 -0.3313 -3.4744  2.1584
   54MOL0     H 7267   6.588   2.260   8.241 -2.4694 -2.3682 -2.9071
   54MOL0     H 7268   6.596   1.957   8.341 -1.2847 -1.5780  2.6262
   54MOL0     H 7269   6.457   2.053   8.282 -1.2060  1.0869  2.6075
   54MOL0     H 7270   6.521   2.215   8.477  1.5124 -0.3936  2.3213
   54MOL0     H 7271   6.633   2.092   8.528  2.2024  1.0616 -1.8096
   54MOL0     H 7272   7.376   2.030   8.111 -0.4553 -0.8426  1.9991
   54MOL0     H 7273   7.536   1.952   7.950  1.4441 -1.3249  0.5226
   54MOL0     H 7274   7.552   1.612   7.595 -0.2790 -0.8517  0.3462
   54MOL0     H 7275   7.704   1.523   7.425 -1.7978 -3.1304  0.8379
   54MOL0     H 7276   8.072   2.170   6.535  1.4881 -1.9681 -1.4666
   54MOL0     H 7277   7.927   2.378   6.548 -0.5659  2.2306 -1.4341
   54MOL0     H 7278   7.813   2.767   6.291  0.1450  0.3137  0.7601
   54MOL0     H 7279   7.725   2.990   6.330 -1.9526  0.2757 -2.0137
   54MOL0     H 7280   7.582   3.133   6.659 -1.5137  3.3666  0.7753
   54MOL0     H 7281   7.699   3.120   6.524 -0.6028 -2.3435 -0.4287
   54MOL0     H 7282   7.460   3.308   6.524  0.0549 -0.3430  0.3750
   54MOL0     H 7283   7.566   3.273   6.389  2.0630 -0.1817  0.4120
   54MOL0     H 7284   7.672   3.374   6.657  0.6624  2.9560  1.1640
   54MOL0     H 7285   7.621   3.489   6.529  1.2090  1.2268  1.0340
   54MOL0     H 7286   7.828   3.258   6.467 -0.3473 -0.5283  1.3399
   54MOL0     H 7287   7.879   3.403   6.567  0.6242  2.2204 -0.2514
   54MOL0     H 7288   7.877   3.621   6.220 -1.9337 -1.3259 -4.2020
   54MOL0     H 7289   7.414   2.828   6.572 -0.0606 -0.8262 -0.4835
   54MOL0     H 7290   7.525   2.605   6.569 -1.7123  1.9893  1.7854
   55MOL0     O 7291   6.218   7.622   9.845 -0.4653  0.6171 -0.4539
   55MOL0     C 7292   6.143   7.526   9.847  0.2440  0.4739  1.1885
   55MOL0     O 7293   6.152   7.409   9.911  0.4364 -0.4929 -0.3933
   55MOL0     C 7294   6.254   7.401  10.005  0.0291  0.3236 -0.4807
   55MOL0     C 7295   6.363   7.302   9.998 -0.5473  0.5993  0.6043
   55MOL0     C 7296   6.461   7.312  10.098 -0.1835  0.1444  0.9274
   55MOL0     C 7297   6.449   7.400  10.206 -0.0379 -0.5435 -0.1074
   55MOL0     O 7298   6.552   7.391  10.295 -0.0694  0.1392  0.6038
   55MOL0     C 7299   6.532   7.416  10.427  0.7713 -0.5875 -0.1008
   55MOL0     C 7300   6.653   7.366  10.507  0.9603  0.7455 -0.1616
   55MOL0     C 7301   6.662   7.210  10.507 -0.9370 -0.3272  0.4531
   55MOL0     C 7302   6.536   7.134  10.540  1.0471 -0.1814  0.2583
   55MOL0     C 7303   6.554   6.984  10.516 -0.0991  0.7603  0.5917
   55MOL0     C 7304   6.527   6.950  10.370  0.6242  0.9154  0.3560
   55MOL0     C 7305   6.500   6.791  10.366  0.1916 -0.6345  0.3342
   55MOL0     C 7306   6.627   6.709  10.390  0.2877 -0.5069 -0.3183
   55MOL0     N 7307   6.602   6.562  10.395 -0.3265 -0.0210  0.4970
   55MOL0     C 7308   6.632   6.474  10.288 -0.1200  0.0073 -0.0869
   55MOL0     C 7309   6.596   6.361  10.342  0.3348  0.1278  1.4769
   55MOL0     C 7310   6.629   6.227  10.283  0.5070 -0.1603 -1.2174
   55MOL0     C 7311   6.528   6.114  10.298 -0.3719 -0.7440  0.2369
   55MOL0     C 7312   6.543   6.056  10.441 -0.2443 -0.5719 -1.5699
   55MOL0     C 7313   6.444   5.948  10.468  0.8690 -0.2483  0.9796
   55MOL0     O 7314   6.309   5.998  10.484  0.3235  0.5973 -0.5900
   55MOL0     C 7315   6.286   6.054  10.604 -0.5499 -0.5658 -0.6892
   55MOL0     C 7316   6.295   6.196  10.624 -1.0219  0.4627  0.5759
   55MOL0     C 7317   6.300   6.250  10.752 -0.1127 -0.1576 -0.9900
   55MOL0     C 7318   6.296   6.403  10.750 -0.2034 -0.4190  0.3807
   55MOL0     C 7319   6.272   6.169  10.865  0.3301  0.3662  0.1603
   55MOL0     C 7320   6.266   6.217  11.002 -0.0795 -0.6669  0.0780
   55MOL0     O 7321   6.164   6.300  11.024 -0.5003 -1.3661  0.1676
   55MOL0     C 7322   6.141   6.351  11.148 -0.2843  0.4842 -0.1156
   55MOL0     C 7323   6.068   6.272  11.246  0.5187 -0.4610 -0.0990
   55MOL0     C 7324   6.029   6.342  11.367  0.7695 -0.3516  1.4260
   55MOL0     C 7325   6.065   6.472  11.392 -0.6845 -0.9437  0.9415
   55MOL0     O 7326   6.027   6.546  11.507  0.6269  0.6285  0.1839
   55MOL0     C 7327   5.999   6.461  11.624 -0.5672 -0.2631 -0.2900
   55MOL0     C 7328   6.046   6.547  11.742  0.2326 -0.5153 -0.0238
   55MOL0     C 7329   5.993   6.506  11.876  0.3363 -0.8576 -0.3597
   55MOL0     C 7330   6.028   6.610  11.990  0.2353  0.2269  0.2214
   55MOL0     C 7331   6.010   6.564  12.131  0.0070 -0.2871  0.1959
   55MOL0     C 7332   5.879   6.611  12.189  0.7861 -0.1839  0.0123
   55MOL0     C 7333   5.869   6.585  12.337  0.1540  0.0707  1.0499
   55MOL0     C 7334   5.745   6.641  12.405  0.0765 -0.3658  0.0707
   55MOL0    Cl 7335   5.726   6.825  12.390 -0.2998 -0.0105 -0.1101
   55MOL0     C 7336   6.152   6.537  11.303  0.2872  1.7829 -0.4418
   55MOL0     C 7337   6.183   6.477  11.181 -1.1395 -0.1191  0.4489
   55MOL0     O 7338   6.343   6.162  11.080  0.4362  0.3107 -0.5549
   55MOL0     C 7339   6.260   6.034  10.840  0.5318  0.2138  0.1612
   55MOL0     C 7340   6.259   5.984  10.711  0.4078 -0.2163  0.1446
   55MOL0     N 7341   6.528   6.371  10.464 -0.7859 -0.8076  0.7025
   55MOL0     N 7342   6.535   6.499  10.504 -0.5009  0.3132  0.4840
   55MOL0     C 7343   6.341   7.490  10.211  0.5475  0.1041  0.8157
   55MOL0     C 7344   6.241   7.488  10.122  0.1187  0.2558  0.7493
   55MOL0     C 7345   6.028   7.540   9.750 -0.1460 -0.0762 -0.5165
   55MOL0     C 7346   6.008   7.656   9.673 -0.0275 -0.2741 -1.4894
   55MOL0     C 7347   5.909   7.670   9.585 -0.1411  0.6708  1.1107
   55MOL0     C 7348   5.807   7.572   9.562  0.1797 -0.2071 -0.0511
   55MOL0     O 7349   5.711   7.601   9.468 -0.2204 -0.2937  0.6706
   55MOL0     C 7350   5.597   7.510   9.453 -0.4468 -1.0896 -0.4340
   55MOL0     C 7351   5.620   7.397   9.352  0.8456  0.1383 -0.3851
   55MOL0     C 7352   5.667   7.440   9.217 -1.1043 -0.6849 -0.4397
   55MOL0     C 7353   5.630   7.338   9.118  0.3653  0.0731  0.3296
   55MOL0     C 7354   5.639   7.394   8.979  0.2844  0.4944 -0.2253
   55MOL0     C 7355   5.638   7.438   8.867 -0.0447  0.1633  0.6381
   55MOL0     C 7356   5.824   7.450   9.645  0.6173  0.2950  0.4565
   55MOL0     C 7357   5.937   7.430   9.728  0.1149 -0.0963 -0.6114
   55MOL0     H 7358   6.380   7.233   9.917 -1.2005  0.4687  0.5692
   55MOL0     H 7359   6.553   7.254  10.099 -0.4552 -0.3495 -0.1356
   55MOL0     H 7360   6.527   7.524  10.442 -0.8417 -0.5443 -0.7470
   55MOL0     H 7361   6.448   7.370  10.480  1.0258 -0.3321  0.5232
   55MOL0     H 7362   6.749   7.395  10.465  1.2020  2.5509  1.4971
   55MOL0     H 7363   6.651   7.396  10.612  1.7207 -2.2924  0.8107
   55MOL0     H 7364   6.688   7.185  10.403  1.0883  2.5819  0.1500
   55MOL0     H 7365   6.741   7.177  10.574  2.4123 -0.8309 -3.3403
   55MOL0     H 7366   6.522   7.154  10.647  4.6580 -0.7395  0.9706
   55MOL0     H 7367   6.450   7.169  10.482  1.5774  2.7475  1.0391
   55MOL0     H 7368   6.655   6.954  10.547  0.1057 -0.7877 -1.3254
   55MOL0     H 7369   6.481   6.933  10.580 -1.2608  2.7689  0.9383
   55MOL0     H 7370   6.434   7.001  10.341 -1.0102 -2.5778 -1.0618
   55MOL0     H 7371   6.603   6.991  10.304  1.1761 -2.6542 -1.4455
   55MOL0     H 7372   6.434   6.759  10.447 -1.7430 -3.9677 -2.3150
   55MOL0     H 7373   6.458   6.755  10.271 -0.7358 -0.7257  0.7672
   55MOL0     H 7374   6.675   6.743  10.483 -3.3243  0.0811  1.5100
   55MOL0     H 7375   6.697   6.726  10.308  1.6742  0.8370  1.0598
   55MOL0     H 7376   6.705   6.480  10.208  0.5255 -0.3434  0.4658
   55MOL0     H 7377   6.626   6.250  10.176  1.6897  0.2072 -1.1883
   55MOL0     H 7378   6.728   6.197  10.320 -0.3220 -1.6056 -0.0808
   55MOL0     H 7379   6.552   6.031  10.231  1.6347  0.4004 -0.5259
   55MOL0     H 7380   6.428   6.149  10.269 -0.7039 -1.5597  0.3613
   55MOL0     H 7381   6.542   6.135  10.516 -0.3376 -1.1911 -0.9092
   55MOL0     H 7382   6.643   6.011  10.449  1.0910  2.2761 -0.6763
   55MOL0     H 7383   6.473   5.886  10.554  1.6087 -0.4019  0.6258
   55MOL0     H 7384   6.447   5.860  10.402  3.0163 -1.1702  2.2128
   55MOL0     H 7385   6.306   6.257  10.535 -0.6618  1.1058  1.0542
   55MOL0     H 7386   6.206   6.432  10.696  0.1608 -0.1034 -0.0668
   55MOL0     H 7387   6.290   6.444  10.852 -1.6579  1.5354 -0.4194
   55MOL0     H 7388   6.382   6.437  10.691 -0.6653  0.4752  0.2107
   55MOL0     H 7389   6.060   6.164  11.249  0.5621 -0.4545  0.3468
   55MOL0     H 7390   5.963   6.296  11.441  0.2066 -0.8670  0.6234
   55MOL0     H 7391   5.892   6.440  11.636  0.1869 -3.1855  2.3613
   55MOL0     H 7392   6.045   6.362  11.625 -1.3206 -0.6311  1.7580
   55MOL0     H 7393   6.156   6.544  11.744  0.2265 -1.6579 -0.2792
   55MOL0     H 7394   6.025   6.654  11.732  2.8159  0.2331  1.5168
   55MOL0     H 7395   6.026   6.405  11.902  2.3398 -0.1501  0.0360
   55MOL0     H 7396   5.886   6.495  11.853  0.0214  1.0560  0.0638
   55MOL0     H 7397   6.135   6.630  11.983  0.0823  0.7828 -0.7304
   55MOL0     H 7398   5.970   6.698  11.961  0.3495  0.0742 -0.5047
   55MOL0     H 7399   6.094   6.591  12.196  0.8587 -3.2156  0.4629
   55MOL0     H 7400   6.014   6.456  12.143 -0.2032 -0.0851  2.4081
   55MOL0     H 7401   5.863   6.719  12.179  0.6300  0.2258  3.3742
   55MOL0     H 7402   5.802   6.557  12.134 -1.0533  1.1397  1.1740
   55MOL0     H 7403   5.953   6.646  12.372 -1.6591  2.2888  1.8051
   55MOL0     H 7404   5.875   6.479  12.363  2.3366  0.1535  1.0319
   55MOL0     H 7405   5.755   6.627  12.513 -1.3090  2.8863  0.7170
   55MOL0     H 7406   5.651   6.596  12.372 -0.3788 -1.1771  2.2642
   55MOL0     H 7407   6.173   6.637  11.339 -0.2267  0.2786  5.0247
   55MOL0     H 7408   6.244   6.535  11.113  1.4870 -2.4781  0.6498
   55MOL0     H 7409   6.243   5.958  10.916 -0.7062  0.3097  0.0119
   55MOL0     H 7410   6.249   5.878  10.691  2.2152 -0.3778 -0.0280
   55MOL0     H 7411   6.335   7.575  10.279  0.5407  3.0280 -2.5464
   55MOL0     H 7412   6.158   7.557  10.129 -0.6031 -0.1343 -2.4668
   55MOL0     H 7413   6.073   7.738   9.699 -0.3340 -0.5661  0.3217
   55MOL0     H 7414   5.882   7.760   9.530 -3.4248 -0.7868  0.0805
   55MOL0     H 7415   5.558   7.474   9.548 -0.9181 -3.2256 -1.3951
   55MOL0     H 7416   5.516   7.573   9.415 -0.7852 -0.8623  0.6305
   55MOL0     H 7417   5.522   7.348   9.344  0.5692  0.2981  1.5075
   55MOL0     H 7418   5.691   7.345   9.417  0.4497  1.7103  1.3782
   55MOL0     H 7419   5.776   7.453   9.224 -0.8219 -3.2755  1.0772
   55MOL0     H 7420   5.628   7.541   9.201  0.5696 -0.0534 -0.8195
   55MOL0     H 7421   5.528   7.304   9.134 -0.8347  1.9397 -2.5009
   55MOL0     H 7422   5.695   7.250   9.125  1.1280  0.6217  0.2882
   55MOL0     H 7423   5.624   7.479   8.768  0.7308 -0.2801  0.3392
   55MOL0     H 7424   5.746   7.375   9.632 -0.4995  1.1440  1.9773
   55MOL0     H 7425   5.955   7.333   9.773 -0.5559 -0.5998 -1.4037
   56MOL0     O 7426   2.591   6.424   5.622  0.2622  0.1937 -0.7874
   56MOL0     C 7427   2.501   6.492   5.587  0.5008 -0.6190  0.3924
   56MOL0     O 7428   2.380   6.443   5.540 -0.4907 -0.0236 -0.1129
   56MOL0     C 7429   2.358   6.314   5.520  0.0300 -0.7933  0.3566
   56MOL0     C 7430   2.456   6.221   5.482 -1.2665 -0.6867  0.5702
   56MOL0     C 7431   2.423   6.088   5.471 -1.6501  0.5066 -0.1591
   56MOL0     C 7432   2.303   6.029   5.495  1.2293 -0.9215  0.5665
   56MOL0     O 7433   2.296   5.896   5.461 -0.3324  0.0729  0.0258
   56MOL0     C 7434   2.170   5.837   5.445 -1.1250  0.6722  0.2379
   56MOL0     C 7435   2.190   5.682   5.447 -0.5424 -0.7724 -0.0730
   56MOL0     C 7436   2.266   5.640   5.322  1.2097 -0.3217 -0.0785
   56MOL0     C 7437   2.307   5.501   5.328 -0.1724  0.5618 -0.3088
   56MOL0     C 7438   2.341   5.454   5.188 -0.4855  1.0056  1.0525
   56MOL0     C 7439   2.395   5.309   5.169 -0.1794 -0.9165  0.2212
   56MOL0     C 7440   2.293   5.203   5.185  0.5255 -0.1658 -0.4571
   56MOL0     C 7441   2.363   5.070   5.212  0.6292 -0.4714 -0.5682
   56MOL0     N 7442   2.285   4.952   5.165 -1.4542 -0.1950 -0.1713
   56MOL0     C 7443   2.167   4.899   5.208 -0.1675 -0.3889  1.1632
   56MOL0     C 7444   2.143   4.794   5.127 -0.3073 -0.1251  0.1650
   56MOL0     C 7445   2.022   4.703   5.116  0.0632 -0.2391  0.1551
   56MOL0     C 7446   2.050   4.562   5.154  0.9615  0.0070 -0.7265
   56MOL0     C 7447   2.147   4.489   5.056 -0.4809 -0.8233  0.5077
   56MOL0     C 7448   2.130   4.333   5.059  0.8340  0.7288 -0.6024
   56MOL0     O 7449   2.124   4.286   5.197 -1.1333  0.4326  1.0465
   56MOL0     C 7450   2.238   4.304   5.275 -0.4109  0.3478  0.4414
   56MOL0     C 7451   2.218   4.275   5.412 -0.6400  0.5964 -0.0427
   56MOL0     C 7452   2.321   4.247   5.501  0.4336 -0.0431  0.7254
   56MOL0     C 7453   2.286   4.205   5.640 -0.5726 -0.0340  0.1119
   56MOL0     C 7454   2.456   4.239   5.448  0.8575  0.4123 -0.9686
   56MOL0     C 7455   2.578   4.204   5.531 -0.0677  0.1724  0.1989
   56MOL0     O 7456   2.567   4.221   5.665  0.4227  0.3723 -0.6363
   56MOL0     C 7457   2.662   4.169   5.754  0.4128 -0.0687 -0.0754
   56MOL0     C 7458   2.640   4.083   5.863 -0.9690 -1.2053  0.9331
   56MOL0     C 7459   2.752   4.039   5.943  0.3938  0.0283  0.2620
   56MOL0     C 7460   2.878   4.092   5.920 -0.2844  0.6811 -0.1101
   56MOL0     O 7461   2.967   4.042   6.017  0.6128  0.8784 -0.2229
   56MOL0     C 7462   3.102   4.083   6.001  0.5232  0.0736  0.5644
   56MOL0     C 7463   3.186   4.041   6.126 -1.3019  0.0348  0.3835
   56MOL0     C 7464   3.214   3.887   6.123  0.0273 -0.6325  0.6255
   56MOL0     C 7465   3.273   3.851   6.250 -0.8745  1.0226  0.3592
   56MOL0     C 7466   3.401   3.925   6.285 -0.0238 -0.5096  0.7925
   56MOL0     C 7467   3.510   3.840   6.352 -0.8889 -0.9579 -0.5937
   56MOL0     C 7468   3.641   3.925   6.361 -0.2793 -0.0950 -0.0241
   56MOL0     C 7469   3.766   3.838   6.384  0.8057 -0.4745 -0.1049
   56MOL0    Cl 7470   3.783   3.797   6.559  0.1989 -0.2407  0.4500
   56MOL0     C 7471   2.905   4.177   5.809 -0.5768  0.2015 -0.3696
   56MOL0     C 7472   2.794   4.210   5.738  0.8045  1.3785  0.6024
   56MOL0     O 7473   2.668   4.147   5.473  0.0996 -0.5534 -0.1945
   56MOL0     C 7474   2.467   4.271   5.315 -0.4419  0.0338  1.1903
   56MOL0     C 7475   2.366   4.316   5.229 -0.0538  0.2696 -1.0676
   56MOL0     N 7476   2.263   4.774   5.059  0.5466  0.1143 -0.2031
   56MOL0     N 7477   2.342   4.873   5.081 -0.8026 -0.5935  0.4108
   56MOL0     C 7478   2.208   6.123   5.545  0.6336  0.5917 -0.1921
   56MOL0     C 7479   2.233   6.259   5.558  0.0965  1.0324  0.4848
   56MOL0     C 7480   2.507   6.639   5.626  0.3828 -1.2366  0.2311
   56MOL0     C 7481   2.631   6.709   5.642 -0.0448  0.4834  0.1381
   56MOL0     C 7482   2.627   6.842   5.666 -0.2773 -1.1192  0.4508
   56MOL0     C 7483   2.502   6.916   5.687  0.1297 -0.2876 -0.5945
   56MOL0     O 7484   2.501   7.040   5.726 -0.2013 -0.2002 -0.1783
   56MOL0     C 7485   2.413   7.069   5.841  0.7264 -0.4795  0.0446
   56MOL0     C 7486   2.304   7.174   5.797 -0.0090  0.1680  0.1049
   56MOL0     C 7487   2.360   7.297   5.741 -0.1152  0.2418 -0.3909
   56MOL0     C 7488   2.260   7.404   5.696  1.1080 -1.1190  0.2627
   56MOL0     C 7489   2.164   7.486   5.779 -0.3809  1.5456  1.0091
   56MOL0     C 7490   2.101   7.553   5.848  0.6275  0.0648 -0.5807
   56MOL0     C 7491   2.375   6.850   5.671 -1.1065 -0.0759  0.5168
   56MOL0     C 7492   2.389   6.720   5.646 -1.8341  0.1759 -0.3939
   56MOL0     H 7493   2.551   6.268   5.460 -2.4188  1.3247 -0.3170
   56MOL0     H 7494   2.498   6.020   5.431 -2.0528  0.5539 -1.0273
   56MOL0     H 7495   2.098   5.862   5.524  0.0284 -0.2511  1.6409
   56MOL0     H 7496   2.116   5.874   5.357  0.0038  1.8018 -0.0054
   56MOL0     H 7497   2.246   5.654   5.537  2.6184 -0.2423 -1.7185
   56MOL0     H 7498   2.095   5.628   5.454 -0.5778 -0.7126 -0.0922
   56MOL0     H 7499   2.206   5.671   5.235  0.1056  1.5831  1.2931
   56MOL0     H 7500   2.356   5.702   5.327 -0.1298  2.0211 -2.4375
   56MOL0     H 7501   2.396   5.489   5.390 -0.3760 -0.9936 -0.2582
   56MOL0     H 7502   2.222   5.436   5.353  0.4743  0.3238  1.3703
   56MOL0     H 7503   2.250   5.466   5.130  0.0620  1.3365  0.2498
   56MOL0     H 7504   2.422   5.513   5.144  0.9442 -0.0710  2.1177
   56MOL0     H 7505   2.421   5.301   5.063  0.5908 -0.3789  0.3635
   56MOL0     H 7506   2.486   5.280   5.223 -0.1689 -1.9390 -0.3205
   56MOL0     H 7507   2.225   5.212   5.270 -2.5399 -0.0187 -2.7618
   56MOL0     H 7508   2.232   5.203   5.095 -1.5079  0.7813  0.8476
   56MOL0     H 7509   2.372   5.043   5.318  2.8835 -2.3445 -1.1547
   56MOL0     H 7510   2.465   5.069   5.174  0.6089  0.1512 -0.6396
   56MOL0     H 7511   2.102   4.945   5.281  0.1773  0.6657  0.8206
   56MOL0     H 7512   1.947   4.754   5.177  0.8676  0.6290  0.4496
   56MOL0     H 7513   1.992   4.715   5.011  5.0858  1.0252 -1.4448
   56MOL0     H 7514   1.957   4.505   5.152  1.3661 -1.1729  3.6181
   56MOL0     H 7515   2.075   4.558   5.260  0.9462  0.4107 -0.7063
   56MOL0     H 7516   2.249   4.519   5.081 -0.2241 -0.2637 -1.1389
   56MOL0     H 7517   2.120   4.526   4.957  1.6145  0.0037  0.2110
   56MOL0     H 7518   2.207   4.282   5.001  0.2112 -0.8640 -0.0736
   56MOL0     H 7519   2.036   4.303   5.012  1.2749  0.2048 -1.1668
   56MOL0     H 7520   2.112   4.268   5.436 -1.4669  0.6753 -3.2349
   56MOL0     H 7521   2.328   4.105   5.656  1.5442  1.0692  2.0155
   56MOL0     H 7522   2.319   4.266   5.725 -5.1141 -0.8581  2.7470
   56MOL0     H 7523   2.178   4.202   5.652 -0.8540  3.0963 -0.7449
   56MOL0     H 7524   2.541   4.040   5.875 -2.3633  1.1739 -1.1183
   56MOL0     H 7525   2.738   3.971   6.026  0.0870  0.9414  0.9650
   56MOL0     H 7526   3.150   4.046   5.910  1.9455  1.6213  0.6402
   56MOL0     H 7527   3.112   4.190   5.979  0.7707 -0.3118 -1.3798
   56MOL0     H 7528   3.287   4.082   6.117 -1.7835  1.5712  1.5325
   56MOL0     H 7529   3.134   4.070   6.218 -1.6872  0.1554  0.1332
   56MOL0     H 7530   3.284   3.868   6.041  3.4720 -0.8253  3.3536
   56MOL0     H 7531   3.118   3.837   6.108  0.1158 -0.4074 -0.8898
   56MOL0     H 7532   3.203   3.888   6.325 -0.8191  3.9003 -0.8747
   56MOL0     H 7533   3.277   3.742   6.256 -0.3020  1.0982  1.5815
   56MOL0     H 7534   3.378   4.013   6.347 -0.2869 -0.6681  0.9198
   56MOL0     H 7535   3.441   3.955   6.188  1.6721  0.6944  1.7979
   56MOL0     H 7536   3.484   3.795   6.448 -2.3692  0.8660 -0.0707
   56MOL0     H 7537   3.526   3.748   6.295 -3.8747 -1.9130 -0.0780
   56MOL0     H 7538   3.632   3.988   6.450  0.0784 -0.0587 -0.0125
   56MOL0     H 7539   3.672   3.991   6.279  0.3938 -2.3938 -1.7331
   56MOL0     H 7540   3.849   3.901   6.351  1.4200 -2.3351 -2.3512
   56MOL0     H 7541   3.769   3.747   6.324  3.7634  0.0210 -0.8573
   56MOL0     H 7542   2.999   4.212   5.768 -1.1794  0.1406 -1.8828
   56MOL0     H 7543   2.802   4.277   5.652 -2.1848  1.3339  0.1903
   56MOL0     H 7544   2.563   4.269   5.265 -0.4491 -1.6542  1.1639
   56MOL0     H 7545   2.380   4.345   5.126 -0.4077  2.8945 -0.4529
   56MOL0     H 7546   2.110   6.088   5.573  1.7602 -2.9685 -0.2557
   56MOL0     H 7547   2.145   6.308   5.598 -1.4894 -2.4955  1.7103
   56MOL0     H 7548   2.728   6.662   5.626  0.7711  1.9977  0.3526
   56MOL0     H 7549   2.713   6.905   5.685 -1.6917  1.0478  0.0162
   56MOL0     H 7550   2.369   6.979   5.885 -3.0410  1.1355 -0.0779
   56MOL0     H 7551   2.481   7.116   5.913  0.4521 -1.1132  0.7332
   56MOL0     H 7552   2.236   7.202   5.877 -1.5455 -0.1194 -1.0522
   56MOL0     H 7553   2.253   7.115   5.720 -0.7606  2.0107 -0.8460
   56MOL0     H 7554   2.426   7.268   5.659 -2.7207 -3.6372 -1.3578
   56MOL0     H 7555   2.423   7.339   5.820 -0.5319 -2.0700  1.2747
   56MOL0     H 7556   2.193   7.368   5.618  0.0239  2.0976 -0.4556
   56MOL0     H 7557   2.330   7.481   5.661  2.0373 -0.9384  2.3806
   56MOL0     H 7558   2.035   7.620   5.899 -1.0012 -0.9437 -1.2688
   56MOL0     H 7559   2.283   6.906   5.686 -1.0380  0.4778 -0.9494
   56MOL0     H 7560   2.290   6.675   5.647 -1.9893  0.3954 -2.1511
   57MOL0     O 7561   7.957   0.463  11.082 -0.2421 -0.0949  0.8129
   57MOL0     C 7562   7.971   0.581  11.116 -0.9584  0.1959 -0.0550
   57MOL0     O 7563   8.009   0.620  11.242 -0.3145 -0.3233 -0.1718
   57MOL0     C 7564   8.045   0.536  11.350 -0.8851 -0.9413  0.0114
   57MOL0     C 7565   8.032   0.399  11.364  0.7165 -0.2988  0.7966
   57MOL0     C 7566   8.076   0.335  11.479  0.2100  0.5804 -0.0616
   57MOL0     C 7567   8.138   0.403  11.588 -0.0640  0.3261  1.0737
   57MOL0     O 7568   8.179   0.354  11.706 -1.2387 -0.1130 -0.4999
   57MOL0     C 7569   8.182   0.211  11.722  0.4670  0.5932  1.0044
   57MOL0     C 7570   8.239   0.190  11.854  0.0654  0.3038 -0.3771
   57MOL0     C 7571   8.144   0.212  11.963  0.5815 -0.6624  0.1112
   57MOL0     C 7572   8.231   0.247  12.090  0.2490 -0.6998 -0.7373
   57MOL0     C 7573   8.130   0.243  12.215  0.8879  0.1917 -0.2858
   57MOL0     C 7574   8.212   0.273  12.353  0.5439  0.1653 -0.1805
   57MOL0     C 7575   8.110   0.247  12.469  0.3790  0.6033 -0.3361
   57MOL0     C 7576   8.179   0.284  12.618 -0.4391  0.2567  0.3393
   57MOL0     N 7577   8.107   0.236  12.728  0.2529  0.0706 -0.2063
   57MOL0     C 7578   7.968   0.231  12.732 -1.4545  0.1599  0.5579
   57MOL0     C 7579   7.949   0.182  12.859  0.6473  0.0093 -0.5073
   57MOL0     C 7580   7.819   0.164  12.929 -0.1163 -0.0831  0.8063
   57MOL0     C 7581   7.707   0.250  12.876  0.1548  0.3922 -0.7586
   57MOL0     C 7582   7.573   0.197  12.930  0.3634  0.5114 -0.3342
   57MOL0     C 7583   7.538   0.212  13.085 -0.2295  0.7184 -0.4344
   57MOL0     O 7584   7.550   0.351  13.120 -1.0839  0.4023 -0.0425
   57MOL0     C 7585   7.475   0.396  13.230 -0.2459  0.3694  0.0523
   57MOL0     C 7586   7.469   0.534  13.262  0.0680  0.1401  0.0978
   57MOL0     C 7587   7.417   0.585  13.385 -0.5405  0.3818 -0.0255
   57MOL0     C 7588   7.421   0.738  13.397 -0.1499 -0.2899  0.1842
   57MOL0     C 7589   7.353   0.499  13.478 -0.0078 -0.5065  0.1115
   57MOL0     C 7590   7.304   0.539  13.609  1.4601  0.3036 -0.7145
   57MOL0     O 7591   7.312   0.668  13.651  0.2677  0.2431 -0.5387
   57MOL0     C 7592   7.288   0.699  13.782  0.7382  0.9101 -0.0961
   57MOL0     C 7593   7.162   0.677  13.831  0.2032 -0.4911  0.1131
   57MOL0     C 7594   7.126   0.698  13.966 -0.9703 -0.1286 -0.2537
   57MOL0     C 7595   7.218   0.738  14.063  0.2020 -0.9935  0.8620
   57MOL0     O 7596   7.188   0.760  14.198 -0.3757  0.2202 -0.5198
   57MOL0     C 7597   7.084   0.848  14.234 -0.0307  0.2136  0.1870
   57MOL0     C 7598   7.067   0.824  14.387  0.5013 -1.2724 -0.6258
   57MOL0     C 7599   7.195   0.815  14.473 -0.1521 -1.3637  0.1381
   57MOL0     C 7600   7.146   0.778  14.612 -0.2778 -0.0197 -0.7004
   57MOL0     C 7601   7.271   0.774  14.710 -0.1043 -0.9506 -0.7454
   57MOL0     C 7602   7.212   0.773  14.852 -0.8316 -0.6196 -0.8518
   57MOL0     C 7603   7.153   0.907  14.901 -1.1628  0.7138 -0.2266
   57MOL0     C 7604   7.094   0.897  15.043 -0.5346 -0.7357  0.2515
   57MOL0    Cl 7605   7.046   1.064  15.085 -0.1081 -0.0377  0.0055
   57MOL0     C 7606   7.340   0.768  14.010 -0.1881  1.3225  0.5988
   57MOL0     C 7607   7.381   0.749  13.873  0.4098 -0.9353  0.0964
   57MOL0     O 7608   7.256   0.451  13.674  0.5807  0.7034  0.0017
   57MOL0     C 7609   7.344   0.367  13.438 -0.3458  0.3365 -0.6323
   57MOL0     C 7610   7.400   0.319  13.318 -0.0414  0.1394 -0.1592
   57MOL0     N 7611   8.071   0.156  12.918 -1.0087 -0.3756 -0.4400
   57MOL0     N 7612   8.163   0.182  12.837  0.2610 -0.4747 -0.0990
   57MOL0     C 7613   8.150   0.539  11.572  0.4209  0.6921 -0.7396
   57MOL0     C 7614   8.097   0.605  11.458 -0.2284  0.1346 -0.6634
   57MOL0     C 7615   7.941   0.687  11.017  0.4685  0.1076  1.0646
   57MOL0     C 7616   7.898   0.654  10.889 -0.2410  0.9874  0.3765
   57MOL0     C 7617   7.847   0.742  10.792 -0.0732  0.1176 -0.3396
   57MOL0     C 7618   7.856   0.879  10.814 -0.5566  0.3187 -0.9677
   57MOL0     O 7619   7.814   0.959  10.712 -0.1692 -0.6019 -0.6924
   57MOL0     C 7620   7.827   1.106  10.722 -0.2958  0.1185  0.4192
   57MOL0     C 7621   7.684   1.169  10.707  0.2834 -0.2316 -0.2290
   57MOL0     C 7622   7.705   1.319  10.699  0.1025 -0.5216  0.8224
   57MOL0     C 7623   7.582   1.398  10.691  1.4543 -0.3139  0.0224
   57MOL0     C 7624   7.493   1.378  10.812  0.3508 -0.8489 -0.4029
   57MOL0     C 7625   7.411   1.362  10.899  0.5250  0.0069 -0.9794
   57MOL0     C 7626   7.907   0.919  10.938 -0.1415 -0.4794  0.6108
   57MOL0     C 7627   7.934   0.824  11.040 -0.6227 -0.4722 -0.0974
   57MOL0     H 7628   7.995   0.343  11.279  0.8498  1.0224 -0.1659
   57MOL0     H 7629   8.057   0.228  11.486  2.8412  0.1587  3.1519
   57MOL0     H 7630   8.084   0.164  11.713  1.2318 -1.2979  1.9456
   57MOL0     H 7631   8.247   0.170  11.644 -2.6137 -1.9931 -0.4650
   57MOL0     H 7632   8.261   0.083  11.855 -3.2847 -0.5143 -1.0775
   57MOL0     H 7633   8.335   0.241  11.868  0.9376 -1.7841  2.0121
   57MOL0     H 7634   8.097   0.310  11.953  2.8362  0.4802  0.2004
   57MOL0     H 7635   8.073   0.132  11.984 -1.1107  0.2916 -1.6659
   57MOL0     H 7636   8.317   0.180  12.099  1.3226  0.6695 -0.4440
   57MOL0     H 7637   8.260   0.351  12.069 -0.8793 -0.7943 -3.1204
   57MOL0     H 7638   8.060   0.327  12.204  2.1068  1.7407  2.6969
   57MOL0     H 7639   8.083   0.144  12.208 -1.1543  1.1748 -1.3932
   57MOL0     H 7640   8.303   0.213  12.364  0.6866  0.7187  2.1480
   57MOL0     H 7641   8.241   0.377  12.343  1.1490 -0.1304 -1.7870
   57MOL0     H 7642   8.022   0.309  12.453  2.6461  4.6125  1.0919
   57MOL0     H 7643   8.082   0.142  12.475 -0.9117  1.0215  1.9047
   57MOL0     H 7644   8.196   0.392  12.629  0.8550  0.0803  0.2765
   57MOL0     H 7645   8.277   0.237  12.609 -1.5430 -2.7027  2.3634
   57MOL0     H 7646   7.896   0.277  12.665 -0.0515  2.3219  0.4337
   57MOL0     H 7647   7.797   0.057  12.932  0.4135 -0.1818  1.4750
   57MOL0     H 7648   7.830   0.209  13.028 -1.0547  2.2061 -0.0496
   57MOL0     H 7649   7.710   0.257  12.767  4.4606 -1.1597 -0.9472
   57MOL0     H 7650   7.716   0.355  12.906  3.5486 -0.2297  0.9015
   57MOL0     H 7651   7.567   0.094  12.893 -2.3881  1.4967 -3.0090
   57MOL0     H 7652   7.507   0.249  12.862  2.6449  2.8571 -0.9067
   57MOL0     H 7653   7.604   0.152  13.148  2.0428  2.3600 -1.1270
   57MOL0     H 7654   7.435   0.176  13.100  0.4989 -1.6919 -0.8036
   57MOL0     H 7655   7.518   0.602  13.193 -1.0446  0.5614 -0.2986
   57MOL0     H 7656   7.332   0.781  13.443  0.4586  1.0270  0.1756
   57MOL0     H 7657   7.507   0.773  13.455  0.8893 -2.1787 -0.1044
   57MOL0     H 7658   7.446   0.790  13.305  4.4316 -0.7616  0.8929
   57MOL0     H 7659   7.086   0.655  13.758 -0.1454 -0.0407  0.3378
   57MOL0     H 7660   7.027   0.683  14.007 -1.0408 -1.4586 -0.8564
   57MOL0     H 7661   7.119   0.949  14.209  0.1656  0.5333  1.6388
   57MOL0     H 7662   6.993   0.817  14.183  0.9053 -1.2435 -0.6690
   57MOL0     H 7663   7.010   0.913  14.418  1.4077 -0.7336 -0.4548
   57MOL0     H 7664   7.003   0.736  14.388 -1.3184 -0.0002 -0.4609
   57MOL0     H 7665   7.251   0.909  14.474  0.1607 -1.4237  3.8244
   57MOL0     H 7666   7.260   0.741  14.425  0.4529  0.6701 -2.4119
   57MOL0     H 7667   7.072   0.849  14.648  0.8359  1.5279 -1.3762
   57MOL0     H 7668   7.101   0.678  14.616  0.6440 -0.4351 -0.3543
   57MOL0     H 7669   7.336   0.862  14.707 -0.3520 -0.5562  2.3129
   57MOL0     H 7670   7.327   0.689  14.671 -0.3747  0.4048 -4.5984
   57MOL0     H 7671   7.140   0.690  14.856  0.7002 -2.1081 -2.3937
   57MOL0     H 7672   7.293   0.753  14.923 -1.1217  4.3070  1.2052
   57MOL0     H 7673   7.085   0.945  14.824  1.4202  3.1128 -1.5012
   57MOL0     H 7674   7.226   0.988  14.906 -0.5225  0.2958 -2.0597
   57MOL0     H 7675   7.167   0.865  15.118 -0.4556  0.1891  0.5927
   57MOL0     H 7676   7.016   0.822  15.055 -1.2990  0.1002  0.6621
   57MOL0     H 7677   7.412   0.817  14.076 -1.6280  3.7847  0.4667
   57MOL0     H 7678   7.477   0.758  13.823 -0.3914  0.2966 -1.3063
   57MOL0     H 7679   7.286   0.301  13.503 -2.0988  1.8056 -0.6191
   57MOL0     H 7680   7.409   0.211  13.310  3.2990  0.2320  0.7864
   57MOL0     H 7681   8.204   0.591  11.651  2.8116 -1.6152 -0.7380
   57MOL0     H 7682   8.102   0.714  11.453 -0.1244  0.1657 -0.0491
   57MOL0     H 7683   7.890   0.548  10.870  4.1360  0.7572 -1.3822
   57MOL0     H 7684   7.808   0.698  10.701  1.1706  2.1832 -1.9815
   57MOL0     H 7685   7.871   1.149  10.812  0.3249 -1.0416  0.6931
   57MOL0     H 7686   7.886   1.144  10.637  0.6054  0.6105  1.2481
   57MOL0     H 7687   7.632   1.139  10.799 -2.8077 -3.2044 -2.6898
   57MOL0     H 7688   7.632   1.144  10.615 -1.7574  0.1202  0.7761
   57MOL0     H 7689   7.773   1.336  10.615  0.8622  1.9706  1.8814
   57MOL0     H 7690   7.763   1.355  10.784  0.0520  3.1974 -0.5255
   57MOL0     H 7691   7.521   1.386  10.600  1.2263  0.5902  0.0416
   57MOL0     H 7692   7.605   1.504  10.678 -0.7926  0.0278 -1.8917
   57MOL0     H 7693   7.334   1.321  10.961  2.6331  1.1762  2.7043
   57MOL0     H 7694   7.899   1.025  10.959  1.4038  0.7212 -3.7468
   57MOL0     H 7695   7.945   0.860  11.142 -1.2980 -0.8222  0.1039
   58MOL0     O 7696   6.606   6.874   6.820  0.2138 -0.7400 -0.2489
   58MOL0     C 7697   6.691   6.846   6.910  0.2364  0.3214 -0.1828
   58MOL0     O 7698   6.788   6.754   6.897  0.4620  0.6806 -0.1703
   58MOL0     C 7699   6.797   6.689   6.779 -0.0720  0.0138  0.3954
   58MOL0     C 7700   6.775   6.554   6.758 -0.1181 -0.0700 -0.6397
   58MOL0     C 7701   6.794   6.491   6.635  0.4773  0.4746 -0.2528
   58MOL0     C 7702   6.834   6.576   6.531  0.6779  0.5175  0.1392
   58MOL0     O 7703   6.863   6.510   6.420  0.5810 -0.5692 -0.3885
   58MOL0     C 7704   6.985   6.531   6.357 -1.0391 -0.0951 -0.0277
   58MOL0     C 7705   6.985   6.474   6.212  0.1750  0.8813  0.3994
   58MOL0     C 7706   6.873   6.547   6.129 -0.3678 -1.0035  0.4179
   58MOL0     C 7707   6.930   6.648   6.032 -0.5231 -0.7415 -0.2263
   58MOL0     C 7708   6.833   6.748   5.962  0.4049  0.7187  0.2115
   58MOL0     C 7709   6.763   6.842   6.061 -0.1966  0.2006 -0.0333
   58MOL0     C 7710   6.847   6.955   6.115 -0.2389 -0.1420  0.1246
   58MOL0     C 7711   6.767   7.049   6.205  0.2645 -0.4409 -0.0070
   58MOL0     N 7712   6.853   7.110   6.310 -0.9211 -0.5376  0.5970
   58MOL0     C 7713   6.944   7.209   6.273 -0.7391  0.0205 -0.2221
   58MOL0     C 7714   7.014   7.235   6.396  0.5830  0.0351  0.1037
   58MOL0     C 7715   7.144   7.313   6.413  0.3079 -0.1686  0.6386
   58MOL0     C 7716   7.239   7.251   6.509  0.1528  0.2457  0.2207
   58MOL0     C 7717   7.368   7.325   6.540 -0.5973  0.3643 -0.8712
   58MOL0     C 7718   7.343   7.459   6.603 -0.2974 -0.1552 -0.3599
   58MOL0     O 7719   7.463   7.529   6.639 -0.0711 -0.3566  0.2032
   58MOL0     C 7720   7.537   7.609   6.551 -0.4516  1.7003 -0.2765
   58MOL0     C 7721   7.496   7.654   6.422 -0.3363 -0.7537  0.0600
   58MOL0     C 7722   7.586   7.735   6.348  0.6240  0.5340  0.2333
   58MOL0     C 7723   7.543   7.793   6.219  0.1050 -0.1053  0.5626
   58MOL0     C 7724   7.722   7.755   6.393  0.6461  0.3159  0.8480
   58MOL0     C 7725   7.828   7.823   6.310  0.3748  0.1089 -0.5929
   58MOL0     O 7726   7.845   7.781   6.177  0.0755 -0.2320 -0.4417
   58MOL0     C 7727   7.944   7.828   6.093  0.4969 -0.5704 -0.0964
   58MOL0     C 7728   8.005   7.738   6.016  0.1576 -0.1683  0.2501
   58MOL0     C 7729   8.119   7.759   5.950 -0.0955 -0.2397 -1.0342
   58MOL0     C 7730   8.170   7.893   5.949 -0.9406 -0.8882  0.1116
   58MOL0     O 7731   8.280   7.916   5.867  0.1225 -0.3435  0.5079
   58MOL0     C 7732   8.297   8.057   5.826 -0.6807  0.7161 -0.1013
   58MOL0     C 7733   8.185   8.111   5.730 -0.7319  0.4709 -0.9951
   58MOL0     C 7734   8.192   8.066   5.583 -0.8908 -0.3039  0.6746
   58MOL0     C 7735   8.201   7.905   5.565 -0.5266 -0.6299  0.5697
   58MOL0     C 7736   8.076   7.832   5.600 -0.2756  0.0490 -0.6005
   58MOL0     C 7737   8.091   7.674   5.589 -0.8266 -0.2413 -0.6103
   58MOL0     C 7738   7.953   7.613   5.610  0.3962  0.0520 -0.5224
   58MOL0     C 7739   7.966   7.467   5.664 -0.8566 -0.1506 -0.7834
   58MOL0    Cl 7740   8.071   7.378   5.567 -0.1915 -0.0945 -0.0884
   58MOL0     C 7741   8.119   7.990   6.033  0.0378 -0.9313 -0.6224
   58MOL0     C 7742   8.004   7.956   6.112 -0.4667  0.3402 -0.7111
   58MOL0     O 7743   7.900   7.905   6.373  0.0587  0.5778  0.4331
   58MOL0     C 7744   7.756   7.715   6.520  0.4579  0.9168 -0.0205
   58MOL0     C 7745   7.662   7.647   6.596  0.1093  0.0133 -0.1120
   58MOL0     N 7746   6.956   7.156   6.495  0.1507 -0.4044  0.4681
   58MOL0     N 7747   6.870   7.080   6.441  0.0447 -0.6847 -0.7959
   58MOL0     C 7748   6.856   6.713   6.550  1.0029  0.5468  0.1546
   58MOL0     C 7749   6.827   6.769   6.669 -0.1873  0.0675  0.3840
   58MOL0     C 7750   6.694   6.926   7.029 -0.3730 -0.9169 -0.0321
   58MOL0     C 7751   6.761   6.885   7.142  0.7396  0.1372  0.6270
   58MOL0     C 7752   6.755   6.958   7.262 -0.5929  1.0799  0.9757
   58MOL0     C 7753   6.711   7.091   7.261  0.0752 -0.2992  0.0854
   58MOL0     O 7754   6.715   7.171   7.375  1.0825 -0.1587 -0.2882
   58MOL0     C 7755   6.782   7.126   7.495  0.6844  0.4421 -0.0794
   58MOL0     C 7756   6.751   7.223   7.609 -0.0453 -0.2321 -0.2002
   58MOL0     C 7757   6.600   7.238   7.655 -0.2643 -0.2838  0.1190
   58MOL0     C 7758   6.588   7.185   7.802  0.2703 -0.2198 -0.2221
   58MOL0     C 7759   6.675   7.252   7.894 -0.2636 -0.3951  0.5233
   58MOL0     C 7760   6.743   7.304   7.978 -1.0943 -0.2629  0.6698
   58MOL0     C 7761   6.647   7.137   7.148 -0.0715 -0.0791  0.1407
   58MOL0     C 7762   6.631   7.058   7.031  0.4283  0.5571 -0.4194
   58MOL0     H 7763   6.755   6.486   6.840  2.1022 -2.8284 -2.2169
   58MOL0     H 7764   6.763   6.389   6.615 -4.1085  1.6367 -0.3087
   58MOL0     H 7765   7.000   6.637   6.334  5.5215 -0.9242 -1.5211
   58MOL0     H 7766   7.073   6.492   6.408 -0.1522  0.8597 -0.7687
   58MOL0     H 7767   7.073   6.485   6.148 -1.0480 -0.5024 -1.6243
   58MOL0     H 7768   6.971   6.366   6.217 -0.4709  0.9803  0.9955
   58MOL0     H 7769   6.825   6.487   6.050  2.4158 -1.2919 -1.2026
   58MOL0     H 7770   6.798   6.594   6.193  0.0357 -0.0146  0.1770
   58MOL0     H 7771   7.011   6.699   6.085  0.6338 -1.3090 -1.3862
   58MOL0     H 7772   6.977   6.584   5.956  0.4284 -0.9976  0.5512
   58MOL0     H 7773   6.895   6.811   5.898  0.8125 -0.4925 -0.6114
   58MOL0     H 7774   6.766   6.695   5.894  1.3809 -1.0643  0.5663
   58MOL0     H 7775   6.681   6.902   6.019 -1.4072  0.5987  2.6737
   58MOL0     H 7776   6.718   6.773   6.134 -1.8053 -1.9335 -2.8109
   58MOL0     H 7777   6.919   6.909   6.183 -0.1607 -0.4065 -0.1366
   58MOL0     H 7778   6.902   7.006   6.035  0.8128  1.9401  2.0524
   58MOL0     H 7779   6.684   6.997   6.254  0.5204  0.0617  0.9949
   58MOL0     H 7780   6.725   7.139   6.159  0.9538  2.6625  4.7300
   58MOL0     H 7781   6.954   7.250   6.174  2.1539 -2.6218 -1.1889
   58MOL0     H 7782   7.201   7.317   6.320 -0.3593  1.5344  0.2823
   58MOL0     H 7783   7.125   7.416   6.444  2.3435  1.1813 -2.2275
   58MOL0     H 7784   7.258   7.145   6.492 -2.7867 -0.5755  1.3990
   58MOL0     H 7785   7.175   7.246   6.598 -0.1979 -3.5570 -0.0587
   58MOL0     H 7786   7.439   7.324   6.456 -0.3331 -0.8437 -0.6532
   58MOL0     H 7787   7.415   7.260   6.614 -2.1804 -1.6505 -1.5130
   58MOL0     H 7788   7.283   7.437   6.692 -2.7999 -1.6575 -2.2832
   58MOL0     H 7789   7.291   7.527   6.536 -0.9290 -0.4301 -0.1499
   58MOL0     H 7790   7.396   7.644   6.381 -0.4581 -1.9015  0.5992
   58MOL0     H 7791   7.604   7.759   6.134 -0.7031 -1.6651  0.5630
   58MOL0     H 7792   7.438   7.773   6.197  0.2355  0.3450 -0.5618
   58MOL0     H 7793   7.556   7.901   6.220 -2.2792  0.3758 -2.7020
   58MOL0     H 7794   7.956   7.641   6.010  0.1833 -0.5644  3.9748
   58MOL0     H 7795   8.174   7.680   5.900 -0.4449 -0.6503 -0.7804
   58MOL0     H 7796   8.335   8.121   5.907 -1.7536 -0.2787  1.2489
   58MOL0     H 7797   8.386   8.050   5.762  1.7664  3.2699  2.6929
   58MOL0     H 7798   8.089   8.070   5.765 -0.6128 -2.6879 -3.7599
   58MOL0     H 7799   8.196   8.219   5.730  2.6751  0.2829  1.8794
   58MOL0     H 7800   8.279   8.115   5.540 -2.8895  2.4907 -0.4810
   58MOL0     H 7801   8.112   8.103   5.519  2.6345  1.0165 -3.3647
   58MOL0     H 7802   8.219   7.881   5.460 -0.3991 -2.6673  1.0285
   58MOL0     H 7803   8.288   7.874   5.624  0.8587  0.1772 -0.9698
   58MOL0     H 7804   7.989   7.868   5.545 -1.6663 -2.3185 -0.1000
   58MOL0     H 7805   8.039   7.851   5.701 -1.3076 -0.0144 -0.9570
   58MOL0     H 7806   8.143   7.645   5.497  1.8324  3.5582 -0.5521
   58MOL0     H 7807   8.165   7.641   5.662  0.9920  0.7318 -1.9223
   58MOL0     H 7808   7.893   7.613   5.519  0.1488  1.6863 -0.3822
   58MOL0     H 7809   7.896   7.675   5.679  2.6132  2.4923 -0.7324
   58MOL0     H 7810   7.872   7.414   5.682 -1.0686  0.3804 -0.2640
   58MOL0     H 7811   8.018   7.474   5.760  2.4190 -2.4706 -2.2053
   58MOL0     H 7812   8.135   8.097   6.037  0.9766 -0.8779 -3.6243
   58MOL0     H 7813   7.963   8.028   6.181 -0.3079 -1.2121  1.0730
   58MOL0     H 7814   7.855   7.750   6.548  0.8482  1.5106 -1.9529
   58MOL0     H 7815   7.697   7.619   6.694 -4.3056 -1.8035  1.2066
   58MOL0     H 7816   6.868   6.769   6.458 -1.5274  1.0504  0.0462
   58MOL0     H 7817   6.845   6.876   6.664  2.6644 -0.2012  2.2254
   58MOL0     H 7818   6.802   6.784   7.148 -1.8844 -1.0049  1.0215
   58MOL0     H 7819   6.791   6.912   7.353 -3.9955 -2.5525  0.7213
   58MOL0     H 7820   6.756   7.024   7.526  1.1129 -0.1078 -1.4382
   58MOL0     H 7821   6.887   7.124   7.462  0.7205  0.3134  0.0430
   58MOL0     H 7822   6.773   7.325   7.576 -1.2019  0.0441 -0.1308
   58MOL0     H 7823   6.821   7.199   7.690  0.2914  1.4590  0.0305
   58MOL0     H 7824   6.543   7.174   7.587 -1.6008  2.4756 -1.5046
   58MOL0     H 7825   6.568   7.341   7.636  0.2872  0.0269  0.8301
   58MOL0     H 7826   6.617   7.081   7.789  2.5543  0.3188  0.2511
   58MOL0     H 7827   6.485   7.202   7.835  0.0581  1.3486 -1.5371
   58MOL0     H 7828   6.798   7.352   8.057 -0.4541  2.2419 -1.1491
   58MOL0     H 7829   6.610   7.237   7.126  0.0730  0.3953  1.9511
   58MOL0     H 7830   6.584   7.099   6.943  3.8326  0.5749 -2.3720
   59MOL0     O 7831   4.896   6.152   1.831  0.2108 -0.4558 -1.3258
   59MOL0     C 7832   4.816   6.059   1.825 -0.5067 -0.9985 -0.5080
   59MOL0     O 7833   4.771   6.002   1.709  0.1958  0.2340 -0.8407
   59MOL0     C 7834   4.807   6.035   1.584 -0.2653 -0.4679 -0.1541
   59MOL0     C 7835   4.936   6.085   1.547  0.6042  0.2225 -0.6330
   59MOL0     C 7836   4.967   6.085   1.412  0.0685 -0.1218  0.6620
   59MOL0     C 7837   4.875   6.055   1.317  0.1712 -0.3477  0.6137
   59MOL0     O 7838   4.891   6.052   1.186 -0.7815 -0.3497  0.6435
   59MOL0     C 7839   5.030   6.049   1.127  0.6251 -0.1584  0.7231
   59MOL0     C 7840   5.007   6.084   0.970  0.1297  0.0802 -0.3690
   59MOL0     C 7841   4.944   6.222   0.941 -0.0520  0.5965 -0.1399
   59MOL0     C 7842   5.019   6.345   0.999 -0.3919  0.3630  0.5151
   59MOL0     C 7843   5.010   6.454   0.888  0.0170  0.1757 -0.3158
   59MOL0     C 7844   4.858   6.513   0.859 -0.3489  0.4708 -0.0131
   59MOL0     C 7845   4.817   6.603   0.982 -0.6024  0.3946 -0.5157
   59MOL0     C 7846   4.663   6.596   1.014  0.3824  0.3266 -0.0992
   59MOL0     N 7847   4.569   6.619   0.900 -0.5576 -0.4877  0.0137
   59MOL0     C 7848   4.429   6.599   0.899 -0.4718  0.3108 -0.1661
   59MOL0     C 7849   4.393   6.685   0.798  0.2061 -0.6748  0.0869
   59MOL0     C 7850   4.262   6.751   0.778 -0.7150 -0.2502  1.0873
   59MOL0     C 7851   4.197   6.710   0.642  0.1563 -0.5963  0.3173
   59MOL0     C 7852   4.081   6.801   0.591 -0.7615 -0.4576  0.0940
   59MOL0     C 7853   3.957   6.797   0.684  0.1572  0.4930  0.3467
   59MOL0     O 7854   3.873   6.691   0.655 -0.7021 -0.5737  0.0469
   59MOL0     C 7855   3.805   6.633   0.756 -0.5516 -0.9164  0.3811
   59MOL0     C 7856   3.770   6.698   0.873  0.3518 -0.7604  0.1218
   59MOL0     C 7857   3.701   6.633   0.974  0.6708 -0.0265 -0.3135
   59MOL0     C 7858   3.637   6.711   1.071  0.1193  0.1338  0.2847
   59MOL0     C 7859   3.665   6.495   0.963 -0.1484 -0.1238  0.1532
   59MOL0     C 7860   3.617   6.419   1.081  0.2432  0.2824 -0.0562
   59MOL0     O 7861   3.570   6.287   1.056  0.3650 -1.3607  0.8158
   59MOL0     C 7862   3.483   6.227   1.148 -0.7841 -0.1972 -0.4462
   59MOL0     C 7863   3.525   6.130   1.249 -0.3137 -0.3282  0.4719
   59MOL0     C 7864   3.448   6.105   1.368  0.4568 -0.3946 -0.3433
   59MOL0     C 7865   3.315   6.139   1.366 -0.4164 -0.0057 -1.1037
   59MOL0     O 7866   3.233   6.091   1.464 -0.2141 -0.0017 -0.1710
   59MOL0     C 7867   3.097   6.124   1.458 -0.4143 -0.6328  0.3566
   59MOL0     C 7868   3.013   6.049   1.563 -0.6446  0.1382  0.5432
   59MOL0     C 7869   2.988   5.910   1.517 -0.6076 -0.5426  0.8097
   59MOL0     C 7870   2.901   5.837   1.612  0.4287 -0.0777 -0.8181
   59MOL0     C 7871   2.848   5.706   1.564  0.7199  0.1090 -0.6493
   59MOL0     C 7872   2.933   5.616   1.492 -0.1133  0.1727  0.3225
   59MOL0     C 7873   2.850   5.482   1.471  0.2090 -0.0456 -0.2836
   59MOL0     C 7874   2.941   5.385   1.395  0.9337 -0.0830 -0.2267
   59MOL0    Cl 7875   3.020   5.454   1.251 -0.0632 -0.1210  0.0065
   59MOL0     C 7876   3.275   6.233   1.268  0.6973  0.5069 -0.7947
   59MOL0     C 7877   3.357   6.277   1.161 -0.8052  0.1028 -1.5362
   59MOL0     O 7878   3.625   6.465   1.197  0.7901  0.2018  0.5480
   59MOL0     C 7879   3.695   6.429   0.840 -0.7126  0.1551  0.1377
   59MOL0     C 7880   3.763   6.498   0.741  0.7164 -0.4978 -0.0782
   59MOL0     N 7881   4.503   6.724   0.724 -0.3585 -0.0692  0.0025
   59MOL0     N 7882   4.608   6.686   0.788 -0.1430  0.0398  0.5426
   59MOL0     C 7883   4.741   6.022   1.352 -0.6138  0.2395  0.0795
   59MOL0     C 7884   4.708   6.003   1.490 -0.2567 -0.0132  0.4585
   59MOL0     C 7885   4.752   6.015   1.954  0.2286  0.0088  0.2502
   59MOL0     C 7886   4.648   5.926   1.959  0.4185 -1.2300  0.3895
   59MOL0     C 7887   4.589   5.885   2.074  0.0177 -0.9647  0.1325
   59MOL0     C 7888   4.637   5.931   2.194 -1.5286 -0.0814  0.4990
   59MOL0     O 7889   4.603   5.886   2.319 -0.2531 -0.1658 -0.4240
   59MOL0     C 7890   4.505   5.770   2.317 -0.5182  0.1867 -0.4475
   59MOL0     C 7891   4.486   5.706   2.465  0.4033 -0.2625 -0.3409
   59MOL0     C 7892   4.338   5.663   2.492 -1.1857  0.1013 -0.3908
   59MOL0     C 7893   4.328   5.588   2.623  0.0829 -0.6686  0.9162
   59MOL0     C 7894   4.342   5.682   2.732 -0.4104  1.3122 -0.5322
   59MOL0     C 7895   4.353   5.738   2.836 -2.3019 -0.1285  1.0156
   59MOL0     C 7896   4.732   6.031   2.196 -0.3837 -0.2877 -0.2503
   59MOL0     C 7897   4.791   6.076   2.073  0.5897 -1.5077 -0.7021
   59MOL0     H 7898   5.013   6.085   1.623  0.3585 -1.3275 -0.3544
   59MOL0     H 7899   5.069   6.109   1.383  0.1705 -1.0770  0.1899
   59MOL0     H 7900   5.101   6.119   1.173  0.0120  0.1197  1.2601
   59MOL0     H 7901   5.059   5.947   1.152 -1.3878 -0.2868  2.8834
   59MOL0     H 7902   5.103   6.069   0.920  0.3742 -1.0633  0.3865
   59MOL0     H 7903   4.942   6.010   0.923 -0.2608  0.1481  0.0580
   59MOL0     H 7904   4.960   6.228   0.833  1.3362 -0.6526 -0.0335
   59MOL0     H 7905   4.838   6.230   0.968  0.0850 -0.3340  0.7474
   59MOL0     H 7906   4.974   6.383   1.091 -1.3231  0.9562 -0.1632
   59MOL0     H 7907   5.124   6.322   1.021 -1.0465 -2.6168  1.0353
   59MOL0     H 7908   5.074   6.537   0.919  2.9270 -2.5704  1.6950
   59MOL0     H 7909   5.042   6.418   0.790 -1.5627 -0.9369 -0.4479
   59MOL0     H 7910   4.858   6.584   0.775  1.7345  1.0918  0.4428
   59MOL0     H 7911   4.785   6.436   0.833 -1.6350  1.8541 -0.6526
   59MOL0     H 7912   4.883   6.587   1.068 -2.8054  2.4062  1.7190
   59MOL0     H 7913   4.841   6.707   0.960  0.1639  0.1764 -0.7418
   59MOL0     H 7914   4.627   6.650   1.102 -0.1727  0.6291 -0.5045
   59MOL0     H 7915   4.639   6.492   1.035 -0.5029  0.5381 -0.0040
   59MOL0     H 7916   4.380   6.561   0.988  3.1815 -2.4261  0.9299
   59MOL0     H 7917   4.195   6.725   0.861 -2.4255 -1.1041 -0.4837
   59MOL0     H 7918   4.275   6.859   0.770  0.9317 -0.5653 -1.7659
   59MOL0     H 7919   4.170   6.609   0.675  4.4905 -2.0158  0.1873
   59MOL0     H 7920   4.262   6.709   0.553 -0.7781  1.4563 -0.4676
   59MOL0     H 7921   4.043   6.774   0.492 -0.5771 -0.5354  0.0450
   59MOL0     H 7922   4.108   6.906   0.579  0.5824 -0.6626  1.1482
   59MOL0     H 7923   3.899   6.890   0.686  0.2883  0.6077  2.8522
   59MOL0     H 7924   3.990   6.794   0.788  0.3204 -0.0030  0.2830
   59MOL0     H 7925   3.799   6.801   0.890  1.6045 -1.0392 -0.1667
   59MOL0     H 7926   3.657   6.811   1.031  2.2958 -1.1250 -2.0231
   59MOL0     H 7927   3.529   6.695   1.075 -0.1407  1.8279  1.0607
   59MOL0     H 7928   3.667   6.699   1.175 -0.2649  0.9156  0.5005
   59MOL0     H 7929   3.626   6.092   1.251  0.6320  1.6376 -2.8374
   59MOL0     H 7930   3.479   6.045   1.452 -3.0345  1.8298  2.8627
   59MOL0     H 7931   3.081   6.229   1.483 -1.9843  0.0833 -3.0025
   59MOL0     H 7932   3.057   6.086   1.363 -0.3273 -2.7103  1.0800
   59MOL0     H 7933   3.054   6.053   1.664 -2.7541 -3.7926  1.7547
   59MOL0     H 7934   2.919   6.105   1.563 -4.6703 -5.7398  0.4819
   59MOL0     H 7935   3.083   5.858   1.506 -1.3579 -2.4631  2.7025
   59MOL0     H 7936   2.948   5.918   1.415  0.2119  1.6002  0.6145
   59MOL0     H 7937   2.954   5.803   1.701 -2.4807 -1.9435  0.3373
   59MOL0     H 7938   2.821   5.904   1.645  1.2261 -0.6919  2.8172
   59MOL0     H 7939   2.761   5.736   1.505  0.7137  3.0735  0.7117
   59MOL0     H 7940   2.805   5.650   1.649 -0.4674 -1.3244 -2.1237
   59MOL0     H 7941   2.972   5.669   1.405  1.5252 -1.7795 -0.2358
   59MOL0     H 7942   3.015   5.592   1.561 -0.7885  0.9684  1.4392
   59MOL0     H 7943   2.758   5.493   1.413 -0.4467 -1.3000  0.4822
   59MOL0     H 7944   2.827   5.437   1.568  3.1466  0.0273  0.5510
   59MOL0     H 7945   2.886   5.293   1.373  1.8024 -0.1351 -2.4082
   59MOL0     H 7946   3.025   5.358   1.460  0.4904 -1.5932 -0.2418
   59MOL0     H 7947   3.176   6.278   1.262  1.2605  1.6680 -1.9176
   59MOL0     H 7948   3.317   6.355   1.097  2.7925  4.0403  0.5386
   59MOL0     H 7949   3.665   6.326   0.825 -0.8630  0.0030  1.3777
   59MOL0     H 7950   3.800   6.451   0.650  0.5397  2.1643 -1.6128
   59MOL0     H 7951   4.675   6.003   1.268  0.3778  0.4529 -0.7581
   59MOL0     H 7952   4.613   5.959   1.517  1.4755 -4.0045  0.6233
   59MOL0     H 7953   4.615   5.868   1.874  1.4897 -1.7901  0.3358
   59MOL0     H 7954   4.503   5.819   2.075  0.1539 -1.1436  0.1688
   59MOL0     H 7955   4.410   5.819   2.295 -1.7342 -1.5583  0.6286
   59MOL0     H 7956   4.522   5.693   2.241  1.6443 -0.4037  0.5643
   59MOL0     H 7957   4.501   5.788   2.535 -2.3112  0.4011 -0.4352
   59MOL0     H 7958   4.562   5.631   2.491 -2.0914 -2.1548  2.1438
   59MOL0     H 7959   4.316   5.582   2.422 -1.1611 -0.9278  0.7503
   59MOL0     H 7960   4.275   5.751   2.484  3.3166  3.6513 -1.1662
   59MOL0     H 7961   4.410   5.516   2.624 -1.1867 -2.8174 -5.2197
   59MOL0     H 7962   4.234   5.532   2.625  0.4286 -1.6211 -2.2620
   59MOL0     H 7963   4.370   5.785   2.931 -1.1445  2.1840 -0.2481
   59MOL0     H 7964   4.767   6.073   2.289  5.4211 -2.8199 -0.9025
   59MOL0     H 7965   4.872   6.148   2.073  0.3740 -1.2622 -0.4620
   60MOL0     O 7966   5.373   9.077   8.767 -0.0745  0.0621 -1.0789
   60MOL0     C 7967   5.290   9.095   8.683 -0.3970 -0.4902  0.7223
   60MOL0     O 7968   5.229   9.213   8.664 -0.5972  0.3983  0.2143
   60MOL0     C 7969   5.270   9.321   8.738 -0.1647  0.3170 -0.4911
   60MOL0     C 7970   5.202   9.377   8.850 -0.6715  0.9053 -0.7644
   60MOL0     C 7971   5.251   9.487   8.920  0.2404  0.0663 -0.3777
   60MOL0     C 7972   5.382   9.529   8.894 -0.1103  1.0045 -0.2489
   60MOL0     O 7973   5.459   9.607   8.973 -0.0769 -0.7146 -0.0152
   60MOL0     C 7974   5.420   9.642   9.112 -0.8998 -1.0478  0.0946
   60MOL0     C 7975   5.529   9.744   9.155  0.0424  0.7383 -0.7366
   60MOL0     C 7976   5.661   9.672   9.176 -0.9705  0.7318 -0.5062
   60MOL0     C 7977   5.786   9.713   9.097 -0.1389 -0.2788 -0.2781
   60MOL0     C 7978   5.915   9.631   9.150  0.5554 -0.6231 -0.4395
   60MOL0     C 7979   5.913   9.481   9.103  0.0846 -0.6701  0.1740
   60MOL0     C 7980   6.056   9.405   9.115 -0.8355  0.1540  0.9092
   60MOL0     C 7981   6.178   9.499   9.093 -0.2698  0.2650 -0.5165
   60MOL0     N 7982   6.193   9.533   8.951  0.5001 -0.1796  0.2563
   60MOL0     C 7983   6.130   9.630   8.883 -0.2820 -0.1230 -0.1574
   60MOL0     C 7984   6.168   9.610   8.746  0.1432  0.5687 -0.7671
   60MOL0     C 7985   6.146   9.697   8.627  0.2483  0.1407  0.0193
   60MOL0     C 7986   6.276   9.764   8.574 -0.8549  0.5043 -0.1744
   60MOL0     C 7987   6.395   9.676   8.544  0.5145  0.9126  1.5263
   60MOL0     C 7988   6.353   9.559   8.446  0.2030  0.3261  0.4226
   60MOL0     O 7989   6.246   9.596   8.348  1.0928 -0.5266 -0.1124
   60MOL0     C 7990   6.195   9.510   8.264 -0.2638 -0.1302  0.1552
   60MOL0     C 7991   6.052   9.520   8.246  1.4103 -0.2638 -0.4483
   60MOL0     C 7992   5.998   9.451   8.135  0.0273  0.1956 -0.3420
   60MOL0     C 7993   5.848   9.454   8.123  0.2948 -0.3664 -0.5383
   60MOL0     C 7994   6.084   9.380   8.044  0.0363 -0.3209 -0.5248
   60MOL0     C 7995   6.031   9.317   7.923  0.2461  0.3494  0.1668
   60MOL0     O 7996   5.906   9.334   7.892  0.0838  0.8953  0.1876
   60MOL0     C 7997   5.839   9.243   7.808 -0.7342 -0.7463  0.8014
   60MOL0     C 7998   5.712   9.199   7.853 -1.5015 -1.1411 -0.2986
   60MOL0     C 7999   5.634   9.115   7.773  0.3507 -0.2144  1.2645
   60MOL0     C 8000   5.680   9.076   7.652  0.1606  0.3253 -0.1187
   60MOL0     O 8001   5.610   8.980   7.573  0.2701 -0.4622  0.6914
   60MOL0     C 8002   5.534   8.873   7.645 -0.4703 -0.3607  0.5338
   60MOL0     C 8003   5.385   8.864   7.612  0.3636  0.4274 -0.1221
   60MOL0     C 8004   5.299   8.989   7.645  0.8027 -0.9280 -0.1187
   60MOL0     C 8005   5.302   9.088   7.522  0.5775  0.1834  0.5656
   60MOL0     C 8006   5.219   9.207   7.568 -0.3140 -0.4676  0.4293
   60MOL0     C 8007   5.199   9.297   7.449  0.0647  0.7538  0.4469
   60MOL0     C 8008   5.111   9.423   7.489 -0.1528 -0.0149 -0.3268
   60MOL0     C 8009   5.048   9.496   7.375 -0.1964 -0.3791 -0.1765
   60MOL0    Cl 8010   4.908   9.396   7.293  0.0979  0.9829 -0.4840
   60MOL0     C 8011   5.802   9.119   7.604  0.2961 -0.0630 -0.4199
   60MOL0     C 8012   5.882   9.198   7.682  0.0066 -0.1617 -0.3293
   60MOL0     O 8013   6.105   9.237   7.862 -0.0907  0.3740 -1.0843
   60MOL0     C 8014   6.215   9.371   8.066  0.2023  0.1401  0.1412
   60MOL0     C 8015   6.271   9.426   8.179  0.1240 -0.1881  0.9179
   60MOL0     N 8016   6.262   9.501   8.755 -0.2874 -0.5171 -0.3681
   60MOL0     N 8017   6.280   9.458   8.877 -0.2848 -0.8253  0.4501
   60MOL0     C 8018   5.442   9.481   8.780 -0.2192 -0.8474  0.0267
   60MOL0     C 8019   5.376   9.394   8.698 -0.0129  0.4225 -0.2060
   60MOL0     C 8020   5.250   8.980   8.592 -0.3563 -0.0957 -0.8788
   60MOL0     C 8021   5.324   8.863   8.603 -0.9370 -0.3006 -0.5685
   60MOL0     C 8022   5.281   8.749   8.541  0.4830  0.9456 -0.0863
   60MOL0     C 8023   5.160   8.752   8.465 -0.5935 -0.4493  0.1000
   60MOL0     O 8024   5.110   8.639   8.410 -0.0143  0.0734 -0.8123
   60MOL0     C 8025   5.067   8.542   8.503  0.6479  0.3284 -0.5732
   60MOL0     C 8026   4.982   8.428   8.436  0.3110  0.6917  0.3665
   60MOL0     C 8027   4.843   8.461   8.380  0.4466  0.7765 -0.2988
   60MOL0     C 8028   4.787   8.361   8.283 -0.7628 -0.0432  0.2813
   60MOL0     C 8029   4.646   8.396   8.271  0.2641 -0.1153  0.3196
   60MOL0     C 8030   4.524   8.421   8.269  0.2911  1.7087 -0.1029
   60MOL0     C 8031   5.090   8.866   8.443  0.4115  0.0725  0.8569
   60MOL0     C 8032   5.134   8.983   8.509  0.1605  0.1892  0.6341
   60MOL0     H 8033   5.115   9.324   8.886 -1.7335  3.4086  0.6221
   60MOL0     H 8034   5.203   9.525   9.009 -0.4257 -0.0277 -0.6916
   60MOL0     H 8035   5.320   9.687   9.117 -0.5605 -0.3432  0.6581
   60MOL0     H 8036   5.407   9.566   9.190 -1.6642 -0.7857  0.2275
   60MOL0     H 8037   5.547   9.817   9.075 -1.5333 -1.1551 -2.9723
   60MOL0     H 8038   5.503   9.795   9.248 -3.7638 -3.1625  0.6990
   60MOL0     H 8039   5.686   9.701   9.278  0.8812  1.4048 -1.1037
   60MOL0     H 8040   5.649   9.564   9.172 -0.5814  0.7098 -1.5634
   60MOL0     H 8041   5.768   9.710   8.989  0.6443  1.0021 -0.4656
   60MOL0     H 8042   5.803   9.818   9.118  2.4978 -0.7270  0.0876
   60MOL0     H 8043   5.994   9.696   9.113 -0.2479 -0.3217 -1.6928
   60MOL0     H 8044   5.927   9.624   9.259  1.6677 -0.1147 -0.5196
   60MOL0     H 8045   5.838   9.415   9.147  0.1128  0.8115  2.6801
   60MOL0     H 8046   5.874   9.485   9.001 -3.8997  2.3379  1.5574
   60MOL0     H 8047   6.056   9.375   9.220  2.5539 -2.9269  0.2388
   60MOL0     H 8048   6.054   9.310   9.059  0.5929  1.7721 -2.1548
   60MOL0     H 8049   6.271   9.444   9.110  0.9182  2.3811  0.2456
   60MOL0     H 8050   6.179   9.584   9.162  1.5254 -0.4927  0.4743
   60MOL0     H 8051   6.070   9.708   8.929  2.4502  3.1807 -1.7504
   60MOL0     H 8052   6.093   9.637   8.551  1.9187 -1.5135  0.0956
   60MOL0     H 8053   6.082   9.778   8.663 -2.8453 -2.6155  1.2213
   60MOL0     H 8054   6.313   9.832   8.651 -5.3316  0.5683  2.2325
   60MOL0     H 8055   6.262   9.823   8.482  1.4117  4.5741  1.8049
   60MOL0     H 8056   6.459   9.651   8.628  0.9997 -0.0460  0.8924
   60MOL0     H 8057   6.453   9.738   8.475 -1.4490  1.4961  0.2873
   60MOL0     H 8058   6.327   9.472   8.507  2.4522 -1.1156 -0.5119
   60MOL0     H 8059   6.437   9.521   8.387  1.4760  2.8552  0.4876
   60MOL0     H 8060   6.004   9.580   8.322 -1.6166  0.8524 -3.0405
   60MOL0     H 8061   5.803   9.356   8.100 -0.9569  0.3459 -1.2636
   60MOL0     H 8062   5.796   9.498   8.208  0.6683  1.2547 -1.1127
   60MOL0     H 8063   5.813   9.512   8.037 -0.6661 -3.1943 -2.2192
   60MOL0     H 8064   5.671   9.227   7.950 -0.1623 -2.3135  0.6486
   60MOL0     H 8065   5.539   9.071   7.805  1.4694 -2.2943  1.9657
   60MOL0     H 8066   5.590   8.783   7.617  2.9779  1.0746  2.2120
   60MOL0     H 8067   5.541   8.884   7.754 -2.0162  1.8985  0.4756
   60MOL0     H 8068   5.383   8.840   7.505 -1.0329  2.2953 -0.5647
   60MOL0     H 8069   5.356   8.782   7.678  2.1742  0.0742  0.2955
   60MOL0     H 8070   5.326   9.049   7.733 -0.2365 -0.2496 -0.2385
   60MOL0     H 8071   5.196   8.957   7.665 -0.6858  3.0023 -0.6062
   60MOL0     H 8072   5.404   9.117   7.497  0.5407  2.1998  2.4059
   60MOL0     H 8073   5.251   9.029   7.446 -1.4919 -1.7318  3.2234
   60MOL0     H 8074   5.257   9.265   7.653 -0.2020  2.0034 -1.2164
   60MOL0     H 8075   5.118   9.171   7.591 -0.9325 -1.6496 -3.3973
   60MOL0     H 8076   5.289   9.320   7.391  1.6943  0.5771  2.7373
   60MOL0     H 8077   5.128   9.241   7.388 -0.4242  2.2068 -0.3590
   60MOL0     H 8078   5.171   9.500   7.537 -1.4734 -0.1014  1.5859
   60MOL0     H 8079   5.031   9.387   7.554 -0.8137 -2.4899 -2.3336
   60MOL0     H 8080   5.122   9.521   7.299 -0.6164 -0.7699 -0.7199
   60MOL0     H 8081   5.002   9.589   7.410  0.1933 -0.5668  0.8562
   60MOL0     H 8082   5.833   9.082   7.507  0.6949 -0.3943 -0.1679
   60MOL0     H 8083   5.982   9.229   7.654  0.5453  0.2350  1.8391
   60MOL0     H 8084   6.278   9.313   7.998 -2.0248 -1.0963 -0.9810
   60MOL0     H 8085   6.379   9.422   8.183  0.4830 -0.3591 -3.4279
   60MOL0     H 8086   5.535   9.533   8.759 -1.0180 -0.9687 -5.0407
   60MOL0     H 8087   5.437   9.356   8.617  0.1475 -0.2946  0.2381
   60MOL0     H 8088   5.417   8.866   8.658 -0.7629  0.2744 -0.8882
   60MOL0     H 8089   5.337   8.656   8.552  0.8288  1.0690 -0.7555
   60MOL0     H 8090   5.150   8.500   8.561 -2.0808  0.4153  3.8286
   60MOL0     H 8091   5.009   8.597   8.577 -1.1236 -1.2498 -0.7168
   60MOL0     H 8092   4.968   8.349   8.510  2.1745  1.9992  2.2080
   60MOL0     H 8093   5.050   8.393   8.357 -0.9860  3.6451 -2.2845
   60MOL0     H 8094   4.870   8.557   8.336 -1.9734  0.8722 -1.7561
   60MOL0     H 8095   4.772   8.470   8.462 -2.2539 -0.4765 -2.3136
   60MOL0     H 8096   4.794   8.253   8.298 -1.2770 -0.2864 -1.1187
   60MOL0     H 8097   4.836   8.391   8.190 -1.3022  0.8557  0.2753
   60MOL0     H 8098   4.417   8.420   8.268  0.2776  1.8448  0.4570
   60MOL0     H 8099   4.991   8.863   8.398  0.0869  0.7271  1.5061
   60MOL0     H 8100   5.093   9.081   8.490  0.3315  0.4850  1.6831
   61MOL0     O 8101   6.209   4.625   0.995 -0.4270 -0.4074 -0.2647
   61MOL0     C 8102   6.242   4.742   1.010  0.4322 -0.6762 -0.3653
   61MOL0     O 8103   6.168   4.846   0.956 -0.1809  1.0147  0.4241
   61MOL0     C 8104   6.048   4.820   0.900 -0.0495  0.3506 -0.6757
   61MOL0     C 8105   6.038   4.842   0.763 -1.1933 -0.3435  0.5130
   61MOL0     C 8106   5.915   4.839   0.701 -0.8245  0.1924 -1.2064
   61MOL0     C 8107   5.804   4.830   0.778  1.1059  1.1701 -0.0691
   61MOL0     O 8108   5.679   4.822   0.717 -0.4679 -0.6738 -1.4170
   61MOL0     C 8109   5.663   4.815   0.570 -0.5497 -0.4567 -1.3694
   61MOL0     C 8110   5.526   4.874   0.546 -0.2115 -0.2903  0.4408
   61MOL0     C 8111   5.492   4.875   0.397  0.3555 -0.0687 -0.4569
   61MOL0     C 8112   5.444   5.021   0.370  0.8089 -0.8565  0.3708
   61MOL0     C 8113   5.372   5.033   0.232 -0.4190  0.3530 -0.2720
   61MOL0     C 8114   5.263   5.143   0.246 -1.0878 -0.0951  0.3488
   61MOL0     C 8115   5.216   5.184   0.101  0.8241  0.4049 -0.4278
   61MOL0     C 8116   5.094   5.089   0.063  0.7593  0.2966  0.3605
   61MOL0     N 8117   5.022   5.134  -0.062  0.4268 -0.5280  0.1753
   61MOL0     C 8118   5.071   5.098  -0.189  0.3327  0.3907 -0.0607
   61MOL0     C 8119   5.022   5.194  -0.268  1.4765 -0.2998  0.2056
   61MOL0     C 8120   5.036   5.196  -0.421  0.9197 -0.5804 -0.1526
   61MOL0     C 8121   4.901   5.183  -0.500  1.6046 -0.2653  0.9393
   61MOL0     C 8122   4.841   5.044  -0.481  0.5870  0.6741 -0.1140
   61MOL0     C 8123   4.700   5.026  -0.535 -0.7116  0.5788  0.3506
   61MOL0     O 8124   4.625   5.114  -0.456  0.3083  0.3703 -0.1708
   61MOL0     C 8125   4.491   5.078  -0.460  0.4112 -0.4987 -0.2038
   61MOL0     C 8126   4.425   4.989  -0.373 -0.6805  0.1480 -0.7376
   61MOL0     C 8127   4.292   4.954  -0.400  0.4575  0.0917 -0.2539
   61MOL0     C 8128   4.232   4.842  -0.322  0.2302  0.1660 -0.8528
   61MOL0     C 8129   4.222   5.032  -0.503 -0.5587 -0.5071 -1.1897
   61MOL0     C 8130   4.071   5.018  -0.521  0.0855  0.3473  0.3194
   61MOL0     O 8131   4.007   5.126  -0.555 -0.1831 -0.8404 -0.2362
   61MOL0     C 8132   3.873   5.136  -0.586  0.3010  0.1282 -0.2913
   61MOL0     C 8133   3.779   5.043  -0.570  0.3790 -1.1582 -0.2773
   61MOL0     C 8134   3.646   5.073  -0.616 -0.1038 -0.5436 -0.5889
   61MOL0     C 8135   3.606   5.202  -0.664 -0.7865  0.2686  0.1740
   61MOL0     O 8136   3.476   5.224  -0.698 -0.6476  0.0119  0.2561
   61MOL0     C 8137   3.421   5.338  -0.621 -0.1079  0.8346 -0.9013
   61MOL0     C 8138   3.414   5.474  -0.699 -0.0355  0.6608  0.9251
   61MOL0     C 8139   3.334   5.449  -0.832 -0.1245  0.2458 -0.4244
   61MOL0     C 8140   3.280   5.584  -0.873 -0.3045 -0.1355  1.1552
   61MOL0     C 8141   3.383   5.673  -0.946  0.2213  1.1138 -0.3677
   61MOL0     C 8142   3.321   5.808  -0.984 -0.7755 -0.3361 -0.5187
   61MOL0     C 8143   3.289   5.905  -0.871  1.5459  0.9283  0.3799
   61MOL0     C 8144   3.415   5.959  -0.799 -1.2237 -0.4786  0.1223
   61MOL0    Cl 8145   3.486   5.831  -0.686  0.0392  0.1794 -0.1542
   61MOL0     C 8146   3.708   5.293  -0.692  0.3166 -0.4509 -0.4850
   61MOL0     C 8147   3.837   5.260  -0.654 -0.3104 -0.4010 -0.1610
   61MOL0     O 8148   4.033   4.896  -0.528  0.4275 -0.5399 -0.4981
   61MOL0     C 8149   4.283   5.125  -0.583 -0.7432 -0.7699  0.2623
   61MOL0     C 8150   4.422   5.131  -0.572 -0.3013 -0.4978 -0.0179
   61MOL0     N 8151   4.952   5.281  -0.193 -0.2849 -0.4268  0.3755
   61MOL0     N 8152   4.946   5.248  -0.070 -0.4452  0.0265  0.3493
   61MOL0     C 8153   5.803   4.798   0.912  0.4446 -0.3396 -0.0979
   61MOL0     C 8154   5.931   4.796   0.972  0.0666  0.1727  0.2453
   61MOL0     C 8155   6.371   4.785   1.076 -0.4259  0.6557 -0.2789
   61MOL0     C 8156   6.436   4.694   1.164 -0.2746  0.7294  0.7389
   61MOL0     C 8157   6.559   4.722   1.221 -0.3504 -0.0978 -0.8062
   61MOL0     C 8158   6.622   4.847   1.211  0.1795  0.2779  0.4667
   61MOL0     O 8159   6.749   4.875   1.271  0.7954 -0.7105  0.1485
   61MOL0     C 8160   6.774   4.810   1.403  0.0048  0.8593  0.7811
   61MOL0     C 8161   6.827   4.908   1.514  1.0081 -0.4587 -0.0728
   61MOL0     C 8162   6.982   4.909   1.524 -0.6498 -0.3679  0.8541
   61MOL0     C 8163   7.024   4.970   1.667 -0.6326 -0.6224  0.3004
   61MOL0     C 8164   7.032   4.854   1.767  0.2345 -0.7941  0.1106
   61MOL0     C 8165   7.043   4.764   1.845  1.6722  0.0854 -0.0403
   61MOL0     C 8166   6.552   4.946   1.136  0.2232 -0.4559 -0.1096
   61MOL0     C 8167   6.432   4.910   1.070  0.2557 -0.7176 -0.1350
   61MOL0     H 8168   6.122   4.871   0.702 -0.3441  1.6995  2.5035
   61MOL0     H 8169   5.909   4.856   0.594  0.7814  0.4228 -1.2941
   61MOL0     H 8170   5.741   4.860   0.507  1.3387 -3.7429 -1.6693
   61MOL0     H 8171   5.656   4.709   0.543 -0.7543 -0.5729 -0.8685
   61MOL0     H 8172   5.443   4.821   0.595  0.9898 -1.7756  0.9528
   61MOL0     H 8173   5.527   4.978   0.578  1.5312  0.4244 -1.7250
   61MOL0     H 8174   5.576   4.855   0.330 -1.5753 -0.8863 -2.7694
   61MOL0     H 8175   5.413   4.803   0.378 -0.0436  0.9315 -2.9267
   61MOL0     H 8176   5.363   5.031   0.442 -1.3809 -2.9509 -1.6467
   61MOL0     H 8177   5.529   5.089   0.385  2.5496 -2.8155 -0.0517
   61MOL0     H 8178   5.445   5.046   0.152  0.5923 -2.3483  0.0855
   61MOL0     H 8179   5.328   4.935   0.211 -0.3413  0.6766 -2.0576
   61MOL0     H 8180   5.191   5.108   0.320  0.5871 -0.8278  1.7256
   61MOL0     H 8181   5.308   5.228   0.297 -3.4304  0.5576  1.4226
   61MOL0     H 8182   5.186   5.288   0.093  1.4561  0.4361 -3.5455
   61MOL0     H 8183   5.295   5.174   0.026  2.3657  1.1368  1.0364
   61MOL0     H 8184   5.013   5.087   0.137 -1.7928  2.9341 -2.1168
   61MOL0     H 8185   5.129   4.985   0.055 -3.0805 -1.4797  3.2287
   61MOL0     H 8186   5.134   5.012  -0.208  0.3484 -0.9088  4.6049
   61MOL0     H 8187   5.085   5.286  -0.457 -0.5861  0.4656  0.3222
   61MOL0     H 8188   5.106   5.119  -0.454  0.5835  0.5884 -4.0668
   61MOL0     H 8189   4.912   5.198  -0.608 -1.2636 -0.7073  0.5198
   61MOL0     H 8190   4.833   5.260  -0.463  2.6744  0.0243  2.3839
   61MOL0     H 8191   4.847   5.023  -0.374 -1.6768 -0.6362 -0.1873
   61MOL0     H 8192   4.910   4.969  -0.519 -1.7638 -1.7125  0.0431
   61MOL0     H 8193   4.661   4.924  -0.541  1.5894 -0.2405 -2.1696
   61MOL0     H 8194   4.697   5.057  -0.639  2.0506 -0.9505 -0.2796
   61MOL0     H 8195   4.479   4.949  -0.288 -4.8794  0.9682  2.6376
   61MOL0     H 8196   4.150   4.889  -0.266 -0.6875  1.7621 -3.3624
   61MOL0     H 8197   4.205   4.751  -0.376  0.5511 -2.2225  2.6545
   61MOL0     H 8198   4.287   4.809  -0.234 -1.7574 -0.4287  0.2227
   61MOL0     H 8199   3.802   4.945  -0.528  2.2438 -0.5894  0.1112
   61MOL0     H 8200   3.577   4.990  -0.615  2.6883 -3.0525  1.6474
   61MOL0     H 8201   3.318   5.311  -0.593  0.3576 -1.7785 -1.4149
   61MOL0     H 8202   3.476   5.346  -0.526  1.1180  0.5837 -1.5675
   61MOL0     H 8203   3.361   5.548  -0.637 -2.5446  0.1035 -0.4083
   61MOL0     H 8204   3.510   5.522  -0.719  0.9204 -1.9289 -1.2782
   61MOL0     H 8205   3.247   5.384  -0.826 -0.3334  0.4215 -1.4062
   61MOL0     H 8206   3.397   5.399  -0.906 -0.1531 -2.5988  1.3263
   61MOL0     H 8207   3.185   5.573  -0.926 -2.3870  1.1686  4.3217
   61MOL0     H 8208   3.251   5.648  -0.789 -1.2988  0.7688  0.1407
   61MOL0     H 8209   3.408   5.623  -1.041 -3.6760  0.8588 -1.4052
   61MOL0     H 8210   3.477   5.679  -0.889  0.1263 -1.0216  0.1084
   61MOL0     H 8211   3.391   5.852  -1.055 -0.8580 -4.1199 -3.2564
   61MOL0     H 8212   3.224   5.798  -1.033  0.1456  0.9771 -2.7288
   61MOL0     H 8213   3.215   5.858  -0.805  3.1960 -2.5267  0.0348
   61MOL0     H 8214   3.237   5.985  -0.924  0.8453 -0.8951 -1.8680
   61MOL0     H 8215   3.394   6.050  -0.743  1.3035  0.9670 -1.1253
   61MOL0     H 8216   3.500   5.978  -0.865 -1.6928  0.4120 -0.2351
   61MOL0     H 8217   3.691   5.391  -0.736  1.0286 -1.0190 -2.1057
   61MOL0     H 8218   3.922   5.321  -0.681 -0.7942 -0.2028 -1.3000
   61MOL0     H 8219   4.229   5.187  -0.654  1.1452  1.4562  0.6666
   61MOL0     H 8220   4.483   5.196  -0.633 -0.5685  1.3826  1.5923
   61MOL0     H 8221   5.714   4.779   0.969 -0.2291  1.7067 -0.3690
   61MOL0     H 8222   5.927   4.778   1.079  0.0678  2.0729  0.6039
   61MOL0     H 8223   6.390   4.597   1.148 -0.1315  0.9182 -1.0309
   61MOL0     H 8224   6.607   4.640   1.272 -1.4959 -1.7063 -2.1785
   61MOL0     H 8225   6.681   4.758   1.429 -3.6153  5.1804 -1.9223
   61MOL0     H 8226   6.856   4.739   1.391 -1.8097 -1.2498  0.2036
   61MOL0     H 8227   6.769   4.882   1.603  1.6821  3.5813  1.7443
   61MOL0     H 8228   6.793   5.002   1.471  0.6302 -0.0857  1.0015
   61MOL0     H 8229   7.042   4.955   1.444 -2.1195 -1.4529 -0.9459
   61MOL0     H 8230   7.008   4.803   1.521 -0.2777 -0.2923  1.2838
   61MOL0     H 8231   6.948   5.045   1.689 -3.2652 -2.2921 -2.2749
   61MOL0     H 8232   7.118   5.025   1.667 -2.3150  2.4414 -0.4641
   61MOL0     H 8233   7.062   4.684   1.914 -0.0503  1.0437  1.6532
   61MOL0     H 8234   6.597   5.045   1.127  1.0664 -0.8556 -0.4379
   61MOL0     H 8235   6.397   4.990   1.005 -3.1809 -0.8976  1.3030
   62MOL0     O 8236   4.357   9.262  11.075 -0.0160  0.3641 -0.6662
   62MOL0     C 8237   4.295   9.346  11.136  0.2369  0.2093  0.8932
   62MOL0     O 8238   4.192   9.325  11.218 -0.0121  0.4742  0.6526
   62MOL0     C 8239   4.128   9.197  11.227 -0.8929  0.8006 -0.0763
   62MOL0     C 8240   4.027   9.203  11.318  0.3072  0.4137  1.0763
   62MOL0     C 8241   3.929   9.095  11.334 -0.2415 -0.4645 -0.2496
   62MOL0     C 8242   3.930   8.977  11.250 -0.2388  0.1024  0.1864
   62MOL0     O 8243   3.829   8.881  11.259  0.5802 -0.1142  0.3401
   62MOL0     C 8244   3.815   8.786  11.146  0.1309 -0.1952 -0.7315
   62MOL0     C 8245   3.719   8.676  11.191  0.6488  0.8245  0.5170
   62MOL0     C 8246   3.572   8.721  11.205 -0.4397  0.0135  0.1432
   62MOL0     C 8247   3.472   8.601  11.193  0.2335  0.3058 -0.4098
   62MOL0     C 8248   3.322   8.650  11.214 -0.5608 -0.8267  0.2397
   62MOL0     C 8249   3.231   8.535  11.265  0.6882  0.5918 -0.2792
   62MOL0     C 8250   3.194   8.438  11.146 -0.7246 -0.5853  0.2894
   62MOL0     C 8251   3.134   8.313  11.205  0.6315 -0.6153  0.2719
   62MOL0     N 8252   3.090   8.223  11.091 -0.0333 -0.1239 -0.9317
   62MOL0     C 8253   3.185   8.164  11.013 -0.5797 -1.2131  2.2042
   62MOL0     C 8254   3.125   8.088  10.922 -0.6554  0.1490 -0.5237
   62MOL0     C 8255   3.179   7.997  10.819 -0.1462 -0.4351  0.1852
   62MOL0     C 8256   3.243   8.066  10.693 -0.4035 -0.1827 -0.7449
   62MOL0     C 8257   3.182   8.188  10.641 -0.0379  0.8295 -0.1160
   62MOL0     C 8258   3.050   8.162  10.565  1.1789 -0.8245 -0.8924
   62MOL0     O 8259   2.984   8.277  10.509  0.1162 -0.9522 -0.2651
   62MOL0     C 8260   2.903   8.364  10.585  0.4803 -0.9356  0.5490
   62MOL0     C 8261   2.870   8.371  10.721  0.6026 -0.0095 -0.2671
   62MOL0     C 8262   2.779   8.465  10.777 -0.4508  0.9292  0.1591
   62MOL0     C 8263   2.728   8.436  10.912 -0.5694  0.3897 -0.2993
   62MOL0     C 8264   2.726   8.564  10.694 -0.8627 -0.6149  0.3687
   62MOL0     C 8265   2.627   8.670  10.746  0.5502 -0.5147 -0.3156
   62MOL0     O 8266   2.636   8.712  10.874  0.5681 -0.6443 -0.9687
   62MOL0     C 8267   2.555   8.815  10.923  0.1865 -0.3806  0.9324
   62MOL0     C 8268   2.608   8.907  11.000 -0.2498  0.8709 -0.6715
   62MOL0     C 8269   2.543   9.020  11.042  0.1302 -0.3340 -0.6731
   62MOL0     C 8270   2.407   9.032  11.015  0.2547 -0.1516 -0.8936
   62MOL0     O 8271   2.341   9.143  11.059 -0.1174 -0.0112 -0.3053
   62MOL0     C 8272   2.241   9.203  10.969 -0.6832  0.2075 -0.7347
   62MOL0     C 8273   2.231   9.353  10.989  0.2264  0.6811 -0.1999
   62MOL0     C 8274   2.192   9.385  11.138  0.1932 -0.2946  0.2805
   62MOL0     C 8275   2.136   9.530  11.145  0.2149 -0.4683 -0.7699
   62MOL0     C 8276   2.164   9.593  11.283  0.1259  0.7109  0.6217
   62MOL0     C 8277   2.136   9.525  11.408  0.4403  0.7253  0.7448
   62MOL0     C 8278   2.135   9.606  11.535  0.3089 -0.0359 -0.3872
   62MOL0     C 8279   2.281   9.600  11.602 -0.4045 -0.2147  0.5732
   62MOL0    Cl 8280   2.261   9.676  11.764  0.1706 -0.1708 -0.1503
   62MOL0     C 8281   2.341   8.936  10.940  0.5697  0.0436  0.1390
   62MOL0     C 8282   2.418   8.821  10.900  0.3430 -0.3931  0.5821
   62MOL0     O 8283   2.556   8.734  10.663 -0.1756  0.1797 -0.4535
   62MOL0     C 8284   2.766   8.564  10.552  0.2032 -0.0088  0.0230
   62MOL0     C 8285   2.847   8.462  10.498 -0.0305  0.7386 -0.9891
   62MOL0     N 8286   2.987   8.088  10.960 -1.0711  0.3576 -0.3954
   62MOL0     N 8287   2.972   8.170  11.060 -0.2587  0.4458 -0.2134
   62MOL0     C 8288   4.039   8.975  11.159  0.1624 -0.2436  0.3653
   62MOL0     C 8289   4.135   9.080  11.150  1.0527 -0.2609  1.1064
   62MOL0     C 8290   4.341   9.483  11.101  0.2883 -1.0490  0.3162
   62MOL0     C 8291   4.264   9.594  11.138  0.3092 -0.8418  0.8920
   62MOL0     C 8292   4.309   9.728  11.111 -1.4557  0.2496  1.0880
   62MOL0     C 8293   4.426   9.752  11.046 -0.3443 -0.0218  0.4640
   62MOL0     O 8294   4.466   9.887  11.036 -0.0356  0.4200  0.1984
   62MOL0     C 8295   4.562   9.930  10.942 -1.1957  0.0174  0.3158
   62MOL0     C 8296   4.572  10.082  10.940  0.4797  0.2944  0.9079
   62MOL0     C 8297   4.615  10.149  11.066 -0.1701 -0.2143  0.4714
   62MOL0     C 8298   4.670  10.287  11.056  0.8030 -0.0518 -0.3575
   62MOL0     C 8299   4.753  10.314  11.174  0.7224 -0.6147 -0.8915
   62MOL0     C 8300   4.803  10.354  11.280  0.3395 -0.0484 -0.2375
   62MOL0     C 8301   4.503   9.640  10.998 -0.5813  0.0491 -0.4305
   62MOL0     C 8302   4.458   9.505  11.023 -0.5548 -0.3714 -0.1038
   62MOL0     H 8303   4.026   9.292  11.379  2.8035  1.4070 -0.1647
   62MOL0     H 8304   3.842   9.109  11.397 -1.8774  1.5368 -2.7419
   62MOL0     H 8305   3.777   8.829  11.053  1.2702 -1.1993 -1.6974
   62MOL0     H 8306   3.915   8.743  11.141  0.9249  1.0384  2.4088
   62MOL0     H 8307   3.717   8.594  11.119  0.9109 -1.4593  2.9586
   62MOL0     H 8308   3.754   8.624  11.281 -3.6182  0.7039  2.3442
   62MOL0     H 8309   3.551   8.783  11.293  0.4232 -0.6276  0.8223
   62MOL0     H 8310   3.555   8.772  11.110  2.7486 -1.7020 -1.5183
   62MOL0     H 8311   3.487   8.546  11.100  1.9565  1.1495 -0.6699
   62MOL0     H 8312   3.495   8.525  11.268  1.5582 -0.7338 -1.7942
   62MOL0     H 8313   3.307   8.724  11.293 -1.7552 -1.0757  0.2658
   62MOL0     H 8314   3.287   8.692  11.119  2.9323  2.4719  0.1965
   62MOL0     H 8315   3.273   8.484  11.351 -0.1079  0.3937 -0.0008
   62MOL0     H 8316   3.139   8.580  11.304  0.9795  0.6385  0.3591
   62MOL0     H 8317   3.124   8.483  11.075  2.1725  2.3468 -0.9897
   62MOL0     H 8318   3.281   8.412  11.085 -1.3148  0.8277 -1.2260
   62MOL0     H 8319   3.042   8.334  11.261  1.9979  0.6715  2.1661
   62MOL0     H 8320   3.198   8.259  11.275  0.1750 -3.8183 -1.5802
   62MOL0     H 8321   3.291   8.184  11.014 -0.6990 -0.5169  1.7547
   62MOL0     H 8322   3.255   7.935  10.867  0.1806 -1.3124 -1.3755
   62MOL0     H 8323   3.091   7.938  10.795  0.8794 -1.5757 -0.9534
   62MOL0     H 8324   3.262   8.004  10.605 -0.0982  0.5413 -1.1983
   62MOL0     H 8325   3.341   8.096  10.732 -0.3881 -1.8506  0.6410
   62MOL0     H 8326   3.267   8.234  10.589  1.7524 -1.6128  0.4241
   62MOL0     H 8327   3.158   8.256  10.723 -2.1026  0.4507 -0.3673
   62MOL0     H 8328   2.988   8.105  10.636  2.6658 -1.6743 -0.2358
   62MOL0     H 8329   3.053   8.094  10.479 -2.4143 -2.1949 -0.1433
   62MOL0     H 8330   2.913   8.289  10.777  2.6461  1.4599  0.4397
   62MOL0     H 8331   2.761   8.502  10.992 -1.8717 -0.3502  0.8964
   62MOL0     H 8332   2.619   8.428  10.903 -0.4801 -0.9221 -0.3895
   62MOL0     H 8333   2.751   8.335  10.946  0.0105  0.4363 -0.5520
   62MOL0     H 8334   2.711   8.893  11.032 -0.9517 -3.7674  0.2910
   62MOL0     H 8335   2.592   9.093  11.105  0.7143 -2.2354  1.1962
   62MOL0     H 8336   2.269   9.183  10.865  0.0048 -0.7543 -0.3743
   62MOL0     H 8337   2.148   9.152  10.998 -0.9704  0.8740 -0.4532
   62MOL0     H 8338   2.326   9.402  10.969  2.0875 -1.7437  1.9813
   62MOL0     H 8339   2.159   9.401  10.922 -0.4796  0.2159  0.2110
   62MOL0     H 8340   2.276   9.378  11.207  2.5486  2.4961 -2.0483
   62MOL0     H 8341   2.116   9.316  11.175 -0.6096  0.8328  0.8050
   62MOL0     H 8342   2.178   9.588  11.062 -0.9413  0.0214 -1.0361
   62MOL0     H 8343   2.029   9.533  11.119  0.0237 -0.5105 -0.0108
   62MOL0     H 8344   2.102   9.683  11.277 -1.5578 -0.4278  0.1980
   62MOL0     H 8345   2.268   9.627  11.279  1.7726 -3.7814  0.4428
   62MOL0     H 8346   2.030   9.498  11.402 -0.4227  3.7328  0.9288
   62MOL0     H 8347   2.201   9.437  11.419  1.5588  1.5147  0.6250
   62MOL0     H 8348   2.058   9.573  11.605 -1.1672  0.8953 -1.5186
   62MOL0     H 8349   2.119   9.711  11.506  2.3519  1.4380  3.1056
   62MOL0     H 8350   2.361   9.647  11.542 -1.5607 -3.1540 -3.7522
   62MOL0     H 8351   2.325   9.502  11.620  3.0217  1.3907  1.9045
   62MOL0     H 8352   2.234   8.943  10.920  0.4411 -1.2970  0.2574
   62MOL0     H 8353   2.368   8.747  10.837  2.3300 -3.0065  1.8909
   62MOL0     H 8354   2.727   8.637  10.482  0.5092 -0.8979 -1.0997
   62MOL0     H 8355   2.880   8.480  10.396  1.2861  0.2788 -0.6642
   62MOL0     H 8356   4.060   8.893  11.091 -2.2453 -1.3910  0.9050
   62MOL0     H 8357   4.208   9.071  11.070  0.5712 -1.2350  0.7701
   62MOL0     H 8358   4.163   9.580  11.174 -0.0517  0.3854  0.4212
   62MOL0     H 8359   4.253   9.815  11.145  2.3768  2.7721  1.6430
   62MOL0     H 8360   4.654   9.878  10.968 -1.9387 -2.3718 -1.4102
   62MOL0     H 8361   4.543   9.907  10.836  2.8641  1.9509 -1.0034
   62MOL0     H 8362   4.475  10.125  10.913  0.8855  0.0266 -1.1102
   62MOL0     H 8363   4.636  10.119  10.860  0.2808  1.3465  1.2205
   62MOL0     H 8364   4.695  10.093  11.116 -2.1197  0.5466  4.9769
   62MOL0     H 8365   4.536  10.155  11.142 -0.7371  0.9643 -0.1808
   62MOL0     H 8366   4.595  10.366  11.056  0.4023 -0.3903  1.5945
   62MOL0     H 8367   4.729  10.297  10.964 -0.4732 -1.1565 -1.3360
   62MOL0     H 8368   4.840  10.383  11.376  0.4119 -2.0199  0.3684
   62MOL0     H 8369   4.605   9.645  10.959 -0.2226 -1.7313  0.1582
   62MOL0     H 8370   4.523   9.423  10.995  0.1602  0.4324 -0.8430
   63MOL0     O 8371   6.446   9.993   9.508 -0.8781  0.3595 -0.3978
   63MOL0     C 8372   6.482   9.969   9.390 -0.4876 -0.0551  0.6711
   63MOL0     O 8373   6.613   9.953   9.353 -0.1398  0.4826  0.2594
   63MOL0     C 8374   6.718   9.974   9.446 -0.1382 -0.0510  0.1940
   63MOL0     C 8375   6.745  10.107   9.494  0.8239  0.3949 -0.8226
   63MOL0     C 8376   6.846  10.127   9.584 -0.5503 -0.0518  0.2258
   63MOL0     C 8377   6.941  10.030   9.629  1.1465  0.1021  0.1900
   63MOL0     O 8378   7.045  10.051   9.714  0.0804  0.3229 -0.7257
   63MOL0     C 8379   7.068  10.188   9.753 -0.2938  0.3138 -0.2512
   63MOL0     C 8380   7.205  10.195   9.829 -1.0665 -0.6098 -1.4155
   63MOL0     C 8381   7.240  10.337   9.871  0.0317 -0.7807  0.1950
   63MOL0     C 8382   7.155  10.387   9.989  0.1993  0.1610  0.6328
   63MOL0     C 8383   7.127  10.535   9.967  0.9115  0.1274  0.1876
   63MOL0     C 8384   7.025  10.596  10.060  0.8458  0.4888  0.4784
   63MOL0     C 8385   6.924  10.692   9.996 -1.0930 -0.7839 -0.4683
   63MOL0     C 8386   7.004  10.822   9.941  0.3499  0.1825  0.6634
   63MOL0     N 8387   6.911  10.931   9.920  0.4370 -0.1460 -0.2361
   63MOL0     C 8388   6.908  11.038  10.005  0.4604 -0.0558  0.5616
   63MOL0     C 8389   6.808  11.116   9.951  0.2675 -0.2549  0.4069
   63MOL0     C 8390   6.760  11.233  10.030 -0.4435 -0.3397 -0.0704
   63MOL0     C 8391   6.667  11.344   9.963  1.2253  0.5781 -0.1887
   63MOL0     C 8392   6.545  11.387  10.058  0.4394  0.3329  1.1456
   63MOL0     C 8393   6.597  11.480  10.171 -0.0005 -0.3005 -0.3983
   63MOL0     O 8394   6.737  11.525  10.169 -0.1051  0.4612 -0.7641
   63MOL0     C 8395   6.761  11.639  10.085  0.3247  0.8903 -0.2048
   63MOL0     C 8396   6.894  11.679  10.054  0.4661  0.8587 -0.4728
   63MOL0     C 8397   6.930  11.801  10.002  0.3563 -0.4117  1.7949
   63MOL0     C 8398   7.087  11.833  10.000  0.2006  0.1850 -0.3688
   63MOL0     C 8399   6.837  11.890   9.957  0.4456  0.6890 -0.8578
   63MOL0     C 8400   6.863  12.015   9.884  0.0510  0.5289 -0.1502
   63MOL0     O 8401   6.764  12.105   9.894  1.0335  0.0795 -0.0500
   63MOL0     C 8402   6.746  12.180   9.781 -0.1597 -0.3092 -0.2235
   63MOL0     C 8403   6.739  12.113   9.661  0.3889 -0.1850 -0.6158
   63MOL0     C 8404   6.708  12.181   9.545  0.3341 -0.5190 -0.0765
   63MOL0     C 8405   6.681  12.320   9.544  0.0341  0.3291 -0.2401
   63MOL0     O 8406   6.673  12.406   9.436 -0.1013  0.5379 -0.5617
   63MOL0     C 8407   6.722  12.364   9.308  0.3956  0.5862 -0.8098
   63MOL0     C 8408   6.752  12.477   9.214  0.5871  0.1566 -0.1444
   63MOL0     C 8409   6.830  12.589   9.288  0.5437 -0.3604  0.0488
   63MOL0     C 8410   6.743  12.712   9.270 -0.6147 -0.6733 -0.4518
   63MOL0     C 8411   6.628  12.723   9.365 -0.1036 -0.2846 -0.1576
   63MOL0     C 8412   6.564  12.860   9.342  0.0928  0.0775 -0.3275
   63MOL0     C 8413   6.439  12.879   9.425  0.7216 -0.4824 -0.9302
   63MOL0     C 8414   6.317  12.801   9.362  0.0737  0.1403 -1.0643
   63MOL0    Cl 8415   6.256  12.877   9.201 -0.2971  0.2092 -0.0691
   63MOL0     C 8416   6.681  12.383   9.671  0.5122 -0.5426 -0.6351
   63MOL0     C 8417   6.699  12.317   9.792 -0.3854  0.3009 -1.3383
   63MOL0     O 8418   6.960  12.016   9.811  0.2392  0.1659 -0.3417
   63MOL0     C 8419   6.702  11.847   9.972 -0.7425  0.8201  0.6250
   63MOL0     C 8420   6.669  11.726  10.037  0.1261  0.0654 -0.3077
   63MOL0     N 8421   6.761  11.066   9.829  0.2328  0.2992 -0.6237
   63MOL0     N 8422   6.823  10.950   9.816 -0.1334 -0.6297 -0.0581
   63MOL0     C 8423   6.923   9.906   9.564  0.6516  0.4308 -0.0764
   63MOL0     C 8424   6.824   9.887   9.470  0.4684 -1.0725  0.4406
   63MOL0     C 8425   6.382   9.959   9.277  0.3765  0.0834  0.0621
   63MOL0     C 8426   6.248   9.941   9.304  0.2955 -0.2336  0.4376
   63MOL0     C 8427   6.159   9.917   9.201  0.7904 -0.5893  0.8232
   63MOL0     C 8428   6.199   9.934   9.070 -0.1160 -0.4497 -0.7380
   63MOL0     O 8429   6.104   9.924   8.969 -0.6253  0.3144 -0.5843
   63MOL0     C 8430   6.094  10.035   8.886  0.4555 -0.1657  0.2356
   63MOL0     C 8431   5.963  10.030   8.810 -1.2608  0.4039  0.4185
   63MOL0     C 8432   5.836  10.031   8.874 -0.3174 -0.1092 -0.1209
   63MOL0     C 8433   5.808  10.173   8.941 -0.0476 -0.4156  1.1413
   63MOL0     C 8434   5.856  10.178   9.075 -0.9140 -0.7197  0.2485
   63MOL0     C 8435   5.887  10.183   9.192 -0.3259 -0.3263 -0.0161
   63MOL0     C 8436   6.331   9.942   9.038  1.3565 -0.1301 -0.7447
   63MOL0     C 8437   6.423   9.952   9.143 -0.3353 -1.0786  0.0144
   63MOL0     H 8438   6.671  10.181   9.468  1.1204  1.3177  0.8328
   63MOL0     H 8439   6.851  10.233   9.607 -2.2280  0.2238 -0.5274
   63MOL0     H 8440   7.064  10.255   9.666 -2.6390  1.5534  0.7242
   63MOL0     H 8441   6.987  10.232   9.812  0.0756  1.3663 -0.5002
   63MOL0     H 8442   7.206  10.136   9.921  2.2309 -2.7035 -2.5889
   63MOL0     H 8443   7.283  10.167   9.757 -1.0301 -0.9733 -1.2380
   63MOL0     H 8444   7.347  10.350   9.889  0.9679  0.0895 -4.5854
   63MOL0     H 8445   7.219  10.403   9.787  1.6094 -0.7846 -0.2333
   63MOL0     H 8446   7.056  10.343  10.000 -0.2153  0.2730 -1.9502
   63MOL0     H 8447   7.206  10.376  10.085  0.0441  1.0532  0.8212
   63MOL0     H 8448   7.225  10.572  10.002  0.6699 -1.7427  3.2316
   63MOL0     H 8449   7.097  10.563   9.866 -3.3628  0.4596  1.3433
   63MOL0     H 8450   6.963  10.520  10.108 -0.8641  1.4850 -0.0655
   63MOL0     H 8451   7.075  10.643  10.146 -1.4602  2.8509  0.6667
   63MOL0     H 8452   6.858  10.651   9.919 -1.1412 -0.0350 -0.8388
   63MOL0     H 8453   6.867  10.724  10.083 -0.2430  0.1764 -0.2371
   63MOL0     H 8454   7.049  10.786   9.848  0.5533 -2.9640  1.8760
   63MOL0     H 8455   7.079  10.856  10.013  0.5412 -0.2103  0.6532
   63MOL0     H 8456   6.949  11.061  10.103 -3.3181  2.5044  1.7817
   63MOL0     H 8457   6.685  11.180  10.089  0.7182  0.7528  2.5059
   63MOL0     H 8458   6.835  11.268  10.101 -0.2785 -1.2876  0.2302
   63MOL0     H 8459   6.622  11.313   9.869 -0.0639 -2.1057  1.1766
   63MOL0     H 8460   6.727  11.434   9.948  1.4477  0.7038  1.3028
   63MOL0     H 8461   6.486  11.300  10.088  0.7326 -0.6964 -1.0902
   63MOL0     H 8462   6.488  11.451   9.989 -1.9593 -2.4725  0.3272
   63MOL0     H 8463   6.603  11.420  10.263  2.5315 -0.5317 -0.6425
   63MOL0     H 8464   6.527  11.559  10.199  1.4764 -0.1322  3.5609
   63MOL0     H 8465   6.976  11.614  10.082  1.0795  2.8002  2.7835
   63MOL0     H 8466   7.124  11.813   9.899 -2.0177 -0.4788 -1.1008
   63MOL0     H 8467   7.109  11.938  10.022 -0.1698  0.1336  0.2634
   63MOL0     H 8468   7.137  11.761  10.066 -3.1779 -1.8539  0.1904
   63MOL0     H 8469   6.733  12.005   9.669  4.1021 -0.3901  3.4763
   63MOL0     H 8470   6.695  12.129   9.451  0.3688 -1.3759  0.3917
   63MOL0     H 8471   6.818  12.312   9.319  0.1104 -0.5210 -2.9937
   63MOL0     H 8472   6.656  12.299   9.250  0.4582  0.0211 -0.2664
   63MOL0     H 8473   6.808  12.441   9.127  0.4473  0.0503 -0.1904
   63MOL0     H 8474   6.651  12.512   9.188  1.2610  2.4854  0.1809
   63MOL0     H 8475   6.928  12.609   9.243  1.0181 -1.4326  0.5519
   63MOL0     H 8476   6.854  12.569   9.393 -0.3637 -2.2104 -0.0535
   63MOL0     H 8477   6.813  12.792   9.297  0.2422 -0.9623 -1.7435
   63MOL0     H 8478   6.714  12.727   9.166 -1.1215  0.2186 -0.1998
   63MOL0     H 8479   6.660  12.704   9.468 -0.5304  1.3841  0.3047
   63MOL0     H 8480   6.569  12.636   9.332  2.3144 -2.4094  0.7613
   63MOL0     H 8481   6.635  12.941   9.366 -3.2933  3.2949 -0.2551
   63MOL0     H 8482   6.526  12.876   9.241 -0.1436  0.3965 -0.1895
   63MOL0     H 8483   6.424  12.987   9.432 -1.0763 -0.7804  0.8220
   63MOL0     H 8484   6.454  12.835   9.525 -2.4735  0.0695 -0.0874
   63MOL0     H 8485   6.231  12.791   9.429  0.7878  1.2807  0.0627
   63MOL0     H 8486   6.353  12.699   9.344  1.9159  0.6924 -0.7543
   63MOL0     H 8487   6.674  12.491   9.679 -0.4292 -0.6212 -0.2625
   63MOL0     H 8488   6.703  12.370   9.886 -1.4804  2.2763 -2.3396
   63MOL0     H 8489   6.624  11.898   9.917  0.9263  3.7670  0.7905
   63MOL0     H 8490   6.565  11.694  10.031 -0.1474  0.6996  0.7871
   63MOL0     H 8491   6.998   9.829   9.581  3.1247  2.7768  0.1474
   63MOL0     H 8492   6.823   9.792   9.418 -1.3469  0.7157 -3.1215
   63MOL0     H 8493   6.211   9.935   9.406 -1.3653 -1.3259 -0.1868
   63MOL0     H 8494   6.056   9.892   9.224  0.1235 -0.5921 -1.9050
   63MOL0     H 8495   6.097  10.126   8.946  1.0688 -1.1919  1.8192
   63MOL0     H 8496   6.174  10.035   8.811 -2.1916 -0.1632 -2.8107
   63MOL0     H 8497   5.976   9.934   8.760 -0.0891  1.2459 -0.9716
   63MOL0     H 8498   5.977  10.117   8.745  1.2809 -0.7886 -0.7704
   63MOL0     H 8499   5.831   9.948   8.946 -0.9497 -0.3553 -0.4381
   63MOL0     H 8500   5.756  10.009   8.802  1.9848 -2.0907 -2.2632
   63MOL0     H 8501   5.699  10.184   8.938  0.0621  0.8153  1.3133
   63MOL0     H 8502   5.852  10.256   8.885  2.1828 -1.5172  1.1363
   63MOL0     H 8503   5.930  10.208   9.287  0.2922  1.8535 -0.8083
   63MOL0     H 8504   6.372   9.955   8.939  1.2425  2.3371 -0.5303
   63MOL0     H 8505   6.528   9.974   9.130 -0.7283 -0.1136 -1.8741
   64MOL0     O 8506  10.427  10.737   0.886  0.4453  0.4314 -0.6377
   64MOL0     C 8507  10.305  10.698   0.878 -0.8482 -0.1339  0.0260
   64MOL0     O 8508  10.233  10.686   0.765  1.0537  0.1739  0.2434
   64MOL0     C 8509  10.280  10.713   0.644 -0.4201  0.2988 -0.2411
   64MOL0     C 8510  10.415  10.687   0.609 -1.0578  0.9734  1.0331
   64MOL0     C 8511  10.464  10.715   0.481  0.1232  0.0981 -0.0361
   64MOL0     C 8512  10.377  10.776   0.373 -0.6679 -0.0275 -1.1041
   64MOL0     O 8513  10.426  10.797   0.244  0.4900 -0.5565 -0.0075
   64MOL0     C 8514  10.331  10.818   0.136  0.0110 -0.1902  0.4154
   64MOL0     C 8515  10.280  10.688   0.075  0.1895  0.7993 -0.0553
   64MOL0     C 8516  10.385  10.589   0.032 -0.3349  0.7728 -0.8469
   64MOL0     C 8517  10.504  10.643  -0.043 -0.2167 -0.8990  1.1121
   64MOL0     C 8518  10.589  10.532  -0.092 -0.0445  0.6892 -0.3320
   64MOL0     C 8519  10.721  10.582  -0.161  0.5204  0.0268  0.0470
   64MOL0     C 8520  10.813  10.469  -0.225  0.9331 -0.5430 -0.3096
   64MOL0     C 8521  10.864  10.372  -0.123  0.2900 -0.0956 -0.3044
   64MOL0     N 8522  10.917  10.256  -0.191  0.6062 -0.0834  0.4189
   64MOL0     C 8523  11.042  10.235  -0.242 -0.4168  0.5567  0.8280
   64MOL0     C 8524  11.028  10.128  -0.322  1.0486  0.2262 -0.2923
   64MOL0     C 8525  11.137  10.061  -0.404 -0.2207 -0.3315 -0.7648
   64MOL0     C 8526  11.171  10.138  -0.531  0.8203  0.6388  0.0212
   64MOL0     C 8527  11.074  10.141  -0.646  0.1913  0.2143 -0.2097
   64MOL0     C 8528  11.000  10.012  -0.683  0.2485 -0.1481  1.1223
   64MOL0     O 8529  10.887   9.984  -0.602 -0.5576 -0.1605  0.0801
   64MOL0     C 8530  10.781   9.915  -0.653  0.6369 -0.1712  1.1069
   64MOL0     C 8531  10.666   9.925  -0.574 -0.3924 -0.2388  0.0717
   64MOL0     C 8532  10.537   9.878  -0.616 -0.3707 -0.4118 -0.3772
   64MOL0     C 8533  10.432   9.924  -0.524 -0.0857  0.8695  0.7717
   64MOL0     C 8534  10.526   9.789  -0.728 -0.5941  0.4240  0.5647
   64MOL0     C 8535  10.408   9.711  -0.763  0.7773 -0.4826  0.9387
   64MOL0     O 8536  10.428   9.630  -0.862  0.4198  0.1692  0.4312
   64MOL0     C 8537  10.326   9.548  -0.917  0.2035  0.9326  0.1257
   64MOL0     C 8538  10.232   9.612  -0.992  0.5410  0.0542  0.2243
   64MOL0     C 8539  10.124   9.534  -1.042  0.5097  0.0584  0.6497
   64MOL0     C 8540  10.119   9.394  -1.029  0.6068 -0.5244 -0.1403
   64MOL0     O 8541  10.014   9.335  -1.098 -0.2170  0.5869  0.1079
   64MOL0     C 8542  10.016   9.188  -1.117  0.5795 -0.7392 -0.5360
   64MOL0     C 8543   9.892   9.152  -1.205  1.0252  0.1332  0.6579
   64MOL0     C 8544   9.898   9.202  -1.353  0.1766 -0.1788 -0.0831
   64MOL0     C 8545   9.757   9.217  -1.415  0.3348  0.4085  0.7766
   64MOL0     C 8546   9.766   9.261  -1.559  1.2673 -0.7710 -1.3419
   64MOL0     C 8547   9.807   9.157  -1.664  0.2955  0.8913 -0.3138
   64MOL0     C 8548   9.779   9.230  -1.791 -0.3545  0.0011  0.2086
   64MOL0     C 8549   9.788   9.132  -1.906  0.5795 -0.3578  0.4316
   64MOL0    Cl 8550   9.647   9.022  -1.891 -0.3871  0.3859  0.2914
   64MOL0     C 8551  10.221   9.333  -0.962 -0.1795  0.1485 -0.6574
   64MOL0     C 8552  10.322   9.410  -0.900  0.6858  0.2591  0.3430
   64MOL0     O 8553  10.306   9.721  -0.707  0.1703 -0.3191  0.0584
   64MOL0     C 8554  10.649   9.773  -0.804  0.8372 -0.0907 -0.4427
   64MOL0     C 8555  10.771   9.836  -0.770 -0.9688 -0.2211  0.0432
   64MOL0     N 8556  10.905  10.080  -0.302  0.0869  0.3162 -0.3741
   64MOL0     N 8557  10.834  10.149  -0.221  0.0368 -1.3702  0.2155
   64MOL0     C 8558  10.250  10.808   0.414  0.1216  1.1085 -0.3583
   64MOL0     C 8559  10.201  10.786   0.545 -0.1835  0.6142  0.1721
   64MOL0     C 8560  10.238  10.677   1.016  0.2042 -0.1524  0.2450
   64MOL0     C 8561  10.111  10.606   1.021  0.4575  0.1862  0.0495
   64MOL0     C 8562  10.042  10.620   1.142 -0.3644  0.7688 -0.0130
   64MOL0     C 8563  10.082  10.685   1.257 -1.2008  0.1759 -0.0045
   64MOL0     O 8564   9.994  10.702   1.362 -0.2564 -0.3791  0.0964
   64MOL0     C 8565   9.856  10.669   1.350  0.3100 -0.5172  0.9936
   64MOL0     C 8566   9.787  10.738   1.468 -0.5077 -0.0333  0.0692
   64MOL0     C 8567   9.771  10.655   1.604  0.1061  0.1116  0.0021
   64MOL0     C 8568   9.658  10.702   1.692  0.2910 -0.4098  0.2801
   64MOL0     C 8569   9.524  10.677   1.624  0.6692 -0.9525  0.2357
   64MOL0     C 8570   9.411  10.662   1.583  0.9579  0.2081  0.1549
   64MOL0     C 8571  10.213  10.745   1.255  0.2801 -0.0957  0.0181
   64MOL0     C 8572  10.284  10.742   1.134 -0.5518  0.9931 -0.4428
   64MOL0     H 8573  10.484  10.640   0.678 -0.2024  3.9022  2.3325
   64MOL0     H 8574  10.565  10.682   0.457  0.8937  0.7058  2.1070
   64MOL0     H 8575  10.244  10.882   0.158  0.4103 -0.0997  1.7880
   64MOL0     H 8576  10.377  10.857   0.045  0.8895  0.0541  0.9584
   64MOL0     H 8577  10.210  10.630   0.136 -0.5839 -0.6941 -2.2460
   64MOL0     H 8578  10.228  10.733  -0.010  2.9927  2.5455 -1.0098
   64MOL0     H 8579  10.428  10.536   0.117 -0.0405  3.2932  0.6600
   64MOL0     H 8580  10.341  10.512  -0.032 -1.1061 -0.7900  1.4358
   64MOL0     H 8581  10.477  10.712  -0.124 -2.3498 -3.1463 -0.2203
   64MOL0     H 8582  10.570  10.697   0.026  1.5684 -0.3234 -0.9309
   64MOL0     H 8583  10.624  10.477  -0.005 -0.5130  0.5020 -0.2611
   64MOL0     H 8584  10.529  10.459  -0.148  0.2718  0.3094 -0.1773
   64MOL0     H 8585  10.686  10.660  -0.229 -1.7677 -2.0440 -1.3082
   64MOL0     H 8586  10.778  10.637  -0.086  1.5724 -2.5869  1.2932
   64MOL0     H 8587  10.775  10.416  -0.313  0.7145 -1.9665  0.6122
   64MOL0     H 8588  10.897  10.530  -0.259  0.5441  3.2584  4.4690
   64MOL0     H 8589  10.779  10.341  -0.061  0.2095 -2.1899 -1.4013
   64MOL0     H 8590  10.940  10.405  -0.051  2.1402 -2.7503 -0.8926
   64MOL0     H 8591  11.127  10.301  -0.228 -1.1038  1.7460 -0.3674
   64MOL0     H 8592  11.228  10.053  -0.344  0.5826 -4.5678 -2.2001
   64MOL0     H 8593  11.103   9.958  -0.417 -0.4343 -0.1687 -1.5539
   64MOL0     H 8594  11.258  10.082  -0.568 -0.6227 -1.5127 -0.2312
   64MOL0     H 8595  11.211  10.237  -0.507  0.1322  1.2453 -1.2243
   64MOL0     H 8596  11.126  10.178  -0.734  1.4965 -1.8652 -0.3788
   64MOL0     H 8597  10.995  10.214  -0.626  2.1715  2.7381 -1.0281
   64MOL0     H 8598  11.066   9.925  -0.682 -0.2036 -0.5224  0.1293
   64MOL0     H 8599  10.960  10.027  -0.784  2.2762 -2.8895 -0.1968
   64MOL0     H 8600  10.670   9.985  -0.483  3.9382  2.3210 -1.5412
   64MOL0     H 8601  10.408   9.835  -0.466  4.6978 -1.6242 -0.5480
   64MOL0     H 8602  10.448  10.006  -0.454  4.3358 -1.0938  2.3948
   64MOL0     H 8603  10.350   9.953  -0.590  0.2933  0.6107  0.1788
   64MOL0     H 8604  10.229   9.719  -1.014  1.9807  0.6963  2.7807
   64MOL0     H 8605  10.057   9.586  -1.109 -0.2489 -1.8693 -0.1800
   64MOL0     H 8606  10.114   9.156  -1.153  2.7507  3.8401  0.5546
   64MOL0     H 8607  10.011   9.152  -1.013  0.4124  1.0333  0.1060
   64MOL0     H 8608   9.880   9.044  -1.207 -1.7150  0.3443  0.9271
   64MOL0     H 8609   9.807   9.195  -1.150  0.5841  0.2692 -0.1221
   64MOL0     H 8610   9.957   9.134  -1.414  1.9185  1.0818  0.1322
   64MOL0     H 8611   9.941   9.302  -1.347 -0.6249  0.1088  1.7578
   64MOL0     H 8612   9.722   9.113  -1.412 -0.5759  0.6988  0.5487
   64MOL0     H 8613   9.689   9.281  -1.357 -1.4036 -1.2835  0.7097
   64MOL0     H 8614   9.838   9.343  -1.561 -0.1711  0.5977 -0.0323
   64MOL0     H 8615   9.665   9.299  -1.576  1.6180  1.0395  0.1998
   64MOL0     H 8616   9.915   9.138  -1.662  0.3348  0.6155 -2.4717
   64MOL0     H 8617   9.754   9.062  -1.657  0.0103  1.0437 -0.3990
   64MOL0     H 8618   9.837   9.323  -1.801  2.0181 -1.2490  1.4117
   64MOL0     H 8619   9.676   9.264  -1.782 -0.5072 -0.9218  3.2845
   64MOL0     H 8620   9.883   9.090  -1.940 -1.2044 -3.8000 -0.7247
   64MOL0     H 8621   9.765   9.196  -1.992  2.7317 -0.3490 -0.1937
   64MOL0     H 8622  10.225   9.225  -0.950  0.0494  0.0223 -1.7675
   64MOL0     H 8623  10.407   9.354  -0.863 -0.1572 -0.4574  1.2403
   64MOL0     H 8624  10.666   9.700  -0.883  3.0307 -2.1347  1.7412
   64MOL0     H 8625  10.851   9.816  -0.841 -2.4531 -1.8354 -1.2919
   64MOL0     H 8626  10.185  10.853   0.339 -1.5402 -1.7176 -0.7415
   64MOL0     H 8627  10.109  10.827   0.585  0.0307 -0.4277  1.7948
   64MOL0     H 8628  10.071  10.561   0.931 -2.8743 -1.4792  2.1636
   64MOL0     H 8629   9.945  10.572   1.146 -0.7112  1.4694  0.1479
   64MOL0     H 8630   9.825  10.712   1.254 -4.4180 -3.0512  1.0970
   64MOL0     H 8631   9.849  10.560   1.342  1.6220 -0.5329 -0.4297
   64MOL0     H 8632   9.682  10.761   1.447 -1.6100 -1.0045  3.7444
   64MOL0     H 8633   9.832  10.834   1.493 -1.0858  1.8023 -4.7907
   64MOL0     H 8634   9.863  10.679   1.659 -0.6600  4.0757 -0.1375
   64MOL0     H 8635   9.763  10.548   1.583  0.8053  0.1761 -0.6561
   64MOL0     H 8636   9.674  10.807   1.716 -1.1256 -0.3928  1.2550
   64MOL0     H 8637   9.660  10.636   1.779  0.0865 -1.6397 -0.6151
   64MOL0     H 8638   9.311  10.668   1.545  1.0169  0.4505  0.0311
   64MOL0     H 8639  10.243  10.802   1.342 -2.8680  1.9402 -0.0429
   64MOL0     H 8640  10.376  10.800   1.134  1.5699 -1.8739  3.5882
   65MOL0     O 8641  10.518   7.867   1.648 -0.1103  0.2056 -0.4032
   65MOL0     C 8642  10.423   7.935   1.601 -0.7897  0.0106 -1.2983
   65MOL0     O 8643  10.438   8.038   1.520 -0.1368  0.1380  0.0041
   65MOL0     C 8644  10.564   8.103   1.502 -0.0231  0.4816 -0.5096
   65MOL0     C 8645  10.570   8.164   1.374 -0.0172  0.1565 -0.3072
   65MOL0     C 8646  10.680   8.247   1.341  0.5673  0.0938  0.9935
   65MOL0     C 8647  10.776   8.273   1.440 -1.8454 -0.6654 -1.0150
   65MOL0     O 8648  10.870   8.365   1.402 -0.2319 -0.5274  0.1926
   65MOL0     C 8649  10.854   8.503   1.373  0.5298 -0.5926  0.1060
   65MOL0     C 8650  10.982   8.540   1.302 -0.0667 -0.3261  0.8288
   65MOL0     C 8651  11.115   8.554   1.384 -0.1073 -0.1563  0.6095
   65MOL0     C 8652  11.107   8.675   1.479  0.1770 -0.4318 -0.6656
   65MOL0     C 8653  11.253   8.693   1.536  0.4488  0.1943  0.5101
   65MOL0     C 8654  11.235   8.694   1.695  0.0660  0.4923  0.0845
   65MOL0     C 8655  11.339   8.782   1.763  0.6141  0.5562  0.9679
   65MOL0     C 8656  11.476   8.729   1.761 -0.1371  0.0341 -0.6230
   65MOL0     N 8657  11.569   8.834   1.804 -0.2917  0.0750 -0.4807
   65MOL0     C 8658  11.550   8.881   1.938  1.2355  0.1963 -0.1167
   65MOL0     C 8659  11.610   9.004   1.940 -0.1147 -0.5838  0.0687
   65MOL0     C 8660  11.645   9.101   2.062  0.3043 -0.1169 -0.6456
   65MOL0     C 8661  11.543   9.217   2.065  0.1456 -0.4442  1.1651
   65MOL0     C 8662  11.554   9.317   1.951 -0.1100 -0.8032  0.2051
   65MOL0     C 8663  11.429   9.405   1.951  0.4062 -0.4979 -0.3151
   65MOL0     O 8664  11.437   9.515   2.037  0.4884  0.8913  0.0711
   65MOL0     C 8665  11.521   9.622   1.999  0.4346  0.4392  0.8391
   65MOL0     C 8666  11.582   9.643   1.884  0.9312 -0.4067  0.2099
   65MOL0     C 8667  11.670   9.747   1.860  0.3156 -0.4445  0.9574
   65MOL0     C 8668  11.721   9.763   1.720 -0.4554 -0.5249  0.0742
   65MOL0     C 8669  11.690   9.841   1.960  0.2352 -0.8884 -0.4548
   65MOL0     C 8670  11.777   9.972   1.952 -0.0786 -0.1854  0.1679
   65MOL0     O 8671  11.858   9.994   1.849  0.5562  0.4038 -0.0970
   65MOL0     C 8672  11.940  10.107   1.854 -0.0833 -0.3222 -1.3093
   65MOL0     C 8673  11.889  10.238   1.851  0.4106  1.1090 -0.6044
   65MOL0     C 8674  11.984  10.343   1.864  0.0575  0.8176  0.1792
   65MOL0     C 8675  12.123  10.322   1.865  0.0611  0.5030 -0.9916
   65MOL0     O 8676  12.213  10.433   1.881  0.8803  0.4530  0.2336
   65MOL0     C 8677  12.182  10.525   1.770 -0.1663 -0.0252 -0.7508
   65MOL0     C 8678  12.263  10.649   1.797  0.5577  0.4152 -0.5428
   65MOL0     C 8679  12.209  10.736   1.907  0.0557  0.1117 -0.2219
   65MOL0     C 8680  12.312  10.845   1.933 -0.0912  0.0553  0.1736
   65MOL0     C 8681  12.243  10.945   2.021 -0.8264 -0.4089 -0.3250
   65MOL0     C 8682  12.347  11.042   2.088 -0.2470  0.9306 -0.7277
   65MOL0     C 8683  12.313  11.182   2.139 -0.3033  0.1921  0.0297
   65MOL0     C 8684  12.223  11.257   2.042 -0.1707 -1.2979  1.1616
   65MOL0    Cl 8685  12.151  11.394   2.119 -0.2875 -0.2481  0.0569
   65MOL0     C 8686  12.160  10.187   1.886  0.0690 -0.5127  0.0159
   65MOL0     C 8687  12.070  10.085   1.887 -1.3130 -0.0389 -0.5784
   65MOL0     O 8688  11.781  10.040   2.057  0.0472  0.1212  0.5547
   65MOL0     C 8689  11.625   9.826   2.082  0.8967 -0.0001 -1.0448
   65MOL0     C 8690  11.537   9.725   2.097  0.1771 -0.7414 -0.4977
   65MOL0     N 8691  11.671   9.023   1.816  0.3326 -0.3001 -0.0585
   65MOL0     N 8692  11.643   8.927   1.736  0.3271 -0.2454 -0.5597
   65MOL0     C 8693  10.766   8.226   1.572 -0.5112  0.3685  0.2342
   65MOL0     C 8694  10.655   8.143   1.601 -0.8335  0.5159 -0.5065
   65MOL0     C 8695  10.292   7.891   1.643 -0.3068  0.6728 -0.1555
   65MOL0     C 8696  10.183   7.952   1.594 -0.0801 -0.2612 -0.5221
   65MOL0     C 8697  10.056   7.913   1.632 -0.1406 -0.8804  1.0622
   65MOL0     C 8698  10.043   7.805   1.711 -0.0449 -0.0737  0.0580
   65MOL0     O 8699   9.920   7.752   1.735  0.6213  0.3018 -1.1170
   65MOL0     C 8700   9.890   7.629   1.661 -0.4501 -0.2087  0.6593
   65MOL0     C 8701   9.874   7.644   1.508 -0.0411  0.2568 -0.1018
   65MOL0     C 8702   9.749   7.740   1.477  0.4995  0.2729 -0.1521
   65MOL0     C 8703   9.738   7.816   1.338 -0.7220 -0.4714 -0.3725
   65MOL0     C 8704   9.602   7.866   1.334  0.9625  0.3458  0.7556
   65MOL0     C 8705   9.489   7.904   1.359  0.1457 -0.0919 -0.3205
   65MOL0     C 8706  10.150   7.763   1.785  0.6307  0.8943 -0.7947
   65MOL0     C 8707  10.280   7.793   1.742  0.6014 -0.0524 -0.2194
   65MOL0     H 8708  10.499   8.132   1.299 -1.8695  1.6838  0.6992
   65MOL0     H 8709  10.706   8.282   1.241 -1.8664  0.4951  0.4310
   65MOL0     H 8710  10.766   8.527   1.314 -0.1647  1.3760  1.8139
   65MOL0     H 8711  10.837   8.559   1.465  1.3173  0.9350 -0.6370
   65MOL0     H 8712  10.989   8.480   1.211 -0.9982  0.0486  0.4896
   65MOL0     H 8713  10.967   8.637   1.254  0.5679 -0.2955  0.6911
   65MOL0     H 8714  11.139   8.454   1.421 -2.2720 -0.9701 -0.0477
   65MOL0     H 8715  11.187   8.574   1.305 -0.2880  1.6614  0.8553
   65MOL0     H 8716  11.067   8.752   1.413 -0.6775 -0.5737 -0.3163
   65MOL0     H 8717  11.028   8.667   1.554 -0.6410  0.2301 -1.4273
   65MOL0     H 8718  11.320   8.610   1.512  2.0677  1.7672 -0.6911
   65MOL0     H 8719  11.297   8.784   1.495  0.3013 -0.8185 -2.0659
   65MOL0     H 8720  11.133   8.724   1.721 -0.4358 -2.5600  2.1177
   65MOL0     H 8721  11.226   8.593   1.735 -0.2449  1.5572  2.8855
   65MOL0     H 8722  11.338   8.875   1.706 -0.0303 -1.2902 -2.2657
   65MOL0     H 8723  11.314   8.799   1.868  1.5166 -3.9965  2.1500
   65MOL0     H 8724  11.521   8.693   1.667 -1.2048  0.7299 -1.4276
   65MOL0     H 8725  11.477   8.651   1.837 -1.4418  1.0642  0.4775
   65MOL0     H 8726  11.488   8.827   2.009 -1.7888  0.6061 -2.2322
   65MOL0     H 8727  11.653   9.049   2.158 -2.0003 -0.1215 -0.4009
   65MOL0     H 8728  11.741   9.149   2.040 -0.5097  0.5425 -3.0064
   65MOL0     H 8729  11.555   9.270   2.160  0.0245  0.5626  0.6343
   65MOL0     H 8730  11.439   9.184   2.063 -1.1701  3.3274  0.4117
   65MOL0     H 8731  11.565   9.273   1.852 -2.7499 -1.2914  0.0752
   65MOL0     H 8732  11.641   9.383   1.958 -0.8854  0.2791 -0.2033
   65MOL0     H 8733  11.343   9.345   1.981  0.9667 -0.4145  1.5867
   65MOL0     H 8734  11.400   9.437   1.850 -3.5354 -0.5688  0.6126
   65MOL0     H 8735  11.565   9.576   1.800 -0.5535  3.2846 -2.7929
   65MOL0     H 8736  11.702   9.864   1.683  0.8108  0.2187  1.3657
   65MOL0     H 8737  11.830   9.755   1.716 -0.5539 -1.8591 -0.4047
   65MOL0     H 8738  11.686   9.681   1.657  1.8875 -0.1692 -1.8602
   65MOL0     H 8739  11.785  10.269   1.847  0.9921  3.0968 -1.7628
   65MOL0     H 8740  11.940  10.441   1.878 -2.3678 -0.5493  3.3580
   65MOL0     H 8741  12.216  10.486   1.673 -1.1820 -0.2772 -1.0200
   65MOL0     H 8742  12.079  10.560   1.772 -0.3301 -0.4387 -1.6229
   65MOL0     H 8743  12.362  10.613   1.827 -0.2028 -1.2140  0.1652
   65MOL0     H 8744  12.256  10.714   1.710 -2.1311 -1.3789 -1.7974
   65MOL0     H 8745  12.191  10.676   1.997  0.8968  0.7656  0.3941
   65MOL0     H 8746  12.109  10.771   1.880  0.3019  0.0722 -1.2034
   65MOL0     H 8747  12.407  10.817   1.979 -0.7067 -0.4396  1.2031
   65MOL0     H 8748  12.340  10.902   1.844 -0.6613  2.4946  1.4344
   65MOL0     H 8749  12.173  10.908   2.096 -3.5254  2.0628 -1.4611
   65MOL0     H 8750  12.181  11.005   1.954 -3.8097 -0.7519  1.9556
   65MOL0     H 8751  12.376  10.988   2.178 -0.6315 -0.7342 -1.5474
   65MOL0     H 8752  12.438  11.049   2.026 -0.3519 -1.2842 -1.2081
   65MOL0     H 8753  12.404  11.242   2.153  0.6482 -1.2854  0.4118
   65MOL0     H 8754  12.248  11.184   2.227 -1.8349  0.9754 -1.0772
   65MOL0     H 8755  12.134  11.205   2.005 -1.0245  0.4892  0.6001
   65MOL0     H 8756  12.279  11.278   1.950 -5.1016 -0.5716 -2.0370
   65MOL0     H 8757  12.263  10.173   1.916 -0.7402 -1.2303  2.7111
   65MOL0     H 8758  12.110   9.984   1.889 -0.4094  0.2759  2.7505
   65MOL0     H 8759  11.632   9.897   2.164 -2.0192  0.2924 -0.9563
   65MOL0     H 8760  11.491   9.722   2.195  0.6574  1.1649 -0.1780
   65MOL0     H 8761  10.842   8.247   1.647 -1.1497  1.4559  0.5980
   65MOL0     H 8762  10.655   8.097   1.699  1.5619  1.2471 -0.0894
   65MOL0     H 8763  10.185   8.042   1.533 -3.6997  2.4860  2.8705
   65MOL0     H 8764   9.967   7.959   1.590  0.4830  0.3769  1.1048
   65MOL0     H 8765   9.970   7.555   1.660 -1.0376 -0.8624  1.2008
   65MOL0     H 8766   9.800   7.580   1.700  0.5253 -0.7292  2.3572
   65MOL0     H 8767   9.865   7.546   1.461  0.2466  0.1674  0.0226
   65MOL0     H 8768   9.959   7.695   1.462  1.1950 -0.7633  0.9707
   65MOL0     H 8769   9.747   7.822   1.550 -1.8923  2.3197 -2.3227
   65MOL0     H 8770   9.664   7.675   1.497  0.1994 -0.3103 -2.9502
   65MOL0     H 8771   9.758   7.751   1.252 -0.3265 -3.4154  1.7903
   65MOL0     H 8772   9.802   7.905   1.330  3.9425 -3.3385  1.4357
   65MOL0     H 8773   9.387   7.932   1.376 -0.2546 -0.3168 -2.1219
   65MOL0     H 8774  10.129   7.688   1.860  0.9361 -0.5768 -2.1369
   65MOL0     H 8775  10.360   7.752   1.802  2.2443 -0.3689 -2.4866
   66MOL0     O 8776   2.847   4.367   1.197  0.2958 -0.5905 -0.1892
   66MOL0     C 8777   2.901   4.297   1.112  0.8891 -0.3768  0.5693
   66MOL0     O 8778   3.002   4.338   1.031 -0.5570 -0.0324 -0.4354
   66MOL0     C 8779   3.005   4.477   0.992 -0.7676  0.2849  0.3482
   66MOL0     C 8780   2.894   4.557   0.990  0.6713 -0.5907 -0.2292
   66MOL0     C 8781   2.904   4.692   0.972  0.9751  0.2743 -0.7495
   66MOL0     C 8782   3.026   4.745   0.955 -0.6970 -0.1699  0.5383
   66MOL0     O 8783   3.058   4.874   0.925  0.3188 -1.0974  0.1107
   66MOL0     C 8784   3.081   4.958   1.037  0.3500 -0.0235  0.3325
   66MOL0     C 8785   3.046   5.102   0.999  0.1422 -0.5320 -0.4944
   66MOL0     C 8786   3.128   5.166   0.884  0.5789  0.0690 -0.3202
   66MOL0     C 8787   3.279   5.129   0.890  0.1119  0.3915  0.0214
   66MOL0     C 8788   3.345   5.227   0.785  0.5445 -0.3642  0.5863
   66MOL0     C 8789   3.469   5.163   0.731  0.3344  0.7201 -0.1435
   66MOL0     C 8790   3.494   5.212   0.590  0.3923  0.0960 -0.3028
   66MOL0     C 8791   3.634   5.155   0.557 -0.9773  0.1681 -0.1249
   66MOL0     N 8792   3.652   5.177   0.416 -0.3948 -0.1428 -0.0303
   66MOL0     C 8793   3.685   5.305   0.367 -0.5368 -0.3515 -0.9014
   66MOL0     C 8794   3.674   5.301   0.231  0.0198  0.1445  0.4197
   66MOL0     C 8795   3.691   5.409   0.135  0.3486 -0.8900  0.1784
   66MOL0     C 8796   3.576   5.513   0.148  0.6137  0.4697  0.4481
   66MOL0     C 8797   3.442   5.459   0.105  1.0186 -0.8249 -0.5912
   66MOL0     C 8798   3.376   5.409   0.230 -0.2166 -1.2193 -0.5723
   66MOL0     O 8799   3.248   5.373   0.171  0.5702  0.6750 -0.4810
   66MOL0     C 8800   3.162   5.324   0.267  0.0804  0.2604  1.0965
   66MOL0     C 8801   3.032   5.309   0.208 -0.6059  0.3568  0.1424
   66MOL0     C 8802   2.919   5.278   0.282  0.3673  0.1030  0.6022
   66MOL0     C 8803   2.780   5.285   0.209  0.3320  0.4510  0.1879
   66MOL0     C 8804   2.929   5.247   0.421 -0.2304  0.2439  0.0364
   66MOL0     C 8805   2.820   5.218   0.521 -1.2323  0.3368  0.2019
   66MOL0     O 8806   2.731   5.119   0.470 -0.6932 -1.3429 -0.3397
   66MOL0     C 8807   2.606   5.117   0.531 -0.2429  0.5801 -0.1339
   66MOL0     C 8808   2.492   5.102   0.452  0.7567  0.4728  0.0114
   66MOL0     C 8809   2.366   5.105   0.512  0.1142 -0.2938  0.0435
   66MOL0     C 8810   2.349   5.110   0.648  0.0940 -0.0977 -0.4127
   66MOL0     O 8811   2.221   5.106   0.705 -0.5521 -0.1724 -0.2051
   66MOL0     C 8812   2.101   5.075   0.627 -0.1365 -0.5019  1.3950
   66MOL0     C 8813   1.984   5.028   0.714 -0.6020  0.0247 -0.0921
   66MOL0     C 8814   1.865   5.002   0.633  1.0579  0.4884 -0.1037
   66MOL0     C 8815   1.745   4.943   0.720  0.2046 -0.2319  1.0329
   66MOL0     C 8816   1.610   4.952   0.657 -0.1104 -0.1842 -0.3113
   66MOL0     C 8817   1.589   4.860   0.549  0.5515  0.2275 -0.0425
   66MOL0     C 8818   1.470   4.913   0.464  0.1289 -0.0432 -0.4950
   66MOL0     C 8819   1.457   4.846   0.317  1.0627 -1.4347 -0.5762
   66MOL0    Cl 8820   1.580   4.896   0.214  0.0665  0.3562 -0.2990
   66MOL0     C 8821   2.462   5.113   0.731 -0.2674  0.8240 -0.0714
   66MOL0     C 8822   2.587   5.112   0.674  0.6658  0.0776  1.1028
   66MOL0     O 8823   2.800   5.305   0.610  1.0242  0.0004  0.2592
   66MOL0     C 8824   3.059   5.254   0.473  0.7874 -0.4462 -0.0321
   66MOL0     C 8825   3.174   5.303   0.405 -0.4578 -0.1406  0.3622
   66MOL0     N 8826   3.665   5.166   0.205 -0.4182  0.9826  0.5498
   66MOL0     N 8827   3.661   5.094   0.313  0.6927  0.5263  0.3605
   66MOL0     C 8828   3.143   4.664   0.956 -0.2824  0.3444 -0.2526
   66MOL0     C 8829   3.136   4.527   0.970 -0.3751 -0.2095  0.9623
   66MOL0     C 8830   2.855   4.157   1.098 -0.5758 -0.0127 -0.0810
   66MOL0     C 8831   2.749   4.101   1.170  0.2754 -0.7516  0.1332
   66MOL0     C 8832   2.680   3.993   1.116 -0.3531  1.2612  0.6174
   66MOL0     C 8833   2.727   3.930   0.997  0.2664 -0.4662 -0.6883
   66MOL0     O 8834   2.664   3.812   0.965  0.2205 -0.1848 -0.7524
   66MOL0     C 8835   2.745   3.712   0.913 -0.7676 -0.0377  0.8471
   66MOL0     C 8836   2.773   3.600   1.015 -0.4189 -0.0839 -0.5887
   66MOL0     C 8837   2.865   3.643   1.138  1.5098 -0.2393  0.3727
   66MOL0     C 8838   3.006   3.659   1.095  0.0422  1.2494  1.2066
   66MOL0     C 8839   3.071   3.535   1.093 -0.1867  0.2209  0.0263
   66MOL0     C 8840   3.127   3.425   1.084  0.2700  0.4661  1.6769
   66MOL0     C 8841   2.830   3.982   0.927 -0.6228  0.8429  0.1613
   66MOL0     C 8842   2.898   4.092   0.974  0.6401 -0.2007  0.7426
   66MOL0     H 8843   2.797   4.513   1.012  0.9340 -0.8534  0.4132
   66MOL0     H 8844   2.811   4.748   0.958  1.3056  0.6552 -1.4643
   66MOL0     H 8845   3.024   4.931   1.127  0.7996  4.0503  2.0911
   66MOL0     H 8846   3.188   4.954   1.063  1.1171  0.7800 -2.3761
   66MOL0     H 8847   2.937   5.102   0.983 -0.5574 -2.9869  3.0842
   66MOL0     H 8848   3.066   5.161   1.088 -0.8961 -0.6780 -0.1524
   66MOL0     H 8849   3.076   5.143   0.791 -0.6434 -0.0868  0.3776
   66MOL0     H 8850   3.105   5.272   0.891 -2.0601 -0.2543 -2.3957
   66MOL0     H 8851   3.316   5.151   0.991  0.8768  0.7586 -0.3320
   66MOL0     H 8852   3.295   5.023   0.868  2.1281  0.1382  2.2166
   66MOL0     H 8853   3.281   5.233   0.696  0.3632 -2.0091  0.5812
   66MOL0     H 8854   3.373   5.319   0.838  1.6009 -1.1306  1.3715
   66MOL0     H 8855   3.548   5.181   0.804 -2.3054 -0.2862  3.1963
   66MOL0     H 8856   3.453   5.055   0.719 -1.4272  0.6228  2.4159
   66MOL0     H 8857   3.413   5.185   0.521  1.1503 -1.9813 -0.4590
   66MOL0     H 8858   3.500   5.320   0.581 -2.1225  0.5118  1.7974
   66MOL0     H 8859   3.648   5.047   0.568  1.4961  0.2514 -1.8324
   66MOL0     H 8860   3.709   5.217   0.606 -1.1224  0.6211 -0.4689
   66MOL0     H 8861   3.691   5.398   0.423 -0.1462 -2.0685  2.1578
   66MOL0     H 8862   3.790   5.454   0.150  1.7591 -3.1890 -1.5985
   66MOL0     H 8863   3.701   5.388   0.029  0.2097 -0.3598  0.0557
   66MOL0     H 8864   3.598   5.601   0.088 -0.1568  2.0642  2.3970
   66MOL0     H 8865   3.578   5.555   0.249 -3.4058 -0.0546  0.9136
   66MOL0     H 8866   3.456   5.390   0.021  0.3677 -1.1816 -0.4142
   66MOL0     H 8867   3.378   5.541   0.072 -1.2552 -2.0199  0.6220
   66MOL0     H 8868   3.370   5.488   0.305  1.6305 -2.1393  0.6317
   66MOL0     H 8869   3.429   5.323   0.273 -3.3615 -3.1226 -0.1718
   66MOL0     H 8870   3.024   5.334   0.103  2.6982  1.3489  0.0119
   66MOL0     H 8871   2.797   5.332   0.111  2.0848 -1.5927 -0.5673
   66MOL0     H 8872   2.730   5.188   0.202  0.1849 -0.2333  5.9581
   66MOL0     H 8873   2.708   5.338   0.271  1.7660  2.3660  0.3190
   66MOL0     H 8874   2.490   5.094   0.343 -0.8353  0.2796  0.0398
   66MOL0     H 8875   2.284   5.098   0.441  1.2834 -2.4949 -1.1973
   66MOL0     H 8876   2.063   5.154   0.562  2.1704  0.6014  1.2957
   66MOL0     H 8877   2.131   4.987   0.569  0.0769  0.6004 -0.2215
   66MOL0     H 8878   2.023   4.943   0.771 -0.4634 -0.6188 -1.1164
   66MOL0     H 8879   1.953   5.097   0.794  1.7155  2.0394 -0.7903
   66MOL0     H 8880   1.893   4.935   0.551  4.9173 -2.3124  3.1061
   66MOL0     H 8881   1.832   5.102   0.602 -0.2563 -0.1317 -0.7802
   66MOL0     H 8882   1.766   4.841   0.753  2.4049 -0.7007 -1.4082
   66MOL0     H 8883   1.750   5.000   0.813  2.6695 -0.0758  0.8802
   66MOL0     H 8884   1.618   5.055   0.621 -2.3360  1.6512  3.7992
   66MOL0     H 8885   1.529   4.944   0.730  1.2710 -0.5605  1.2086
   66MOL0     H 8886   1.683   4.858   0.493  0.1950 -3.0725 -0.7558
   66MOL0     H 8887   1.563   4.759   0.584  2.0168  0.4503  1.8787
   66MOL0     H 8888   1.477   5.021   0.449 -0.0035 -0.2473 -2.1370
   66MOL0     H 8889   1.377   4.893   0.518  0.3779  2.3937  1.0087
   66MOL0     H 8890   1.366   4.885   0.271 -1.2283 -2.5083  2.7086
   66MOL0     H 8891   1.445   4.737   0.318 -2.1032 -1.2398  2.7025
   66MOL0     H 8892   2.456   5.108   0.840  1.5464  0.2218  0.0337
   66MOL0     H 8893   2.672   5.109   0.741  0.4501 -1.5774  1.3416
   66MOL0     H 8894   3.058   5.237   0.580  0.1624  3.3690  0.6962
   66MOL0     H 8895   3.263   5.325   0.463 -1.7005  5.4729  0.6426
   66MOL0     H 8896   3.245   4.696   0.938  0.3379 -1.0101  0.6078
   66MOL0     H 8897   3.228   4.470   0.966 -2.3453 -3.5748 -1.1032
   66MOL0     H 8898   2.712   4.168   1.247  4.5150  3.0621 -0.8006
   66MOL0     H 8899   2.598   3.954   1.176  1.7695  1.2605  3.8014
   66MOL0     H 8900   2.687   3.681   0.826 -0.4538 -0.0989  0.6598
   66MOL0     H 8901   2.839   3.753   0.875 -1.3150  1.3677  0.9794
   66MOL0     H 8902   2.823   3.521   0.958  1.5832  0.1478  0.7522
   66MOL0     H 8903   2.680   3.560   1.057  1.3599 -0.7272  3.1080
   66MOL0     H 8904   2.859   3.574   1.223 -0.3268 -0.8072 -0.1575
   66MOL0     H 8905   2.834   3.739   1.180  0.6723 -0.4009  0.1392
   66MOL0     H 8906   3.064   3.716   1.168  2.4527  0.3589  0.0615
   66MOL0     H 8907   3.014   3.716   1.002 -2.3484  0.4789  0.4589
   66MOL0     H 8908   3.170   3.329   1.063  0.7829  1.6505 -4.6172
   66MOL0     H 8909   2.870   3.938   0.837 -2.7493 -4.4327  1.4192
   66MOL0     H 8910   2.984   4.135   0.923 -0.9770  0.0345 -2.0417
   67MOL0     O 8911   3.796   8.429  10.041  0.3605  0.1258  0.5853
   67MOL0     C 8912   3.737   8.331  10.082  0.3121  0.2378 -0.2041
   67MOL0     O 8913   3.707   8.212  10.018  0.5184 -0.8112  0.6955
   67MOL0     C 8914   3.775   8.203   9.897  1.0727 -0.4266  0.4313
   67MOL0     C 8915   3.895   8.124   9.889  0.2809 -1.1403  0.2988
   67MOL0     C 8916   3.977   8.153   9.778  0.0557 -0.0849  0.4368
   67MOL0     C 8917   3.936   8.232   9.671 -0.5045 -0.9539  0.6360
   67MOL0     O 8918   4.023   8.232   9.561  0.2029  0.0707  0.4025
   67MOL0     C 8919   4.003   8.123   9.461  0.7015 -1.3867 -0.1660
   67MOL0     C 8920   3.862   8.145   9.383 -0.4000  0.8025 -0.0906
   67MOL0     C 8921   3.862   8.083   9.247 -0.1491 -0.2223 -0.3913
   67MOL0     C 8922   3.727   8.091   9.168 -0.6283 -0.0474  0.2599
   67MOL0     C 8923   3.750   8.116   9.019 -0.0923  0.7399  0.2336
   67MOL0     C 8924   3.614   8.149   8.946 -0.8222 -0.2307  0.1106
   67MOL0     C 8925   3.627   8.148   8.789 -0.5531 -0.7441  0.1103
   67MOL0     C 8926   3.641   8.012   8.729 -0.4710  0.3521 -0.2690
   67MOL0     N 8927   3.511   7.943   8.743  0.6449 -0.2659  0.7494
   67MOL0     C 8928   3.413   7.924   8.645  0.0919 -0.1127 -0.5361
   67MOL0     C 8929   3.339   7.826   8.696 -0.7730  0.5066  0.3956
   67MOL0     C 8930   3.213   7.766   8.642  0.8567  0.5413 -0.8026
   67MOL0     C 8931   3.177   7.797   8.495 -0.5519  0.1823 -0.3196
   67MOL0     C 8932   3.262   7.706   8.398  0.3125  0.1825  0.0786
   67MOL0     C 8933   3.244   7.729   8.246  0.4752  0.3809 -0.6225
   67MOL0     O 8934   3.273   7.864   8.210 -0.1297 -0.8010 -0.1833
   67MOL0     C 8935   3.394   7.920   8.259 -0.2206 -0.8222 -0.6974
   67MOL0     C 8936   3.384   8.047   8.309  0.5980  0.5844 -0.2929
   67MOL0     C 8937   3.499   8.124   8.342  0.1790 -0.7019  0.2098
   67MOL0     C 8938   3.482   8.265   8.397  0.1957 -0.0477 -0.5781
   67MOL0     C 8939   3.626   8.066   8.321 -1.1163 -0.9563 -0.0216
   67MOL0     C 8940   3.760   8.124   8.372 -0.6266  0.3855 -0.6972
   67MOL0     O 8941   3.869   8.058   8.330 -0.8039 -0.1662  0.9749
   67MOL0     C 8942   3.995   8.108   8.345  0.4444  0.6209 -0.9479
   67MOL0     C 8943   4.054   8.120   8.469  1.5715 -0.3090 -0.1441
   67MOL0     C 8944   4.196   8.147   8.487 -0.1932 -0.0557  0.2183
   67MOL0     C 8945   4.278   8.156   8.373  0.1821  0.3495  0.7907
   67MOL0     O 8946   4.415   8.157   8.387  0.4035  0.1274 -0.4635
   67MOL0     C 8947   4.471   8.031   8.348  0.1382 -0.4358 -0.3724
   67MOL0     C 8948   4.617   8.028   8.315  0.0633 -0.7069  0.2681
   67MOL0     C 8949   4.689   7.890   8.313  0.1612 -0.4787  0.5685
   67MOL0     C 8950   4.842   7.903   8.288  0.2840 -0.5384 -0.2496
   67MOL0     C 8951   4.922   7.766   8.291  0.8069 -1.0555 -0.2105
   67MOL0     C 8952   4.889   7.683   8.167 -0.2418 -0.4534 -0.5042
   67MOL0     C 8953   4.959   7.548   8.162  0.0968 -0.4694  0.0672
   67MOL0     C 8954   4.909   7.467   8.043 -0.2825 -0.2064  0.6647
   67MOL0    Cl 8955   4.770   7.377   8.088  0.0321 -0.1746  0.2450
   67MOL0     C 8956   4.215   8.158   8.241 -0.6971  0.4753 -0.4937
   67MOL0     C 8957   4.073   8.136   8.230 -0.5629 -0.3216  0.4248
   67MOL0     O 8958   3.763   8.211   8.455  0.3907 -0.1614  0.3924
   67MOL0     C 8959   3.629   7.945   8.257 -0.4882 -0.6290 -0.0700
   67MOL0     C 8960   3.515   7.872   8.228 -0.0609  0.3749  0.2547
   67MOL0     N 8961   3.395   7.768   8.814  0.7893  0.1472  0.7054
   67MOL0     N 8962   3.491   7.847   8.841 -0.7453 -0.4281 -0.5975
   67MOL0     C 8963   3.817   8.304   9.672  0.5750  0.0181 -0.5864
   67MOL0     C 8964   3.728   8.286   9.790 -0.2472 -0.4589 -0.3209
   67MOL0     C 8965   3.672   8.327  10.214 -0.4211  0.4495 -0.5931
   67MOL0     C 8966   3.662   8.207  10.288  0.0704 -0.0006  0.3641
   67MOL0     C 8967   3.604   8.205  10.415  0.8032 -1.0682  0.7448
   67MOL0     C 8968   3.569   8.327  10.479 -1.1331  0.8708  1.5461
   67MOL0     O 8969   3.527   8.319  10.605 -0.1730  0.5749  0.2180
   67MOL0     C 8970   3.526   8.432  10.700 -0.2801  0.0359  0.1298
   67MOL0     C 8971   3.600   8.377  10.830 -0.1378 -0.1451  0.4927
   67MOL0     C 8972   3.535   8.249  10.877 -0.2775 -0.0426 -0.2864
   67MOL0     C 8973   3.581   8.190  11.017  0.2282 -0.3549  0.7054
   67MOL0     C 8974   3.506   8.060  11.037  0.5789 -1.2053  0.2411
   67MOL0     C 8975   3.470   7.945  11.043 -1.0610  0.7474  1.0050
   67MOL0     C 8976   3.588   8.452  10.404 -0.3257  0.2227 -0.1679
   67MOL0     C 8977   3.635   8.445  10.274  0.7093 -0.0624 -0.2977
   67MOL0     H 8978   3.931   8.061   9.969 -2.1104  1.0190  3.2866
   67MOL0     H 8979   4.072   8.101   9.772 -0.2304 -0.8078  1.6815
   67MOL0     H 8980   4.090   8.134   9.396 -1.2917  1.5067 -2.6216
   67MOL0     H 8981   4.014   8.023   9.505  1.4371 -0.4907  1.7964
   67MOL0     H 8982   3.782   8.099   9.444 -1.4939  2.0321 -0.5620
   67MOL0     H 8983   3.837   8.251   9.376 -0.2466  0.7483 -1.8398
   67MOL0     H 8984   3.950   8.120   9.193  2.7998  0.3946  4.3065
   67MOL0     H 8985   3.868   7.974   9.256 -1.2293 -0.3640 -1.2450
   67MOL0     H 8986   3.670   7.997   9.177  3.4003 -2.6453  1.1035
   67MOL0     H 8987   3.674   8.176   9.210  2.4025  1.2856  1.6833
   67MOL0     H 8988   3.829   8.188   8.999  1.9384 -0.5983  2.7815
   67MOL0     H 8989   3.794   8.020   8.988  0.7879  0.3334  2.5508
   67MOL0     H 8990   3.542   8.072   8.978  2.4434 -2.5231  2.7119
   67MOL0     H 8991   3.588   8.250   8.979  1.5649  0.3559  0.3958
   67MOL0     H 8992   3.535   8.196   8.755 -0.1338  0.1089  0.1465
   67MOL0     H 8993   3.715   8.210   8.772 -0.3681 -0.6248  1.3617
   67MOL0     H 8994   3.717   7.962   8.790 -0.5495  1.7543  1.0420
   67MOL0     H 8995   3.674   8.019   8.625 -1.4937 -1.6253 -0.7857
   67MOL0     H 8996   3.406   7.992   8.560 -2.5841  2.1565  1.3382
   67MOL0     H 8997   3.217   7.657   8.653 -2.6563  0.3887  0.0731
   67MOL0     H 8998   3.129   7.801   8.702  1.6306  1.7126 -0.3625
   67MOL0     H 8999   3.186   7.900   8.462 -0.9124 -0.3431 -2.1823
   67MOL0     H 9000   3.071   7.776   8.478 -0.5725 -2.7643  2.4957
   67MOL0     H 9001   3.230   7.604   8.424  2.6131 -0.2967  1.3750
   67MOL0     H 9002   3.367   7.713   8.426  0.5603 -0.6051 -0.5914
   67MOL0     H 9003   3.144   7.697   8.218  1.0311  0.2086 -2.5684
   67MOL0     H 9004   3.302   7.654   8.192  0.5867 -2.1142  2.6605
   67MOL0     H 9005   3.282   8.073   8.333 -1.3937 -3.5643 -3.0920
   67MOL0     H 9006   3.494   8.269   8.506 -0.8331 -4.5516 -0.0982
   67MOL0     H 9007   3.549   8.341   8.358 -0.2190  1.3917  1.3316
   67MOL0     H 9008   3.388   8.312   8.365  0.1319 -1.2137 -2.2221
   67MOL0     H 9009   3.991   8.108   8.557 -1.8837  2.2900 -2.0307
   67MOL0     H 9010   4.238   8.158   8.587 -0.0345  2.8238 -0.0747
   67MOL0     H 9011   4.462   7.981   8.444  1.5663 -0.0695 -0.0183
   67MOL0     H 9012   4.405   7.968   8.287 -2.5346 -1.8378  3.5904
   67MOL0     H 9013   4.634   8.079   8.219  0.6416 -1.1528  0.1217
   67MOL0     H 9014   4.667   8.092   8.388  2.3287  2.4219 -3.5926
   67MOL0     H 9015   4.658   7.842   8.220  1.4082 -0.0083 -0.1162
   67MOL0     H 9016   4.668   7.823   8.396 -0.7533  0.9060  1.4907
   67MOL0     H 9017   4.864   7.951   8.192 -1.0372 -1.1744 -0.9034
   67MOL0     H 9018   4.880   7.976   8.360 -1.3123 -1.0187  1.1483
   67MOL0     H 9019   4.881   7.713   8.378  2.5293 -1.1204  0.5971
   67MOL0     H 9020   5.029   7.778   8.310  0.3980  0.7592  1.2933
   67MOL0     H 9021   4.782   7.666   8.154 -0.6053 -1.2969  2.7158
   67MOL0     H 9022   4.914   7.748   8.082 -3.8065  0.3393 -1.1105
   67MOL0     H 9023   4.934   7.494   8.253 -0.6084 -4.3434 -2.1715
   67MOL0     H 9024   5.067   7.562   8.155  0.2763 -2.0749 -1.2959
   67MOL0     H 9025   4.987   7.397   8.013  1.7506  1.1919  2.4285
   67MOL0     H 9026   4.903   7.532   7.956  2.4613  0.8651  1.1775
   67MOL0     H 9027   4.273   8.173   8.150 -3.4897  2.1895 -2.1735
   67MOL0     H 9028   4.033   8.123   8.130 -2.0736 -0.6634  1.0340
   67MOL0     H 9029   3.722   7.895   8.235  0.1715  1.1702 -1.6324
   67MOL0     H 9030   3.528   7.778   8.176  1.0003  0.1280  0.9258
   67MOL0     H 9031   3.777   8.349   9.581 -1.8085 -1.3266 -0.2923
   67MOL0     H 9032   3.642   8.350   9.806  1.3864  2.1179 -1.2934
   67MOL0     H 9033   3.707   8.116  10.252 -0.0665  1.4153 -3.8716
   67MOL0     H 9034   3.591   8.110  10.466 -1.3676 -1.0906  0.2784
   67MOL0     H 9035   3.592   8.509  10.658 -1.7550  1.6451  0.6598
   67MOL0     H 9036   3.430   8.476  10.726  1.0535  1.9126  2.2395
   67MOL0     H 9037   3.613   8.455  10.907  0.8597 -2.1406  2.4679
   67MOL0     H 9038   3.702   8.357  10.796 -0.0075  3.1790 -1.5054
   67MOL0     H 9039   3.544   8.176  10.796  0.8684  1.4921 -1.6086
   67MOL0     H 9040   3.429   8.275  10.870 -0.8382 -2.5321 -2.5373
   67MOL0     H 9041   3.565   8.257  11.102  0.5834  0.8740 -0.1699
   67MOL0     H 9042   3.689   8.170  11.015  0.4292  0.6926  0.4312
   67MOL0     H 9043   3.449   7.841  11.054  0.0045  0.5935  1.6900
   67MOL0     H 9044   3.554   8.548  10.440 -1.8677 -1.0554  2.0451
   67MOL0     H 9045   3.637   8.534  10.213  0.3231  0.5209  0.5290
   68MOL0     O 9046   0.290   2.499   9.931  0.0938 -0.4212 -0.5646
   68MOL0     C 9047   0.301   2.383   9.899  1.0215 -0.2761  0.2183
   68MOL0     O 9048   0.232   2.320   9.795 -0.0896 -0.4533 -1.2366
   68MOL0     C 9049   0.108   2.368   9.754 -1.0381  0.1498  0.6035
   68MOL0     C 9050   0.049   2.293   9.645  0.2682  0.5177 -1.2165
   68MOL0     C 9051  -0.075   2.330   9.586  0.0854 -0.7849 -0.3575
   68MOL0     C 9052  -0.139   2.447   9.632  0.3108  0.1847 -0.3858
   68MOL0     O 9053  -0.253   2.480   9.563 -0.2830  0.0998 -0.5444
   68MOL0     C 9054  -0.356   2.561   9.614  0.0571 -1.9490 -0.2602
   68MOL0     C 9055  -0.481   2.550   9.523 -0.7021  0.4997  0.0794
   68MOL0     C 9056  -0.584   2.646   9.565 -0.2053 -0.6929 -0.7535
   68MOL0     C 9057  -0.720   2.604   9.507  0.3931 -0.4596 -0.5720
   68MOL0     C 9058  -0.814   2.713   9.554  0.3537 -0.2937  0.4214
   68MOL0     C 9059  -0.962   2.664   9.515 -1.0392 -0.7315  0.6322
   68MOL0     C 9060  -1.057   2.776   9.550 -0.2990 -0.6843  0.4619
   68MOL0     C 9061  -1.197   2.723   9.582 -0.1488 -0.2392  0.5207
   68MOL0     N 9062  -1.279   2.841   9.545 -0.1106  0.1083  0.3204
   68MOL0     C 9063  -1.311   2.895   9.418 -0.4857  0.0135  0.1854
   68MOL0     C 9064  -1.377   3.010   9.435 -0.4099  0.5040 -0.5587
   68MOL0     C 9065  -1.454   3.083   9.327  0.9876  0.3971 -0.8535
   68MOL0     C 9066  -1.601   3.025   9.314 -0.1098 -0.0390  0.4224
   68MOL0     C 9067  -1.679   3.058   9.442  0.1910  0.2429 -0.0120
   68MOL0     C 9068  -1.824   3.046   9.416 -0.5646 -0.2304 -0.0301
   68MOL0     O 9069  -1.878   3.114   9.529 -0.4819  0.6389 -1.0175
   68MOL0     C 9070  -2.014   3.107   9.549  0.3316  0.9249 -0.8207
   68MOL0     C 9071  -2.067   3.198   9.644  0.6589 -0.4051 -0.0034
   68MOL0     C 9072  -2.202   3.194   9.687  1.2980  0.3385 -0.0742
   68MOL0     C 9073  -2.236   3.284   9.805  0.5431 -0.1777 -1.0775
   68MOL0     C 9074  -2.289   3.104   9.622 -0.1093  0.2947 -0.9491
   68MOL0     C 9075  -2.437   3.089   9.655  0.1239 -0.5039 -0.3285
   68MOL0     O 9076  -2.486   2.968   9.598 -0.6476 -0.0480  0.0867
   68MOL0     C 9077  -2.618   2.942   9.628 -0.8414  0.8619  0.1283
   68MOL0     C 9078  -2.695   2.910   9.520 -0.6265  0.5859 -1.3620
   68MOL0     C 9079  -2.836   2.882   9.536 -0.3003 -0.8523 -1.0936
   68MOL0     C 9080  -2.892   2.873   9.663  0.4454  0.1915 -1.0758
   68MOL0     O 9081  -3.022   2.843   9.693  0.4283  0.2111 -0.1120
   68MOL0     C 9082  -3.116   2.881   9.584 -1.1817  0.0737 -0.3594
   68MOL0     C 9083  -3.248   2.857   9.649  0.9464 -0.6286  0.2987
   68MOL0     C 9084  -3.372   2.883   9.552  0.3587 -0.6959 -0.3699
   68MOL0     C 9085  -3.498   2.935   9.623  0.4660  0.3161  0.4007
   68MOL0     C 9086  -3.573   2.838   9.726 -0.2961 -0.2490  0.0583
   68MOL0     C 9087  -3.594   2.691   9.674  0.7053 -0.2068  0.6828
   68MOL0     C 9088  -3.697   2.617   9.752  0.1867  0.7662  0.2232
   68MOL0     C 9089  -3.716   2.476   9.688 -0.7190  0.6355 -0.3609
   68MOL0    Cl 9090  -3.870   2.417   9.754 -0.6545  0.1692  0.3522
   68MOL0     C 9091  -2.815   2.892   9.777 -0.3260 -0.9379  0.6306
   68MOL0     C 9092  -2.681   2.933   9.759  1.0262  0.2254  0.6076
   68MOL0     O 9093  -2.504   3.170   9.716 -0.2173  0.3872 -0.2914
   68MOL0     C 9094  -2.237   3.026   9.520  0.0753  0.4208 -0.1290
   68MOL0     C 9095  -2.102   3.013   9.486  0.5718  0.4299  0.3387
   68MOL0     N 9096  -1.375   3.029   9.582 -0.7451 -0.1104  0.2003
   68MOL0     N 9097  -1.330   2.920   9.640  0.5246 -0.1048 -0.6400
   68MOL0     C 9098  -0.088   2.513   9.744  0.2935  0.5868  1.1461
   68MOL0     C 9099   0.033   2.473   9.809 -0.8870  0.3110  0.8145
   68MOL0     C 9100   0.396   2.291   9.971 -0.1961 -0.2186 -0.4150
   68MOL0     C 9101   0.499   2.346  10.053 -0.0723 -0.1581  0.0918
   68MOL0     C 9102   0.593   2.257  10.108 -0.0569  0.5569 -0.4265
   68MOL0     C 9103   0.572   2.118  10.106 -0.4031 -0.3215  0.1221
   68MOL0     O 9104   0.646   2.039  10.191 -0.5489  1.2453 -0.0891
   68MOL0     C 9105   0.676   1.903  10.168  0.0830  0.3818  0.2838
   68MOL0     C 9106   0.790   1.859  10.256 -0.6867  0.1323  0.7826
   68MOL0     C 9107   0.889   1.776  10.172  1.1484 -0.2604 -0.0557
   68MOL0     C 9108   1.018   1.741  10.241  0.1551  0.3057 -0.4877
   68MOL0     C 9109   1.000   1.681  10.374  0.7469  0.6047 -0.5780
   68MOL0     C 9110   0.991   1.633  10.485  0.0694  0.4404  0.0949
   68MOL0     C 9111   0.470   2.067  10.033 -0.3429 -0.8839 -0.6744
   68MOL0     C 9112   0.382   2.153   9.965  0.5136 -0.1161  0.2955
   68MOL0     H 9113   0.097   2.200   9.616 -3.2699 -1.2684 -1.8378
   68MOL0     H 9114  -0.110   2.264   9.507  0.5415 -1.5747  0.0899
   68MOL0     H 9115  -0.395   2.539   9.714 -2.7677  1.8779 -0.2890
   68MOL0     H 9116  -0.322   2.664   9.614  4.5196 -3.2022 -1.0757
   68MOL0     H 9117  -0.450   2.565   9.419  1.7158  0.7896  0.7843
   68MOL0     H 9118  -0.516   2.447   9.531 -0.0557  0.3866  2.0602
   68MOL0     H 9119  -0.591   2.648   9.674  1.9821 -0.7183 -0.5612
   68MOL0     H 9120  -0.555   2.748   9.537  1.5520 -0.1758  2.5009
   68MOL0     H 9121  -0.711   2.605   9.398  1.6927 -1.8353 -0.5107
   68MOL0     H 9122  -0.748   2.506   9.547 -0.9363  0.2349  0.2859
   68MOL0     H 9123  -0.797   2.727   9.661 -1.9624  1.3524  0.6518
   68MOL0     H 9124  -0.779   2.804   9.505  0.6764 -0.9274 -0.5695
   68MOL0     H 9125  -0.978   2.640   9.410 -2.5057  0.2669  0.5956
   68MOL0     H 9126  -0.987   2.581   9.582 -0.2065 -1.3327  0.2084
   68MOL0     H 9127  -1.028   2.824   9.644  1.1026  1.4211 -0.9615
   68MOL0     H 9128  -1.057   2.854   9.473 -2.4786 -1.1168 -0.0560
   68MOL0     H 9129  -1.219   2.688   9.683  0.5200 -2.4734 -0.0546
   68MOL0     H 9130  -1.224   2.643   9.512 -0.6185 -0.5682  1.0782
   68MOL0     H 9131  -1.295   2.851   9.320 -0.3659 -1.0321  0.6632
   68MOL0     H 9132  -1.450   3.191   9.339  1.2499  0.2966  0.1191
   68MOL0     H 9133  -1.414   3.071   9.227 -0.6425 -0.4760 -1.4454
   68MOL0     H 9134  -1.610   2.916   9.323 -1.2995 -0.0067 -0.1472
   68MOL0     H 9135  -1.648   3.052   9.219 -1.0922  0.4662  1.0335
   68MOL0     H 9136  -1.654   3.163   9.463  0.5292  0.1113  0.2512
   68MOL0     H 9137  -1.667   2.981   9.518  0.0414 -1.6662 -1.8510
   68MOL0     H 9138  -1.850   2.940   9.409  1.0980 -0.7181  0.7266
   68MOL0     H 9139  -1.846   3.103   9.325 -2.4722  0.2264  0.6749
   68MOL0     H 9140  -1.997   3.270   9.686  0.2615  0.6066 -1.0163
   68MOL0     H 9141  -2.250   3.385   9.767 -0.7005 -0.1860 -0.6811
   68MOL0     H 9142  -2.324   3.252   9.862  2.0188 -2.5854  0.0311
   68MOL0     H 9143  -2.162   3.273   9.885 -1.2743 -1.5108  0.5095
   68MOL0     H 9144  -2.652   2.887   9.423  1.8928  0.6288 -0.3236
   68MOL0     H 9145  -2.885   2.855   9.442  0.6131 -1.3822 -1.4374
   68MOL0     H 9146  -3.098   2.983   9.548  0.0392  0.3127  0.8332
   68MOL0     H 9147  -3.107   2.815   9.498  3.9492  0.1319 -0.1773
   68MOL0     H 9148  -3.250   2.754   9.686 -1.2294 -0.3976  0.9664
   68MOL0     H 9149  -3.264   2.938   9.721  2.9937  2.4248 -2.3558
   68MOL0     H 9150  -3.414   2.789   9.516 -1.4029 -1.5254  3.3039
   68MOL0     H 9151  -3.341   2.945   9.468  2.5769 -0.5873  0.4559
   68MOL0     H 9152  -3.470   3.024   9.680  0.5918 -0.8269  2.1836
   68MOL0     H 9153  -3.564   2.972   9.544  0.5566 -3.3600 -1.6093
   68MOL0     H 9154  -3.662   2.897   9.752  0.6254  1.5702 -0.8061
   68MOL0     H 9155  -3.530   2.827   9.826 -2.3804 -1.1753  0.9151
   68MOL0     H 9156  -3.647   2.697   9.579 -4.7383 -3.0054  3.0789
   68MOL0     H 9157  -3.499   2.638   9.675 -0.5421 -2.6452 -0.9345
   68MOL0     H 9158  -3.793   2.668   9.740  0.8179  2.1700  0.8507
   68MOL0     H 9159  -3.666   2.612   9.856 -0.4127 -1.9785  0.3339
   68MOL0     H 9160  -3.639   2.413   9.732 -2.2161 -1.5490 -0.7076
   68MOL0     H 9161  -3.712   2.464   9.579 -1.7660 -4.4010 -0.0815
   68MOL0     H 9162  -2.862   2.888   9.874  1.1417 -1.0577  1.3729
   68MOL0     H 9163  -2.615   2.952   9.843  0.0345 -0.2156  1.4950
   68MOL0     H 9164  -2.302   2.955   9.468 -1.7357  1.5150  0.5342
   68MOL0     H 9165  -2.070   2.933   9.419  0.8756  1.8780 -1.3093
   68MOL0     H 9166  -0.140   2.588   9.803  1.4200  1.9083  0.5251
   68MOL0     H 9167   0.059   2.531   9.897  1.3428 -0.2714  0.6077
   68MOL0     H 9168   0.513   2.448  10.087  1.1436  0.3218 -1.7367
   68MOL0     H 9169   0.669   2.282  10.181  0.9134  1.2541 -1.6362
   68MOL0     H 9170   0.591   1.841  10.194  1.9377 -3.2187 -1.4632
   68MOL0     H 9171   0.706   1.884  10.064 -0.3302  1.0586  0.0283
   68MOL0     H 9172   0.741   1.807  10.339  1.8551 -1.6247  1.2827
   68MOL0     H 9173   0.837   1.951  10.291  1.6384 -1.5240  2.2917
   68MOL0     H 9174   0.905   1.814  10.071  0.6461 -0.1302 -0.0903
   68MOL0     H 9175   0.835   1.682  10.159 -3.3407  1.7188  2.0889
   68MOL0     H 9176   1.087   1.825  10.254 -0.5315  0.9042 -0.5935
   68MOL0     H 9177   1.053   1.664  10.173 -3.0078  1.1258 -3.3390
   68MOL0     H 9178   1.011   1.583  10.577 -3.2278  1.4646  1.5194
   68MOL0     H 9179   0.456   1.960  10.016  0.8618 -0.7022 -3.3125
   68MOL0     H 9180   0.305   2.104   9.907  2.8543 -1.0858 -2.1934
   69MOL0     O 9181   2.364   1.947   9.692  0.2958  1.1176  0.8810
   69MOL0     C 9182   2.366   2.056   9.637  0.3460 -0.0607 -0.8951
   69MOL0     O 9183   2.465   2.107   9.559 -1.2104 -0.4073 -1.4258
   69MOL0     C 9184   2.563   2.018   9.513 -0.1799 -0.1169 -0.6865
   69MOL0     C 9185   2.547   1.961   9.380 -0.2907  0.8557  0.2743
   69MOL0     C 9186   2.629   1.861   9.340  0.3700  1.4799  0.5155
   69MOL0     C 9187   2.755   1.835   9.414  0.0606  0.5808  0.4617
   69MOL0     O 9188   2.841   1.744   9.351  0.3106 -0.5525 -0.5438
   69MOL0     C 9189   2.978   1.747   9.403 -0.9181 -0.8555  0.3964
   69MOL0     C 9190   3.062   1.869   9.362  0.3560 -0.2547 -0.1433
   69MOL0     C 9191   3.138   1.849   9.233  0.7326  0.8918 -0.2617
   69MOL0     C 9192   3.235   1.949   9.193 -0.1562  0.7720  0.8245
   69MOL0     C 9193   3.301   1.907   9.061  1.6765 -0.9468 -0.2945
   69MOL0     C 9194   3.356   2.035   8.994  0.3147  0.3727 -0.1184
   69MOL0     C 9195   3.439   2.005   8.858 -0.0201 -0.5946 -0.6211
   69MOL0     C 9196   3.475   2.135   8.789 -0.4201  0.5006 -0.0021
   69MOL0     N 9197   3.604   2.171   8.846 -0.1695  0.4348  0.0070
   69MOL0     C 9198   3.631   2.285   8.922 -0.1191  0.8269  0.1501
   69MOL0     C 9199   3.760   2.271   8.961 -0.7080  0.7135  0.5563
   69MOL0     C 9200   3.829   2.379   9.040 -0.4904  0.2138  0.4048
   69MOL0     C 9201   3.875   2.325   9.175  0.6648 -0.0498  0.3820
   69MOL0     C 9202   3.904   2.443   9.269 -0.0830 -0.0766  0.7843
   69MOL0     C 9203   3.774   2.490   9.339  0.0778  0.4232 -0.2507
   69MOL0     O 9204   3.808   2.608   9.411 -0.5357  0.1273  0.2434
   69MOL0     C 9205   3.792   2.710   9.328 -0.5387  0.3494 -0.0154
   69MOL0     C 9206   3.899   2.777   9.278  0.4717 -0.2200 -0.5508
   69MOL0     C 9207   3.891   2.883   9.182 -0.0169  0.6521  0.2207
   69MOL0     C 9208   4.021   2.952   9.137  0.2800 -0.4097  0.1991
   69MOL0     C 9209   3.758   2.926   9.135 -0.5738  0.5949  0.4006
   69MOL0     C 9210   3.718   3.030   9.034 -0.8520 -0.4635  0.1431
   69MOL0     O 9211   3.585   3.063   9.034 -0.4084 -0.4104 -0.2192
   69MOL0     C 9212   3.526   3.162   8.955  0.3700 -0.0671 -1.0475
   69MOL0     C 9213   3.556   3.175   8.818 -0.2459 -0.5251 -0.2207
   69MOL0     C 9214   3.484   3.275   8.752 -0.9878  0.3045  1.0817
   69MOL0     C 9215   3.412   3.374   8.804  0.5596 -0.4715  0.6928
   69MOL0     O 9216   3.374   3.475   8.713 -0.3124 -0.3034 -0.4747
   69MOL0     C 9217   3.303   3.585   8.772  0.1637 -0.1084  0.0233
   69MOL0     C 9218   3.307   3.704   8.674  0.0819  0.0959 -0.1647
   69MOL0     C 9219   3.277   3.845   8.742 -0.2086 -0.0415 -0.2616
   69MOL0     C 9220   3.287   3.965   8.639  0.4464 -1.1123 -0.8861
   69MOL0     C 9221   3.254   4.106   8.686  0.2735 -0.6784 -0.9070
   69MOL0     C 9222   3.272   4.214   8.572 -0.2104 -0.8318 -0.0793
   69MOL0     C 9223   3.408   4.215   8.497  0.2614 -0.2293  0.0609
   69MOL0     C 9224   3.418   4.319   8.385 -0.4317  0.4641  0.6224
   69MOL0    Cl 9225   3.590   4.342   8.328 -0.2296  0.2626  0.0807
   69MOL0     C 9226   3.371   3.361   8.941  0.7661  0.4765 -0.1755
   69MOL0     C 9227   3.432   3.252   9.016  0.5429 -0.1549 -0.3292
   69MOL0     O 9228   3.810   3.098   8.981  0.1159 -0.1644 -0.0948
   69MOL0     C 9229   3.651   2.853   9.197 -0.3215  0.2192  0.1190
   69MOL0     C 9230   3.663   2.751   9.288 -0.6702  0.3270  0.7539
   69MOL0     N 9231   3.806   2.152   8.906 -0.4863  0.5756 -0.0345
   69MOL0     N 9232   3.715   2.103   8.830 -0.7187 -1.2053  0.4583
   69MOL0     C 9233   2.772   1.903   9.540  0.0997  0.5074  1.0784
   69MOL0     C 9234   2.678   1.991   9.588 -0.1389 -0.5297  0.7736
   69MOL0     C 9235   2.258   2.148   9.674 -0.3837  0.2859 -0.1247
   69MOL0     C 9236   2.280   2.286   9.677 -0.3857  0.2313  0.2970
   69MOL0     C 9237   2.177   2.379   9.714 -0.0725 -0.7861  0.6720
   69MOL0     C 9238   2.048   2.344   9.722 -0.6151  0.0986 -0.8671
   69MOL0     O 9239   1.968   2.444   9.755  0.4307  0.7175 -0.1679
   69MOL0     C 9240   1.853   2.412   9.832 -0.4859 -0.3059  0.9953
   69MOL0     C 9241   1.777   2.539   9.868  0.4276 -0.9679 -0.7252
   69MOL0     C 9242   1.852   2.669   9.883  0.6423 -0.7464  0.0312
   69MOL0     C 9243   1.968   2.662   9.988  0.1446  0.2804 -0.0605
   69MOL0     C 9244   2.041   2.785  10.020  1.5306 -0.1349  0.0414
   69MOL0     C 9245   2.109   2.876  10.048  1.4685  0.1121  0.0908
   69MOL0     C 9246   2.029   2.200   9.728 -0.7097 -0.6289 -0.1376
   69MOL0     C 9247   2.127   2.105   9.703 -0.7788 -0.4375 -0.6332
   69MOL0     H 9248   2.471   2.004   9.316  0.5922  1.4492 -0.3942
   69MOL0     H 9249   2.626   1.809   9.246  1.5444  0.1809  1.1575
   69MOL0     H 9250   2.980   1.739   9.512  1.0597  0.6426  0.5402
   69MOL0     H 9251   3.021   1.654   9.365  0.2029  0.2675 -1.1975
   69MOL0     H 9252   2.998   1.957   9.367  0.1575 -0.4576  1.8183
   69MOL0     H 9253   3.135   1.886   9.442 -0.6416  0.1698  0.6934
   69MOL0     H 9254   3.184   1.751   9.216 -0.1671  0.9746 -4.0356
   69MOL0     H 9255   3.059   1.859   9.158  0.1755  0.5818  0.2762
   69MOL0     H 9256   3.190   2.049   9.190  1.3717  1.5678  2.4947
   69MOL0     H 9257   3.309   1.957   9.273  0.6513 -0.3496  0.2120
   69MOL0     H 9258   3.386   1.842   9.082  1.3656 -0.8348  1.4299
   69MOL0     H 9259   3.228   1.855   8.997 -0.1597 -0.0062  0.9491
   69MOL0     H 9260   3.269   2.093   8.965 -0.4149 -1.9701 -2.9970
   69MOL0     H 9261   3.409   2.086   9.075  1.1457 -1.4624  0.5410
   69MOL0     H 9262   3.522   1.935   8.864  0.5204  0.0287 -0.6514
   69MOL0     H 9263   3.377   1.955   8.784  0.3302  0.8752 -1.9606
   69MOL0     H 9264   3.414   2.220   8.819  2.1288  2.2306  0.5502
   69MOL0     H 9265   3.489   2.121   8.681 -0.8267 -0.4548  0.0528
   69MOL0     H 9266   3.565   2.361   8.960  1.0380  0.8253  2.3524
   69MOL0     H 9267   3.915   2.403   8.976  1.3521 -2.1136  1.8290
   69MOL0     H 9268   3.771   2.472   9.047  2.0182  1.8678  0.6750
   69MOL0     H 9269   3.968   2.269   9.157  0.7605  0.3295 -0.3797
   69MOL0     H 9270   3.801   2.255   9.214 -1.0382  0.7875 -1.1814
   69MOL0     H 9271   3.951   2.521   9.208 -0.9425  0.0038  0.2151
   69MOL0     H 9272   3.979   2.425   9.347 -0.3908  2.0722  1.6533
   69MOL0     H 9273   3.746   2.420   9.418  1.7965 -0.3274 -0.2686
   69MOL0     H 9274   3.686   2.500   9.274  1.0296 -1.9199 -2.0264
   69MOL0     H 9275   3.994   2.753   9.324 -0.3079 -0.3267  1.0608
   69MOL0     H 9276   4.102   2.878   9.139  0.9761  0.3554  1.4834
   69MOL0     H 9277   4.014   2.989   9.034 -4.0008  1.1136  0.8407
   69MOL0     H 9278   4.027   3.037   9.206 -0.0504 -0.3938  0.2102
   69MOL0     H 9279   3.635   3.119   8.770  1.5502  0.7426  1.1403
   69MOL0     H 9280   3.511   3.286   8.648 -1.9061 -0.8378  0.7017
   69MOL0     H 9281   3.201   3.560   8.803  0.0174 -2.2952 -1.9904
   69MOL0     H 9282   3.352   3.618   8.864  0.0081 -0.4467  0.2287
   69MOL0     H 9283   3.414   3.698   8.651  1.3565 -0.8872  4.7244
   69MOL0     H 9284   3.232   3.694   8.596 -0.7702  4.8925 -0.2583
   69MOL0     H 9285   3.351   3.862   8.821 -2.0124 -3.2781  2.3980
   69MOL0     H 9286   3.181   3.857   8.793 -0.9586  0.4751 -1.7448
   69MOL0     H 9287   3.393   3.977   8.614  0.9022 -1.0545  0.9057
   69MOL0     H 9288   3.226   3.939   8.552  0.7060 -0.5380 -1.2452
   69MOL0     H 9289   3.317   4.121   8.774 -1.1885 -1.1530  0.2668
   69MOL0     H 9290   3.149   4.096   8.716  0.6951 -2.4293  0.0749
   69MOL0     H 9291   3.193   4.200   8.498 -1.1626 -2.7573  1.2307
   69MOL0     H 9292   3.256   4.314   8.614  1.9172 -0.4543 -0.0361
   69MOL0     H 9293   3.427   4.114   8.460  1.6445 -0.0441  0.2373
   69MOL0     H 9294   3.480   4.222   8.579  0.6754  0.9477 -0.3918
   69MOL0     H 9295   3.370   4.408   8.427 -4.1584 -0.1573 -1.9478
   69MOL0     H 9296   3.356   4.284   8.303  0.2129 -0.0924  0.3551
   69MOL0     H 9297   3.300   3.434   8.980 -0.1441 -0.1728 -0.5880
   69MOL0     H 9298   3.404   3.242   9.120  0.0582 -0.9217 -0.5296
   69MOL0     H 9299   3.551   2.882   9.166 -0.2761 -0.1563 -0.3953
   69MOL0     H 9300   3.570   2.706   9.320 -2.4090  3.9849  1.3819
   69MOL0     H 9301   2.852   1.880   9.609 -0.0836 -5.3772 -0.1574
   69MOL0     H 9302   2.695   2.058   9.672 -0.9621 -1.4311  1.6887
   69MOL0     H 9303   2.383   2.314   9.658 -0.7227  2.1608  1.0338
   69MOL0     H 9304   2.198   2.485   9.706  1.1393 -0.9409  1.6292
   69MOL0     H 9305   1.785   2.350   9.773  1.5756  2.1447 -4.6869
   69MOL0     H 9306   1.900   2.354   9.913  2.6589  0.5227 -0.0696
   69MOL0     H 9307   1.738   2.511   9.966 -1.1980 -3.7385 -2.0186
   69MOL0     H 9308   1.685   2.549   9.809 -0.1531 -0.0685  0.2918
   69MOL0     H 9309   1.782   2.750   9.902 -0.6840 -1.6545 -0.8736
   69MOL0     H 9310   1.903   2.693   9.789  1.3988 -1.2906  0.2903
   69MOL0     H 9311   2.046   2.592   9.958  1.5685  1.2615  1.2172
   69MOL0     H 9312   1.938   2.616  10.083  2.7467 -2.4477 -0.4414
   69MOL0     H 9313   2.174   2.954  10.081  3.4476 -0.9880 -0.9730
   69MOL0     H 9314   1.926   2.172   9.748 -1.9699  2.8320 -1.0177
   69MOL0     H 9315   2.105   1.999   9.704  2.3163 -1.2052 -2.0981
   70MOL0     O 9316   2.924   4.234  10.710  0.6055 -0.4136  0.4025
   70MOL0     C 9317   2.975   4.129  10.681  0.6163  0.1693  0.8593
   70MOL0     O 9318   3.017   4.031  10.762 -0.2318 -0.5424  0.4975
   70MOL0     C 9319   2.986   4.040  10.897 -0.2080 -0.4053 -0.0371
   70MOL0     C 9320   2.920   3.929  10.950 -0.5501  0.2819 -0.9113
   70MOL0     C 9321   2.892   3.922  11.089  0.5005  0.6092 -0.2355
   70MOL0     C 9322   2.918   4.034  11.168 -0.2701 -0.0098  0.1000
   70MOL0     O 9323   2.876   4.026  11.297  0.7718 -0.1354 -0.4957
   70MOL0     C 9324   2.884   4.142  11.391 -0.9748  0.1632  0.6699
   70MOL0     C 9325   2.810   4.096  11.514  0.2530 -0.7089 -0.0795
   70MOL0     C 9326   2.831   3.951  11.561 -0.2408  0.4191 -0.7792
   70MOL0     C 9327   2.770   3.924  11.698 -0.3715 -0.1329 -0.1125
   70MOL0     C 9328   2.807   3.780  11.745  0.0590 -0.5463  0.6916
   70MOL0     C 9329   2.736   3.738  11.872  0.2384 -0.2691  0.1242
   70MOL0     C 9330   2.812   3.748  11.991  0.5935 -0.7965 -0.7686
   70MOL0     C 9331   2.919   3.642  11.999  0.0646 -0.5269 -0.3377
   70MOL0     N 9332   2.871   3.514  12.067  0.6216 -0.2155  0.9734
   70MOL0     C 9333   2.809   3.411  12.004  1.7658 -0.8062  0.5318
   70MOL0     C 9334   2.780   3.320  12.100  0.7351 -0.1895 -0.5238
   70MOL0     C 9335   2.725   3.177  12.078  1.0758 -0.5578  0.4036
   70MOL0     C 9336   2.610   3.139  12.169 -0.1614  0.3848  0.4001
   70MOL0     C 9337   2.486   3.219  12.160  0.8973 -0.4323  0.3814
   70MOL0     C 9338   2.364   3.154  12.244 -0.0534 -0.1965  0.2143
   70MOL0     O 9339   2.334   3.028  12.169  0.9501 -0.1174 -0.0956
   70MOL0     C 9340   2.205   2.990  12.191 -0.1286 -0.0630  0.9508
   70MOL0     C 9341   2.163   2.919  12.082  0.1543 -0.4157  0.3349
   70MOL0     C 9342   2.031   2.873  12.082 -0.8491 -0.1405 -0.2228
   70MOL0     C 9343   2.003   2.811  11.945 -0.3195  0.2948  0.1263
   70MOL0     C 9344   1.942   2.885  12.179  0.2332 -0.3189  0.4611
   70MOL0     C 9345   1.796   2.826  12.174  0.4520  0.5045  0.1735
   70MOL0     O 9346   1.780   2.688  12.181  0.9983  0.5203  0.6665
   70MOL0     C 9347   1.872   2.613  12.247 -0.0415 -0.7631 -0.6478
   70MOL0     C 9348   1.885   2.620  12.386 -0.1748 -0.9723 -0.2962
   70MOL0     C 9349   1.981   2.545  12.458 -0.1049 -0.7522  0.3546
   70MOL0     C 9350   2.083   2.480  12.376 -0.0114 -0.0300 -0.6087
   70MOL0     O 9351   2.187   2.431  12.450  0.1120  0.5779 -0.0708
   70MOL0     C 9352   2.286   2.374  12.368 -0.3808  0.2727  0.3691
   70MOL0     C 9353   2.387   2.317  12.482  0.2551  0.3926 -0.4817
   70MOL0     C 9354   2.467   2.426  12.552  0.0029  0.1707  0.2495
   70MOL0     C 9355   2.509   2.394  12.692 -0.5194  0.3786 -0.3071
   70MOL0     C 9356   2.575   2.525  12.742  0.4468 -0.4821 -1.1432
   70MOL0     C 9357   2.613   2.504  12.889  0.0569 -0.8992 -1.6274
   70MOL0     C 9358   2.726   2.606  12.939 -0.1376 -0.6908  0.5923
   70MOL0     C 9359   2.738   2.610  13.091  0.4492 -1.4925 -0.3625
   70MOL0    Cl 9360   2.822   2.771  13.130 -0.4186 -0.5567 -0.0887
   70MOL0     C 9361   2.059   2.465  12.236 -0.4879  0.5111 -0.0524
   70MOL0     C 9362   1.954   2.526  12.173 -0.4231 -0.5634 -0.0625
   70MOL0     O 9363   1.701   2.905  12.172  0.2178 -0.5436  0.1086
   70MOL0     C 9364   1.986   2.953  12.289 -0.7327 -0.2723 -0.5196
   70MOL0     C 9365   2.108   3.022  12.289  0.7252  0.0220  0.1742
   70MOL0     N 9366   2.829   3.360  12.221 -0.3028  0.1770  0.7467
   70MOL0     N 9367   2.884   3.477  12.200  0.7288  0.2536 -0.5229
   70MOL0     C 9368   2.973   4.144  11.109  0.4423  0.1702  0.0172
   70MOL0     C 9369   3.015   4.147  10.978  0.7830  0.6183 -0.0044
   70MOL0     C 9370   2.990   4.096  10.534  0.4739 -1.4064  1.7745
   70MOL0     C 9371   2.938   4.179  10.442  0.9714  0.3710  0.8302
   70MOL0     C 9372   2.954   4.155  10.305 -0.1484  0.1641  1.3386
   70MOL0     C 9373   3.021   4.045  10.253  0.0243  0.4643 -0.8154
   70MOL0     O 9374   3.033   4.028  10.118  0.0877 -0.8661 -0.3056
   70MOL0     C 9375   3.155   3.964  10.069 -0.5834  0.9806  0.3925
   70MOL0     C 9376   3.233   4.069   9.995 -0.3637  0.0546 -0.2268
   70MOL0     C 9377   3.148   4.124   9.880  0.0287  0.6326 -0.0039
   70MOL0     C 9378   3.220   4.195   9.764 -0.4464  0.2251  0.6425
   70MOL0     C 9379   3.280   4.103   9.664 -0.2656  0.1509  0.4895
   70MOL0     C 9380   3.331   4.029   9.580  0.4771  0.6888  0.6753
   70MOL0     C 9381   3.050   3.948  10.354 -0.4342 -0.6294  0.9042
   70MOL0     C 9382   3.042   3.978  10.490 -0.7041  0.9889 -0.5994
   70MOL0     H 9383   2.902   3.834  10.901  0.0564 -0.5278  0.3821
   70MOL0     H 9384   2.848   3.828  11.122  0.5810  1.3276  2.1164
   70MOL0     H 9385   2.984   4.175  11.418  1.2265 -4.3900 -0.9789
   70MOL0     H 9386   2.844   4.231  11.341  4.2686  1.6762 -1.4971
   70MOL0     H 9387   2.836   4.161  11.598 -1.7002 -1.3267  1.0664
   70MOL0     H 9388   2.702   4.108  11.506 -0.8056 -3.7827  4.9265
   70MOL0     H 9389   2.790   3.878  11.491  1.0572  0.3717 -1.5317
   70MOL0     H 9390   2.939   3.940  11.577 -0.4313  0.7159  0.8992
   70MOL0     H 9391   2.809   3.997  11.769  2.0409 -0.6676 -0.7696
   70MOL0     H 9392   2.663   3.944  11.698  0.2130  3.8751 -1.7933
   70MOL0     H 9393   2.783   3.708  11.666 -1.8210  1.3818 -0.6026
   70MOL0     H 9394   2.915   3.762  11.743  0.0455 -0.5689 -0.3297
   70MOL0     H 9395   2.648   3.803  11.875  1.9000  2.1618 -0.5816
   70MOL0     H 9396   2.717   3.630  11.869  1.7772 -0.5428 -0.6921
   70MOL0     H 9397   2.846   3.851  11.987 -0.2038 -0.4686  0.2466
   70MOL0     H 9398   2.745   3.745  12.079  0.2081 -1.6139 -1.0759
   70MOL0     H 9399   3.007   3.676  12.055  0.3181  1.5320 -1.8938
   70MOL0     H 9400   2.945   3.607  11.899 -0.8177 -1.1569 -0.3586
   70MOL0     H 9401   2.802   3.395  11.897  1.3746 -0.7797  0.5504
   70MOL0     H 9402   2.694   3.169  11.974  0.9594  0.9191  0.3031
   70MOL0     H 9403   2.805   3.104  12.087  1.4959  0.0280  1.8226
   70MOL0     H 9404   2.654   3.147  12.269  1.1186  0.4559 -0.1489
   70MOL0     H 9405   2.585   3.036  12.141 -0.1106  0.6549 -0.7021
   70MOL0     H 9406   2.448   3.230  12.058 -1.4877 -1.6041  1.0602
   70MOL0     H 9407   2.515   3.320  12.191 -0.2836  1.5459 -4.1267
   70MOL0     H 9408   2.279   3.221  12.229 -1.1306 -1.4069  0.6853
   70MOL0     H 9409   2.385   3.108  12.341  1.2825 -0.4322 -0.1596
   70MOL0     H 9410   2.221   2.904  11.991 -2.8612  0.9040 -2.0297
   70MOL0     H 9411   1.907   2.758  11.947  1.1301 -2.5612 -0.8406
   70MOL0     H 9412   2.012   2.880  11.861  0.4636 -1.5834 -1.3988
   70MOL0     H 9413   2.082   2.743  11.914  1.1476  1.7666  0.4560
   70MOL0     H 9414   1.820   2.682  12.447 -0.9573 -2.0497  0.0002
   70MOL0     H 9415   1.991   2.549  12.566 -0.1145 -0.9639  0.3625
   70MOL0     H 9416   2.251   2.287  12.312  3.1109 -1.0530 -0.0171
   70MOL0     H 9417   2.335   2.448  12.304 -0.1296  1.2594  1.6631
   70MOL0     H 9418   2.321   2.264  12.551  0.3070  1.3204  0.3080
   70MOL0     H 9419   2.449   2.239  12.436  0.7521  0.7412 -0.4163
   70MOL0     H 9420   2.404   2.515  12.560  0.2610  0.2017  3.2091
   70MOL0     H 9421   2.556   2.444  12.491 -0.8596 -1.6181 -1.6280
   70MOL0     H 9422   2.420   2.363  12.748 -0.2096 -2.1832 -1.1128
   70MOL0     H 9423   2.583   2.314  12.684 -1.1713 -0.2283 -0.4399
   70MOL0     H 9424   2.505   2.610  12.742 -1.1364 -1.6040  1.6494
   70MOL0     H 9425   2.663   2.547  12.683 -1.0152  1.3812 -2.7428
   70MOL0     H 9426   2.524   2.514  12.953  1.4304 -0.0369  0.2460
   70MOL0     H 9427   2.649   2.402  12.903  3.8630  0.4693 -0.1425
   70MOL0     H 9428   2.691   2.699  12.894 -2.0684 -1.8217 -0.4019
   70MOL0     H 9429   2.817   2.574  12.889  0.2005  0.7950  0.2175
   70MOL0     H 9430   2.799   2.529  13.130  2.4663 -1.4396 -3.1054
   70MOL0     H 9431   2.639   2.600  13.137  1.4721  1.3239  2.8453
   70MOL0     H 9432   2.137   2.413  12.182 -0.7829 -0.2689  0.2680
   70MOL0     H 9433   1.941   2.522  12.066  1.0291  2.0472 -0.4313
   70MOL0     H 9434   1.912   2.964  12.368  0.0833  1.1393  0.0764
   70MOL0     H 9435   2.145   3.072  12.378  0.3371  2.5446 -0.9961
   70MOL0     H 9436   2.990   4.232  11.171  0.7050  0.8422 -0.9895
   70MOL0     H 9437   3.074   4.225  10.932  0.4631  0.2522 -1.0634
   70MOL0     H 9438   2.875   4.263  10.472 -1.3407 -2.3916  4.6170
   70MOL0     H 9439   2.918   4.229  10.234  0.5751 -1.6549 -1.0721
   70MOL0     H 9440   3.214   3.923  10.152 -0.5293  0.4772  0.1099
   70MOL0     H 9441   3.122   3.881  10.006 -0.0239 -2.0632  3.7376
   70MOL0     H 9442   3.324   4.021   9.960 -0.9796 -0.9582 -0.4784
   70MOL0     H 9443   3.251   4.151  10.065  0.0509  0.0836 -0.3676
   70MOL0     H 9444   3.080   4.199   9.920  0.7616  1.2940  0.0347
   70MOL0     H 9445   3.086   4.040   9.849  0.0893  0.5544  0.0862
   70MOL0     H 9446   3.307   4.247   9.804 -0.3401 -1.1571  2.3176
   70MOL0     H 9447   3.149   4.270   9.725  1.4767  0.6831 -2.2883
   70MOL0     H 9448   3.379   3.982   9.496 -3.0922 -1.1868 -0.5333
   70MOL0     H 9449   3.103   3.856  10.331  1.3225 -0.5163  3.9099
   70MOL0     H 9450   3.060   3.903  10.567 -0.5625  1.1071 -0.5177
   71MOL0     O 9451  10.259  10.568   7.487 -0.1730  0.5008 -0.9061
   71MOL0     C 9452  10.369  10.507   7.507 -0.0492  0.4458  0.1111
   71MOL0     O 9453  10.496  10.558   7.497 -0.1081 -0.1301  0.4092
   71MOL0     C 9454  10.495  10.684   7.449  0.4672  0.6517 -0.0283
   71MOL0     C 9455  10.486  10.794   7.534  0.4511  0.6457 -0.4125
   71MOL0     C 9456  10.461  10.917   7.472 -0.5142  0.4226 -0.0859
   71MOL0     C 9457  10.457  10.932   7.336  0.1746 -0.0171 -0.1602
   71MOL0     O 9458  10.425  11.058   7.284  0.9549  0.1890 -0.4373
   71MOL0     C 9459  10.285  11.089   7.299 -0.7391  0.8926 -0.3209
   71MOL0     C 9460  10.271  11.238   7.293  0.7636 -1.0257  0.2191
   71MOL0     C 9461  10.277  11.306   7.431  0.2215  0.5356  0.0027
   71MOL0     C 9462  10.256  11.454   7.419  0.2377  0.5480  0.6152
   71MOL0     C 9463  10.398  11.520   7.390 -0.2476 -0.9153 -0.2583
   71MOL0     C 9464  10.386  11.680   7.381  0.0852 -0.2004 -0.2616
   71MOL0     C 9465  10.309  11.722   7.249 -0.5610 -0.5738 -0.5692
   71MOL0     C 9466  10.348  11.867   7.221  1.2745 -0.0390 -0.5568
   71MOL0     N 9467  10.484  11.886   7.185  0.3441  0.4451  0.2086
   71MOL0     C 9468  10.558  11.823   7.083  0.6208  0.1617  0.6518
   71MOL0     C 9469  10.688  11.856   7.107 -0.3649  0.2885  0.1974
   71MOL0     C 9470  10.804  11.801   7.018  0.5566  0.0733  0.4068
   71MOL0     C 9471  10.752  11.732   6.880  0.1206  0.3777  0.3113
   71MOL0     C 9472  10.729  11.588   6.879 -0.0490  0.0350  0.2956
   71MOL0     C 9473  10.846  11.498   6.922  0.0532 -0.4744  0.2808
   71MOL0     O 9474  10.800  11.380   6.981  0.0840  0.6218  0.0781
   71MOL0     C 9475  10.719  11.289   6.916 -0.6395 -0.2127  0.8884
   71MOL0     C 9476  10.738  11.250   6.785  0.1741  0.6564 -0.1796
   71MOL0     C 9477  10.654  11.148   6.730  0.6554  0.5453  1.0670
   71MOL0     C 9478  10.681  11.111   6.589 -0.5501 -0.4507 -0.8727
   71MOL0     C 9479  10.552  11.085   6.809  0.8244  0.4430  0.4454
   71MOL0     C 9480  10.464  10.975   6.763  0.3417 -0.0399 -0.3218
   71MOL0     O 9481  10.445  10.947   6.624  0.5493  0.6228 -0.6499
   71MOL0     C 9482  10.369  10.838   6.590 -0.2992  0.5616 -0.7036
   71MOL0     C 9483  10.239  10.856   6.594  0.2490 -0.5926  0.3165
   71MOL0     C 9484  10.148  10.748   6.567  0.4355 -0.4613 -0.5022
   71MOL0     C 9485  10.186  10.617   6.552  0.2874  0.0576  0.3541
   71MOL0     O 9486  10.081  10.526   6.534  0.0479 -0.0425 -0.3390
   71MOL0     C 9487  10.106  10.387   6.570 -0.7917  0.3743  0.1883
   71MOL0     C 9488  10.101  10.319   6.431  0.1896 -0.0414 -0.0220
   71MOL0     C 9489  10.226  10.335   6.340 -0.4274  0.4602  1.0731
   71MOL0     C 9490  10.197  10.272   6.198 -0.5516  0.2779 -0.8496
   71MOL0     C 9491  10.283  10.308   6.073 -0.3999 -0.2938 -0.1991
   71MOL0     C 9492  10.265  10.462   6.044  0.1852 -0.3940  0.4670
   71MOL0     C 9493  10.141  10.501   5.957  0.1222  0.3364  0.0070
   71MOL0     C 9494  10.167  10.623   5.869 -0.1726 -1.1406  0.3642
   71MOL0    Cl 9495  10.013  10.651   5.782 -0.3495 -0.0428 -0.4447
   71MOL0     C 9496  10.320  10.597   6.566  0.4745 -0.2981  0.1375
   71MOL0     C 9497  10.412  10.704   6.593  0.1691 -0.6550  0.4926
   71MOL0     O 9498  10.410  10.916   6.857  0.4225  0.0960  1.0312
   71MOL0     C 9499  10.541  11.134   6.936  0.1086  0.3403  0.4478
   71MOL0     C 9500  10.616  11.234   6.992 -0.5110  0.6858  0.3022
   71MOL0     N 9501  10.697  11.940   7.214 -0.0344 -0.3309  0.0668
   71MOL0     N 9502  10.577  11.954   7.261 -0.4650  0.5187 -0.5345
   71MOL0     C 9503  10.481  10.820   7.255  0.1126 -0.1261  1.2179
   71MOL0     C 9504  10.492  10.693   7.310  0.0575  0.2489  0.1421
   71MOL0     C 9505  10.364  10.361   7.546 -0.0073  0.3393  0.4421
   71MOL0     C 9506  10.245  10.288   7.563 -0.3135  0.0836 -0.0771
   71MOL0     C 9507  10.239  10.150   7.586 -0.9672 -0.2129 -0.1111
   71MOL0     C 9508  10.348  10.080   7.620 -0.8814  0.4969  0.2078
   71MOL0     O 9509  10.318   9.950   7.655  1.4313  0.0494  0.1750
   71MOL0     C 9510  10.425   9.854   7.676 -0.1516  0.5953  0.1893
   71MOL0     C 9511  10.366   9.726   7.744  0.7128 -0.1788 -0.3644
   71MOL0     C 9512  10.486   9.653   7.808  0.5941  0.7259  0.2511
   71MOL0     C 9513  10.441   9.536   7.888  0.8584  1.2093  0.5791
   71MOL0     C 9514  10.411   9.567   8.028  0.7161  0.4174 -1.3011
   71MOL0     C 9515  10.388   9.589   8.148 -0.4080  0.2708  0.4012
   71MOL0     C 9516  10.475  10.149   7.614 -0.5406 -0.0498 -0.0676
   71MOL0     C 9517  10.483  10.292   7.585  0.0333  0.7670 -0.6356
   71MOL0     H 9518  10.505  10.787   7.640 -2.6656 -0.0127  0.2122
   71MOL0     H 9519  10.428  11.006   7.525 -0.7063  1.0428 -1.2121
   71MOL0     H 9520  10.235  11.046   7.212  0.1715 -2.1100  0.5217
   71MOL0     H 9521  10.243  11.051   7.392  1.4597 -0.2112  0.2686
   71MOL0     H 9522  10.344  11.283   7.225  1.8314 -4.2242 -0.9548
   71MOL0     H 9523  10.168  11.255   7.259  0.8961  2.1972  1.0800
   71MOL0     H 9524  10.209  11.261   7.503  1.6579  0.5732  1.4309
   71MOL0     H 9525  10.376  11.297   7.477 -0.4784  1.5913  1.8278
   71MOL0     H 9526  10.201  11.469   7.325  1.1275 -0.3842 -0.0726
   71MOL0     H 9527  10.209  11.509   7.501 -2.0915  0.6454 -0.6814
   71MOL0     H 9528  10.459  11.502   7.479 -5.4146 -0.0104  3.9994
   71MOL0     H 9529  10.439  11.470   7.302 -0.3187 -0.5094 -0.5239
   71MOL0     H 9530  10.339  11.729   7.467 -3.5787  0.7788 -2.5989
   71MOL0     H 9531  10.490  11.712   7.389 -0.0522 -0.2445  2.8110
   71MOL0     H 9532  10.342  11.659   7.166  2.9806  2.0302 -1.3719
   71MOL0     H 9533  10.203  11.700   7.263 -0.3502 -2.1315 -1.1630
   71MOL0     H 9534  10.325  11.927   7.309 -2.6170  1.6725 -2.4857
   71MOL0     H 9535  10.277  11.893   7.141 -2.3494 -2.0422  1.7310
   71MOL0     H 9536  10.514  11.753   7.012 -0.7349 -0.3122  1.9168
   71MOL0     H 9537  10.874  11.879   6.986 -1.2508  0.5063 -2.9043
   71MOL0     H 9538  10.880  11.741   7.070  1.3393  0.6101 -0.0924
   71MOL0     H 9539  10.833  11.743   6.807  0.0346 -2.1406 -0.2577
   71MOL0     H 9540  10.668  11.793   6.846  1.7323  2.0967 -0.8207
   71MOL0     H 9541  10.694  11.540   6.786 -3.2232 -2.0820  2.3906
   71MOL0     H 9542  10.647  11.567   6.948 -0.7409 -0.5922 -0.6899
   71MOL0     H 9543  10.911  11.542   6.998  0.7357 -0.1377 -0.4721
   71MOL0     H 9544  10.917  11.476   6.842  1.0528  0.5107  0.8576
   71MOL0     H 9545  10.815  11.303   6.730  1.0971  0.1171  0.5565
   71MOL0     H 9546  10.750  11.026   6.584 -0.0701 -0.1671  0.5683
   71MOL0     H 9547  10.594  11.102   6.524 -1.1358  0.6999 -0.2651
   71MOL0     H 9548  10.733  11.195   6.544 -0.5078  0.1383  0.2401
   71MOL0     H 9549  10.190  10.949   6.622 -0.8876 -0.9069 -0.5737
   71MOL0     H 9550  10.044  10.772   6.581  0.7610  0.5025  0.4089
   71MOL0     H 9551  10.201  10.361   6.618  1.6817  0.9357 -3.8702
   71MOL0     H 9552  10.025  10.358   6.638  0.8013 -2.7162  0.9669
   71MOL0     H 9553  10.075  10.213   6.447 -1.9030  0.1402 -1.7385
   71MOL0     H 9554  10.017  10.374   6.388  2.0408  2.6656 -0.4030
   71MOL0     H 9555  10.310  10.279   6.382 -1.0000 -0.2320  1.3001
   71MOL0     H 9556  10.249  10.442   6.332 -0.1102  0.2432 -2.3453
   71MOL0     H 9557  10.214  10.164   6.201 -0.1556  0.3181 -1.5926
   71MOL0     H 9558  10.094  10.301   6.175 -0.9825  0.2026  0.8347
   71MOL0     H 9559  10.256  10.252   5.984 -1.7107  2.5409 -1.7050
   71MOL0     H 9560  10.389  10.299   6.099  0.0268  0.5570 -1.5529
   71MOL0     H 9561  10.266  10.523   6.135 -1.1217  1.1967 -0.5469
   71MOL0     H 9562  10.348  10.496   5.982 -1.5039  0.2368 -1.5577
   71MOL0     H 9563  10.052  10.531   6.013 -0.0418  0.1435 -0.1511
   71MOL0     H 9564  10.107  10.417   5.895  2.9973 -0.6010 -0.4347
   71MOL0     H 9565  10.246  10.595   5.798  0.3384  2.0590 -0.4590
   71MOL0     H 9566  10.207  10.709   5.923 -1.0342 -1.3076  1.2964
   71MOL0     H 9567  10.361  10.498   6.552 -2.7611 -1.4357 -2.8433
   71MOL0     H 9568  10.513  10.685   6.626  0.9472  2.6944  0.4629
   71MOL0     H 9569  10.471  11.086   7.003  1.4454 -1.2280  0.7940
   71MOL0     H 9570  10.599  11.260   7.096 -0.6495 -1.8871  0.9801
   71MOL0     H 9571  10.482  10.827   7.147 -2.4768 -0.8743  1.0810
   71MOL0     H 9572  10.492  10.601   7.253 -0.2276  0.2143  0.1969
   71MOL0     H 9573  10.144  10.322   7.538 -1.5423 -3.6812 -0.8107
   71MOL0     H 9574  10.157  10.079   7.579  1.3321 -2.9915 -0.8430
   71MOL0     H 9575  10.477   9.830   7.582 -1.5861 -1.2227 -0.2013
   71MOL0     H 9576  10.493   9.911   7.740  2.3380  0.7793 -2.3700
   71MOL0     H 9577  10.321   9.650   7.678  3.3044 -2.2029  0.0161
   71MOL0     H 9578  10.293   9.755   7.820  2.8843  0.4618  1.5951
   71MOL0     H 9579  10.545   9.721   7.870 -1.1062  0.7405  1.9053
   71MOL0     H 9580  10.556   9.612   7.734  2.7554 -1.8231  3.4273
   71MOL0     H 9581  10.521   9.461   7.885 -1.6239 -1.6301  0.4293
   71MOL0     H 9582  10.357   9.477   7.849  0.8385  0.3911  1.7904
   71MOL0     H 9583  10.374   9.607   8.252  1.7146  3.3721  0.2716
   71MOL0     H 9584  10.569  10.105   7.647 -1.6363 -0.4617  2.7876
   71MOL0     H 9585  10.574  10.352   7.582 -0.7528  2.4533  3.0073
   72MOL0     O 9586   8.316   9.847   5.025  0.4435 -0.2718  0.4197
   72MOL0     C 9587   8.293   9.962   5.061 -0.8045 -0.0709 -0.9155
   72MOL0     O 9588   8.367  10.071   5.026  0.5374 -0.0132  0.1915
   72MOL0     C 9589   8.461  10.071   4.929 -0.6502  0.2861 -0.7901
   72MOL0     C 9590   8.510   9.963   4.853  0.5988 -0.7007  0.2246
   72MOL0     C 9591   8.603   9.982   4.757 -0.3989 -0.0543 -0.3451
   72MOL0     C 9592   8.690  10.090   4.757  0.7304 -0.4293 -0.5672
   72MOL0     O 9593   8.801  10.119   4.682  0.0472 -0.5969 -0.2992
   72MOL0     C 9594   8.851  10.014   4.590  0.3292  0.3324 -0.3488
   72MOL0     C 9595   8.941  10.080   4.484  1.3303 -0.4359 -0.0667
   72MOL0     C 9596   8.956   9.986   4.353  0.1713  0.0161  0.3427
   72MOL0     C 9597   9.051   9.869   4.391 -0.1906 -0.3187 -0.5503
   72MOL0     C 9598   9.079   9.777   4.273  0.9483 -0.1850 -0.3988
   72MOL0     C 9599   8.959   9.680   4.258  0.4394  0.2012 -0.7064
   72MOL0     C 9600   8.973   9.595   4.121  0.5895 -0.4450 -0.8978
   72MOL0     C 9601   9.103   9.520   4.109 -0.1359  0.9403 -0.9753
   72MOL0     N 9602   9.103   9.425   3.998  0.7112 -0.1630 -0.3845
   72MOL0     C 9603   9.064   9.434   3.867  0.1726  0.0798 -0.2848
   72MOL0     C 9604   9.060   9.303   3.805  0.3322  0.3043 -0.0424
   72MOL0     C 9605   9.000   9.262   3.665  0.4620  1.0121 -0.1652
   72MOL0     C 9606   8.996   9.368   3.563 -0.5100  1.2040  0.3817
   72MOL0     C 9607   8.982   9.322   3.412 -0.3104  0.2344  1.7311
   72MOL0     C 9608   8.877   9.411   3.332 -0.0079 -0.0343  0.6101
   72MOL0     O 9609   8.743   9.393   3.372 -0.1158 -0.3795 -1.5666
   72MOL0     C 9610   8.679   9.281   3.323 -0.9866 -0.5895  1.3383
   72MOL0     C 9611   8.746   9.175   3.249  0.4945 -0.5112 -0.0126
   72MOL0     C 9612   8.670   9.074   3.208 -0.9321  0.0436  0.3306
   72MOL0     C 9613   8.744   8.958   3.146  0.1889 -0.9580 -0.4900
   72MOL0     C 9614   8.528   9.065   3.226  0.3407 -1.4557 -0.2067
   72MOL0     C 9615   8.432   8.961   3.181  1.0885  0.0430  0.3802
   72MOL0     O 9616   8.303   8.997   3.164  0.3909 -0.3622  0.6325
   72MOL0     C 9617   8.223   8.920   3.082 -0.3422 -0.4003 -0.4223
   72MOL0     C 9618   8.263   8.874   2.951  0.1654  0.1399  0.8169
   72MOL0     C 9619   8.165   8.845   2.855 -0.8970  1.4396  0.4778
   72MOL0     C 9620   8.036   8.829   2.896  1.1308  0.5391  1.2397
   72MOL0     O 9621   7.953   8.787   2.798  0.6890 -0.1284 -0.2961
   72MOL0     C 9622   7.823   8.737   2.832  1.3163  0.5464 -0.8468
   72MOL0     C 9623   7.736   8.667   2.727  0.3831 -0.0271  0.8120
   72MOL0     C 9624   7.732   8.744   2.599  0.0104  1.5579  0.2023
   72MOL0     C 9625   7.833   8.693   2.503 -0.1713  0.4324 -0.2490
   72MOL0     C 9626   7.812   8.738   2.359  0.6904 -0.6408  0.4162
   72MOL0     C 9627   7.928   8.708   2.267  0.6335 -0.0076 -0.1291
   72MOL0     C 9628   7.915   8.753   2.118  0.2401 -0.1478 -0.2959
   72MOL0     C 9629   7.928   8.904   2.103  0.4311  0.4505 -0.2461
   72MOL0    Cl 9630   7.897   8.938   1.931  0.1938  0.2719  0.5290
   72MOL0     C 9631   7.994   8.860   3.022 -0.4905 -1.2345  0.4261
   72MOL0     C 9632   8.085   8.910   3.119 -1.1149  0.0204 -0.1410
   72MOL0     O 9633   8.481   8.848   3.152  0.7394 -0.4754 -0.3282
   72MOL0     C 9634   8.464   9.163   3.296 -0.0208 -0.5954 -1.0264
   72MOL0     C 9635   8.541   9.273   3.346 -0.7883  0.8970  0.5514
   72MOL0     N 9636   9.091   9.216   3.910  0.5874 -0.6400 -1.2203
   72MOL0     N 9637   9.115   9.291   4.007 -0.1427  0.1445 -0.7051
   72MOL0     C 9638   8.663  10.195   4.843 -0.0551  0.1431 -0.2640
   72MOL0     C 9639   8.542  10.190   4.920  0.8351 -0.1226  0.6155
   72MOL0     C 9640   8.191   9.988   5.161 -0.7809  0.1144 -0.7155
   72MOL0     C 9641   8.108   9.882   5.200  0.3026  0.2439  0.1109
   72MOL0     C 9642   8.017   9.899   5.300  0.1005  0.0890  0.2396
   72MOL0     C 9643   8.014  10.019   5.373 -0.4406 -0.1078  0.6704
   72MOL0     O 9644   7.915  10.034   5.462 -0.2121 -0.1146  0.0631
   72MOL0     C 9645   7.932  10.143   5.563 -0.3402  0.0127  0.3231
   72MOL0     C 9646   7.824  10.112   5.672  0.1970  0.2709  0.2601
   72MOL0     C 9647   7.799  10.231   5.766  0.1370  0.2967 -0.0722
   72MOL0     C 9648   7.913  10.255   5.857  0.3234 -0.2104  0.1521
   72MOL0     C 9649   7.916  10.166   5.972  0.6347 -0.3010  0.0123
   72MOL0     C 9650   7.897  10.092   6.068  0.1334  0.4913  0.1450
   72MOL0     C 9651   8.100  10.119   5.327 -0.3710  0.6239 -0.6056
   72MOL0     C 9652   8.189  10.113   5.224 -0.1774  0.3849 -0.3209
   72MOL0     H 9653   8.470   9.862   4.855  0.4939 -0.6670  2.5913
   72MOL0     H 9654   8.619   9.904   4.683 -1.0843 -2.4476  1.8774
   72MOL0     H 9655   8.912   9.942   4.646 -0.5628  2.1110  3.2712
   72MOL0     H 9656   8.773   9.954   4.544  0.9542  0.4001 -1.5202
   72MOL0     H 9657   8.892  10.171   4.448  1.3220 -1.7422 -3.8352
   72MOL0     H 9658   9.033  10.100   4.539  1.1489  1.5875 -0.4553
   72MOL0     H 9659   8.858   9.961   4.311 -0.9285 -0.6013  3.0347
   72MOL0     H 9660   9.010  10.035   4.272  0.2364 -1.0977 -0.3151
   72MOL0     H 9661   9.144   9.910   4.430 -1.3781  1.1791  0.8311
   72MOL0     H 9662   9.000   9.811   4.469  1.3048 -0.7300  0.1455
   72MOL0     H 9663   9.095   9.837   4.182  1.6772  2.0780  1.1287
   72MOL0     H 9664   9.172   9.725   4.296  0.9801  0.0976  0.1326
   72MOL0     H 9665   8.952   9.609   4.341 -1.9097  0.2777 -0.7662
   72MOL0     H 9666   8.867   9.739   4.255  0.2504 -0.0910 -0.8199
   72MOL0     H 9667   8.894   9.520   4.117  0.5251 -0.5193  0.9891
   72MOL0     H 9668   8.973   9.664   4.035 -1.7252  2.5493  1.2796
   72MOL0     H 9669   9.107   9.465   4.204 -4.6503 -0.0738 -1.1196
   72MOL0     H 9670   9.184   9.591   4.091 -0.2817  1.4461  0.2457
   72MOL0     H 9671   9.039   9.530   3.823  1.1197  1.3685  1.7945
   72MOL0     H 9672   9.062   9.179   3.630 -1.5706 -1.0820  0.9225
   72MOL0     H 9673   8.907   9.207   3.682  2.9174 -2.9726  1.7905
   72MOL0     H 9674   9.092   9.421   3.564 -0.8911  1.9437 -0.5952
   72MOL0     H 9675   8.917   9.440   3.586 -1.5208  1.0823 -2.3834
   72MOL0     H 9676   8.967   9.214   3.397 -1.1983  0.8636 -4.3239
   72MOL0     H 9677   9.081   9.329   3.367 -0.3862 -4.9787  0.0910
   72MOL0     H 9678   8.892   9.395   3.225 -1.1034  0.1195  0.4241
   72MOL0     H 9679   8.906   9.515   3.350 -2.7508  0.5926  1.9545
   72MOL0     H 9680   8.852   9.166   3.229  0.1000  0.3189 -2.9865
   72MOL0     H 9681   8.701   8.943   3.047 -1.0846 -1.4262  0.1228
   72MOL0     H 9682   8.851   8.969   3.129  0.1042 -2.7423 -2.5250
   72MOL0     H 9683   8.726   8.873   3.213 -2.3980  1.4157  2.1086
   72MOL0     H 9684   8.368   8.861   2.925 -0.6347 -2.5847 -1.4675
   72MOL0     H 9685   8.194   8.816   2.754 -2.5293  0.8225  0.1501
   72MOL0     H 9686   7.817   8.663   2.913 -0.8078 -0.4783 -1.8554
   72MOL0     H 9687   7.754   8.810   2.876  0.9213 -0.6670  0.6439
   72MOL0     H 9688   7.786   8.571   2.707  0.5299  0.3061 -0.5353
   72MOL0     H 9689   7.637   8.656   2.770  0.3037 -1.4580  0.3304
   72MOL0     H 9690   7.727   8.854   2.601 -2.8286  1.5528 -1.4069
   72MOL0     H 9691   7.636   8.725   2.551  0.0178  1.4532  0.2274
   72MOL0     H 9692   7.927   8.730   2.544 -0.7119  0.9480  0.5436
   72MOL0     H 9693   7.839   8.584   2.506  0.7415  0.5021  1.7619
   72MOL0     H 9694   7.804   8.847   2.366  3.2696 -0.5012  2.5042
   72MOL0     H 9695   7.720   8.691   2.322  0.4383 -0.0392  0.2651
   72MOL0     H 9696   8.026   8.749   2.297  1.3528 -1.3259 -0.6095
   72MOL0     H 9697   7.945   8.601   2.257  1.1862  0.0461  0.1745
   72MOL0     H 9698   7.822   8.733   2.064  0.1352  1.1392 -0.6189
   72MOL0     H 9699   7.991   8.697   2.062 -0.9576 -2.6478  0.4316
   72MOL0     H 9700   8.020   8.933   2.154  0.5089 -1.2408  0.6630
   72MOL0     H 9701   7.854   8.962   2.160 -1.3776 -0.2671 -1.7466
   72MOL0     H 9702   7.887   8.865   3.034 -0.8525  5.1064 -1.3919
   72MOL0     H 9703   8.047   8.947   3.213 -3.2685  1.2986 -1.4144
   72MOL0     H 9704   8.366   9.163   3.344  0.5035  1.9783  0.2311
   72MOL0     H 9705   8.489   9.353   3.399 -0.3677  0.7514  1.1886
   72MOL0     H 9706   8.730  10.280   4.850  5.0510 -3.3796 -1.1080
   72MOL0     H 9707   8.519  10.265   4.995  3.3479 -2.7203  4.3440
   72MOL0     H 9708   8.112   9.786   5.149  3.5143 -0.7835  2.0025
   72MOL0     H 9709   7.943   9.825   5.329 -0.6379  1.1446  1.1380
   72MOL0     H 9710   8.028  10.129   5.614 -1.3757 -2.7957  1.7022
   72MOL0     H 9711   7.901  10.238   5.519  0.5235  1.0690  1.8600
   72MOL0     H 9712   7.849  10.024   5.731  1.8578  0.5787  0.0603
   72MOL0     H 9713   7.728  10.091   5.624  0.0019 -1.5904  1.3555
   72MOL0     H 9714   7.722  10.200   5.836  2.2881 -4.3167  0.6464
   72MOL0     H 9715   7.766  10.319   5.710  3.9136  0.0669 -3.1597
   72MOL0     H 9716   7.905  10.355   5.901 -1.1285 -1.2922  2.5127
   72MOL0     H 9717   8.010  10.246   5.807  0.9462  2.4593  0.7074
   72MOL0     H 9718   7.874  10.027   6.149  1.5420 -0.6756 -0.3529
   72MOL0     H 9719   8.108  10.213   5.380  1.6806 -1.0919  2.4740
   72MOL0     H 9720   8.244  10.197   5.183 -2.8527  2.5522  0.2577
   73MOL0     O 9721   5.039   7.466  11.117 -0.1516 -0.0223  0.4243
   73MOL0     C 9722   4.918   7.488  11.108 -0.0644  0.1242 -0.5475
   73MOL0     O 9723   4.858   7.588  11.039  0.1927 -0.0984 -0.2155
   73MOL0     C 9724   4.949   7.686  10.987  0.9635 -0.0514 -0.0200
   73MOL0     C 9725   5.028   7.759  11.076 -0.1752  0.6305  0.6020
   73MOL0     C 9726   5.130   7.850  11.028 -0.4376 -0.2670  0.2478
   73MOL0     C 9727   5.150   7.856  10.886  0.1865 -0.1938  0.9551
   73MOL0     O 9728   5.247   7.916  10.813 -0.4311 -0.1085 -0.2567
   73MOL0     C 9729   5.360   7.965  10.890  0.1902  1.3899 -0.3219
   73MOL0     C 9730   5.343   8.112  10.913 -0.9668 -0.9228 -0.4890
   73MOL0     C 9731   5.446   8.168  11.010  0.5321  0.7893  0.1464
   73MOL0     C 9732   5.566   8.222  10.934  0.1621 -0.0973  0.5347
   73MOL0     C 9733   5.683   8.277  11.016  0.5511 -0.3809 -1.4326
   73MOL0     C 9734   5.750   8.157  11.097 -0.4155 -0.3853 -0.4734
   73MOL0     C 9735   5.890   8.225  11.139  0.4858 -0.4596 -0.3648
   73MOL0     C 9736   5.865   8.338  11.247 -0.0427  0.0359  0.2778
   73MOL0     N 9737   5.785   8.305  11.372 -0.5105  0.0029  0.7453
   73MOL0     C 9738   5.647   8.292  11.383  0.2331  0.2607 -0.2744
   73MOL0     C 9739   5.626   8.262  11.511  0.2409 -0.2137  0.0977
   73MOL0     C 9740   5.507   8.197  11.581  0.7486  0.6062 -1.0741
   73MOL0     C 9741   5.441   8.248  11.715  0.1870  1.3056 -0.7855
   73MOL0     C 9742   5.392   8.387  11.691  1.1534  0.0612  0.1224
   73MOL0     C 9743   5.359   8.454  11.822  0.2086 -0.4289 -0.0193
   73MOL0     O 9744   5.330   8.588  11.801  1.2268 -0.4787 -0.4240
   73MOL0     C 9745   5.424   8.686  11.789 -0.0831  0.9639 -0.4694
   73MOL0     C 9746   5.370   8.813  11.772 -0.0654 -0.8915  0.3232
   73MOL0     C 9747   5.455   8.927  11.780 -0.1733  0.7708  0.1489
   73MOL0     C 9748   5.395   9.069  11.772 -0.0221  0.3759 -0.3044
   73MOL0     C 9749   5.594   8.906  11.805  0.7168  0.1150  0.1009
   73MOL0     C 9750   5.688   9.013  11.811 -0.3111 -0.2547 -0.4464
   73MOL0     O 9751   5.811   8.996  11.745  0.2242 -0.2113 -0.2298
   73MOL0     C 9752   5.921   9.059  11.800  0.3531 -0.1411  0.7573
   73MOL0     C 9753   5.966   9.012  11.928 -0.5286 -0.8013 -0.9819
   73MOL0     C 9754   6.087   9.078  11.977  0.0532  0.1105  0.0760
   73MOL0     C 9755   6.164   9.169  11.918  0.1123  0.0487  0.5264
   73MOL0     O 9756   6.283   9.198  11.991  0.8524 -0.0081  0.1209
   73MOL0     C 9757   6.369   9.295  11.935  1.3281 -0.2011  0.4554
   73MOL0     C 9758   6.455   9.216  11.847 -0.5590 -0.3766  0.1797
   73MOL0     C 9759   6.546   9.318  11.774  0.9373 -0.7403 -0.0274
   73MOL0     C 9760   6.651   9.258  11.688 -0.0181 -0.6140  0.7137
   73MOL0     C 9761   6.756   9.365  11.667 -0.3961  0.1570 -0.0690
   73MOL0     C 9762   6.859   9.323  11.562 -0.2103 -0.1672  0.0126
   73MOL0     C 9763   6.804   9.254  11.444 -1.0089 -0.3742 -0.1206
   73MOL0     C 9764   6.890   9.275  11.326 -0.1470 -0.1199  0.0396
   73MOL0    Cl 9765   6.813   9.222  11.173 -0.4230  0.4492 -0.7729
   73MOL0     C 9766   6.121   9.210  11.787 -0.9092  0.8149  0.0537
   73MOL0     C 9767   6.003   9.150  11.732  0.4861 -0.7083  0.9223
   73MOL0     O 9768   5.672   9.099  11.895  0.2604  0.5399 -1.2372
   73MOL0     C 9769   5.655   8.778  11.805  0.9663 -0.0345 -0.2789
   73MOL0     C 9770   5.563   8.670  11.807 -0.3667 -1.3881  0.5664
   73MOL0     N 9771   5.758   8.266  11.575  0.2521  0.2177 -0.0883
   73MOL0     N 9772   5.851   8.293  11.490 -0.1425  0.5995 -0.3057
   73MOL0     C 9773   5.054   7.791  10.801 -0.6176 -0.0641 -0.5298
   73MOL0     C 9774   4.956   7.707  10.848  0.0593  0.2895 -0.7120
   73MOL0     C 9775   4.824   7.391  11.173 -0.6807 -0.1056  0.3009
   73MOL0     C 9776   4.880   7.281  11.258 -0.6775  0.2261 -0.6498
   73MOL0     C 9777   4.801   7.190  11.325  1.2137  0.0163  0.5640
   73MOL0     C 9778   4.664   7.197  11.303  0.3359 -0.8431  0.0148
   73MOL0     O 9779   4.581   7.101  11.343 -0.4395 -0.2439  0.0479
   73MOL0     C 9780   4.570   7.067  11.488 -0.3663  0.2037 -0.2225
   73MOL0     C 9781   4.524   7.189  11.566  0.5372  0.1881 -0.8617
   73MOL0     C 9782   4.368   7.214  11.551 -0.3429 -0.7703  0.3135
   73MOL0     C 9783   4.338   7.358  11.599  0.1131 -0.1024  0.4031
   73MOL0     C 9784   4.406   7.472  11.537  0.1599 -0.5301  0.1353
   73MOL0     C 9785   4.460   7.571  11.492  0.9976 -0.2968  0.8410
   73MOL0     C 9786   4.610   7.288  11.220  0.0042 -0.1942 -0.5814
   73MOL0     C 9787   4.691   7.393  11.155 -0.0192  0.3099  0.2006
   73MOL0     H 9788   5.005   7.737  11.180 -1.2591 -0.2262  0.2095
   73MOL0     H 9789   5.203   7.877  11.104  0.7550 -0.4231 -0.8106
   73MOL0     H 9790   5.381   7.904  10.978  1.9027  2.4544  0.0629
   73MOL0     H 9791   5.445   7.958  10.821 -0.5056  0.1009 -1.0745
   73MOL0     H 9792   5.346   8.155  10.813 -0.4498 -0.6472 -0.3568
   73MOL0     H 9793   5.245   8.128  10.958  0.7710  1.6070  2.8365
   73MOL0     H 9794   5.386   8.246  11.058 -1.7535 -1.8229  1.8575
   73MOL0     H 9795   5.473   8.090  11.081  2.4539 -0.2389 -1.6269
   73MOL0     H 9796   5.611   8.135  10.884  1.4938  0.1691  1.2171
   73MOL0     H 9797   5.541   8.295  10.856 -1.6619 -0.6372  0.5837
   73MOL0     H 9798   5.755   8.326  10.951 -0.1758  1.6983 -0.7295
   73MOL0     H 9799   5.650   8.352  11.089  1.3501 -1.8891  0.6094
   73MOL0     H 9800   5.695   8.124  11.186  1.5240 -0.3754  0.7775
   73MOL0     H 9801   5.771   8.071  11.032  0.3927  0.5080 -1.4253
   73MOL0     H 9802   5.953   8.141  11.171  3.2658  1.5688 -0.2341
   73MOL0     H 9803   5.931   8.259  11.044 -3.1722  0.9977 -1.6054
   73MOL0     H 9804   5.813   8.420  11.197 -0.7280 -1.2676 -1.2466
   73MOL0     H 9805   5.961   8.389  11.264 -0.5450  4.0441 -5.6439
   73MOL0     H 9806   5.576   8.307  11.302 -1.5042  1.0876  1.3239
   73MOL0     H 9807   5.428   8.177  11.508 -1.3355 -5.0681  2.0615
   73MOL0     H 9808   5.551   8.100  11.607  2.3837  1.0964 -1.9450
   73MOL0     H 9809   5.518   8.231  11.791 -0.8905 -2.3461 -0.2990
   73MOL0     H 9810   5.359   8.181  11.744 -0.2547  1.5099 -1.5360
   73MOL0     H 9811   5.307   8.381  11.621  3.8359  0.5266 -3.4775
   73MOL0     H 9812   5.461   8.454  11.639  0.9680  1.6330  1.7984
   73MOL0     H 9813   5.445   8.442  11.889 -0.1744  2.0561  1.0503
   73MOL0     H 9814   5.275   8.403  11.872  2.1516 -1.5514  2.3256
   73MOL0     H 9815   5.265   8.826  11.750  0.3870  1.7335 -0.7052
   73MOL0     H 9816   5.312   9.080  11.701 -0.2144  1.2463  0.0492
   73MOL0     H 9817   5.350   9.097  11.868 -1.2304  1.6668 -1.2010
   73MOL0     H 9818   5.471   9.143  11.747 -0.9367  1.4656  0.0517
   73MOL0     H 9819   5.904   8.941  11.982 -1.3354  0.9531  0.5366
   73MOL0     H 9820   6.120   9.040  12.073  0.6607  0.9059  0.1959
   73MOL0     H 9821   6.315   9.369  11.875  1.7238  1.0214  1.5614
   73MOL0     H 9822   6.427   9.340  12.016  0.3571 -1.4383  1.8954
   73MOL0     H 9823   6.516   9.141  11.898  0.5576  0.3254 -0.0812
   73MOL0     H 9824   6.389   9.165  11.775 -1.5128  0.8249  0.1714
   73MOL0     H 9825   6.602   9.373  11.851  1.4249 -3.3405  1.5919
   73MOL0     H 9826   6.486   9.384  11.710 -1.7905 -0.3374  2.7168
   73MOL0     H 9827   6.700   9.173  11.737  0.6098  0.4317  1.9432
   73MOL0     H 9828   6.600   9.214  11.602 -3.5455 -0.9550  2.8045
   73MOL0     H 9829   6.812   9.398  11.755  0.8356  1.7533 -1.3945
   73MOL0     H 9830   6.701   9.454  11.636 -0.3340 -0.3659 -1.7577
   73MOL0     H 9831   6.921   9.411  11.543 -1.4306  0.3347 -1.9940
   73MOL0     H 9832   6.927   9.252  11.609 -3.3112 -2.9361  0.7514
   73MOL0     H 9833   6.706   9.290  11.413 -1.3040 -1.5500 -0.5994
   73MOL0     H 9834   6.785   9.148  11.465 -2.5519 -0.5848 -2.2544
   73MOL0     H 9835   6.989   9.234  11.345 -0.3317 -0.9250 -0.6979
   73MOL0     H 9836   6.901   9.383  11.320 -4.5238  0.6807  2.3183
   73MOL0     H 9837   6.163   9.291  11.728 -1.5141  0.9336 -0.2222
   73MOL0     H 9838   5.981   9.180  11.630  1.7164 -1.7213  0.3345
   73MOL0     H 9839   5.763   8.767  11.813  1.1058  1.4413  0.0944
   73MOL0     H 9840   5.603   8.569  11.797  4.0965  0.2405 -0.1905
   73MOL0     H 9841   5.068   7.790  10.694 -2.4834  0.9974 -0.8213
   73MOL0     H 9842   4.882   7.651  10.792 -2.4449  3.6347 -1.0998
   73MOL0     H 9843   4.985   7.282  11.284 -1.1639  0.1700  1.6005
   73MOL0     H 9844   4.836   7.107  11.386  2.6102  1.6605  2.1019
   73MOL0     H 9845   4.496   6.987  11.496  0.6251 -0.6309  0.9984
   73MOL0     H 9846   4.670   7.038  11.520 -1.1220 -0.1409  1.9739
   73MOL0     H 9847   4.574   7.281  11.535 -2.9993  3.0133  1.1616
   73MOL0     H 9848   4.553   7.158  11.667 -2.2196 -0.4511 -0.1818
   73MOL0     H 9849   4.310   7.140  11.607  0.4747 -1.1273  0.6926
   73MOL0     H 9850   4.339   7.213  11.445  1.7460  2.1742 -0.4088
   73MOL0     H 9851   4.345   7.361  11.708  2.3290 -2.0662  0.3942
   73MOL0     H 9852   4.233   7.375  11.573 -0.7438 -2.2320  2.2053
   73MOL0     H 9853   4.488   7.663  11.444  0.9276 -1.6279 -1.9936
   73MOL0     H 9854   4.502   7.291  11.207 -0.7629 -2.2364  3.7136
   73MOL0     H 9855   4.635   7.465  11.096 -1.3942 -0.4064  0.5799
   74MOL0     O 9856   2.093   3.320   4.518 -0.4900  0.2256 -0.0822
   74MOL0     C 9857   1.982   3.283   4.552  0.0613 -0.1695 -0.4952
   74MOL0     O 9858   1.865   3.343   4.503 -0.4278 -0.0837  0.4037
   74MOL0     C 9859   1.865   3.436   4.405  1.2143 -0.2493  0.5342
   74MOL0     C 9860   1.750   3.526   4.407 -0.3927 -1.7044 -0.3483
   74MOL0     C 9861   1.750   3.647   4.330 -0.3997 -0.1521 -0.8656
   74MOL0     C 9862   1.846   3.667   4.232 -0.0264 -0.3460 -0.0776
   74MOL0     O 9863   1.850   3.781   4.157 -0.6052 -0.0798  0.2142
   74MOL0     C 9864   1.750   3.784   4.058  0.7604 -0.0528 -0.0021
   74MOL0     C 9865   1.772   3.887   3.944 -0.4402  0.5848 -0.2311
   74MOL0     C 9866   1.771   4.040   3.984  0.1725  1.2486 -1.1054
   74MOL0     C 9867   1.638   4.090   4.050 -0.1456  0.1816  0.4956
   74MOL0     C 9868   1.639   4.247   4.063 -0.3291  1.3327 -0.2277
   74MOL0     C 9869   1.519   4.303   4.129  0.1369  0.0973  0.0136
   74MOL0     C 9870   1.386   4.288   4.047 -0.0377 -0.2790  0.1140
   74MOL0     C 9871   1.264   4.363   4.094 -0.4296  0.6411  0.2089
   74MOL0     N 9872   1.290   4.502   4.068  0.3700 -0.1486  0.3017
   74MOL0     C 9873   1.313   4.595   4.167  0.7917  0.5593 -0.4435
   74MOL0     C 9874   1.284   4.711   4.096 -0.5216  0.4612 -0.7140
   74MOL0     C 9875   1.305   4.843   4.165 -0.4282  0.1985 -1.1233
   74MOL0     C 9876   1.337   4.969   4.089  0.2192  1.7028  0.0058
   74MOL0     C 9877   1.326   5.088   4.184 -0.4282 -0.5111 -0.4670
   74MOL0     C 9878   1.434   5.192   4.137 -0.5130 -0.5983  0.0578
   74MOL0     O 9879   1.383   5.234   4.006 -0.7679  0.1299  0.0249
   74MOL0     C 9880   1.464   5.298   3.909 -0.6567 -0.3742 -0.4643
   74MOL0     C 9881   1.602   5.324   3.910  0.3150 -0.9167 -0.5816
   74MOL0     C 9882   1.672   5.405   3.816  0.3733 -0.4827  0.1949
   74MOL0     C 9883   1.820   5.434   3.825  0.2835  0.7707  1.0937
   74MOL0     C 9884   1.596   5.461   3.713  1.3157 -0.7050 -0.0714
   74MOL0     C 9885   1.649   5.557   3.614  0.3028  0.1596  0.4518
   74MOL0     O 9886   1.569   5.581   3.507 -0.4374  0.5439 -0.6079
   74MOL0     C 9887   1.609   5.626   3.386 -0.2456  0.7088 -1.0320
   74MOL0     C 9888   1.585   5.540   3.277 -0.4594  0.0884 -0.0000
   74MOL0     C 9889   1.614   5.594   3.151 -0.4445 -0.2841 -0.8227
   74MOL0     C 9890   1.669   5.727   3.133 -0.0865  0.0167 -0.0814
   74MOL0     O 9891   1.732   5.758   3.019  0.7854  0.1067  0.7647
   74MOL0     C 9892   1.637   5.759   2.909 -0.6428 -0.2092 -0.2694
   74MOL0     C 9893   1.707   5.785   2.772  0.1676  0.2934  0.5387
   74MOL0     C 9894   1.747   5.929   2.759 -0.0080 -0.2461  0.0025
   74MOL0     C 9895   1.823   5.958   2.626 -0.3281  0.0742 -0.1998
   74MOL0     C 9896   1.892   6.097   2.619  0.0807  0.3326 -0.0318
   74MOL0     C 9897   1.972   6.131   2.494  0.5954  0.2702  0.8072
   74MOL0     C 9898   2.031   6.274   2.481 -0.0433  0.3499  0.0033
   74MOL0     C 9899   2.082   6.285   2.337 -1.1074 -0.1237  0.4317
   74MOL0    Cl 9900   2.177   6.424   2.327 -0.3217  0.5775 -0.1558
   74MOL0     C 9901   1.688   5.798   3.243 -0.3469 -0.0949  0.4195
   74MOL0     C 9902   1.654   5.755   3.372  0.1593  0.0801 -0.2986
   74MOL0     O 9903   1.751   5.627   3.640  0.0229 -0.0351 -0.0623
   74MOL0     C 9904   1.463   5.423   3.697  0.5595  0.7308 -0.0683
   74MOL0     C 9905   1.405   5.347   3.793 -0.7870 -0.7594  0.4033
   74MOL0     N 9906   1.252   4.692   3.964 -0.3072  0.6060 -0.2481
   74MOL0     N 9907   1.270   4.566   3.950  0.2535  0.5154 -0.2971
   74MOL0     C 9908   1.942   3.570   4.212 -1.6919 -0.2127 -0.3789
   74MOL0     C 9909   1.948   3.459   4.298 -0.0014 -0.7702  0.1601
   74MOL0     C 9910   1.976   3.188   4.661  0.4521  0.5439 -0.0483
   74MOL0     C 9911   2.064   3.169   4.760 -0.1793 -0.7726  0.7494
   74MOL0     C 9912   2.056   3.066   4.861  0.2896  0.1117 -0.1026
   74MOL0     C 9913   1.948   2.972   4.854  0.4346 -0.3357 -0.6610
   74MOL0     O 9914   1.934   2.862   4.935  0.6969  0.1396  0.0489
   74MOL0     C 9915   2.047   2.829   5.013 -0.0980 -0.4873  0.0365
   74MOL0     C 9916   2.021   2.704   5.100  0.1050 -0.8781 -0.2528
   74MOL0     C 9917   2.123   2.691   5.213  0.1779 -0.0057 -0.0453
   74MOL0     C 9918   2.257   2.642   5.163  0.3490  0.6133  0.7426
   74MOL0     C 9919   2.338   2.581   5.266 -0.5901  0.5004 -0.1080
   74MOL0     C 9920   2.414   2.532   5.358 -0.2692 -0.5235 -0.3839
   74MOL0     C 9921   1.853   2.996   4.755 -0.8839  0.4121 -0.1393
   74MOL0     C 9922   1.865   3.100   4.664  0.1774 -0.6842 -0.5014
   74MOL0     H 9923   1.667   3.509   4.475 -1.4160 -0.7959 -1.3308
   74MOL0     H 9924   1.670   3.719   4.341 -1.2033 -1.2329  0.8970
   74MOL0     H 9925   1.741   3.688   4.007  2.8236 -0.5566  0.5228
   74MOL0     H 9926   1.653   3.807   4.105 -0.3656 -0.8213 -1.8307
   74MOL0     H 9927   1.864   3.858   3.893 -2.2840 -3.9768 -1.4851
   74MOL0     H 9928   1.689   3.873   3.873  1.0331 -0.1712 -1.8751
   74MOL0     H 9929   1.853   4.050   4.056 -1.2762 -0.5265  0.9207
   74MOL0     H 9930   1.794   4.102   3.897  0.0487  0.9229 -1.3741
   74MOL0     H 9931   1.557   4.058   3.985 -0.9855  1.0113  1.1151
   74MOL0     H 9932   1.628   4.050   4.151 -0.3830 -1.3943 -0.1281
   74MOL0     H 9933   1.730   4.269   4.121  0.6783 -0.8512 -0.8767
   74MOL0     H 9934   1.660   4.309   3.975 -0.4639 -1.1408 -2.1113
   74MOL0     H 9935   1.511   4.245   4.222 -2.2598  2.3512  1.3279
   74MOL0     H 9936   1.532   4.405   4.166 -1.2495 -0.2234  1.4637
   74MOL0     H 9937   1.399   4.314   3.941 -0.3866 -2.7330 -0.6095
   74MOL0     H 9938   1.368   4.180   4.038  0.5148 -0.5870  2.1721
   74MOL0     H 9939   1.250   4.341   4.200 -3.3836 -0.1082 -0.2505
   74MOL0     H 9940   1.175   4.330   4.040  0.1912 -1.5405  0.4319
   74MOL0     H 9941   1.350   4.577   4.267  0.8323 -0.7303 -0.6762
   74MOL0     H 9942   1.207   4.858   4.211 -0.5625 -2.7068 -0.2504
   74MOL0     H 9943   1.375   4.835   4.248 -1.7374  1.2852  0.1377
   74MOL0     H 9944   1.258   4.979   4.014 -1.2288  0.2204  1.2428
   74MOL0     H 9945   1.435   4.952   4.044  1.4187 -0.1736  2.9632
   74MOL0     H 9946   1.346   5.055   4.286 -0.5190 -0.0985 -0.3131
   74MOL0     H 9947   1.227   5.134   4.181 -0.7911 -1.2849 -0.4106
   74MOL0     H 9948   1.535   5.151   4.144  0.1343  0.5423 -1.8655
   74MOL0     H 9949   1.437   5.281   4.200 -0.2662  0.3596 -1.2781
   74MOL0     H 9950   1.655   5.297   4.001 -1.6022  2.1670  1.6647
   74MOL0     H 9951   1.872   5.366   3.893  0.0284 -1.0581 -0.4358
   74MOL0     H 9952   1.857   5.417   3.723 -1.9203 -0.3651  0.4115
   74MOL0     H 9953   1.831   5.539   3.854 -3.6737  1.3357  1.0911
   74MOL0     H 9954   1.544   5.441   3.293  0.3947 -0.9403 -3.4258
   74MOL0     H 9955   1.607   5.519   3.073  0.8372 -0.2400 -1.0010
   74MOL0     H 9956   1.581   5.665   2.905  0.3635 -0.7696 -2.2639
   74MOL0     H 9957   1.564   5.837   2.932 -0.5270 -0.0197 -0.5387
   74MOL0     H 9958   1.789   5.714   2.767 -1.5794 -1.8355 -4.8532
   74MOL0     H 9959   1.633   5.760   2.695  0.8250  2.5514 -0.9404
   74MOL0     H 9960   1.825   5.935   2.835 -0.6554  0.8554  0.6037
   74MOL0     H 9961   1.659   5.991   2.776 -1.3620 -2.4914  1.6885
   74MOL0     H 9962   1.907   5.890   2.611 -2.7191 -2.9685 -0.8145
   74MOL0     H 9963   1.753   5.954   2.542 -0.6267  0.6763  0.0158
   74MOL0     H 9964   1.961   6.114   2.702  3.0245  3.2099 -2.7690
   74MOL0     H 9965   1.805   6.163   2.621  0.2489  0.5400  0.9835
   74MOL0     H 9966   2.054   6.062   2.474 -0.8438 -1.2425 -0.1699
   74MOL0     H 9967   1.899   6.119   2.413 -1.4549  0.4630  2.5315
   74MOL0     H 9968   2.114   6.291   2.550 -0.1725 -1.3240  0.6197
   74MOL0     H 9969   1.960   6.357   2.490  1.5452  1.6018  1.7595
   74MOL0     H 9970   1.997   6.286   2.267 -1.5669 -1.6811  0.9335
   74MOL0     H 9971   2.141   6.195   2.317  0.7324  1.4610 -1.7945
   74MOL0     H 9972   1.721   5.901   3.232  0.5634 -0.2359  1.6668
   74MOL0     H 9973   1.674   5.811   3.463  0.3847  0.2219 -0.4321
   74MOL0     H 9974   1.398   5.440   3.612 -1.9813 -1.4076  1.2742
   74MOL0     H 9975   1.303   5.318   3.771 -2.1301  3.7564 -0.3349
   74MOL0     H 9976   2.007   3.576   4.126 -1.7833 -2.9804 -0.7371
   74MOL0     H 9977   2.029   3.394   4.267  0.7055  0.8072 -1.5065
   74MOL0     H 9978   2.139   3.247   4.765 -2.2200  1.2745  1.2345
   74MOL0     H 9979   2.142   3.069   4.927  0.6046  1.2277 -0.5262
   74MOL0     H 9980   2.128   2.808   4.944 -1.4754 -0.7611 -1.5521
   74MOL0     H 9981   2.077   2.917   5.071 -0.4412  0.0203 -0.5477
   74MOL0     H 9982   2.011   2.610   5.045  3.0747 -1.1646 -0.4325
   74MOL0     H 9983   1.928   2.725   5.155 -0.1872 -0.5345 -0.8633
   74MOL0     H 9984   2.084   2.621   5.288 -0.4585  0.6488  0.2442
   74MOL0     H 9985   2.137   2.782   5.272 -1.3416 -0.1842  0.6399
   74MOL0     H 9986   2.308   2.728   5.119  1.1828 -0.4897 -0.5135
   74MOL0     H 9987   2.238   2.569   5.084  3.3742  0.6806 -0.1519
   74MOL0     H 9988   2.482   2.494   5.432  0.7872  1.0729 -0.4760
   74MOL0     H 9989   1.782   2.914   4.751 -1.2480  0.5265  2.4858
   74MOL0     H 9990   1.793   3.112   4.583  2.6054  0.7369 -2.6187
   75MOL0     O 9991  10.147   7.673   5.964 -0.4137 -0.2870  0.7030
   75MOL0     C 9992  10.116   7.569   6.029  0.3487 -0.9097  0.1765
   75MOL0     O 9993  10.008   7.487   6.001  0.1385  0.0338 -0.1892
   75MOL0     C 9994   9.938   7.518   5.890 -0.0596  0.6324  0.5998
   75MOL0     C 9995   9.829   7.603   5.897 -0.4224 -0.8338  0.3471
   75MOL0     C 9996   9.744   7.623   5.789  0.9218 -0.7023  1.6542
   75MOL0     C 9997   9.764   7.553   5.666  0.3668  0.0031 -0.3855
   75MOL0     O 9998   9.670   7.573   5.565  0.5659 -0.6927 -1.3116
   75MOL0     C 9999   9.740   7.630   5.451  1.2817 -0.6643  0.6561
   75MOL0     C10000   9.646   7.637   5.327 -1.4288  0.2675  1.2721
   75MOL0     C10001   9.518   7.726   5.324 -0.0316 -0.2067 -1.0969
   75MOL0     C10002   9.547   7.877   5.311 -0.6187 -0.9281  1.4809
   75MOL0     C10003   9.470   7.979   5.396  0.5514 -0.1795  0.9686
   75MOL0     C10004   9.484   7.972   5.547 -0.3902  0.2739  0.6824
   75MOL0     C10005   9.438   8.102   5.604 -0.5027 -0.6388  0.3839
   75MOL0     C10006   9.466   8.120   5.752 -0.0779  0.9724 -0.6785
   75MOL0     N10007   9.421   7.999   5.819 -0.8757  0.0058 -0.8469
   75MOL0     C10008   9.288   7.968   5.831  0.4161 -0.1911 -0.4720
   75MOL0     C10009   9.283   7.864   5.927 -0.2540 -0.1498 -0.0323
   75MOL0     C10010   9.170   7.778   5.981 -0.3549 -1.2997 -0.4989
   75MOL0     C10011   9.075   7.837   6.088  0.8896 -0.1970 -0.4383
   75MOL0     C10012   9.142   7.888   6.214  0.3253 -1.4669  1.2382
   75MOL0     C10013   9.055   7.972   6.309 -0.2938 -0.4441  0.7384
   75MOL0     O10014   9.141   8.039   6.412  0.1045 -0.0503  1.4729
   75MOL0     C10015   9.084   8.078   6.529 -0.5755  0.3999  0.1035
   75MOL0     C10016   9.178   8.085   6.635  0.3967 -0.0359 -0.1609
   75MOL0     C10017   9.142   8.125   6.764  0.3998 -0.5061  1.0967
   75MOL0     C10018   9.253   8.166   6.858  0.3972  0.3590 -0.4950
   75MOL0     C10019   9.000   8.142   6.795 -1.0023 -0.1237 -0.5107
   75MOL0     C10020   8.963   8.179   6.927 -0.5346 -0.3877  0.0950
   75MOL0     O10021   8.999   8.099   7.033 -0.1081 -0.0891  0.5957
   75MOL0     C10022   8.916   8.098   7.143 -0.0051  0.4103  1.1565
   75MOL0     C10023   8.894   8.215   7.226 -0.2247 -0.3064  0.1450
   75MOL0     C10024   8.818   8.213   7.345  0.4218  0.1174  0.3476
   75MOL0     C10025   8.765   8.086   7.387  0.4903 -0.5025 -0.8437
   75MOL0     O10026   8.687   8.063   7.499 -0.0148  0.3113 -0.2588
   75MOL0     C10027   8.692   7.936   7.570 -0.2090  0.3674  0.5419
   75MOL0     C10028   8.603   7.958   7.695  0.8484 -0.5726  0.0520
   75MOL0     C10029   8.452   7.997   7.656 -0.8046 -0.1650  0.2151
   75MOL0     C10030   8.397   8.058   7.786 -0.1896  1.1714  0.5060
   75MOL0     C10031   8.254   8.108   7.767 -0.3993  0.0926  0.8171
   75MOL0     C10032   8.247   8.232   7.676  0.0861  0.3409 -0.1663
   75MOL0     C10033   8.108   8.285   7.663  0.0284  0.9414  0.9401
   75MOL0     C10034   8.084   8.377   7.540  0.7089 -0.2239 -1.0635
   75MOL0    Cl10035   8.210   8.505   7.533  0.0712 -0.5290  0.0100
   75MOL0     C10036   8.748   7.982   7.289 -0.5174  0.2377  0.0867
   75MOL0     C10037   8.839   7.988   7.182  0.2544 -0.3460  0.4639
   75MOL0     O10038   8.895   8.282   6.926 -0.7531  0.6072  0.5238
   75MOL0     C10039   8.910   8.140   6.684  0.2536 -0.1100 -0.3197
   75MOL0     C10040   8.949   8.105   6.552  0.3633 -0.3213  0.8915
   75MOL0     N10041   9.412   7.841   5.963 -0.5050 -0.5089  0.5075
   75MOL0     N10042   9.490   7.919   5.905  0.3733 -0.5047 -0.7263
   75MOL0     C10043   9.869   7.469   5.656  0.3325 -0.4238  0.6058
   75MOL0     C10044   9.959   7.452   5.764  0.0172 -0.9236  0.0372
   75MOL0     C10045  10.220   7.526   6.129  0.5068  0.1349 -0.0796
   75MOL0     C10046  10.185   7.421   6.215  0.1950 -1.0088  0.3127
   75MOL0     C10047  10.266   7.360   6.305 -0.0822 -0.8884 -0.5802
   75MOL0     C10048  10.399   7.402   6.312 -0.4962 -1.0453 -0.8856
   75MOL0     O10049  10.495   7.351   6.388  0.3253  0.8979  0.4536
   75MOL0     C10050  10.466   7.254   6.490 -0.1590  0.3797  0.4202
   75MOL0     C10051  10.595   7.193   6.545 -0.3925  0.3676 -0.2758
   75MOL0     C10052  10.552   7.071   6.627  0.3989  0.6809  0.3364
   75MOL0     C10053  10.645   6.950   6.615  0.4946  0.7127 -0.3552
   75MOL0     C10054  10.767   6.979   6.683  0.3258  0.1432  0.5657
   75MOL0     C10055  10.880   6.996   6.732  0.7275  0.2127 -0.1455
   75MOL0     C10056  10.441   7.503   6.224  0.1807 -0.2768 -0.3741
   75MOL0     C10057  10.353   7.570   6.141 -0.2806  0.3926  1.2345
   75MOL0     H10058   9.795   7.650   5.989 -0.5930  1.7939 -0.9856
   75MOL0     H10059   9.648   7.675   5.790  0.5185 -0.6281 -4.1711
   75MOL0     H10060   9.772   7.729   5.486 -2.2295  0.7249  0.4094
   75MOL0     H10061   9.830   7.575   5.423  2.0969  0.2331  1.4177
   75MOL0     H10062   9.706   7.666   5.240 -3.8032  1.2337 -0.1484
   75MOL0     H10063   9.619   7.532   5.314  1.3830 -0.5348  1.1180
   75MOL0     H10064   9.450   7.690   5.246 -0.8799 -1.9305  0.3480
   75MOL0     H10065   9.471   7.713   5.421 -1.1745 -0.1492 -1.6271
   75MOL0     H10066   9.655   7.885   5.327 -0.0266  0.4132 -2.2088
   75MOL0     H10067   9.517   7.900   5.208  2.6531  1.8698  0.9675
   75MOL0     H10068   9.489   8.082   5.366  0.0267  0.3875  2.4692
   75MOL0     H10069   9.363   7.971   5.377  0.8135 -2.1629  0.1419
   75MOL0     H10070   9.417   7.893   5.584  0.6293  0.0707  2.1758
   75MOL0     H10071   9.592   7.956   5.552  0.1631  3.1457 -0.4810
   75MOL0     H10072   9.495   8.176   5.547 -2.2216 -1.1987 -2.2326
   75MOL0     H10073   9.331   8.120   5.588 -0.0400  1.4991 -0.5896
   75MOL0     H10074   9.414   8.207   5.792  0.3905  1.3227 -0.8185
   75MOL0     H10075   9.573   8.137   5.770 -0.5919  0.8488  3.4427
   75MOL0     H10076   9.196   8.000   5.784 -1.8682 -3.0850  1.6037
   75MOL0     H10077   9.108   7.745   5.897  0.5489 -2.4334 -0.7410
   75MOL0     H10078   9.200   7.684   6.027 -1.1507  0.2295  3.5963
   75MOL0     H10079   8.991   7.773   6.118  0.1772  1.7940  2.1138
   75MOL0     H10080   9.012   7.914   6.043 -1.3438  0.1785  2.9501
   75MOL0     H10081   9.227   7.952   6.188 -0.7050 -1.1969 -1.8957
   75MOL0     H10082   9.181   7.797   6.262  0.3005 -1.6579  0.8955
   75MOL0     H10083   8.991   7.902   6.363 -0.4769 -0.9635 -0.1369
   75MOL0     H10084   8.997   8.040   6.247 -0.5598 -0.8818  0.4984
   75MOL0     H10085   9.280   8.075   6.601  0.1435 -2.5645 -0.3690
   75MOL0     H10086   9.267   8.083   6.928 -0.6935 -0.5913 -1.3604
   75MOL0     H10087   9.345   8.190   6.804  1.1935 -1.0245  0.1868
   75MOL0     H10088   9.234   8.255   6.918 -0.7322  0.3879 -0.8799
   75MOL0     H10089   8.949   8.305   7.199  0.5313 -0.6753  0.4255
   75MOL0     H10090   8.812   8.305   7.402 -2.5964  0.5710 -0.5229
   75MOL0     H10091   8.665   7.842   7.521  0.0060 -1.0551  3.0125
   75MOL0     H10092   8.797   7.922   7.596  0.0347  1.7585  0.3905
   75MOL0     H10093   8.612   7.866   7.754 -2.8600  0.1560  2.0442
   75MOL0     H10094   8.659   8.020   7.765 -1.3600 -2.8727  4.2322
   75MOL0     H10095   8.404   7.914   7.604 -3.5435  1.5396 -0.1724
   75MOL0     H10096   8.456   8.080   7.586  1.1844  0.4866  1.0286
   75MOL0     H10097   8.378   7.984   7.865 -3.1040  1.6789  0.3909
   75MOL0     H10098   8.471   8.131   7.821  2.3010 -1.0496  0.1970
   75MOL0     H10099   8.209   8.142   7.861 -4.3104 -0.1649 -0.7938
   75MOL0     H10100   8.193   8.029   7.722 -0.2977  1.0054 -1.0051
   75MOL0     H10101   8.302   8.316   7.721  2.0179 -1.8101  1.7289
   75MOL0     H10102   8.285   8.229   7.573  0.6351  3.7126 -0.1797
   75MOL0     H10103   8.089   8.337   7.757  1.6235  1.0361  1.2350
   75MOL0     H10104   8.034   8.205   7.652  0.7397  0.5672 -2.1911
   75MOL0     H10105   7.989   8.428   7.558  1.2184 -0.5837  3.9365
   75MOL0     H10106   8.075   8.309   7.454 -0.9229 -2.0809  0.4833
   75MOL0     H10107   8.705   7.883   7.301  0.4010 -0.8245 -3.9098
   75MOL0     H10108   8.832   7.900   7.118  0.2006  0.0900 -0.1426
   75MOL0     H10109   8.804   8.157   6.705  0.0692  0.7730 -1.8005
   75MOL0     H10110   8.884   8.110   6.465  2.0531  0.9410 -0.3598
   75MOL0     H10111   9.874   7.406   5.568 -2.4129  2.6382 -2.0446
   75MOL0     H10112  10.041   7.383   5.752 -0.9360 -1.8788 -1.2805
   75MOL0     H10113  10.090   7.370   6.208 -0.5202  0.4315 -1.0376
   75MOL0     H10114  10.227   7.281   6.368 -1.4735 -1.0639 -1.6338
   75MOL0     H10115  10.392   7.281   6.565 -1.1242  1.7548 -0.9739
   75MOL0     H10116  10.419   7.174   6.431 -0.1587  0.5521  0.1821
   75MOL0     H10117  10.646   7.267   6.607 -2.1901  1.1242  0.3586
   75MOL0     H10118  10.652   7.156   6.460 -0.5613 -2.7495  0.8391
   75MOL0     H10119  10.458   7.027   6.593  0.5408 -1.8227  2.8684
   75MOL0     H10120  10.539   7.108   6.729  1.4257  0.8317  0.4294
   75MOL0     H10121  10.658   6.928   6.508 -1.8871  1.4111 -0.8556
   75MOL0     H10122  10.596   6.858   6.648 -2.5249  1.2367 -2.8611
   75MOL0     H10123  10.970   7.027   6.781  2.2297 -0.5764 -2.2871
   75MOL0     H10124  10.540   7.547   6.213 -0.2978  0.3065 -3.1728
   75MOL0     H10125  10.388   7.652   6.079 -1.9236 -0.5083 -1.0552
   76MOL0     O10126  10.626  11.266   1.114  0.9299 -0.5781  0.1507
   76MOL0     C10127  10.508  11.236   1.090 -0.6232  0.3406  0.2643
   76MOL0     O10128  10.445  11.134   1.145 -0.6614 -0.5246  0.2343
   76MOL0     C10129  10.514  11.059   1.233 -0.2469 -0.3009  1.1817
   76MOL0     C10130  10.499  11.099   1.363 -0.7946  0.1254 -0.2752
   76MOL0     C10131  10.559  11.028   1.467 -0.0543  1.3650  0.3229
   76MOL0     C10132  10.628  10.907   1.436  0.1654  0.0828  0.4148
   76MOL0     O10133  10.675  10.839   1.548 -0.1807  0.4584  0.4064
   76MOL0     C10134  10.758  10.720   1.548 -0.1147 -0.5400 -0.3240
   76MOL0     C10135  10.693  10.623   1.652  0.4888  0.1057 -0.6767
   76MOL0     C10136  10.759  10.493   1.690  0.1873 -0.2750  0.2790
   76MOL0     C10137  10.673  10.445   1.802 -0.4891 -0.1668 -0.8953
   76MOL0     C10138  10.676  10.501   1.949 -0.1741  0.2348 -0.1410
   76MOL0     C10139  10.809  10.548   1.992 -0.8871  1.1516  0.2210
   76MOL0     C10140  10.906  10.427   2.006 -0.6209 -0.4260  1.1349
   76MOL0     C10141  10.863  10.347   2.132 -0.2977  0.3478  0.2317
   76MOL0     N10142  10.952  10.247   2.191 -0.1169 -0.2860  0.1520
   76MOL0     C10143  11.092  10.244   2.190  0.1886 -0.1145  1.9446
   76MOL0     C10144  11.120  10.129   2.249  0.7672  0.3845 -0.2765
   76MOL0     C10145  11.248  10.062   2.277  0.4828  0.4485  0.4194
   76MOL0     C10146  11.267   9.929   2.206 -0.5959 -0.0856 -0.5075
   76MOL0     C10147  11.302   9.933   2.052 -0.4000  0.0945 -0.3962
   76MOL0     C10148  11.190  10.000   1.971  0.3736 -0.3584  0.3369
   76MOL0     O10149  11.233  10.136   1.934 -1.0199  0.5453  0.4420
   76MOL0     C10150  11.169  10.197   1.829 -0.3051 -0.0136 -0.6065
   76MOL0     C10151  11.073  10.136   1.745 -0.0869  0.2117  1.5717
   76MOL0     C10152  11.029  10.209   1.630 -0.1949 -0.7353  0.1496
   76MOL0     C10153  10.935  10.139   1.532 -0.0658  0.8259  0.1472
   76MOL0     C10154  11.054  10.356   1.616  0.2735  0.9451 -0.2511
   76MOL0     C10155  11.016  10.444   1.506  0.6263  1.1748  0.6466
   76MOL0     O10156  11.060  10.567   1.515 -0.2455  0.2972 -0.0201
   76MOL0     C10157  11.055  10.658   1.413 -0.3856 -0.2003 -0.4849
   76MOL0     C10158  11.003  10.648   1.282 -0.2336  0.0609  0.4647
   76MOL0     C10159  11.003  10.763   1.192  0.1120  0.4624 -0.1564
   76MOL0     C10160  11.065  10.879   1.239  0.2795  0.9166 -0.2747
   76MOL0     O10161  11.080  10.978   1.148  0.5670  0.3210 -0.2702
   76MOL0     C10162  10.987  11.086   1.157 -0.0063 -0.4440 -0.5814
   76MOL0     C10163  11.022  11.210   1.080 -0.5781  0.0175 -0.8867
   76MOL0     C10164  11.008  11.208   0.930  0.7055  0.8140 -0.4833
   76MOL0     C10165  11.040  11.077   0.858  0.0734  0.3554  0.0987
   76MOL0     C10166  11.050  11.122   0.707  0.7033 -1.1917  0.4353
   76MOL0     C10167  11.084  11.016   0.616 -0.4851 -0.1527  0.1295
   76MOL0     C10168  11.042  11.043   0.473 -0.0494 -1.0892 -0.0771
   76MOL0     C10169  11.078  10.931   0.390 -0.9046 -0.4059  0.2257
   76MOL0    Cl10170  11.255  10.872   0.405  0.4329 -0.4811 -0.1818
   76MOL0     C10171  11.131  10.883   1.358  1.2555  1.0460  0.3059
   76MOL0     C10172  11.133  10.770   1.441  0.4480 -0.1202  0.4802
   76MOL0     O10173  10.940  10.405   1.423  0.0197  0.3763 -0.5790
   76MOL0     C10174  11.139  10.403   1.707 -0.8732 -0.4759 -0.2783
   76MOL0     C10175  11.205  10.331   1.804 -0.7094 -0.3640 -0.5039
   76MOL0     N10176  11.003  10.072   2.288 -0.1459 -0.1816  0.1976
   76MOL0     N10177  10.905  10.142   2.255 -0.7106 -0.0370  0.2258
   76MOL0     C10178  10.660  10.876   1.302 -0.0863  0.3532 -0.9525
   76MOL0     C10179  10.603  10.956   1.198 -0.2859  0.8806 -0.3084
   76MOL0     C10180  10.434  11.301   0.984  0.5682 -1.1491 -0.4926
   76MOL0     C10181  10.296  11.281   0.962 -0.4859 -0.4702 -0.1199
   76MOL0     C10182  10.236  11.336   0.855  1.4455  0.4756 -0.2678
   76MOL0     C10183  10.310  11.414   0.760 -0.0846  0.3560 -0.0739
   76MOL0     O10184  10.254  11.444   0.642  0.0026  0.0792 -0.0821
   76MOL0     C10185  10.119  11.495   0.642 -0.6500  0.1771 -0.3655
   76MOL0     C10186  10.081  11.564   0.510 -0.5367  0.6770  0.1403
   76MOL0     C10187  10.186  11.672   0.470  0.0993 -0.0728  1.0211
   76MOL0     C10188  10.151  11.760   0.354  1.0745  0.1648  0.0647
   76MOL0     C10189  10.246  11.871   0.352  0.2085 -0.3869  1.2027
   76MOL0     C10190  10.337  11.948   0.353 -0.4936 -0.7268  0.6215
   76MOL0     C10191  10.439  11.436   0.780  0.5220 -0.4159 -0.3056
   76MOL0     C10192  10.502  11.383   0.889  0.5862  0.5912  0.1953
   76MOL0     H10193  10.451  11.192   1.392 -1.2334 -0.5704  1.3727
   76MOL0     H10194  10.564  11.055   1.572  1.1585 -0.9420  0.9345
   76MOL0     H10195  10.768  10.681   1.446 -1.4299  0.6508 -0.9463
   76MOL0     H10196  10.859  10.743   1.582  0.0907 -2.5631  0.5646
   76MOL0     H10197  10.666  10.683   1.739  0.3057  0.3458 -0.8969
   76MOL0     H10198  10.596  10.600   1.607  1.1410  0.0712 -2.1128
   76MOL0     H10199  10.756  10.426   1.604  0.2359 -0.9221  0.7701
   76MOL0     H10200  10.864  10.504   1.719  0.7079 -0.1834 -1.5248
   76MOL0     H10201  10.568  10.450   1.770 -0.6015 -0.2818 -0.5522
   76MOL0     H10202  10.699  10.339   1.807  2.1620  0.3803 -1.4891
   76MOL0     H10203  10.593  10.572   1.961 -0.4945 -0.2129  0.2803
   76MOL0     H10204  10.634  10.424   2.013  0.7928 -0.0190  0.1974
   76MOL0     H10205  10.846  10.627   1.926  0.8911  0.3539  0.2005
   76MOL0     H10206  10.805  10.588   2.094 -2.6439  0.3748  0.4874
   76MOL0     H10207  10.906  10.367   1.914 -1.6622  0.8138  0.2922
   76MOL0     H10208  11.010  10.452   2.027 -1.0694  0.1632  2.8527
   76MOL0     H10209  10.765  10.299   2.132  0.6899 -1.7769 -0.4949
   76MOL0     H10210  10.857  10.421   2.213 -0.6546  0.6357 -0.0564
   76MOL0     H10211  11.164  10.300   2.131 -0.1017 -1.3696  0.3199
   76MOL0     H10212  11.337  10.124   2.261  1.9802 -0.6833  3.4313
   76MOL0     H10213  11.252  10.031   2.382  0.2158 -2.0334 -0.2235
   76MOL0     H10214  11.174   9.872   2.214 -0.6488 -0.1092 -1.2620
   76MOL0     H10215  11.346   9.868   2.251 -0.3476  2.1261  2.3056
   76MOL0     H10216  11.303   9.830   2.013 -1.7754  0.6645 -2.1057
   76MOL0     H10217  11.392   9.988   2.024 -1.6677  2.1454 -0.6015
   76MOL0     H10218  11.089   9.984   2.010  0.3126  0.0548  0.3576
   76MOL0     H10219  11.186   9.945   1.876 -1.6799  0.6944 -0.2416
   76MOL0     H10220  11.045  10.032   1.757  1.8308 -0.1470  3.7402
   76MOL0     H10221  10.925  10.032   1.555  1.9526  0.6849  0.5262
   76MOL0     H10222  10.834  10.178   1.539  0.2100  1.2417  2.7354
   76MOL0     H10223  10.967  10.145   1.428  1.6743 -0.4226  0.5596
   76MOL0     H10224  10.944  10.569   1.238  2.5359 -0.5158 -2.6002
   76MOL0     H10225  10.952  10.756   1.097  1.3139 -2.8189 -0.6948
   76MOL0     H10226  10.883  11.063   1.132 -1.5044  1.4421  3.1130
   76MOL0     H10227  10.989  11.124   1.259  2.1925 -1.4977 -0.1752
   76MOL0     H10228  10.970  11.297   1.121 -0.6937 -0.8508  0.9010
   76MOL0     H10229  11.126  11.235   1.105 -1.2355  0.8332  1.2733
   76MOL0     H10230  11.072  11.285   0.885 -0.5095  0.6341 -2.6267
   76MOL0     H10231  10.902  11.222   0.910 -0.5458 -2.4037  2.7834
   76MOL0     H10232  11.144  11.048   0.874 -0.2658 -0.7762  0.3966
   76MOL0     H10233  10.967  11.002   0.891  0.8046  0.1311  1.2604
   76MOL0     H10234  11.127  11.200   0.703  0.8189 -1.3697 -2.3562
   76MOL0     H10235  10.955  11.170   0.681  1.3260 -0.3302 -0.3385
   76MOL0     H10236  11.190  10.989   0.624  0.2501  1.6230 -2.2140
   76MOL0     H10237  11.025  10.931   0.651 -0.2332 -1.1520 -1.7066
   76MOL0     H10238  11.091  11.135   0.440 -0.7820  0.8637  3.6475
   76MOL0     H10239  10.933  11.049   0.481 -0.0316 -1.6304  0.6347
   76MOL0     H10240  11.047  10.956   0.288  1.3676 -0.0981 -0.4510
   76MOL0     H10241  11.027  10.836   0.409 -5.1406  1.2506 -1.4453
   76MOL0     H10242  11.189  10.972   1.384  0.3676  1.1392  2.1192
   76MOL0     H10243  11.193  10.778   1.531  0.2163  1.3385  0.5192
   76MOL0     H10244  11.190  10.499   1.710  3.8210 -2.7244  1.8936
   76MOL0     H10245  11.279  10.377   1.869 -0.1104 -2.5894  0.4890
   76MOL0     H10246  10.728  10.794   1.281 -1.9528 -0.9902 -2.0824
   76MOL0     H10247  10.631  10.948   1.094  1.2404  2.7624 -0.1206
   76MOL0     H10248  10.234  11.223   1.030 -1.4244  0.7084  0.0607
   76MOL0     H10249  10.130  11.319   0.844  1.0239  1.6236  1.4429
   76MOL0     H10250  10.049  11.413   0.658  1.3114 -1.0710  2.8308
   76MOL0     H10251  10.112  11.570   0.720 -0.4939  1.5815 -1.6580
   76MOL0     H10252   9.983  11.611   0.523 -0.4742  1.3841 -1.7254
   76MOL0     H10253  10.062  11.484   0.438  4.1366 -2.1466  1.5907
   76MOL0     H10254  10.277  11.615   0.451 -0.0214 -0.1597  0.6993
   76MOL0     H10255  10.194  11.733   0.561  1.2538 -0.8561  1.4742
   76MOL0     H10256  10.055  11.809   0.373  1.8933  2.3937 -1.1682
   76MOL0     H10257  10.135  11.714   0.256 -2.0224 -1.8871  1.3549
   76MOL0     H10258  10.407  12.029   0.359 -0.4558 -0.8062  1.5069
   76MOL0     H10259  10.489  11.491   0.701  0.7657  0.8385  0.7012
   76MOL0     H10260  10.607  11.398   0.912  0.7400  0.5244 -0.4375
   77MOL0     O10261   0.428   8.708   8.986  0.1968  0.9937  0.1313
   77MOL0     C10262   0.465   8.598   8.936 -0.5510  0.4732  0.0266
   77MOL0     O10263   0.416   8.541   8.826  1.0881 -0.1764 -0.0550
   77MOL0     C10264   0.326   8.617   8.746 -0.8465  0.5542 -0.2896
   77MOL0     C10265   0.346   8.752   8.703  0.1888  0.3865 -0.7243
   77MOL0     C10266   0.264   8.796   8.598 -0.6722 -0.0352 -1.2556
   77MOL0     C10267   0.169   8.715   8.542  0.4554 -0.7014 -0.2379
   77MOL0     O10268   0.091   8.744   8.432  0.5957  0.1215  0.3376
   77MOL0     C10269   0.050   8.877   8.390  0.4139 -0.0080  1.0304
   77MOL0     C10270  -0.059   8.867   8.289 -0.1289 -0.5820  0.8430
   77MOL0     C10271  -0.188   8.846   8.374 -0.6647  0.0704  0.3611
   77MOL0     C10272  -0.244   8.979   8.407 -0.0121 -0.5427 -0.0894
   77MOL0     C10273  -0.377   8.964   8.486  0.0997 -0.1049  0.4745
   77MOL0     C10274  -0.431   9.098   8.536 -0.6325 -0.1757 -0.7462
   77MOL0     C10275  -0.580   9.123   8.518  0.5797 -0.4296 -1.0701
   77MOL0     C10276  -0.673   9.015   8.572 -0.2814 -0.0804  0.6037
   77MOL0     N10277  -0.674   9.018   8.721  0.3727  0.0742  1.0351
   77MOL0     C10278  -0.592   8.962   8.803 -1.6425  0.9860  0.2303
   77MOL0     C10279  -0.625   8.994   8.923  0.3414 -0.2599 -0.1104
   77MOL0     C10280  -0.538   8.961   9.032 -0.4124 -0.7253  0.0458
   77MOL0     C10281  -0.546   8.813   9.084  0.2597 -0.1677  0.7838
   77MOL0     C10282  -0.684   8.786   9.140 -0.6115 -0.1817 -0.2416
   77MOL0     C10283  -0.686   8.633   9.170 -0.4686 -0.4267  0.5749
   77MOL0     O10284  -0.793   8.612   9.258 -0.0087  0.3022  0.4867
   77MOL0     C10285  -0.915   8.591   9.193 -0.7519 -0.0603  0.0683
   77MOL0     C10286  -0.955   8.463   9.181 -0.5436 -0.2745  0.8227
   77MOL0     C10287  -1.074   8.429   9.118  0.3074 -0.9000  0.2338
   77MOL0     C10288  -1.112   8.285   9.122 -0.5756 -0.5713  0.1745
   77MOL0     C10289  -1.161   8.534   9.062 -1.0523 -0.2867 -0.3272
   77MOL0     C10290  -1.284   8.510   8.986  0.7868  0.9191 -0.0835
   77MOL0     O10291  -1.395   8.562   9.029 -0.2490 -0.1453 -0.2749
   77MOL0     C10292  -1.504   8.576   8.944  0.2828  0.7151 -0.5063
   77MOL0     C10293  -1.638   8.584   8.991 -0.0059  0.4762  0.3200
   77MOL0     C10294  -1.754   8.596   8.908  0.4801  0.1347  0.1075
   77MOL0     C10295  -1.733   8.596   8.771 -0.3940  0.9865 -0.6404
   77MOL0     O10296  -1.843   8.600   8.689 -0.6429  0.0029 -0.0228
   77MOL0     C10297  -1.831   8.549   8.557  1.2739  0.4348  1.6348
   77MOL0     C10298  -1.971   8.507   8.515  0.5066  1.0747 -0.2315
   77MOL0     C10299  -2.003   8.358   8.519  0.1183 -0.9518 -0.7514
   77MOL0     C10300  -2.144   8.316   8.475 -0.5699 -0.6837  0.5360
   77MOL0     C10301  -2.265   8.410   8.488  0.1746  1.7423 -0.9666
   77MOL0     C10302  -2.400   8.334   8.461 -0.1959 -0.0373 -0.2731
   77MOL0     C10303  -2.515   8.439   8.438  0.9914  0.6681  0.0519
   77MOL0     C10304  -2.539   8.524   8.570  0.6955 -0.6917  0.3203
   77MOL0    Cl10305  -2.687   8.621   8.544 -0.6851 -0.3532 -0.4774
   77MOL0     C10306  -1.602   8.599   8.725 -1.2353 -0.2042  0.5619
   77MOL0     C10307  -1.492   8.603   8.816  1.0350 -0.2402  0.8602
   77MOL0     O10308  -1.279   8.418   8.895  0.8401  0.1320 -0.6560
   77MOL0     C10309  -1.118   8.670   9.094 -0.4227  1.4508 -0.1684
   77MOL0     C10310  -1.001   8.698   9.157  0.2389 -0.2737 -0.1887
   77MOL0     N10311  -0.736   9.085   8.912 -0.0711  0.3858  0.0381
   77MOL0     N10312  -0.768   9.087   8.782 -0.2429  0.3397  0.4477
   77MOL0     C10313   0.157   8.585   8.598 -0.2504  0.1329  0.4233
   77MOL0     C10314   0.232   8.538   8.694 -0.1366 -0.0720  0.3978
   77MOL0     C10315   0.583   8.535   9.001  0.7932  0.5301 -0.1752
   77MOL0     C10316   0.667   8.596   9.090  0.0508  0.2096 -0.0487
   77MOL0     C10317   0.776   8.533   9.154 -0.3418 -0.0496 -0.5817
   77MOL0     C10318   0.788   8.391   9.135  0.6870 -0.1029 -0.4754
   77MOL0     O10319   0.897   8.322   9.181  0.2118 -0.6619  1.7522
   77MOL0     C10320   1.016   8.358   9.111 -0.3774 -0.5768 -0.3447
   77MOL0     C10321   1.090   8.229   9.093 -0.3456  0.1048  0.0970
   77MOL0     C10322   1.151   8.191   9.234  0.2556  0.0790 -0.2443
   77MOL0     C10323   1.248   8.077   9.224  0.5071 -0.8614  0.2765
   77MOL0     C10324   1.180   7.956   9.192 -0.3127 -0.2346  0.0917
   77MOL0     C10325   1.134   7.847   9.189  0.5434 -0.1567  0.7082
   77MOL0     C10326   0.701   8.324   9.038  0.2873 -1.0652  0.7781
   77MOL0     C10327   0.603   8.400   8.979 -1.5630 -0.3794 -0.1244
   77MOL0     H10328   0.430   8.802   8.750 -0.7523  1.6150 -0.3100
   77MOL0     H10329   0.279   8.897   8.561  0.4236  0.2346 -0.1318
   77MOL0     H10330   0.022   8.928   8.482  0.7275 -4.0967  3.6521
   77MOL0     H10331   0.133   8.930   8.342  2.1936  0.5832  4.3927
   77MOL0     H10332  -0.068   8.956   8.226 -1.4320  0.0572  1.8860
   77MOL0     H10333  -0.045   8.792   8.211 -0.1592 -1.3376  1.5427
   77MOL0     H10334  -0.269   8.804   8.314 -1.2349  0.3235  0.9350
   77MOL0     H10335  -0.172   8.773   8.453 -1.5001  2.5613  3.0005
   77MOL0     H10336  -0.171   9.044   8.457 -0.8350  0.4238 -0.1218
   77MOL0     H10337  -0.244   9.022   8.306  0.0459 -1.0855 -0.3239
   77MOL0     H10338  -0.457   8.920   8.425 -1.9447  1.7904  1.6693
   77MOL0     H10339  -0.362   8.897   8.571  1.3308 -0.4893 -0.0200
   77MOL0     H10340  -0.407   9.110   8.642 -1.5141 -2.2867 -0.2617
   77MOL0     H10341  -0.372   9.180   8.494  1.7065 -0.7738  1.1261
   77MOL0     H10342  -0.595   9.217   8.572  1.7071 -1.0922  0.4721
   77MOL0     H10343  -0.597   9.137   8.411  2.0733  0.5768 -1.1961
   77MOL0     H10344  -0.642   8.919   8.529 -1.3530  0.1344 -0.7230
   77MOL0     H10345  -0.779   9.026   8.544 -0.9548  1.1011  3.3095
   77MOL0     H10346  -0.499   8.911   8.781 -0.3982  2.6038  1.3744
   77MOL0     H10347  -0.438   8.994   9.004 -2.0417  1.4154 -4.0561
   77MOL0     H10348  -0.577   9.019   9.116 -1.0554 -0.6670 -0.2903
   77MOL0     H10349  -0.470   8.794   9.160  0.3716  0.3210  0.7990
   77MOL0     H10350  -0.518   8.747   9.001 -2.2016 -1.8840  1.2003
   77MOL0     H10351  -0.770   8.827   9.085 -2.7359 -2.5852  1.0543
   77MOL0     H10352  -0.696   8.838   9.236 -3.4772 -0.3121 -0.4472
   77MOL0     H10353  -0.596   8.602   9.223  0.0105  1.4766  0.9352
   77MOL0     H10354  -0.698   8.571   9.081 -1.4591 -1.7141  1.5686
   77MOL0     H10355  -0.896   8.377   9.212  1.5258  0.1366 -1.6703
   77MOL0     H10356  -1.144   8.261   9.224 -0.3387 -1.1080  0.1269
   77MOL0     H10357  -1.197   8.252   9.061 -0.0545 -0.3561 -0.6933
   77MOL0     H10358  -1.023   8.226   9.096  0.0546 -0.9003  2.8359
   77MOL0     H10359  -1.661   8.584   9.097  0.4363  2.1385  0.4319
   77MOL0     H10360  -1.854   8.585   8.950  1.1169 -1.8686  1.2298
   77MOL0     H10361  -1.798   8.624   8.485 -0.2714 -0.6470 -0.2734
   77MOL0     H10362  -1.761   8.465   8.551  0.5680 -0.0362 -2.0797
   77MOL0     H10363  -2.044   8.566   8.570 -0.9565 -1.9819  1.3851
   77MOL0     H10364  -2.004   8.532   8.414 -0.6141  2.4832  0.4569
   77MOL0     H10365  -1.973   8.321   8.617 -3.6734  1.6789  1.6417
   77MOL0     H10366  -1.941   8.307   8.444  1.3646  0.1069 -0.4869
   77MOL0     H10367  -2.153   8.280   8.373 -0.9189 -1.2603  0.7666
   77MOL0     H10368  -2.162   8.225   8.533  1.1543 -1.1599  0.3684
   77MOL0     H10369  -2.247   8.481   8.407  2.9790  1.7624 -0.4293
   77MOL0     H10370  -2.266   8.460   8.585  1.2405  1.8816 -1.0096
   77MOL0     H10371  -2.394   8.283   8.365  2.4975  0.5371 -0.4976
   77MOL0     H10372  -2.417   8.264   8.543  2.3376 -2.4536 -1.6578
   77MOL0     H10373  -2.609   8.385   8.421  2.1069 -0.9273 -1.4939
   77MOL0     H10374  -2.486   8.491   8.346 -0.1954 -1.1028 -1.4166
   77MOL0     H10375  -2.453   8.591   8.586  0.2868 -0.0428 -0.1694
   77MOL0     H10376  -2.551   8.456   8.654  1.1240  0.8294  1.6581
   77MOL0     H10377  -1.593   8.625   8.620 -1.2072  2.4695  1.1678
   77MOL0     H10378  -1.397   8.624   8.768  0.1176 -1.8971 -1.9409
   77MOL0     H10379  -1.185   8.752   9.071 -0.6230  1.8160  1.6112
   77MOL0     H10380  -0.977   8.802   9.177  0.0960  0.0167 -1.4349
   77MOL0     H10381   0.085   8.519   8.550  1.3320 -1.1261 -0.2965
   77MOL0     H10382   0.214   8.433   8.717  4.1016 -0.5473  2.4899
   77MOL0     H10383   0.642   8.700   9.110 -4.7511 -1.2060  2.8947
   77MOL0     H10384   0.833   8.584   9.230  0.6853 -2.4786  0.3796
   77MOL0     H10385   1.003   8.415   9.018  0.6520  0.0775 -0.1038
   77MOL0     H10386   1.066   8.430   9.177  3.0525 -0.7440 -2.5035
   77MOL0     H10387   1.175   8.249   9.026 -0.7239  3.4047  0.4330
   77MOL0     H10388   1.031   8.150   9.045  0.7629 -1.0678  0.5952
   77MOL0     H10389   1.069   8.159   9.299 -2.0966  1.3276 -2.4232
   77MOL0     H10390   1.219   8.266   9.275  1.5737 -1.5180  0.6042
   77MOL0     H10391   1.303   8.068   9.318  0.2258 -0.7434  0.4543
   77MOL0     H10392   1.322   8.104   9.148 -1.2675  3.9064 -0.1190
   77MOL0     H10393   1.091   7.749   9.197 -0.6054  0.4407  2.4662
   77MOL0     H10394   0.720   8.220   9.017 -0.4164 -0.7902 -1.4423
   77MOL0     H10395   0.533   8.355   8.909 -2.5274  1.9202 -0.7538
   78MOL0     O10396   2.837   3.624   3.066 -0.4422 -0.4822 -0.1319
   78MOL0     C10397   2.787   3.613   2.958  0.9008 -1.1941  0.1202
   78MOL0     O10398   2.797   3.505   2.879 -0.0976  0.0430  0.7788
   78MOL0     C10399   2.869   3.393   2.921  0.5207 -0.0247  0.1259
   78MOL0     C10400   2.982   3.349   2.858 -1.5027  0.0704 -0.1914
   78MOL0     C10401   3.045   3.234   2.892  0.7463 -0.5197  0.6044
   78MOL0     C10402   3.007   3.166   3.007  0.5556 -0.3019 -0.1943
   78MOL0     O10403   3.055   3.036   3.021  0.7498 -0.0069 -0.3210
   78MOL0     C10404   3.091   2.995   3.153  0.3788 -0.3951 -0.1788
   78MOL0     C10405   3.137   2.855   3.154 -0.1241  1.0983  0.7013
   78MOL0     C10406   3.130   2.773   3.286 -0.1756  0.4592  0.2835
   78MOL0     C10407   3.200   2.641   3.253 -0.3149  0.9063 -0.4768
   78MOL0     C10408   3.170   2.543   3.367  0.3077  0.2911  1.6309
   78MOL0     C10409   3.268   2.535   3.485 -0.3223 -0.1418 -0.5827
   78MOL0     C10410   3.260   2.411   3.569  0.4378 -0.2412  0.5367
   78MOL0     C10411   3.119   2.377   3.628 -0.4607 -0.2640  0.0474
   78MOL0     N10412   3.100   2.232   3.615 -0.7479  0.8313 -0.7239
   78MOL0     C10413   3.110   2.145   3.729  0.2821 -1.1362 -0.0472
   78MOL0     C10414   3.065   2.025   3.686 -0.4514 -0.1488 -0.4081
   78MOL0     C10415   3.063   1.893   3.760 -0.3152  0.2018 -0.3631
   78MOL0     C10416   2.937   1.814   3.735  0.0334 -0.1393 -0.1731
   78MOL0     C10417   2.818   1.896   3.786  0.7844 -0.7968  0.1824
   78MOL0     C10418   2.745   1.834   3.904  1.1059  0.2142 -0.4959
   78MOL0     O10419   2.800   1.865   4.036 -0.2367  0.1148  1.1803
   78MOL0     C10420   2.838   1.766   4.130  0.9853 -0.8875 -0.4876
   78MOL0     C10421   2.789   1.633   4.147 -0.1511  1.3362  0.6676
   78MOL0     C10422   2.845   1.545   4.240 -0.1112 -0.3481 -0.6110
   78MOL0     C10423   2.805   1.405   4.236 -0.4076  0.4151 -0.3557
   78MOL0     C10424   2.950   1.589   4.324 -0.1302 -0.2747 -0.1792
   78MOL0     C10425   3.004   1.510   4.434 -0.1503  0.2860 -0.0067
   78MOL0     O10426   3.121   1.546   4.497  0.2602 -0.3429  0.1713
   78MOL0     C10427   3.162   1.474   4.609  0.1208  0.2850 -0.1282
   78MOL0     C10428   3.246   1.362   4.608  0.3869  0.6752  0.0193
   78MOL0     C10429   3.279   1.295   4.727  0.1013 -0.3651 -0.3127
   78MOL0     C10430   3.210   1.333   4.843 -0.5913 -1.0078  0.2704
   78MOL0     O10431   3.224   1.241   4.938 -0.5831  0.2123  0.5603
   78MOL0     C10432   3.253   1.281   5.074 -0.2582  0.1838 -0.1178
   78MOL0     C10433   3.349   1.193   5.154 -0.6469 -0.5304  0.5941
   78MOL0     C10434   3.488   1.186   5.088 -0.1969 -0.4006 -0.1001
   78MOL0     C10435   3.562   1.313   5.127 -0.1775 -0.3565 -0.3550
   78MOL0     C10436   3.686   1.343   5.040  0.5593 -0.6307  0.7818
   78MOL0     C10437   3.640   1.427   4.919 -0.2994 -0.0542 -0.1700
   78MOL0     C10438   3.756   1.454   4.830  0.5859  0.1271  0.3525
   78MOL0     C10439   3.709   1.511   4.693 -0.2469 -0.6149 -0.5832
   78MOL0    Cl10440   3.592   1.646   4.714  0.2466 -0.3374 -0.2715
   78MOL0     C10441   3.132   1.451   4.848 -0.1981 -0.2111 -0.3231
   78MOL0     C10442   3.121   1.529   4.733  0.5602 -1.1755  0.2296
   78MOL0     O10443   2.941   1.402   4.466  0.9084 -0.8862  1.1486
   78MOL0     C10444   2.982   1.725   4.319  0.4750  0.4643  0.0150
   78MOL0     C10445   2.927   1.811   4.227  0.2617  0.3675  0.4013
   78MOL0     N10446   3.050   2.034   3.553  1.2139  0.1809  1.0938
   78MOL0     N10447   3.074   2.155   3.502  0.0653  0.4580 -0.2417
   78MOL0     C10448   2.903   3.222   3.089  0.5096 -0.0275 -0.4188
   78MOL0     C10449   2.834   3.339   3.044  0.3015 -0.3893  0.3789
   78MOL0     C10450   2.708   3.731   2.913 -0.2291  0.2140  1.6278
   78MOL0     C10451   2.606   3.707   2.808  0.8418  0.5017 -0.2635
   78MOL0     C10452   2.547   3.812   2.736  0.6943 -0.2501 -0.3637
   78MOL0     C10453   2.591   3.942   2.773  0.1538 -0.0400 -0.3154
   78MOL0     O10454   2.544   4.060   2.717  0.2409  0.2203  0.0400
   78MOL0     C10455   2.518   4.092   2.574  0.0989  0.4676 -0.6243
   78MOL0     C10456   2.377   4.155   2.558 -0.2680 -0.2274  0.3426
   78MOL0     C10457   2.381   4.260   2.457  0.4186  0.1386 -0.3989
   78MOL0     C10458   2.255   4.333   2.429 -0.0943  0.0517  0.2640
   78MOL0     C10459   2.158   4.245   2.363 -0.4535  0.1926 -0.0351
   78MOL0     C10460   2.075   4.175   2.310  1.3545 -0.5537 -1.6728
   78MOL0     C10461   2.692   3.969   2.871  0.1770  0.2507 -0.4786
   78MOL0     C10462   2.758   3.865   2.930 -0.6514  0.0185 -0.1746
   78MOL0     H10463   3.032   3.399   2.776 -2.6635  0.5760 -0.6122
   78MOL0     H10464   3.134   3.211   2.835 -0.8391  0.8763 -2.6817
   78MOL0     H10465   3.177   3.052   3.191  0.3884  0.8749 -2.0077
   78MOL0     H10466   3.009   2.999   3.225  0.4629  2.1543 -0.1431
   78MOL0     H10467   3.089   2.803   3.072  2.1180  2.2307 -1.4804
   78MOL0     H10468   3.242   2.867   3.123 -0.0815  3.3515  1.4702
   78MOL0     H10469   3.185   2.825   3.365  1.0481  1.9422 -1.4505
   78MOL0     H10470   3.028   2.760   3.322  0.4302 -2.0483  1.2836
   78MOL0     H10471   3.157   2.597   3.163 -0.7118  0.6836 -0.1798
   78MOL0     H10472   3.306   2.649   3.227  0.3625  0.6054  1.9518
   78MOL0     H10473   3.068   2.556   3.405  0.4292  0.9470  1.7592
   78MOL0     H10474   3.176   2.450   3.310 -1.3985  2.2719 -2.1458
   78MOL0     H10475   3.366   2.563   3.447 -0.5708  3.2454  0.9127
   78MOL0     H10476   3.251   2.623   3.547  2.5997  0.6464 -0.7548
   78MOL0     H10477   3.289   2.336   3.496  0.5101 -1.0741  1.4012
   78MOL0     H10478   3.328   2.411   3.655 -1.6532 -0.8435  2.2765
   78MOL0     H10479   3.038   2.433   3.580 -0.3454  0.3592  0.5706
   78MOL0     H10480   3.123   2.397   3.735 -1.5391 -2.0829  0.4695
   78MOL0     H10481   3.121   2.148   3.837 -3.6701  2.3247  0.5368
   78MOL0     H10482   3.149   1.828   3.743 -0.6548 -0.5110  0.5573
   78MOL0     H10483   3.074   1.914   3.867  0.6104  2.2111 -0.7922
   78MOL0     H10484   2.954   1.714   3.775  0.8281  0.2517  0.4960
   78MOL0     H10485   2.931   1.807   3.626 -0.5687 -0.8813 -0.1020
   78MOL0     H10486   2.741   1.884   3.709  2.9039 -0.8220 -2.0535
   78MOL0     H10487   2.842   2.001   3.806  1.9142 -0.9929 -0.0643
   78MOL0     H10488   2.735   1.726   3.888 -1.6638 -0.7426  5.0241
   78MOL0     H10489   2.644   1.877   3.903  1.4079  1.0672 -3.4046
   78MOL0     H10490   2.709   1.608   4.077  0.9842 -0.2630 -0.1105
   78MOL0     H10491   2.889   1.336   4.243  1.6727  2.2163 -4.3038
   78MOL0     H10492   2.727   1.398   4.313 -0.5295  1.2048 -0.3964
   78MOL0     H10493   2.761   1.380   4.139 -0.8670  0.3914 -0.1447
   78MOL0     H10494   3.301   1.327   4.522  1.6949  0.0246  1.0885
   78MOL0     H10495   3.338   1.203   4.733 -1.3958 -1.2911  1.0010
   78MOL0     H10496   3.285   1.385   5.075 -3.4950  1.2876  1.8734
   78MOL0     H10497   3.161   1.263   5.131  0.3657 -0.6457  0.6559
   78MOL0     H10498   3.363   1.243   5.250  0.3336  2.3128 -0.9290
   78MOL0     H10499   3.307   1.093   5.169 -0.7928 -0.1730  2.9549
   78MOL0     H10500   3.478   1.170   4.980  2.6451 -4.3072  0.0107
   78MOL0     H10501   3.538   1.098   5.131 -1.7792 -0.3246  2.1071
   78MOL0     H10502   3.492   1.394   5.108 -1.0552 -1.0827 -0.2971
   78MOL0     H10503   3.592   1.311   5.233 -1.6294 -1.5131  0.0653
   78MOL0     H10504   3.702   1.247   4.991 -1.6826  0.0688 -1.5561
   78MOL0     H10505   3.774   1.380   5.095 -0.6239  1.1017  1.6024
   78MOL0     H10506   3.565   1.371   4.863  3.6555 -1.9489 -4.2162
   78MOL0     H10507   3.589   1.521   4.942 -0.1436 -0.2378  1.0189
   78MOL0     H10508   3.803   1.357   4.812  0.5835 -0.2515  2.1917
   78MOL0     H10509   3.825   1.531   4.866  1.4255  0.2536 -1.4511
   78MOL0     H10510   3.664   1.428   4.638 -2.1990 -0.5281  0.7827
   78MOL0     H10511   3.790   1.543   4.626  0.0609 -1.2339 -0.5157
   78MOL0     H10512   3.069   1.487   4.928  2.0472  5.6311 -0.7418
   78MOL0     H10513   3.065   1.621   4.737  1.5178 -0.2669 -3.5671
   78MOL0     H10514   3.048   1.756   4.400  3.3891  0.0711 -2.0216
   78MOL0     H10515   2.961   1.914   4.233  2.2702 -0.2292  0.0418
   78MOL0     H10516   2.865   3.162   3.172  2.8919 -2.9330 -1.2398
   78MOL0     H10517   2.764   3.391   3.108 -1.4161  1.9477 -3.0576
   78MOL0     H10518   2.570   3.609   2.779  1.3961  0.0193  0.6476
   78MOL0     H10519   2.474   3.807   2.656 -1.3597  3.6557  1.0236
   78MOL0     H10520   2.588   4.162   2.529  1.2891 -0.8280 -0.8723
   78MOL0     H10521   2.526   3.994   2.525  1.6711  0.6223 -0.7189
   78MOL0     H10522   2.351   4.186   2.660 -0.0185  0.7960  0.1050
   78MOL0     H10523   2.304   4.079   2.529  0.0239 -0.1195 -0.6944
   78MOL0     H10524   2.427   4.235   2.361 -1.3040 -0.7298 -1.0413
   78MOL0     H10525   2.451   4.336   2.493  1.3299 -1.4312  1.2707
   78MOL0     H10526   2.276   4.414   2.359  1.3362  0.3074  0.9487
   78MOL0     H10527   2.217   4.383   2.519  2.4413  2.0895  0.3170
   78MOL0     H10528   1.991   4.133   2.258 -0.2642  0.2606  0.1468
   78MOL0     H10529   2.746   4.062   2.882  1.9938 -0.7175 -0.8839
   78MOL0     H10530   2.841   3.888   2.997 -1.6462 -2.5462  2.1409
   79MOL0     O10531   5.354  10.342   3.527  0.2342  0.8933 -0.2268
   79MOL0     C10532   5.434  10.253   3.493 -0.4447 -0.1961  0.1108
   79MOL0     O10533   5.483  10.238   3.368 -0.0134  0.2021  0.3270
   79MOL0     C10534   5.439  10.308   3.250  0.3463  0.6762 -0.1598
   79MOL0     C10535   5.515  10.291   3.130  0.3643 -0.2815 -0.4592
   79MOL0     C10536   5.460  10.357   3.013  0.5255 -0.3693 -0.0035
   79MOL0     C10537   5.345  10.441   3.011 -0.9098  0.0819 -0.2237
   79MOL0     O10538   5.310  10.515   2.893  0.4800 -0.2985 -0.4499
   79MOL0     C10539   5.216  10.622   2.922  0.1860  0.4435  0.2074
   79MOL0     C10540   5.226  10.716   2.802  0.1169 -0.0736 -0.7432
   79MOL0     C10541   5.146  10.844   2.804  1.0674 -0.0668 -1.4727
   79MOL0     C10542   5.201  10.964   2.721  0.0850 -0.0207  1.1326
   79MOL0     C10543   5.201  10.929   2.567  0.4167 -0.4844 -0.3522
   79MOL0     C10544   5.066  10.924   2.500 -1.5169  0.0034  0.4302
   79MOL0     C10545   5.028  11.047   2.420 -0.3968  1.7712  0.7946
   79MOL0     C10546   4.990  11.173   2.501 -1.5776 -0.4519  0.6535
   79MOL0     N10547   4.863  11.172   2.572  0.3272 -0.5969  0.6399
   79MOL0     C10548   4.848  11.173   2.701 -0.5569 -0.0160  1.4663
   79MOL0     C10549   4.724  11.116   2.715  1.4765  0.2493  0.3761
   79MOL0     C10550   4.655  11.109   2.850  1.5562  0.2591 -0.3136
   79MOL0     C10551   4.705  10.990   2.931 -0.4864 -0.4678 -0.7144
   79MOL0     C10552   4.720  10.844   2.874 -1.0262 -0.6245  0.3577
   79MOL0     C10553   4.592  10.785   2.819  0.5455  1.5100 -0.3470
   79MOL0     O10554   4.600  10.644   2.764 -0.0829 -0.6956 -0.2340
   79MOL0     C10555   4.698  10.629   2.669 -0.2564 -0.1229  0.2858
   79MOL0     C10556   4.799  10.537   2.696 -0.0605  0.9432  0.2501
   79MOL0     C10557   4.901  10.502   2.593 -0.1623 -0.7652 -0.8592
   79MOL0     C10558   5.012  10.413   2.637 -0.5159 -0.5480 -0.7417
   79MOL0     C10559   4.899  10.567   2.474  0.5663 -0.1762 -0.3427
   79MOL0     C10560   4.998  10.539   2.369  0.4488  0.7339 -0.1860
   79MOL0     O10561   5.013  10.644   2.274  0.0099  1.1446  0.8227
   79MOL0     C10562   5.106  10.633   2.175 -0.8350 -0.0377  0.5136
   79MOL0     C10563   5.189  10.751   2.160 -0.3967  0.9786 -0.1277
   79MOL0     C10564   5.295  10.744   2.067 -0.1744  0.6647 -0.3482
   79MOL0     C10565   5.304  10.627   1.980 -0.8151  0.2394  0.7804
   79MOL0     O10566   5.412  10.624   1.896  0.2598 -0.0725 -0.0111
   79MOL0     C10567   5.539  10.647   1.960  0.5970 -0.1718  0.2360
   79MOL0     C10568   5.652  10.617   1.859 -0.4487 -0.0584  0.3334
   79MOL0     C10569   5.783  10.671   1.912  0.0961  0.3209  0.3956
   79MOL0     C10570   5.787  10.825   1.919 -0.7756 -0.3289 -0.0836
   79MOL0     C10571   5.937  10.876   1.949 -0.0194  0.0967  0.8525
   79MOL0     C10572   6.003  10.809   2.073 -0.3573 -0.2227  0.2570
   79MOL0     C10573   6.084  10.899   2.154 -0.0860 -0.2222 -0.2839
   79MOL0     C10574   6.168  10.825   2.257  0.0015 -0.2290  0.0721
   79MOL0    Cl10575   6.276  10.957   2.321  0.4808 -0.2194  0.0026
   79MOL0     C10576   5.206  10.524   1.987  0.0945  0.3885  0.1121
   79MOL0     C10577   5.115  10.528   2.086  0.5437  0.8286 -0.0513
   79MOL0     O10578   5.064  10.438   2.372 -0.0241  0.0800 -0.0514
   79MOL0     C10579   4.810  10.675   2.458  0.4436  0.7973 -0.4879
   79MOL0     C10580   4.707  10.704   2.547 -0.1328 -0.3023 -0.3281
   79MOL0     N10581   4.664  11.085   2.595 -0.0474  0.6081 -0.2739
   79MOL0     N10582   4.752  11.121   2.514 -0.9621  0.1751  0.7072
   79MOL0     C10583   5.275  10.457   3.135  0.0183 -0.3017 -0.2555
   79MOL0     C10584   5.312  10.390   3.250 -0.0636 -0.2602  0.5952
   79MOL0     C10585   5.455  10.159   3.596  0.5706  0.7885  0.6362
   79MOL0     C10586   5.569  10.092   3.592 -0.4265 -0.0119  0.0901
   79MOL0     C10587   5.603   9.992   3.685 -0.0102  0.3739  0.3170
   79MOL0     C10588   5.518   9.967   3.793  0.6537 -0.3066  0.9655
   79MOL0     O10589   5.540   9.862   3.883  0.0949 -0.5914  0.1564
   79MOL0     C10590   5.650   9.784   3.890 -1.4180 -0.4700 -0.4726
   79MOL0     C10591   5.647   9.699   4.018  0.3012 -0.5394  0.5756
   79MOL0     C10592   5.549   9.579   4.001 -0.9887 -0.2759  0.2293
   79MOL0     C10593   5.605   9.449   3.951  0.0881 -0.2702 -0.1469
   79MOL0     C10594   5.721   9.396   4.018 -0.3455 -1.1200 -0.0664
   79MOL0     C10595   5.813   9.341   4.079  0.4354 -0.8142  0.0652
   79MOL0     C10596   5.408  10.053   3.810 -0.2086 -0.1720  1.2484
   79MOL0     C10597   5.374  10.147   3.712  0.5904 -0.0513 -0.1801
   79MOL0     H10598   5.601  10.225   3.126 -0.9253 -2.1170  0.5977
   79MOL0     H10599   5.510  10.343   2.918  0.6693 -1.1484  0.1833
   79MOL0     H10600   5.116  10.579   2.937  0.5438 -1.3797 -2.0762
   79MOL0     H10601   5.250  10.678   3.009  2.3185 -0.4674  0.0363
   79MOL0     H10602   5.333  10.740   2.801  0.4706 -1.3495  1.2054
   79MOL0     H10603   5.201  10.662   2.711  1.0937 -0.4442 -0.7982
   79MOL0     H10604   5.040  10.846   2.777  1.2684  1.5719 -2.2709
   79MOL0     H10605   5.149  10.863   2.911 -0.5372 -2.0194 -1.0433
   79MOL0     H10606   5.137  11.051   2.739  0.4058  0.9540 -1.8270
   79MOL0     H10607   5.299  10.984   2.765  0.0118  0.6002  1.0288
   79MOL0     H10608   5.257  11.007   2.514  0.2943  0.0031  0.2184
   79MOL0     H10609   5.249  10.832   2.556 -0.7310 -0.9042 -1.9559
   79MOL0     H10610   5.074  10.839   2.431  3.7931 -0.2843  0.9557
   79MOL0     H10611   4.986  10.904   2.572 -0.6798 -3.5048  0.6009
   79MOL0     H10612   5.106  11.072   2.349 -1.5893  2.5624 -0.2915
   79MOL0     H10613   4.948  11.020   2.351  2.1183  2.6542 -2.7442
   79MOL0     H10614   4.973  11.239   2.416  0.0565  0.5411  1.0540
   79MOL0     H10615   5.074  11.206   2.563  0.4348 -2.7176 -0.6866
   79MOL0     H10616   4.922  11.186   2.780  0.8936 -1.3095  0.3697
   79MOL0     H10617   4.665  11.202   2.907 -1.6857  1.5882 -1.6730
   79MOL0     H10618   4.550  11.085   2.835  2.3886 -4.1044 -0.4526
   79MOL0     H10619   4.655  10.982   3.028  0.0739 -1.5859 -0.5063
   79MOL0     H10620   4.810  11.015   2.947 -0.3258 -0.8312 -1.1627
   79MOL0     H10621   4.783  10.782   2.938 -1.6586 -1.1852  0.4551
   79MOL0     H10622   4.780  10.836   2.783 -1.9835  1.7383 -0.5711
   79MOL0     H10623   4.548  10.839   2.735 -3.1684  0.0588  0.4711
   79MOL0     H10624   4.515  10.793   2.896  1.2259  1.8940  0.3115
   79MOL0     H10625   4.814  10.498   2.796 -0.8476  0.1429  0.0760
   79MOL0     H10626   5.103  10.466   2.609 -0.9969 -0.0774 -1.4363
   79MOL0     H10627   5.017  10.385   2.743 -1.7667  1.0836 -0.2077
   79MOL0     H10628   5.012  10.313   2.593  2.0582 -0.3887 -1.2491
   79MOL0     H10629   5.195  10.842   2.218  0.0621 -0.1238  1.6276
   79MOL0     H10630   5.362  10.829   2.054  1.6730 -1.1063 -3.8175
   79MOL0     H10631   5.547  10.743   2.013  1.9636  0.2597 -0.6797
   79MOL0     H10632   5.549  10.570   2.036 -1.7521 -0.2585  0.5356
   79MOL0     H10633   5.651  10.509   1.843 -4.1835 -0.3967  1.6720
   79MOL0     H10634   5.628  10.666   1.764  0.4554  1.4022  0.8252
   79MOL0     H10635   5.855  10.637   1.838 -4.7637 -1.3065 -4.1528
   79MOL0     H10636   5.791  10.639   2.017 -1.4177  2.5947  1.2913
   79MOL0     H10637   5.783  10.856   1.814  1.0964 -2.7975 -1.0017
   79MOL0     H10638   5.706  10.864   1.980  1.1911  5.3958 -0.5481
   79MOL0     H10639   5.924  10.978   1.985  1.1969 -1.0503  5.1968
   79MOL0     H10640   5.998  10.865   1.859 -1.1051 -2.5914  0.3330
   79MOL0     H10641   5.925  10.776   2.141 -0.1622  1.5911  1.4355
   79MOL0     H10642   6.065  10.721   2.052  1.7843  0.7369  2.1310
   79MOL0     H10643   6.011  10.961   2.206  1.9002  0.9982  1.1701
   79MOL0     H10644   6.148  10.963   2.092 -1.3061 -2.5261 -4.3237
   79MOL0     H10645   6.216  10.739   2.210 -1.8114 -0.5575 -1.3033
   79MOL0     H10646   6.111  10.789   2.344 -2.3994  0.6058 -1.0707
   79MOL0     H10647   5.201  10.429   1.933 -1.0536 -1.9817  4.0005
   79MOL0     H10648   5.045  10.446   2.097 -0.6788  1.8242 -0.1196
   79MOL0     H10649   4.821  10.737   2.369  1.3185  0.7304 -0.4388
   79MOL0     H10650   4.644  10.790   2.527  2.3060  1.3487 -1.3588
   79MOL0     H10651   5.187  10.519   3.140  0.3621  0.0968  1.2834
   79MOL0     H10652   5.239  10.405   3.329 -2.8943 -1.5283 -1.6226
   79MOL0     H10653   5.625  10.117   3.502 -3.2087  4.5467 -0.6998
   79MOL0     H10654   5.694   9.934   3.680  1.0555  1.7093  2.6765
   79MOL0     H10655   5.669   9.722   3.802  1.2486 -0.4012 -0.0149
   79MOL0     H10656   5.738   9.848   3.899  0.4135 -3.0853  1.9872
   79MOL0     H10657   5.601   9.764   4.093  1.4473  2.5952 -1.2539
   79MOL0     H10658   5.742   9.660   4.057 -1.0251 -2.5735  2.0377
   79MOL0     H10659   5.456   9.605   3.949 -1.6234 -0.3322  1.2942
   79MOL0     H10660   5.509   9.544   4.097  2.9294 -6.8336  0.0925
   79MOL0     H10661   5.638   9.477   3.850  3.3505 -1.8146  0.3408
   79MOL0     H10662   5.524   9.375   3.951  0.2925 -0.6205 -2.9192
   79MOL0     H10663   5.896   9.278   4.104  1.2057 -0.0781 -0.5797
   79MOL0     H10664   5.337  10.032   3.889  1.2719 -1.1864  2.3412
   79MOL0     H10665   5.282  10.204   3.720  0.6502 -0.1205  1.2354
   80MOL0     O10666   8.802   3.554   3.853  0.9776  1.2492 -0.4261
   80MOL0     C10667   8.723   3.645   3.820 -0.2765  1.0559 -0.2878
   80MOL0     O10668   8.637   3.707   3.898 -0.0903  1.0057 -0.0923
   80MOL0     C10669   8.594   3.686   4.024  0.5955 -0.4541 -0.6077
   80MOL0     C10670   8.496   3.769   4.072 -0.0445  0.3966 -0.5558
   80MOL0     C10671   8.446   3.755   4.202  0.4528 -0.5794 -0.2123
   80MOL0     C10672   8.489   3.654   4.292  0.0421  0.2373 -0.0759
   80MOL0     O10673   8.437   3.654   4.412  0.1390  0.2276 -0.5816
   80MOL0     C10674   8.452   3.545   4.509 -0.2029  0.9828 -0.3821
   80MOL0     C10675   8.360   3.567   4.630 -0.0939  0.2897 -0.3906
   80MOL0     C10676   8.383   3.682   4.719 -0.1600  0.3699 -0.0412
   80MOL0     C10677   8.273   3.696   4.834 -0.0495 -0.6203  0.4022
   80MOL0     C10678   8.311   3.821   4.925 -0.2998 -1.0216 -0.6611
   80MOL0     C10679   8.185   3.847   5.007  0.3516  0.8341 -0.7877
   80MOL0     C10680   8.176   3.992   5.066  0.0344  0.2162  0.4521
   80MOL0     C10681   8.308   4.047   5.118 -0.6235  1.0808  1.1072
   80MOL0     N10682   8.315   4.200   5.120  0.4890  0.8103 -0.0184
   80MOL0     C10683   8.231   4.281   5.185 -0.4118 -1.1960 -0.4639
   80MOL0     C10684   8.257   4.403   5.138 -0.9366  0.6800 -0.0089
   80MOL0     C10685   8.189   4.524   5.195 -0.8319  0.3920 -0.9553
   80MOL0     C10686   8.181   4.643   5.102  0.1051 -0.3563  0.0221
   80MOL0     C10687   8.298   4.742   5.123  0.7115 -0.7671 -0.4660
   80MOL0     C10688   8.324   4.832   5.008 -0.6072 -0.2157  0.1172
   80MOL0     O10689   8.365   4.764   4.889  0.1435 -0.7327  0.5092
   80MOL0     C10690   8.359   4.838   4.777  0.0384 -0.2157 -0.3917
   80MOL0     C10691   8.360   4.787   4.656 -0.5781  1.0214  1.3347
   80MOL0     C10692   8.347   4.859   4.534  0.0653  0.7622  0.0511
   80MOL0     C10693   8.331   4.787   4.396  0.5789  0.2947  0.3413
   80MOL0     C10694   8.336   4.998   4.544 -0.0641 -0.6405  0.6147
   80MOL0     C10695   8.329   5.093   4.427 -0.2515  0.2185 -0.2472
   80MOL0     O10696   8.283   5.224   4.449  0.1765  0.1731  0.2387
   80MOL0     C10697   8.258   5.303   4.344 -0.6791  0.1257  0.4840
   80MOL0     C10698   8.138   5.367   4.342  0.3363  0.1251  0.6719
   80MOL0     C10699   8.111   5.463   4.247  0.5978  0.0964 -0.4185
   80MOL0     C10700   8.211   5.518   4.166 -0.4337  0.2651 -0.4883
   80MOL0     O10701   8.184   5.598   4.064  0.3628 -0.4508 -0.6044
   80MOL0     C10702   8.088   5.704   4.096 -0.1343 -0.9041  0.3693
   80MOL0     C10703   7.945   5.709   4.037  0.3004 -0.6306 -0.0026
   80MOL0     C10704   7.932   5.664   3.901  0.1449  0.5811  0.6193
   80MOL0     C10705   8.041   5.701   3.791  0.0562 -0.8426 -1.1775
   80MOL0     C10706   8.014   5.631   3.654 -0.1235 -0.1274  0.1421
   80MOL0     C10707   7.874   5.679   3.596 -0.0760  1.3119  0.1669
   80MOL0     C10708   7.867   5.661   3.446  0.5151 -0.2025 -0.6775
   80MOL0     C10709   7.730   5.699   3.389 -0.7902  0.7276  0.2692
   80MOL0    Cl10710   7.614   5.588   3.430  0.3475 -0.3429  0.2773
   80MOL0     C10711   8.339   5.457   4.180 -0.1527  0.2522  0.3068
   80MOL0     C10712   8.362   5.352   4.270  0.3149  0.0182  0.0418
   80MOL0     O10713   8.377   5.054   4.323  0.4605  0.1033 -0.2074
   80MOL0     C10714   8.352   5.060   4.666 -0.0112  0.7157  0.3486
   80MOL0     C10715   8.370   4.979   4.782  0.2992 -0.3743  0.4867
   80MOL0     N10716   8.358   4.393   5.050  0.2393 -0.2877 -0.5256
   80MOL0     N10717   8.386   4.273   5.039  0.7281  0.6293  0.7672
   80MOL0     C10718   8.583   3.566   4.232 -1.2319  0.2018  0.4582
   80MOL0     C10719   8.635   3.579   4.101  0.5281 -0.5296  0.2334
   80MOL0     C10720   8.742   3.703   3.689 -0.5401 -0.7750  0.2460
   80MOL0     C10721   8.679   3.826   3.651  0.6214 -0.1134 -0.1945
   80MOL0     C10722   8.694   3.886   3.528 -0.0055  0.3469 -0.3995
   80MOL0     C10723   8.793   3.827   3.446 -0.3342  0.2110  0.4180
   80MOL0     O10724   8.833   3.875   3.329 -0.0589 -0.7395  0.1094
   80MOL0     C10725   8.758   3.959   3.242  0.4688 -0.2391 -0.1904
   80MOL0     C10726   8.856   4.011   3.130 -0.7008 -0.9278  0.0395
   80MOL0     C10727   8.779   4.092   3.025 -0.1063  0.1043  0.4729
   80MOL0     C10728   8.821   4.230   3.030 -0.1199 -0.3357  1.0390
   80MOL0     C10729   8.738   4.312   2.937  0.4106  1.0487 -0.1288
   80MOL0     C10730   8.665   4.351   2.845 -0.3887 -0.0041 -0.4307
   80MOL0     C10731   8.853   3.702   3.473  0.2476  0.7445  0.0302
   80MOL0     C10732   8.817   3.640   3.587 -0.5614  0.1716 -0.5348
   80MOL0     H10733   8.474   3.846   3.999  0.5666 -0.4836 -1.6992
   80MOL0     H10734   8.380   3.828   4.248  1.4445  2.9656 -3.8446
   80MOL0     H10735   8.404   3.453   4.474  0.2919  1.3807 -2.2603
   80MOL0     H10736   8.556   3.532   4.539 -0.2099  1.1522 -0.2814
   80MOL0     H10737   8.254   3.556   4.607  0.0955  0.4039 -1.3841
   80MOL0     H10738   8.393   3.482   4.689 -0.6197 -0.4820 -1.1815
   80MOL0     H10739   8.476   3.677   4.776 -0.6095  1.0506  0.7775
   80MOL0     H10740   8.382   3.781   4.672  1.3718 -0.1425 -1.2218
   80MOL0     H10741   8.181   3.693   4.776 -0.5450  0.4277  1.1174
   80MOL0     H10742   8.278   3.609   4.900 -0.5243 -0.4385  0.6816
   80MOL0     H10743   8.394   3.793   4.991 -0.6198 -1.5360 -0.4690
   80MOL0     H10744   8.334   3.901   4.854 -2.5667 -0.3286 -0.6980
   80MOL0     H10745   8.100   3.839   4.939  0.1230  1.5305 -0.5938
   80MOL0     H10746   8.171   3.771   5.084 -3.0475  3.4658  1.4775
   80MOL0     H10747   8.143   4.053   4.982 -0.7415  0.8012  1.1614
   80MOL0     H10748   8.102   4.006   5.146  1.2526 -3.1423  2.3960
   80MOL0     H10749   8.397   4.015   5.063 -0.1792  0.2084  2.2724
   80MOL0     H10750   8.322   4.002   5.217  0.9124 -4.2197 -1.1425
   80MOL0     H10751   8.163   4.244   5.261  2.6695 -1.5779  2.3441
   80MOL0     H10752   8.086   4.491   5.207 -0.7249 -0.3375 -1.9254
   80MOL0     H10753   8.235   4.543   5.293 -2.4258 -0.7249  0.0486
   80MOL0     H10754   8.081   4.686   5.108  1.5229  3.7654 -2.1398
   80MOL0     H10755   8.186   4.608   4.999  0.7563  2.4594 -0.9966
   80MOL0     H10756   8.391   4.688   5.139  0.6098 -0.7426  0.2271
   80MOL0     H10757   8.274   4.794   5.216 -1.7738 -1.2273 -0.7872
   80MOL0     H10758   8.399   4.906   5.041 -0.8992 -0.4357  1.3211
   80MOL0     H10759   8.231   4.885   4.987 -0.7727 -1.1586 -1.6590
   80MOL0     H10760   8.345   4.679   4.650 -0.8379  1.0986  0.1492
   80MOL0     H10761   8.298   4.684   4.413 -3.7797  2.0001  4.7047
   80MOL0     H10762   8.250   4.817   4.329  0.4286  1.5156  1.0499
   80MOL0     H10763   8.430   4.785   4.349 -0.4195 -1.4651 -1.8954
   80MOL0     H10764   8.063   5.340   4.416 -0.5687 -1.2757 -0.6737
   80MOL0     H10765   8.011   5.505   4.239  0.4035 -0.6729 -2.7839
   80MOL0     H10766   8.086   5.710   4.205 -0.6481 -3.3483  0.5615
   80MOL0     H10767   8.128   5.801   4.064 -2.3217 -0.2165 -0.4626
   80MOL0     H10768   7.876   5.655   4.103 -0.0609 -0.5027 -0.2749
   80MOL0     H10769   7.905   5.811   4.033 -0.6790 -1.0490 -1.3970
   80MOL0     H10770   7.837   5.706   3.864  0.4155 -0.6220 -1.6016
   80MOL0     H10771   7.923   5.555   3.900 -2.3871  0.6667  2.6945
   80MOL0     H10772   8.047   5.810   3.785 -0.0085 -0.7222  0.3993
   80MOL0     H10773   8.137   5.665   3.829  1.0683  3.6162  1.3292
   80MOL0     H10774   8.021   5.523   3.666 -0.5204 -0.0464  1.2192
   80MOL0     H10775   8.095   5.654   3.585 -0.1431  1.9283  0.7320
   80MOL0     H10776   7.790   5.625   3.642  0.7451 -0.3609 -0.2003
   80MOL0     H10777   7.869   5.787   3.612  1.1260  1.7013 -1.7650
   80MOL0     H10778   7.885   5.556   3.418 -1.3260  0.1840 -3.9321
   80MOL0     H10779   7.949   5.717   3.402  1.6673 -1.5124 -0.2636
   80MOL0     H10780   7.737   5.714   3.281 -0.2990  0.6402  0.2877
   80MOL0     H10781   7.702   5.798   3.426 -1.6446 -0.7423  3.9538
   80MOL0     H10782   8.413   5.480   4.104 -3.1732  1.9534 -2.3763
   80MOL0     H10783   8.461   5.307   4.261  0.1168 -0.4928  0.3917
   80MOL0     H10784   8.351   5.168   4.675  0.4893  0.9580 -1.8638
   80MOL0     H10785   8.371   5.041   4.871 -0.3512  1.1506 -0.5113
   80MOL0     H10786   8.617   3.480   4.289  0.0867 -0.2385 -0.9328
   80MOL0     H10787   8.699   3.506   4.053  0.7925 -3.3904  4.4486
   80MOL0     H10788   8.613   3.876   3.720  2.7515  1.4638  0.8200
   80MOL0     H10789   8.640   3.977   3.505  1.2683  0.8455 -1.5320
   80MOL0     H10790   8.687   3.894   3.190 -0.0953  0.1698  0.0558
   80MOL0     H10791   8.685   4.019   3.297  1.2184  0.2500  0.2892
   80MOL0     H10792   8.898   3.921   3.084  0.4791  0.8613 -2.6747
   80MOL0     H10793   8.934   4.070   3.179 -3.1295  0.2229  2.7909
   80MOL0     H10794   8.675   4.077   3.058 -0.2281  0.5159  0.2740
   80MOL0     H10795   8.792   4.042   2.929 -3.0794  1.1936 -0.6094
   80MOL0     H10796   8.921   4.229   2.987 -0.7674 -2.7288 -0.6461
   80MOL0     H10797   8.825   4.259   3.135  1.5225 -0.5390  1.0519
   80MOL0     H10798   8.617   4.406   2.768  0.6749  1.1194 -0.3122
   80MOL0     H10799   8.928   3.656   3.409  0.5848  1.9136 -0.4439
   80MOL0     H10800   8.849   3.541   3.619 -2.0776  0.0144  0.6139
   81MOL0     O10801   6.822   5.634   6.686 -0.6718  0.1356  0.1491
   81MOL0     C10802   6.858   5.750   6.705 -0.6281  0.9201  1.5081
   81MOL0     O10803   6.985   5.795   6.719  0.6520 -0.6156  0.2728
   81MOL0     C10804   7.084   5.707   6.710  0.4178  0.0906 -0.8286
   81MOL0     C10805   7.106   5.600   6.798  0.4407 -0.2353  0.5776
   81MOL0     C10806   7.202   5.507   6.765  0.6720 -0.1856 -0.0765
   81MOL0     C10807   7.285   5.516   6.651  1.5890  0.4689 -1.2207
   81MOL0     O10808   7.378   5.419   6.628 -0.7955 -0.8522 -0.6562
   81MOL0     C10809   7.402   5.376   6.496 -0.5512 -0.8001  0.1746
   81MOL0     C10810   7.437   5.230   6.471 -0.0764  0.1018  0.2935
   81MOL0     C10811   7.446   5.187   6.321  0.6720 -0.2424  0.9082
   81MOL0     C10812   7.526   5.285   6.232  0.9596 -0.3410 -0.4475
   81MOL0     C10813   7.559   5.235   6.102 -1.1408  0.4566 -0.2711
   81MOL0     C10814   7.426   5.238   6.024  0.2869 -1.0597 -0.5535
   81MOL0     C10815   7.454   5.233   5.866 -0.0601  1.0670 -0.0786
   81MOL0     C10816   7.325   5.178   5.805  0.0648  0.0298  0.1941
   81MOL0     N10817   7.323   5.174   5.661  0.4650  0.0764  0.0422
   81MOL0     C10818   7.409   5.118   5.577  0.1068  0.4802  0.1365
   81MOL0     C10819   7.366   5.166   5.454  0.2231  0.1740  0.2541
   81MOL0     C10820   7.423   5.129   5.320  0.2927  0.5449 -0.0925
   81MOL0     C10821   7.458   5.256   5.245 -0.0226 -0.5990  0.0988
   81MOL0     C10822   7.502   5.232   5.098  0.7048  0.6767 -0.1415
   81MOL0     C10823   7.539   5.363   5.018 -0.1851 -0.2371  0.8040
   81MOL0     O10824   7.452   5.477   5.063  0.5826  0.8572  0.3533
   81MOL0     C10825   7.313   5.473   5.067  0.1116  0.2933  0.0489
   81MOL0     C10826   7.238   5.397   4.981  0.2917 -0.2513  0.2590
   81MOL0     C10827   7.097   5.399   4.979 -0.7234 -0.8872 -0.2333
   81MOL0     C10828   7.023   5.335   4.860 -1.0780  0.8280 -0.7579
   81MOL0     C10829   7.023   5.467   5.086  0.1453  0.4968 -0.0600
   81MOL0     C10830   6.871   5.488   5.089  0.3091  0.2057 -0.5185
   81MOL0     O10831   6.793   5.423   5.000  0.7006  0.0837 -0.1468
   81MOL0     C10832   6.658   5.429   5.022 -0.0490 -0.0675 -1.1844
   81MOL0     C10833   6.585   5.347   5.116 -0.7445 -0.3817  0.1936
   81MOL0     C10834   6.450   5.355   5.123  0.0730  0.2955  0.2159
   81MOL0     C10835   6.373   5.441   5.036  0.7664 -0.0094 -0.3258
   81MOL0     O10836   6.231   5.448   5.034 -0.5615  0.6140  0.5334
   81MOL0     C10837   6.181   5.579   5.053 -0.4265 -0.2212  0.5484
   81MOL0     C10838   6.192   5.636   5.193 -0.4606  0.8416 -0.4403
   81MOL0     C10839   6.171   5.790   5.211  0.6096 -0.3224  0.0118
   81MOL0     C10840   6.208   5.873   5.082  1.2268  0.3220 -0.5119
   81MOL0     C10841   6.219   6.017   5.108 -0.0644 -1.1464 -0.4329
   81MOL0     C10842   6.213   6.094   4.980 -0.9136 -0.6029  0.3383
   81MOL0     C10843   6.164   6.243   4.981 -0.6953 -0.1710 -0.6889
   81MOL0     C10844   6.019   6.239   5.038 -0.1444 -0.4099 -0.4823
   81MOL0    Cl10845   5.949   6.382   4.955 -0.1378 -0.2111  0.5016
   81MOL0     C10846   6.440   5.513   4.937  0.7533  1.8928 -0.2675
   81MOL0     C10847   6.577   5.503   4.940 -0.1660 -0.0248 -0.6602
   81MOL0     O10848   6.827   5.555   5.191 -0.0373  0.1401  0.4924
   81MOL0     C10849   7.104   5.530   5.179  0.4754  0.2129 -0.7641
   81MOL0     C10850   7.244   5.541   5.164 -0.7140  0.3426 -0.2256
   81MOL0     N10851   7.250   5.243   5.473 -0.7074 -1.3325  0.3424
   81MOL0     N10852   7.235   5.249   5.593  0.6828  0.0814 -0.3200
   81MOL0     C10853   7.261   5.622   6.561  0.5565 -0.4789 -0.1688
   81MOL0     C10854   7.168   5.721   6.593  0.2784  0.1504 -0.2495
   81MOL0     C10855   6.759   5.857   6.723  0.2467  0.7678  0.1677
   81MOL0     C10856   6.801   5.987   6.704 -0.3300 -0.4279  1.2111
   81MOL0     C10857   6.708   6.094   6.696  0.2980 -0.4479  0.6870
   81MOL0     C10858   6.577   6.072   6.717  0.3448  0.5714  0.7114
   81MOL0     O10859   6.475   6.168   6.727  0.4896  0.6819 -0.4206
   81MOL0     C10860   6.507   6.297   6.694  0.0370 -1.2600  0.0013
   81MOL0     C10861   6.392   6.384   6.727  0.1290 -0.8548 -0.0571
   81MOL0     C10862   6.426   6.532   6.749  0.0315  0.7756 -0.1079
   81MOL0     C10863   6.293   6.607   6.782  0.0725  0.0412 -0.1511
   81MOL0     C10864   6.223   6.678   6.673  1.1581  1.1624  0.1461
   81MOL0     C10865   6.165   6.735   6.594  1.5195 -0.2854 -0.2140
   81MOL0     C10866   6.529   5.939   6.732  0.0550  1.2846 -0.3709
   81MOL0     C10867   6.619   5.834   6.732 -0.4853  0.3955 -2.2522
   81MOL0     H10868   7.042   5.579   6.883 -0.1768 -0.0494  0.1600
   81MOL0     H10869   7.207   5.431   6.843 -2.9665  0.6339  1.1841
   81MOL0     H10870   7.317   5.396   6.430  2.2960  2.2490 -2.9795
   81MOL0     H10871   7.484   5.440   6.461 -0.8568 -0.5419 -0.0765
   81MOL0     H10872   7.534   5.200   6.511  1.5990  1.4267 -2.4333
   81MOL0     H10873   7.364   5.170   6.525  0.3906  1.2084  2.2293
   81MOL0     H10874   7.492   5.088   6.317 -2.4083 -1.7693 -2.4354
   81MOL0     H10875   7.340   5.187   6.295  0.4416  0.7640  1.7679
   81MOL0     H10876   7.482   5.385   6.228  3.6681  0.9681 -0.3469
   81MOL0     H10877   7.617   5.307   6.290  0.1329  1.9767  0.0867
   81MOL0     H10878   7.637   5.297   6.058 -1.1127  1.4770  1.1430
   81MOL0     H10879   7.603   5.135   6.095  1.8326  1.6476 -0.3912
   81MOL0     H10880   7.376   5.147   6.060 -0.1405 -0.0504  1.5690
   81MOL0     H10881   7.371   5.332   6.033  0.2668 -1.0936 -0.3051
   81MOL0     H10882   7.482   5.330   5.825 -0.5181  1.3021  0.1634
   81MOL0     H10883   7.538   5.163   5.865 -0.5342  0.3125  2.9446
   81MOL0     H10884   7.241   5.243   5.832 -1.5249 -1.4785 -0.8624
   81MOL0     H10885   7.300   5.080   5.847 -1.7897  0.7025  0.7601
   81MOL0     H10886   7.495   5.055   5.597 -1.1949 -1.8161 -1.1475
   81MOL0     H10887   7.507   5.061   5.335 -1.1081 -0.6945  2.8146
   81MOL0     H10888   7.340   5.079   5.268  0.5662  0.8705 -0.8617
   81MOL0     H10889   7.532   5.311   5.303  0.9610 -0.9488 -0.7838
   81MOL0     H10890   7.365   5.313   5.245  1.2290  1.5771  1.6667
   81MOL0     H10891   7.417   5.190   5.043  0.1135  3.1516 -1.2719
   81MOL0     H10892   7.590   5.168   5.099 -0.3965 -0.9196 -0.0686
   81MOL0     H10893   7.534   5.338   4.912 -1.2559  1.1126  0.4946
   81MOL0     H10894   7.643   5.375   5.049 -0.2232  1.2490  0.4573
   81MOL0     H10895   7.283   5.326   4.912  2.2527 -2.0080  3.1422
   81MOL0     H10896   6.961   5.259   4.909  1.9854 -0.4827  1.3948
   81MOL0     H10897   6.952   5.401   4.809 -0.9047  2.1404  0.6411
   81MOL0     H10898   7.084   5.309   4.773 -0.2536  2.9779 -0.8926
   81MOL0     H10899   6.635   5.284   5.190 -2.0422  2.1073  3.4739
   81MOL0     H10900   6.398   5.288   5.192  0.2229 -0.1236 -0.0758
   81MOL0     H10901   6.220   5.649   4.978 -0.5484 -1.6249 -0.8726
   81MOL0     H10902   6.076   5.579   5.023 -0.2231 -0.7875 -0.1817
   81MOL0     H10903   6.123   5.580   5.257  3.2139 -2.8932  0.6491
   81MOL0     H10904   6.290   5.618   5.239 -1.5275  0.7549  1.9489
   81MOL0     H10905   6.234   5.815   5.296  2.3857 -3.8085 -0.0593
   81MOL0     H10906   6.066   5.808   5.237  0.1493 -0.6080 -1.5401
   81MOL0     H10907   6.303   5.836   5.041  1.1646 -2.6905  1.7416
   81MOL0     H10908   6.137   5.849   5.002  0.5535  1.1313 -0.1721
   81MOL0     H10909   6.304   6.044   5.171  0.5256 -1.8641 -0.9048
   81MOL0     H10910   6.128   6.041   5.163 -0.6337 -1.5050 -1.2138
   81MOL0     H10911   6.316   6.100   4.944 -0.8138 -0.3243  0.6697
   81MOL0     H10912   6.160   6.037   4.903  1.4362 -1.9302 -0.3963
   81MOL0     H10913   6.162   6.280   4.878 -0.3095  0.3509 -0.5122
   81MOL0     H10914   6.227   6.317   5.032  1.0938 -2.2628  0.3081
   81MOL0     H10915   6.019   6.266   5.144 -0.3360  0.2225 -0.6346
   81MOL0     H10916   5.966   6.147   5.015 -0.7058  0.1582 -1.5248
   81MOL0     H10917   6.390   5.575   4.863 -0.5722 -0.8832 -1.8663
   81MOL0     H10918   6.624   5.575   4.874  1.3410  1.2214  1.6382
   81MOL0     H10919   7.061   5.576   5.268 -2.1885  0.9797 -2.3326
   81MOL0     H10920   7.306   5.590   5.238  0.5486 -2.1465  0.4758
   81MOL0     H10921   7.324   5.623   6.473 -2.1276  2.3067 -2.2521
   81MOL0     H10922   7.162   5.797   6.516 -0.6866 -2.0780 -2.5025
   81MOL0     H10923   6.908   6.009   6.703 -0.4697  0.4389 -0.8419
   81MOL0     H10924   6.760   6.186   6.672 -0.5577  0.1111  0.9230
   81MOL0     H10925   6.584   6.334   6.762 -0.2255 -0.2301 -0.2473
   81MOL0     H10926   6.539   6.303   6.589 -2.4256  0.7200 -0.7419
   81MOL0     H10927   6.345   6.357   6.822 -2.7316  0.2779 -1.0275
   81MOL0     H10928   6.313   6.371   6.652  0.5072 -3.3730 -0.0991
   81MOL0     H10929   6.473   6.576   6.660 -0.7627  4.2975  1.0332
   81MOL0     H10930   6.497   6.541   6.832  2.0187  1.1850 -1.7755
   81MOL0     H10931   6.319   6.688   6.851 -1.1817  0.1462  0.2151
   81MOL0     H10932   6.220   6.542   6.830 -0.4387 -0.8954 -2.0741
   81MOL0     H10933   6.111   6.796   6.525 -0.8354  0.1232  1.8398
   81MOL0     H10934   6.427   5.910   6.753  0.7793 -1.5785 -0.3801
   81MOL0     H10935   6.596   5.731   6.758 -2.2592  1.5956  1.7281
   82MOL0     O10936  10.792   4.183   6.971 -0.4770  0.4173  0.4459
   82MOL0     C10937  10.675   4.157   7.005 -0.4506  0.2361  0.2612
   82MOL0     O10938  10.584   4.097   6.931  0.2824  0.5933  0.0616
   82MOL0     C10939  10.628   4.041   6.815  0.9231 -0.1624  0.4031
   82MOL0     C10940  10.610   4.101   6.689 -0.2241  1.0516 -0.5814
   82MOL0     C10941  10.648   4.027   6.579 -0.9341 -0.2545  0.5106
   82MOL0     C10942  10.697   3.893   6.583  0.3874 -0.4418 -0.4648
   82MOL0     O10943  10.752   3.820   6.491 -0.3250 -0.0503  0.4673
   82MOL0     C10944  10.753   3.860   6.343  0.4072  0.2790  1.0588
   82MOL0     C10945  10.616   3.823   6.285  0.0881 -0.4654 -0.3362
   82MOL0     C10946  10.604   3.668   6.247 -0.3174  0.0492  0.6168
   82MOL0     C10947  10.605   3.577   6.369  0.3922  0.2316  0.3673
   82MOL0     C10948  10.552   3.441   6.326 -0.4234 -0.0032 -0.2904
   82MOL0     C10949  10.544   3.329   6.432  0.7755  0.0293  0.2447
   82MOL0     C10950  10.494   3.376   6.568 -0.4952  0.1728  0.0669
   82MOL0     C10951  10.503   3.248   6.669  0.4564 -0.5559  0.5339
   82MOL0     N10952  10.404   3.242   6.777  0.5665 -0.3765  0.4764
   82MOL0     C10953  10.413   3.161   6.887 -0.6334  0.3465 -0.5250
   82MOL0     C10954  10.316   3.204   6.977  0.1069  0.5224 -0.3844
   82MOL0     C10955  10.250   3.145   7.101 -0.2605  0.2428 -0.5743
   82MOL0     C10956  10.326   3.206   7.225 -0.7830  0.4590  0.5613
   82MOL0     C10957  10.300   3.114   7.348 -0.2255 -0.1499 -0.3105
   82MOL0     C10958  10.265   3.176   7.477  0.2168  0.1564  0.2454
   82MOL0     O10959  10.257   3.080   7.577  0.1259  0.1155  0.1980
   82MOL0     C10960  10.365   3.073   7.665  0.6204  0.0249 -0.3615
   82MOL0     C10961  10.352   2.986   7.770 -0.1242  0.8830 -0.0425
   82MOL0     C10962  10.461   2.960   7.859  0.0148 -0.0201 -0.0310
   82MOL0     C10963  10.445   2.874   7.977  0.0838  0.5473  0.3182
   82MOL0     C10964  10.588   3.025   7.828 -0.7642  0.5488 -0.0054
   82MOL0     C10965  10.710   3.002   7.915  0.8001 -0.4804  0.1788
   82MOL0     O10966  10.803   3.104   7.931  0.0214  0.5305  0.4431
   82MOL0     C10967  10.905   3.107   8.028 -0.8518 -0.8209  1.2431
   82MOL0     C10968  11.014   3.189   8.000  1.1858 -0.2017 -0.1200
   82MOL0     C10969  11.108   3.211   8.101 -0.4355 -0.3543 -0.1189
   82MOL0     C10970  11.114   3.124   8.210  0.1565 -0.0889 -0.2222
   82MOL0     O10971  11.209   3.129   8.312 -0.1991  0.3529 -0.2243
   82MOL0     C10972  11.342   3.160   8.284 -0.8220 -0.5412 -0.4956
   82MOL0     C10973  11.431   3.159   8.412  0.0527  0.4943  1.3493
   82MOL0     C10974  11.379   3.249   8.527  0.6016  0.7274  0.5194
   82MOL0     C10975  11.457   3.229   8.658  0.3198 -0.4814 -0.1700
   82MOL0     C10976  11.400   3.308   8.770  0.6931  0.4759  0.2278
   82MOL0     C10977  11.477   3.306   8.898 -0.4964 -0.2474  0.0425
   82MOL0     C10978  11.572   3.430   8.919 -0.4822 -0.3985 -0.4127
   82MOL0     C10979  11.664   3.470   8.806 -0.0894  0.0909  0.3272
   82MOL0    Cl10980  11.584   3.581   8.687 -0.2630  0.1611  0.7549
   82MOL0     C10981  11.010   3.034   8.239 -0.2879 -1.1282 -1.2775
   82MOL0     C10982  10.905   3.036   8.146  0.5580 -0.6053  0.3612
   82MOL0     O10983  10.720   2.892   7.962  0.3961  0.5632  0.0070
   82MOL0     C10984  10.596   3.120   7.732 -0.9769 -0.1481 -0.9323
   82MOL0     C10985  10.491   3.139   7.656 -0.2164 -0.6698 -0.6626
   82MOL0     N10986  10.253   3.306   6.912  0.1057  0.1385  0.6391
   82MOL0     N10987  10.296   3.320   6.786 -0.1017 -0.0714  0.3253
   82MOL0     C10988  10.722   3.842   6.711  0.9939  0.5559  0.0571
   82MOL0     C10989  10.680   3.912   6.825  0.9117 -0.9867 -0.0616
   82MOL0     C10990  10.637   4.177   7.141  0.0468 -0.0138 -0.5843
   82MOL0     C10991  10.527   4.097   7.196  0.0117  0.4790 -1.0240
   82MOL0     C10992  10.469   4.122   7.317 -0.3540  0.4912  0.0002
   82MOL0     C10993  10.521   4.214   7.399  0.0516 -0.4806  0.0808
   82MOL0     O10994  10.467   4.214   7.522 -0.5017 -0.8027 -0.2480
   82MOL0     C10995  10.495   4.328   7.604 -0.3350 -0.7303 -0.5977
   82MOL0     C10996  10.425   4.327   7.735 -0.9728 -0.8498 -0.2213
   82MOL0     C10997  10.271   4.347   7.719 -0.3169  1.2540  0.7693
   82MOL0     C10998  10.188   4.321   7.847 -0.5150 -0.3200  0.3596
   82MOL0     C10999  10.047   4.354   7.825 -0.1525 -1.1319 -0.0675
   82MOL0     C11000   9.932   4.378   7.799 -0.5652  0.5279  0.1805
   82MOL0     C11001  10.630   4.289   7.355  0.4688 -0.3390 -0.2445
   82MOL0     C11002  10.686   4.271   7.233 -0.0720  0.3408 -0.0138
   82MOL0     H11003  10.575   4.204   6.683  3.7537  2.5298 -1.2626
   82MOL0     H11004  10.665   4.075   6.483  1.4959 -0.4092  0.8161
   82MOL0     H11005  10.783   3.964   6.331 -1.6883  0.8272  0.1536
   82MOL0     H11006  10.829   3.812   6.282  1.9229 -0.0107  3.0519
   82MOL0     H11007  10.533   3.859   6.347  0.6651  2.4311 -1.1142
   82MOL0     H11008  10.599   3.867   6.186 -0.0232 -1.9728 -1.0107
   82MOL0     H11009  10.518   3.650   6.182  0.0982  0.6104 -0.1082
   82MOL0     H11010  10.680   3.635   6.175 -0.1335  0.9815  0.3755
   82MOL0     H11011  10.711   3.576   6.395  0.7341  1.7652 -0.7788
   82MOL0     H11012  10.545   3.625   6.446 -1.3563 -0.9782 -0.1804
   82MOL0     H11013  10.451   3.461   6.290 -0.6990  0.8400  0.9198
   82MOL0     H11014  10.609   3.411   6.237  1.5309 -2.8887  1.7149
   82MOL0     H11015  10.467   3.256   6.409  0.9645 -0.1100  0.0442
   82MOL0     H11016  10.639   3.274   6.439 -0.2681 -1.6309  3.3460
   82MOL0     H11017  10.554   3.460   6.605  2.6223 -0.3309 -3.2908
   82MOL0     H11018  10.387   3.397   6.561 -0.7775 -1.6837 -2.8915
   82MOL0     H11019  10.606   3.229   6.701 -0.2489 -2.6106  1.7963
   82MOL0     H11020  10.496   3.152   6.616  4.4597 -0.1955 -0.9787
   82MOL0     H11021  10.478   3.075   6.889  1.5490  1.7975 -3.1813
   82MOL0     H11022  10.141   3.158   7.102 -0.6120 -1.8425  2.0959
   82MOL0     H11023  10.247   3.035   7.108  0.1143  0.2538 -0.1712
   82MOL0     H11024  10.283   3.305   7.243  2.7459  2.6818 -2.0105
   82MOL0     H11025  10.430   3.199   7.195 -1.1805  0.1269 -0.7855
   82MOL0     H11026  10.392   3.061   7.375 -0.0254  1.4295  2.4309
   82MOL0     H11027  10.220   3.046   7.318  1.3724 -2.3730  0.1628
   82MOL0     H11028  10.166   3.222   7.477  1.6476  3.6037  1.8806
   82MOL0     H11029  10.332   3.260   7.497  3.4274 -1.6383 -1.8945
   82MOL0     H11030  10.261   2.929   7.767 -0.4111  1.3403 -2.8992
   82MOL0     H11031  10.484   2.778   7.942 -3.4370 -0.2122 -2.0774
   82MOL0     H11032  10.498   2.905   8.067 -0.5919 -2.2479  1.8056
   82MOL0     H11033  10.340   2.854   7.998  0.3683 -2.8028 -0.8585
   82MOL0     H11034  11.027   3.250   7.911 -1.6325 -3.2593 -2.8956
   82MOL0     H11035  11.192   3.278   8.081 -0.3507 -0.0340  1.1898
   82MOL0     H11036  11.377   3.097   8.201 -0.6207 -0.0304 -0.8035
   82MOL0     H11037  11.339   3.260   8.239  0.1821 -0.3731 -0.2130
   82MOL0     H11038  11.442   3.056   8.446  1.0050  1.0503  2.8083
   82MOL0     H11039  11.530   3.197   8.383 -0.4115  0.1394 -0.9076
   82MOL0     H11040  11.278   3.229   8.563  0.5541  0.9065  0.4880
   82MOL0     H11041  11.371   3.356   8.504  0.0133 -0.1258 -4.3175
   82MOL0     H11042  11.461   3.123   8.685 -1.3021 -0.5729 -0.2299
   82MOL0     H11043  11.563   3.251   8.642  0.5322  1.3937  2.9855
   82MOL0     H11044  11.300   3.264   8.778 -0.2047  1.9351 -2.1890
   82MOL0     H11045  11.381   3.414   8.753  0.3080  0.3747  0.0021
   82MOL0     H11046  11.403   3.306   8.979 -1.3972  2.4833 -0.6619
   82MOL0     H11047  11.529   3.211   8.910 -1.7616 -0.7433  2.4144
   82MOL0     H11048  11.651   3.401   8.988  1.2644 -1.0189 -2.5686
   82MOL0     H11049  11.508   3.509   8.959  2.7216  1.4287  1.4775
   82MOL0     H11050  11.704   3.387   8.747 -2.5332  0.7296 -2.4579
   82MOL0     H11051  11.753   3.524   8.840  1.4492  0.7549 -4.1794
   82MOL0     H11052  11.010   2.970   8.326 -2.5960 -1.6226 -1.5739
   82MOL0     H11053  10.817   2.980   8.177  0.0228 -0.7236 -1.2838
   82MOL0     H11054  10.684   3.184   7.736 -1.5465  0.5950  0.5391
   82MOL0     H11055  10.517   3.209   7.578 -0.1748 -0.3133 -0.3319
   82MOL0     H11056  10.763   3.742   6.723 -1.1698 -0.2426  1.2544
   82MOL0     H11057  10.681   3.875   6.927  0.4874  0.7508  0.6003
   82MOL0     H11058  10.495   4.008   7.142 -2.3964 -1.2577  2.8301
   82MOL0     H11059  10.403   4.053   7.369  0.2777  1.7331  2.6523
   82MOL0     H11060  10.601   4.330   7.631 -0.5023  1.4563  0.1584
   82MOL0     H11061  10.466   4.420   7.552 -1.5780  0.6882  2.3396
   82MOL0     H11062  10.462   4.415   7.788  0.4268 -0.7320 -1.3218
   82MOL0     H11063  10.460   4.244   7.798  1.1236  3.9498  5.9249
   82MOL0     H11064  10.249   4.300   7.623 -0.6797  3.7305 -0.4433
   82MOL0     H11065  10.249   4.454   7.708  0.7035  1.3101 -1.0767
   82MOL0     H11066  10.224   4.386   7.927 -1.9653 -0.7028  1.3708
   82MOL0     H11067  10.193   4.221   7.892  1.5338  0.7203  2.6670
   82MOL0     H11068   9.834   4.415   7.777  1.5143  5.0582 -2.7756
   82MOL0     H11069  10.676   4.368   7.414  1.0657  1.2811 -2.7242
   82MOL0     H11070  10.763   4.341   7.201  0.0770  0.5664  0.8059
   83MOL0     O11071   2.775   2.243   8.935 -0.3560 -0.4828  0.0865
   83MOL0     C11072   2.878   2.281   9.001  0.1929 -0.8091  0.9972
   83MOL0     O11073   3.006   2.297   8.949 -0.7899  0.5391 -0.4175
   83MOL0     C11074   3.042   2.239   8.827  0.3907  0.1605 -0.0820
   83MOL0     C11075   3.057   2.102   8.805  0.7654  0.2090 -0.0662
   83MOL0     C11076   3.083   2.048   8.683  0.9118  0.9798  0.3049
   83MOL0     C11077   3.127   2.121   8.581  0.0681 -0.3330  0.4008
   83MOL0     O11078   3.166   2.041   8.467  0.0813 -0.1858 -0.0221
   83MOL0     C11079   3.204   2.097   8.342  0.2676 -0.5633  0.6271
   83MOL0     C11080   3.281   1.992   8.265 -0.9713 -0.0787  0.7043
   83MOL0     C11081   3.433   1.986   8.305  0.4497  0.3839  0.0100
   83MOL0     C11082   3.498   2.123   8.285  0.0118  0.9618 -0.0626
   83MOL0     C11083   3.644   2.136   8.249  0.1808  0.6512 -0.1186
   83MOL0     C11084   3.754   2.036   8.315  0.4701 -0.5089  1.2969
   83MOL0     C11085   3.753   2.058   8.469  0.9555  0.2293  0.7515
   83MOL0     C11086   3.838   1.954   8.540 -0.8111 -0.6051  1.2040
   83MOL0     N11087   3.783   1.820   8.546 -1.1750  0.3459  0.3457
   83MOL0     C11088   3.661   1.785   8.594 -1.3705 -0.5152 -0.8811
   83MOL0     C11089   3.657   1.650   8.591  0.2852  0.7687  0.5368
   83MOL0     C11090   3.536   1.562   8.642  0.4008 -0.6608  0.1578
   83MOL0     C11091   3.397   1.632   8.605  0.8122 -0.0044  0.4077
   83MOL0     C11092   3.274   1.568   8.675  0.4911 -0.2801  0.3347
   83MOL0     C11093   3.149   1.644   8.626 -0.3696  0.1933  0.9409
   83MOL0     O11094   3.085   1.565   8.525 -0.3751  1.0601 -0.6663
   83MOL0     C11095   2.945   1.566   8.514 -0.1214 -0.1249 -0.4527
   83MOL0     C11096   2.881   1.463   8.434 -1.2159 -0.1558 -0.4326
   83MOL0     C11097   2.753   1.480   8.400  0.4531 -0.0513  1.2337
   83MOL0     C11098   2.689   1.386   8.309 -0.2357  0.5670 -0.9704
   83MOL0     C11099   2.670   1.583   8.449  0.3182  0.7314  0.4323
   83MOL0     C11100   2.516   1.580   8.448 -0.8893 -0.1682  0.2059
   83MOL0     O11101   2.452   1.693   8.471 -0.4921  0.4903  0.1123
   83MOL0     C11102   2.312   1.695   8.440 -0.2530 -0.8719  0.3080
   83MOL0     C11103   2.215   1.620   8.518 -0.9884 -0.5878  1.2120
   83MOL0     C11104   2.073   1.624   8.487  0.6743 -0.3838  0.8398
   83MOL0     C11105   2.038   1.703   8.374  0.5757  0.8271 -0.3775
   83MOL0     O11106   1.907   1.730   8.331 -0.1781  0.4891 -0.0660
   83MOL0     C11107   1.802   1.691   8.421  0.3994 -0.6266  0.6557
   83MOL0     C11108   1.677   1.734   8.346  0.0660  0.9266  0.2704
   83MOL0     C11109   1.675   1.887   8.333  0.2760  0.1999 -0.0031
   83MOL0     C11110   1.526   1.924   8.359 -0.1593  0.6735  0.1386
   83MOL0     C11111   1.440   1.936   8.221  0.0146 -0.4883 -1.0916
   83MOL0     C11112   1.295   1.976   8.273  0.1620 -0.0529  0.7482
   83MOL0     C11113   1.195   1.959   8.155  0.0197  0.1240  0.3721
   83MOL0     C11114   1.059   2.028   8.185  0.1862 -0.2271  0.9208
   83MOL0    Cl11115   0.968   2.044   8.023 -0.2919  0.1589  0.3398
   83MOL0     C11116   2.129   1.770   8.297 -0.0743 -0.1415  0.3933
   83MOL0     C11117   2.265   1.768   8.325  0.0090  0.4320 -0.6434
   83MOL0     O11118   2.459   1.472   8.445 -0.3625  0.0936  0.3442
   83MOL0     C11119   2.732   1.678   8.529  0.6792  0.5893 -0.3504
   83MOL0     C11120   2.864   1.677   8.550 -0.8547  0.1127 -0.7154
   83MOL0     N11121   3.778   1.605   8.544 -0.5803 -0.1950  0.0940
   83MOL0     N11122   3.860   1.703   8.521 -0.2311 -0.1587  0.0405
   83MOL0     C11123   3.140   2.268   8.598 -0.2895  0.3675 -0.2713
   83MOL0     C11124   3.084   2.320   8.718  0.1060  0.1143 -0.1902
   83MOL0     C11125   2.856   2.281   9.150  1.0454  0.4095 -0.8869
   83MOL0     C11126   2.732   2.277   9.210 -0.2867 -0.1082 -0.0835
   83MOL0     C11127   2.715   2.293   9.348  0.3242  0.6012  0.2811
   83MOL0     C11128   2.827   2.321   9.430 -0.2966 -0.1183  0.8689
   83MOL0     O11129   2.814   2.362   9.561 -0.0071 -0.3807  0.0787
   83MOL0     C11130   2.674   2.383   9.617 -0.6021 -0.1059  0.2158
   83MOL0     C11131   2.674   2.477   9.736  0.5463 -0.7783 -0.0951
   83MOL0     C11132   2.719   2.625   9.704  0.2299  0.4790  0.1961
   83MOL0     C11133   2.609   2.710   9.636  0.3517  0.1117  0.1809
   83MOL0     C11134   2.507   2.742   9.730 -0.4874  1.1759 -0.6147
   83MOL0     C11135   2.408   2.761   9.798  0.1715 -0.5770  0.5435
   83MOL0     C11136   2.955   2.325   9.370  0.7965  0.1482  0.4139
   83MOL0     C11137   2.969   2.308   9.234  0.4660  0.0664 -0.3628
   83MOL0     H11138   3.031   2.026   8.878  1.1271 -1.7353 -1.8818
   83MOL0     H11139   3.071   1.941   8.667  3.5484  0.4408  1.3229
   83MOL0     H11140   3.112   2.103   8.284 -1.2392 -4.1207  2.3487
   83MOL0     H11141   3.258   2.192   8.357 -2.9709  1.4683  0.4133
   83MOL0     H11142   3.239   1.892   8.280  0.6720 -1.3622 -2.2961
   83MOL0     H11143   3.274   2.022   8.160 -2.9980  0.7355  1.0178
   83MOL0     H11144   3.445   1.951   8.408 -1.7550  0.0284  0.1791
   83MOL0     H11145   3.489   1.913   8.245 -0.9582 -0.2632 -0.5463
   83MOL0     H11146   3.447   2.176   8.205 -0.4345  1.7912  0.7477
   83MOL0     H11147   3.482   2.179   8.378  1.0434 -1.2492  1.5281
   83MOL0     H11148   3.653   2.124   8.140  0.5867  0.3066 -0.0528
   83MOL0     H11149   3.681   2.236   8.274  1.6015  0.5730 -1.6799
   83MOL0     H11150   3.726   1.934   8.290  1.0464 -0.1524 -1.0355
   83MOL0     H11151   3.857   2.053   8.280  0.6939 -2.1877  1.0856
   83MOL0     H11152   3.784   2.160   8.494  0.5309  0.9567 -1.4877
   83MOL0     H11153   3.649   2.040   8.497 -0.7260  1.1645 -3.9987
   83MOL0     H11154   3.868   1.989   8.640 -1.5529  0.7017  0.9878
   83MOL0     H11155   3.931   1.948   8.483  0.1492  1.7514  2.3731
   83MOL0     H11156   3.587   1.853   8.635 -1.5372  0.1598 -2.2527
   83MOL0     H11157   3.555   1.459   8.608  0.9173 -0.1055 -1.3276
   83MOL0     H11158   3.548   1.567   8.751  1.1049 -0.1387  0.0588
   83MOL0     H11159   3.386   1.641   8.496  1.4397  0.9372  0.4066
   83MOL0     H11160   3.390   1.738   8.634 -0.6778  0.2781 -0.8650
   83MOL0     H11161   3.290   1.561   8.783  1.6210  0.6945  0.2577
   83MOL0     H11162   3.266   1.465   8.638 -1.5128 -0.0941  0.1338
   83MOL0     H11163   3.172   1.743   8.586  1.3100 -0.5377 -0.0152
   83MOL0     H11164   3.095   1.659   8.719  2.2830  1.6338  2.3465
   83MOL0     H11165   2.945   1.390   8.385 -1.3253 -0.2203 -0.4798
   83MOL0     H11166   2.642   1.319   8.382  0.0074 -0.2830 -1.5662
   83MOL0     H11167   2.621   1.427   8.234  0.1514  1.8090 -0.6605
   83MOL0     H11168   2.760   1.322   8.256 -0.4647  0.5613 -1.2748
   83MOL0     H11169   2.249   1.569   8.608 -0.6307 -2.9110 -0.1714
   83MOL0     H11170   1.997   1.578   8.549  2.9739  0.6808  4.8489
   83MOL0     H11171   1.807   1.582   8.430 -0.3728 -0.6537  0.8575
   83MOL0     H11172   1.803   1.731   8.523  0.0831  2.5176 -0.4859
   83MOL0     H11173   1.680   1.682   8.250 -4.3223 -2.2707  1.5394
   83MOL0     H11174   1.583   1.689   8.378 -2.7423  2.5235 -4.6198
   83MOL0     H11175   1.706   1.918   8.233 -1.9044 -0.6680 -1.0131
   83MOL0     H11176   1.740   1.936   8.406 -0.0491  0.0454  0.3938
   83MOL0     H11177   1.485   1.857   8.435 -0.6212  0.6884 -0.1003
   83MOL0     H11178   1.519   2.029   8.390 -0.5885  1.3896 -2.2227
   83MOL0     H11179   1.424   1.844   8.163 -2.9978 -1.2922  0.8091
   83MOL0     H11180   1.481   2.008   8.150 -0.1954  0.8016  0.0741
   83MOL0     H11181   1.267   1.910   8.356  1.9544 -1.6249  0.1617
   83MOL0     H11182   1.309   2.080   8.304  0.7721  0.0256  0.2290
   83MOL0     H11183   1.176   1.853   8.138  1.2599 -0.6406  3.0944
   83MOL0     H11184   1.241   2.005   8.067  1.0369  0.5350  1.0914
   83MOL0     H11185   1.077   2.128   8.225 -2.2250  0.2764  0.8983
   83MOL0     H11186   1.005   1.973   8.262  1.2014 -1.5430  0.7344
   83MOL0     H11187   2.095   1.832   8.214  0.8478  2.6068  1.9378
   83MOL0     H11188   2.334   1.819   8.259  1.3652 -0.3414  0.1442
   83MOL0     H11189   2.674   1.765   8.559 -1.3529 -0.9874  0.4721
   83MOL0     H11190   2.907   1.766   8.596  0.3372  0.7707 -2.9231
   83MOL0     H11191   3.163   2.323   8.507 -1.6394 -0.2889 -1.0545
   83MOL0     H11192   3.076   2.428   8.730 -0.8783 -0.1596  2.1139
   83MOL0     H11193   2.649   2.274   9.140  0.3180  1.6286 -0.9529
   83MOL0     H11194   2.618   2.286   9.394  0.6392 -1.2315  0.7494
   83MOL0     H11195   2.617   2.431   9.537  1.9611  1.3214 -0.9039
   83MOL0     H11196   2.624   2.291   9.648  1.1214 -0.2974  2.8232
   83MOL0     H11197   2.741   2.445   9.816 -2.7711 -5.0609  1.3444
   83MOL0     H11198   2.577   2.470   9.787  1.5944 -3.5951  1.7510
   83MOL0     H11199   2.807   2.634   9.639  0.1858  2.1591  0.3245
   83MOL0     H11200   2.762   2.668   9.795 -0.3635  0.8531  0.3031
   83MOL0     H11201   2.556   2.664   9.552  2.4649 -0.0183 -1.1563
   83MOL0     H11202   2.640   2.807   9.596 -1.2762  0.2342 -0.9098
   83MOL0     H11203   2.310   2.775   9.838 -1.0771 -3.3280 -1.2549
   83MOL0     H11204   3.041   2.353   9.430  1.0695  0.3659 -0.0701
   83MOL0     H11205   3.067   2.319   9.190  0.8955  2.1132  0.9661
   84MOL0     O11206   0.464   9.477   1.424  0.2192 -0.2381  0.6288
   84MOL0     C11207   0.524   9.562   1.489 -0.1537  0.4985 -0.4999
   84MOL0     O11208   0.617   9.531   1.583  0.3316  0.1834 -0.0992
   84MOL0     C11209   0.635   9.403   1.625  0.6476  0.5144 -0.1624
   84MOL0     C11210   0.527   9.313   1.656 -1.1158 -0.3819 -0.7026
   84MOL0     C11211   0.547   9.184   1.700 -0.4304  0.2687  0.1467
   84MOL0     C11212   0.678   9.147   1.717  0.4878 -0.0209  0.7496
   84MOL0     O11213   0.733   9.032   1.764 -0.5037  0.7356 -0.3325
   84MOL0     C11214   0.675   8.902   1.723  0.0708 -0.3379  0.3184
   84MOL0     C11215   0.716   8.779   1.813 -0.1137 -0.1346 -0.5061
   84MOL0     C11216   0.604   8.669   1.815 -0.7335 -0.0271  0.3498
   84MOL0     C11217   0.650   8.548   1.740  0.0721  0.0715  0.3212
   84MOL0     C11218   0.525   8.456   1.718  0.2171  0.1560  0.0189
   84MOL0     C11219   0.448   8.505   1.595  0.8844  0.4326 -0.3486
   84MOL0     C11220   0.324   8.418   1.578  0.1319 -0.0519  0.3638
   84MOL0     C11221   0.277   8.409   1.431  0.5598  0.5109 -0.0563
   84MOL0     N11222   0.142   8.346   1.418  0.2637 -0.2482  0.2916
   84MOL0     C11223   0.107   8.205   1.431 -0.2401 -0.1759  0.5313
   84MOL0     C11224  -0.014   8.197   1.372 -0.0436  0.3232 -0.8198
   84MOL0     C11225  -0.089   8.066   1.371 -0.7671  0.3160 -1.0553
   84MOL0     C11226  -0.043   7.983   1.249  0.5226 -0.1390  0.8625
   84MOL0     C11227  -0.119   8.025   1.116 -0.1417  0.2186  0.1644
   84MOL0     C11228  -0.080   7.943   0.996  0.1951  0.1711 -0.9107
   84MOL0     O11229  -0.128   7.998   0.877 -0.3662 -0.2767  0.3799
   84MOL0     C11230  -0.059   7.974   0.757 -0.6857 -0.5119  0.1605
   84MOL0     C11231   0.026   7.869   0.740 -0.0800  0.3757  0.3172
   84MOL0     C11232   0.100   7.859   0.619  1.3830 -0.1663 -0.3800
   84MOL0     C11233   0.198   7.744   0.603  0.4523 -0.0280 -0.3417
   84MOL0     C11234   0.072   7.950   0.512  0.3974 -0.8636  0.0018
   84MOL0     C11235   0.132   7.935   0.372  0.1944  0.3234 -0.0121
   84MOL0     O11236   0.056   7.986   0.267 -0.6395 -0.9350 -0.2720
   84MOL0     C11237   0.100   7.999   0.137  0.2761 -0.4529 -0.1786
   84MOL0     C11238   0.169   7.906   0.065 -0.8697  0.2300 -0.0875
   84MOL0     C11239   0.213   7.938  -0.064  0.3740  0.8757  1.9150
   84MOL0     C11240   0.179   8.053  -0.129 -1.1099 -0.7606 -0.0130
   84MOL0     O11241   0.220   8.095  -0.257  0.8609 -0.3699  0.4708
   84MOL0     C11242   0.213   8.002  -0.365 -0.5556 -0.1693  0.1228
   84MOL0     C11243   0.293   8.057  -0.487  0.2989  0.5752 -0.4410
   84MOL0     C11244   0.307   7.952  -0.595 -0.1568  0.2046  0.5071
   84MOL0     C11245   0.361   8.029  -0.714  0.1669 -0.1343  0.2401
   84MOL0     C11246   0.398   7.935  -0.836  1.0184 -0.3654 -0.5702
   84MOL0     C11247   0.538   7.870  -0.835 -0.1055 -0.1981 -0.2469
   84MOL0     C11248   0.564   7.765  -0.944 -0.0637  0.2760  1.2667
   84MOL0     C11249   0.542   7.811  -1.091 -0.2584 -0.3843 -0.0090
   84MOL0    Cl11250   0.370   7.779  -1.140  0.0183 -0.4452  0.0969
   84MOL0     C11251   0.108   8.142  -0.059  0.2015  0.0600  0.1666
   84MOL0     C11252   0.077   8.118   0.075  1.0433 -1.4299  1.0187
   84MOL0     O11253   0.248   7.897   0.356  0.2646 -0.2576 -0.4799
   84MOL0     C11254  -0.026   8.052   0.520  1.1223  0.1807 -0.2717
   84MOL0     C11255  -0.090   8.053   0.647 -0.0254 -0.4583 -0.2077
   84MOL0     N11256  -0.051   8.317   1.322 -0.0528 -0.4707 -0.0844
   84MOL0     N11257   0.039   8.409   1.341 -0.1683  0.4740 -0.7239
   84MOL0     C11258   0.788   9.230   1.683 -0.3679 -0.3175  0.7179
   84MOL0     C11259   0.766   9.362   1.649  0.7603 -0.8246 -0.6727
   84MOL0     C11260   0.476   9.698   1.476  0.7393 -0.5633 -0.2785
   84MOL0     C11261   0.356   9.723   1.403 -0.8955 -0.0430 -0.3278
   84MOL0     C11262   0.306   9.849   1.402 -0.2893  0.8205  0.1758
   84MOL0     C11263   0.359   9.961   1.459 -0.0069  0.8582  0.4554
   84MOL0     O11264   0.299  10.077   1.430  0.3118  0.1735 -0.2033
   84MOL0     C11265   0.371  10.197   1.454 -0.3986 -0.6231 -0.0676
   84MOL0     C11266   0.299  10.323   1.396 -0.0347  0.5566 -0.0037
   84MOL0     C11267   0.366  10.455   1.429 -0.3674  0.5735 -0.3962
   84MOL0     C11268   0.405  10.479   1.571  0.2870  0.6287  0.2658
   84MOL0     C11269   0.406  10.627   1.601 -1.5884  0.3275  0.5124
   84MOL0     C11270   0.400  10.750   1.615  0.2392  1.0640 -0.5122
   84MOL0     C11271   0.490   9.937   1.524  0.7562 -0.8834 -0.0954
   84MOL0     C11272   0.550   9.809   1.523 -0.2781 -0.3713  0.2432
   84MOL0     H11273   0.422   9.343   1.659 -0.7516  1.0817  3.1348
   84MOL0     H11274   0.480   9.116   1.752  0.1759 -0.8731 -0.5325
   84MOL0     H11275   0.566   8.915   1.721  0.2644  1.4393 -0.5885
   84MOL0     H11276   0.702   8.864   1.624 -2.8112 -2.1747  0.1190
   84MOL0     H11277   0.802   8.726   1.771 -0.2589 -1.4271  0.7495
   84MOL0     H11278   0.738   8.820   1.912  1.7107  0.7698 -1.2438
   84MOL0     H11279   0.578   8.648   1.920 -1.6710  2.2598  0.6400
   84MOL0     H11280   0.512   8.705   1.768 -0.8934 -2.0940 -1.0812
   84MOL0     H11281   0.703   8.562   1.645 -0.9140  1.0703 -0.1097
   84MOL0     H11282   0.720   8.489   1.800 -1.1707 -1.8302 -0.0061
   84MOL0     H11283   0.557   8.352   1.704  0.2215  0.1092  0.3474
   84MOL0     H11284   0.465   8.466   1.809 -0.1839  0.6926 -0.3013
   84MOL0     H11285   0.421   8.610   1.608 -0.9317 -0.3322  3.2859
   84MOL0     H11286   0.520   8.488   1.515  0.6898 -2.6567  0.0104
   84MOL0     H11287   0.345   8.318   1.617 -0.7290 -0.8181 -1.0547
   84MOL0     H11288   0.239   8.465   1.629  0.5999  2.9049 -1.3759
   84MOL0     H11289   0.346   8.341   1.380 -1.3874 -0.7311 -1.1227
   84MOL0     H11290   0.264   8.508   1.387 -0.8764  0.7235  0.7927
   84MOL0     H11291   0.158   8.125   1.484  0.1102 -1.1825 -1.2481
   84MOL0     H11292  -0.087   8.017   1.468 -1.1734 -1.4776 -1.9245
   84MOL0     H11293  -0.195   8.086   1.356 -0.5033 -0.4975 -5.3854
   84MOL0     H11294  -0.049   7.876   1.271 -0.8948  0.1493  2.0018
   84MOL0     H11295   0.063   7.998   1.229  0.2137 -0.0248 -0.8438
   84MOL0     H11296  -0.091   8.130   1.102  0.9198 -0.1017 -0.2557
   84MOL0     H11297  -0.226   8.009   1.129 -0.9883  2.9552 -2.3705
   84MOL0     H11298  -0.123   7.843   1.011  0.0221 -0.1131 -3.0168
   84MOL0     H11299   0.028   7.954   1.002 -0.0361  2.6178 -0.1612
   84MOL0     H11300   0.040   7.794   0.817  0.9486 -0.4906 -0.6827
   84MOL0     H11301   0.215   7.698   0.700 -0.7030  0.2222 -0.0029
   84MOL0     H11302   0.155   7.665   0.540 -2.8499  0.5200  0.9898
   84MOL0     H11303   0.295   7.781   0.568  1.5747 -2.5586 -0.1123
   84MOL0     H11304   0.182   7.806   0.104  0.5895 -0.1661 -1.4593
   84MOL0     H11305   0.261   7.863  -0.128 -1.2972  0.0332  1.6024
   84MOL0     H11306   0.259   7.909  -0.330  1.6935  1.8791  3.0815
   84MOL0     H11307   0.106   7.987  -0.380 -0.9277 -0.1603  2.3860
   84MOL0     H11308   0.231   8.133  -0.537 -1.7288  0.0683  1.1759
   84MOL0     H11309   0.387   8.097  -0.448  0.2589  1.9903 -1.6968
   84MOL0     H11310   0.211   7.908  -0.623 -1.0903  3.1792 -1.5115
   84MOL0     H11311   0.372   7.873  -0.558 -2.9451 -2.9795 -0.8454
   84MOL0     H11312   0.288   8.103  -0.748  2.4034  1.8528 -0.5880
   84MOL0     H11313   0.451   8.086  -0.685 -2.0978  3.9557  0.0130
   84MOL0     H11314   0.387   7.981  -0.934 -2.8718 -1.5701 -0.8767
   84MOL0     H11315   0.325   7.854  -0.828 -1.3103  1.7754  1.9592
   84MOL0     H11316   0.615   7.947  -0.845 -0.4962  0.4202  1.2362
   84MOL0     H11317   0.558   7.818  -0.741  1.9566  0.8090 -0.0847
   84MOL0     H11318   0.512   7.671  -0.921  1.2374 -1.1540 -1.2174
   84MOL0     H11319   0.670   7.740  -0.939 -0.1671 -0.0113  2.7102
   84MOL0     H11320   0.618   7.783  -1.164  0.2718  1.2510 -0.1136
   84MOL0     H11321   0.545   7.920  -1.093 -0.8946 -0.3649 -0.5641
   84MOL0     H11322   0.076   8.234  -0.106  1.2176 -0.1552 -1.0154
   84MOL0     H11323   0.020   8.193   0.129 -2.8452 -3.1191 -0.3292
   84MOL0     H11324  -0.059   8.114   0.437 -5.3275 -0.5082  1.2655
   84MOL0     H11325  -0.163   8.132   0.659 -0.7536 -1.3684  1.7864
   84MOL0     H11326   0.893   9.205   1.691 -0.1017 -0.3125 -1.9308
   84MOL0     H11327   0.838   9.444   1.643 -3.0678  2.8857 -0.4539
   84MOL0     H11328   0.306   9.643   1.348  0.4427 -0.2667 -1.2701
   84MOL0     H11329   0.216   9.865   1.345  0.0558  1.0663 -0.3067
   84MOL0     H11330   0.372  10.206   1.563  3.9043  1.2249 -0.0868
   84MOL0     H11331   0.478  10.193   1.431  0.2673  2.1645  1.9313
   84MOL0     H11332   0.199  10.313   1.439  0.2733 -1.0538  0.3891
   84MOL0     H11333   0.287  10.312   1.288 -0.5651 -1.9322  0.2368
   84MOL0     H11334   0.301  10.536   1.395 -3.2281 -0.5701  1.8885
   84MOL0     H11335   0.460  10.445   1.375 -0.1044 -0.1690  0.1774
   84MOL0     H11336   0.503  10.439   1.600 -0.0466 -0.3787  0.0228
   84MOL0     H11337   0.327  10.431   1.631  1.9312 -1.9223  0.5135
   84MOL0     H11338   0.384  10.856   1.624 -0.7553  1.5755 -5.5614
   84MOL0     H11339   0.545  10.019   1.569 -0.9528  1.0445 -1.2938
   84MOL0     H11340   0.653   9.802   1.559 -0.1809 -1.2844 -0.2108
   85MOL0     O11341   9.281   1.482   8.051  0.0478  0.6918 -0.6318
   85MOL0     C11342   9.353   1.572   8.082  0.4042 -0.1749 -1.1812
   85MOL0     O11343   9.486   1.572   8.131  0.3859  0.7968  0.1594
   85MOL0     C11344   9.540   1.449   8.129 -0.0756  0.5129  0.7853
   85MOL0     C11345   9.543   1.359   8.016 -0.2328 -0.4898  0.2596
   85MOL0     C11346   9.616   1.237   8.028 -0.1484 -1.0674 -0.4716
   85MOL0     C11347   9.668   1.187   8.145 -0.0412 -1.3956 -1.3185
   85MOL0     O11348   9.722   1.065   8.157 -0.4380 -0.1875 -0.2028
   85MOL0     C11349   9.639   0.946   8.150 -0.6106 -0.5705  0.2838
   85MOL0     C11350   9.678   0.875   8.018  0.6852  0.4486  0.5550
   85MOL0     C11351   9.567   0.779   7.976  0.1077  0.0108  0.1075
   85MOL0     C11352   9.438   0.842   7.935 -0.1256  0.8122  0.3292
   85MOL0     C11353   9.334   0.732   7.908 -0.1435 -0.3400  0.4881
   85MOL0     C11354   9.198   0.793   7.867 -0.1129 -0.0508 -0.4013
   85MOL0     C11355   9.095   0.691   7.823 -1.1287  0.3913  0.2550
   85MOL0     C11356   8.970   0.769   7.785 -0.1078  0.0326 -0.0852
   85MOL0     N11357   8.890   0.823   7.904 -0.6837  0.1563 -0.4530
   85MOL0     C11358   8.779   0.773   7.951 -0.2759  0.0663 -1.3518
   85MOL0     C11359   8.719   0.864   8.041  0.2528 -0.0905  1.2994
   85MOL0     C11360   8.610   0.812   8.128 -0.0520 -0.0841  0.3630
   85MOL0     C11361   8.624   0.863   8.274  0.2125  0.2405 -0.1918
   85MOL0     C11362   8.569   1.006   8.280  0.2311  0.0304  0.3375
   85MOL0     C11363   8.557   1.070   8.420 -0.1780  0.8944  1.3181
   85MOL0     O11364   8.456   0.994   8.489  0.0474  0.1370  0.5116
   85MOL0     C11365   8.423   1.032   8.615 -0.3276  0.1373 -0.1205
   85MOL0     C11366   8.504   1.082   8.715 -0.1228  0.2946  0.5999
   85MOL0     C11367   8.449   1.128   8.840 -0.2283 -1.2066 -0.3271
   85MOL0     C11368   8.550   1.184   8.931  0.5306  0.3945  0.3902
   85MOL0     C11369   8.311   1.104   8.875 -0.2864 -0.2228  0.4167
   85MOL0     C11370   8.238   1.129   9.008  0.6150  0.1935 -0.2565
   85MOL0     O11371   8.103   1.154   8.999  0.1868 -0.2323 -0.6844
   85MOL0     C11372   8.025   1.184   9.103 -0.7208  0.0357 -0.1487
   85MOL0     C11373   7.914   1.110   9.126 -0.6298 -0.8100  0.3832
   85MOL0     C11374   7.837   1.129   9.238  0.6873  0.2026 -0.2316
   85MOL0     C11375   7.864   1.232   9.327  0.1557  1.0073  0.7965
   85MOL0     O11376   7.775   1.241   9.427  0.3611  0.8365 -0.0356
   85MOL0     C11377   7.820   1.233   9.562 -0.5716 -0.4892  0.3658
   85MOL0     C11378   7.710   1.295   9.648 -0.1593  0.3673  0.5538
   85MOL0     C11379   7.614   1.196   9.706  0.8266  0.1800 -0.2894
   85MOL0     C11380   7.531   1.138   9.589  0.0671 -0.4047 -0.0193
   85MOL0     C11381   7.415   1.051   9.645 -0.7500  0.6071 -0.1082
   85MOL0     C11382   7.288   1.053   9.565  0.7368  0.2225 -0.0946
   85MOL0     C11383   7.188   0.949   9.631 -0.0967 -0.1523  0.9008
   85MOL0     C11384   7.044   0.937   9.575  0.2958 -0.6157 -1.3510
   85MOL0    Cl11385   6.964   1.074   9.649 -0.1414  0.0351  0.4191
   85MOL0     C11386   7.968   1.317   9.299  0.2773 -0.1015 -0.2170
   85MOL0     C11387   8.045   1.292   9.190  0.5948  0.8013 -0.3288
   85MOL0     O11388   8.297   1.092   9.106 -0.0498  0.1418  0.1403
   85MOL0     C11389   8.239   1.059   8.768  0.1870  0.4853  0.2056
   85MOL0     C11390   8.292   1.022   8.647 -0.4866 -0.2933 -0.4514
   85MOL0     N11391   8.794   0.976   8.043  0.1231 -0.6844  0.4988
   85MOL0     N11392   8.892   0.954   7.959 -0.2225 -0.1567 -0.1027
   85MOL0     C11393   9.674   1.280   8.254 -0.4008  0.2232 -0.1300
   85MOL0     C11394   9.612   1.409   8.242  0.0482 -0.2442  0.9296
   85MOL0     C11395   9.272   1.703   8.086 -0.1660  0.3339  0.4203
   85MOL0     C11396   9.140   1.702   8.135 -0.5074  0.2417 -0.0593
   85MOL0     C11397   9.066   1.821   8.124  0.1024  0.5839 -0.6213
   85MOL0     C11398   9.128   1.945   8.082  0.2027 -0.7676  1.0560
   85MOL0     O11399   9.071   2.065   8.073  0.3241  0.1721 -0.7004
   85MOL0     C11400   8.933   2.077   8.093 -0.5600  0.1149 -0.0855
   85MOL0     C11401   8.881   2.224   8.087 -0.1974 -0.2669  0.1736
   85MOL0     C11402   8.880   2.281   7.947 -0.0713 -0.2506  0.2793
   85MOL0     C11403   8.800   2.214   7.837  0.1522 -0.1022 -0.6982
   85MOL0     C11404   8.657   2.246   7.840 -0.2591  0.1872  0.7003
   85MOL0     C11405   8.539   2.275   7.840 -0.2787  1.1427 -0.3650
   85MOL0     C11406   9.267   1.948   8.036  1.8425  0.1160  0.0920
   85MOL0     C11407   9.332   1.827   8.047  0.0042  0.3517  0.0502
   85MOL0     H11408   9.496   1.380   7.920  2.9105  2.4590 -0.8636
   85MOL0     H11409   9.618   1.170   7.943 -0.0864 -0.6522 -0.7976
   85MOL0     H11410   9.669   0.884   8.235 -0.3977  1.9665  2.1595
   85MOL0     H11411   9.535   0.973   8.165 -0.3113  1.1541 -0.5213
   85MOL0     H11412   9.700   0.934   7.929  1.0021 -3.2327 -2.0405
   85MOL0     H11413   9.770   0.815   8.026  0.4459  0.2223  1.9605
   85MOL0     H11414   9.601   0.711   7.897 -0.2161 -1.5050  1.2058
   85MOL0     H11415   9.563   0.712   8.063  4.2621  0.5405  0.9490
   85MOL0     H11416   9.401   0.918   8.005 -2.5309  2.1951 -2.2485
   85MOL0     H11417   9.459   0.896   7.843  0.6257 -0.6520 -0.3898
   85MOL0     H11418   9.371   0.657   7.837  3.1967 -0.7942  2.5031
   85MOL0     H11419   9.317   0.671   7.997  2.7528 -1.1327  0.5739
   85MOL0     H11420   9.153   0.837   7.957 -1.5998 -0.6432 -0.8288
   85MOL0     H11421   9.203   0.872   7.792  0.3859  0.8595  0.5682
   85MOL0     H11422   9.126   0.637   7.733 -0.1575  0.0297  0.7974
   85MOL0     H11423   9.065   0.619   7.899 -0.7360  0.3884  0.4100
   85MOL0     H11424   8.904   0.696   7.738 -0.9940  0.4402  0.4949
   85MOL0     H11425   8.992   0.847   7.711  0.4549 -0.0262  0.0225
   85MOL0     H11426   8.734   0.676   7.933 -1.9641 -0.2103  3.0513
   85MOL0     H11427   8.509   0.832   8.091  0.0114  0.8167  0.6349
   85MOL0     H11428   8.623   0.704   8.125 -0.2908 -0.0922 -0.6180
   85MOL0     H11429   8.729   0.857   8.305 -0.0690  0.4951  0.8549
   85MOL0     H11430   8.567   0.797   8.341  2.2036 -0.9945  0.3691
   85MOL0     H11431   8.467   0.988   8.244  0.5506 -2.2597  0.3935
   85MOL0     H11432   8.619   1.074   8.212  2.7345 -0.8588  1.1620
   85MOL0     H11433   8.514   1.169   8.403 -0.4978  0.3044 -2.2255
   85MOL0     H11434   8.649   1.067   8.478 -0.8076  0.9577  2.3420
   85MOL0     H11435   8.611   1.094   8.703 -0.2053  1.2473  0.7455
   85MOL0     H11436   8.619   1.101   8.947 -0.3904 -0.2963  0.8330
   85MOL0     H11437   8.597   1.268   8.878  0.5147 -0.6701 -1.3814
   85MOL0     H11438   8.512   1.230   9.022 -1.8103  0.3433 -0.4900
   85MOL0     H11439   7.892   1.030   9.056 -2.6462  2.6117 -3.2599
   85MOL0     H11440   7.748   1.068   9.252  1.1123 -0.8823 -2.0772
   85MOL0     H11441   7.834   1.131   9.599 -1.5544 -0.4780  0.8152
   85MOL0     H11442   7.912   1.287   9.585 -0.9952  0.5156 -0.2397
   85MOL0     H11443   7.761   1.339   9.734  1.0435 -0.4353  0.2739
   85MOL0     H11444   7.657   1.373   9.594 -2.7550 -1.1091  0.8047
   85MOL0     H11445   7.545   1.245   9.775  1.2243 -1.8812  1.7243
   85MOL0     H11446   7.652   1.109   9.761  0.4283 -2.0150 -3.2284
   85MOL0     H11447   7.492   1.231   9.545  1.4403  1.4287  2.4078
   85MOL0     H11448   7.594   1.084   9.518 -1.9112 -2.7338 -0.0954
   85MOL0     H11449   7.392   1.102   9.739 -0.4544  3.4142 -1.4523
   85MOL0     H11450   7.442   0.948   9.667 -2.5903  0.3058  0.9590
   85MOL0     H11451   7.244   1.153   9.567 -0.0277 -0.1132  0.0992
   85MOL0     H11452   7.314   1.035   9.461 -3.9062  1.3824 -1.6850
   85MOL0     H11453   7.177   0.967   9.738  0.6811  0.2494  0.9234
   85MOL0     H11454   7.239   0.854   9.616  0.9088  0.5156 -0.0974
   85MOL0     H11455   6.992   0.847   9.607 -0.7295 -0.2594 -1.9610
   85MOL0     H11456   7.028   0.948   9.467 -0.1570 -0.4637 -1.2712
   85MOL0     H11457   7.988   1.407   9.356 -0.5029 -0.8989  1.3550
   85MOL0     H11458   8.119   1.362   9.153  0.8516  1.7960  1.8963
   85MOL0     H11459   8.131   1.045   8.775  0.1234  0.0260 -1.2702
   85MOL0     H11460   8.232   0.988   8.563 -1.0672 -0.9478  0.2094
   85MOL0     H11461   9.716   1.252   8.350 -1.2729 -0.4809  0.0648
   85MOL0     H11462   9.628   1.473   8.328 -2.8386  0.2669  1.1869
   85MOL0     H11463   9.102   1.609   8.175 -0.4045  1.8161  4.1650
   85MOL0     H11464   8.960   1.819   8.151  0.0505 -0.1803 -0.8473
   85MOL0     H11465   8.884   2.025   8.010  0.6826  0.1384 -0.8583
   85MOL0     H11466   8.897   2.042   8.190  0.4395 -0.9626 -0.0772
   85MOL0     H11467   8.946   2.282   8.153  1.3429 -2.5978  0.8432
   85MOL0     H11468   8.781   2.224   8.132  0.2746 -1.6581  1.3060
   85MOL0     H11469   8.981   2.304   7.913 -0.6148 -0.3915 -1.4952
   85MOL0     H11470   8.832   2.379   7.957 -1.7810 -1.1728  1.9689
   85MOL0     H11471   8.816   2.107   7.823 -1.3926 -0.7869  1.9686
   85MOL0     H11472   8.831   2.263   7.744 -0.5942  0.8585 -0.4681
   85MOL0     H11473   8.436   2.294   7.865 -0.4238 -1.7968  1.8272
   85MOL0     H11474   9.314   2.034   7.988  1.1080 -0.1764 -1.2068
   85MOL0     H11475   9.432   1.830   8.006 -0.3075  0.9540 -0.7073
   86MOL0     O11476   6.349  10.270  10.525 -0.8094  0.2858 -0.9002
   86MOL0     C11477   6.323  10.287  10.644 -0.1142  0.0596 -0.3717
   86MOL0     O11478   6.413  10.311  10.742 -0.1009  0.1697  0.5065
   86MOL0     C11479   6.547  10.287  10.714 -0.0515 -0.2016 -0.1718
   86MOL0     C11480   6.660  10.374  10.740 -0.1974 -0.3297  1.5631
   86MOL0     C11481   6.796  10.338  10.715 -0.4996 -0.0144  0.6256
   86MOL0     C11482   6.821  10.206  10.671  0.1008  0.0616 -0.4792
   86MOL0     O11483   6.950  10.171  10.643  0.2468  0.2450  0.7209
   86MOL0     C11484   6.997  10.061  10.723 -0.5342 -0.3181  0.1315
   86MOL0     C11485   7.111   9.991  10.650  0.4481 -0.6606  0.4381
   86MOL0     C11486   7.237  10.083  10.641  0.3282 -0.0255  0.4874
   86MOL0     C11487   7.346  10.037  10.548 -0.3650  0.1200  0.0256
   86MOL0     C11488   7.481  10.113  10.558 -1.2237 -0.9291  0.0646
   86MOL0     C11489   7.579  10.045  10.467 -0.4278  0.3266  0.4017
   86MOL0     C11490   7.706  10.120  10.446  0.2956 -0.2060  0.2250
   86MOL0     C11491   7.793  10.046  10.345 -0.2409  1.1128  0.6150
   86MOL0     N11492   7.937  10.080  10.347 -0.4175 -0.5924  0.1609
   86MOL0     C11493   7.976  10.198  10.299 -0.8646 -0.5058 -0.2172
   86MOL0     C11494   8.108  10.180  10.274  0.6174  0.0156  0.3736
   86MOL0     C11495   8.186  10.276  10.188  0.3359 -0.3032 -0.3467
   86MOL0     C11496   8.119  10.295  10.053 -0.1176 -0.2881 -0.3124
   86MOL0     C11497   8.187  10.397   9.956  0.3471  0.2820 -0.5511
   86MOL0     C11498   8.329  10.364   9.887  0.7212  0.4677  0.4593
   86MOL0     O11499   8.363  10.477   9.805 -0.5370 -0.1484  0.1904
   86MOL0     C11500   8.503  10.478   9.785 -0.2442  0.0953 -0.4686
   86MOL0     C11501   8.550  10.595   9.720  0.4796 -0.1489 -0.2719
   86MOL0     C11502   8.677  10.618   9.687  0.0419  0.6436 -0.2401
   86MOL0     C11503   8.700  10.743   9.612  0.4885 -0.5955 -0.3779
   86MOL0     C11504   8.764  10.514   9.712  0.5166  0.6785 -0.8928
   86MOL0     C11505   8.913  10.509   9.682  0.5235  0.5598  0.3691
   86MOL0     O11506   8.975  10.626   9.698  0.1042  0.3506 -0.1944
   86MOL0     C11507   9.093  10.631   9.630  0.0776 -0.2772  0.4542
   86MOL0     C11508   9.096  10.696   9.510 -1.3827 -0.7382  0.3932
   86MOL0     C11509   9.217  10.708   9.442  0.2933  0.0180 -0.8633
   86MOL0     C11510   9.336  10.659   9.489  0.0169  0.3271  0.2960
   86MOL0     O11511   9.444  10.691   9.416 -0.7829 -0.7775 -0.2887
   86MOL0     C11512   9.569  10.620   9.446  0.1959  0.2001  0.6240
   86MOL0     C11513   9.670  10.672   9.345 -0.8732 -0.1756  0.9080
   86MOL0     C11514   9.815  10.642   9.379 -0.0999 -0.4734 -0.6246
   86MOL0     C11515   9.914  10.719   9.291 -1.2165  0.4695  0.8473
   86MOL0     C11516  10.058  10.708   9.333 -0.6522 -0.0554  0.3677
   86MOL0     C11517  10.146  10.786   9.232 -0.3798 -0.2257 -0.4709
   86MOL0     C11518  10.301  10.789   9.276 -0.2526 -0.1348  0.9308
   86MOL0     C11519  10.384  10.868   9.181  1.2602  0.2383  0.2010
   86MOL0    Cl11520  10.532  10.904   9.278 -0.2632 -0.0818 -0.2998
   86MOL0     C11521   9.333  10.597   9.616  0.8155 -0.0747  0.7246
   86MOL0     C11522   9.213  10.583   9.681 -0.4261  0.6139 -0.6232
   86MOL0     O11523   8.965  10.403   9.649  0.2597 -0.4111 -0.3207
   86MOL0     C11524   8.726  10.389   9.766  1.1048  0.0650 -0.0181
   86MOL0     C11525   8.593  10.370   9.809  0.2192 -0.7052 -0.2147
   86MOL0     N11526   8.143  10.051  10.308 -0.9090 -0.9670 -0.8001
   86MOL0     N11527   8.043   9.991  10.353  0.0084 -0.2611  0.1450
   86MOL0     C11528   6.712  10.110  10.662  0.3143 -0.1054  0.9020
   86MOL0     C11529   6.579  10.152  10.683 -0.2690 -0.2437  0.4137
   86MOL0     C11530   6.184  10.314  10.680  0.2880 -0.5848 -0.6938
   86MOL0     C11531   6.088  10.334  10.583 -0.2891  0.6123  0.0843
   86MOL0     C11532   5.968  10.388  10.608 -0.2096 -0.1565 -0.8031
   86MOL0     C11533   5.923  10.414  10.739 -0.4565  0.2836 -0.4396
   86MOL0     O11534   5.805  10.455  10.773 -0.5091  0.2462  0.3411
   86MOL0     C11535   5.714  10.489  10.674 -0.0442 -0.9193  0.4268
   86MOL0     C11536   5.594  10.553  10.742  0.5630 -0.0843 -0.5822
   86MOL0     C11537   5.606  10.704  10.760  0.0592 -0.4727  0.7560
   86MOL0     C11538   5.476  10.762  10.850  0.5056  0.9131  0.2818
   86MOL0     C11539   5.352  10.736  10.784  0.0210  0.4196  0.9219
   86MOL0     C11540   5.259  10.711  10.718 -0.1934  1.4812  0.2185
   86MOL0     C11541   6.009  10.386  10.841 -0.1245 -0.0402 -0.5963
   86MOL0     C11542   6.138  10.334  10.813 -0.5547 -0.4147  1.8278
   86MOL0     H11543   6.643  10.461  10.803 -1.4516 -1.0913  2.3311
   86MOL0     H11544   6.870  10.414  10.737  0.4141 -1.4930  2.9806
   86MOL0     H11545   7.017  10.092  10.825  1.0039 -2.2528  0.4602
   86MOL0     H11546   6.921   9.982  10.729  0.4488 -1.3515 -0.5746
   86MOL0     H11547   7.124   9.894  10.700  0.7729 -0.0126  1.6391
   86MOL0     H11548   7.079   9.995  10.546  1.0327  2.9543  0.2957
   86MOL0     H11549   7.209  10.186  10.619  4.4528  0.9776 -0.8282
   86MOL0     H11550   7.273  10.078  10.744  1.4998  1.5476  0.1856
   86MOL0     H11551   7.364   9.930  10.563 -1.4627  0.0720  1.1917
   86MOL0     H11552   7.302  10.031  10.448 -0.1706  0.4596 -0.0833
   86MOL0     H11553   7.476  10.221  10.538  1.6232 -0.6667  0.3407
   86MOL0     H11554   7.509  10.091  10.661 -1.4356 -1.8816 -0.0725
   86MOL0     H11555   7.585   9.938  10.492  0.3356  0.2627 -0.0452
   86MOL0     H11556   7.525  10.059  10.373  2.0035 -1.9489 -1.4869
   86MOL0     H11557   7.699  10.226  10.423  0.1700 -0.6001 -1.7798
   86MOL0     H11558   7.763  10.116  10.539  0.4237 -4.1073  0.1695
   86MOL0     H11559   7.737  10.064  10.253 -0.2664 -2.5362 -0.2373
   86MOL0     H11560   7.797   9.940  10.372  1.0777  1.4659  1.9150
   86MOL0     H11561   7.904  10.263  10.251 -0.8389 -1.2579 -1.3204
   86MOL0     H11562   8.196  10.378  10.226 -0.5233 -0.5018  0.4476
   86MOL0     H11563   8.283  10.230  10.166  0.2095  1.2273 -5.3505
   86MOL0     H11564   8.024  10.342  10.080  1.1612  0.8702  2.5797
   86MOL0     H11565   8.105  10.199  10.001 -2.4114 -1.6517  2.5290
   86MOL0     H11566   8.207  10.494  10.003  3.3072 -0.8247  0.7860
   86MOL0     H11567   8.113  10.421   9.880 -0.0507 -2.6346 -1.1952
   86MOL0     H11568   8.326  10.274   9.825 -3.0997  0.1699  0.8674
   86MOL0     H11569   8.397  10.338   9.969 -0.8031 -1.4112  1.2105
   86MOL0     H11570   8.474  10.667   9.691 -0.3535 -1.6777 -2.1452
   86MOL0     H11571   8.697  10.819   9.690 -1.2502  0.4830 -1.4479
   86MOL0     H11572   8.795  10.738   9.558  1.0062 -1.0364  0.5364
   86MOL0     H11573   8.617  10.763   9.544 -1.2337  3.0725  2.4956
   86MOL0     H11574   9.006  10.746   9.476 -1.0305  0.7690  1.5430
   86MOL0     H11575   9.233  10.766   9.352  1.5988  0.0261 -0.6474
   86MOL0     H11576   9.597  10.635   9.550  1.5445  0.5548  0.2269
   86MOL0     H11577   9.558  10.512   9.429 -1.2549  0.5448 -0.8698
   86MOL0     H11578   9.638  10.639   9.245 -4.9642  2.5814  1.1074
   86MOL0     H11579   9.659  10.780   9.344 -1.5142 -0.2371 -0.1137
   86MOL0     H11580   9.840  10.535   9.378 -2.7523 -1.1652 -0.1668
   86MOL0     H11581   9.829  10.667   9.484  0.4154 -1.7335 -0.3739
   86MOL0     H11582   9.891  10.685   9.189 -0.2640 -0.2483  0.8618
   86MOL0     H11583   9.885  10.825   9.298  0.7412  1.1213 -0.1775
   86MOL0     H11584  10.092  10.604   9.344  1.2917  0.5181  0.1211
   86MOL0     H11585  10.070  10.744   9.435  2.8786  0.4360 -0.0972
   86MOL0     H11586  10.153  10.719   9.146  1.1851  0.9833 -1.3458
   86MOL0     H11587  10.121  10.884   9.192  0.3139 -1.0457 -3.1788
   86MOL0     H11588  10.346  10.690   9.288  2.0709  0.4412 -1.7261
   86MOL0     H11589  10.306  10.845   9.370  0.1906  2.6707 -0.6414
   86MOL0     H11590  10.328  10.960   9.164 -1.2218 -0.9990  1.2268
   86MOL0     H11591  10.403  10.801   9.097 -1.5007  0.3589 -0.6175
   86MOL0     H11592   9.419  10.570   9.678  0.3592  0.6224  1.6908
   86MOL0     H11593   9.215  10.537   9.779  3.8884 -0.3935 -0.9936
   86MOL0     H11594   8.791  10.302   9.776  1.4749  0.4815  1.4900
   86MOL0     H11595   8.568  10.271   9.847  1.2511 -0.3506  1.4869
   86MOL0     H11596   6.733  10.007  10.636  0.5297  0.4185 -1.1227
   86MOL0     H11597   6.497  10.086  10.658 -0.5785  0.8068 -1.5586
   86MOL0     H11598   6.105  10.285  10.488 -1.4755 -1.6715  0.9799
   86MOL0     H11599   5.900  10.406  10.524 -1.1691  2.1352  0.3774
   86MOL0     H11600   5.756  10.572  10.617 -2.2456 -1.6845 -2.5577
   86MOL0     H11601   5.684  10.412  10.602 -1.6823  3.8667 -4.7750
   86MOL0     H11602   5.572  10.497  10.834  1.0434 -3.3834 -2.3354
   86MOL0     H11603   5.517  10.544  10.665 -0.0126 -2.0741  0.1713
   86MOL0     H11604   5.612  10.744  10.658  1.6412  0.6164  1.2347
   86MOL0     H11605   5.703  10.736  10.798  2.3177 -0.1097 -4.4757
   86MOL0     H11606   5.494  10.869  10.866  4.1410  0.0858  2.8203
   86MOL0     H11607   5.470  10.721  10.951 -0.4176  2.5961  0.9563
   86MOL0     H11608   5.179  10.663  10.667 -0.6116  0.2583  1.9565
   86MOL0     H11609   5.980  10.397  10.946 -0.7839  1.4877 -0.9074
   86MOL0     H11610   6.205  10.294  10.888 -1.4994 -1.8369  1.9418
   87MOL0     O11611   6.335   3.957   1.456 -0.4100  0.6742 -0.2592
   87MOL0     C11612   6.351   3.906   1.567  0.0543 -0.1654 -0.1709
   87MOL0     O11613   6.471   3.881   1.621  0.0695 -0.6022 -0.0976
   87MOL0     C11614   6.577   3.873   1.536  0.1325  0.3005 -0.0380
   87MOL0     C11615   6.589   3.754   1.459  0.2291 -0.7386 -0.1932
   87MOL0     C11616   6.697   3.726   1.385 -0.2275  0.2075  0.6075
   87MOL0     C11617   6.811   3.811   1.395  0.1789  0.9575 -1.0778
   87MOL0     O11618   6.921   3.788   1.313  0.9261 -0.6963 -0.1992
   87MOL0     C11619   6.958   3.662   1.269  0.2731  0.1507 -0.1533
   87MOL0     C11620   7.091   3.675   1.192 -0.4828  0.7035  0.4265
   87MOL0     C11621   7.112   3.558   1.100  0.6590  0.3366  0.4093
   87MOL0     C11622   7.164   3.429   1.169  0.1479 -0.5689  0.0559
   87MOL0     C11623   7.183   3.316   1.067  0.5909  0.1680  0.2365
   87MOL0     C11624   7.263   3.200   1.127  0.1201 -0.4638  0.6512
   87MOL0     C11625   7.243   3.078   1.032 -0.0926  0.0015  0.5318
   87MOL0     C11626   7.343   2.967   1.071 -0.0695 -0.7266  0.5668
   87MOL0     N11627   7.348   2.862   0.971 -0.2673 -0.4265  0.3484
   87MOL0     C11628   7.458   2.827   0.895  0.3677  0.8275 -0.3436
   87MOL0     C11629   7.410   2.752   0.793  0.1211 -0.8020  0.0784
   87MOL0     C11630   7.476   2.693   0.667 -0.0762  0.6464  1.0652
   87MOL0     C11631   7.439   2.745   0.525 -1.5118 -0.0388 -0.3356
   87MOL0     C11632   7.293   2.713   0.479  1.1937  0.3523  0.3919
   87MOL0     C11633   7.255   2.790   0.352 -0.6696 -0.0279  0.3297
   87MOL0     O11634   7.117   2.780   0.323  0.1792 -0.2941  0.7188
   87MOL0     C11635   7.083   2.827   0.195  0.1979  0.1565 -0.3880
   87MOL0     C11636   7.159   2.906   0.097  0.2644  0.4568 -0.2208
   87MOL0     C11637   7.119   2.918  -0.039  1.3487  0.1128  0.3104
   87MOL0     C11638   7.218   2.974  -0.136 -0.0609  0.1432  0.4181
   87MOL0     C11639   6.991   2.873  -0.077 -0.3500  0.2140  0.2671
   87MOL0     C11640   6.925   2.895  -0.212  0.3401 -0.0765 -0.0392
   87MOL0     O11641   6.850   2.783  -0.254  0.0773 -0.2086 -0.3251
   87MOL0     C11642   6.797   2.791  -0.382 -0.0844  0.4925  0.3420
   87MOL0     C11643   6.871   2.793  -0.500  0.4706  0.3508 -0.5367
   87MOL0     C11644   6.797   2.801  -0.622  0.8148 -1.0395  0.4720
   87MOL0     C11645   6.653   2.800  -0.626 -0.1263 -0.4718 -0.1130
   87MOL0     O11646   6.583   2.813  -0.742 -0.2123 -0.6210 -1.0482
   87MOL0     C11647   6.649   2.786  -0.864  0.3263 -0.3195  1.6642
   87MOL0     C11648   6.554   2.776  -0.997 -0.0419 -0.6741 -0.7327
   87MOL0     C11649   6.621   2.746  -1.119  0.3328  0.4403  0.1519
   87MOL0     C11650   6.708   2.611  -1.103  0.2213  0.5334 -0.2958
   87MOL0     C11651   6.769   2.566  -1.236  0.1273  0.0678  0.4388
   87MOL0     C11652   6.696   2.448  -1.296  0.6458  0.0508 -0.2375
   87MOL0     C11653   6.777   2.384  -1.416 -0.4982  0.9738  1.0594
   87MOL0     C11654   6.712   2.255  -1.474 -1.1224 -0.0481  0.0817
   87MOL0    Cl11655   6.682   2.135  -1.347  0.3868  0.0166 -0.5100
   87MOL0     C11656   6.582   2.776  -0.508 -0.6497  0.3085 -0.0171
   87MOL0     C11657   6.651   2.783  -0.387  0.3838 -0.2120  0.3146
   87MOL0     O11658   6.964   2.992  -0.279 -0.1192  0.0051  0.2752
   87MOL0     C11659   6.904   2.826   0.026 -0.9634  0.3099 -0.1529
   87MOL0     C11660   6.955   2.792   0.151  0.8264  0.3914  0.1494
   87MOL0     N11661   7.278   2.727   0.820 -0.3657 -0.0496  0.1084
   87MOL0     N11662   7.239   2.794   0.921  0.4415 -0.5508  0.4138
   87MOL0     C11663   6.815   3.915   1.484 -0.9291 -0.2138  0.2618
   87MOL0     C11664   6.698   3.943   1.553  0.4293  0.1622 -0.2796
   87MOL0     C11665   6.239   3.879   1.662  0.1161 -0.9900 -0.2112
   87MOL0     C11666   6.254   3.823   1.785 -0.4198  0.5614 -0.9824
   87MOL0     C11667   6.143   3.777   1.869 -0.1921  0.7482 -0.1463
   87MOL0     C11668   6.020   3.771   1.809  0.1851  0.2242  0.0339
   87MOL0     O11669   5.925   3.702   1.880 -0.3582  0.1680 -0.6895
   87MOL0     C11670   5.790   3.719   1.842  0.2503  0.2077 -0.6758
   87MOL0     C11671   5.744   3.617   1.727 -0.3270  0.8526  0.4272
   87MOL0     C11672   5.592   3.618   1.707  0.1150 -0.4775  0.6004
   87MOL0     C11673   5.534   3.752   1.724  0.3717  0.0448 -0.1939
   87MOL0     C11674   5.580   3.853   1.622 -1.1718  0.6619 -1.0590
   87MOL0     C11675   5.636   3.927   1.540 -0.4544 -0.9959 -0.9662
   87MOL0     C11676   6.001   3.837   1.685 -0.7963  0.0928  0.1286
   87MOL0     C11677   6.107   3.888   1.614 -0.4847  0.6657 -1.1572
   87MOL0     H11678   6.498   3.694   1.458  0.0265 -0.4353  0.1332
   87MOL0     H11679   6.702   3.644   1.315  0.6557 -1.2693  2.3186
   87MOL0     H11680   6.956   3.584   1.345 -1.2666  0.9910  0.7040
   87MOL0     H11681   6.888   3.629   1.192  1.4954  1.4267 -1.8897
   87MOL0     H11682   7.097   3.763   1.128  0.4184  0.2998 -0.0597
   87MOL0     H11683   7.171   3.678   1.267 -3.0943  1.4474  3.3955
   87MOL0     H11684   7.022   3.533   1.043  1.7335 -2.2436 -0.3185
   87MOL0     H11685   7.189   3.581   1.026 -0.8650  1.2250 -0.9780
   87MOL0     H11686   7.261   3.453   1.212 -0.0465 -3.7085  2.5317
   87MOL0     H11687   7.097   3.406   1.252 -1.4608 -1.5890 -1.4448
   87MOL0     H11688   7.082   3.283   1.040  1.0414 -1.8800  0.8562
   87MOL0     H11689   7.232   3.349   0.974  1.2188 -2.3788 -0.4141
   87MOL0     H11690   7.371   3.219   1.134 -0.1532  0.6718  2.1047
   87MOL0     H11691   7.229   3.186   1.229 -1.6554  1.4632  0.3987
   87MOL0     H11692   7.141   3.040   1.039 -1.0613  2.1824 -0.4915
   87MOL0     H11693   7.275   3.102   0.930  2.3499  0.2083  1.2833
   87MOL0     H11694   7.296   2.920   1.158 -0.1408 -1.6646  0.0342
   87MOL0     H11695   7.442   3.001   1.105 -0.8049  0.8650  1.2501
   87MOL0     H11696   7.557   2.867   0.914 -1.1514  4.0366  1.7397
   87MOL0     H11697   7.585   2.706   0.677  0.0196  1.2604 -0.5474
   87MOL0     H11698   7.450   2.587   0.665 -0.2862  0.7004 -0.7239
   87MOL0     H11699   7.509   2.707   0.450 -2.2744 -0.0119 -1.0924
   87MOL0     H11700   7.449   2.853   0.536 -2.5750 -0.1357  2.5438
   87MOL0     H11701   7.223   2.737   0.559  0.1271 -0.1119 -0.3805
   87MOL0     H11702   7.275   2.605   0.469  2.7798 -0.3866  4.0297
   87MOL0     H11703   7.320   2.754   0.272 -3.3414  2.8588 -3.5067
   87MOL0     H11704   7.276   2.896   0.367 -5.0110  0.8641  1.4804
   87MOL0     H11705   7.256   2.943   0.128  0.5988  0.0551 -0.7797
   87MOL0     H11706   7.231   2.895  -0.211 -3.1845  0.4418 -0.6041
   87MOL0     H11707   7.174   3.059  -0.188 -3.4748 -1.5498  0.2313
   87MOL0     H11708   7.313   3.004  -0.091 -0.6445 -0.9432  2.5363
   87MOL0     H11709   6.979   2.796  -0.506  0.6284  1.0614  1.8727
   87MOL0     H11710   6.857   2.810  -0.712  1.3689 -0.5626  0.8752
   87MOL0     H11711   6.733   2.853  -0.884  0.4728 -1.3638 -1.9720
   87MOL0     H11712   6.685   2.683  -0.855  1.3012  0.0519  2.1128
   87MOL0     H11713   6.486   2.693  -0.974  1.3483 -1.1586  2.0055
   87MOL0     H11714   6.507   2.874  -0.988  1.0394 -0.2372  0.6439
   87MOL0     H11715   6.696   2.824  -1.136  2.7706 -1.7663  0.0382
   87MOL0     H11716   6.538   2.734  -1.190  0.6031 -0.8645  0.0146
   87MOL0     H11717   6.788   2.634  -1.032  1.4515  1.7610 -1.9921
   87MOL0     H11718   6.650   2.529  -1.062  0.3490  0.0993 -0.9610
   87MOL0     H11719   6.873   2.537  -1.223  0.1448  0.1455  0.4721
   87MOL0     H11720   6.766   2.641  -1.315 -0.5458 -1.7243 -1.3190
   87MOL0     H11721   6.666   2.369  -1.226 -1.2225 -1.0367 -2.1490
   87MOL0     H11722   6.596   2.474  -1.333 -0.0724 -2.9393 -0.6389
   87MOL0     H11723   6.878   2.354  -1.385  0.2841 -0.8784 -2.6939
   87MOL0     H11724   6.790   2.461  -1.493  2.4173  1.7409  2.1831
   87MOL0     H11725   6.790   2.212  -1.538  1.7011  4.3459  0.1622
   87MOL0     H11726   6.615   2.266  -1.522 -0.9809 -1.6751 -0.6385
   87MOL0     H11727   6.474   2.770  -0.509 -0.5903 -1.8582  0.7720
   87MOL0     H11728   6.588   2.778  -0.299 -2.0614  0.2580 -1.2928
   87MOL0     H11729   6.798   2.817   0.004 -1.6971  2.4145  2.1373
   87MOL0     H11730   6.874   2.755   0.213 -0.1731  0.5376 -1.0277
   87MOL0     H11731   6.898   3.984   1.479 -0.4344 -0.8454 -0.6026
   87MOL0     H11732   6.700   4.016   1.633 -0.8489  2.0821 -1.9035
   87MOL0     H11733   6.359   3.815   1.813 -0.3974  1.3206 -0.8352
   87MOL0     H11734   6.150   3.730   1.966 -5.0623  4.6299  2.5759
   87MOL0     H11735   5.716   3.712   1.922  2.2456 -1.6228  1.1513
   87MOL0     H11736   5.772   3.824   1.819  1.1120  0.1247 -1.8095
   87MOL0     H11737   5.797   3.521   1.739 -1.6303 -0.0592 -0.8488
   87MOL0     H11738   5.776   3.651   1.629  2.9488  0.9013  1.3842
   87MOL0     H11739   5.543   3.561   1.787  1.7086 -0.4068  1.6734
   87MOL0     H11740   5.563   3.559   1.621 -0.4724  0.1589  0.3499
   87MOL0     H11741   5.552   3.788   1.826 -0.2072 -1.3413  0.4286
   87MOL0     H11742   5.425   3.738   1.727  0.3299 -0.0078 -1.4893
   87MOL0     H11743   5.682   4.005   1.482 -1.8148  1.4432  1.0703
   87MOL0     H11744   5.903   3.845   1.640 -0.8547  0.0627  0.2482
   87MOL0     H11745   6.077   3.925   1.516  2.0299  0.1896 -2.1922
   88MOL0     O11746   2.699   6.197   3.754 -0.6308 -0.6662  0.3133
   88MOL0     C11747   2.785   6.285   3.753  0.3442  1.4443  0.2886
   88MOL0     O11748   2.857   6.332   3.858  0.6470  0.4190 -0.1479
   88MOL0     C11749   2.841   6.284   3.989 -0.0746 -0.5883 -0.2853
   88MOL0     C11750   2.717   6.227   4.045 -0.1921 -0.3117 -0.8118
   88MOL0     C11751   2.714   6.175   4.168  0.0207  0.2937 -0.4669
   88MOL0     C11752   2.815   6.178   4.258 -1.0555 -0.1793  0.5856
   88MOL0     O11753   2.798   6.134   4.385 -0.1940  0.4998 -0.1278
   88MOL0     C11754   2.894   6.136   4.490  0.3295  0.5447 -0.5478
   88MOL0     C11755   2.814   6.162   4.612 -0.1875 -0.1691  0.0635
   88MOL0     C11756   2.900   6.151   4.750 -0.6901 -0.0824  0.7899
   88MOL0     C11757   2.921   6.008   4.782 -0.0724 -0.6319 -0.8608
   88MOL0     C11758   3.010   6.009   4.909 -0.1346 -0.5636 -0.1338
   88MOL0     C11759   3.012   5.865   4.942 -0.0202  0.6416 -0.4654
   88MOL0     C11760   3.056   5.853   5.087  0.5056 -1.1034  0.7736
   88MOL0     C11761   3.113   5.724   5.139 -0.0172 -0.1040 -0.6773
   88MOL0     N11762   3.154   5.737   5.277 -0.6849  0.2081 -0.0641
   88MOL0     C11763   3.191   5.631   5.358  0.7159  1.2707  0.2835
   88MOL0     C11764   3.223   5.679   5.481 -0.5076  0.0181  0.5166
   88MOL0     C11765   3.265   5.597   5.591  0.0157  0.4747 -0.3019
   88MOL0     C11766   3.143   5.564   5.683  1.1571 -0.6474  0.0108
   88MOL0     C11767   3.202   5.477   5.796 -0.2663 -0.1056 -0.2919
   88MOL0     C11768   3.087   5.440   5.900  0.4189  0.2145 -0.0233
   88MOL0     O11769   2.998   5.551   5.943  0.2650  0.3028  0.7535
   88MOL0     C11770   2.910   5.533   6.042  1.1305 -0.3068 -0.1432
   88MOL0     C11771   2.841   5.639   6.099  0.1891 -0.5875  0.0608
   88MOL0     C11772   2.749   5.627   6.204 -0.6523 -0.2559  0.0646
   88MOL0     C11773   2.682   5.750   6.252  0.1252  0.6752  0.6416
   88MOL0     C11774   2.729   5.502   6.261 -0.7079  1.0523 -0.1413
   88MOL0     C11775   2.640   5.477   6.377  0.1179 -0.5253  0.0896
   88MOL0     O11776   2.537   5.549   6.397 -0.5283  0.1227 -0.1609
   88MOL0     C11777   2.454   5.514   6.500 -0.5612  0.2140 -0.4230
   88MOL0     C11778   2.350   5.420   6.479  1.2589  0.7978  0.1810
   88MOL0     C11779   2.287   5.372   6.602 -0.1600 -0.2945 -1.1483
   88MOL0     C11780   2.328   5.418   6.729 -0.3619 -0.2242  0.3449
   88MOL0     O11781   2.264   5.390   6.852 -0.1249  0.2454  0.1044
   88MOL0     C11782   2.124   5.398   6.834 -0.1365 -0.3924 -0.3848
   88MOL0     C11783   2.043   5.346   6.963 -0.1987  0.7302  0.2933
   88MOL0     C11784   1.894   5.386   6.967 -0.4592 -0.2227  0.5066
   88MOL0     C11785   1.805   5.281   6.898  0.3012  0.7691 -0.9058
   88MOL0     C11786   1.666   5.321   6.939  0.5198  0.0434 -0.3338
   88MOL0     C11787   1.620   5.462   6.894 -0.4453  0.3026 -0.3841
   88MOL0     C11788   1.630   5.492   6.738 -0.4394 -1.2053  0.6062
   88MOL0     C11789   1.612   5.636   6.705 -0.0353  0.8873  0.0053
   88MOL0    Cl11790   1.445   5.691   6.739 -0.1392  0.2846  0.3266
   88MOL0     C11791   2.440   5.503   6.739  0.5196 -0.2487 -0.3909
   88MOL0     C11792   2.499   5.555   6.628 -0.2603 -0.0360  0.3110
   88MOL0     O11793   2.679   5.384   6.440 -0.3270  0.2920 -0.7492
   88MOL0     C11794   2.786   5.391   6.202 -0.0547  0.0303  0.1143
   88MOL0     C11795   2.876   5.410   6.091 -0.4708 -0.5078 -0.3967
   88MOL0     N11796   3.233   5.820   5.472  0.9328  0.4622  0.5524
   88MOL0     N11797   3.176   5.846   5.353 -0.4013  0.2813 -0.9358
   88MOL0     C11798   2.935   6.240   4.213  0.1706  0.0649 -0.4314
   88MOL0     C11799   2.951   6.281   4.077  0.0927  0.9004 -0.2138
   88MOL0     C11800   2.786   6.359   3.632 -0.1705  0.2658 -0.6434
   88MOL0     C11801   2.824   6.491   3.631 -0.2662 -0.2297 -0.8916
   88MOL0     C11802   2.816   6.565   3.507 -0.5229 -1.2853 -1.1246
   88MOL0     C11803   2.791   6.500   3.384  0.0353  0.3409  0.3241
   88MOL0     O11804   2.778   6.574   3.270  0.5974 -0.0841 -0.5828
   88MOL0     C11805   2.704   6.536   3.149 -0.4487 -0.8333  0.2901
   88MOL0     C11806   2.636   6.657   3.078  0.4673 -0.6224 -0.6930
   88MOL0     C11807   2.562   6.748   3.179  0.2821 -0.9881  0.1226
   88MOL0     C11808   2.445   6.663   3.233  0.5619 -0.7941  0.2428
   88MOL0     C11809   2.464   6.594   3.356  0.0531 -0.8694 -0.0207
   88MOL0     C11810   2.476   6.551   3.469  0.3931 -0.6989 -0.0134
   88MOL0     C11811   2.758   6.359   3.394  0.1461  0.0970 -0.3741
   88MOL0     C11812   2.734   6.294   3.513  0.3532 -0.0092 -0.8613
   88MOL0     H11813   2.633   6.217   3.978 -1.0751  2.4213 -0.2400
   88MOL0     H11814   2.619   6.137   4.203  1.5429 -2.3852  1.0821
   88MOL0     H11815   2.940   6.038   4.493 -0.5457  0.0916 -1.3427
   88MOL0     H11816   2.971   6.212   4.472 -0.4593  1.6625  0.6039
   88MOL0     H11817   2.775   6.264   4.607  1.7385  0.7285  1.8650
   88MOL0     H11818   2.717   6.112   4.614 -1.4821  2.1605  2.1774
   88MOL0     H11819   2.988   6.214   4.732 -0.8621 -0.1954 -0.5264
   88MOL0     H11820   2.849   6.203   4.831  1.5990 -0.3312  2.4892
   88MOL0     H11821   2.821   5.966   4.797  0.1670 -1.6172 -1.8805
   88MOL0     H11822   2.963   5.937   4.711  1.0449 -3.7243  2.6029
   88MOL0     H11823   3.105   6.054   4.879 -0.1712 -0.1485  0.3426
   88MOL0     H11824   2.960   6.067   4.987 -0.3155  0.6051 -1.0847
   88MOL0     H11825   2.908   5.831   4.937  0.5251 -1.3178  0.5821
   88MOL0     H11826   3.077   5.809   4.874 -1.6713 -0.6385 -1.0362
   88MOL0     H11827   3.135   5.927   5.104  1.3747 -2.2049  1.7334
   88MOL0     H11828   2.967   5.877   5.145 -0.1222  0.2738 -0.6930
   88MOL0     H11829   3.201   5.679   5.090 -0.3286  1.5604 -2.9243
   88MOL0     H11830   3.026   5.658   5.129 -1.6991  1.9547 -0.2572
   88MOL0     H11831   3.206   5.525   5.342  6.7709  1.5635  1.6580
   88MOL0     H11832   3.307   5.503   5.555  1.5453  1.8292 -2.2826
   88MOL0     H11833   3.339   5.659   5.642 -1.8437  2.1346  0.5060
   88MOL0     H11834   3.067   5.510   5.625  2.8738 -0.7972 -2.2501
   88MOL0     H11835   3.096   5.659   5.710  0.9093 -0.4431 -1.0980
   88MOL0     H11836   3.281   5.536   5.843  1.1455 -0.0624 -2.5921
   88MOL0     H11837   3.246   5.383   5.763  3.2080  1.3533 -0.2451
   88MOL0     H11838   3.134   5.388   5.985 -1.6907 -0.5950  0.7087
   88MOL0     H11839   3.019   5.376   5.843  0.3694 -0.7988  1.1054
   88MOL0     H11840   2.871   5.735   6.057 -1.8119 -0.0733 -0.3082
   88MOL0     H11841   2.680   5.755   6.361  1.1613  0.5421  0.6804
   88MOL0     H11842   2.739   5.835   6.214  1.7553  1.2686  3.9719
   88MOL0     H11843   2.580   5.742   6.215  0.4045 -0.7059  0.1097
   88MOL0     H11844   2.324   5.390   6.378  1.5019 -0.2666  0.4164
   88MOL0     H11845   2.209   5.298   6.605  0.2295 -0.6850  0.6993
   88MOL0     H11846   2.082   5.497   6.813 -0.3360 -0.3514  0.1779
   88MOL0     H11847   2.097   5.330   6.752  0.0824 -0.7996 -0.1225
   88MOL0     H11848   2.043   5.236   6.964 -2.5248  0.6240  2.7569
   88MOL0     H11849   2.084   5.379   7.059 -5.3726  2.7715  2.2011
   88MOL0     H11850   1.886   5.483   6.918 -1.5142 -0.9506 -0.7976
   88MOL0     H11851   1.861   5.398   7.071  0.0873 -2.6722  1.0209
   88MOL0     H11852   1.808   5.280   6.789  0.9507  2.5818 -0.9478
   88MOL0     H11853   1.829   5.183   6.939  2.0718  1.4747 -0.1619
   88MOL0     H11854   1.664   5.310   7.048  2.6795  1.9373 -0.0247
   88MOL0     H11855   1.600   5.254   6.884  0.8629 -2.0679  1.6701
   88MOL0     H11856   1.519   5.466   6.935 -1.6375  1.9496 -3.2353
   88MOL0     H11857   1.682   5.538   6.943  2.8639 -0.1003 -3.4969
   88MOL0     H11858   1.564   5.436   6.672  0.2584 -1.2262 -0.0989
   88MOL0     H11859   1.738   5.477   6.724  0.9142  4.1404  2.6644
   88MOL0     H11860   1.646   5.646   6.602  1.4072 -4.2830 -0.3091
   88MOL0     H11861   1.683   5.693   6.765  0.8252  0.9600 -1.0547
   88MOL0     H11862   2.483   5.538   6.832 -0.2214 -0.6986  0.1286
   88MOL0     H11863   2.596   5.602   6.644  0.9294 -1.3272 -2.5337
   88MOL0     H11864   2.761   5.290   6.234  0.0132 -0.6522 -1.8410
   88MOL0     H11865   2.917   5.316   6.057  1.7454  1.0695 -2.4929
   88MOL0     H11866   3.026   6.244   4.272  1.4206  0.4561 -2.2964
   88MOL0     H11867   3.039   6.322   4.029  0.9495 -1.0880 -0.4614
   88MOL0     H11868   2.866   6.537   3.720 -0.1927  1.5721 -1.8100
   88MOL0     H11869   2.833   6.673   3.502  1.7442 -1.4746  0.6197
   88MOL0     H11870   2.779   6.503   3.076 -0.8437  1.4208 -1.2066
   88MOL0     H11871   2.624   6.463   3.163 -2.3118  0.8956 -0.8303
   88MOL0     H11872   2.568   6.632   2.996  2.2383 -4.7239 -1.2073
   88MOL0     H11873   2.713   6.715   3.026 -0.6222  1.0402 -0.5034
   88MOL0     H11874   2.514   6.834   3.133 -2.1567  0.0342  4.1258
   88MOL0     H11875   2.630   6.778   3.259  1.5416  0.5652 -1.4395
   88MOL0     H11876   2.406   6.606   3.148 -1.0636  0.8841 -0.2288
   88MOL0     H11877   2.367   6.733   3.264 -1.5342 -2.5000 -0.9276
   88MOL0     H11878   2.493   6.500   3.562 -0.4525 -1.5452 -0.2972
   88MOL0     H11879   2.725   6.314   3.301  1.5767 -1.1448 -0.3147
   88MOL0     H11880   2.701   6.191   3.514 -1.2932  0.4860 -1.4144
   89MOL0     O11881   0.652  11.143  10.771 -0.4946  0.4384  0.5116
   89MOL0     C11882   0.736  11.176  10.853  1.4440 -0.0601  0.1067
   89MOL0     O11883   0.715  11.273  10.953  0.1647  0.2760 -0.9384
   89MOL0     C11884   0.582  11.319  10.949 -0.3403  0.4473  0.2717
   89MOL0     C11885   0.465  11.262  11.002 -0.1684  0.3353 -0.3598
   89MOL0     C11886   0.337  11.312  10.983 -0.1528 -0.4832  0.9706
   89MOL0     C11887   0.315  11.425  10.908  0.1354 -0.7369  1.3599
   89MOL0     O11888   0.183  11.459  10.880  0.0203 -0.2280  0.4222
   89MOL0     C11889   0.158  11.573  10.795  0.4984  0.3108  1.0697
   89MOL0     C11890   0.032  11.538  10.716  0.0050  0.8525 -0.1461
   89MOL0     C11891  -0.101  11.546  10.798 -0.0721 -0.2286  0.5099
   89MOL0     C11892  -0.145  11.692  10.814  0.3016 -0.2792  0.8658
   89MOL0     C11893  -0.273  11.713  10.894  0.2269 -0.5756  0.2520
   89MOL0     C11894  -0.398  11.673  10.825  0.6243 -0.3975 -0.3703
   89MOL0     C11895  -0.519  11.702  10.909  0.6624 -0.6517 -0.1826
   89MOL0     C11896  -0.663  11.667  10.865  0.5343  0.9837  1.0633
   89MOL0     N11897  -0.691  11.715  10.724 -0.0073  1.1596 -0.3073
   89MOL0     C11898  -0.716  11.843  10.698 -0.2395  0.7158 -0.6838
   89MOL0     C11899  -0.711  11.866  10.564 -0.7902 -0.2724 -0.0515
   89MOL0     C11900  -0.722  12.001  10.493  0.4576  0.1030 -0.2997
   89MOL0     C11901  -0.748  11.982  10.344  0.5177 -0.1113  0.6111
   89MOL0     C11902  -0.752  12.125  10.284 -1.2611  1.0869 -0.8610
   89MOL0     C11903  -0.753  12.130  10.128 -0.7193  0.3862  0.4125
   89MOL0     O11904  -0.835  12.245  10.103  0.9616  0.1186  1.0196
   89MOL0     C11905  -0.765  12.357  10.121  0.6462  1.0205 -0.1690
   89MOL0     C11906  -0.781  12.436  10.240 -0.3273 -1.5986  0.1617
   89MOL0     C11907  -0.709  12.560  10.253  0.0755  0.3805 -0.2444
   89MOL0     C11908  -0.726  12.625  10.395 -0.4210 -0.1834 -0.1822
   89MOL0     C11909  -0.631  12.608  10.146 -0.1065 -0.1099 -0.6314
   89MOL0     C11910  -0.573  12.747  10.156 -0.8760  0.8478 -0.3520
   89MOL0     O11911  -0.486  12.773  10.051  0.1300 -1.0602  0.2512
   89MOL0     C11912  -0.389  12.867  10.080  0.1606 -1.1727  0.2893
   89MOL0     C11913  -0.318  12.888  10.203  0.4178 -1.4186 -0.4429
   89MOL0     C11914  -0.245  13.009  10.210 -1.2482  0.1368  0.3721
   89MOL0     C11915  -0.240  13.093  10.108 -0.9341  0.6692  0.9133
   89MOL0     O11916  -0.168  13.206  10.112  0.0290 -0.0469 -0.4427
   89MOL0     C11917  -0.193  13.286  10.224  0.4115  0.5713  0.6217
   89MOL0     C11918  -0.061  13.348  10.261 -0.6229  1.1409 -0.5839
   89MOL0     C11919   0.006  13.428  10.150  0.2090 -0.3648  0.0097
   89MOL0     C11920   0.137  13.505  10.202  0.8407 -0.6341  0.0996
   89MOL0     C11921   0.080  13.636  10.284  0.8745  0.6540  0.2657
   89MOL0     C11922   0.177  13.757  10.276  0.1768  0.0501  0.5122
   89MOL0     C11923   0.113  13.856  10.366  0.0983 -0.0284  0.1888
   89MOL0     C11924   0.170  14.000  10.355 -0.4249 -0.3793 -0.1703
   89MOL0    Cl11925   0.342  13.997  10.373  0.0010  0.1543 -0.7324
   89MOL0     C11926  -0.297  13.079   9.989 -0.5876  0.3579 -0.3236
   89MOL0     C11927  -0.374  12.960   9.981  0.4607 -0.8689  0.6987
   89MOL0     O11928  -0.597  12.828  10.237  0.4586 -1.0711 -0.3996
   89MOL0     C11929  -0.627  12.530  10.035  0.5642 -0.4608 -1.1879
   89MOL0     C11930  -0.688  12.406  10.021  0.8443 -0.4032 -0.4698
   89MOL0     N11931  -0.672  11.744  10.503 -0.2899  0.7045  0.0687
   89MOL0     N11932  -0.666  11.651  10.602 -0.3039 -0.1177 -0.4682
   89MOL0     C11933   0.430  11.488  10.857  0.3045  0.4538  0.0284
   89MOL0     C11934   0.559  11.430  10.883  0.4780 -0.0146  0.3235
   89MOL0     C11935   0.883  11.125  10.847  0.4583  0.3693  0.4279
   89MOL0     C11936   0.965  11.138  10.955 -0.6184  0.5205 -0.0406
   89MOL0     C11937   1.094  11.086  10.956  0.8803 -0.1624  1.0484
   89MOL0     C11938   1.144  11.034  10.837  0.1370 -0.9950 -0.2174
   89MOL0     O11939   1.274  11.002  10.832 -0.0623 -0.5615 -0.7421
   89MOL0     C11940   1.329  10.959  10.707 -0.9170 -0.7408 -0.0556
   89MOL0     C11941   1.484  10.939  10.725 -0.6501  0.1951 -0.3180
   89MOL0     C11942   1.562  11.069  10.751  0.5520 -0.1700 -0.9075
   89MOL0     C11943   1.700  11.043  10.811  0.2818 -0.2636  0.3772
   89MOL0     C11944   1.776  11.155  10.862 -0.0850  0.0459  0.1245
   89MOL0     C11945   1.840  11.254  10.894  0.5129 -0.6676 -0.5518
   89MOL0     C11946   1.054  11.015  10.728 -0.2986  0.3846 -0.3360
   89MOL0     C11947   0.925  11.060  10.732  0.3809  0.0508 -0.2072
   89MOL0     H11948   0.502  11.176  11.056  0.2601 -1.0219 -2.6893
   89MOL0     H11949   0.258  11.267  11.042  1.6792 -1.6948  2.6136
   89MOL0     H11950   0.155  11.668  10.850 -1.2373  1.1987 -0.4827
   89MOL0     H11951   0.228  11.595  10.714 -3.2816 -0.3676 -2.6930
   89MOL0     H11952   0.022  11.602  10.628  2.6025  2.4324  0.6237
   89MOL0     H11953   0.045  11.434  10.685  0.7269  1.1162 -0.7473
   89MOL0     H11954  -0.181  11.495  10.744 -0.4517  2.2748 -1.4904
   89MOL0     H11955  -0.077  11.494  10.891  1.6389 -0.3438  0.0281
   89MOL0     H11956  -0.074  11.753  10.870 -1.5749  2.8018  0.1471
   89MOL0     H11957  -0.155  11.739  10.716 -0.8822 -0.0116  1.1007
   89MOL0     H11958  -0.247  11.652  10.981 -0.1734 -3.6978 -1.6497
   89MOL0     H11959  -0.276  11.818  10.926  1.9387 -0.2132 -0.6438
   89MOL0     H11960  -0.409  11.721  10.727 -1.0361 -2.6929 -1.4193
   89MOL0     H11961  -0.401  11.565  10.804 -0.1889 -0.1891 -1.4080
   89MOL0     H11962  -0.507  11.666  11.012  0.1781  2.1967  0.9577
   89MOL0     H11963  -0.519  11.810  10.923 -0.6333  0.0423 -4.1686
   89MOL0     H11964  -0.737  11.717  10.928  1.6449  2.1167  1.5262
   89MOL0     H11965  -0.679  11.560  10.878  2.7346  0.7181  2.0193
   89MOL0     H11966  -0.737  11.916  10.776  2.6209  0.1276  0.7724
   89MOL0     H11967  -0.792  12.074  10.535 -0.4040 -0.2822 -1.0283
   89MOL0     H11968  -0.626  12.052  10.502 -0.0928  0.7321  3.2771
   89MOL0     H11969  -0.847  11.942  10.326 -1.5712  4.1813  1.1250
   89MOL0     H11970  -0.674  11.913  10.303  0.7357  1.2723 -1.4369
   89MOL0     H11971  -0.665  12.173  10.329  0.0633 -4.0246  2.9705
   89MOL0     H11972  -0.851  12.161  10.315 -2.9635 -3.7875  0.3543
   89MOL0     H11973  -0.793  12.041  10.078 -1.1133 -0.6201  2.4170
   89MOL0     H11974  -0.649  12.131  10.097  0.5273  0.8821  4.1071
   89MOL0     H11975  -0.843  12.405  10.324 -3.3693 -0.7738 -1.6257
   89MOL0     H11976  -0.820  12.591  10.439 -0.2564  3.0182  3.0487
   89MOL0     H11977  -0.643  12.610  10.464 -0.8682 -1.3064  0.1342
   89MOL0     H11978  -0.741  12.733  10.401 -0.1804 -0.2445  3.3979
   89MOL0     H11979  -0.331  12.817  10.284  2.5884 -1.7813 -0.3519
   89MOL0     H11980  -0.188  13.016  10.302 -2.4404 -2.0352  1.3448
   89MOL0     H11981  -0.269  13.360  10.198  1.8165  2.2199  0.9488
   89MOL0     H11982  -0.232  13.230  10.309 -2.6395  0.8320 -0.5062
   89MOL0     H11983  -0.087  13.404  10.351 -0.7527 -2.8310  2.1244
   89MOL0     H11984   0.015  13.273  10.289 -2.0008  0.4233  1.3988
   89MOL0     H11985  -0.067  13.501  10.116 -0.3269  0.6315  3.0768
   89MOL0     H11986   0.028  13.365  10.062  4.6297 -1.1547  1.4047
   89MOL0     H11987   0.188  13.445  10.277  0.5389  0.6409  1.3756
   89MOL0     H11988   0.186  13.534  10.109 -1.8356 -1.0359 -1.5545
   89MOL0     H11989   0.060  13.617  10.390  0.3388 -3.0820 -0.3437
   89MOL0     H11990  -0.013  13.671  10.239  0.9422  2.2859  1.3234
   89MOL0     H11991   0.272  13.730  10.322  1.0890 -1.9640 -2.2639
   89MOL0     H11992   0.176  13.780  10.169  0.0433  0.6169  0.6329
   89MOL0     H11993   0.118  13.822  10.470  0.2403  2.5378  1.0994
   89MOL0     H11994   0.006  13.865  10.344  0.4474  5.6394 -0.6927
   89MOL0     H11995   0.126  14.070  10.426  2.5300  1.0710  0.3797
   89MOL0     H11996   0.138  14.044  10.261 -1.1938 -0.3676  0.0894
   89MOL0     H11997  -0.309  13.149   9.906 -4.3367 -1.3117 -1.4369
   89MOL0     H11998  -0.425  12.950   9.886  0.4399 -1.6629  0.7888
   89MOL0     H11999  -0.587  12.559   9.938  1.1602  1.7875 -0.3412
   89MOL0     H12000  -0.689  12.361   9.922 -1.8585  0.1860 -0.8004
   89MOL0     H12001   0.427  11.579  10.799 -0.9118 -0.0028 -0.6644
   89MOL0     H12002   0.640  11.487  10.839 -1.2513  3.2399  0.9935
   89MOL0     H12003   0.941  11.198  11.043 -0.6536 -2.6177  2.2542
   89MOL0     H12004   1.153  11.096  11.047  0.0704 -0.3435  1.5971
   89MOL0     H12005   1.301  10.858  10.675 -1.1761 -0.7851  0.3023
   89MOL0     H12006   1.306  11.033  10.630  2.4730 -1.3842 -1.9100
   89MOL0     H12007   1.541  10.889  10.646 -0.3691 -1.2296  0.7460
   89MOL0     H12008   1.505  10.885  10.818  1.3290  1.2746 -0.0543
   89MOL0     H12009   1.500  11.126  10.821 -0.4864 -0.9610 -1.1487
   89MOL0     H12010   1.583  11.118  10.656  5.2871  1.9908  0.9276
   89MOL0     H12011   1.770  11.020  10.730  1.4574 -1.0660  1.5722
   89MOL0     H12012   1.697  10.968  10.890 -1.8485  0.6524  1.2340
   89MOL0     H12013   1.902  11.335  10.927 -1.2323  0.5511 -0.1519
   89MOL0     H12014   1.069  10.953  10.640 -1.1576 -2.3425  1.3420
   89MOL0     H12015   0.861  11.034  10.648 -0.6437 -0.5041  0.7106
   90MOL0     O12016   8.899   2.086   2.731 -0.5557  0.3724 -0.1652
   90MOL0     C12017   8.898   2.082   2.608  0.0555 -0.8917 -0.5618
   90MOL0     O12018   8.847   1.978   2.535 -0.2418  0.4362 -0.1172
   90MOL0     C12019   8.822   1.859   2.601 -0.1758  0.1779 -0.5923
   90MOL0     C12020   8.722   1.852   2.704  0.5811 -0.2721 -0.2419
   90MOL0     C12021   8.707   1.734   2.775  0.2100  0.2315 -0.3151
   90MOL0     C12022   8.790   1.626   2.747  0.1273  0.8252 -1.1889
   90MOL0     O12023   8.771   1.510   2.818  0.3333 -0.3053 -0.5790
   90MOL0     C12024   8.883   1.450   2.884  0.2499 -0.5055 -0.9855
   90MOL0     C12025   8.871   1.295   2.914  0.0279  0.7191  0.8005
   90MOL0     C12026   8.974   1.237   3.021  0.1398  0.3310 -0.0219
   90MOL0     C12027   8.930   1.090   3.047 -1.1036  0.0642 -0.3557
   90MOL0     C12028   9.017   0.988   3.115  0.4551  0.9875  0.1438
   90MOL0     C12029   9.125   0.934   3.028 -0.3321 -0.1916  0.0291
   90MOL0     C12030   9.260   0.950   3.108  0.4842 -0.2711 -0.1290
   90MOL0     C12031   9.295   0.872   3.237  0.6289 -0.4965 -0.4838
   90MOL0     N12032   9.302   0.728   3.199  0.6751  0.1276 -0.3465
   90MOL0     C12033   9.206   0.629   3.215 -0.4008  0.4560  0.0354
   90MOL0     C12034   9.259   0.520   3.145 -1.2873  0.5792 -0.0315
   90MOL0     C12035   9.187   0.388   3.140 -0.1986 -0.5522  0.8196
   90MOL0     C12036   9.280   0.286   3.063  0.3705 -0.5525  0.3820
   90MOL0     C12037   9.218   0.145   3.051 -0.1930 -0.2360 -0.3476
   90MOL0     C12038   9.328   0.043   3.017  0.9060  0.2647 -0.9410
   90MOL0     O12039   9.268  -0.090   2.983 -0.5100  0.2768 -0.3871
   90MOL0     C12040   9.347  -0.197   2.934  1.2237  0.3451  0.2486
   90MOL0     C12041   9.476  -0.227   2.972 -0.1047  0.9142 -0.2169
   90MOL0     C12042   9.536  -0.347   2.931 -0.0004 -0.2705 -0.1284
   90MOL0     C12043   9.674  -0.368   2.973  0.2631 -0.6339  0.3139
   90MOL0     C12044   9.470  -0.439   2.849 -0.2814 -0.2341 -0.1743
   90MOL0     C12045   9.529  -0.565   2.794 -0.1076 -0.3911  0.0475
   90MOL0     O12046   9.480  -0.606   2.676 -0.2653 -0.2921  0.1627
   90MOL0     C12047   9.540  -0.708   2.600 -0.7663  0.0536 -0.1457
   90MOL0     C12048   9.448  -0.769   2.517  0.7350 -1.2747 -0.6610
   90MOL0     C12049   9.483  -0.862   2.431  0.1617 -0.1882 -0.7304
   90MOL0     C12050   9.609  -0.914   2.426 -0.4287  0.4786  0.1782
   90MOL0     O12051   9.638  -1.009   2.327  0.8901 -0.5036 -0.6135
   90MOL0     C12052   9.773  -1.056   2.313 -0.2836 -0.2533  0.4773
   90MOL0     C12053   9.776  -1.171   2.210  0.3133 -1.1990  0.2519
   90MOL0     C12054   9.914  -1.250   2.216 -0.4900  0.4584  0.0636
   90MOL0     C12055   9.888  -1.396   2.179 -0.8589 -0.4258  0.1009
   90MOL0     C12056   9.894  -1.411   2.026  0.7504 -0.4713  0.6660
   90MOL0     C12057   9.797  -1.510   1.962 -0.2657  0.3496 -0.3488
   90MOL0     C12058   9.827  -1.496   1.815  0.1072 -0.0961 -0.1322
   90MOL0     C12059   9.754  -1.603   1.733  0.4159 -0.0053 -0.1343
   90MOL0    Cl12060   9.586  -1.567   1.690 -0.1343  0.0290  0.0295
   90MOL0     C12061   9.710  -0.857   2.503 -0.2492 -0.4570 -0.1360
   90MOL0     C12062   9.671  -0.757   2.594 -0.7229 -0.0894  0.0403
   90MOL0     O12063   9.607  -0.628   2.871  0.6215  0.4756 -0.2094
   90MOL0     C12064   9.338  -0.396   2.805  0.1844  0.2917  0.1871
   90MOL0     C12065   9.277  -0.281   2.846 -0.6875 -0.1022 -0.4258
   90MOL0     N12066   9.385   0.557   3.104 -0.4824 -0.5111 -0.0924
   90MOL0     N12067   9.413   0.677   3.133  0.2839 -0.3060 -0.1338
   90MOL0     C12068   8.890   1.640   2.650  0.3683  1.0857  0.1563
   90MOL0     C12069   8.905   1.751   2.575  0.3582  0.2599  0.7162
   90MOL0     C12070   8.936   2.204   2.540 -0.7418 -0.7260 -0.6649
   90MOL0     C12071   8.942   2.207   2.401 -0.3418  1.6431 -0.5536
   90MOL0     C12072   9.008   2.309   2.334 -0.5451 -1.2844  0.1054
   90MOL0     C12073   9.064   2.419   2.403 -0.7139  0.1943  0.2169
   90MOL0     O12074   9.148   2.510   2.337 -0.2527  0.8171  0.1298
   90MOL0     C12075   9.127   2.643   2.352 -0.0217 -0.3955  0.4055
   90MOL0     C12076   9.015   2.686   2.260 -0.3340  0.0380  0.7112
   90MOL0     C12077   9.042   2.819   2.193  0.4931  0.4567 -0.2744
   90MOL0     C12078   8.928   2.862   2.103  0.1380 -0.0971  0.1866
   90MOL0     C12079   8.963   2.992   2.054  0.2391 -1.0105  0.3281
   90MOL0     C12080   8.988   3.111   2.037  0.5540 -0.6661 -0.0827
   90MOL0     C12081   9.051   2.418   2.538  0.7678 -0.1993 -0.5735
   90MOL0     C12082   8.990   2.316   2.608 -1.3337 -0.2857 -0.3343
   90MOL0     H12083   8.652   1.930   2.731 -0.5866 -1.8195  1.4230
   90MOL0     H12084   8.638   1.735   2.859 -1.5749 -0.5353 -1.6932
   90MOL0     H12085   8.978   1.471   2.834 -0.7027  0.4843 -2.4527
   90MOL0     H12086   8.903   1.521   2.965 -0.0199  0.6350 -1.8905
   90MOL0     H12087   8.766   1.269   2.932  0.1309  1.0324  1.9422
   90MOL0     H12088   8.902   1.244   2.823 -0.6862 -0.4726  1.2008
   90MOL0     H12089   9.078   1.233   2.988  0.1575  1.5624 -0.1764
   90MOL0     H12090   8.962   1.300   3.110  2.8765 -0.8892  1.3595
   90MOL0     H12091   8.832   1.089   3.096 -1.3572 -0.8916 -0.8370
   90MOL0     H12092   8.908   1.046   2.949  1.4416  2.0610 -1.9494
   90MOL0     H12093   9.051   1.038   3.206 -2.9850 -1.6911  3.1886
   90MOL0     H12094   8.945   0.910   3.141  0.0421  1.2915 -0.0688
   90MOL0     H12095   9.122   0.825   3.019 -0.0412 -0.5468  3.1283
   90MOL0     H12096   9.125   0.987   2.932  0.2300 -2.9956 -1.6513
   90MOL0     H12097   9.344   0.928   3.041  1.5105  0.7210  0.7801
   90MOL0     H12098   9.265   1.055   3.137  0.7354 -0.7740  1.7605
   90MOL0     H12099   9.216   0.892   3.309  0.6969  1.7456 -0.9593
   90MOL0     H12100   9.392   0.896   3.281 -0.8217 -1.4345  3.5870
   90MOL0     H12101   9.112   0.634   3.270 -0.5199  0.3596 -0.1589
   90MOL0     H12102   9.164   0.359   3.243 -0.5006  1.9734  1.5409
   90MOL0     H12103   9.096   0.392   3.080  0.4621  3.7759 -0.2150
   90MOL0     H12104   9.377   0.286   3.114  0.3187  1.9092  0.5843
   90MOL0     H12105   9.316   0.326   2.967  3.1855 -1.5378  0.9381
   90MOL0     H12106   9.141   0.144   2.973 -2.4183 -1.0514  1.7214
   90MOL0     H12107   9.164   0.130   3.145 -3.4668 -3.0677 -2.4366
   90MOL0     H12108   9.382   0.030   3.111 -0.9597 -1.1840  0.0162
   90MOL0     H12109   9.397   0.071   2.937  4.2112 -2.0441  0.8331
   90MOL0     H12110   9.529  -0.164   3.042 -0.2338 -0.4474  1.1558
   90MOL0     H12111   9.723  -0.287   3.029 -0.0856  0.3124 -0.7061
   90MOL0     H12112   9.671  -0.463   3.028  0.4107 -0.8748 -0.0897
   90MOL0     H12113   9.727  -0.383   2.878 -3.8022 -1.1814 -2.0900
   90MOL0     H12114   9.345  -0.735   2.514  0.5159 -1.9011 -3.4936
   90MOL0     H12115   9.408  -0.902   2.363 -0.0128 -1.7193  0.3004
   90MOL0     H12116   9.837  -0.977   2.272 -0.1736 -1.5258 -2.0108
   90MOL0     H12117   9.809  -1.086   2.412 -1.3086 -0.2501  0.8625
   90MOL0     H12118   9.693  -1.238   2.235 -0.2325 -0.8406 -0.5767
   90MOL0     H12119   9.742  -1.140   2.111 -2.5458 -1.2378  1.1132
   90MOL0     H12120   9.955  -1.247   2.317  0.3180 -2.6152 -0.0782
   90MOL0     H12121   9.988  -1.209   2.147 -0.7150 -1.2031 -1.2284
   90MOL0     H12122   9.970  -1.449   2.229  0.8319  1.3408 -0.6582
   90MOL0     H12123   9.789  -1.430   2.211 -2.1998  1.5326 -1.7205
   90MOL0     H12124   9.999  -1.432   2.006  0.5721 -0.7349 -0.0206
   90MOL0     H12125   9.869  -1.316   1.978 -0.1293 -0.8401  0.3842
   90MOL0     H12126   9.803  -1.611   2.003 -0.9393  0.9400  1.2590
   90MOL0     H12127   9.699  -1.469   1.988  1.8636  5.6294  0.5789
   90MOL0     H12128   9.930  -1.515   1.785  0.5895  0.6125  1.0088
   90MOL0     H12129   9.810  -1.391   1.786 -1.6515 -0.1295  0.6460
   90MOL0     H12130   9.760  -1.699   1.785  1.2251 -0.4841 -1.0778
   90MOL0     H12131   9.810  -1.598   1.638 -0.3582 -1.0525 -0.6642
   90MOL0     H12132   9.814  -0.888   2.499 -0.1689 -0.0511 -2.7512
   90MOL0     H12133   9.740  -0.712   2.665  1.6503 -0.4797 -1.9129
   90MOL0     H12134   9.284  -0.470   2.747 -3.0754  0.1004  3.0920
   90MOL0     H12135   9.173  -0.259   2.826 -1.4043  2.3279  4.4964
   90MOL0     H12136   8.951   1.554   2.626 -2.3325 -1.0461  0.4141
   90MOL0     H12137   8.989   1.748   2.506 -0.4496 -0.7773 -0.2716
   90MOL0     H12138   8.904   2.120   2.348 -1.3900 -0.2072  2.9399
   90MOL0     H12139   9.030   2.304   2.228  0.2392  0.6747  0.1330
   90MOL0     H12140   9.096   2.674   2.452  3.9077  1.3263  1.2939
   90MOL0     H12141   9.219   2.697   2.326 -0.0197  0.4004  1.9632
   90MOL0     H12142   8.929   2.709   2.324 -1.1653  0.2147 -0.4385
   90MOL0     H12143   8.989   2.604   2.192  1.0164 -3.2004  3.7895
   90MOL0     H12144   9.130   2.808   2.128  1.1200 -3.6309  0.9914
   90MOL0     H12145   9.055   2.901   2.264 -0.1138 -0.0197  0.3984
   90MOL0     H12146   8.836   2.860   2.162 -0.4572 -1.3874 -0.7453
   90MOL0     H12147   8.905   2.793   2.022 -0.4716  0.3387 -0.0202
   90MOL0     H12148   8.989   3.217   2.026 -0.0788 -0.7244 -0.7969
   90MOL0     H12149   9.104   2.499   2.588  1.8749 -0.4575 -1.2913
   90MOL0     H12150   8.998   2.337   2.714  0.8519  0.2076 -0.5618
   91MOL0     O12151   4.462   7.749   6.353  0.4331 -0.0668 -0.5021
   91MOL0     C12152   4.445   7.796   6.240 -0.5465 -0.1332 -0.1840
   91MOL0     O12153   4.415   7.926   6.212  0.1123 -0.4428  1.0759
   91MOL0     C12154   4.393   8.007   6.315  1.0840 -0.2366 -0.6153
   91MOL0     C12155   4.265   8.034   6.355  0.8435  0.2639 -0.0921
   91MOL0     C12156   4.239   8.107   6.467  0.4221  0.2003  0.7906
   91MOL0     C12157   4.339   8.172   6.541 -0.3245  0.2349  0.1310
   91MOL0     O12158   4.317   8.246   6.655  0.5024  0.4403 -0.1580
   91MOL0     C12159   4.177   8.266   6.694 -0.4320 -0.2712  0.9345
   91MOL0     C12160   4.168   8.372   6.802  0.7043  0.2298  0.8960
   91MOL0     C12161   4.022   8.432   6.820  0.0346 -0.3601  0.2537
   91MOL0     C12162   3.926   8.338   6.907  0.1161 -0.1356 -0.5104
   91MOL0     C12163   3.786   8.399   6.937  0.6781 -0.0935 -0.0504
   91MOL0     C12164   3.704   8.326   7.047 -0.3043 -0.2397  0.4061
   91MOL0     C12165   3.573   8.412   7.078 -0.1248  0.2916 -0.4065
   91MOL0     C12166   3.486   8.342   7.184 -0.0653  0.0627 -0.6418
   91MOL0     N12167   3.445   8.203   7.147  0.8165 -0.4014 -0.2668
   91MOL0     C12168   3.339   8.165   7.072 -0.0347  0.4597 -0.1976
   91MOL0     C12169   3.350   8.028   7.076  0.5339  0.1909 -0.5434
   91MOL0     C12170   3.251   7.928   7.017  1.2792  0.1043 -1.2101
   91MOL0     C12171   3.149   7.847   7.115 -0.0501 -0.3975  0.4168
   91MOL0     C12172   3.222   7.750   7.208  0.6709 -0.4552  0.6760
   91MOL0     C12173   3.118   7.671   7.287 -0.0208 -0.1635 -0.1980
   91MOL0     O12174   3.090   7.704   7.426  0.2261 -0.2446 -0.5284
   91MOL0     C12175   3.179   7.661   7.527 -0.0156 -0.2048  0.0323
   91MOL0     C12176   3.143   7.703   7.648 -0.4325  0.3163 -0.3620
   91MOL0     C12177   3.231   7.686   7.752  0.3145 -0.6916 -0.6144
   91MOL0     C12178   3.183   7.744   7.887 -0.6629  0.0780  0.5251
   91MOL0     C12179   3.350   7.619   7.743 -0.2558 -0.4693  0.5354
   91MOL0     C12180   3.456   7.599   7.853  0.4604 -0.8101  0.0295
   91MOL0     O12181   3.590   7.587   7.818  0.1602  0.1912  0.0856
   91MOL0     C12182   3.673   7.610   7.916 -0.0986 -0.0221 -0.1604
   91MOL0     C12183   3.711   7.507   8.006  1.0702 -0.3310 -0.4211
   91MOL0     C12184   3.824   7.547   8.088  0.2873  0.3831 -0.2491
   91MOL0     C12185   3.884   7.665   8.091 -0.4716  0.3753 -0.4560
   91MOL0     O12186   3.984   7.675   8.183  0.4602 -0.1591  0.2067
   91MOL0     C12187   4.091   7.759   8.141 -0.2766 -0.2339 -1.2346
   91MOL0     C12188   4.213   7.741   8.236  0.4334  0.6689 -0.0582
   91MOL0     C12189   4.283   7.603   8.233 -0.2021  0.0398 -0.3245
   91MOL0     C12190   4.404   7.612   8.337 -0.6115  0.2538  0.5208
   91MOL0     C12191   4.463   7.484   8.388  0.9235  0.4553  0.6781
   91MOL0     C12192   4.600   7.495   8.466 -0.1269 -0.1745  0.1115
   91MOL0     C12193   4.632   7.366   8.543  0.9587  0.1015 -0.3875
   91MOL0     C12194   4.708   7.254   8.460  0.0678  0.5487 -0.6190
   91MOL0    Cl12195   4.608   7.162   8.342 -0.0621  0.1551 -0.4635
   91MOL0     C12196   3.833   7.764   8.010  0.4978 -0.0188 -1.1402
   91MOL0     C12197   3.729   7.738   7.920  0.5969  0.2700  0.4116
   91MOL0     O12198   3.409   7.587   7.968  1.0325 -0.8515  0.2440
   91MOL0     C12199   3.391   7.572   7.613  0.4927  1.0806 -0.1880
   91MOL0     C12200   3.294   7.581   7.511  0.1151 -0.0078 -0.3629
   91MOL0     N12201   3.463   7.991   7.146 -0.4625  0.7263  0.5075
   91MOL0     N12202   3.515   8.104   7.198  0.5180 -1.3918  0.1567
   91MOL0     C12203   4.468   8.158   6.482 -0.0483 -1.0904 -0.6006
   91MOL0     C12204   4.496   8.075   6.376 -0.1345 -0.2415  0.2053
   91MOL0     C12205   4.474   7.705   6.128 -0.1886 -0.7698 -0.0434
   91MOL0     C12206   4.566   7.597   6.144 -0.5043 -1.0493 -0.1152
   91MOL0     C12207   4.593   7.511   6.042 -0.2829  0.7728  0.7537
   91MOL0     C12208   4.515   7.516   5.924  0.3758  0.0766 -0.2820
   91MOL0     O12209   4.559   7.429   5.828 -0.1891  0.6263  0.0918
   91MOL0     C12210   4.492   7.408   5.706 -0.0578 -0.0029  0.0955
   91MOL0     C12211   4.559   7.313   5.604  0.0699  0.5123 -0.3149
   91MOL0     C12212   4.694   7.361   5.546  0.0740 -1.1949 -0.0450
   91MOL0     C12213   4.716   7.339   5.402 -0.3764  0.3854  0.7251
   91MOL0     C12214   4.722   7.194   5.400 -0.0493  0.4910 -0.3788
   91MOL0     C12215   4.719   7.072   5.394 -0.6092 -0.4463  0.6000
   91MOL0     C12216   4.423   7.620   5.904  0.8669  0.4351 -0.5030
   91MOL0     C12217   4.403   7.718   6.006  0.0888 -0.0613 -1.0001
   91MOL0     H12218   4.191   7.983   6.294  3.2470 -3.8178  0.0107
   91MOL0     H12219   4.137   8.131   6.498  0.9962  4.1256  0.2271
   91MOL0     H12220   4.116   8.300   6.610 -1.2708  1.5080  2.1902
   91MOL0     H12221   4.148   8.169   6.736  0.3835 -0.4862  1.0140
   91MOL0     H12222   4.209   8.317   6.887 -0.4350 -1.3424  0.4804
   91MOL0     H12223   4.235   8.454   6.776 -0.8653  1.1669 -0.3442
   91MOL0     H12224   4.027   8.527   6.874  1.3318 -0.2169 -0.0969
   91MOL0     H12225   3.980   8.457   6.722  2.5944 -0.7708 -1.0249
   91MOL0     H12226   3.921   8.240   6.859 -2.3749 -1.5391  2.3117
   91MOL0     H12227   3.970   8.315   7.005  0.2207 -0.7280 -0.6918
   91MOL0     H12228   3.801   8.499   6.978  1.5853 -2.1011  5.3502
   91MOL0     H12229   3.731   8.394   6.842  1.3171  1.5240 -0.5299
   91MOL0     H12230   3.675   8.225   7.017 -0.6911  0.1172 -0.4841
   91MOL0     H12231   3.759   8.317   7.141  0.9224 -0.9304 -0.3560
   91MOL0     H12232   3.595   8.510   7.121  1.5939  0.4193 -1.4913
   91MOL0     H12233   3.516   8.438   6.988 -0.7739 -1.1950 -0.4598
   91MOL0     H12234   3.397   8.402   7.202 -0.7680 -0.4804 -2.1290
   91MOL0     H12235   3.533   8.342   7.283 -1.3681 -1.7045  0.0320
   91MOL0     H12236   3.251   8.212   7.029  0.6856  3.0578  0.9568
   91MOL0     H12237   3.192   7.983   6.944 -1.3544 -2.9082 -1.5623
   91MOL0     H12238   3.304   7.856   6.953  2.6008  2.0563 -2.4287
   91MOL0     H12239   3.077   7.792   7.053 -0.2718 -1.3462  1.4940
   91MOL0     H12240   3.100   7.917   7.183 -0.9864 -0.5751 -0.0532
   91MOL0     H12241   3.290   7.806   7.272  0.6652  0.0204  0.2655
   91MOL0     H12242   3.271   7.682   7.137 -2.7963 -1.6898 -0.7568
   91MOL0     H12243   3.149   7.566   7.286 -0.2781 -0.2680 -2.5348
   91MOL0     H12244   3.024   7.668   7.232 -0.8070 -1.6390  1.1582
   91MOL0     H12245   3.045   7.747   7.661 -0.0453  0.4769  2.8651
   91MOL0     H12246   3.104   7.813   7.857  1.4539  2.9519  1.1407
   91MOL0     H12247   3.151   7.665   7.956  1.8311 -2.6278 -1.1687
   91MOL0     H12248   3.256   7.816   7.925 -0.2045 -0.3265  0.4265
   91MOL0     H12249   3.677   7.404   8.008 -2.2818  0.6872  0.5481
   91MOL0     H12250   3.867   7.469   8.150  0.3515  0.9332  0.4172
   91MOL0     H12251   4.110   7.750   8.034  1.2818  1.8169 -1.2050
   91MOL0     H12252   4.059   7.863   8.160 -0.5112 -0.5405  0.2176
   91MOL0     H12253   4.287   7.808   8.191  1.3409 -0.1110  0.2244
   91MOL0     H12254   4.190   7.774   8.338 -0.9523  0.6344 -0.3428
   91MOL0     H12255   4.334   7.580   8.138  2.1648 -0.8953  1.0769
   91MOL0     H12256   4.217   7.518   8.249 -0.9025  1.0144  2.5750
   91MOL0     H12257   4.488   7.661   8.286  0.5327 -2.4748 -0.4074
   91MOL0     H12258   4.366   7.675   8.418 -0.6793  1.0689 -0.1283
   91MOL0     H12259   4.476   7.418   8.302  0.1737 -2.3078  2.5394
   91MOL0     H12260   4.393   7.426   8.449  0.2784  0.1586 -0.3263
   91MOL0     H12261   4.678   7.517   8.393  0.5941 -1.1252  0.5596
   91MOL0     H12262   4.592   7.574   8.541  2.9984 -2.5009  3.2680
   91MOL0     H12263   4.537   7.329   8.583  1.8972 -0.5990  1.2778
   91MOL0     H12264   4.689   7.385   8.634  0.5447 -0.2651 -0.0466
   91MOL0     H12265   4.747   7.190   8.540  0.5021  3.6835  1.8653
   91MOL0     H12266   4.798   7.299   8.417 -0.2833  0.9643 -0.9233
   91MOL0     H12267   3.884   7.856   8.034 -0.7455 -0.4284  4.1380
   91MOL0     H12268   3.695   7.815   7.852 -1.9358  0.8281  2.1816
   91MOL0     H12269   3.481   7.511   7.604 -0.8516 -1.0696  0.1383
   91MOL0     H12270   3.335   7.552   7.415  2.0404 -0.3094  0.4909
   91MOL0     H12271   4.557   8.206   6.522  1.5127 -3.3087 -1.2053
   91MOL0     H12272   4.596   8.069   6.336  1.1871  0.4842  3.1766
   91MOL0     H12273   4.624   7.587   6.235 -1.5832  0.3979  0.7726
   91MOL0     H12274   4.662   7.429   6.056 -1.1078 -0.0330  0.1911
   91MOL0     H12275   4.392   7.375   5.733  0.3085  0.1053  1.6765
   91MOL0     H12276   4.476   7.507   5.663 -1.9360 -0.0298  0.6673
   91MOL0     H12277   4.493   7.298   5.519  1.3303  0.8802 -1.3879
   91MOL0     H12278   4.580   7.214   5.647  0.8325 -0.0130 -1.8291
   91MOL0     H12279   4.783   7.312   5.587 -0.0562 -0.5659  1.0087
   91MOL0     H12280   4.696   7.468   5.566 -2.5342 -0.5692 -2.4211
   91MOL0     H12281   4.817   7.369   5.370 -0.6788  0.1995 -0.4585
   91MOL0     H12282   4.647   7.381   5.329  1.2031  0.0089 -1.0677
   91MOL0     H12283   4.712   6.969   5.367 -3.3257 -0.1585 -0.0385
   91MOL0     H12284   4.355   7.630   5.820 -0.6835  0.2746  0.6902
   91MOL0     H12285   4.312   7.775   5.994  0.9812  1.1614 -2.3174
   92MOL0     O12286   2.988   8.265   3.284 -0.2712 -0.8895 -1.0125
   92MOL0     C12287   2.907   8.180   3.319 -0.6076  0.0894  0.3033
   92MOL0     O12288   2.907   8.050   3.285 -0.1908  0.5460  0.0703
   92MOL0     C12289   2.982   8.000   3.187 -0.7470 -0.3160  0.0865
   92MOL0     C12290   3.035   8.072   3.073 -1.0673  0.7168  0.4463
   92MOL0     C12291   3.122   8.007   2.986 -1.1605  0.0288  0.9736
   92MOL0     C12292   3.158   7.872   3.003 -0.2278 -0.4077  0.3801
   92MOL0     O12293   3.236   7.822   2.907 -0.0662 -0.2116 -0.2465
   92MOL0     C12294   3.357   7.751   2.945 -0.6320 -0.0440 -0.9582
   92MOL0     C12295   3.335   7.601   2.923 -0.2373 -0.2254  1.0546
   92MOL0     C12296   3.442   7.498   2.953 -0.2319  0.0185 -0.1676
   92MOL0     C12297   3.536   7.475   2.834 -0.8553  0.1488 -0.3629
   92MOL0     C12298   3.660   7.393   2.867 -0.0749  0.7637  0.9402
   92MOL0     C12299   3.728   7.351   2.742  0.6405  0.2867 -0.7156
   92MOL0     C12300   3.804   7.215   2.771  0.0905  0.9181  0.6814
   92MOL0     C12301   3.909   7.176   2.665 -0.5285 -1.3373  0.5387
   92MOL0     N12302   3.883   7.224   2.524 -0.3912 -0.0026  0.4009
   92MOL0     C12303   3.916   7.350   2.480  0.0587  0.2434  0.1412
   92MOL0     C12304   3.908   7.346   2.345  0.6923  0.0630 -0.1842
   92MOL0     C12305   3.941   7.439   2.236 -0.2857  0.2512 -0.2706
   92MOL0     C12306   4.078   7.509   2.252 -0.1997 -0.3252  0.5185
   92MOL0     C12307   4.198   7.409   2.255  0.4186  0.1726 -0.4676
   92MOL0     C12308   4.332   7.470   2.245 -0.2230 -0.2565  0.4254
   92MOL0     O12309   4.426   7.363   2.239 -0.6317  0.1613 -1.2295
   92MOL0     C12310   4.556   7.389   2.208 -0.0527  0.6586  0.7598
   92MOL0     C12311   4.646   7.271   2.209 -0.4014  0.1011 -0.2619
   92MOL0     C12312   4.773   7.281   2.166  0.2768  0.9212  0.4685
   92MOL0     C12313   4.846   7.146   2.161 -0.3242 -0.1028 -0.4331
   92MOL0     C12314   4.829   7.406   2.122 -0.9302 -0.1658 -0.7982
   92MOL0     C12315   4.964   7.421   2.074 -0.7573 -0.7019 -0.6473
   92MOL0     O12316   5.004   7.314   2.011  0.0124  0.1868  0.7703
   92MOL0     C12317   5.122   7.315   1.936  0.7188  0.4269 -0.2664
   92MOL0     C12318   5.149   7.431   1.863 -0.5237 -0.5084  0.6994
   92MOL0     C12319   5.277   7.433   1.800  0.4537  0.0792  0.7815
   92MOL0     C12320   5.358   7.325   1.800 -0.3724 -0.1457 -1.0577
   92MOL0     O12321   5.485   7.339   1.736 -0.0423 -0.3330 -0.8298
   92MOL0     C12322   5.588   7.248   1.771  0.5948  0.0549 -0.8366
   92MOL0     C12323   5.717   7.273   1.680  0.3179  0.0310  0.3266
   92MOL0     C12324   5.685   7.237   1.529 -0.4620  0.3766 -0.0385
   92MOL0     C12325   5.679   7.090   1.499 -0.8177  1.3662  0.2572
   92MOL0     C12326   5.684   7.061   1.347 -0.1177  0.1139  0.3715
   92MOL0     C12327   5.551   7.082   1.284  1.0605  0.5132 -0.3983
   92MOL0     C12328   5.565   7.097   1.134 -0.8812 -0.2103 -0.8199
   92MOL0     C12329   5.442   7.054   1.055 -0.1878 -0.7481 -0.7881
   92MOL0    Cl12330   5.410   6.876   1.060 -0.1725 -0.0493  0.2887
   92MOL0     C12331   5.316   7.202   1.853  0.4817  0.0643  0.8402
   92MOL0     C12332   5.200   7.199   1.929  0.6272  0.7220 -0.3822
   92MOL0     O12333   5.035   7.513   2.115 -0.6044 -0.2728 -0.4887
   92MOL0     C12334   4.744   7.523   2.123  0.7109 -0.1237  0.4719
   92MOL0     C12335   4.610   7.505   2.162  0.3360  0.3624 -0.0232
   92MOL0     N12336   3.875   7.220   2.314 -0.2984 -0.5664  0.0073
   92MOL0     N12337   3.856   7.146   2.426 -0.9089 -0.5058  0.1927
   92MOL0     C12338   3.112   7.805   3.118  0.0052  0.2322 -0.1978
   92MOL0     C12339   3.024   7.866   3.210  0.6990  0.3244  0.1268
   92MOL0     C12340   2.814   8.212   3.423 -0.4625 -0.4869 -0.2169
   92MOL0     C12341   2.856   8.300   3.524 -0.0296 -0.5818  0.2422
   92MOL0     C12342   2.778   8.316   3.638  0.1068  0.1684 -0.3858
   92MOL0     C12343   2.653   8.260   3.655 -0.0554  0.4677 -0.4399
   92MOL0     O12344   2.582   8.296   3.766  0.3124 -1.0245  0.4159
   92MOL0     C12345   2.447   8.235   3.788  0.3673 -0.5731  0.3265
   92MOL0     C12346   2.435   8.119   3.891  0.5437 -0.5285  0.3202
   92MOL0     C12347   2.438   8.150   4.046 -0.0554 -0.8287 -0.4191
   92MOL0     C12348   2.444   8.023   4.131 -0.0445  0.2150 -0.3732
   92MOL0     C12349   2.560   7.937   4.105 -0.9301 -0.6033  0.3059
   92MOL0     C12350   2.664   7.881   4.089 -0.4851  0.6823  0.3239
   92MOL0     C12351   2.618   8.165   3.547  0.3082 -0.4969 -1.1502
   92MOL0     C12352   2.700   8.144   3.441  0.8182  0.4629  1.3021
   92MOL0     H12353   2.998   8.173   3.055 -2.8764  0.0251  0.0303
   92MOL0     H12354   3.162   8.063   2.902 -1.3920  1.1566  1.5950
   92MOL0     H12355   3.443   7.785   2.886  1.1033 -3.5584 -0.6871
   92MOL0     H12356   3.394   7.786   3.042  2.3599  3.6099 -3.1137
   92MOL0     H12357   3.244   7.568   2.973 -0.0763  0.1742  1.6257
   92MOL0     H12358   3.303   7.589   2.819 -1.3088 -1.4143  1.4897
   92MOL0     H12359   3.501   7.528   3.039  0.2280  2.4494 -1.2516
   92MOL0     H12360   3.391   7.402   2.963  0.6893 -0.6130 -1.2554
   92MOL0     H12361   3.485   7.427   2.750 -1.3710 -1.8086  0.9879
   92MOL0     H12362   3.573   7.574   2.809 -2.6195  0.7972 -0.5494
   92MOL0     H12363   3.735   7.442   2.930  1.4531  0.0515 -0.2647
   92MOL0     H12364   3.626   7.297   2.906 -1.8136 -0.2091 -2.5811
   92MOL0     H12365   3.653   7.331   2.664 -0.8321 -0.1835  0.7738
   92MOL0     H12366   3.795   7.431   2.711  0.0601  0.9759 -0.2216
   92MOL0     H12367   3.851   7.227   2.869  2.3280 -3.5361  0.3919
   92MOL0     H12368   3.732   7.134   2.767 -1.4637  2.2752 -0.3077
   92MOL0     H12369   3.920   7.068   2.653 -4.0434 -1.6009 -1.7528
   92MOL0     H12370   4.005   7.225   2.683 -0.5757  0.3925 -3.1048
   92MOL0     H12371   3.939   7.433   2.547  0.1045  0.5341 -0.2332
   92MOL0     H12372   3.937   7.388   2.139  0.0213 -0.8760  0.2934
   92MOL0     H12373   3.858   7.510   2.223 -1.6964 -1.4710 -1.1947
   92MOL0     H12374   4.080   7.562   2.348  0.3856  1.0465 -0.2242
   92MOL0     H12375   4.081   7.576   2.165  3.0968  1.5461  1.9011
   92MOL0     H12376   4.192   7.346   2.165 -1.1658  1.8209 -1.5801
   92MOL0     H12377   4.199   7.348   2.346  0.9393  1.2601  0.2700
   92MOL0     H12378   4.350   7.530   2.335  2.0475 -0.8991  0.4703
   92MOL0     H12379   4.328   7.530   2.154  0.1741 -3.0655 -1.5977
   92MOL0     H12380   4.611   7.170   2.229  0.1163 -0.3209 -1.3961
   92MOL0     H12381   4.795   7.066   2.214  0.6418  0.3457  1.2505
   92MOL0     H12382   4.862   7.117   2.057 -1.1204  2.6621 -1.4113
   92MOL0     H12383   4.948   7.148   2.203  0.0893 -2.5913 -1.1538
   92MOL0     H12384   5.082   7.516   1.869  0.3429  0.1036  2.6084
   92MOL0     H12385   5.299   7.529   1.753 -1.7139  1.3779  2.2405
   92MOL0     H12386   5.616   7.251   1.877  3.0163 -4.0325 -1.1314
   92MOL0     H12387   5.558   7.146   1.744 -4.3199  1.5186 -1.7475
   92MOL0     H12388   5.738   7.380   1.692 -3.7293  1.5509 -3.3597
   92MOL0     H12389   5.804   7.214   1.708  1.0253  0.4617 -0.8944
   92MOL0     H12390   5.759   7.279   1.460  0.0554 -2.3183 -1.2861
   92MOL0     H12391   5.592   7.288   1.505 -2.0216 -0.2018  4.0458
   92MOL0     H12392   5.776   7.056   1.536 -1.1380 -1.7339 -1.4402
   92MOL0     H12393   5.596   7.037   1.546  0.4610 -0.5989  0.4435
   92MOL0     H12394   5.713   6.957   1.328  1.8874  0.3975  1.6820
   92MOL0     H12395   5.771   7.114   1.308  1.4270 -1.5240  1.4216
   92MOL0     H12396   5.485   6.996   1.303  2.0942 -0.3282 -0.5168
   92MOL0     H12397   5.501   7.171   1.322  2.7727  1.4617 -0.3061
   92MOL0     H12398   5.659   7.051   1.101 -1.6119 -2.3678 -0.0251
   92MOL0     H12399   5.585   7.204   1.120  1.1830  0.1149  3.1084
   92MOL0     H12400   5.443   7.096   0.953  3.7873  0.1103 -0.5642
   92MOL0     H12401   5.361   7.101   1.110  1.2115 -1.6690  2.2853
   92MOL0     H12402   5.359   7.103   1.843 -0.2424 -0.0504 -2.0127
   92MOL0     H12403   5.160   7.109   1.975  0.2295 -0.1375 -2.2863
   92MOL0     H12404   4.785   7.618   2.089  0.5412  0.5740  2.1419
   92MOL0     H12405   4.537   7.586   2.155 -0.7104 -0.5784 -0.2838
   92MOL0     H12406   3.143   7.703   3.141  0.5089  0.4561  0.1544
   92MOL0     H12407   3.001   7.819   3.305 -1.3494 -0.1666 -0.5564
   92MOL0     H12408   2.939   8.370   3.528  1.3167 -2.1653  3.3331
   92MOL0     H12409   2.809   8.387   3.714 -1.1723 -0.1447  0.4658
   92MOL0     H12410   2.375   8.307   3.828  0.5190  1.2248 -2.4022
   92MOL0     H12411   2.415   8.203   3.689  0.2843  0.1016  0.1319
   92MOL0     H12412   2.520   8.056   3.863 -0.2163 -1.0219 -0.9084
   92MOL0     H12413   2.341   8.067   3.877 -0.4453  1.0022  0.9641
   92MOL0     H12414   2.362   8.221   4.078  1.5115 -0.0993  1.9334
   92MOL0     H12415   2.523   8.217   4.060 -2.6285  2.7584 -0.7152
   92MOL0     H12416   2.358   7.961   4.104  0.8087 -1.2430  0.1513
   92MOL0     H12417   2.433   8.055   4.235  1.0012 -1.1857  0.1994
   92MOL0     H12418   2.761   7.836   4.076 -0.5812  0.5202  0.1589
   92MOL0     H12419   2.520   8.119   3.547 -0.2736  0.6864 -0.6528
   92MOL0     H12420   2.658   8.082   3.362  0.2498  1.8837  0.4478
   93MOL0     O12421   5.861   3.172   3.706  0.1393 -1.2894 -1.3250
   93MOL0     C12422   5.869   3.283   3.762  0.9858  0.4576  0.3094
   93MOL0     O12423   5.912   3.303   3.889  0.1507  0.1715 -0.0381
   93MOL0     C12424   5.950   3.202   3.968  0.5423  0.2751 -0.2342
   93MOL0     C12425   6.056   3.111   3.947 -0.4587 -0.6128 -0.4411
   93MOL0     C12426   6.110   3.031   4.043 -0.4132 -0.2063  0.1465
   93MOL0     C12427   6.056   3.031   4.173  1.2211 -0.0020 -0.7404
   93MOL0     O12428   6.093   2.958   4.286 -0.3760  0.1652  0.6800
   93MOL0     C12429   6.197   2.859   4.278  0.5012 -0.1293  0.0721
   93MOL0     C12430   6.179   2.770   4.402  0.6650 -0.0124 -0.7163
   93MOL0     C12431   6.260   2.820   4.524  0.0306 -0.7831  0.2730
   93MOL0     C12432   6.220   2.757   4.659  0.6325 -0.3527 -0.2987
   93MOL0     C12433   6.113   2.824   4.747  0.3445  0.8657 -0.3662
   93MOL0     C12434   6.055   2.734   4.859 -0.2871 -0.2468 -0.5208
   93MOL0     C12435   5.931   2.654   4.817  0.5377  0.0795 -0.4227
   93MOL0     C12436   5.903   2.528   4.898  0.1321 -0.3038  0.0932
   93MOL0     N12437   5.914   2.552   5.041  0.7977  0.8505 -0.1176
   93MOL0     C12438   5.811   2.574   5.128  0.4350 -0.8084  0.2591
   93MOL0     C12439   5.872   2.594   5.248 -0.7812 -0.0085  0.1680
   93MOL0     C12440   5.788   2.613   5.381 -0.4133 -0.2303 -0.0893
   93MOL0     C12441   5.822   2.735   5.459  0.3896  0.0249 -0.7866
   93MOL0     C12442   5.716   2.766   5.568  1.4027 -0.0423  0.0146
   93MOL0     C12443   5.683   2.652   5.661 -0.3697  0.2018  0.1034
   93MOL0     O12444   5.793   2.602   5.746 -0.3918  0.5354  1.0829
   93MOL0     C12445   5.810   2.677   5.859  0.1093  0.2864  0.5046
   93MOL0     C12446   5.734   2.657   5.974  0.5056  1.2480 -0.4275
   93MOL0     C12447   5.778   2.716   6.096  0.0452 -0.2297 -0.2382
   93MOL0     C12448   5.685   2.697   6.218  0.2192  0.5918  0.5713
   93MOL0     C12449   5.892   2.802   6.106  0.0225 -0.2818 -0.1758
   93MOL0     C12450   5.958   2.868   6.223  0.3620  0.6680 -0.0815
   93MOL0     O12451   6.057   2.956   6.213  0.5000 -0.2644 -0.2660
   93MOL0     C12452   6.085   3.032   6.326 -0.3636  0.5566 -0.1619
   93MOL0     C12453   6.063   3.161   6.320  0.2591 -0.2465 -0.2336
   93MOL0     C12454   6.080   3.251   6.424  0.1781 -0.2289 -0.1216
   93MOL0     C12455   6.120   3.201   6.552  0.8737 -0.4624  0.1801
   93MOL0     O12456   6.118   3.280   6.657  0.4911  0.4045 -0.3220
   93MOL0     C12457   6.224   3.370   6.672 -0.6480 -0.1606  0.5887
   93MOL0     C12458   6.240   3.395   6.827 -0.3748  0.9571 -0.3686
   93MOL0     C12459   6.339   3.299   6.894  0.3320  0.6013 -0.5788
   93MOL0     C12460   6.333   3.316   7.048  0.2873 -0.1802  0.1826
   93MOL0     C12461   6.447   3.222   7.102  0.6190 -0.9125  0.6086
   93MOL0     C12462   6.458   3.198   7.255 -0.1743 -0.7430  0.5866
   93MOL0     C12463   6.323   3.144   7.319  0.3740  0.4683 -0.3492
   93MOL0     C12464   6.322   3.046   7.454 -0.2476  0.2889  0.2270
   93MOL0    Cl12465   6.375   2.885   7.388  0.3634 -0.4227 -0.3617
   93MOL0     C12466   6.157   3.067   6.561  0.6791 -0.4225 -0.3330
   93MOL0     C12467   6.138   2.980   6.449 -0.3528  0.2750 -0.2127
   93MOL0     O12468   5.928   2.816   6.326 -0.1148  0.6253 -0.2136
   93MOL0     C12469   5.957   2.827   5.985  0.7564  0.4360  0.5090
   93MOL0     C12470   5.911   2.770   5.864 -0.6729 -0.1739 -0.7794
   93MOL0     N12471   6.010   2.596   5.232 -0.7946  0.0765  0.1513
   93MOL0     N12472   6.027   2.573   5.106 -0.0307  0.2981 -0.1649
   93MOL0     C12473   5.948   3.121   4.200  0.8706 -0.0237  0.3142
   93MOL0     C12474   5.892   3.202   4.100 -0.2678  0.1965 -0.2409
   93MOL0     C12475   5.814   3.408   3.693  0.2565  0.7707  0.3067
   93MOL0     C12476   5.782   3.393   3.553  0.4099  0.4707 -0.8279
   93MOL0     C12477   5.753   3.506   3.476  0.4703  0.0621 -0.1699
   93MOL0     C12478   5.736   3.629   3.542 -0.2987  0.2909 -0.2237
   93MOL0     O12479   5.717   3.734   3.462 -0.0749  0.2837  0.2123
   93MOL0     C12480   5.664   3.854   3.518  0.1893 -0.1049 -0.6326
   93MOL0     C12481   5.634   3.966   3.413 -0.4100 -0.1836 -1.0776
   93MOL0     C12482   5.754   3.993   3.337 -0.6986 -0.0254  0.1850
   93MOL0     C12483   5.749   3.945   3.182 -0.6950  0.1763 -0.1317
   93MOL0     C12484   5.749   3.793   3.158 -0.7661 -1.8519  0.3416
   93MOL0     C12485   5.730   3.675   3.122  0.0758 -0.7198  0.2335
   93MOL0     C12486   5.759   3.642   3.682 -0.4221  0.0170  0.7766
   93MOL0     C12487   5.795   3.533   3.749  0.9280 -0.6002 -0.1788
   93MOL0     H12488   6.108   3.106   3.852 -1.0970  0.3987 -0.8575
   93MOL0     H12489   6.195   2.966   4.025 -0.4670  0.4002 -2.6555
   93MOL0     H12490   6.189   2.799   4.187 -0.1796  2.3405 -1.6010
   93MOL0     H12491   6.297   2.904   4.283  0.6627 -0.2055 -1.8533
   93MOL0     H12492   6.070   2.773   4.412  0.7773  0.6324  0.4652
   93MOL0     H12493   6.201   2.662   4.397 -0.1941 -0.3429  1.5252
   93MOL0     H12494   6.364   2.794   4.504 -0.3158 -2.4909  0.5052
   93MOL0     H12495   6.253   2.929   4.527 -0.9156 -0.8566  1.3391
   93MOL0     H12496   6.177   2.658   4.640 -3.3922  0.0143  4.8290
   93MOL0     H12497   6.307   2.736   4.722  2.7397  0.9524 -2.5720
   93MOL0     H12498   6.171   2.906   4.789  0.6772  2.9673 -4.4020
   93MOL0     H12499   6.033   2.866   4.685  0.1799 -0.5546 -1.1784
   93MOL0     H12500   6.130   2.662   4.894  1.2683  1.9443  0.9185
   93MOL0     H12501   6.024   2.797   4.943 -0.6388  1.6502 -1.9910
   93MOL0     H12502   5.839   2.712   4.814  1.4143  1.5364 -0.0879
   93MOL0     H12503   5.950   2.611   4.718  2.2623  1.3602 -0.6975
   93MOL0     H12504   5.971   2.448   4.866 -0.0292  0.6773 -3.0831
   93MOL0     H12505   5.801   2.509   4.862  0.7129 -0.1420 -1.7637
   93MOL0     H12506   5.706   2.568   5.100 -0.8991  1.4937  4.0288
   93MOL0     H12507   5.686   2.620   5.343 -0.5356 -4.5796 -1.1032
   93MOL0     H12508   5.796   2.518   5.435  0.1659 -0.7349 -1.0392
   93MOL0     H12509   5.848   2.815   5.388  3.0694  0.2639  0.3295
   93MOL0     H12510   5.920   2.717   5.503 -0.3326 -1.8226  0.1560
   93MOL0     H12511   5.622   2.797   5.521  0.0927 -1.9885  1.2253
   93MOL0     H12512   5.748   2.856   5.622  1.1992  2.0131 -2.9950
   93MOL0     H12513   5.642   2.570   5.602 -1.0294 -0.4074  1.3511
   93MOL0     H12514   5.606   2.684   5.732  1.2621  0.6376  1.7441
   93MOL0     H12515   5.651   2.588   5.968  0.2549  1.4611  0.5029
   93MOL0     H12516   5.615   2.615   6.199  1.3437 -0.4314  0.6724
   93MOL0     H12517   5.746   2.676   6.306  0.1750  0.1896  0.5064
   93MOL0     H12518   5.617   2.782   6.227 -2.2683 -1.0206 -1.5612
   93MOL0     H12519   6.012   3.203   6.234  3.4152  1.9471 -1.2267
   93MOL0     H12520   6.048   3.354   6.412 -0.2000 -0.4768 -1.3805
   93MOL0     H12521   6.318   3.335   6.629 -2.4349  0.2049 -4.3030
   93MOL0     H12522   6.191   3.464   6.628 -0.9958  0.3783  1.9412
   93MOL0     H12523   6.272   3.495   6.857 -0.7381  0.7351  0.8123
   93MOL0     H12524   6.145   3.368   6.875 -0.3674 -0.6423 -1.1753
   93MOL0     H12525   6.441   3.308   6.857  0.8413  0.3932  0.7226
   93MOL0     H12526   6.302   3.197   6.882  3.4845 -0.7321  0.2108
   93MOL0     H12527   6.348   3.423   7.069 -0.4710  0.1089 -0.6816
   93MOL0     H12528   6.232   3.298   7.085  1.2584 -2.4560  1.9516
   93MOL0     H12529   6.543   3.260   7.067 -1.6857  3.1530 -2.2494
   93MOL0     H12530   6.424   3.125   7.056 -1.1954 -1.3950  2.3875
   93MOL0     H12531   6.541   3.131   7.278  1.7429  0.4675 -2.2405
   93MOL0     H12532   6.482   3.294   7.302  0.4800  0.7759 -2.5271
   93MOL0     H12533   6.273   3.085   7.242 -0.0373 -0.0188  0.2809
   93MOL0     H12534   6.273   3.236   7.350  1.1076  1.1831 -1.2273
   93MOL0     H12535   6.220   3.053   7.493  0.4747  2.0926  1.9743
   93MOL0     H12536   6.390   3.085   7.530  0.8043  0.0617 -0.5764
   93MOL0     H12537   6.205   3.024   6.648  4.6535  0.1951 -1.9954
   93MOL0     H12538   6.170   2.877   6.460 -0.3881 -0.0727 -2.7828
   93MOL0     H12539   6.046   2.889   5.985  0.6498  0.8332 -3.3827
   93MOL0     H12540   5.961   2.790   5.770  1.4269 -0.5980  0.1783
   93MOL0     H12541   5.921   3.124   4.305 -1.7464 -2.3643 -0.1662
   93MOL0     H12542   5.810   3.267   4.129 -0.8799 -1.4982  2.1633
   93MOL0     H12543   5.796   3.295   3.508  0.2268 -0.1438  0.4138
   93MOL0     H12544   5.752   3.481   3.370 -1.0265 -2.4433  0.3717
   93MOL0     H12545   5.575   3.819   3.571 -0.8065 -0.6715 -2.5823
   93MOL0     H12546   5.727   3.907   3.591 -3.3097  1.4721  1.4867
   93MOL0     H12547   5.610   4.053   3.474  4.0857 -0.2228  1.2048
   93MOL0     H12548   5.551   3.936   3.348 -2.2252 -1.2717  1.5664
   93MOL0     H12549   5.847   3.957   3.382  0.1937  0.5733 -1.1192
   93MOL0     H12550   5.768   4.101   3.351 -4.7986  0.3543  3.4643
   93MOL0     H12551   5.834   3.988   3.126  0.3603 -2.4304 -0.6622
   93MOL0     H12552   5.658   3.998   3.153  0.5071  3.3881  1.4751
   93MOL0     H12553   5.730   3.577   3.077  3.3632 -1.6349  1.8853
   93MOL0     H12554   5.769   3.740   3.729  0.2835  0.2920  0.0890
   93MOL0     H12555   5.815   3.551   3.854 -1.5820  0.9192  0.1254
   94MOL0     O12556   1.617  10.769   5.819  0.0106 -0.3286 -0.5676
   94MOL0     C12557   1.554  10.876   5.834 -0.5478  0.3585 -0.0790
   94MOL0     O12558   1.502  10.908   5.954  0.3025 -1.0738  0.1069
   94MOL0     C12559   1.484  10.822   6.065  0.8710 -0.4266  1.1065
   94MOL0     C12560   1.470  10.682   6.056  0.6341 -1.2753  0.0682
   94MOL0     C12561   1.464  10.601   6.170  0.4283 -0.0484 -0.4951
   94MOL0     C12562   1.462  10.651   6.291  0.3279  0.7889  0.0858
   94MOL0     O12563   1.443  10.586   6.405 -0.1088  0.0528 -0.1337
   94MOL0     C12564   1.381  10.459   6.408  0.0058 -1.0882 -0.5033
   94MOL0     C12565   1.482  10.340   6.392 -0.1902 -0.2188 -0.5573
   94MOL0     C12566   1.410  10.206   6.422  0.0176 -0.3961  1.3469
   94MOL0     C12567   1.503  10.109   6.486  0.7052  1.1487 -0.1295
   94MOL0     C12568   1.416   9.972   6.505 -0.1851  0.3484  0.5621
   94MOL0     C12569   1.506   9.874   6.589 -0.3319  0.2128  0.4227
   94MOL0     C12570   1.475   9.883   6.739 -0.5733 -0.4781 -0.4649
   94MOL0     C12571   1.583   9.801   6.816  0.1017  0.6593 -1.1786
   94MOL0     N12572   1.522   9.771   6.951 -0.8491 -0.3156  0.3578
   94MOL0     C12573   1.484   9.871   7.037 -0.5525  0.0232 -0.0616
   94MOL0     C12574   1.438   9.802   7.146 -1.5099 -1.5184  0.0765
   94MOL0     C12575   1.387   9.862   7.274 -0.3436  0.5898 -0.5674
   94MOL0     C12576   1.485   9.841   7.395 -0.8453  0.1505  0.4384
   94MOL0     C12577   1.423   9.847   7.536 -0.1833 -0.2230 -0.1540
   94MOL0     C12578   1.509   9.896   7.660 -1.5826  0.0450 -0.4090
   94MOL0     O12579   1.563   9.789   7.738 -0.5181 -0.0281 -0.2794
   94MOL0     C12580   1.650   9.815   7.844 -0.2553 -0.5016  0.2857
   94MOL0     C12581   1.697   9.706   7.912 -0.9447  0.9161 -0.2923
   94MOL0     C12582   1.811   9.718   7.993  0.2872 -0.2138 -0.1146
   94MOL0     C12583   1.863   9.589   8.050  0.5432  0.6637  0.3160
   94MOL0     C12584   1.851   9.853   8.028 -0.0671  0.1976  0.0365
   94MOL0     C12585   1.976   9.892   8.115  0.7541  0.0131  0.6559
   94MOL0     O12586   2.047   9.993   8.065 -0.7453  0.1921  0.8872
   94MOL0     C12587   2.150  10.044   8.140 -0.3300 -0.4843 -1.0824
   94MOL0     C12588   2.121  10.079   8.271 -1.1366 -0.3591  0.3379
   94MOL0     C12589   2.224  10.131   8.354 -1.0600  0.8872 -0.2207
   94MOL0     C12590   2.356  10.151   8.310  0.1378 -0.3115  1.4765
   94MOL0     O12591   2.456  10.210   8.382  0.6562 -0.8997  0.2398
   94MOL0     C12592   2.432  10.262   8.511 -0.0930 -0.6418 -0.4275
   94MOL0     C12593   2.550  10.343   8.553 -0.6708  0.1001  0.4628
   94MOL0     C12594   2.599  10.463   8.466 -0.1128 -0.6723 -0.3337
   94MOL0     C12595   2.721  10.526   8.537  0.0487 -0.6344 -0.5320
   94MOL0     C12596   2.767  10.644   8.441  0.0545  0.2565 -0.3355
   94MOL0     C12597   2.850  10.742   8.530  0.1943  0.1394 -0.1328
   94MOL0     C12598   2.963  10.789   8.445 -0.6165  0.5013 -0.4833
   94MOL0     C12599   3.074  10.860   8.531  0.5498 -0.2896 -0.2181
   94MOL0    Cl12600   3.025  11.000   8.615  0.1668 -0.0264  0.0907
   94MOL0     C12601   2.376  10.116   8.174  0.3499 -0.3709  0.0686
   94MOL0     C12602   2.283  10.063   8.091  0.6089 -0.5118  0.0251
   94MOL0     O12603   2.005   9.808   8.205 -0.3003  0.0070  0.0488
   94MOL0     C12604   1.788   9.963   7.965  1.4256 -0.3518 -0.0874
   94MOL0     C12605   1.689   9.942   7.880 -0.5509  1.0184  0.2041
   94MOL0     N12606   1.446   9.664   7.118 -0.0080 -0.1087  0.0610
   94MOL0     N12607   1.500   9.648   6.999 -0.2456  0.2073 -0.5951
   94MOL0     C12608   1.498  10.782   6.313  0.3679  0.3621  0.2607
   94MOL0     C12609   1.509  10.866   6.200 -0.6754  0.4093  0.7372
   94MOL0     C12610   1.526  10.975   5.714 -0.0660  0.4714 -0.0773
   94MOL0     C12611   1.575  10.940   5.585 -0.6325  0.2321 -1.0746
   94MOL0     C12612   1.522  11.017   5.476 -0.2998  0.4804 -0.1199
   94MOL0     C12613   1.437  11.131   5.494  0.1982  0.0053  0.6888
   94MOL0     O12614   1.403  11.222   5.398  0.0996  0.9499  0.6545
   94MOL0     C12615   1.394  11.173   5.262 -0.8448  0.2909  0.0166
   94MOL0     C12616   1.258  11.122   5.225  0.6073  0.5634 -0.3070
   94MOL0     C12617   1.263  11.090   5.077  0.4368  0.9162  1.2342
   94MOL0     C12618   1.120  11.048   5.014  0.3374  0.6113 -0.3259
   94MOL0     C12619   1.067  10.917   5.068 -0.2656  0.4050  0.4800
   94MOL0     C12620   1.046  10.804   5.113  0.4124 -0.3252  0.3900
   94MOL0     C12621   1.412  11.170   5.623  0.1847 -0.3987  0.8126
   94MOL0     C12622   1.444  11.085   5.730 -0.2624 -0.8009  0.0145
   94MOL0     H12623   1.472  10.632   5.959  0.1594 -1.2414  0.0355
   94MOL0     H12624   1.448  10.494   6.155  1.2297  0.1739 -3.6422
   94MOL0     H12625   1.341  10.455   6.510  3.2326 -1.9425  0.8704
   94MOL0     H12626   1.290  10.453   6.349 -2.0277  1.6917  2.0545
   94MOL0     H12627   1.528  10.351   6.293  0.8551  3.3296  0.1788
   94MOL0     H12628   1.559  10.366   6.466 -0.2966  2.3951 -1.2386
   94MOL0     H12629   1.322  10.219   6.486 -0.0209  0.7649  1.0903
   94MOL0     H12630   1.375  10.163   6.328 -0.4982  1.6809  0.5209
   94MOL0     H12631   1.587  10.090   6.418 -0.0020 -0.3450 -0.6188
   94MOL0     H12632   1.566  10.147   6.567  1.5043 -2.4434  1.1153
   94MOL0     H12633   1.320   9.984   6.556  0.1589 -1.4799  1.7188
   94MOL0     H12634   1.388   9.921   6.413  1.4539 -1.3533  0.9469
   94MOL0     H12635   1.516   9.770   6.558  0.7910  1.0670 -2.3681
   94MOL0     H12636   1.608   9.915   6.592 -1.7721  4.2327  1.1024
   94MOL0     H12637   1.465   9.986   6.774 -1.8726 -0.7297 -0.0356
   94MOL0     H12638   1.371   9.854   6.755 -1.0331  1.4456  0.1803
   94MOL0     H12639   1.674   9.860   6.830 -0.7212  2.2358 -2.1566
   94MOL0     H12640   1.606   9.711   6.757  2.5871  2.2801 -2.9141
   94MOL0     H12641   1.491   9.979   7.027  0.0286  0.1645  1.5546
   94MOL0     H12642   1.350   9.965   7.270 -1.2966  0.3307  0.7165
   94MOL0     H12643   1.293   9.805   7.280 -0.2020  0.1499 -2.1281
   94MOL0     H12644   1.567   9.914   7.392  3.4290 -3.9670  3.0760
   94MOL0     H12645   1.532   9.743   7.400 -0.4903  0.3745  3.4813
   94MOL0     H12646   1.390   9.747   7.564 -1.1710  0.3607  0.8713
   94MOL0     H12647   1.326   9.898   7.538 -2.4243 -3.6334 -4.2830
   94MOL0     H12648   1.465   9.975   7.722  1.6982  1.0531  0.8691
   94MOL0     H12649   1.604   9.933   7.620 -0.8000 -1.3585  0.0605
   94MOL0     H12650   1.659   9.608   7.886 -0.3029  0.5972 -0.0468
   94MOL0     H12651   1.804   9.560   8.138  1.7072  1.1457  1.2862
   94MOL0     H12652   1.860   9.517   7.968 -1.7191  2.0335 -0.9112
   94MOL0     H12653   1.965   9.578   8.089  0.7721 -1.2586 -0.7170
   94MOL0     H12654   2.029  10.064   8.326 -0.8069 -0.0356  0.9796
   94MOL0     H12655   2.205  10.178   8.450  0.8921  2.2907 -0.4549
   94MOL0     H12656   2.343  10.325   8.508  0.8213  0.8859  1.8786
   94MOL0     H12657   2.410  10.185   8.586  1.8190 -1.3826 -0.5761
   94MOL0     H12658   2.526  10.384   8.652 -2.0303  0.3003  0.0641
   94MOL0     H12659   2.638  10.278   8.560 -1.1859 -0.9683 -2.0324
   94MOL0     H12660   2.517  10.534   8.449  0.3976  0.2730  0.9727
   94MOL0     H12661   2.629  10.431   8.365 -1.7043  1.5630 -1.6174
   94MOL0     H12662   2.679  10.567   8.629  1.8429 -0.8415  0.4216
   94MOL0     H12663   2.798  10.455   8.567 -1.2727 -1.1183  1.9509
   94MOL0     H12664   2.691  10.700   8.386 -1.1927  0.1346  1.2296
   94MOL0     H12665   2.841  10.603   8.371 -1.5120 -0.0518 -1.8888
   94MOL0     H12666   2.789  10.818   8.579 -0.7194 -1.5054  1.4108
   94MOL0     H12667   2.903  10.690   8.611  4.4363  2.8522 -0.8698
   94MOL0     H12668   2.925  10.857   8.368 -0.0371  1.9383  0.4651
   94MOL0     H12669   3.015  10.702   8.402  1.4362  3.0942 -3.7495
   94MOL0     H12670   3.156  10.893   8.467  1.6406 -3.0882 -0.4062
   94MOL0     H12671   3.129  10.804   8.607  1.2382  0.9380  0.2078
   94MOL0     H12672   2.474  10.136   8.132  0.0386 -1.1138 -1.0795
   94MOL0     H12673   2.306  10.043   7.987  1.3400  1.0043 -0.1227
   94MOL0     H12674   1.818  10.067   7.973  1.5480 -0.3988  0.0828
   94MOL0     H12675   1.658  10.033   7.830 -1.8653 -0.0419 -1.0025
   94MOL0     H12676   1.506  10.810   6.417  0.0520 -4.6450  1.8827
   94MOL0     H12677   1.529  10.973   6.201  0.4912  0.2304  2.7136
   94MOL0     H12678   1.642  10.856   5.567 -0.8939  0.0343 -1.1340
   94MOL0     H12679   1.551  10.998   5.373  0.8457 -0.1463  0.2917
   94MOL0     H12680   1.407  11.263   5.201  2.0494 -0.4261 -0.5622
   94MOL0     H12681   1.473  11.102   5.236  1.8554  1.2580  4.5916
   94MOL0     H12682   1.174  11.190   5.243 -2.0243 -2.6963  0.7007
   94MOL0     H12683   1.242  11.029   5.281 -0.2874  0.2333 -1.0765
   94MOL0     H12684   1.328  11.003   5.065 -0.8463 -0.1931  2.0008
   94MOL0     H12685   1.306  11.173   5.020  0.2172 -0.9154 -1.7871
   94MOL0     H12686   1.122  11.038   4.905  0.6615 -3.4994 -0.1167
   94MOL0     H12687   1.053  11.128   5.045 -0.0316 -0.5153  1.9796
   94MOL0     H12688   1.026  10.703   5.143  2.2257 -1.0187 -0.5037
   94MOL0     H12689   1.354  11.259   5.643 -0.3219 -0.1014 -1.5799
   94MOL0     H12690   1.400  11.113   5.825 -0.7054 -2.3295  0.2806
   95MOL0     O12691   4.678   3.633  10.376 -0.3088  1.0794  1.2694
   95MOL0     C12692   4.604   3.726  10.341 -0.4672 -0.3320  1.1719
   95MOL0     O12693   4.642   3.860  10.352  0.0010  0.1584 -0.1679
   95MOL0     C12694   4.766   3.880  10.410 -0.4603 -0.3526 -0.3898
   95MOL0     C12695   4.884   3.858  10.343 -1.1559 -1.1176 -0.2295
   95MOL0     C12696   5.010   3.909  10.387 -0.1027 -0.8671 -0.1818
   95MOL0     C12697   5.021   3.958  10.517  0.3648  0.5396 -0.3124
   95MOL0     O12698   5.148   3.995  10.561  0.5162  0.0120 -0.0207
   95MOL0     C12699   5.159   4.082  10.672  0.2053  0.3303 -0.9840
   95MOL0     C12700   5.304   4.061  10.729  1.4532 -0.5119 -0.0219
   95MOL0     C12701   5.325   3.939  10.816 -0.3547  0.6806 -0.4889
   95MOL0     C12702   5.222   3.925  10.920 -0.4087 -0.2319  0.2293
   95MOL0     C12703   5.228   3.810  11.023  0.7415 -0.3493 -0.1637
   95MOL0     C12704   5.102   3.795  11.102 -0.2157 -0.3424  0.1354
   95MOL0     C12705   5.132   3.764  11.252  0.1979  0.3573 -0.7157
   95MOL0     C12706   5.205   3.866  11.338  0.1674 -0.2558  0.0456
   95MOL0     N12707   5.325   3.801  11.394 -0.1062 -1.2694 -1.0768
   95MOL0     C12708   5.450   3.808  11.328  1.3706  0.1669 -0.3400
   95MOL0     C12709   5.535   3.726  11.396 -0.4480  0.8071 -0.2992
   95MOL0     C12710   5.666   3.681  11.346 -0.2387  0.6002 -0.1910
   95MOL0     C12711   5.674   3.667  11.195 -0.9330 -0.5267  0.2535
   95MOL0     C12712   5.803   3.612  11.142  0.2701 -0.9736 -0.5794
   95MOL0     C12713   5.910   3.724  11.123  0.7831  0.4692 -0.6190
   95MOL0     O12714   5.869   3.798  11.008  0.2855  0.2423 -0.4044
   95MOL0     C12715   5.960   3.886  10.954 -0.3512 -0.3866 -0.0289
   95MOL0     C12716   5.947   3.892  10.819  0.6683  0.6336  0.4138
   95MOL0     C12717   6.032   3.968  10.743 -1.0010  0.0785  0.5547
   95MOL0     C12718   6.009   3.986  10.591 -1.1056  0.0784  0.0244
   95MOL0     C12719   6.145   4.042  10.804  0.2358  1.0485  0.2826
   95MOL0     C12720   6.241   4.126  10.734 -0.4461  0.2702 -0.6478
   95MOL0     O12721   6.299   4.088  10.619  0.5849  0.1049 -0.3891
   95MOL0     C12722   6.360   4.177  10.536 -0.1152  0.1889 -0.4216
   95MOL0     C12723   6.339   4.309  10.514 -0.4961 -0.4338 -0.2347
   95MOL0     C12724   6.393   4.373  10.399  0.1130 -0.0149  0.0350
   95MOL0     C12725   6.467   4.297  10.301 -0.1107 -0.3854 -0.8182
   95MOL0     O12726   6.496   4.356  10.181 -0.2154 -0.1375 -0.4026
   95MOL0     C12727   6.553   4.280  10.077  0.3563  0.4149  0.1956
   95MOL0     C12728   6.566   4.365   9.950 -0.3584 -0.9226 -0.3235
   95MOL0     C12729   6.659   4.484   9.960 -0.1669  0.4503 -0.5551
   95MOL0     C12730   6.808   4.450   9.935 -0.6863 -0.0496 -0.6820
   95MOL0     C12731   6.899   4.543  10.018  0.7583  0.8223  0.4998
   95MOL0     C12732   7.058   4.528   9.968  0.4335 -0.8174  0.0040
   95MOL0     C12733   7.158   4.602  10.051 -0.4176  1.3953  0.5019
   95MOL0     C12734   7.296   4.596   9.978  0.4169  0.3732 -0.3907
   95MOL0    Cl12735   7.374   4.435  10.017  0.5699  0.1840  0.1830
   95MOL0     C12736   6.500   4.166  10.331 -0.3524  1.0476 -0.1412
   95MOL0     C12737   6.455   4.110  10.455  0.5443 -0.2113  0.8067
   95MOL0     O12738   6.257   4.238  10.787  0.5829  0.0092  0.9222
   95MOL0     C12739   6.157   4.036  10.946  0.0007  0.4590  0.5805
   95MOL0     C12740   6.062   3.959  11.019 -0.2397 -0.7875  0.4620
   95MOL0     N12741   5.461   3.670  11.494  0.1419  0.2889 -1.2391
   95MOL0     N12742   5.343   3.711  11.496 -0.1710  0.0502 -0.6259
   95MOL0     C12743   4.904   3.959  10.593 -0.0184  0.9254 -0.3807
   95MOL0     C12744   4.778   3.935  10.539  0.9041  1.4591  0.1008
   95MOL0     C12745   4.477   3.702  10.283 -0.1266  0.1608  0.1447
   95MOL0     C12746   4.408   3.792  10.206  0.2094  0.8072  0.3308
   95MOL0     C12747   4.274   3.772  10.156 -0.3013  0.1761  0.1094
   95MOL0     C12748   4.216   3.650  10.171 -0.2485 -0.0489 -0.2926
   95MOL0     O12749   4.102   3.609  10.101 -0.1858 -0.5044  0.2255
   95MOL0     C12750   4.024   3.702  10.022 -0.1822 -0.2018  0.2876
   95MOL0     C12751   3.937   3.809  10.083 -0.1028 -0.1366  0.4654
   95MOL0     C12752   3.908   3.931   9.988 -0.1139 -0.9621 -0.7627
   95MOL0     C12753   3.844   3.895   9.851  0.9671 -0.1407  0.1116
   95MOL0     C12754   3.701   3.862   9.867  1.3080 -0.0095  1.0530
   95MOL0     C12755   3.588   3.808   9.896 -0.2622  0.9277  0.2133
   95MOL0     C12756   4.280   3.554  10.247 -0.4778  0.4982 -0.0433
   95MOL0     C12757   4.409   3.582  10.307 -0.8743  0.1535 -0.5528
   95MOL0     H12758   4.877   3.816  10.243 -0.6048  1.7931 -1.5777
   95MOL0     H12759   5.101   3.911  10.328 -1.2922 -2.3210 -2.1709
   95MOL0     H12760   5.149   4.188  10.647 -2.5453  1.1913  2.8342
   95MOL0     H12761   5.082   4.074  10.749  3.2068  0.5984  2.2843
   95MOL0     H12762   5.379   4.062  10.649  1.9511  1.6943  0.4151
   95MOL0     H12763   5.325   4.155  10.781 -0.3585 -0.8523  1.3959
   95MOL0     H12764   5.315   3.851  10.752  1.1671 -0.4521  0.7264
   95MOL0     H12765   5.423   3.937  10.865 -1.8040 -0.4702  2.7250
   95MOL0     H12766   5.232   4.016  10.981  1.2850  0.4645 -0.9933
   95MOL0     H12767   5.125   3.920  10.871 -0.7147  0.9438  0.6786
   95MOL0     H12768   5.249   3.719  10.966 -0.1484 -0.8212  0.2576
   95MOL0     H12769   5.311   3.840  11.088  1.1399  1.5778 -1.4466
   95MOL0     H12770   5.041   3.885  11.102 -1.1269 -0.7726  4.1637
   95MOL0     H12771   5.047   3.703  11.079  1.9261 -2.4568  2.7140
   95MOL0     H12772   5.035   3.749  11.300  1.0561 -0.4770  0.8334
   95MOL0     H12773   5.179   3.665  11.248 -1.2776 -0.4366 -5.1675
   95MOL0     H12774   5.147   3.899  11.424 -0.1041 -2.1429  0.6233
   95MOL0     H12775   5.226   3.948  11.268 -1.3658 -0.8410 -1.1515
   95MOL0     H12776   5.468   3.852  11.230 -1.2296 -1.3146 -1.5833
   95MOL0     H12777   5.751   3.744  11.374 -0.7785  0.5623  1.6575
   95MOL0     H12778   5.701   3.584  11.384 -0.1557  1.8066  3.1327
   95MOL0     H12779   5.647   3.765  11.155 -2.2602 -1.6736 -1.8095
   95MOL0     H12780   5.587   3.605  11.167 -1.7448  1.4101 -1.8143
   95MOL0     H12781   5.773   3.564  11.048 -3.1134  1.8452 -1.1383
   95MOL0     H12782   5.842   3.531  11.204  1.7916 -0.4901 -0.8717
   95MOL0     H12783   6.003   3.672  11.098 -0.1069  0.0523 -3.2769
   95MOL0     H12784   5.922   3.777  11.219  2.3027 -4.3025  2.1887
   95MOL0     H12785   5.861   3.839  10.781  0.3201 -0.3409  2.4140
   95MOL0     H12786   6.020   4.090  10.559  0.0699 -1.4170 -5.4542
   95MOL0     H12787   6.084   3.929  10.536 -2.0043 -1.9336  0.7846
   95MOL0     H12788   5.910   3.957  10.554 -0.9822 -0.8640  0.3971
   95MOL0     H12789   6.288   4.365  10.593  2.7287 -1.3509  2.7734
   95MOL0     H12790   6.365   4.475  10.373 -0.8948 -0.0271  0.9946
   95MOL0     H12791   6.651   4.238  10.099  0.0274  0.0184  0.9456
   95MOL0     H12792   6.492   4.189  10.065  2.6364 -1.6172  2.7427
   95MOL0     H12793   6.589   4.301   9.865 -0.5201 -0.3098 -0.8361
   95MOL0     H12794   6.470   4.411   9.928 -0.4610 -0.1270  1.5783
   95MOL0     H12795   6.645   4.532  10.058 -5.1497 -2.1311  0.2998
   95MOL0     H12796   6.627   4.557   9.885 -1.2691  0.0612 -0.4760
   95MOL0     H12797   6.825   4.343   9.951 -0.8654 -0.1063 -0.8649
   95MOL0     H12798   6.834   4.484   9.834  0.8597  2.0132  0.3527
   95MOL0     H12799   6.880   4.532  10.125 -3.5909  2.6788  0.1216
   95MOL0     H12800   6.873   4.646   9.993  2.5842  1.8378  2.4482
   95MOL0     H12801   7.094   4.425   9.979 -0.5228 -1.2609 -0.8754
   95MOL0     H12802   7.062   4.558   9.863  2.6766 -0.5064  0.1290
   95MOL0     H12803   7.175   4.551  10.146  1.3933 -0.4216 -0.7179
   95MOL0     H12804   7.131   4.708  10.057  0.7918  1.6717  1.3495
   95MOL0     H12805   7.360   4.677  10.014 -1.0426  0.8344  1.2547
   95MOL0     H12806   7.293   4.595   9.868  1.1768 -1.6825 -0.4564
   95MOL0     H12807   6.567   4.100  10.277 -0.6457 -0.1819  0.9532
   95MOL0     H12808   6.488   4.011  10.486  0.5858 -0.8812 -1.2300
   95MOL0     H12809   6.236   4.084  11.004 -0.6635  1.9436  0.3103
   95MOL0     H12810   6.072   3.947  11.126  1.0866 -0.7930  0.3450
   95MOL0     H12811   4.899   3.990  10.697  4.1491 -0.6627  0.4969
   95MOL0     H12812   4.694   3.962  10.603 -1.6096  0.4086 -2.5624
   95MOL0     H12813   4.453   3.888  10.183 -1.2880  0.9615 -2.3306
   95MOL0     H12814   4.238   3.851  10.092 -0.9213 -0.5486 -0.4609
   95MOL0     H12815   4.082   3.756   9.947 -2.5660  1.6325 -0.3752
   95MOL0     H12816   3.960   3.635   9.964  0.5490  2.6407 -4.3838
   95MOL0     H12817   3.987   3.828  10.178  2.3837  2.0184 -1.1331
   95MOL0     H12818   3.835   3.773  10.102  0.0240 -0.3471  0.7477
   95MOL0     H12819   4.004   3.982   9.978  0.0475 -1.4174 -1.6708
   95MOL0     H12820   3.856   4.012  10.039  2.9978  0.8447 -0.2100
   95MOL0     H12821   3.880   3.801   9.810 -0.7117 -0.5933 -0.3850
   95MOL0     H12822   3.844   3.975   9.776  0.2886 -1.7756 -1.6866
   95MOL0     H12823   3.499   3.749   9.901  0.7815 -0.8452 -0.9404
   95MOL0     H12824   4.237   3.455  10.248  0.2060  0.1161 -2.1444
   95MOL0     H12825   4.462   3.506  10.365  0.1371  0.1945 -1.3911
   96MOL0     O12826   4.971   0.633   0.852 -0.6346 -1.0734 -0.7111
   96MOL0     C12827   4.867   0.588   0.894  0.3494 -0.9110 -0.0626
   96MOL0     O12828   4.845   0.480   0.966 -0.1761  0.2691 -0.3053
   96MOL0     C12829   4.957   0.406   1.008 -0.0750 -0.4371  1.5273
   96MOL0     C12830   5.082   0.450   1.050  1.1049  0.0441 -0.2472
   96MOL0     C12831   5.202   0.368   1.074 -0.0898 -0.1058 -0.3164
   96MOL0     C12832   5.195   0.239   1.062 -1.0003  0.7181 -0.4787
   96MOL0     O12833   5.309   0.163   1.079 -0.7322 -0.0794 -0.1500
   96MOL0     C12834   5.333   0.041   1.001 -1.1492 -0.7563 -2.0148
   96MOL0     C12835   5.481  -0.003   1.011  0.5743  0.1751 -0.0874
   96MOL0     C12836   5.518  -0.094   1.126 -0.1128 -0.1339  0.3375
   96MOL0     C12837   5.626  -0.194   1.078  0.2661 -0.2749  0.7224
   96MOL0     C12838   5.754  -0.125   1.043  0.0693 -0.1770  1.4298
   96MOL0     C12839   5.849  -0.212   0.970 -0.8288  0.0024  0.9028
   96MOL0     C12840   5.964  -0.140   0.900  1.1158 -0.6363  0.3776
   96MOL0     C12841   6.045  -0.065   0.997 -0.4519  0.5665  0.7249
   96MOL0     N12842   6.114  -0.147   1.096  0.0654 -0.3516  0.7394
   96MOL0     C12843   6.165  -0.272   1.068  0.0754  0.0040  0.8648
   96MOL0     C12844   6.217  -0.313   1.184  0.0252 -0.2138  0.3320
   96MOL0     C12845   6.278  -0.451   1.202 -0.2854 -0.0254  1.5784
   96MOL0     C12846   6.263  -0.566   1.095  0.1172 -0.4265  0.2045
   96MOL0     C12847   6.115  -0.614   1.086 -1.1604 -0.2932  0.2143
   96MOL0     C12848   6.060  -0.684   0.962  0.4306  0.2574  0.8627
   96MOL0     O12849   6.141  -0.792   0.918  0.1053  0.4501  0.0361
   96MOL0     C12850   6.073  -0.881   0.844  0.9143 -0.0141  0.5414
   96MOL0     C12851   5.996  -0.839   0.734 -0.1937 -0.0718  0.3599
   96MOL0     C12852   5.914  -0.934   0.658 -0.1434  0.3527  0.2311
   96MOL0     C12853   5.824  -0.881   0.545 -0.0317 -0.6492  0.1139
   96MOL0     C12854   5.927  -1.070   0.689  0.3108  0.0160 -0.5445
   96MOL0     C12855   5.851  -1.178   0.606 -1.2558  0.9542  0.0877
   96MOL0     O12856   5.786  -1.139   0.491  0.5608 -0.7327 -0.1662
   96MOL0     C12857   5.753  -1.239   0.410  1.1233 -0.5462  0.3847
   96MOL0     C12858   5.769  -1.222   0.279 -1.0489  0.7934  0.1532
   96MOL0     C12859   5.739  -1.314   0.187  1.2176 -0.4498  0.3822
   96MOL0     C12860   5.692  -1.443   0.224 -0.0590 -0.1096  0.9551
   96MOL0     O12861   5.672  -1.547   0.140  0.1883  0.2746 -0.1883
   96MOL0     C12862   5.672  -1.529   0.003  0.0595  0.1152 -0.3561
   96MOL0     C12863   5.557  -1.439  -0.045 -0.4043  0.7977  0.7176
   96MOL0     C12864   5.534  -1.446  -0.198 -0.0630 -0.2021 -0.6388
   96MOL0     C12865   5.635  -1.371  -0.270 -0.3677  0.2801 -0.3586
   96MOL0     C12866   5.617  -1.400  -0.422  0.2459  0.8776 -0.4373
   96MOL0     C12867   5.723  -1.330  -0.504  0.4947 -0.4358  0.4502
   96MOL0     C12868   5.755  -1.390  -0.640  0.1973  0.1338 -0.4678
   96MOL0     C12869   5.632  -1.422  -0.722  0.9481  1.2546 -0.8388
   96MOL0    Cl12870   5.695  -1.494  -0.873  0.0329  0.4262 -0.2472
   96MOL0     C12871   5.637  -1.451   0.353 -0.4801  0.4316 -0.0222
   96MOL0     C12872   5.672  -1.351   0.455 -0.4074  0.0939  0.5872
   96MOL0     O12873   5.879  -1.296   0.637 -0.0178 -0.4668  0.2877
   96MOL0     C12874   6.000  -1.104   0.801 -0.0785 -0.8587  0.4168
   96MOL0     C12875   6.068  -1.015   0.884  0.4095 -0.4695  1.1656
   96MOL0     N12876   6.211  -0.209   1.281  0.9391 -0.1627 -0.0341
   96MOL0     N12877   6.136  -0.123   1.227  0.3038  0.1931 -0.0776
   96MOL0     C12878   5.067   0.188   1.031  0.9617  0.0337  0.4554
   96MOL0     C12879   4.950   0.262   1.000  0.1951 -0.5419  0.7262
   96MOL0     C12880   4.748   0.674   0.869  0.3701 -0.1932 -0.0514
   96MOL0     C12881   4.754   0.779   0.786 -0.1149 -0.6396 -0.5118
   96MOL0     C12882   4.642   0.864   0.769  0.0937  0.0671 -0.3552
   96MOL0     C12883   4.522   0.838   0.837  0.2686  0.5765 -0.4405
   96MOL0     O12884   4.423   0.931   0.825  0.4099 -0.6538  0.0228
   96MOL0     C12885   4.308   0.934   0.909  0.9471 -0.5084  0.9015
   96MOL0     C12886   4.213   1.040   0.842  0.4715 -0.4648 -0.3200
   96MOL0     C12887   4.265   1.183   0.858  0.3371 -0.7249 -0.3740
   96MOL0     C12888   4.179   1.298   0.812  0.9021 -0.2310 -0.9195
   96MOL0     C12889   4.050   1.285   0.884 -0.0410 -0.0535  0.5816
   96MOL0     C12890   3.945   1.282   0.945 -0.5498 -0.3420  0.1447
   96MOL0     C12891   4.514   0.725   0.923 -0.2364 -0.9292 -0.7559
   96MOL0     C12892   4.630   0.646   0.935  0.6601 -0.2839 -0.3748
   96MOL0     H12893   5.087   0.559   1.056 -1.2008  0.1624  0.6947
   96MOL0     H12894   5.289   0.423   1.106 -1.3213 -0.1558  3.8108
   96MOL0     H12895   5.270  -0.038   1.042  0.5816  0.2418  3.3174
   96MOL0     H12896   5.305   0.055   0.896 -5.2097 -0.7966 -1.1026
   96MOL0     H12897   5.483  -0.068   0.924  2.2635 -2.8317  2.0151
   96MOL0     H12898   5.553   0.079   1.018 -0.2558  0.7968  2.2965
   96MOL0     H12899   5.556  -0.032   1.208  5.8235  0.5449 -2.3988
   96MOL0     H12900   5.429  -0.141   1.168  0.8494 -0.8647  1.6508
   96MOL0     H12901   5.636  -0.265   1.161  0.3122  0.2213  1.1493
   96MOL0     H12902   5.600  -0.250   0.988 -1.2467 -1.0975  1.6123
   96MOL0     H12903   5.735  -0.035   0.984  1.9570  0.6675  2.0371
   96MOL0     H12904   5.802  -0.098   1.138 -1.7887 -0.1791  2.4089
   96MOL0     H12905   5.897  -0.282   1.039 -0.8049 -0.6145  0.2658
   96MOL0     H12906   5.796  -0.259   0.887  1.0220 -0.0681 -0.2830
   96MOL0     H12907   6.032  -0.216   0.861  0.7759  0.1188 -1.8793
   96MOL0     H12908   5.922  -0.089   0.812 -1.9454  0.1012  2.1259
   96MOL0     H12909   5.981   0.011   1.043 -1.6840  0.1718 -0.2485
   96MOL0     H12910   6.123   0.003   0.962  0.3184  1.1227  3.3354
   96MOL0     H12911   6.158  -0.330   0.977 -2.5224  1.1263  0.2565
   96MOL0     H12912   6.384  -0.424   1.193 -0.0061 -1.6081 -0.4795
   96MOL0     H12913   6.262  -0.494   1.302  0.6658  1.3107  2.3540
   96MOL0     H12914   6.332  -0.649   1.114  1.1251  0.6692  1.5767
   96MOL0     H12915   6.284  -0.519   0.999  2.8118 -3.5129 -0.9176
   96MOL0     H12916   6.043  -0.531   1.084 -0.1785  0.6140 -2.6680
   96MOL0     H12917   6.092  -0.684   1.167 -2.9145  0.2437  0.2335
   96MOL0     H12918   6.046  -0.610   0.883 -0.8474 -0.9672 -0.1044
   96MOL0     H12919   5.966  -0.734   0.988  2.4027 -4.4256  0.1531
   96MOL0     H12920   5.997  -0.735   0.703 -1.6859 -0.0390  0.3497
   96MOL0     H12921   5.719  -0.909   0.558  0.6500 -2.1145  4.2315
   96MOL0     H12922   5.825  -0.772   0.551  0.9089 -0.7093  3.2154
   96MOL0     H12923   5.863  -0.923   0.452  0.6354 -3.4953  1.5405
   96MOL0     H12924   5.813  -1.130   0.241 -2.0864  1.0275 -0.5222
   96MOL0     H12925   5.754  -1.282   0.084 -0.5222  1.6938  0.7268
   96MOL0     H12926   5.774  -1.493  -0.018  1.4338 -2.4044  1.4503
   96MOL0     H12927   5.653  -1.622  -0.051 -5.8687  1.0712 -0.5163
   96MOL0     H12928   5.466  -1.482  -0.003  0.5568 -3.4289 -1.0223
   96MOL0     H12929   5.579  -1.333  -0.027  1.2166  1.1898 -2.7640
   96MOL0     H12930   5.428  -1.429  -0.219 -0.7373 -0.6417  1.9789
   96MOL0     H12931   5.544  -1.550  -0.231  0.1819 -0.6758  0.8550
   96MOL0     H12932   5.617  -1.264  -0.260 -0.3892  0.2879 -0.4868
   96MOL0     H12933   5.736  -1.402  -0.242 -1.5461 -1.7434  2.0809
   96MOL0     H12934   5.514  -1.380  -0.455 -0.7103 -0.4103  1.5528
   96MOL0     H12935   5.632  -1.507  -0.438 -2.0466  0.7376 -2.2537
   96MOL0     H12936   5.685  -1.229  -0.518  1.1438 -0.3152 -0.5095
   96MOL0     H12937   5.820  -1.322  -0.454 -0.7314  0.5965  2.8128
   96MOL0     H12938   5.807  -1.482  -0.612 -2.4451 -0.8254  1.7366
   96MOL0     H12939   5.812  -1.315  -0.696 -0.5977 -1.3924 -3.5682
   96MOL0     H12940   5.565  -1.338  -0.736  0.4243  0.5201 -3.3407
   96MOL0     H12941   5.575  -1.506  -0.682 -1.7696  1.9580 -2.9716
   96MOL0     H12942   5.588  -1.540   0.392  1.2868 -0.1021  1.0921
   96MOL0     H12943   5.646  -1.351   0.561 -0.5983  3.4731  0.6394
   96MOL0     H12944   6.006  -1.211   0.819 -0.7326 -1.1022 -0.6898
   96MOL0     H12945   6.133  -1.042   0.967 -2.9099 -0.0835  4.1395
   96MOL0     H12946   5.043   0.082   1.019 -1.2301  0.0857  3.2944
   96MOL0     H12947   4.861   0.220   0.953 -1.3371  4.0580 -1.1283
   96MOL0     H12948   4.846   0.809   0.737 -0.8875  4.1202  0.4108
   96MOL0     H12949   4.644   0.956   0.713  3.2713 -0.5954 -1.5192
   96MOL0     H12950   4.252   0.841   0.919 -0.1161 -0.1851 -1.3109
   96MOL0     H12951   4.334   0.979   1.005  0.5360 -0.9604  1.2277
   96MOL0     H12952   4.118   1.031   0.894  0.1696 -2.0962 -1.0809
   96MOL0     H12953   4.198   1.016   0.736 -0.7815  2.0475 -0.8109
   96MOL0     H12954   4.362   1.185   0.808 -0.8614  0.6139 -2.8581
   96MOL0     H12955   4.283   1.204   0.964 -1.8202 -1.7354  0.2555
   96MOL0     H12956   4.166   1.315   0.705 -2.8441  0.6356 -0.4793
   96MOL0     H12957   4.235   1.386   0.845 -1.3128 -0.0822  3.0418
   96MOL0     H12958   3.842   1.283   0.974 -1.8435 -3.5091 -3.5754
   96MOL0     H12959   4.430   0.692   0.984 -2.1364  1.7441 -1.7441
   96MOL0     H12960   4.613   0.566   1.007 -0.6120  0.5419  0.2786
   97MOL0     O12961   6.523   6.895   3.543 -0.6347  0.2284  0.4830
   97MOL0     C12962   6.539   7.002   3.596 -1.2631 -0.0285 -0.9716
   97MOL0     O12963   6.567   7.122   3.532  0.3489 -0.4455  0.8205
   97MOL0     C12964   6.575   7.118   3.391 -0.3549  0.1261  0.9127
   97MOL0     C12965   6.684   7.189   3.324  0.4920 -0.3249  0.8273
   97MOL0     C12966   6.675   7.204   3.183 -0.1753  0.0771  0.4450
   97MOL0     C12967   6.561   7.160   3.107 -1.8253 -0.3768  1.0527
   97MOL0     O12968   6.557   7.192   2.979  0.2843 -0.6898  0.0069
   97MOL0     C12969   6.517   7.093   2.884 -0.5046  0.2678  0.4335
   97MOL0     C12970   6.629   6.997   2.858  1.2740 -1.3060 -0.6171
   97MOL0     C12971   6.646   6.966   2.712 -0.1856  0.6133  0.4766
   97MOL0     C12972   6.735   6.829   2.691  0.7999 -0.0223 -0.1960
   97MOL0     C12973   6.787   6.809   2.549  0.6640  1.0849  0.4639
   97MOL0     C12974   6.683   6.827   2.450  0.9727  0.8515  0.3186
   97MOL0     C12975   6.725   6.799   2.311 -1.3584 -0.0822 -0.1393
   97MOL0     C12976   6.617   6.802   2.201  0.4462  0.6122  0.7577
   97MOL0     N12977   6.547   6.928   2.192 -0.3254  0.1290  0.3043
   97MOL0     C12978   6.452   6.973   2.281  0.2610 -0.3924 -0.0267
   97MOL0     C12979   6.399   7.077   2.209 -0.5929  0.5194 -0.0420
   97MOL0     C12980   6.318   7.182   2.270  0.2382  0.1637 -0.2343
   97MOL0     C12981   6.181   7.140   2.293  0.1668  1.2573  0.4695
   97MOL0     C12982   6.082   7.250   2.313  0.6075  0.4863  0.2012
   97MOL0     C12983   5.945   7.189   2.359 -0.3368  0.3429  1.0179
   97MOL0     O12984   5.841   7.301   2.370  0.4930 -0.4744 -0.4218
   97MOL0     C12985   5.821   7.351   2.496  0.3268 -0.2480  0.4325
   97MOL0     C12986   5.723   7.444   2.502  0.0452 -0.1361 -0.2188
   97MOL0     C12987   5.692   7.515   2.621 -0.1187 -0.4546 -0.7083
   97MOL0     C12988   5.576   7.611   2.606  0.6087  0.5932  0.8678
   97MOL0     C12989   5.770   7.492   2.738  0.0766 -0.2766  0.0734
   97MOL0     C12990   5.751   7.561   2.871  0.8218 -0.0355  0.3803
   97MOL0     O12991   5.819   7.504   2.979  0.1291 -0.2346 -0.3554
   97MOL0     C12992   5.820   7.556   3.104 -0.6787 -0.0065 -0.2054
   97MOL0     C12993   5.797   7.697   3.128  0.7931 -0.3027  0.5297
   97MOL0     C12994   5.786   7.752   3.263 -0.5274 -0.0915 -0.0942
   97MOL0     C12995   5.824   7.665   3.366 -0.1099  0.1061 -0.5157
   97MOL0     O12996   5.836   7.720   3.491 -0.0977  0.0952  0.1500
   97MOL0     C12997   5.889   7.635   3.598  0.4428 -0.1852  0.9185
   97MOL0     C12998   5.899   7.722   3.724  1.2824 -0.4359  0.1051
   97MOL0     C12999   6.034   7.790   3.730  0.0033 -0.2608  0.2878
   97MOL0     C13000   6.051   7.891   3.846  0.8666  0.2771  0.3924
   97MOL0     C13001   5.951   8.005   3.875  1.1858  0.3894  1.1259
   97MOL0     C13002   5.912   8.108   3.758  0.3045 -0.2337 -0.7534
   97MOL0     C13003   5.797   8.203   3.806  0.1525 -0.1007  0.5519
   97MOL0     C13004   5.819   8.339   3.770 -0.0723  0.7149  0.0365
   97MOL0    Cl13005   5.684   8.442   3.838 -0.4143  0.1835  0.0462
   97MOL0     C13006   5.840   7.529   3.343 -0.2052  0.5083  0.1066
   97MOL0     C13007   5.838   7.473   3.216  0.3248  0.1250 -0.3099
   97MOL0     O13008   5.667   7.652   2.882  0.1053  1.3565  0.6679
   97MOL0     C13009   5.874   7.403   2.734 -0.0648 -0.2169 -0.1186
   97MOL0     C13010   5.901   7.330   2.613 -0.4702 -0.7559 -0.0438
   97MOL0     N13011   6.461   7.099   2.089 -0.6628 -0.4273  0.3435
   97MOL0     N13012   6.556   7.009   2.078  0.7521  0.6463 -0.2096
   97MOL0     C13013   6.457   7.095   3.183 -0.2511  0.7407 -0.5400
   97MOL0     C13014   6.468   7.066   3.322  0.6139 -0.2388  0.3706
   97MOL0     C13015   6.525   7.016   3.743  0.5855  0.0701  0.0593
   97MOL0     C13016   6.533   6.906   3.828  0.6391  0.2864 -0.6152
   97MOL0     C13017   6.517   6.924   3.963  0.2229  0.2960 -0.0541
   97MOL0     C13018   6.515   7.052   4.023 -0.1235  0.0559  0.7721
   97MOL0     O13019   6.500   7.071   4.159 -0.6089  0.1456 -0.5941
   97MOL0     C13020   6.394   6.999   4.229  0.3366 -0.4484 -1.0110
   97MOL0     C13021   6.445   6.947   4.372  0.2378 -0.3268  0.0381
   97MOL0     C13022   6.457   7.055   4.476  0.4140 -0.0947 -0.3599
   97MOL0     C13023   6.514   7.009   4.609  0.3975 -0.1713 -0.2674
   97MOL0     C13024   6.557   7.131   4.686 -0.1809  0.2744  0.6020
   97MOL0     C13025   6.605   7.218   4.748 -0.2139 -0.1213 -0.9949
   97MOL0     C13026   6.518   7.166   3.943  0.8790 -0.1809  1.2452
   97MOL0     C13027   6.524   7.150   3.799  0.9373 -0.0651  0.2376
   97MOL0     H13028   6.770   7.215   3.385 -0.9232 -0.1591  2.8681
   97MOL0     H13029   6.760   7.235   3.124 -1.1074  0.4435 -0.7417
   97MOL0     H13030   6.433   7.030   2.915  0.6460 -1.7346 -0.3124
   97MOL0     H13031   6.481   7.143   2.793 -1.0626  0.4341  0.7347
   97MOL0     H13032   6.727   7.036   2.888  0.4031  1.3629 -0.9296
   97MOL0     H13033   6.600   6.905   2.909 -0.4677 -0.3840  0.1531
   97MOL0     H13034   6.545   6.951   2.675 -0.9654 -0.2206  2.7436
   97MOL0     H13035   6.697   7.053   2.669  3.9678 -1.6699  0.2044
   97MOL0     H13036   6.813   6.828   2.768  1.4749  3.2006 -0.6811
   97MOL0     H13037   6.659   6.753   2.709  2.2162 -1.9580 -1.8794
   97MOL0     H13038   6.875   6.867   2.521  2.2943 -1.6337 -0.4866
   97MOL0     H13039   6.826   6.706   2.544  0.5372  1.1054 -1.6574
   97MOL0     H13040   6.612   6.745   2.467  1.7345 -0.8780 -3.7311
   97MOL0     H13041   6.627   6.920   2.461 -2.5520 -1.0911  0.3672
   97MOL0     H13042   6.805   6.862   2.271  1.0441 -2.1942  1.0713
   97MOL0     H13043   6.782   6.707   2.326  1.6350  1.5809 -0.6378
   97MOL0     H13044   6.556   6.712   2.209  1.2141 -0.4798 -3.2155
   97MOL0     H13045   6.674   6.792   2.108 -1.9857 -2.0211 -0.6002
   97MOL0     H13046   6.436   6.926   2.378  0.7702  1.1834  0.8636
   97MOL0     H13047   6.359   7.186   2.371  1.3370 -0.7480 -0.6250
   97MOL0     H13048   6.330   7.276   2.215  1.1789 -0.0766 -0.4607
   97MOL0     H13049   6.181   7.070   2.377 -2.8338 -0.8380 -1.0693
   97MOL0     H13050   6.139   7.074   2.215  2.0078  1.4776 -0.7730
   97MOL0     H13051   6.060   7.299   2.218 -0.1942 -0.1644  0.0325
   97MOL0     H13052   6.126   7.324   2.380  0.0532  0.2179  0.8726
   97MOL0     H13053   5.965   7.133   2.451  2.9344  1.6052  1.2006
   97MOL0     H13054   5.916   7.118   2.281 -0.4533  3.0289 -1.5541
   97MOL0     H13055   5.671   7.457   2.408 -0.0982 -1.6324 -0.3721
   97MOL0     H13056   5.521   7.570   2.522  0.5413  0.5788  0.9192
   97MOL0     H13057   5.505   7.614   2.689 -1.1877  0.6231 -0.6290
   97MOL0     H13058   5.607   7.711   2.574  0.9437  0.8105  1.8112
   97MOL0     H13059   5.787   7.768   3.047  1.5631 -1.4942 -0.6612
   97MOL0     H13060   5.752   7.853   3.280 -2.2670 -0.5286 -0.8066
   97MOL0     H13061   5.825   7.548   3.618 -0.5183  0.7727  2.1927
   97MOL0     H13062   5.989   7.599   3.570  1.2858  4.5854 -3.9357
   97MOL0     H13063   5.814   7.790   3.737  0.7407 -1.3922  2.0194
   97MOL0     H13064   5.901   7.652   3.808  2.8253 -0.9414 -0.3247
   97MOL0     H13065   6.057   7.846   3.639  1.1706 -0.8616  0.1940
   97MOL0     H13066   6.111   7.713   3.738  1.3915  0.8031 -1.8438
   97MOL0     H13067   6.052   7.829   3.935 -3.3196 -0.8215 -0.0748
   97MOL0     H13068   6.148   7.937   3.828  1.3824 -1.3352 -1.3151
   97MOL0     H13069   5.975   8.064   3.964  1.1702  2.1792  0.0133
   97MOL0     H13070   5.861   7.956   3.911  1.2688 -0.6185  0.0267
   97MOL0     H13071   6.007   8.161   3.749  0.3459 -0.0176  0.6878
   97MOL0     H13072   5.875   8.048   3.675  1.7389 -1.9539 -0.2179
   97MOL0     H13073   5.776   8.191   3.912 -1.1839 -0.2424  0.2888
   97MOL0     H13074   5.709   8.175   3.746  2.1037  1.4386 -3.4330
   97MOL0     H13075   5.846   8.342   3.664  1.5104  3.6136  0.4249
   97MOL0     H13076   5.905   8.364   3.833  0.5927 -2.0710  0.3824
   97MOL0     H13077   5.844   7.467   3.432  4.1149  1.6538  0.9176
   97MOL0     H13078   5.856   7.367   3.206 -4.2076 -0.8360 -0.2422
   97MOL0     H13079   5.910   7.359   2.826 -1.6289  0.1234  0.6933
   97MOL0     H13080   5.996   7.278   2.611  2.2233  3.5572  0.7426
   97MOL0     H13081   6.364   7.079   3.130 -0.0571  0.3036 -0.7500
   97MOL0     H13082   6.386   7.004   3.358 -0.3564 -0.1540 -1.5769
   97MOL0     H13083   6.523   6.811   3.775 -0.9178  1.5687 -2.7660
   97MOL0     H13084   6.524   6.841   4.032  0.8615 -0.1500 -0.6400
   97MOL0     H13085   6.315   7.069   4.258 -0.4097 -2.7790  3.4801
   97MOL0     H13086   6.355   6.920   4.165  0.5899 -0.1263 -1.5731
   97MOL0     H13087   6.538   6.898   4.341 -0.7382 -1.6209 -0.9949
   97MOL0     H13088   6.378   6.879   4.426 -0.4535 -0.0094 -0.4116
   97MOL0     H13089   6.355   7.093   4.485 -0.9024 -3.1282 -1.1329
   97MOL0     H13090   6.521   7.131   4.429  1.8737 -0.7667  0.4535
   97MOL0     H13091   6.599   6.940   4.598 -0.2525 -1.0798  0.2600
   97MOL0     H13092   6.449   6.949   4.673  2.7338  0.6940  3.2036
   97MOL0     H13093   6.647   7.297   4.807  2.4284 -1.6759 -0.6414
   97MOL0     H13094   6.514   7.264   3.990  0.5969  1.6950 -2.3475
   97MOL0     H13095   6.523   7.240   3.738 -2.1811 -1.4050 -1.9453
   98MOL0     O13096   5.464   6.252   8.869  0.0877 -0.7982 -1.2964
   98MOL0     C13097   5.578   6.238   8.830 -0.2800  0.6655  1.0042
   98MOL0     O13098   5.694   6.281   8.889 -0.3945  0.1142 -0.3060
   98MOL0     C13099   5.690   6.326   9.018  0.2805  0.8624 -0.0531
   98MOL0     C13100   5.655   6.454   9.041  0.2737 -1.3865  0.0134
   98MOL0     C13101   5.630   6.504   9.173  0.0443 -0.4586 -0.8082
   98MOL0     C13102   5.653   6.419   9.285  0.2574 -0.4671  0.1543
   98MOL0     O13103   5.632   6.448   9.417  0.2525  0.2436 -0.3033
   98MOL0     C13104   5.549   6.559   9.443  0.5175 -0.2027 -0.5573
   98MOL0     C13105   5.397   6.525   9.465 -0.3487 -0.5328 -0.2083
   98MOL0     C13106   5.312   6.530   9.341  0.0170  1.2047  0.6923
   98MOL0     C13107   5.152   6.522   9.365  0.2153  0.4651 -0.4072
   98MOL0     C13108   5.060   6.536   9.241 -1.3026 -0.4695  0.0537
   98MOL0     C13109   5.056   6.673   9.185 -0.3910 -0.1601 -0.2646
   98MOL0     C13110   4.991   6.781   9.273  0.0289 -0.7655  0.2713
   98MOL0     C13111   4.965   6.909   9.202  0.1524 -0.2320  0.3735
   98MOL0     N13112   4.930   7.016   9.297  0.1634 -0.2432  0.1643
   98MOL0     C13113   4.834   6.995   9.399  0.4615  0.1444  0.0937
   98MOL0     C13114   4.839   7.107   9.475 -0.0613 -1.2012 -0.5075
   98MOL0     C13115   4.739   7.144   9.587 -0.6525 -0.4195 -0.1066
   98MOL0     C13116   4.611   7.216   9.531 -0.5077 -0.8512 -0.2932
   98MOL0     C13117   4.493   7.218   9.627 -0.1685 -0.0051  0.0384
   98MOL0     C13118   4.528   7.251   9.768 -0.1749 -0.0929  0.1264
   98MOL0     O13119   4.622   7.353   9.790  0.0034 -0.2289  0.9702
   98MOL0     C13120   4.588   7.450   9.878 -0.6215  0.6516  0.0112
   98MOL0     C13121   4.495   7.444   9.987  0.1999 -0.3036 -0.1717
   98MOL0     C13122   4.452   7.558  10.055 -0.0480 -0.0710  0.3992
   98MOL0     C13123   4.330   7.547  10.131  0.2203  0.5034 -0.0613
   98MOL0     C13124   4.516   7.681  10.031  0.4229 -0.0698 -0.1379
   98MOL0     C13125   4.468   7.810  10.092  0.8790 -0.4100 -0.1680
   98MOL0     O13126   4.483   7.919  10.010 -0.3308 -0.2068  0.8964
   98MOL0     C13127   4.426   8.046  10.026 -0.3297 -0.8969 -0.1579
   98MOL0     C13128   4.295   8.064  10.054 -0.4580 -0.7310 -0.3105
   98MOL0     C13129   4.236   8.190  10.035 -0.3937 -0.1336 -0.2741
   98MOL0     C13130   4.320   8.310  10.009 -0.2094 -0.1848 -1.4341
   98MOL0     O13131   4.289   8.446  10.014  0.0902 -0.2757  0.3930
   98MOL0     C13132   4.159   8.490  10.063 -0.6777  1.4242 -0.6379
   98MOL0     C13133   4.093   8.586   9.966  0.4405  0.1989 -0.0743
   98MOL0     C13134   4.088   8.530   9.819  0.2598 -0.5426 -0.9793
   98MOL0     C13135   4.040   8.634   9.727  0.4506 -0.2145 -0.5637
   98MOL0     C13136   4.053   8.585   9.582  0.2633 -0.3104  0.1611
   98MOL0     C13137   3.956   8.650   9.489 -0.6227 -0.2992  0.1639
   98MOL0     C13138   4.001   8.791   9.452  0.0204  0.1367 -0.0662
   98MOL0     C13139   3.910   8.844   9.331 -0.7562  0.0489  0.1080
   98MOL0    Cl13140   3.910   9.015   9.310 -0.3141  0.2728  0.2828
   98MOL0     C13141   4.455   8.290   9.987 -0.0458 -0.3053 -0.1438
   98MOL0     C13142   4.504   8.158   9.985 -0.3458 -1.1335  0.3869
   98MOL0     O13143   4.410   7.815  10.198  0.1617  0.1258  0.0718
   98MOL0     C13144   4.612   7.693   9.933  0.1827 -0.3891  0.6495
   98MOL0     C13145   4.631   7.583   9.847 -0.1466  0.1782  0.5521
   98MOL0     N13146   4.938   7.184   9.425 -0.4330 -0.4217  0.6569
   98MOL0     N13147   4.993   7.131   9.325 -0.4025 -0.8250 -0.3916
   98MOL0     C13148   5.688   6.292   9.260 -0.4016  0.3695  0.5253
   98MOL0     C13149   5.712   6.248   9.127  0.0107  0.7341 -0.5890
   98MOL0     C13150   5.600   6.172   8.700  0.3455 -0.2693 -0.1863
   98MOL0     C13151   5.486   6.124   8.634  0.4391  0.7665  0.6559
   98MOL0     C13152   5.495   6.057   8.509 -0.0469 -1.3231  0.2264
   98MOL0     C13153   5.619   6.034   8.452 -0.1525 -0.6254 -0.0404
   98MOL0     O13154   5.616   5.978   8.323 -0.1022 -0.4572  1.0667
   98MOL0     C13155   5.738   5.918   8.270 -0.2361  0.8185 -0.1361
   98MOL0     C13156   5.694   5.794   8.180 -1.2417  0.0592  0.4441
   98MOL0     C13157   5.680   5.840   8.031 -0.1290  0.5979 -0.1199
   98MOL0     C13158   5.543   5.890   7.991 -0.0623  0.5006 -0.4530
   98MOL0     C13159   5.546   5.934   7.849  0.5307 -0.3403 -0.1893
   98MOL0     C13160   5.533   5.976   7.735 -0.1395  0.1881 -0.5138
   98MOL0     C13161   5.729   6.074   8.520  0.3475 -1.1975 -0.4345
   98MOL0     C13162   5.724   6.147   8.639 -0.0485  0.3318  0.9215
   98MOL0     H13163   5.611   6.513   8.961 -0.9240 -0.1890  1.4743
   98MOL0     H13164   5.590   6.605   9.179  1.5321  0.0909  0.8152
   98MOL0     H13165   5.580   6.597   9.540 -1.3901 -1.0857  0.4485
   98MOL0     H13166   5.565   6.649   9.383 -0.0743  0.6670  0.5601
   98MOL0     H13167   5.388   6.419   9.490  1.3598 -0.6149  0.1709
   98MOL0     H13168   5.353   6.593   9.538  2.5406  0.3110  0.9071
   98MOL0     H13169   5.330   6.609   9.267  0.4278  0.5023  0.0354
   98MOL0     H13170   5.337   6.441   9.283 -0.5051 -0.8221  3.3811
   98MOL0     H13171   5.127   6.430   9.420  1.2343 -0.4886 -1.4757
   98MOL0     H13172   5.129   6.606   9.431 -4.0082 -0.0290 -1.0163
   98MOL0     H13173   5.106   6.474   9.164  1.4793 -1.0700  2.0166
   98MOL0     H13174   4.964   6.493   9.272 -0.4557 -2.0911  0.6019
   98MOL0     H13175   5.152   6.696   9.139 -0.3375 -1.6035 -0.9385
   98MOL0     H13176   4.990   6.669   9.097  0.1442  0.1409 -0.6883
   98MOL0     H13177   4.905   6.747   9.333 -2.9731  3.1470 -1.3495
   98MOL0     H13178   5.060   6.806   9.354 -0.3647 -0.2735  0.4596
   98MOL0     H13179   4.881   6.889   9.135  1.8880 -0.3915 -1.8614
   98MOL0     H13180   5.045   6.949   9.140 -1.0033 -0.2761 -1.2012
   98MOL0     H13181   4.768   6.910   9.414  1.9358 -0.6329  2.8553
   98MOL0     H13182   4.721   7.051   9.643 -1.7450  0.6324  1.3529
   98MOL0     H13183   4.786   7.213   9.658  1.1249 -0.9833 -0.6905
   98MOL0     H13184   4.581   7.150   9.449 -3.9020  2.6174 -2.2002
   98MOL0     H13185   4.638   7.318   9.499 -1.9581 -0.1258  0.7018
   98MOL0     H13186   4.475   7.110   9.629  2.7634 -0.5633  0.4854
   98MOL0     H13187   4.405   7.280   9.605  0.4950  2.3289  3.2761
   98MOL0     H13188   4.564   7.164   9.824  2.6250  0.7833 -0.1622
   98MOL0     H13189   4.429   7.270   9.812 -0.0991  0.6853 -0.0218
   98MOL0     H13190   4.467   7.345  10.022  0.4471  0.2623  1.7646
   98MOL0     H13191   4.347   7.513  10.233  0.0059  1.4815  0.3143
   98MOL0     H13192   4.275   7.641  10.144  0.2323  0.3930  0.8159
   98MOL0     H13193   4.253   7.483  10.087 -1.1479  1.5202  0.7455
   98MOL0     H13194   4.243   7.971  10.075 -1.9720 -0.1280 -1.1915
   98MOL0     H13195   4.131   8.201  10.061  0.5126  2.0406  3.2361
   98MOL0     H13196   4.093   8.405  10.085  0.5749  1.0011  1.7691
   98MOL0     H13197   4.173   8.520  10.167  0.2198 -2.1292  0.4258
   98MOL0     H13198   3.988   8.606   9.986  0.6047  0.0520  0.9665
   98MOL0     H13199   4.145   8.681   9.955 -0.1554  0.4216 -1.0832
   98MOL0     H13200   4.015   8.449   9.829 -0.7601  0.5406  0.7633
   98MOL0     H13201   4.187   8.492   9.791  0.8968 -0.7186  1.3526
   98MOL0     H13202   3.932   8.648   9.744  0.5516  0.5388 -0.4881
   98MOL0     H13203   4.103   8.724   9.731 -0.5431  0.9113 -4.8472
   98MOL0     H13204   4.041   8.477   9.568  3.1185 -0.5437 -1.2244
   98MOL0     H13205   4.153   8.612   9.547 -0.0863  2.3196  1.0033
   98MOL0     H13206   3.935   8.588   9.401 -1.1959 -0.8133  0.6562
   98MOL0     H13207   3.858   8.655   9.537 -0.6220  0.2411  0.1138
   98MOL0     H13208   4.109   8.793   9.434  0.2883  0.4861  1.4593
   98MOL0     H13209   3.970   8.847   9.540 -2.3967 -2.9486  1.2266
   98MOL0     H13210   3.804   8.819   9.336 -0.8232 -0.2220 -2.0552
   98MOL0     H13211   3.947   8.797   9.240 -1.2945 -0.4447  0.1368
   98MOL0     H13212   4.529   8.368   9.972  0.0022 -0.4304 -0.5509
   98MOL0     H13213   4.609   8.138   9.963  0.4010  2.6186 -0.2826
   98MOL0     H13214   4.673   7.781   9.917  0.2134 -0.4260  0.5586
   98MOL0     H13215   4.689   7.605   9.757  1.2985 -0.3366  1.3219
   98MOL0     H13216   5.695   6.213   9.335  1.4763 -0.0184 -0.0108
   98MOL0     H13217   5.729   6.142   9.113 -3.0136  0.2902 -1.5272
   98MOL0     H13218   5.385   6.152   8.662 -0.3037  2.6138 -3.1041
   98MOL0     H13219   5.400   6.028   8.465 -0.3615 -0.4998  0.3532
   98MOL0     H13220   5.802   5.976   8.202  1.6427  0.3168  1.1181
   98MOL0     H13221   5.805   5.890   8.351 -0.1393  1.1287 -0.1052
   98MOL0     H13222   5.599   5.756   8.219 -1.1027  1.1640  1.9496
   98MOL0     H13223   5.766   5.713   8.183  1.0301  1.9002 -0.7627
   98MOL0     H13224   5.700   5.750   7.972  0.9996  0.4591  0.4637
   98MOL0     H13225   5.759   5.908   7.999  1.2038 -1.6318 -1.8637
   98MOL0     H13226   5.523   5.987   8.038 -2.1315 -0.0669 -0.0758
   98MOL0     H13227   5.476   5.807   8.016  1.1278 -1.2528 -2.6812
   98MOL0     H13228   5.502   6.022   7.643  2.4017 -0.0872 -1.6037
   98MOL0     H13229   5.826   6.043   8.481  1.5486 -0.2824  1.6703
   98MOL0     H13230   5.813   6.188   8.686  0.8406  0.9035 -1.1285
   99MOL0     O13231   3.467   8.815   7.050 -0.2039 -0.0215 -1.0654
   99MOL0     C13232   3.380   8.728   7.054 -0.1342  0.4319 -0.2166
   99MOL0     O13233   3.312   8.682   7.166 -0.2219 -0.0990  0.8079
   99MOL0     C13234   3.342   8.731   7.297 -0.0794 -0.4319 -0.3772
   99MOL0     C13235   3.292   8.643   7.395 -0.1963 -0.0623 -0.7674
   99MOL0     C13236   3.332   8.654   7.528  0.7920  0.2777 -0.6463
   99MOL0     C13237   3.406   8.762   7.581 -0.7995 -1.0458 -0.2103
   99MOL0     O13238   3.425   8.785   7.719  0.3337  1.1410  0.0825
   99MOL0     C13239   3.313   8.821   7.803  0.2047 -0.0074 -0.1290
   99MOL0     C13240   3.345   8.925   7.896 -0.0501 -0.2125 -0.2306
   99MOL0     C13241   3.426   9.044   7.840  0.0396  0.9392 -0.5723
   99MOL0     C13242   3.351   9.154   7.776  0.7515 -0.7294  0.6544
   99MOL0     C13243   3.435   9.279   7.734 -1.0097 -0.5611  0.3350
   99MOL0     C13244   3.516   9.336   7.859  0.5345  0.3102  0.9301
   99MOL0     C13245   3.606   9.464   7.815  0.1266 -0.0603  1.2971
   99MOL0     C13246   3.537   9.578   7.737  0.2820 -0.0303 -0.2686
   99MOL0     N13247   3.622   9.672   7.677 -0.6550 -0.3659 -0.0486
   99MOL0     C13248   3.719   9.742   7.740  0.4193 -0.3188  0.8437
   99MOL0     C13249   3.761   9.832   7.655  0.6889  0.3893  0.3023
   99MOL0     C13250   3.865   9.928   7.676 -0.8527 -0.1125 -0.1578
   99MOL0     C13251   3.993   9.854   7.638  0.3270  0.1935 -1.0201
   99MOL0     C13252   4.004   9.825   7.482  0.5528  0.1719 -0.9601
   99MOL0     C13253   4.144   9.783   7.441  0.0328  0.0356  0.7918
   99MOL0     O13254   4.234   9.882   7.483  0.2843 -0.2136 -0.2919
   99MOL0     C13255   4.370   9.845   7.499 -0.3241  1.3729 -0.7198
   99MOL0     C13256   4.423   9.732   7.446 -0.3644  0.1500 -2.0159
   99MOL0     C13257   4.555   9.692   7.480  0.8255  1.2248  0.0928
   99MOL0     C13258   4.600   9.590   7.390 -1.2249 -0.4118  1.3672
   99MOL0     C13259   4.643   9.771   7.562 -0.2898  0.3636  0.4614
   99MOL0     C13260   4.781   9.732   7.595  0.6434  0.3923  1.0804
   99MOL0     O13261   4.844   9.809   7.688 -0.5021  0.1413 -0.0573
   99MOL0     C13262   4.971   9.785   7.705 -1.0097  0.1887  0.0057
   99MOL0     C13263   5.068   9.817   7.609 -0.0496  0.2325  0.5561
   99MOL0     C13264   5.207   9.782   7.638 -0.3038 -0.8503 -0.4906
   99MOL0     C13265   5.250   9.727   7.758 -0.8433 -0.5045  0.1324
   99MOL0     O13266   5.383   9.703   7.764 -0.4427 -0.6455 -0.3704
   99MOL0     C13267   5.432   9.595   7.831  0.1580 -0.3631  0.2945
   99MOL0     C13268   5.584   9.608   7.827  0.2586  0.0451  0.4209
   99MOL0     C13269   5.651   9.638   7.693 -0.6170  0.4025  0.8018
   99MOL0     C13270   5.649   9.514   7.600  0.2046 -0.5621 -0.3620
   99MOL0     C13271   5.681   9.556   7.452 -0.4503  0.2396 -1.0451
   99MOL0     C13272   5.721   9.436   7.365  0.6426 -0.2608  0.6985
   99MOL0     C13273   5.606   9.334   7.348  0.3145  0.1007 -0.4133
   99MOL0     C13274   5.633   9.221   7.239  1.2704 -0.1358 -0.3312
   99MOL0    Cl13275   5.661   9.280   7.064  0.4926 -0.0688 -0.3380
   99MOL0     C13276   5.148   9.711   7.856  0.7829 -0.2832  0.1303
   99MOL0     C13277   5.012   9.732   7.827  0.1428  1.0533  0.0913
   99MOL0     O13278   4.815   9.614   7.562  0.6210 -0.4679  0.7242
   99MOL0     C13279   4.585   9.896   7.613 -0.8540  0.8426  0.5181
   99MOL0     C13280   4.450   9.925   7.577 -0.5202 -0.1987 -0.3391
   99MOL0     N13281   3.691   9.818   7.536 -0.2653 -0.5533  0.3144
   99MOL0     N13282   3.609   9.723   7.558  0.5512 -0.0927 -0.0941
   99MOL0     C13283   3.440   8.860   7.489  0.5503  0.7737 -0.6261
   99MOL0     C13284   3.413   8.841   7.348 -0.3000  0.5685  0.0792
   99MOL0     C13285   3.343   8.675   6.924  1.0250 -0.4080 -0.2704
   99MOL0     C13286   3.215   8.638   6.880 -0.5490 -0.5903  0.9612
   99MOL0     C13287   3.194   8.594   6.746  0.0814  0.1240 -1.2426
   99MOL0     C13288   3.299   8.575   6.660  0.2715 -0.2200 -1.2046
   99MOL0     O13289   3.283   8.532   6.533  0.1204 -0.0712 -0.2393
   99MOL0     C13290   3.162   8.526   6.466 -0.0344 -0.4880  0.1573
   99MOL0     C13291   3.124   8.667   6.405  0.0461 -0.3606  0.5457
   99MOL0     C13292   3.161   8.687   6.253  0.0068  0.5284 -0.3435
   99MOL0     C13293   3.316   8.676   6.234  0.4535  0.2093  0.1245
   99MOL0     C13294   3.391   8.775   6.312 -0.8652 -0.3127 -0.3768
   99MOL0     C13295   3.455   8.857   6.377  0.1869  0.9046  0.5813
   99MOL0     C13296   3.425   8.603   6.708 -0.3483 -0.1349 -1.1449
   99MOL0     C13297   3.447   8.658   6.830  0.4735 -0.0673 -1.0675
   99MOL0     H13298   3.235   8.555   7.366 -2.5584  1.1895 -0.2254
   99MOL0     H13299   3.317   8.575   7.601  0.3759 -0.2850 -1.3227
   99MOL0     H13300   3.221   8.838   7.746 -1.6721  3.0736  3.4090
   99MOL0     H13301   3.281   8.729   7.853 -0.0458  0.8574  1.3480
   99MOL0     H13302   3.259   8.970   7.947  1.6968  1.9747  1.0018
   99MOL0     H13303   3.412   8.867   7.960 -0.4836  0.5019  0.9152
   99MOL0     H13304   3.468   9.071   7.938  2.5219 -2.9321 -0.3351
   99MOL0     H13305   3.506   9.014   7.772 -1.3370 -0.1400 -1.7877
   99MOL0     H13306   3.300   9.114   7.687  1.8728  0.1100 -0.4059
   99MOL0     H13307   3.275   9.197   7.842 -0.5176 -0.4015 -0.9530
   99MOL0     H13308   3.492   9.241   7.649 -1.6857 -4.8569  1.5201
   99MOL0     H13309   3.370   9.357   7.694 -1.7030 -1.0106  0.5627
   99MOL0     H13310   3.440   9.368   7.931 -0.6648  0.3068 -0.2938
   99MOL0     H13311   3.578   9.251   7.887 -0.9544 -0.9325  0.6350
   99MOL0     H13312   3.663   9.500   7.901  1.3022 -0.9283  0.9050
   99MOL0     H13313   3.673   9.414   7.745 -2.0144 -0.8902 -0.2797
   99MOL0     H13314   3.471   9.630   7.807  0.3801 -2.1481  1.4938
   99MOL0     H13315   3.467   9.530   7.668 -0.7287  3.1470 -1.6279
   99MOL0     H13316   3.734   9.722   7.846  1.2140  1.7314  1.1788
   99MOL0     H13317   3.841  10.016   7.616  0.3804 -0.3251 -0.9779
   99MOL0     H13318   3.880   9.955   7.781 -0.0046 -0.8694 -0.0745
   99MOL0     H13319   3.996   9.760   7.694  2.7849 -0.3433 -1.9372
   99MOL0     H13320   4.070   9.921   7.678 -0.4699  1.0007 -0.7899
   99MOL0     H13321   3.970   9.916   7.432  2.5259  1.3343 -0.2691
   99MOL0     H13322   3.946   9.736   7.457 -2.4149  0.5616  3.4336
   99MOL0     H13323   4.155   9.772   7.333  1.5928 -1.0409  1.0364
   99MOL0     H13324   4.163   9.693   7.500  0.7197  0.5628  1.3864
   99MOL0     H13325   4.361   9.676   7.377 -0.4487 -2.7007  0.1626
   99MOL0     H13326   4.608   9.496   7.446  1.9583  0.1378  2.0481
   99MOL0     H13327   4.533   9.569   7.306  1.4105 -0.1452 -0.9875
   99MOL0     H13328   4.697   9.613   7.345 -2.1430 -1.8969 -1.7031
   99MOL0     H13329   5.030   9.867   7.521 -2.5828  0.1083  1.4636
   99MOL0     H13330   5.279   9.798   7.558  1.2193 -1.0411  0.8034
   99MOL0     H13331   5.402   9.598   7.936  2.5531 -3.0290  1.2140
   99MOL0     H13332   5.410   9.502   7.778 -0.4156  0.7642 -1.5205
   99MOL0     H13333   5.605   9.697   7.887 -2.9559  0.9735  0.3801
   99MOL0     H13334   5.636   9.525   7.876  4.4023  1.3420 -1.3481
   99MOL0     H13335   5.757   9.665   7.690  0.2725 -2.8670 -1.1845
   99MOL0     H13336   5.600   9.720   7.641  0.7021  0.4448 -0.5069
   99MOL0     H13337   5.722   9.439   7.632  1.2438  0.5782  0.0214
   99MOL0     H13338   5.553   9.461   7.601 -1.3508  1.9730  2.5620
   99MOL0     H13339   5.759   9.632   7.439 -1.6808  1.4585 -1.5864
   99MOL0     H13340   5.586   9.600   7.422 -0.3024 -0.5627 -2.8054
   99MOL0     H13341   5.741   9.462   7.261  0.3412 -3.8626 -0.3896
   99MOL0     H13342   5.811   9.388   7.406 -1.3656 -0.1051  6.2137
   99MOL0     H13343   5.513   9.382   7.317  1.0615  1.6953 -0.2704
   99MOL0     H13344   5.595   9.269   7.435  2.4327  2.0224  1.3982
   99MOL0     H13345   5.540   9.164   7.244  1.8734 -1.0601  0.7804
   99MOL0     H13346   5.715   9.152   7.259  0.2742 -1.5657 -0.9865
   99MOL0     H13347   5.175   9.680   7.956  3.8538  1.5602 -0.0154
   99MOL0     H13348   4.943   9.708   7.908  1.8094  1.0465  1.5743
   99MOL0     H13349   4.657   9.962   7.659 -0.9019  1.2492  0.0261
   99MOL0     H13350   4.399  10.017   7.603  0.3724  0.4521 -0.8458
   99MOL0     H13351   3.507   8.941   7.518 -0.3333  1.1459  0.4583
   99MOL0     H13352   3.447   8.919   7.281 -0.2925  0.7488  0.2900
   99MOL0     H13353   3.140   8.633   6.959  0.5364 -2.0476  1.9473
   99MOL0     H13354   3.094   8.555   6.727 -0.3497 -0.4348  1.7567
   99MOL0     H13355   3.161   8.452   6.385  0.0716 -0.5677  0.2283
   99MOL0     H13356   3.083   8.482   6.529  1.8911 -1.5058  1.9685
   99MOL0     H13357   3.172   8.743   6.467 -1.4151  2.2468 -1.3233
   99MOL0     H13358   3.017   8.690   6.405  0.6393  2.7500  0.1461
   99MOL0     H13359   3.121   8.788   6.240 -3.0704  0.0794  3.8390
   99MOL0     H13360   3.110   8.610   6.194 -0.7845  0.6011  0.2332
   99MOL0     H13361   3.347   8.696   6.131  3.4531  1.9359  1.2306
   99MOL0     H13362   3.354   8.576   6.260  0.2053  0.6884  2.5943
   99MOL0     H13363   3.488   8.938   6.439  0.4327  1.3610 -0.1289
   99MOL0     H13364   3.507   8.606   6.637 -2.4847  1.8623 -3.7438
   99MOL0     H13365   3.551   8.675   6.856 -0.6639  1.9296  3.1585
  100MOL0     O13366   2.303   7.300   9.709  0.1733 -0.8285  0.1677
  100MOL0     C13367   2.328   7.274   9.825  0.3472 -1.6770  0.1975
  100MOL0     O13368   2.361   7.359   9.919 -0.0409 -0.2502  0.1746
  100MOL0     C13369   2.359   7.490   9.884  0.0417 -0.2306 -0.9202
  100MOL0     C13370   2.275   7.587   9.949  1.0236  0.0100 -0.5628
  100MOL0     C13371   2.271   7.727   9.918  0.0993  0.5810  0.4370
  100MOL0     C13372   2.385   7.785   9.840 -0.3259 -0.1766  0.5064
  100MOL0     O13373   2.409   7.923   9.803 -0.1912 -0.3731 -0.0550
  100MOL0     C13374   2.312   8.017   9.847 -0.2152 -0.4259  0.4511
  100MOL0     C13375   2.386   8.156   9.819 -0.0095 -0.1650 -0.7713
  100MOL0     C13376   2.300   8.280   9.862 -0.3434 -0.5621 -0.1657
  100MOL0     C13377   2.166   8.299   9.802  0.4300  0.5105  0.7376
  100MOL0     C13378   2.082   8.414   9.853 -0.1123  0.3730  0.4129
  100MOL0     C13379   1.953   8.434   9.768 -0.5170  0.5616  0.0305
  100MOL0     C13380   1.867   8.543   9.830  1.6591 -1.0085 -0.1039
  100MOL0     C13381   1.747   8.561   9.742 -0.3648 -0.0262  0.6948
  100MOL0     N13382   1.690   8.691   9.753  0.5209 -0.4017  0.1819
  100MOL0     C13383   1.741   8.813   9.707  0.0445  0.2162  0.0567
  100MOL0     C13384   1.678   8.910   9.779 -1.0392  1.2920 -0.7085
  100MOL0     C13385   1.709   9.050   9.758  0.4073  0.7001  0.2798
  100MOL0     C13386   1.629   9.113   9.654 -0.0510  0.0118  0.0158
  100MOL0     C13387   1.620   9.263   9.677  0.2066 -0.7316  0.5768
  100MOL0     C13388   1.514   9.311   9.775 -0.3458 -0.1837  0.9788
  100MOL0     O13389   1.466   9.441   9.762  0.8356  0.4475  0.1300
  100MOL0     C13390   1.386   9.466   9.867  0.3420  0.4921 -1.0164
  100MOL0     C13391   1.438   9.507   9.990  0.3715 -1.0899  0.2413
  100MOL0     C13392   1.354   9.525  10.096  0.6463  0.2562  0.1840
  100MOL0     C13393   1.406   9.595  10.212 -0.1254  0.0826 -0.7595
  100MOL0     C13394   1.213   9.493  10.085  0.2391 -0.3334 -1.3602
  100MOL0     C13395   1.123   9.505  10.199 -0.1483  0.0798  0.3385
  100MOL0     O13396   1.184   9.471  10.319  0.5743  0.1963  0.5048
  100MOL0     C13397   1.122   9.502  10.438 -0.0376 -0.0893 -0.3852
  100MOL0     C13398   1.046   9.617  10.473 -1.5350  0.5447 -0.1098
  100MOL0     C13399   0.982   9.623  10.599 -1.1859  1.0471  1.0856
  100MOL0     C13400   1.002   9.529  10.702 -0.8124  1.0033  0.0969
  100MOL0     O13401   0.937   9.570  10.823 -1.0413  0.2181 -0.4569
  100MOL0     C13402   0.952   9.501  10.943 -1.0979  0.8785 -1.3249
  100MOL0     C13403   1.012   9.602  11.044  0.0211 -0.1552  0.0252
  100MOL0     C13404   1.148   9.664  11.000  0.7475  0.3999  0.4360
  100MOL0     C13405   1.262   9.580  11.051 -0.1021  0.0176  0.0533
  100MOL0     C13406   1.384   9.654  10.986  0.5224 -0.8194  0.4076
  100MOL0     C13407   1.517   9.609  11.042  0.4378  0.4478  0.0068
  100MOL0     C13408   1.623   9.713  11.030 -0.2388  0.2144 -0.9470
  100MOL0     C13409   1.747   9.651  11.076 -0.3860 -0.7549 -0.7208
  100MOL0    Cl13410   1.881   9.761  11.116 -0.5449 -0.3713 -0.0586
  100MOL0     C13411   1.087   9.424  10.669 -0.0110 -0.2144  0.2571
  100MOL0     C13412   1.134   9.401  10.536 -0.3835  0.1803 -0.7452
  100MOL0     O13413   1.001   9.514  10.177  1.0522 -0.5000 -0.4753
  100MOL0     C13414   1.166   9.454   9.959  0.2399  1.0213 -0.0749
  100MOL0     C13415   1.255   9.424   9.856  0.2619 -0.3582  0.3215
  100MOL0     N13416   1.575   8.862   9.846  0.0039 -0.1498 -0.3412
  100MOL0     N13417   1.584   8.729   9.841  0.6020 -0.3674  0.4230
  100MOL0     C13418   2.480   7.691   9.788 -0.5891 -0.3991  0.4537
  100MOL0     C13419   2.469   7.554   9.811  0.0161  0.0662 -0.8383
  100MOL0     C13420   2.332   7.135   9.862 -0.1128 -0.3313 -0.4856
  100MOL0     C13421   2.282   7.097   9.978  0.8820  1.1953 -0.3800
  100MOL0     C13422   2.284   6.959  10.017  0.3993 -0.3035  0.1776
  100MOL0     C13423   2.359   6.870   9.942  0.7235  0.4976  1.0244
  100MOL0     O13424   2.356   6.737   9.987 -0.4363 -0.0861  0.3929
  100MOL0     C13425   2.416   6.635   9.900  0.1684 -0.4148 -0.3416
  100MOL0     C13426   2.399   6.503   9.968 -0.2232  0.2497 -0.2742
  100MOL0     C13427   2.454   6.391   9.879 -0.5500  0.1013  0.2632
  100MOL0     C13428   2.448   6.247   9.943  0.6332  0.1943  0.4104
  100MOL0     C13429   2.315   6.193   9.969  0.5474  0.0454 -0.2669
  100MOL0     C13430   2.223   6.125   9.999 -0.0303  0.6828 -0.0160
  100MOL0     C13431   2.419   6.922   9.829  0.6149  0.8712 -0.5456
  100MOL0     C13432   2.397   7.045   9.782 -0.7255 -0.0155 -0.7376
  100MOL0     H13433   2.200   7.552  10.018  1.6781 -0.9968 -0.3425
  100MOL0     H13434   2.185   7.783   9.954 -1.3613 -1.3319  0.0588
  100MOL0     H13435   2.219   8.000   9.791 -1.5085  1.4451  1.9472
  100MOL0     H13436   2.300   8.010   9.955 -0.0650  3.1945  0.7953
  100MOL0     H13437   2.486   8.167   9.862 -0.4659 -0.7728  0.5160
  100MOL0     H13438   2.403   8.148   9.711  2.5200  1.2379 -0.5496
  100MOL0     H13439   2.299   8.286   9.971  2.5066  2.5779 -0.1405
  100MOL0     H13440   2.361   8.370   9.848 -0.9326 -0.3056 -1.1801
  100MOL0     H13441   2.176   8.312   9.694 -0.5138  2.8855  0.8647
  100MOL0     H13442   2.103   8.213   9.826 -2.7759  2.5098  0.1457
  100MOL0     H13443   2.038   8.383   9.949 -0.5436 -0.4330 -0.0352
  100MOL0     H13444   2.149   8.500   9.863 -0.6270  1.1172 -1.8905
  100MOL0     H13445   1.991   8.464   9.670 -2.9521 -0.7175 -1.4170
  100MOL0     H13446   1.885   8.348   9.762  0.9914 -0.6093 -1.1728
  100MOL0     H13447   1.818   8.505   9.921  1.1159  1.6450  0.8007
  100MOL0     H13448   1.925   8.634   9.850 -1.3188  1.6844 -2.6871
  100MOL0     H13449   1.673   8.484   9.768 -0.6728  0.3511  0.9489
  100MOL0     H13450   1.776   8.551   9.637 -1.0598 -2.3854  0.6715
  100MOL0     H13451   1.824   8.835   9.640 -1.7632  1.9217 -1.7519
  100MOL0     H13452   1.701   9.107   9.851  1.6429  0.5840  0.4707
  100MOL0     H13453   1.809   9.065   9.717  0.9075 -0.7391  0.9096
  100MOL0     H13454   1.527   9.074   9.666 -0.0859  0.2967  0.6502
  100MOL0     H13455   1.648   9.086   9.549 -0.2410 -0.3382  0.0699
  100MOL0     H13456   1.601   9.303   9.577  0.7327 -4.3498 -1.1113
  100MOL0     H13457   1.715   9.302   9.716  1.1966  1.2304 -3.3067
  100MOL0     H13458   1.538   9.295   9.881 -1.2579  1.3890  1.4492
  100MOL0     H13459   1.432   9.243   9.752  1.5903 -2.6250  0.7991
  100MOL0     H13460   1.543   9.531   9.996 -0.0533  0.8655  0.5432
  100MOL0     H13461   1.446   9.530  10.290 -0.5165 -2.5133 -2.5966
  100MOL0     H13462   1.491   9.660  10.187  0.0284 -1.3840 -4.7602
  100MOL0     H13463   1.332   9.661  10.260  0.8324 -0.7920  2.0469
  100MOL0     H13464   1.042   9.695  10.397 -3.8066 -0.1756 -0.8047
  100MOL0     H13465   0.913   9.704  10.618 -2.4114  0.2817  0.1205
  100MOL0     H13466   0.856   9.464  10.980 -0.4217  0.4860  0.0767
  100MOL0     H13467   1.022   9.418  10.931 -2.1112 -0.4325  1.1552
  100MOL0     H13468   0.945   9.689  11.046  0.6945  0.4521 -1.7831
  100MOL0     H13469   1.011   9.565  11.147 -0.5735 -0.0711  0.0529
  100MOL0     H13470   1.153   9.759  11.053  0.7852  1.5067 -1.4674
  100MOL0     H13471   1.156   9.679  10.892  0.2480 -0.5143  0.2667
  100MOL0     H13472   1.271   9.585  11.159 -3.1006  1.4694  0.3396
  100MOL0     H13473   1.281   9.477  11.018 -1.2287 -0.2021  0.0368
  100MOL0     H13474   1.371   9.762  10.984 -0.0891 -0.8964 -1.4922
  100MOL0     H13475   1.387   9.630  10.879 -0.1329  1.1108 -0.0764
  100MOL0     H13476   1.495   9.589  11.147  3.0355  4.5239  1.5990
  100MOL0     H13477   1.554   9.514  11.002  0.6621  0.8048 -0.6584
  100MOL0     H13478   1.606   9.804  11.089  1.7061 -0.1955  0.3487
  100MOL0     H13479   1.640   9.747  10.927  0.7540  0.9443 -0.5673
  100MOL0     H13480   1.790   9.587  10.999  0.7888 -0.7444 -0.0964
  100MOL0     H13481   1.736   9.587  11.164  1.7582  0.8000  0.7881
  100MOL0     H13482   1.106   9.351  10.747 -0.3378 -1.0081 -0.3944
  100MOL0     H13483   1.190   9.311  10.515  1.6319  1.2216 -0.0486
  100MOL0     H13484   1.059   9.443   9.950  0.1984  1.6722 -0.4310
  100MOL0     H13485   1.224   9.384   9.760  0.7951 -0.8052  0.3365
  100MOL0     H13486   2.546   7.746   9.722  2.9472 -1.6082  2.7069
  100MOL0     H13487   2.540   7.481   9.772  0.6721  0.2271  0.0473
  100MOL0     H13488   2.241   7.157  10.058  2.2635  1.3963  0.1941
  100MOL0     H13489   2.235   6.922  10.106  1.3808 -0.6016  0.6052
  100MOL0     H13490   2.363   6.651   9.806  1.5343 -0.9568 -1.2370
  100MOL0     H13491   2.523   6.658   9.895  0.1748 -0.5577 -0.9009
  100MOL0     H13492   2.292   6.485   9.985 -0.5914  2.3234 -0.0973
  100MOL0     H13493   2.461   6.510  10.058 -0.2534  3.1225 -0.3674
  100MOL0     H13494   2.563   6.401   9.883 -0.1894 -0.9243 -3.3376
  100MOL0     H13495   2.413   6.383   9.778  0.4897 -1.1358 -0.0883
  100MOL0     H13496   2.490   6.242  10.044  0.9617 -2.7693  0.2176
  100MOL0     H13497   2.507   6.186   9.873 -1.0943  0.4929 -1.3938
  100MOL0     H13498   2.133   6.067  10.002  0.2015  0.3640  1.7637
  100MOL0     H13499   2.475   6.853   9.766 -2.8742 -0.6053 -2.3407
  100MOL0     H13500   2.432   7.073   9.683 -0.9898  3.6643  0.0748
  101MOL0     O13501   2.049   7.270  10.816  0.0500  0.5253  0.5581
  101MOL0     C13502   2.016   7.245  10.705 -0.1757  0.2069  0.3348
  101MOL0     O13503   1.914   7.305  10.642 -0.3002  0.5035  0.3715
  101MOL0     C13504   1.841   7.414  10.682  0.0598  0.1504  0.2071
  101MOL0     C13505   1.897   7.526  10.749 -0.5345 -0.1304 -0.3622
  101MOL0     C13506   1.811   7.625  10.790  0.3394 -0.2733  0.1434
  101MOL0     C13507   1.665   7.622  10.779  0.1093 -0.8718  0.1562
  101MOL0     O13508   1.585   7.720  10.835  0.3915  0.1822  0.1012
  101MOL0     C13509   1.597   7.742  10.980  0.4535 -0.1058 -0.4735
  101MOL0     C13510   1.541   7.888  11.006 -0.4747  0.8602 -0.4026
  101MOL0     C13511   1.525   7.890  11.162  0.2918  0.4656 -0.7649
  101MOL0     C13512   1.499   8.041  11.193  0.2572 -0.1076 -1.0235
  101MOL0     C13513   1.429   8.061  11.329  0.6078  0.2955 -0.3945
  101MOL0     C13514   1.499   7.984  11.451 -0.2070  0.3515 -0.2029
  101MOL0     C13515   1.486   8.073  11.571 -0.6331 -0.8207  0.4108
  101MOL0     C13516   1.606   8.166  11.587 -0.3172  0.2921  1.5462
  101MOL0     N13517   1.586   8.258  11.701 -0.0742  0.8906  0.0855
  101MOL0     C13518   1.572   8.210  11.830  0.1116  0.7946  0.1513
  101MOL0     C13519   1.618   8.315  11.908  0.5062  0.1407 -0.1434
  101MOL0     C13520   1.635   8.312  12.058  0.3913 -0.3924 -0.7626
  101MOL0     C13521   1.782   8.301  12.092  0.7374  0.5635 -0.2939
  101MOL0     C13522   1.860   8.423  12.030 -1.0248  0.5122  0.0087
  101MOL0     C13523   1.994   8.422  12.078 -0.2606 -0.7046 -0.1059
  101MOL0     O13524   2.069   8.300  12.034 -0.6471 -0.3021  0.4212
  101MOL0     C13525   2.207   8.298  12.030  0.2195  0.9619 -0.1615
  101MOL0     C13526   2.277   8.196  11.953 -0.2957 -0.4099  0.4989
  101MOL0     C13527   2.418   8.182  11.953 -0.5426  0.8851  0.2008
  101MOL0     C13528   2.476   8.057  11.894  0.1582  0.8345  0.0835
  101MOL0     C13529   2.494   8.282  12.012 -0.0888  0.3383 -0.6666
  101MOL0     C13530   2.647   8.273  12.033  0.0074  0.0414  0.1830
  101MOL0     O13531   2.698   8.360  12.137  0.3868 -0.1108 -0.1562
  101MOL0     C13532   2.818   8.426  12.111 -0.2450  1.3308 -0.1867
  101MOL0     C13533   2.833   8.567  12.108 -0.1475 -0.3780  0.4425
  101MOL0     C13534   2.970   8.614  12.117  0.4899 -0.5696 -0.6790
  101MOL0     C13535   3.079   8.538  12.139  0.1040  0.7983 -0.5000
  101MOL0     O13536   3.206   8.594  12.138  0.7720  0.3133  0.1853
  101MOL0     C13537   3.294   8.537  12.234 -0.1980  0.0860  0.7382
  101MOL0     C13538   3.259   8.555  12.378 -0.7300  0.3744 -0.0738
  101MOL0     C13539   3.349   8.681  12.416  0.3293  0.2591 -0.3647
  101MOL0     C13540   3.327   8.711  12.570  0.0368  0.4405  0.0627
  101MOL0     C13541   3.381   8.851  12.615  0.2371 -0.5087  0.2784
  101MOL0     C13542   3.533   8.843  12.634 -0.1017 -0.0712  0.3097
  101MOL0     C13543   3.599   8.993  12.619  0.9668  1.1380  0.1578
  101MOL0     C13544   3.751   8.980  12.611  1.3446 -0.4364  0.0772
  101MOL0    Cl13545   3.804   9.150  12.604  0.0428 -0.1879  0.3202
  101MOL0     C13546   3.056   8.403  12.141 -0.2818  1.5182 -0.5642
  101MOL0     C13547   2.934   8.350  12.136  0.3071  0.4169 -0.5528
  101MOL0     O13548   2.723   8.224  11.945  0.4898  0.4465 -0.2273
  101MOL0     C13549   2.428   8.383  12.083 -0.4395  0.0342 -1.0606
  101MOL0     C13550   2.290   8.389  12.097  0.7099  0.0744 -0.0695
  101MOL0     N13551   1.641   8.427  11.830 -0.5938  0.2565 -0.4612
  101MOL0     N13552   1.616   8.391  11.709 -0.2735  0.7964 -0.2150
  101MOL0     C13553   1.603   7.512  10.710 -0.3092 -0.4409 -0.0822
  101MOL0     C13554   1.693   7.412  10.678 -1.1240  0.2506 -0.2739
  101MOL0     C13555   2.094   7.148  10.635  0.3158  0.4929  0.9332
  101MOL0     C13556   2.193   7.070  10.698 -0.5131 -0.9364 -0.8182
  101MOL0     C13557   2.272   6.972  10.637 -0.1205  0.0502  0.5568
  101MOL0     C13558   2.260   6.958  10.496 -0.1310  0.3107  0.4870
  101MOL0     O13559   2.340   6.871  10.420  0.0800  0.1096 -0.4076
  101MOL0     C13560   2.449   6.795  10.469 -0.1813 -0.3443  0.0688
  101MOL0     C13561   2.404   6.662  10.535  0.0095 -0.0574  0.8253
  101MOL0     C13562   2.417   6.543  10.447 -0.7312 -0.6247  0.0260
  101MOL0     C13563   2.354   6.424  10.505  0.0545 -0.2066 -0.5420
  101MOL0     C13564   2.397   6.306  10.436  0.3763 -0.4711  0.6064
  101MOL0     C13565   2.423   6.204  10.374 -0.4252  0.5372  0.1063
  101MOL0     C13566   2.176   7.037  10.423  1.0840  1.1400  0.5035
  101MOL0     C13567   2.085   7.126  10.493  0.3196  0.6231  0.3198
  101MOL0     H13568   2.003   7.550  10.753 -0.9332  2.5499 -2.6086
  101MOL0     H13569   1.849   7.719  10.829  2.2882 -1.5905  1.6186
  101MOL0     H13570   1.549   7.669  11.046  1.0011 -0.0248  0.0255
  101MOL0     H13571   1.702   7.742  11.010  1.0619 -0.6756 -2.4770
  101MOL0     H13572   1.606   7.968  10.971  0.3535 -0.1176 -1.1271
  101MOL0     H13573   1.440   7.897  10.965 -1.1599 -0.1784  0.9667
  101MOL0     H13574   1.438   7.831  11.191  1.5865 -1.1602  0.0235
  101MOL0     H13575   1.606   7.841  11.218 -1.8420 -2.2274  0.1868
  101MOL0     H13576   1.598   8.088  11.194  0.8795 -1.3792 -0.1645
  101MOL0     H13577   1.440   8.083  11.112  1.8717 -1.5956 -3.0731
  101MOL0     H13578   1.431   8.168  11.347 -0.4501  0.0569  1.3093
  101MOL0     H13579   1.323   8.035  11.321  0.4913  0.6414  0.0520
  101MOL0     H13580   1.452   7.889  11.479  2.1107 -0.8385 -0.0859
  101MOL0     H13581   1.601   7.956  11.424 -0.4860  0.5816 -1.5785
  101MOL0     H13582   1.394   8.132  11.560  1.9951  3.5810 -0.5396
  101MOL0     H13583   1.476   8.016  11.663  2.6753  1.2846  2.2797
  101MOL0     H13584   1.636   8.225  11.500 -2.4862 -3.2394 -1.9059
  101MOL0     H13585   1.695   8.105  11.603 -1.3071 -1.4389  0.7577
  101MOL0     H13586   1.558   8.112  11.874 -1.9208  1.4014  0.9857
  101MOL0     H13587   1.587   8.397  12.106 -1.0647 -2.3949  1.5875
  101MOL0     H13588   1.571   8.231  12.094  0.9071  0.8034  3.2900
  101MOL0     H13589   1.827   8.208  12.058 -0.6313  0.6967 -2.7224
  101MOL0     H13590   1.790   8.302  12.201 -3.7270 -1.1809  0.2813
  101MOL0     H13591   1.805   8.518  12.033 -1.1601  0.4050  1.5310
  101MOL0     H13592   1.877   8.419  11.922  0.4647  1.4859  0.1877
  101MOL0     H13593   1.980   8.424  12.187 -2.1867  1.9849 -0.2869
  101MOL0     H13594   2.040   8.518  12.052 -2.2820  0.1294 -0.7987
  101MOL0     H13595   2.219   8.124  11.897  2.8060 -0.9077 -2.4334
  101MOL0     H13596   2.397   7.989  11.861 -1.3466  2.7538 -0.4250
  101MOL0     H13597   2.538   8.087  11.808  1.3236 -2.1575 -0.2520
  101MOL0     H13598   2.539   8.003  11.965 -1.2766 -0.2913  0.5282
  101MOL0     H13599   2.756   8.639  12.086  0.6753  0.8898  1.5556
  101MOL0     H13600   2.979   8.722  12.110 -0.4799 -0.4312 -0.0407
  101MOL0     H13601   3.303   8.429  12.221 -4.4267 -0.5591  1.4656
  101MOL0     H13602   3.393   8.578  12.212 -1.1144  2.5160  0.7322
  101MOL0     H13603   3.153   8.579  12.388 -1.9037 -3.5703 -1.1625
  101MOL0     H13604   3.296   8.463  12.423  1.0476  0.8696 -0.4358
  101MOL0     H13605   3.315   8.771  12.363  1.7017  1.0212  0.0149
  101MOL0     H13606   3.452   8.675  12.382 -0.9342 -3.4172 -4.5814
  101MOL0     H13607   3.221   8.696  12.588  0.1832 -1.3844 -0.4195
  101MOL0     H13608   3.378   8.632  12.626 -2.8631 -0.7514  1.2207
  101MOL0     H13609   3.335   8.900  12.701  0.0300  1.2339 -0.7750
  101MOL0     H13610   3.356   8.922  12.535  2.2275  0.3219  0.3097
  101MOL0     H13611   3.550   8.795  12.731 -5.2029  1.4799  2.2816
  101MOL0     H13612   3.589   8.789  12.557 -0.0860 -1.2382  1.1193
  101MOL0     H13613   3.571   9.054  12.705  0.9979  2.1076 -0.5017
  101MOL0     H13614   3.552   9.038  12.531  1.3095  2.8354  0.8003
  101MOL0     H13615   3.790   8.930  12.522 -0.4457  0.5898 -1.3542
  101MOL0     H13616   3.780   8.926  12.702  0.7513  1.1165  1.2341
  101MOL0     H13617   3.145   8.342  12.134  3.3486  4.7458  6.5600
  101MOL0     H13618   2.917   8.243  12.140 -0.4110  0.5492  0.5936
  101MOL0     H13619   2.487   8.463  12.125 -0.3196 -1.1558  1.2243
  101MOL0     H13620   2.238   8.466  12.153  0.2322  0.2716 -0.7582
  101MOL0     H13621   1.497   7.494  10.691 -0.8371 -0.9132  2.8317
  101MOL0     H13622   1.645   7.329  10.626 -0.5149  0.1146 -0.6281
  101MOL0     H13623   2.205   7.091  10.804 -0.1186 -2.7563 -0.4710
  101MOL0     H13624   2.342   6.913  10.695 -3.1905 -1.1687  3.3606
  101MOL0     H13625   2.518   6.765  10.390  1.3299 -1.7335  1.8257
  101MOL0     H13626   2.508   6.854  10.540  1.1275  1.5256 -2.4123
  101MOL0     H13627   2.296   6.665  10.555 -0.9110 -1.8616 -2.9677
  101MOL0     H13628   2.461   6.632  10.624 -1.7274 -4.1597  0.7832
  101MOL0     H13629   2.527   6.538  10.447 -0.7122 -0.2088  0.1609
  101MOL0     H13630   2.380   6.554  10.345  2.3959 -3.6327 -1.6364
  101MOL0     H13631   2.246   6.440  10.501  0.4662  2.7660 -1.7306
  101MOL0     H13632   2.370   6.416  10.613  0.1941 -0.8619 -0.6028
  101MOL0     H13633   2.445   6.112  10.324 -1.7813  1.2658 -1.9907
  101MOL0     H13634   2.175   7.046  10.315 -1.9817 -1.1028  0.2237
  101MOL0     H13635   2.015   7.178  10.429  1.3453  1.6435 -0.0004
  102MOL0     O13636   6.744   8.477   2.319 -0.1878 -0.1141  0.4316
  102MOL0     C13637   6.634   8.519   2.300  1.0213  0.2768 -0.0724
  102MOL0     O13638   6.605   8.639   2.243  0.0195 -0.2469  0.7374
  102MOL0     C13639   6.707   8.722   2.211 -0.8372 -0.4402 -0.2369
  102MOL0     C13640   6.710   8.771   2.077  0.0002  0.1852  0.1878
  102MOL0     C13641   6.816   8.848   2.029 -0.0088 -0.6133  0.1654
  102MOL0     C13642   6.921   8.880   2.113 -0.6843  0.4990  0.4362
  102MOL0     O13643   7.035   8.941   2.067 -1.2649  0.4544 -0.3143
  102MOL0     C13644   7.042   9.021   1.948  0.8249 -0.4014  0.3521
  102MOL0     C13645   7.184   9.075   1.928 -0.6771  0.2749 -0.0497
  102MOL0     C13646   7.221   9.082   1.779 -0.0196  0.7456 -0.3739
  102MOL0     C13647   7.339   9.176   1.762  0.6684 -0.1065 -0.2335
  102MOL0     C13648   7.387   9.186   1.613 -1.2098 -0.1190 -0.5625
  102MOL0     C13649   7.535   9.244   1.618  0.9259  0.1807  0.8472
  102MOL0     C13650   7.596   9.222   1.487 -0.3793 -0.3558  0.2393
  102MOL0     C13651   7.691   9.100   1.479  0.5074 -0.5358 -0.4968
  102MOL0     N13652   7.634   8.975   1.513 -0.3491 -0.0522 -1.1996
  102MOL0     C13653   7.693   8.877   1.592  0.1768 -0.2900  1.0518
  102MOL0     C13654   7.627   8.766   1.568  0.1734  0.6019 -0.3918
  102MOL0     C13655   7.672   8.638   1.625 -0.2360  0.8184  0.7963
  102MOL0     C13656   7.813   8.600   1.578 -0.9723  0.0595  0.6803
  102MOL0     C13657   7.865   8.493   1.671 -0.8296  0.7195  0.1441
  102MOL0     C13658   7.984   8.409   1.622 -0.9008  0.6203 -0.7109
  102MOL0     O13659   8.111   8.462   1.642 -0.5384  0.1508  0.0511
  102MOL0     C13660   8.180   8.484   1.760 -1.4128  0.1100 -0.5011
  102MOL0     C13661   8.298   8.556   1.757  0.2044  0.2680 -1.0805
  102MOL0     C13662   8.381   8.564   1.875  0.7451  0.3140  0.0947
  102MOL0     C13663   8.518   8.631   1.858  0.6980  0.0380  0.3076
  102MOL0     C13664   8.324   8.518   1.996  0.2744 -0.3105 -0.0088
  102MOL0     C13665   8.387   8.539   2.125 -0.5115  0.5189 -0.9289
  102MOL0     O13666   8.297   8.584   2.219  0.2616  0.6400 -0.6883
  102MOL0     C13667   8.340   8.633   2.339 -0.1355  0.0764 -0.0601
  102MOL0     C13668   8.449   8.716   2.355  0.4359  0.0740  0.4945
  102MOL0     C13669   8.502   8.757   2.486  0.4919 -0.3461  0.6538
  102MOL0     C13670   8.434   8.720   2.596 -0.2927  0.1520  0.3196
  102MOL0     O13671   8.469   8.752   2.725 -0.1470  0.2989 -0.4615
  102MOL0     C13672   8.597   8.808   2.761  0.7315 -0.1130  0.4825
  102MOL0     C13673   8.692   8.701   2.803 -0.0379 -0.8257 -0.9990
  102MOL0     C13674   8.841   8.736   2.825 -0.5555  0.0653  0.3504
  102MOL0     C13675   8.902   8.644   2.931 -0.1844  0.2548 -0.5459
  102MOL0     C13676   9.048   8.669   2.967  0.3953 -0.5382  0.1095
  102MOL0     C13677   9.091   8.800   3.039  0.3015 -0.0126 -0.8551
  102MOL0     C13678   9.235   8.784   3.090  0.2480 -0.7395  1.1941
  102MOL0     C13679   9.354   8.777   2.995 -0.5959  1.0592  0.6274
  102MOL0    Cl13680   9.333   8.874   2.852  0.1704 -0.1992 -0.1540
  102MOL0     C13681   8.324   8.636   2.583  0.5894 -0.5907 -0.0365
  102MOL0     C13682   8.278   8.590   2.459 -0.2365 -0.2787 -0.1657
  102MOL0     O13683   8.512   8.540   2.141  0.3856 -0.4891  1.1814
  102MOL0     C13684   8.193   8.461   2.000  0.1057  0.2936 -0.0347
  102MOL0     C13685   8.120   8.440   1.882 -0.5412  0.3374  1.7152
  102MOL0     N13686   7.534   8.791   1.471  0.2079  0.0200 -0.4021
  102MOL0     N13687   7.546   8.908   1.429  0.5656 -0.5344  0.5173
  102MOL0     C13688   6.917   8.848   2.245 -0.3871  1.4397  0.0444
  102MOL0     C13689   6.808   8.771   2.302 -0.0817 -0.3372  1.1237
  102MOL0     C13690   6.517   8.444   2.349 -0.3048 -0.4332  0.1986
  102MOL0     C13691   6.525   8.310   2.365 -0.1876  0.0507 -0.4303
  102MOL0     C13692   6.415   8.233   2.391  0.1483  0.3433  0.8762
  102MOL0     C13693   6.287   8.287   2.386 -0.7769 -0.3568 -0.7383
  102MOL0     O13694   6.179   8.209   2.425 -0.0104 -0.9323  0.0410
  102MOL0     C13695   6.191   8.066   2.435 -0.6539  0.6604 -0.1171
  102MOL0     C13696   6.061   8.001   2.450  1.2942  0.4403  0.5915
  102MOL0     C13697   6.089   7.849   2.462  0.5742 -0.0732 -1.1384
  102MOL0     C13698   5.956   7.780   2.520 -0.0692 -0.1857  0.6320
  102MOL0     C13699   5.933   7.817   2.659 -0.6318 -0.3618 -1.0581
  102MOL0     C13700   5.925   7.847   2.780 -0.0183  0.0653  0.4804
  102MOL0     C13701   6.274   8.424   2.368  0.3818 -1.1748  0.6667
  102MOL0     C13702   6.385   8.499   2.341 -0.2133  0.4562  0.5946
  102MOL0     H13703   6.634   8.733   2.009 -0.2883  0.3708  0.4045
  102MOL0     H13704   6.824   8.875   1.924 -1.1526 -0.0249  0.2173
  102MOL0     H13705   7.020   8.948   1.869 -0.3273  1.0930 -0.7636
  102MOL0     H13706   6.967   9.100   1.936  2.1680  0.8826  0.0982
  102MOL0     H13707   7.198   9.171   1.978 -1.5449 -0.3249  1.4037
  102MOL0     H13708   7.252   9.003   1.975 -1.2023  0.3696  0.8817
  102MOL0     H13709   7.246   8.984   1.739  3.7598  1.3209  0.1396
  102MOL0     H13710   7.139   9.133   1.728 -0.0665  1.8369  0.7212
  102MOL0     H13711   7.314   9.277   1.796 -0.2808  0.3635 -2.1628
  102MOL0     H13712   7.425   9.137   1.817  0.3947 -1.1515 -0.5132
  102MOL0     H13713   7.377   9.093   1.557  0.1260 -0.1423 -0.7932
  102MOL0     H13714   7.323   9.264   1.572 -0.7676  1.8816  2.2666
  102MOL0     H13715   7.530   9.349   1.648 -0.4615 -0.5164  3.3424
  102MOL0     H13716   7.583   9.193   1.701  2.2192  0.6326  0.3968
  102MOL0     H13717   7.515   9.217   1.413  0.2483  2.7559 -0.8115
  102MOL0     H13718   7.647   9.314   1.460  0.1340 -0.8534 -0.5265
  102MOL0     H13719   7.788   9.115   1.529  0.4007  0.2651 -0.5117
  102MOL0     H13720   7.711   9.084   1.373 -0.0523  0.2138 -0.7196
  102MOL0     H13721   7.782   8.898   1.650  1.8922 -1.0657 -1.1880
  102MOL0     H13722   7.678   8.637   1.734  0.5547 -1.0962  0.7863
  102MOL0     H13723   7.608   8.555   1.592  1.7467 -1.8209  3.0564
  102MOL0     H13724   7.883   8.684   1.570  0.3226 -1.1655 -2.1373
  102MOL0     H13725   7.806   8.559   1.477  3.1513 -2.3304  1.1247
  102MOL0     H13726   7.785   8.419   1.677 -1.1905  1.2477  4.0387
  102MOL0     H13727   7.883   8.536   1.770 -3.0787  1.7516  0.1541
  102MOL0     H13728   7.970   8.383   1.516 -3.3389 -5.9087  0.7684
  102MOL0     H13729   7.984   8.311   1.670  2.1153 -1.1735 -3.9012
  102MOL0     H13730   8.328   8.597   1.662 -1.8838  0.0660 -1.8907
  102MOL0     H13731   8.538   8.706   1.936  1.0608  1.1786 -0.8432
  102MOL0     H13732   8.594   8.553   1.872 -0.2491 -1.0653 -0.5734
  102MOL0     H13733   8.532   8.688   1.766  0.9746 -1.5577 -0.6673
  102MOL0     H13734   8.498   8.747   2.264  0.2405  0.3430  0.4794
  102MOL0     H13735   8.591   8.820   2.483 -0.7014  1.4131 -0.0197
  102MOL0     H13736   8.634   8.872   2.680  0.2789  3.2507  2.7536
  102MOL0     H13737   8.577   8.871   2.848 -0.3340  1.8873 -1.1073
  102MOL0     H13738   8.637   8.648   2.881  0.5203  1.4053  1.0015
  102MOL0     H13739   8.692   8.626   2.723 -2.1255 -0.0516 -1.7982
  102MOL0     H13740   8.855   8.841   2.855  0.3623 -0.1469  0.7010
  102MOL0     H13741   8.889   8.710   2.731 -2.3038  0.1096 -0.5892
  102MOL0     H13742   8.844   8.661   3.022 -3.4112  0.0820 -2.4138
  102MOL0     H13743   8.902   8.537   2.909  0.7278 -0.5270  2.7386
  102MOL0     H13744   9.107   8.657   2.876  0.3667 -0.2867  0.0581
  102MOL0     H13745   9.067   8.584   3.033  0.2202 -1.9655 -1.6040
  102MOL0     H13746   9.074   8.885   2.972 -0.4380  1.5640  1.1964
  102MOL0     H13747   9.031   8.821   3.128  0.6553 -1.1232 -0.3458
  102MOL0     H13748   9.219   8.701   3.159 -0.8027  0.8779  2.9815
  102MOL0     H13749   9.257   8.878   3.141  2.8222 -0.3903 -0.3655
  102MOL0     H13750   9.372   8.676   2.957 -1.7250  0.3710  1.8200
  102MOL0     H13751   9.447   8.809   3.044 -1.2734 -0.5476  3.2253
  102MOL0     H13752   8.281   8.611   2.680  2.5251 -0.8181  0.8109
  102MOL0     H13753   8.185   8.533   2.458  0.2441 -1.1454  1.3205
  102MOL0     H13754   8.158   8.432   2.099  6.4444  0.1479  2.6407
  102MOL0     H13755   8.026   8.386   1.875  0.6119 -1.5774 -0.5397
  102MOL0     H13756   7.005   8.866   2.306 -0.9969 -1.0799  1.8514
  102MOL0     H13757   6.801   8.745   2.407  0.9344  2.3217  1.9041
  102MOL0     H13758   6.619   8.256   2.358  0.1739  0.5049  0.7271
  102MOL0     H13759   6.448   8.135   2.423  1.5099 -0.1451 -1.7080
  102MOL0     H13760   6.242   8.023   2.349 -3.4251 -0.0719 -1.4934
  102MOL0     H13761   6.241   8.043   2.530  2.5491  1.8560 -1.3458
  102MOL0     H13762   5.996   8.019   2.364  1.6575 -2.4163 -0.3774
  102MOL0     H13763   6.017   8.040   2.543  0.3395  0.7468  0.0368
  102MOL0     H13764   6.176   7.832   2.526  0.6218  1.0056 -0.8938
  102MOL0     H13765   6.103   7.821   2.357 -0.4359 -1.5534 -0.9119
  102MOL0     H13766   5.976   7.672   2.526  2.3427  0.1633 -0.0246
  102MOL0     H13767   5.868   7.810   2.463  1.7632  1.5561 -1.4621
  102MOL0     H13768   5.898   7.861   2.883  1.1236 -1.6173  1.0448
  102MOL0     H13769   6.180   8.478   2.377  0.9517  0.2239 -1.1329
  102MOL0     H13770   6.368   8.606   2.336 -1.5664  0.2627  0.7805
  103MOL0     O13771   7.206   8.198   8.072 -0.0079  0.0482  0.8288
  103MOL0     C13772   7.236   8.252   7.959  0.0259 -0.8363  0.5547
  103MOL0     O13773   7.220   8.383   7.928 -0.3985 -0.4286 -0.3295
  103MOL0     C13774   7.169   8.468   8.027  0.0017 -1.0172 -0.0802
  103MOL0     C13775   7.257   8.572   8.056 -0.2824  0.9668  0.1088
  103MOL0     C13776   7.218   8.676   8.134  0.3469 -0.4959  0.0169
  103MOL0     C13777   7.093   8.682   8.191  1.0823 -0.7311 -0.8348
  103MOL0     O13778   7.059   8.793   8.271 -0.1309  0.0870 -0.5446
  103MOL0     C13779   7.133   8.911   8.262  0.5546 -0.0177 -0.1815
  103MOL0     C13780   7.047   9.024   8.324  0.3439  0.9084  0.6046
  103MOL0     C13781   7.124   9.156   8.352 -1.3573 -0.1922  0.7587
  103MOL0     C13782   7.259   9.137   8.426  0.3941  0.1494 -1.0810
  103MOL0     C13783   7.366   9.256   8.420  0.2266 -0.1356  0.1450
  103MOL0     C13784   7.310   9.374   8.500 -0.0652  0.3789  0.8088
  103MOL0     C13785   7.393   9.504   8.464  0.0437 -0.0572  0.3698
  103MOL0     C13786   7.306   9.632   8.475  0.5774 -0.1170  0.4722
  103MOL0     N13787   7.183   9.635   8.387  0.0689 -0.1529 -0.3328
  103MOL0     C13788   7.187   9.604   8.249  0.9412  0.2296  0.4859
  103MOL0     C13789   7.061   9.624   8.214  0.5864  0.1243 -0.0279
  103MOL0     C13790   7.004   9.622   8.071 -0.7411  1.1889  0.1468
  103MOL0     C13791   6.966   9.484   8.034  0.0972  0.3685  0.0429
  103MOL0     C13792   7.085   9.384   8.008  0.5094  0.0938 -0.0033
  103MOL0     C13793   7.025   9.241   7.981 -0.4384  0.6883  0.3016
  103MOL0     O13794   7.129   9.173   7.910 -0.5872  0.4800  0.7605
  103MOL0     C13795   7.109   9.039   7.889  0.1279  0.4355  0.0989
  103MOL0     C13796   6.983   8.973   7.920 -0.3434 -0.2838  0.0719
  103MOL0     C13797   6.958   8.842   7.872 -0.5437  1.5418  0.4023
  103MOL0     C13798   6.817   8.791   7.892  0.1123 -0.2220  0.6652
  103MOL0     C13799   7.072   8.768   7.817  0.6083 -0.1670  0.2753
  103MOL0     C13800   7.052   8.619   7.769  0.0866 -1.6953 -0.0413
  103MOL0     O13801   6.944   8.552   7.797  1.0905 -0.0684 -0.5705
  103MOL0     C13802   6.930   8.434   7.733  0.1194 -0.0606  0.3813
  103MOL0     C13803   6.967   8.299   7.772 -0.5970  0.4347  0.2003
  103MOL0     C13804   6.958   8.185   7.689  0.8113  0.4666 -0.5557
  103MOL0     C13805   6.920   8.198   7.558 -0.2314 -0.3279 -0.0493
  103MOL0     O13806   6.922   8.087   7.478 -0.6439  0.2269  0.5726
  103MOL0     C13807   6.971   8.108   7.345  1.0949 -0.7508 -0.2686
  103MOL0     C13808   6.947   7.975   7.266 -0.3840  0.7437 -0.6880
  103MOL0     C13809   7.063   7.882   7.314 -0.1312  0.1821  0.0488
  103MOL0     C13810   7.061   7.741   7.255  1.0200 -0.1446  0.3712
  103MOL0     C13811   6.956   7.648   7.309 -0.1507 -0.1422  0.2908
  103MOL0     C13812   6.922   7.542   7.201  0.4771 -0.4320  0.6191
  103MOL0     C13813   6.812   7.448   7.248  0.1884 -0.1763  0.0635
  103MOL0     C13814   6.670   7.500   7.271 -0.1115 -0.6300 -0.3259
  103MOL0    Cl13815   6.584   7.508   7.115 -0.0480  0.1458  0.1045
  103MOL0     C13816   6.894   8.332   7.519 -0.8965 -0.0404 -0.4105
  103MOL0     C13817   6.894   8.443   7.603  0.9350 -0.4942  0.4952
  103MOL0     O13818   7.135   8.590   7.680 -0.0716  0.1841 -0.5407
  103MOL0     C13819   7.193   8.830   7.805 -0.0182  0.1834  0.0492
  103MOL0     C13820   7.207   8.970   7.832  0.8679  1.0456 -0.2317
  103MOL0     N13821   6.974   9.647   8.326 -0.0310 -0.0720 -0.1252
  103MOL0     N13822   7.054   9.647   8.423  0.0382  0.2707 -0.3177
  103MOL0     C13823   7.002   8.580   8.151 -0.0466 -0.4930 -0.4518
  103MOL0     C13824   7.039   8.463   8.084 -0.0025  0.5690  0.4615
  103MOL0     C13825   7.267   8.162   7.849 -0.0872 -0.5662 -0.1198
  103MOL0     C13826   7.279   8.019   7.863  0.6687  0.2194  0.1877
  103MOL0     C13827   7.295   7.935   7.751  0.3096 -1.2754 -0.0915
  103MOL0     C13828   7.310   7.986   7.627 -0.7601 -0.2557 -0.3907
  103MOL0     O13829   7.354   7.900   7.524 -0.2357  0.5951 -1.2159
  103MOL0     C13830   7.488   7.891   7.507 -0.6578  0.8395  0.4719
  103MOL0     C13831   7.520   7.743   7.538 -0.0458  0.1286  0.4299
  103MOL0     C13832   7.673   7.716   7.509 -0.0768  1.8062  0.2910
  103MOL0     C13833   7.739   7.611   7.603 -0.5705  1.4996 -0.1461
  103MOL0     C13834   7.695   7.472   7.591  1.5628  0.5764 -0.5017
  103MOL0     C13835   7.654   7.349   7.581 -0.1798 -0.6713  0.5670
  103MOL0     C13836   7.304   8.119   7.611  0.7764 -0.4670  0.0708
  103MOL0     C13837   7.275   8.212   7.714  0.0892  0.7050 -0.0498
  103MOL0     H13838   7.357   8.560   8.015 -1.4321 -2.0852 -2.2074
  103MOL0     H13839   7.295   8.753   8.130  1.0345 -1.0131  1.9766
  103MOL0     H13840   7.224   8.887   8.318  1.5689 -2.2255 -2.5483
  103MOL0     H13841   7.162   8.932   8.159  2.9726 -0.9465  0.2491
  103MOL0     H13842   6.968   9.040   8.250 -0.9705 -0.1228  1.7498
  103MOL0     H13843   6.997   8.999   8.418 -1.5237  3.2358  0.3381
  103MOL0     H13844   7.166   9.194   8.258  3.5695 -1.3007  2.2105
  103MOL0     H13845   7.061   9.232   8.399  0.3378  2.1076 -0.4825
  103MOL0     H13846   7.252   9.099   8.528 -1.0734  3.2198  0.1122
  103MOL0     H13847   7.316   9.058   8.377  1.2961 -1.7459  2.6452
  103MOL0     H13848   7.465   9.225   8.454 -0.3970 -1.6543  0.7059
  103MOL0     H13849   7.377   9.263   8.312 -1.1262 -2.8141 -0.2657
  103MOL0     H13850   7.202   9.381   8.482  0.3045  1.5325 -1.2057
  103MOL0     H13851   7.310   9.366   8.609 -2.2364  1.3095  0.9360
  103MOL0     H13852   7.476   9.519   8.535 -2.1386  0.9397  2.8900
  103MOL0     H13853   7.436   9.478   8.367  3.0478  1.3249  1.2083
  103MOL0     H13854   7.363   9.722   8.449 -0.2827 -0.3233 -2.5735
  103MOL0     H13855   7.272   9.644   8.578  1.9988 -0.7002  1.0388
  103MOL0     H13856   7.274   9.586   8.187  2.1503  0.4472  2.0432
  103MOL0     H13857   6.912   9.680   8.060 -0.0533  1.8759 -2.7987
  103MOL0     H13858   7.069   9.673   7.999 -1.2839  1.1958 -0.3413
  103MOL0     H13859   6.901   9.478   7.946  0.8908 -1.4355 -0.4567
  103MOL0     H13860   6.902   9.457   8.119  0.7049 -0.7037  0.1753
  103MOL0     H13861   7.155   9.380   8.092  1.1483  2.0830 -0.3902
  103MOL0     H13862   7.136   9.416   7.917  2.7189 -2.6366  0.1445
  103MOL0     H13863   6.934   9.242   7.920  0.9664 -1.3215 -2.0216
  103MOL0     H13864   7.014   9.194   8.079 -4.0011  3.5102  1.4912
  103MOL0     H13865   6.902   9.020   7.976  0.6847  0.4619  0.9641
  103MOL0     H13866   6.831   8.717   7.971 -0.1482 -1.4752 -0.4218
  103MOL0     H13867   6.741   8.861   7.927  0.5733 -0.1560  1.5609
  103MOL0     H13868   6.774   8.742   7.803 -0.5790  1.0406  0.2806
  103MOL0     H13869   7.009   8.285   7.871  0.2645  1.4726 -0.0034
  103MOL0     H13870   6.974   8.088   7.735  1.6260  1.4652  1.3596
  103MOL0     H13871   6.922   8.195   7.299  1.1842 -0.4700  0.1552
  103MOL0     H13872   7.074   8.143   7.336  0.7552  0.5069  0.4762
  103MOL0     H13873   6.848   7.941   7.298 -0.3019  0.2887 -0.9060
  103MOL0     H13874   6.950   7.996   7.158  0.2144 -3.3991 -1.6513
  103MOL0     H13875   7.070   7.882   7.423  0.4327  0.9253  0.0223
  103MOL0     H13876   7.155   7.937   7.291  1.0495 -2.3096 -1.7035
  103MOL0     H13877   7.055   7.743   7.146  0.8079  1.9793  0.3860
  103MOL0     H13878   7.160   7.710   7.291  1.0552  1.7053  2.0562
  103MOL0     H13879   6.868   7.708   7.335  0.2628  0.1362  1.0738
  103MOL0     H13880   6.989   7.604   7.403 -1.1270 -1.9279 -0.1540
  103MOL0     H13881   6.887   7.596   7.112  1.5081  0.5122  0.7760
  103MOL0     H13882   7.011   7.490   7.165 -0.6399 -1.6275 -0.5577
  103MOL0     H13883   6.841   7.406   7.345 -1.4773  1.0053  1.1159
  103MOL0     H13884   6.824   7.357   7.190  1.4306 -1.3292  1.9928
  103MOL0     H13885   6.675   7.601   7.311  2.3822 -0.4092 -1.0825
  103MOL0     H13886   6.604   7.440   7.335  0.1909 -0.3296  0.2738
  103MOL0     H13887   6.849   8.349   7.421  0.1118 -0.8787 -1.0377
  103MOL0     H13888   6.860   8.528   7.544  0.9235 -2.6089 -2.8132
  103MOL0     H13889   7.275   8.768   7.768 -2.3443 -1.8946 -1.9814
  103MOL0     H13890   7.305   9.014   7.818  1.9728 -1.3484 -0.5354
  103MOL0     H13891   6.910   8.610   8.200  0.7897  0.4845  0.5789
  103MOL0     H13892   6.963   8.392   8.053  0.4063  0.1301  0.4572
  103MOL0     H13893   7.263   7.993   7.967  0.8351  0.3119  0.2361
  103MOL0     H13894   7.290   7.827   7.757  0.8338 -1.2725  0.4523
  103MOL0     H13895   7.505   7.909   7.401  0.5800  2.2419  0.8760
  103MOL0     H13896   7.551   7.961   7.563  2.5493 -0.0882 -1.7054
  103MOL0     H13897   7.450   7.692   7.471  0.3293 -2.2200  1.7134
  103MOL0     H13898   7.501   7.720   7.644 -0.2693 -2.9153 -0.1832
  103MOL0     H13899   7.729   7.810   7.516  1.2256  1.1933 -1.2553
  103MOL0     H13900   7.670   7.682   7.405 -0.4196 -0.6007  1.0362
  103MOL0     H13901   7.726   7.646   7.705 -0.7001  2.9678 -0.6358
  103MOL0     H13902   7.847   7.620   7.583 -0.9182  1.1972 -2.5156
  103MOL0     H13903   7.593   7.263   7.564 -1.3601  0.2238  0.1527
  103MOL0     H13904   7.314   8.151   7.508  4.2496 -4.8125 -1.2858
  103MOL0     H13905   7.256   8.316   7.689  0.2447  0.2849 -2.0541
  104MOL0     O13906   9.801   9.003   7.815 -0.5585  0.4774 -0.3993
  104MOL0     C13907   9.821   9.090   7.899 -0.1641 -0.1761 -0.3750
  104MOL0     O13908   9.864   9.212   7.872  0.0455 -0.8276 -0.0604
  104MOL0     C13909   9.846   9.286   7.742  0.3119  0.0082 -0.1302
  104MOL0     C13910   9.956   9.349   7.685  0.3707 -0.3208  0.6606
  104MOL0     C13911   9.946   9.429   7.572 -0.2055  0.1255 -0.4756
  104MOL0     C13912   9.823   9.444   7.505  0.1027 -0.7149 -0.4714
  104MOL0     O13913   9.811   9.536   7.407  0.4474  0.2038  0.6183
  104MOL0     C13914   9.782   9.667   7.440  1.3732 -0.2731  0.2227
  104MOL0     C13915   9.907   9.756   7.468  0.4619  1.2417 -0.1690
  104MOL0     C13916   9.955   9.844   7.345 -1.2398 -0.1400  0.9722
  104MOL0     C13917   9.878   9.981   7.348  0.0591 -0.0524  0.4048
  104MOL0     C13918   9.877  10.071   7.222 -0.7522  0.4370  0.5863
  104MOL0     C13919  10.016  10.096   7.172  0.5673 -0.1166  0.4978
  104MOL0     C13920  10.100  10.174   7.273 -0.5032 -0.5306 -0.1712
  104MOL0     C13921  10.245  10.192   7.211 -0.4758 -0.6414  0.4913
  104MOL0     N13922  10.245  10.297   7.114 -0.0593 -0.3566 -0.0380
  104MOL0     C13923  10.211  10.431   7.126 -0.0197  0.8462 -0.3194
  104MOL0     C13924  10.215  10.479   7.000 -0.2724 -0.2551  0.6491
  104MOL0     C13925  10.189  10.631   6.970  0.3450 -0.3889  0.0859
  104MOL0     C13926  10.044  10.663   7.007  0.4764  0.7241 -0.0264
  104MOL0     C13927   9.994  10.798   6.969  0.1628 -0.2996 -0.1170
  104MOL0     C13928  10.091  10.916   6.949 -0.7077  0.3129  0.0740
  104MOL0     O13929  10.017  11.031   6.920  0.0332 -0.2760  0.6446
  104MOL0     C13930  10.068  11.150   6.868  0.0985  0.2716 -0.4307
  104MOL0     C13931   9.985  11.235   6.799 -0.2921 -0.3194  1.1525
  104MOL0     C13932  10.031  11.353   6.731  0.2057 -0.1035  0.1973
  104MOL0     C13933   9.929  11.440   6.675 -0.6289 -0.5845 -0.5210
  104MOL0     C13934  10.175  11.380   6.737 -0.5089 -0.0504  0.0101
  104MOL0     C13935  10.234  11.490   6.656 -0.4919  1.2397 -0.7316
  104MOL0     O13936  10.342  11.552   6.714 -0.0545 -0.0299  0.1008
  104MOL0     C13937  10.424  11.635   6.644  0.2218  0.5958 -0.3826
  104MOL0     C13938  10.425  11.776   6.654 -0.3402 -0.5473  0.1617
  104MOL0     C13939  10.521  11.847   6.585  0.0257  0.3408  0.0651
  104MOL0     C13940  10.613  11.782   6.491 -0.7572  0.5117 -1.2004
  104MOL0     O13941  10.716  11.837   6.421 -0.0512  0.0502 -0.0366
  104MOL0     C13942  10.725  11.977   6.421 -0.8444 -0.7915 -0.7689
  104MOL0     C13943  10.828  12.022   6.328  0.1145  0.2387 -0.4199
  104MOL0     C13944  10.955  11.945   6.353 -0.5414 -0.5699 -0.5162
  104MOL0     C13945  11.020  11.955   6.497 -0.2356 -0.0261 -1.0072
  104MOL0     C13946  11.172  11.920   6.498  0.5487 -0.8340 -0.0572
  104MOL0     C13947  11.201  11.775   6.458 -0.1898 -0.6321  0.0416
  104MOL0     C13948  11.124  11.689   6.546  0.3095  0.3080 -0.5828
  104MOL0     C13949  11.155  11.539   6.530 -0.4226 -0.4462 -0.5336
  104MOL0    Cl13950  11.076  11.427   6.643  0.3871  0.2342 -0.0242
  104MOL0     C13951  10.615  11.637   6.487  0.1315 -0.2905 -0.2233
  104MOL0     C13952  10.516  11.566   6.556 -0.1542 -0.4468 -0.2629
  104MOL0     O13953  10.186  11.512   6.550 -0.2864  0.5041  0.6453
  104MOL0     C13954  10.257  11.292   6.811 -0.2161 -1.3871  0.2035
  104MOL0     C13955  10.207  11.175   6.872 -0.3612 -0.3634  0.3557
  104MOL0     N13956  10.251  10.374   6.914  0.6710 -0.5516 -0.8235
  104MOL0     N13957  10.273  10.269   6.987 -0.0462 -0.5659  0.0540
  104MOL0     C13958   9.701   9.379   7.554 -0.3812 -0.0584 -0.1690
  104MOL0     C13959   9.724   9.296   7.671  0.7015 -0.6973 -0.1107
  104MOL0     C13960   9.786   9.049   8.034 -0.6996 -0.9691 -0.2514
  104MOL0     C13961   9.798   9.142   8.144 -0.5827  0.5648  0.0149
  104MOL0     C13962   9.779   9.107   8.273 -0.6818  0.0937 -0.2534
  104MOL0     C13963   9.747   8.978   8.308 -0.5379 -0.9100  0.4718
  104MOL0     O13964   9.749   8.940   8.438  0.0116  0.3884 -0.0674
  104MOL0     C13965   9.759   9.028   8.548 -0.2572 -0.6534 -0.0731
  104MOL0     C13966   9.727   8.961   8.680 -0.2596 -0.6303 -0.5960
  104MOL0     C13967   9.759   9.057   8.799  0.3955 -0.2485  0.0361
  104MOL0     C13968   9.764   8.993   8.945 -1.4764  0.3561 -0.6561
  104MOL0     C13969   9.815   9.090   9.050  0.9683  0.2853 -0.8018
  104MOL0     C13970   9.867   9.140   9.143 -0.3246  0.0997  0.0143
  104MOL0     C13971   9.720   8.890   8.201 -0.2766  0.2833  0.5475
  104MOL0     C13972   9.728   8.924   8.066  0.8050 -0.0497  0.1905
  104MOL0     H13973  10.051   9.344   7.737 -0.1379 -0.0923  1.6391
  104MOL0     H13974  10.042   9.470   7.542  0.8312 -1.9913 -0.2259
  104MOL0     H13975   9.708   9.716   7.376 -2.1830 -0.7040  3.6406
  104MOL0     H13976   9.731   9.667   7.536  0.1401 -0.4592 -0.4138
  104MOL0     H13977   9.895   9.821   7.555 -0.0603  1.3993 -0.3552
  104MOL0     H13978   9.988   9.684   7.485 -0.0277  0.3122 -1.5838
  104MOL0     H13979  10.062   9.860   7.329 -1.6551  0.5489 -1.6627
  104MOL0     H13980   9.950   9.784   7.254  1.4575 -0.5733  1.0219
  104MOL0     H13981   9.774   9.967   7.377 -0.4177  2.7187  0.2790
  104MOL0     H13982   9.917  10.045   7.428  0.3449  0.6584 -0.2900
  104MOL0     H13983   9.818  10.018   7.147  3.5314 -1.4091 -1.8854
  104MOL0     H13984   9.832  10.170   7.232 -0.9216  0.5153 -0.7892
  104MOL0     H13985  10.062  10.001   7.143  2.2535  1.0849 -1.0588
  104MOL0     H13986  10.011  10.146   7.074 -1.0369  0.7909  1.0177
  104MOL0     H13987  10.053  10.269   7.302  0.2852 -1.2049  3.8814
  104MOL0     H13988  10.103  10.122   7.369 -3.7981  2.0275  1.5365
  104MOL0     H13989  10.270  10.098   7.162 -2.7792 -1.2372  0.3277
  104MOL0     H13990  10.317  10.220   7.288  2.1426 -2.6654 -1.0610
  104MOL0     H13991  10.197  10.478   7.223  0.9539 -0.8098  0.6630
  104MOL0     H13992  10.248  10.699   7.033 -1.7877 -0.6284  2.4922
  104MOL0     H13993  10.213  10.654   6.866  1.3334  1.9073  0.7488
  104MOL0     H13994  10.039  10.648   7.116  1.6450 -3.0284 -0.3594
  104MOL0     H13995   9.978  10.584   6.970  0.3174 -0.9966  3.4472
  104MOL0     H13996   9.922  10.837   7.042 -1.6476 -1.7721 -1.0292
  104MOL0     H13997   9.937  10.791   6.876 -0.6347  3.1667 -0.0347
  104MOL0     H13998  10.149  10.887   6.861  1.1138 -1.0143  1.6003
  104MOL0     H13999  10.148  10.934   7.041 -0.6006  0.6430 -0.0568
  104MOL0     H14000   9.887  11.191   6.785  0.1709 -1.2426  0.6765
  104MOL0     H14001   9.835  11.419   6.727  0.4363 -1.2076  1.2099
  104MOL0     H14002   9.962  11.543   6.689 -2.3193 -0.3141  2.0778
  104MOL0     H14003   9.915  11.412   6.570 -1.5378 -2.4947  0.0601
  104MOL0     H14004  10.353  11.838   6.706  0.3506  0.3909  0.0194
  104MOL0     H14005  10.525  11.954   6.599  0.3534  0.3187  0.1545
  104MOL0     H14006  10.641  12.031   6.376  0.9595  0.1522 -3.2486
  104MOL0     H14007  10.754  12.020   6.518  1.8136  0.2306 -1.9379
  104MOL0     H14008  10.804  12.015   6.221  0.0651 -2.1084 -0.3048
  104MOL0     H14009  10.850  12.128   6.343  0.4259  0.0754  0.2911
  104MOL0     H14010  11.031  11.972   6.278  0.4652  2.8030  1.5034
  104MOL0     H14011  10.929  11.842   6.326 -0.4078 -0.2103 -2.1264
  104MOL0     H14012  10.995  12.053   6.538 -2.0736 -0.1285 -1.7795
  104MOL0     H14013  10.961  11.893   6.565 -0.0751  0.6376 -0.2586
  104MOL0     H14014  11.210  11.946   6.597  0.0197  1.2530 -0.3453
  104MOL0     H14015  11.224  11.987   6.430 -0.2577 -0.6492 -0.5062
  104MOL0     H14016  11.182  11.748   6.354  0.1687 -1.0684  0.0838
  104MOL0     H14017  11.307  11.755   6.476  0.5793  0.0277 -3.1557
  104MOL0     H14018  11.021  11.703   6.512  0.3618  0.2893 -0.7465
  104MOL0     H14019  11.121  11.722   6.650 -1.2267 -0.2313 -0.4336
  104MOL0     H14020  11.260  11.541   6.562 -1.5299 -0.2432  3.7549
  104MOL0     H14021  11.133  11.518   6.426  3.9147  1.3000 -2.0679
  104MOL0     H14022  10.690  11.580   6.432  0.8729  0.1240  0.3361
  104MOL0     H14023  10.500  11.459   6.546 -0.2512 -0.2108 -3.7007
  104MOL0     H14024  10.365  11.290   6.823 -0.1789 -2.2559 -0.1818
  104MOL0     H14025  10.273  11.103   6.919  0.9016 -1.2817 -2.5900
  104MOL0     H14026   9.604   9.392   7.508 -2.2671 -1.7690  2.9914
  104MOL0     H14027   9.644   9.233   7.707  4.6322 -9.5017 -3.8848
  104MOL0     H14028   9.817   9.248   8.128 -0.8669  0.2513 -2.8985
  104MOL0     H14029   9.786   9.185   8.348 -2.3070  0.2975 -0.2795
  104MOL0     H14030   9.859   9.072   8.559 -0.7298  0.3708  0.2735
  104MOL0     H14031   9.683   9.107   8.541 -0.5119 -1.0546 -2.8563
  104MOL0     H14032   9.791   8.874   8.692 -1.8825 -2.3784 -3.3871
  104MOL0     H14033   9.623   8.926   8.685 -1.3958  2.5606  1.9540
  104MOL0     H14034   9.674   9.125   8.797  0.1866 -0.4522  1.2601
  104MOL0     H14035   9.851   9.115   8.782 -0.9806  1.1967 -3.5305
  104MOL0     H14036   9.839   8.913   8.951 -0.2791  1.4175 -1.0630
  104MOL0     H14037   9.666   8.954   8.975  0.6649 -4.0015  1.7608
  104MOL0     H14038   9.925   9.192   9.217  0.0692 -1.9878  1.2530
  104MOL0     H14039   9.692   8.788   8.225  5.4544 -2.0661 -1.0349
  104MOL0     H14040   9.695   8.854   7.989  0.2638 -0.3577  0.6981
  105MOL0     O14041   8.180   0.414   5.229 -0.2015  0.0342  0.9744
  105MOL0     C14042   8.260   0.433   5.325  0.2197  0.6381  0.3490
  105MOL0     O14043   8.282   0.352   5.427  0.3016 -0.0227 -0.0544
  105MOL0     C14044   8.226   0.228   5.429  0.1205 -0.4340 -0.0064
  105MOL0     C14045   8.091   0.216   5.465 -0.5572  0.0641 -0.6471
  105MOL0     C14046   8.034   0.082   5.464  0.1003 -1.2739 -0.1293
  105MOL0     C14047   8.106  -0.034   5.429 -0.1994  0.6840 -0.3669
  105MOL0     O14048   8.055  -0.163   5.426 -0.5735 -0.5367 -0.2760
  105MOL0     C14049   7.978  -0.198   5.548  0.2519  0.9098 -1.1930
  105MOL0     C14050   7.919  -0.340   5.528 -0.0476 -0.0386  0.5652
  105MOL0     C14051   7.804  -0.314   5.429 -0.3103  0.3236  0.0855
  105MOL0     C14052   7.723  -0.433   5.417  0.0975 -0.8189 -0.5852
  105MOL0     C14053   7.618  -0.423   5.302  0.2632  0.4119 -0.8632
  105MOL0     C14054   7.533  -0.550   5.282  0.0528 -0.4249 -0.3716
  105MOL0     C14055   7.409  -0.523   5.192  0.0675 -0.1913 -0.9881
  105MOL0     C14056   7.293  -0.630   5.201  0.6035  0.9432 -0.1416
  105MOL0     N14057   7.339  -0.752   5.132  0.2497  0.8476 -0.9211
  105MOL0     C14058   7.267  -0.812   5.032  0.3020  0.0794  0.3951
  105MOL0     C14059   7.303  -0.939   5.028 -1.4263 -1.0338  0.3823
  105MOL0     C14060   7.244  -1.035   4.925 -0.3294 -0.2934 -0.0324
  105MOL0     C14061   7.185  -1.163   4.990 -0.6390  0.2502  0.1179
  105MOL0     C14062   7.058  -1.142   5.061  1.1707 -0.1634 -0.6522
  105MOL0     C14063   6.933  -1.139   4.970 -0.4260  0.0433  0.4200
  105MOL0     O14064   6.943  -1.246   4.876 -0.8474  0.3072  0.2027
  105MOL0     C14065   6.913  -1.231   4.747  0.7377 -0.2457  0.3299
  105MOL0     C14066   6.817  -1.142   4.717 -0.2344 -0.8598 -0.1503
  105MOL0     C14067   6.784  -1.109   4.580  0.4372 -0.2662  0.1964
  105MOL0     C14068   6.685  -0.989   4.562  0.2909 -0.0287  0.7112
  105MOL0     C14069   6.836  -1.186   4.472  1.2835  0.2234  0.4491
  105MOL0     C14070   6.808  -1.173   4.335 -0.4245 -0.8109  0.2442
  105MOL0     O14071   6.843  -1.277   4.257  0.1749  0.0466  0.4994
  105MOL0     C14072   6.837  -1.272   4.122  0.4270  0.6180 -0.3825
  105MOL0     C14073   6.917  -1.179   4.048  0.4924  0.4880 -0.3443
  105MOL0     C14074   6.904  -1.167   3.901 -0.8806 -0.2562 -0.9409
  105MOL0     C14075   6.814  -1.252   3.839  0.7253 -0.5781  0.4741
  105MOL0     O14076   6.803  -1.259   3.698  0.5104  0.4295 -0.5238
  105MOL0     C14077   6.910  -1.218   3.617  0.1847  0.5218 -0.1430
  105MOL0     C14078   6.877  -1.264   3.473 -0.1513 -0.6948 -0.0049
  105MOL0     C14079   6.996  -1.200   3.381  0.4551  0.1351 -0.3689
  105MOL0     C14080   6.980  -1.223   3.231  0.6326  0.3977 -0.7345
  105MOL0     C14081   7.069  -1.140   3.149 -0.0564 -0.3184 -0.5552
  105MOL0     C14082   7.068  -1.174   2.994  0.3093  0.0536  0.5738
  105MOL0     C14083   7.151  -1.284   2.953 -0.8312  0.0454  0.0863
  105MOL0     C14084   7.226  -1.249   2.824 -0.1754 -0.6053 -0.2217
  105MOL0    Cl14085   7.351  -1.368   2.778  0.4538  0.5589  0.1009
  105MOL0     C14086   6.746  -1.353   3.908  0.0719 -0.4721  0.1445
  105MOL0     C14087   6.760  -1.365   4.051  0.0357  0.5421 -0.7994
  105MOL0     O14088   6.769  -1.067   4.290  0.4301  0.3433 -0.3919
  105MOL0     C14089   6.915  -1.297   4.513 -0.0772  0.1052 -0.1051
  105MOL0     C14090   6.954  -1.305   4.641  0.2110 -0.2889  0.2099
  105MOL0     N14091   7.398  -0.952   5.136 -0.8612  0.0881  0.1323
  105MOL0     N14092   7.413  -0.845   5.199 -0.5372  0.4090 -0.1109
  105MOL0     C14093   8.243  -0.012   5.406  0.2700 -0.7297  0.3237
  105MOL0     C14094   8.299   0.111   5.402  0.6149 -0.2992  0.2190
  105MOL0     C14095   8.354   0.542   5.312  0.2547  0.4643 -0.1886
  105MOL0     C14096   8.481   0.529   5.372  0.2234 -1.0295  0.2627
  105MOL0     C14097   8.570   0.636   5.360 -0.0536 -1.2017 -0.2745
  105MOL0     C14098   8.555   0.750   5.284 -0.1976  0.1247  0.6585
  105MOL0     O14099   8.634   0.851   5.261 -0.0978 -0.7800 -0.3453
  105MOL0     C14100   8.768   0.825   5.228 -0.7224 -0.1962  0.8712
  105MOL0     C14101   8.842   0.956   5.191 -0.2907  0.5465 -0.2520
  105MOL0     C14102   8.846   1.041   5.321  0.2462 -0.0366 -0.2119
  105MOL0     C14103   8.970   1.133   5.342 -0.0223  0.1312 -0.1804
  105MOL0     C14104   9.087   1.053   5.364  0.4987 -0.6475 -0.2396
  105MOL0     C14105   9.190   0.992   5.369 -0.2586  0.3371 -0.8372
  105MOL0     C14106   8.421   0.753   5.219  0.8673  0.7886 -0.0095
  105MOL0     C14107   8.324   0.657   5.240 -0.2300  0.1449  0.5693
  105MOL0     H14108   8.031   0.299   5.501  1.6188  1.2249  0.5325
  105MOL0     H14109   7.930   0.069   5.492  0.1128  2.9781  3.0064
  105MOL0     H14110   8.034  -0.210   5.642 -1.8735 -1.5839 -0.1307
  105MOL0     H14111   7.897  -0.131   5.577 -1.7311 -1.6866 -0.3308
  105MOL0     H14112   7.987  -0.405   5.472 -0.1640 -1.3115  1.8511
  105MOL0     H14113   7.884  -0.378   5.624 -1.3046  2.6626  1.2916
  105MOL0     H14114   7.740  -0.231   5.461 -0.9980 -0.8768  1.9408
  105MOL0     H14115   7.858  -0.287   5.337 -0.1859 -3.1632 -0.9831
  105MOL0     H14116   7.794  -0.510   5.385  0.8653 -0.7808  0.9675
  105MOL0     H14117   7.677  -0.462   5.512 -0.7391  2.3014  0.0962
  105MOL0     H14118   7.535  -0.368   5.347  0.1238 -1.8207  1.9173
  105MOL0     H14119   7.650  -0.378   5.208  1.0053  4.2010  1.0353
  105MOL0     H14120   7.600  -0.631   5.252  2.5327  1.5256 -0.4549
  105MOL0     H14121   7.490  -0.580   5.378  3.5513 -0.2736  1.4054
  105MOL0     H14122   7.362  -0.433   5.231 -0.0242 -0.6984  0.1375
  105MOL0     H14123   7.445  -0.517   5.089 -1.0683  0.5537 -1.3540
  105MOL0     H14124   7.202  -0.591   5.155 -1.0595  0.1739  2.3116
  105MOL0     H14125   7.272  -0.666   5.302  3.6250 -0.8544 -0.0151
  105MOL0     H14126   7.189  -0.762   4.975  0.3694 -0.1240  0.1204
  105MOL0     H14127   7.171  -0.994   4.855  1.3604  2.5239 -0.3009
  105MOL0     H14128   7.329  -1.075   4.868  0.8430 -0.6383  1.8647
  105MOL0     H14129   7.250  -1.207   5.066 -0.0676 -1.5479 -1.3286
  105MOL0     H14130   7.174  -1.233   4.907  1.7439  0.9117 -0.8517
  105MOL0     H14131   7.059  -1.051   5.122  0.6588 -1.9008  2.1157
  105MOL0     H14132   7.037  -1.218   5.137 -3.2126  0.5662 -0.8765
  105MOL0     H14133   6.933  -1.042   4.920  1.6731  0.8948  1.9402
  105MOL0     H14134   6.843  -1.147   5.032 -1.0039  1.2029 -0.2213
  105MOL0     H14135   6.762  -1.086   4.793  0.8728 -0.0384  0.0831
  105MOL0     H14136   6.625  -0.970   4.651  0.1256  1.3204  0.3272
  105MOL0     H14137   6.730  -0.894   4.533  0.2405 -0.0705  0.5009
  105MOL0     H14138   6.617  -1.016   4.481  0.0273  0.5408  0.7411
  105MOL0     H14139   6.985  -1.107   4.091 -0.1598 -0.1994  2.0069
  105MOL0     H14140   6.961  -1.093   3.845  1.9027 -1.2336  0.4221
  105MOL0     H14141   6.898  -1.109   3.614 -1.6988  0.3438 -2.3010
  105MOL0     H14142   7.005  -1.263   3.646  0.0689  1.3417  1.6300
  105MOL0     H14143   6.870  -1.372   3.458  0.6763 -0.5066 -2.1644
  105MOL0     H14144   6.782  -1.219   3.440 -0.4822 -1.7524 -0.5411
  105MOL0     H14145   7.095  -1.238   3.408  1.8108  2.1279 -2.2137
  105MOL0     H14146   7.002  -1.093   3.402  1.6951 -0.0878  0.5060
  105MOL0     H14147   6.975  -1.332   3.216 -0.8172  0.2786  0.4028
  105MOL0     H14148   6.877  -1.196   3.208  0.1230 -1.3296 -0.6813
  105MOL0     H14149   7.170  -1.160   3.186 -0.0802 -0.3087 -0.4851
  105MOL0     H14150   7.040  -1.036   3.166  3.0392  0.8323 -1.5899
  105MOL0     H14151   6.964  -1.180   2.959  0.0225 -1.3472  1.5767
  105MOL0     H14152   7.109  -1.081   2.953 -0.5229  0.9211  1.6317
  105MOL0     H14153   7.090  -1.373   2.941 -1.1173  0.4964 -2.2781
  105MOL0     H14154   7.225  -1.296   3.033  0.5974 -0.6543 -1.2936
  105MOL0     H14155   7.280  -1.154   2.830 -1.0216 -0.0621 -1.0426
  105MOL0     H14156   7.159  -1.235   2.740 -0.1468  1.1005  0.0060
  105MOL0     H14157   6.674  -1.418   3.859 -2.0096  1.9276 -0.2112
  105MOL0     H14158   6.721  -1.453   4.102  2.3395  0.1762  0.4830
  105MOL0     H14159   6.949  -1.379   4.451  0.5616 -1.3032  1.9872
  105MOL0     H14160   7.021  -1.385   4.672 -0.2617 -0.2718  1.3053
  105MOL0     H14161   8.305  -0.096   5.377 -1.3337 -1.9403  0.2061
  105MOL0     H14162   8.405   0.127   5.387  1.2322 -1.0468  3.1608
  105MOL0     H14163   8.514   0.445   5.432 -0.1989 -1.8713 -0.6461
  105MOL0     H14164   8.665   0.624   5.410  0.3712  2.9562  0.2920
  105MOL0     H14165   8.820   0.783   5.315 -0.5869  0.8659  1.3284
  105MOL0     H14166   8.782   0.759   5.143 -0.1578  1.6152 -0.5103
  105MOL0     H14167   8.798   1.024   5.118  2.2139  0.4902 -1.9139
  105MOL0     H14168   8.939   0.921   5.155  0.4408  0.7951  1.3873
  105MOL0     H14169   8.841   0.981   5.412  0.5449  1.7343  1.0155
  105MOL0     H14170   8.758   1.105   5.327  0.9946  1.1404 -1.3298
  105MOL0     H14171   8.967   1.195   5.431  1.8138 -0.2827  0.2025
  105MOL0     H14172   8.978   1.204   5.258  0.3608  1.5463  1.0157
  105MOL0     H14173   9.289   0.952   5.360  0.0333  0.5883  0.9480
  105MOL0     H14174   8.388   0.842   5.167  0.5133  1.2417  0.9616
  105MOL0     H14175   8.240   0.675   5.173  0.4301 -1.8459 -0.8665
  106MOL0     O14176  10.777   7.627   7.902 -0.5265 -0.6406 -0.4805
  106MOL0     C14177  10.753   7.573   8.014  0.2141 -1.0820  0.2535
  106MOL0     O14178  10.717   7.443   8.036  0.1122 -0.5085  0.4878
  106MOL0     C14179  10.700   7.347   7.941  0.6325 -0.9321  0.3857
  106MOL0     C14180  10.684   7.369   7.805 -0.4090  0.2753 -0.1037
  106MOL0     C14181  10.659   7.264   7.717  0.1197  0.6413  0.1016
  106MOL0     C14182  10.647   7.133   7.763  0.4070 -0.2051 -0.3220
  106MOL0     O14183  10.630   7.026   7.679  0.2465  0.1042  0.0499
  106MOL0     C14184  10.642   7.032   7.537 -0.7019 -0.0491  0.2801
  106MOL0     C14185  10.793   7.013   7.502  0.5345 -0.1401 -0.3632
  106MOL0     C14186  10.854   6.892   7.563  0.1344 -0.0638  0.7347
  106MOL0     C14187  11.002   6.871   7.541  0.2105  0.1147  0.7590
  106MOL0     C14188  11.083   6.811   7.662  0.3457  0.8565 -0.3424
  106MOL0     C14189  11.232   6.776   7.633 -0.3961 -0.1965 -0.0081
  106MOL0     C14190  11.323   6.744   7.757  0.0291 -0.0708 -0.8512
  106MOL0     C14191  11.272   6.613   7.825 -0.4698  0.0022  0.3290
  106MOL0     N14192  11.374   6.504   7.837  0.2108  0.0351  0.1336
  106MOL0     C14193  11.406   6.453   7.959  0.2557 -0.6008 -0.2629
  106MOL0     C14194  11.512   6.366   7.930 -0.1320  0.1138 -0.1052
  106MOL0     C14195  11.591   6.326   8.040  0.1982  0.5089 -0.1864
  106MOL0     C14196  11.685   6.208   8.005  0.2456 -0.5259  0.2824
  106MOL0     C14197  11.799   6.258   7.935 -0.3445 -0.3797  0.2848
  106MOL0     C14198  11.908   6.159   7.906 -0.3484  0.2180 -1.0187
  106MOL0     O14199  11.880   6.027   7.855  0.2479  0.0334  0.0554
  106MOL0     C14200  11.849   6.003   7.725  0.0644 -0.7668 -0.6289
  106MOL0     C14201  11.822   5.872   7.686 -0.0759  0.3032  0.5816
  106MOL0     C14202  11.784   5.828   7.555  0.2326  0.4830  0.2043
  106MOL0     C14203  11.745   5.687   7.528  0.2600 -0.0738  0.2179
  106MOL0     C14204  11.794   5.936   7.458  0.5230 -0.1138  0.9338
  106MOL0     C14205  11.763   5.923   7.317 -0.2146 -0.0588 -0.6602
  106MOL0     O14206  11.813   6.003   7.224 -0.9832  0.2622  0.4937
  106MOL0     C14207  11.834   5.944   7.099  0.1294 -1.0303  0.1033
  106MOL0     C14208  11.724   5.922   7.016 -1.1019  0.0850  0.3762
  106MOL0     C14209  11.747   5.880   6.886  0.0211  0.0261 -0.2075
  106MOL0     C14210  11.868   5.885   6.828 -0.8466 -0.4665  0.1355
  106MOL0     O14211  11.896   5.859   6.693  0.3662 -0.1101  0.9248
  106MOL0     C14212  11.803   5.761   6.626  0.1187 -0.6540  0.2094
  106MOL0     C14213  11.865   5.620   6.630  0.3435 -0.4100 -0.3659
  106MOL0     C14214  11.771   5.514   6.562 -0.0115 -0.3764  0.1996
  106MOL0     C14215  11.828   5.374   6.612 -0.6997 -0.3937 -0.7726
  106MOL0     C14216  11.781   5.262   6.515  0.6515 -0.1472 -0.0186
  106MOL0     C14217  11.844   5.132   6.535  0.0381 -0.5178  1.0859
  106MOL0     C14218  11.793   5.015   6.442  0.0980 -0.0538  0.3857
  106MOL0     C14219  11.851   4.884   6.477  0.3149  0.0148 -0.2497
  106MOL0    Cl14220  12.022   4.856   6.435 -0.6415  0.0786 -0.2018
  106MOL0     C14221  11.980   5.925   6.909 -1.2412  0.3107  1.3179
  106MOL0     C14222  11.971   5.950   7.048  0.6074 -0.3388 -1.2183
  106MOL0     O14223  11.679   5.832   7.294 -0.6350  0.6314  0.8648
  106MOL0     C14224  11.822   6.068   7.500  0.2847 -0.1855 -0.4098
  106MOL0     C14225  11.846   6.104   7.631  0.3144  0.8120  0.8398
  106MOL0     N14226  11.536   6.370   7.797 -0.3040 -0.2096 -0.2502
  106MOL0     N14227  11.459   6.459   7.749 -0.4427 -0.1564  0.1954
  106MOL0     C14228  10.673   7.107   7.903  0.7473 -0.5679 -0.2924
  106MOL0     C14229  10.683   7.220   7.989 -0.1520 -0.0191 -0.1531
  106MOL0     C14230  10.742   7.670   8.120  0.0595  1.1941 -0.2888
  106MOL0     C14231  10.777   7.803   8.101 -0.0970 -0.3793 -0.3862
  106MOL0     C14232  10.761   7.886   8.215  0.2832  0.7343  0.8638
  106MOL0     C14233  10.718   7.839   8.341 -0.3716 -0.4006 -0.2021
  106MOL0     O14234  10.706   7.909   8.452  0.5615  0.0943  0.7181
  106MOL0     C14235  10.716   8.053   8.442  0.3854  1.1146  0.2424
  106MOL0     C14236  10.585   8.117   8.387 -0.6598 -0.6374  0.9574
  106MOL0     C14237  10.462   8.040   8.433  0.0872  0.9640  0.1067
  106MOL0     C14238  10.339   8.130   8.421  0.3808  0.3161 -0.1784
  106MOL0     C14239  10.331   8.236   8.523  0.1106  0.6496  0.1029
  106MOL0     C14240  10.316   8.333   8.600  0.1317  0.2042 -0.2655
  106MOL0     C14241  10.683   7.706   8.353  0.0161 -0.7741 -0.7228
  106MOL0     C14242  10.692   7.614   8.241  0.5165 -0.2320  0.2732
  106MOL0     H14243  10.688   7.466   7.756  1.1006 -0.0369 -0.6402
  106MOL0     H14244  10.643   7.286   7.612 -1.4263  3.0255  0.7585
  106MOL0     H14245  10.583   6.955   7.486 -2.2607  2.0999 -1.4030
  106MOL0     H14246  10.612   7.126   7.488  0.1722 -0.7073 -1.6246
  106MOL0     H14247  10.802   7.009   7.393 -3.3292  3.0617 -1.0266
  106MOL0     H14248  10.854   7.101   7.524  4.8297 -2.0054 -3.4415
  106MOL0     H14249  10.833   6.881   7.670 -2.3054 -1.3331  0.2058
  106MOL0     H14250  10.808   6.805   7.516  0.0698 -0.3968  1.3967
  106MOL0     H14251  11.004   6.803   7.456 -2.3954  1.5722 -0.5855
  106MOL0     H14252  11.053   6.962   7.508  1.9758 -1.2798 -0.6031
  106MOL0     H14253  11.078   6.877   7.749  0.4079 -0.0774  0.3856
  106MOL0     H14254  11.020   6.725   7.685 -0.9530  1.5219 -1.2730
  106MOL0     H14255  11.250   6.685   7.574 -1.6847 -0.2131 -0.4009
  106MOL0     H14256  11.273   6.856   7.571  1.0578  0.0361  1.1887
  106MOL0     H14257  11.429   6.735   7.733  1.1842 -0.8387  3.6337
  106MOL0     H14258  11.320   6.827   7.828  3.0911 -1.8593  1.6595
  106MOL0     H14259  11.203   6.563   7.755  1.2300 -1.8244 -0.1397
  106MOL0     H14260  11.221   6.642   7.917 -0.3934  1.3368 -0.0282
  106MOL0     H14261  11.374   6.477   8.060  0.2521  1.2732 -0.6911
  106MOL0     H14262  11.644   6.407   8.091  2.0222 -0.5620 -0.2776
  106MOL0     H14263  11.524   6.288   8.117  0.8577  1.5590  0.9272
  106MOL0     H14264  11.627   6.140   7.942 -2.4741  2.1465 -0.3093
  106MOL0     H14265  11.718   6.157   8.096  0.2029  1.5116  1.5116
  106MOL0     H14266  11.843   6.340   7.992 -1.1116 -1.0388  1.9051
  106MOL0     H14267  11.783   6.294   7.833  4.5245  0.2320 -0.4998
  106MOL0     H14268  11.967   6.132   7.994 -2.0108  0.4270  0.2084
  106MOL0     H14269  11.982   6.208   7.842  0.8046 -0.1645 -0.0229
  106MOL0     H14270  11.814   5.798   7.765  1.1974 -1.2915 -0.7028
  106MOL0     H14271  11.817   5.632   7.466 -0.7112 -2.3477  0.9670
  106MOL0     H14272  11.717   5.638   7.622 -1.0867  0.5338  0.1482
  106MOL0     H14273  11.650   5.674   7.475  0.3112  1.0274 -0.1600
  106MOL0     H14274  11.628   5.941   7.065 -2.2626 -0.7711 -1.4506
  106MOL0     H14275  11.660   5.846   6.829  1.3885  0.9298 -3.0317
  106MOL0     H14276  11.701   5.749   6.663  0.4978 -1.0358  1.1404
  106MOL0     H14277  11.788   5.776   6.518 -1.9520 -0.5926  0.4753
  106MOL0     H14278  11.953   5.634   6.566 -1.1329 -1.7368 -2.8840
  106MOL0     H14279  11.892   5.589   6.731  0.0770 -3.0053 -1.0186
  106MOL0     H14280  11.765   5.520   6.453 -1.3925  0.2585  0.2882
  106MOL0     H14281  11.669   5.508   6.601  0.7683 -5.2238  2.1789
  106MOL0     H14282  11.937   5.377   6.623 -0.7428  1.7012 -0.4559
  106MOL0     H14283  11.782   5.341   6.706  0.1190 -1.1264 -0.6171
  106MOL0     H14284  11.798   5.299   6.413 -0.7238  0.0588 -0.1960
  106MOL0     H14285  11.673   5.245   6.526  0.1955  2.6070  0.7257
  106MOL0     H14286  11.948   5.161   6.522 -1.4954  5.4813 -0.9724
  106MOL0     H14287  11.837   5.094   6.637  0.2675 -2.2915  0.4750
  106MOL0     H14288  11.816   5.038   6.338 -1.7906 -1.6207 -0.4431
  106MOL0     H14289  11.684   5.004   6.439  0.1276 -0.1878 -0.2966
  106MOL0     H14290  11.794   4.802   6.433 -2.7700  2.1957 -0.6027
  106MOL0     H14291  11.841   4.875   6.586  0.6035 -1.5963 -0.3188
  106MOL0     H14292  12.074   5.922   6.855 -2.1134  2.3286 -0.4170
  106MOL0     H14293  12.049   6.002   7.102 -1.0497  2.7536 -1.6316
  106MOL0     H14294  11.811   6.157   7.438  3.0670 -0.1434 -1.0101
  106MOL0     H14295  11.862   6.210   7.648 -0.1132  1.6159 -2.8537
  106MOL0     H14296  10.643   7.010   7.941  1.7462 -0.8068 -0.0971
  106MOL0     H14297  10.669   7.207   8.096  1.5410  2.1524  0.4131
  106MOL0     H14298  10.809   7.841   8.005 -0.7965  1.1869 -0.0330
  106MOL0     H14299  10.778   7.991   8.193  0.6162  0.2026 -1.7453
  106MOL0     H14300  10.726   8.107   8.536 -0.5771  3.2521 -0.8052
  106MOL0     H14301  10.804   8.084   8.385  0.9685 -0.0968  0.4491
  106MOL0     H14302  10.587   8.131   8.279 -0.1564  0.2634  1.0733
  106MOL0     H14303  10.572   8.218   8.427  0.3042  0.5359 -1.4840
  106MOL0     H14304  10.481   8.011   8.537  3.8963  0.2113 -0.6559
  106MOL0     H14305  10.445   7.947   8.378 -0.7020  0.0833  1.7726
  106MOL0     H14306  10.258   8.059   8.440  2.2725 -1.8686  0.2257
  106MOL0     H14307  10.324   8.164   8.319  0.7381  0.9080 -0.0402
  106MOL0     H14308  10.312   8.420   8.663 -0.9692 -0.2592  0.3351
  106MOL0     H14309  10.654   7.680   8.454  1.9652 -0.2727  0.0095
  106MOL0     H14310  10.667   7.509   8.252 -0.2856 -0.4751 -2.8882
  107MOL0     O14311  11.339  11.397   7.596 -0.2174 -0.2837  0.5032
  107MOL0     C14312  11.437  11.399   7.677 -0.1567  0.5526  0.0547
  107MOL0     O14313  11.453  11.291   7.764 -0.5830  0.0930  0.0203
  107MOL0     C14314  11.363  11.181   7.762  1.2402 -0.0928  0.7192
  107MOL0     C14315  11.417  11.059   7.753 -1.3984  0.5328  0.2307
  107MOL0     C14316  11.350  10.938   7.735  0.2249  0.1195  0.4663
  107MOL0     C14317  11.205  10.943   7.741 -0.1402  0.0798 -0.8534
  107MOL0     O14318  11.146  10.821   7.745 -0.2986  0.1691  0.1406
  107MOL0     C14319  11.012  10.811   7.788  1.1242  1.0541 -0.5308
  107MOL0     C14320  10.961  10.681   7.726 -0.0032 -0.4473  0.1408
  107MOL0     C14321  10.814  10.645   7.756  1.2564  0.1975  0.0798
  107MOL0     C14322  10.794  10.605   7.894 -1.1370  0.2531 -0.0117
  107MOL0     C14323  10.647  10.588   7.930  0.2464  0.8557 -0.3692
  107MOL0     C14324  10.587  10.725   7.961  0.3636 -0.5341 -0.1869
  107MOL0     C14325  10.446  10.696   8.000  0.1464  0.4588  1.3531
  107MOL0     C14326  10.352  10.659   7.888 -0.2464 -0.3916  0.0135
  107MOL0     N14327  10.207  10.670   7.925  0.2325  0.4898 -0.0837
  107MOL0     C14328  10.149  10.616   8.036 -0.5490 -0.4018  1.1259
  107MOL0     C14329  10.016  10.653   8.039 -0.8269 -0.4174  1.0751
  107MOL0     C14330   9.919  10.619   8.146  0.5287  0.7699 -0.6149
  107MOL0     C14331   9.910  10.735   8.255 -0.2004 -0.8237  0.5074
  107MOL0     C14332   9.924  10.875   8.196 -0.7986 -0.0716  0.2313
  107MOL0     C14333   9.917  10.981   8.309 -0.0436 -0.2803  0.2674
  107MOL0     O14334  10.030  10.983   8.399 -0.8013  0.1903 -0.1551
  107MOL0     C14335  10.109  11.092   8.373 -0.2564 -0.0347 -0.5337
  107MOL0     C14336  10.226  11.068   8.310  0.0166  0.0095  0.2451
  107MOL0     C14337  10.323  11.176   8.284 -0.9676 -0.2725  0.1800
  107MOL0     C14338  10.457  11.129   8.225  1.0632  0.0954 -1.4088
  107MOL0     C14339  10.277  11.315   8.295  0.3325 -0.0726  0.7035
  107MOL0     C14340  10.357  11.445   8.283 -0.4922  0.5497 -0.4477
  107MOL0     O14341  10.318  11.564   8.337 -0.1307 -0.0984 -0.0770
  107MOL0     C14342  10.401  11.670   8.326  0.7272  0.1627  0.0913
  107MOL0     C14343  10.450  11.740   8.441 -0.6289 -0.3680  0.7631
  107MOL0     C14344  10.540  11.846   8.416 -0.1329 -1.1804  0.0554
  107MOL0     C14345  10.568  11.894   8.293  0.2992  0.8314  0.1428
  107MOL0     O14346  10.638  12.009   8.288  0.9461 -0.3455 -0.3186
  107MOL0     C14347  10.676  12.068   8.160 -0.4251 -0.7811  1.5494
  107MOL0     C14348  10.577  12.170   8.109 -0.6479  0.1658  0.4368
  107MOL0     C14349  10.637  12.247   7.990  0.4682  0.6517  0.2423
  107MOL0     C14350  10.531  12.275   7.885 -0.7393  0.4517 -0.5130
  107MOL0     C14351  10.585  12.327   7.752 -0.5026  0.3087  0.4383
  107MOL0     C14352  10.485  12.393   7.657  0.0264 -0.3972 -0.2217
  107MOL0     C14353  10.551  12.410   7.518 -0.1045 -0.4045  0.5938
  107MOL0     C14354  10.525  12.298   7.422 -0.4873  0.8186  0.3449
  107MOL0    Cl14355  10.340  12.244   7.420 -0.0379 -0.2248 -0.0183
  107MOL0     C14356  10.514  11.825   8.190  0.1941  0.8542  0.5603
  107MOL0     C14357  10.430  11.718   8.199 -0.0402  0.6948 -0.2238
  107MOL0     O14358  10.464  11.435   8.221 -0.0923  0.3093 -0.1198
  107MOL0     C14359  10.152  11.335   8.356 -0.3236 -0.1752 -0.7532
  107MOL0     C14360  10.079  11.227   8.410 -0.1992  0.5394  0.2509
  107MOL0     N14361   9.991  10.729   7.922 -0.3355  0.6401 -0.4937
  107MOL0     N14362  10.114  10.744   7.871  0.5983 -0.2430  0.1051
  107MOL0     C14363  11.143  11.068   7.756 -0.1776  0.0279  0.0064
  107MOL0     C14364  11.217  11.186   7.755 -0.2676 -0.1174 -0.5592
  107MOL0     C14365  11.567  11.484   7.655  0.4750 -0.7007 -0.2075
  107MOL0     C14366  11.686  11.447   7.724  0.1036  0.5521  0.9568
  107MOL0     C14367  11.802  11.514   7.693  0.0038  0.3829 -0.1062
  107MOL0     C14368  11.798  11.625   7.609 -0.0776  0.7329 -0.0469
  107MOL0     O14369  11.904  11.698   7.572  0.7764 -0.3674  0.6162
  107MOL0     C14370  12.032  11.684   7.648  0.5159 -0.6270  0.4564
  107MOL0     C14371  12.120  11.803   7.601 -0.8405  0.4676 -0.1549
  107MOL0     C14372  12.056  11.944   7.608  0.3089 -0.2765 -0.7597
  107MOL0     C14373  11.979  11.979   7.739 -0.1857  0.0039  0.6143
  107MOL0     C14374  12.055  11.936   7.863  0.9357  0.2837  1.0526
  107MOL0     C14375  12.088  11.902   7.973  0.0689  0.4083 -0.5813
  107MOL0     C14376  11.678  11.659   7.547 -0.4965 -0.5239  0.6319
  107MOL0     C14377  11.558  11.593   7.567  0.2570 -0.0147 -0.2386
  107MOL0     H14378  11.525  11.070   7.756 -1.3356 -0.1984  0.8114
  107MOL0     H14379  11.404  10.847   7.712 -4.5642 -2.9093 -0.1490
  107MOL0     H14380  10.998  10.811   7.896  0.6599  1.9034 -0.5775
  107MOL0     H14381  10.946  10.892   7.755  0.2478 -0.0674 -1.6895
  107MOL0     H14382  10.988  10.691   7.621  1.5091  0.8040  0.6195
  107MOL0     H14383  11.018  10.597   7.766  2.5016  1.3908  0.6813
  107MOL0     H14384  10.752  10.730   7.726  4.1962  1.8226 -1.8993
  107MOL0     H14385  10.780  10.564   7.690  1.9068  1.6046 -2.1035
  107MOL0     H14386  10.838  10.508   7.922  1.0971  1.7907  2.3550
  107MOL0     H14387  10.848  10.669   7.965  1.9633 -0.1991 -1.7341
  107MOL0     H14388  10.597  10.520   7.861  3.4754  2.2584 -4.4674
  107MOL0     H14389  10.638  10.539   8.028 -3.6156  0.8364 -0.5730
  107MOL0     H14390  10.638  10.766   8.049 -1.3007  0.0776  0.5372
  107MOL0     H14391  10.582  10.793   7.876 -0.7743 -4.1914 -3.2933
  107MOL0     H14392  10.446  10.620   8.079 -1.0201 -0.4280  0.5421
  107MOL0     H14393  10.399  10.788   8.037 -0.8614  0.7675 -0.5617
  107MOL0     H14394  10.360  10.551   7.869  1.3083 -0.6312  1.7651
  107MOL0     H14395  10.356  10.725   7.801 -3.2388  1.4073  1.0676
  107MOL0     H14396  10.204  10.554   8.107 -1.6633 -0.7499  1.7292
  107MOL0     H14397   9.817  10.608   8.107 -0.1820 -0.1681  1.3868
  107MOL0     H14398   9.930  10.526   8.201  0.5246  0.4630 -1.1247
  107MOL0     H14399   9.998  10.735   8.320  1.3142  0.4043 -1.4169
  107MOL0     H14400   9.815  10.729   8.308 -0.6124  1.4120  0.0893
  107MOL0     H14401   9.842  10.887   8.125  2.0645  0.6050 -3.2561
  107MOL0     H14402  10.026  10.887   8.158 -1.4116  2.2735 -0.8695
  107MOL0     H14403   9.825  10.962   8.365  0.3224  0.5695  1.1967
  107MOL0     H14404   9.916  11.081   8.264  4.3615 -0.7560 -1.3150
  107MOL0     H14405  10.252  10.970   8.273 -0.0773 -0.4122  1.2686
  107MOL0     H14406  10.538  11.196   8.254  0.4404 -0.5640  2.3749
  107MOL0     H14407  10.491  11.038   8.275  0.7322  0.0570 -1.2510
  107MOL0     H14408  10.446  11.115   8.117 -1.7885  1.0621 -1.3418
  107MOL0     H14409  10.434  11.701   8.541 -0.0282 -4.3619 -0.4961
  107MOL0     H14410  10.581  11.909   8.495 -2.9652  2.8968 -1.4205
  107MOL0     H14411  10.777  12.109   8.171 -0.6769  0.5350 -0.5885
  107MOL0     H14412  10.703  11.981   8.099  5.4402 -1.7458  4.7423
  107MOL0     H14413  10.487  12.124   8.066  0.0072 -1.0716  0.3460
  107MOL0     H14414  10.547  12.230   8.196 -0.5771 -2.5185  2.4271
  107MOL0     H14415  10.713  12.184   7.942  0.8966  0.0793  1.6334
  107MOL0     H14416  10.694  12.337   8.015  1.9414 -0.4604  1.0417
  107MOL0     H14417  10.475  12.183   7.862 -2.6731  1.4699 -0.0551
  107MOL0     H14418  10.456  12.342   7.928  1.1864  1.5954  1.2456
  107MOL0     H14419  10.627  12.243   7.695 -0.4591  2.1292 -2.3743
  107MOL0     H14420  10.677  12.385   7.764  0.2124 -0.0931 -2.4038
  107MOL0     H14421  10.392  12.335   7.654  0.5110 -1.8288  4.6439
  107MOL0     H14422  10.453  12.491   7.694  2.3467  0.0277  0.8436
  107MOL0     H14423  10.651  12.450   7.534 -0.0033 -1.3547  2.6250
  107MOL0     H14424  10.503  12.488   7.457  1.9525 -0.1495 -0.7869
  107MOL0     H14425  10.584  12.208   7.439 -1.0454  0.6892  1.6825
  107MOL0     H14426  10.553  12.342   7.326 -1.2342 -1.0070 -0.7770
  107MOL0     H14427  10.530  11.870   8.093  2.2584  6.5797  3.0820
  107MOL0     H14428  10.380  11.673   8.114 -0.6061  1.1551 -0.1406
  107MOL0     H14429  10.127  11.434   8.393  1.4794  0.0480 -0.0013
  107MOL0     H14430   9.990  11.241   8.471 -2.0421 -2.6916 -1.4713
  107MOL0     H14431  11.034  11.070   7.766 -0.0129  0.0437  2.2021
  107MOL0     H14432  11.164  11.280   7.753 -1.8346 -0.9651 -2.1319
  107MOL0     H14433  11.686  11.370   7.801 -0.4727 -0.3684  0.0690
  107MOL0     H14434  11.896  11.472   7.727  0.9817 -0.0648 -3.0702
  107MOL0     H14435  12.005  11.690   7.754 -3.4139 -4.6013 -0.0475
  107MOL0     H14436  12.085  11.596   7.611  1.6462  0.7684 -1.4865
  107MOL0     H14437  12.145  11.782   7.496 -1.5999  0.0421 -0.2641
  107MOL0     H14438  12.219  11.806   7.647 -0.1735  1.6073 -1.5654
  107MOL0     H14439  11.977  11.946   7.532 -1.1403 -1.4709  0.6611
  107MOL0     H14440  12.127  12.025   7.587 -0.7318  1.4111  1.7780
  107MOL0     H14441  11.883  11.928   7.754  0.7308 -1.4376  1.9098
  107MOL0     H14442  11.975  12.086   7.759  1.7298  0.3128 -0.4019
  107MOL0     H14443  12.121  11.884   8.074 -1.9442  4.8768  1.1419
  107MOL0     H14444  11.678  11.752   7.490  2.0643 -0.5058  0.5209
  107MOL0     H14445  11.458  11.614   7.529 -0.3558 -2.1977  0.0044
  108MOL0     O14446   6.009   6.780   2.930 -0.4072 -0.7684 -0.6334
  108MOL0     C14447   6.091   6.806   3.012 -0.3508 -1.5402 -0.0566
  108MOL0     O14448   6.151   6.921   3.028 -0.2565  0.8461  0.3173
  108MOL0     C14449   6.168   7.006   2.910  0.1961  0.5810 -0.5501
  108MOL0     C14450   6.176   6.967   2.778 -0.3641  0.3919  0.7921
  108MOL0     C14451   6.226   7.058   2.682 -0.3366  1.1632 -0.3588
  108MOL0     C14452   6.239   7.190   2.709  0.0435  0.7643  0.1378
  108MOL0     O14453   6.289   7.271   2.606  0.6429  0.4182 -0.7010
  108MOL0     C14454   6.296   7.412   2.619 -0.8619 -0.3111 -0.7781
  108MOL0     C14455   6.380   7.488   2.510 -0.1066  0.3945  0.4650
  108MOL0     C14456   6.521   7.433   2.493 -0.1878 -0.4946  0.8519
  108MOL0     C14457   6.617   7.502   2.397  0.1325  0.4485  0.4414
  108MOL0     C14458   6.740   7.404   2.359  0.6167  0.1068 -0.9251
  108MOL0     C14459   6.697   7.297   2.266 -0.2379 -0.5284 -0.0360
  108MOL0     C14460   6.831   7.248   2.200  0.1100 -0.2024  0.5828
  108MOL0     C14461   6.884   7.333   2.081 -0.1594  0.2678 -0.8407
  108MOL0     N14462   6.797   7.350   1.976  0.4820 -0.5663  0.3418
  108MOL0     C14463   6.706   7.265   1.930 -0.0905  0.5143 -0.6644
  108MOL0     C14464   6.621   7.329   1.848 -0.0255 -0.6961 -0.5392
  108MOL0     C14465   6.502   7.272   1.769 -0.2778 -0.0633  1.1190
  108MOL0     C14466   6.549   7.264   1.618 -0.9573  0.2046  0.0100
  108MOL0     C14467   6.433   7.187   1.536  0.0831 -0.1543 -0.5589
  108MOL0     C14468   6.348   7.272   1.440  0.7194 -0.0313 -0.2370
  108MOL0     O14469   6.425   7.362   1.347 -0.3041  0.9517 -0.3870
  108MOL0     C14470   6.343   7.446   1.269 -0.4123  0.7379 -0.2436
  108MOL0     C14471   6.384   7.580   1.254 -0.0773 -0.8225 -0.5027
  108MOL0     C14472   6.316   7.685   1.182  0.2830 -0.5857  0.5409
  108MOL0     C14473   6.378   7.826   1.182  0.3491 -0.0227  0.0682
  108MOL0     C14474   6.198   7.637   1.114  1.4632 -1.1078  0.0388
  108MOL0     C14475   6.106   7.725   1.040  0.7001 -0.4046  1.3812
  108MOL0     O14476   6.108   7.855   1.075 -0.7056 -0.2746 -0.3656
  108MOL0     C14477   6.027   7.957   1.031  0.1266 -0.0667 -0.2429
  108MOL0     C14478   6.063   8.084   1.061 -1.6881 -0.9589  0.3988
  108MOL0     C14479   5.993   8.208   1.011 -0.0794 -0.2759  0.3108
  108MOL0     C14480   5.871   8.187   0.948  0.4930  0.2981  0.2472
  108MOL0     O14481   5.801   8.285   0.886 -0.1089  0.3254  1.2356
  108MOL0     C14482   5.770   8.397   0.972 -0.2259 -1.3451 -0.9170
  108MOL0     C14483   5.673   8.347   1.085  0.6579  0.2173 -0.4392
  108MOL0     C14484   5.609   8.467   1.150  1.0807 -0.5798 -0.4031
  108MOL0     C14485   5.497   8.424   1.251 -0.0784  0.2952  0.0753
  108MOL0     C14486   5.429   8.548   1.317  0.5779  0.0510  0.0112
  108MOL0     C14487   5.320   8.611   1.228 -0.2378  0.1651 -0.1095
  108MOL0     C14488   5.187   8.524   1.215 -0.7150  1.3327 -0.5788
  108MOL0     C14489   5.056   8.596   1.180 -0.5856 -0.6198 -0.1929
  108MOL0    Cl14490   5.078   8.671   1.017 -0.2269  0.7382 -0.0712
  108MOL0     C14491   5.822   8.055   0.939 -0.1830 -0.0327 -0.3293
  108MOL0     C14492   5.900   7.946   0.977 -0.1843  0.3290  0.8645
  108MOL0     O14493   6.033   7.680   0.949 -0.3245 -0.0666 -0.1187
  108MOL0     C14494   6.160   7.504   1.121 -0.2141 -0.1057 -0.1865
  108MOL0     C14495   6.228   7.412   1.203  1.1556 -0.0364 -0.9567
  108MOL0     N14496   6.655   7.463   1.849 -0.9217  0.3417  0.4129
  108MOL0     N14497   6.756   7.472   1.930  0.1410  0.4899 -0.1197
  108MOL0     C14498   6.225   7.233   2.844 -0.6928 -0.4219 -0.1387
  108MOL0     C14499   6.190   7.140   2.942 -0.4363  0.2782  0.1042
  108MOL0     C14500   6.093   6.710   3.125  0.3187 -0.3374  0.7196
  108MOL0     C14501   6.056   6.579   3.117 -0.1795 -0.5532 -0.5899
  108MOL0     C14502   6.053   6.494   3.231  0.2059 -0.3289  0.2920
  108MOL0     C14503   6.104   6.539   3.351  0.5255  0.9530  1.1319
  108MOL0     O14504   6.130   6.447   3.447 -0.5374 -0.0462 -0.0875
  108MOL0     C14505   6.029   6.352   3.470  0.2216 -0.7432  0.4382
  108MOL0     C14506   5.880   6.401   3.498 -0.0608 -0.3925  0.4940
  108MOL0     C14507   5.879   6.502   3.619  0.1325 -0.1172 -0.4433
  108MOL0     C14508   5.760   6.601   3.639  0.2521  0.4505 -0.4035
  108MOL0     C14509   5.637   6.527   3.645  0.1485  0.5240 -1.4787
  108MOL0     C14510   5.529   6.479   3.665  0.7809 -0.1494  0.3032
  108MOL0     C14511   6.160   6.664   3.357 -0.0080  0.5320  1.0986
  108MOL0     C14512   6.158   6.748   3.240  0.6161 -1.0525 -0.2088
  108MOL0     H14513   6.165   6.866   2.739  1.1821  1.1043 -1.7281
  108MOL0     H14514   6.242   7.031   2.578  0.4002 -0.7757  0.2053
  108MOL0     H14515   6.198   7.460   2.625 -0.7558 -0.1944  0.2252
  108MOL0     H14516   6.347   7.425   2.715 -2.6023 -0.1958  0.1737
  108MOL0     H14517   6.324   7.475   2.417 -0.4245  1.8513  0.4301
  108MOL0     H14518   6.376   7.593   2.540  0.0037 -0.1171  2.4565
  108MOL0     H14519   6.556   7.420   2.596  0.6174  1.2113  0.8281
  108MOL0     H14520   6.502   7.330   2.461 -0.2356 -0.8752  2.0677
  108MOL0     H14521   6.567   7.534   2.305  0.4321  2.6964  1.0159
  108MOL0     H14522   6.650   7.593   2.447 -0.5303 -0.2688  2.2678
  108MOL0     H14523   6.810   7.467   2.305 -1.7794  1.3891 -2.7011
  108MOL0     H14524   6.785   7.365   2.451 -0.9394  2.5841  1.0388
  108MOL0     H14525   6.653   7.221   2.331 -0.0528  0.3241  1.1186
  108MOL0     H14526   6.637   7.340   2.186 -2.1390 -0.0599  1.5824
  108MOL0     H14527   6.916   7.242   2.268 -0.8069 -1.1604  1.7019
  108MOL0     H14528   6.815   7.146   2.163  1.5399 -1.1746  2.4910
  108MOL0     H14529   6.975   7.285   2.044 -0.9224  0.4054 -3.0121
  108MOL0     H14530   6.914   7.434   2.111  1.1765 -0.4251  0.2321
  108MOL0     H14531   6.695   7.159   1.946  0.2257  0.3821 -1.2893
  108MOL0     H14532   6.482   7.171   1.806  0.0718 -0.7961 -0.6059
  108MOL0     H14533   6.415   7.337   1.781  0.6379  1.3619  0.3262
  108MOL0     H14534   6.651   7.224   1.626 -0.9705  0.3391  1.0662
  108MOL0     H14535   6.557   7.368   1.585  1.7272  0.4985  1.2802
  108MOL0     H14536   6.367   7.134   1.605  1.6504 -1.5751 -0.0711
  108MOL0     H14537   6.486   7.111   1.478  2.8635  0.8558  0.4862
  108MOL0     H14538   6.270   7.327   1.494 -0.1211 -1.6660  0.2717
  108MOL0     H14539   6.297   7.205   1.370 -1.5690  1.5999 -0.2710
  108MOL0     H14540   6.467   7.602   1.320 -0.0003 -1.9187 -0.2047
  108MOL0     H14541   6.368   7.873   1.084 -0.4029 -0.7245 -0.2009
  108MOL0     H14542   6.331   7.876   1.268  1.0444  1.4523 -0.3811
  108MOL0     H14543   6.483   7.815   1.208 -0.0772  1.4010  2.7778
  108MOL0     H14544   6.155   8.110   1.112 -0.1580 -3.5586 -0.8120
  108MOL0     H14545   6.047   8.300   1.030  1.3944 -1.2268  0.9143
  108MOL0     H14546   5.870   8.428   1.003  0.0133 -1.3798 -1.6279
  108MOL0     H14547   5.739   8.486   0.916 -1.6439  1.1493  3.3322
  108MOL0     H14548   5.597   8.291   1.029 -0.0023 -0.6082  1.2141
  108MOL0     H14549   5.716   8.277   1.157 -0.9760  0.2738  0.6280
  108MOL0     H14550   5.574   8.535   1.072  0.8699 -1.8963 -1.4729
  108MOL0     H14551   5.679   8.523   1.213  1.8498 -1.4529 -0.4771
  108MOL0     H14552   5.418   8.368   1.200 -2.1398  0.4629  2.8997
  108MOL0     H14553   5.565   8.372   1.319  3.7866  6.5234  1.7351
  108MOL0     H14554   5.503   8.627   1.331  1.7229 -1.1698  1.1959
  108MOL0     H14555   5.381   8.522   1.412 -0.4861 -0.3822 -0.6203
  108MOL0     H14556   5.291   8.707   1.273 -0.3628 -2.0979  5.3603
  108MOL0     H14557   5.367   8.632   1.131  0.7121 -0.1115  0.2876
  108MOL0     H14558   5.173   8.487   1.318  1.1948  3.8924  0.7182
  108MOL0     H14559   5.195   8.445   1.140 -0.4522  0.8046 -0.0035
  108MOL0     H14560   5.027   8.674   1.251 -0.9791  1.3729 -2.3993
  108MOL0     H14561   4.964   8.539   1.168 -0.2343 -0.7778 -2.7534
  108MOL0     H14562   5.726   8.028   0.897 -0.7381  2.4440 -0.7893
  108MOL0     H14563   5.865   7.845   0.960 -0.1514  0.6511 -1.4596
  108MOL0     H14564   6.061   7.483   1.081 -2.1404  2.4594  2.7574
  108MOL0     H14565   6.194   7.310   1.220  2.3642 -0.1252  1.3382
  108MOL0     H14566   6.243   7.338   2.862  3.9655 -1.0887  0.4413
  108MOL0     H14567   6.182   7.172   3.045 -2.8879 -1.0754  0.4088
  108MOL0     H14568   6.013   6.527   3.033 -2.1921 -0.1256  0.1175
  108MOL0     H14569   6.010   6.396   3.216 -2.0528  0.2548  2.2195
  108MOL0     H14570   6.012   6.290   3.382 -2.4137  2.5859 -1.6562
  108MOL0     H14571   6.060   6.297   3.560 -2.6860 -1.9572  0.8144
  108MOL0     H14572   5.816   6.315   3.523 -0.3505  0.2611  2.1400
  108MOL0     H14573   5.836   6.452   3.412  1.2544  3.2775  1.7860
  108MOL0     H14574   5.973   6.558   3.615  1.1111 -1.7437 -1.0696
  108MOL0     H14575   5.887   6.437   3.707 -0.3415 -3.0887 -2.4440
  108MOL0     H14576   5.764   6.672   3.556 -3.5648  2.9139  1.2491
  108MOL0     H14577   5.779   6.661   3.728  2.9627 -1.8311  0.7341
  108MOL0     H14578   5.433   6.430   3.668 -0.3656  1.8944 -0.5179
  108MOL0     H14579   6.202   6.692   3.453  0.3482 -1.6138  1.6163
  108MOL0     H14580   6.202   6.846   3.251 -1.2660 -0.1768 -0.0594
  109MOL0     O14581   7.832   9.263   4.458 -0.4233  0.2619  0.1846
  109MOL0     C14582   7.727   9.321   4.493 -0.5853  0.2614 -0.2810
  109MOL0     O14583   7.696   9.450   4.470  0.6068  0.8832  1.1702
  109MOL0     C14584   7.782   9.519   4.399  0.0443 -1.0678 -0.4703
  109MOL0     C14585   7.831   9.487   4.274  0.3874 -0.1060  0.5838
  109MOL0     C14586   7.932   9.561   4.220  0.0854 -1.1997  0.5018
  109MOL0     C14587   7.984   9.676   4.281 -0.0251  1.4883  0.4272
  109MOL0     O14588   8.069   9.759   4.215  0.8699 -1.0830  0.3226
  109MOL0     C14589   8.009   9.876   4.167  0.5804 -0.5107  0.0048
  109MOL0     C14590   8.111   9.961   4.074  0.2545  0.7848 -0.7908
  109MOL0     C14591   8.065  10.105   4.030  0.2852 -0.4754 -0.4840
  109MOL0     C14592   7.924  10.119   3.967 -0.3844 -0.1589 -0.2446
  109MOL0     C14593   7.917  10.226   3.847 -0.9924 -0.0401 -0.1354
  109MOL0     C14594   7.788  10.222   3.781  0.2477 -0.5763 -0.4281
  109MOL0     C14595   7.783  10.123   3.667  0.1502 -0.3929  0.2885
  109MOL0     C14596   7.651  10.130   3.592  0.0671  0.4978 -0.1308
  109MOL0     N14597   7.539  10.076   3.669 -0.0230 -1.0668 -0.4497
  109MOL0     C14598   7.438  10.140   3.730  0.0859  0.8322 -1.0639
  109MOL0     C14599   7.385  10.040   3.814 -0.7430 -0.1157  0.0652
  109MOL0     C14600   7.298  10.050   3.937  0.3684 -0.1013  0.4450
  109MOL0     C14601   7.143  10.064   3.899 -0.0101 -0.4270 -0.4334
  109MOL0     C14602   7.094   9.959   3.789 -0.4008  0.5574  0.6184
  109MOL0     C14603   7.129   9.799   3.816 -0.0391 -0.3562 -0.0699
  109MOL0     O14604   7.119   9.762   3.955 -1.0864 -0.4469  1.0383
  109MOL0     C14605   6.992   9.735   4.005 -0.2464  0.7180  0.9881
  109MOL0     C14606   6.955   9.788   4.121  1.1043  0.7655  0.9628
  109MOL0     C14607   6.840   9.741   4.192  0.3106  0.7689  0.5343
  109MOL0     C14608   6.824   9.812   4.322  0.6541  0.9646 -0.5335
  109MOL0     C14609   6.756   9.640   4.143  0.6702  0.1740  0.2637
  109MOL0     C14610   6.632   9.591   4.210  0.2549  0.5428  0.1573
  109MOL0     O14611   6.535   9.535   4.117 -1.5070 -1.3487 -0.2623
  109MOL0     C14612   6.425   9.479   4.175 -0.3374 -0.5190  0.3044
  109MOL0     C14613   6.331   9.576   4.230 -0.1551 -0.1533 -0.8028
  109MOL0     C14614   6.217   9.531   4.295 -1.1665  0.0442 -0.6570
  109MOL0     C14615   6.191   9.389   4.293  0.4042 -0.7357  0.2044
  109MOL0     O14616   6.077   9.336   4.356 -0.7469  0.2494  0.6895
  109MOL0     C14617   6.111   9.280   4.486  0.6763  1.1470  0.4036
  109MOL0     C14618   5.983   9.215   4.553  0.9185 -0.7378  0.5190
  109MOL0     C14619   5.860   9.306   4.562 -0.6655 -0.1594  1.0063
  109MOL0     C14620   5.745   9.208   4.616  0.3576 -0.9484 -0.3119
  109MOL0     C14621   5.612   9.284   4.611  0.1623 -0.9155  0.1275
  109MOL0     C14622   5.499   9.192   4.643  0.2777  0.2244  0.1069
  109MOL0     C14623   5.360   9.252   4.628 -0.2240  0.1718 -0.1157
  109MOL0     C14624   5.302   9.261   4.772  0.9068 -0.4348  0.7385
  109MOL0    Cl14625   5.125   9.302   4.767 -0.3198 -0.1816  0.3533
  109MOL0     C14626   6.280   9.303   4.221 -0.1781  0.9097  0.2057
  109MOL0     C14627   6.398   9.349   4.169  0.3933 -0.4737 -0.0726
  109MOL0     O14628   6.614   9.585   4.335 -0.3959  0.0914  0.5375
  109MOL0     C14629   6.796   9.584   4.027 -0.3916  0.5374 -0.7029
  109MOL0     C14630   6.908   9.634   3.952  0.0264 -0.1886  0.5700
  109MOL0     N14631   7.450   9.924   3.788 -0.4325  0.3285 -1.1047
  109MOL0     N14632   7.545   9.944   3.703 -0.0921  0.3620  0.2083
  109MOL0     C14633   7.926   9.718   4.400 -0.0471 -0.3799  0.7279
  109MOL0     C14634   7.834   9.631   4.467  0.4939  0.2504 -0.1040
  109MOL0     C14635   7.634   9.240   4.569 -0.9304  0.5088 -0.2914
  109MOL0     C14636   7.519   9.295   4.630 -0.5899 -0.6158  0.2026
  109MOL0     C14637   7.437   9.220   4.715 -0.7600 -0.0274  0.3846
  109MOL0     C14638   7.464   9.088   4.736 -0.0193  0.2066  0.3526
  109MOL0     O14639   7.390   9.021   4.827  0.2720  0.4464  0.1909
  109MOL0     C14640   7.255   9.060   4.862  0.9886 -0.1740 -0.2146
  109MOL0     C14641   7.157   8.930   4.857  0.1706  0.6992 -0.2116
  109MOL0     C14642   7.029   8.979   4.914  0.2569 -0.3236  0.2934
  109MOL0     C14643   7.018   8.979   5.070 -0.5535  0.2961 -1.3867
  109MOL0     C14644   7.000   8.846   5.127 -0.8673 -0.1143  0.0106
  109MOL0     C14645   6.992   8.735   5.172 -0.5171 -0.5911 -0.2800
  109MOL0     C14646   7.572   9.029   4.674  0.4973  0.2239 -0.4192
  109MOL0     C14647   7.646   9.103   4.589  0.0198 -0.4821  0.2721
  109MOL0     H14648   7.803   9.395   4.223  3.6656 -1.0033  0.1396
  109MOL0     H14649   7.980   9.536   4.125  2.0190 -0.4495  1.2314
  109MOL0     H14650   7.916   9.845   4.119 -1.0204  2.9564  0.5741
  109MOL0     H14651   7.973   9.930   4.255  1.0000 -1.3958  0.7425
  109MOL0     H14652   8.199   9.973   4.137 -0.7302 -0.1438  0.8379
  109MOL0     H14653   8.139   9.900   3.988 -2.0539 -1.5976 -0.0084
  109MOL0     H14654   8.076  10.182   4.107  1.1384 -0.4858 -0.5953
  109MOL0     H14655   8.143  10.124   3.957  0.0652 -1.0388 -0.8702
  109MOL0     H14656   7.895  10.017   3.940 -0.7759 -0.8176  2.3947
  109MOL0     H14657   7.859  10.141   4.052  0.1434  0.7525 -0.0578
  109MOL0     H14658   7.946  10.327   3.878 -1.4291  0.1734 -0.4142
  109MOL0     H14659   7.987  10.192   3.770 -1.1013 -1.1754  0.2529
  109MOL0     H14660   7.705  10.192   3.846 -0.3395 -0.1410 -0.9621
  109MOL0     H14661   7.771  10.322   3.739  3.7496  0.5924  0.5805
  109MOL0     H14662   7.861  10.134   3.591  0.9252 -0.7800  1.0204
  109MOL0     H14663   7.784  10.022   3.709 -2.0234  0.3718  2.3734
  109MOL0     H14664   7.655  10.075   3.498 -1.4613  1.7696 -0.9896
  109MOL0     H14665   7.634  10.236   3.573 -0.4452  0.1816 -1.4994
  109MOL0     H14666   7.418  10.246   3.735 -3.2449  0.2706  1.0279
  109MOL0     H14667   7.313   9.960   3.997  2.3389  0.7816  1.3796
  109MOL0     H14668   7.323  10.129   4.009 -2.1271  0.0949  1.1837
  109MOL0     H14669   7.140  10.166   3.861 -1.3032 -0.6776 -1.0520
  109MOL0     H14670   7.071  10.053   3.980 -2.6161 -1.4337 -2.7341
  109MOL0     H14671   7.144   9.986   3.695  1.8001 -2.8887  0.6451
  109MOL0     H14672   6.987   9.972   3.770  0.1455  3.6060 -1.1604
  109MOL0     H14673   7.230   9.779   3.778  0.5878  2.5774 -0.1869
  109MOL0     H14674   7.061   9.732   3.763 -0.2973 -1.2256  1.3303
  109MOL0     H14675   7.018   9.872   4.147  2.7325  0.0909 -0.6521
  109MOL0     H14676   6.728   9.864   4.315 -1.2896 -2.4443 -1.4744
  109MOL0     H14677   6.826   9.736   4.400  2.0417  0.2673 -1.2093
  109MOL0     H14678   6.901   9.883   4.356 -1.4683  1.6565  3.4489
  109MOL0     H14679   6.349   9.683   4.229 -1.8877  0.1766 -1.1543
  109MOL0     H14680   6.150   9.595   4.351 -1.8139 -0.9725 -0.2377
  109MOL0     H14681   6.182   9.199   4.470  0.7863  1.0064  1.5274
  109MOL0     H14682   6.154   9.367   4.536  2.1506 -0.4705  2.0548
  109MOL0     H14683   5.962   9.140   4.475  0.3282  0.8561 -0.9335
  109MOL0     H14684   6.006   9.163   4.646 -2.1975 -2.3341  0.5368
  109MOL0     H14685   5.827   9.340   4.464  0.1362 -1.6688  0.1849
  109MOL0     H14686   5.877   9.394   4.624  1.5527  0.4068 -0.3192
  109MOL0     H14687   5.737   9.129   4.541 -0.9306  1.5450 -3.0050
  109MOL0     H14688   5.757   9.162   4.715  1.0243 -2.0710 -0.8947
  109MOL0     H14689   5.606   9.318   4.507 -3.5774 -1.7912 -0.1055
  109MOL0     H14690   5.594   9.364   4.683 -2.3320 -0.5285 -0.8297
  109MOL0     H14691   5.498   9.108   4.573 -2.5706 -0.0839  0.3909
  109MOL0     H14692   5.506   9.147   4.743 -1.6443 -2.1796 -0.7285
  109MOL0     H14693   5.295   9.193   4.561  0.1497 -2.0836  1.3867
  109MOL0     H14694   5.357   9.354   4.590  2.4372  0.4779  0.3578
  109MOL0     H14695   5.363   9.331   4.829 -1.5325  1.3652  1.2876
  109MOL0     H14696   5.310   9.160   4.814  0.3666  0.5247  3.3267
  109MOL0     H14697   6.267   9.195   4.213  3.9701  0.2637  0.3451
  109MOL0     H14698   6.470   9.278   4.129 -0.1636 -0.0558 -1.9176
  109MOL0     H14699   6.747   9.493   3.993  0.8633 -0.7677  0.8045
  109MOL0     H14700   6.954   9.590   3.864  3.0426 -2.4402  3.0805
  109MOL0     H14701   7.954   9.809   4.451  0.8503  1.4401 -2.7703
  109MOL0     H14702   7.797   9.656   4.565 -5.5571  0.6680 -2.0488
  109MOL0     H14703   7.488   9.399   4.617 -0.9142 -0.8598 -1.1993
  109MOL0     H14704   7.359   9.283   4.757  0.2274  2.9730 -1.9550
  109MOL0     H14705   7.256   9.108   4.960  0.5146 -3.7721  1.6992
  109MOL0     H14706   7.209   9.124   4.785 -0.6204  0.6765  1.3764
  109MOL0     H14707   7.185   8.843   4.916 -2.9279  0.3226  0.8589
  109MOL0     H14708   7.161   8.889   4.756  0.3714 -1.3292  0.5768
  109MOL0     H14709   6.946   8.919   4.876 -0.6735  1.9450 -1.4984
  109MOL0     H14710   6.998   9.080   4.886 -1.6944 -0.6856  1.0330
  109MOL0     H14711   6.934   9.032   5.115 -1.1254 -2.4621  1.0742
  109MOL0     H14712   7.104   9.025   5.119 -2.4773 -0.9215  3.7607
  109MOL0     H14713   6.984   8.632   5.204  0.9222 -0.6004  0.1284
  109MOL0     H14714   7.583   8.932   4.722 -1.6669  0.7637  1.3780
  109MOL0     H14715   7.741   9.056   4.568 -0.3137 -0.3107 -1.9265
  110MOL0     O14716   5.100   9.631   9.276  0.2041  0.4236  0.1490
  110MOL0     C14717   5.136   9.716   9.363  0.1771 -0.2845  0.7793
  110MOL0     O14718   5.134   9.699   9.497  0.3574 -0.3427 -0.3366
  110MOL0     C14719   5.093   9.571   9.547 -0.1913 -0.2810 -0.7516
  110MOL0     C14720   4.961   9.521   9.527 -0.8373 -0.6163  0.8806
  110MOL0     C14721   4.916   9.402   9.565 -0.1633 -0.3988 -0.5282
  110MOL0     C14722   5.007   9.324   9.633 -0.2162  0.3591 -0.0648
  110MOL0     O14723   4.985   9.199   9.667  0.1724  0.8063  0.4299
  110MOL0     C14724   4.868   9.125   9.623 -0.8532  0.3749 -0.4259
  110MOL0     C14725   4.852   8.996   9.714 -0.3117 -0.1413  0.3404
  110MOL0     C14726   4.831   9.029   9.868  0.6452  0.4803 -0.1734
  110MOL0     C14727   4.804   8.900   9.944 -0.2266  0.4343 -0.9184
  110MOL0     C14728   4.662   8.841   9.935  0.1388 -0.7173  0.4504
  110MOL0     C14729   4.668   8.695   9.886 -0.9799 -0.9312  0.0738
  110MOL0     C14730   4.528   8.637   9.839 -0.5652 -0.6338 -0.1652
  110MOL0     C14731   4.463   8.716   9.736  0.7907  0.9215 -0.6029
  110MOL0     N14732   4.551   8.744   9.616 -0.2285 -0.8081 -0.8028
  110MOL0     C14733   4.630   8.647   9.554 -0.9747  0.4206 -0.1604
  110MOL0     C14734   4.687   8.713   9.454  0.3584 -0.4168  0.5652
  110MOL0     C14735   4.771   8.654   9.345 -1.0738  0.1834 -0.0833
  110MOL0     C14736   4.920   8.667   9.393  0.1370  0.1145 -0.1682
  110MOL0     C14737   4.965   8.538   9.469 -0.2319 -0.0409  1.0110
  110MOL0     C14738   5.094   8.556   9.548 -0.2333  0.0619 -0.2917
  110MOL0     O14739   5.042   8.642   9.658 -0.5983 -0.2539  0.1396
  110MOL0     C14740   5.134   8.710   9.732 -0.1993  0.0717  1.0391
  110MOL0     C14741   5.184   8.832   9.693 -0.2874  0.6023 -0.0744
  110MOL0     C14742   5.299   8.897   9.751 -0.4560  0.2640 -0.5518
  110MOL0     C14743   5.354   9.010   9.665  0.2792 -0.0397  0.0002
  110MOL0     C14744   5.364   8.841   9.868  0.6407 -1.1177  1.1659
  110MOL0     C14745   5.478   8.910   9.931 -0.4453  0.0935  0.9751
  110MOL0     O14746   5.516   8.849  10.044 -0.2086 -0.3457  0.1988
  110MOL0     C14747   5.646   8.845  10.072 -0.5951 -1.1575 -0.6519
  110MOL0     C14748   5.711   8.897  10.191  0.5116  0.6769 -0.1513
  110MOL0     C14749   5.852   8.900  10.202 -0.4218  0.3208 -0.2710
  110MOL0     C14750   5.935   8.842  10.106 -0.4686 -0.3518 -0.1352
  110MOL0     O14751   6.066   8.825  10.135 -0.3812  0.2476 -0.4820
  110MOL0     C14752   6.160   8.747  10.062  0.5438  0.7161 -0.3514
  110MOL0     C14753   6.296   8.741  10.128  0.1495  0.5007 -0.3674
  110MOL0     C14754   6.352   8.882  10.133  0.5101 -0.2752  0.4210
  110MOL0     C14755   6.494   8.876  10.168 -0.3617  0.5479 -0.2851
  110MOL0     C14756   6.554   9.013  10.200 -0.4258  0.2894 -0.3169
  110MOL0     C14757   6.680   8.999  10.292 -0.2259 -1.0918 -0.2030
  110MOL0     C14758   6.649   8.978  10.439  0.2845  0.4586 -0.4990
  110MOL0     C14759   6.767   9.021  10.526 -0.9354  0.0357 -0.3597
  110MOL0    Cl14760   6.907   8.922  10.496  0.3784  0.3138 -0.1156
  110MOL0     C14761   5.867   8.777   9.994  0.3599  0.5539 -0.3988
  110MOL0     C14762   5.727   8.783   9.976  0.2819 -0.4683 -0.3464
  110MOL0     O14763   5.540   9.002   9.880  0.2331  0.4849  0.2453
  110MOL0     C14764   5.321   8.709   9.898 -0.0526 -0.2026  0.1493
  110MOL0     C14765   5.215   8.650   9.835  0.3969  0.5297 -0.1433
  110MOL0     N14766   4.645   8.848   9.460  0.2979 -0.7381 -0.0498
  110MOL0     N14767   4.566   8.866   9.557 -0.4540  0.3643 -0.3581
  110MOL0     C14768   5.136   9.373   9.670  0.4571  0.4234 -0.0034
  110MOL0     C14769   5.183   9.496   9.624  1.2076 -0.1757 -0.2729
  110MOL0     C14770   5.185   9.850   9.321  0.7402 -0.6323 -0.0195
  110MOL0     C14771   5.123   9.918   9.215  0.0700 -0.1855 -0.1552
  110MOL0     C14772   5.176  10.035   9.168  0.5306 -0.3609  0.0489
  110MOL0     C14773   5.283  10.098   9.238  0.6120  0.8412  0.1520
  110MOL0     O14774   5.350  10.220   9.211 -0.3833 -0.3659  0.3311
  110MOL0     C14775   5.307  10.286   9.082  0.1493  0.2083 -0.1245
  110MOL0     C14776   5.195  10.379   9.132  0.0273 -0.3159 -0.0699
  110MOL0     C14777   5.127  10.462   9.014  0.3061  0.6594  0.1780
  110MOL0     C14778   4.996  10.529   9.067  0.1609  0.3789 -0.0433
  110MOL0     C14779   4.930  10.604   8.958  0.9169  0.5956  0.1444
  110MOL0     C14780   4.892  10.659   8.853  0.6519  0.7938 -0.7209
  110MOL0     C14781   5.344  10.029   9.344  0.1400  0.8256  0.4397
  110MOL0     C14782   5.290   9.908   9.390 -0.8888 -0.3447  0.5410
  110MOL0     H14783   4.895   9.594   9.481  0.5848  0.0176 -0.2429
  110MOL0     H14784   4.810   9.378   9.558 -1.1845  2.9655  1.3337
  110MOL0     H14785   4.780   9.189   9.612 -1.8355 -0.8850 -0.0429
  110MOL0     H14786   4.880   9.079   9.524 -1.6728 -1.6060  0.3576
  110MOL0     H14787   4.758   8.956   9.675 -1.3586  1.8667  0.6608
  110MOL0     H14788   4.934   8.926   9.695 -0.6669 -0.4356 -0.1242
  110MOL0     H14789   4.922   9.076   9.905 -0.0095  0.2904  1.7925
  110MOL0     H14790   4.748   9.098   9.882  1.2369  2.0234 -3.3204
  110MOL0     H14791   4.883   8.830   9.916 -0.4519  0.3996 -1.4743
  110MOL0     H14792   4.813   8.920  10.052 -2.6261  2.5402 -1.0192
  110MOL0     H14793   4.622   8.848  10.036 -1.8006  1.0125 -0.3570
  110MOL0     H14794   4.605   8.894   9.858  3.2186  0.4786 -1.2096
  110MOL0     H14795   4.729   8.701   9.796 -4.2773  1.5836 -2.2604
  110MOL0     H14796   4.725   8.635   9.958 -1.9537  0.6925  2.3397
  110MOL0     H14797   4.546   8.538   9.796  2.8028  0.3678 -1.3880
  110MOL0     H14798   4.470   8.637   9.932 -0.8873 -1.1471 -0.3615
  110MOL0     H14799   4.423   8.806   9.782  0.6131 -0.0009  1.1468
  110MOL0     H14800   4.389   8.645   9.699  1.9718 -2.9932  3.5654
  110MOL0     H14801   4.654   8.546   9.587 -2.4964 -0.2485 -1.0022
  110MOL0     H14802   4.734   8.551   9.341 -0.4980 -0.0858  1.1288
  110MOL0     H14803   4.757   8.708   9.251  3.5434  2.0841  0.0772
  110MOL0     H14804   4.922   8.760   9.451  1.2757 -1.9256  3.3207
  110MOL0     H14805   4.980   8.682   9.303 -1.8345  0.1211 -1.5573
  110MOL0     H14806   4.991   8.467   9.390 -0.6287  0.2172  0.6457
  110MOL0     H14807   4.887   8.499   9.534 -1.3155  1.3526  0.5969
  110MOL0     H14808   5.168   8.608   9.486 -1.7925  0.0103 -2.3020
  110MOL0     H14809   5.138   8.465   9.591  2.4288  2.0368  1.5242
  110MOL0     H14810   5.142   8.863   9.598 -0.1928  0.2745 -0.2269
  110MOL0     H14811   5.290   9.021   9.577 -0.5187  0.0987  0.5905
  110MOL0     H14812   5.351   9.111   9.706  1.7827  0.4303 -0.9501
  110MOL0     H14813   5.458   9.004   9.630  1.3928  0.7178  2.8871
  110MOL0     H14814   5.665   8.949  10.275  1.3096 -1.1647  1.4791
  110MOL0     H14815   5.896   8.956  10.284 -0.2901 -0.4574  0.1998
  110MOL0     H14816   6.115   8.648  10.048  1.4630 -0.0897  1.7846
  110MOL0     H14817   6.163   8.792   9.963  1.4674  0.7544 -0.3155
  110MOL0     H14818   6.296   8.707  10.232 -1.4778 -0.9450 -0.8006
  110MOL0     H14819   6.351   8.668  10.067 -0.2276 -0.0270 -0.0793
  110MOL0     H14820   6.303   8.945  10.208  1.5799  1.1016  0.0009
  110MOL0     H14821   6.343   8.938  10.039  2.3029  1.9254  1.4662
  110MOL0     H14822   6.494   8.801  10.247 -3.9650  0.5139 -0.1536
  110MOL0     H14823   6.551   8.833  10.084  0.8322 -0.4425  0.9887
  110MOL0     H14824   6.473   9.068  10.248 -3.0443 -1.8834 -1.8745
  110MOL0     H14825   6.594   9.056  10.108  1.5026 -2.2611 -0.8004
  110MOL0     H14826   6.747   8.922  10.251 -1.4611 -2.3024 -0.0162
  110MOL0     H14827   6.735   9.092  10.277 -1.4955 -0.1843  0.6459
  110MOL0     H14828   6.625   8.873  10.458  2.3399 -0.0121 -0.2824
  110MOL0     H14829   6.559   9.039  10.455 -0.8455 -1.3582  0.4605
  110MOL0     H14830   6.739   9.030  10.632  1.5870 -0.4371  0.4220
  110MOL0     H14831   6.803   9.118  10.490 -1.7574  0.3479 -0.3684
  110MOL0     H14832   5.922   8.714   9.924  0.2824 -0.6298  0.5653
  110MOL0     H14833   5.677   8.726   9.899 -1.9941 -1.8691  1.9899
  110MOL0     H14834   5.385   8.651   9.963 -0.0201 -1.2399 -0.7781
  110MOL0     H14835   5.208   8.543   9.856 -3.7358 -0.1041 -3.3880
  110MOL0     H14836   5.189   9.303   9.734 -2.1669  0.3388  2.2642
  110MOL0     H14837   5.280   9.540   9.648  0.0797  2.3726 -0.1112
  110MOL0     H14838   5.046   9.873   9.152  0.5151  2.9974 -3.3143
  110MOL0     H14839   5.129  10.088   9.085  1.3213 -0.8935 -0.7527
  110MOL0     H14840   5.391  10.350   9.051 -0.9334  1.2540 -0.9712
  110MOL0     H14841   5.273  10.217   9.004 -3.3702 -0.7452  2.0083
  110MOL0     H14842   5.232  10.445   9.211  1.1969 -1.4073  0.3249
  110MOL0     H14843   5.108  10.316   9.153  0.2460 -0.6217 -0.0814
  110MOL0     H14844   5.101  10.389   8.936  0.9321  0.9618 -0.3236
  110MOL0     H14845   5.191  10.530   8.957  1.3442 -2.4709 -2.7480
  110MOL0     H14846   5.020  10.609   9.138 -1.2038  1.2335 -0.4984
  110MOL0     H14847   4.928  10.454   9.110  1.5935 -1.6547 -1.1999
  110MOL0     H14848   4.879  10.693   8.753  0.3134 -2.5323 -1.9242
  110MOL0     H14849   5.424  10.085   9.391  0.6196  0.1456  0.4401
  110MOL0     H14850   5.335   9.861   9.477 -0.5136 -0.1624  0.4478
  111MOL0     O14851   8.032  11.344  10.990 -0.1115  0.7957  0.7389
  111MOL0     C14852   8.025  11.463  11.006 -0.5831  0.0951  0.4229
  111MOL0     O14853   8.087  11.525  11.109  0.0321  0.2949 -0.3928
  111MOL0     C14854   8.147  11.459  11.212  0.4474 -0.2481 -0.0005
  111MOL0     C14855   8.270  11.513  11.250 -0.0597  0.0786  0.8990
  111MOL0     C14856   8.326  11.481  11.371 -0.6672 -0.4139  0.6320
  111MOL0     C14857   8.281  11.369  11.436  0.3114 -0.2684  0.3454
  111MOL0     O14858   8.348  11.336  11.550  0.1614 -0.3164 -0.0151
  111MOL0     C14859   8.283  11.238  11.636  1.1428  0.6359  0.7848
  111MOL0     C14860   8.353  11.256  11.765  0.0852 -0.4939  0.8102
  111MOL0     C14861   8.308  11.169  11.893  0.0585 -0.3687  0.0634
  111MOL0     C14862   8.314  11.021  11.867 -0.5972 -0.2406 -0.0741
  111MOL0     C14863   8.456  10.963  11.826 -0.4766  0.7016  0.4529
  111MOL0     C14864   8.447  10.813  11.781  0.3852 -0.4082 -0.1909
  111MOL0     C14865   8.435  10.712  11.895 -1.6171 -1.1356  0.6675
  111MOL0     C14866   8.581  10.672  11.945 -0.6387  0.9858 -0.0616
  111MOL0     N14867   8.665  10.609  11.834  0.2608 -0.4362 -0.3109
  111MOL0     C14868   8.626  10.502  11.754 -0.9150  0.8630 -0.0420
  111MOL0     C14869   8.724  10.480  11.669 -0.0602 -0.3151  0.4384
  111MOL0     C14870   8.736  10.368  11.574  0.7986  0.2308 -0.1686
  111MOL0     C14871   8.673  10.234  11.627 -0.7617  0.0236 -0.5081
  111MOL0     C14872   8.778  10.125  11.679 -0.0005 -0.1395  0.5875
  111MOL0     C14873   8.799  10.126  11.827 -1.7241  0.3545  0.4765
  111MOL0     O14874   8.690  10.054  11.880 -0.0816 -0.3304  0.0314
  111MOL0     C14875   8.650  10.105  11.997  0.4123 -0.2950 -0.3084
  111MOL0     C14876   8.655  10.007  12.103  0.3527  0.4207 -0.0867
  111MOL0     C14877   8.636  10.040  12.239 -0.4097 -0.2412  0.0102
  111MOL0     C14878   8.681   9.957  12.353  0.2386 -0.1488  0.7612
  111MOL0     C14879   8.593  10.178  12.257 -0.0835  0.7686  0.3390
  111MOL0     C14880   8.540  10.219  12.384  0.9328  0.8022 -0.3197
  111MOL0     O14881   8.597  10.333  12.436  0.5817  0.2211 -0.5038
  111MOL0     C14882   8.582  10.369  12.566 -0.3148 -0.5218  0.0183
  111MOL0     C14883   8.516  10.490  12.584  0.5429 -0.3009 -0.0617
  111MOL0     C14884   8.488  10.540  12.712 -0.0519 -0.9426 -0.8014
  111MOL0     C14885   8.534  10.471  12.826  0.1449  0.3104  0.2090
  111MOL0     O14886   8.519  10.503  12.954  0.0760  0.3944  0.5862
  111MOL0     C14887   8.440  10.622  12.995  0.2324  0.2772  0.0241
  111MOL0     C14888   8.461  10.621  13.149 -0.5325 -0.3149 -0.6370
  111MOL0     C14889   8.352  10.701  13.219  0.8763 -0.8578  0.1760
  111MOL0     C14890   8.392  10.757  13.355 -0.4642  0.4078 -0.0121
  111MOL0     C14891   8.286  10.854  13.404 -0.4157  0.0398  1.0610
  111MOL0     C14892   8.315  10.998  13.365  0.8613  0.2284 -0.2774
  111MOL0     C14893   8.189  11.077  13.389 -0.2389 -0.2550 -1.0179
  111MOL0     C14894   8.213  11.228  13.373  0.0838 -0.4427  0.8940
  111MOL0    Cl14895   8.283  11.305  13.531  0.3056  0.5280  0.3550
  111MOL0     C14896   8.600  10.343  12.807 -0.9557 -0.3411  0.4171
  111MOL0     C14897   8.635  10.298  12.678  0.9772 -0.4975 -0.6814
  111MOL0     O14898   8.460  10.144  12.446  0.6550 -0.2835  0.2495
  111MOL0     C14899   8.565  10.269  12.147 -0.6439 -0.2253  0.2447
  111MOL0     C14900   8.591  10.229  12.019 -0.4679  0.1220  0.0971
  111MOL0     N14901   8.826  10.573  11.696 -0.1455 -0.2906 -0.8595
  111MOL0     N14902   8.784  10.656  11.785  0.2913  0.2011 -0.6325
  111MOL0     C14903   8.158  11.303  11.392  0.0445 -0.0974 -0.0937
  111MOL0     C14904   8.085  11.355  11.286  0.2457 -1.1024  0.0526
  111MOL0     C14905   7.949  11.542  10.910  0.2519  0.3841  0.4360
  111MOL0     C14906   7.945  11.688  10.912 -0.3579  0.1729  0.3754
  111MOL0     C14907   7.877  11.762  10.815  0.3388  0.4185  0.3165
  111MOL0     C14908   7.802  11.697  10.717 -0.6600  1.4309  0.0662
  111MOL0     O14909   7.742  11.775  10.619 -0.0204  0.7928  0.0569
  111MOL0     C14910   7.700  11.703  10.497 -0.2516 -0.7488  1.0692
  111MOL0     C14911   7.612  11.791  10.422 -0.5261 -1.0817 -0.1388
  111MOL0     C14912   7.582  11.743  10.273  0.4004  0.3582 -0.2516
  111MOL0     C14913   7.501  11.840  10.200  0.9827 -0.5268  1.3166
  111MOL0     C14914   7.366  11.873  10.256  0.7232  0.1405  0.3643
  111MOL0     C14915   7.253  11.895  10.295 -0.4726 -1.4076  0.8681
  111MOL0     C14916   7.807  11.553  10.710 -0.8603 -1.3368  0.6611
  111MOL0     C14917   7.879  11.481  10.801  0.6325  0.1460 -1.4495
  111MOL0     H14918   8.325  11.583  11.188 -0.6316 -0.7027 -0.5385
  111MOL0     H14919   8.421  11.527  11.398 -0.5977  1.8004 -2.7409
  111MOL0     H14920   8.177  11.259  11.650  0.0951 -2.3896 -1.5615
  111MOL0     H14921   8.301  11.135  11.606 -2.7015 -0.5177  2.0050
  111MOL0     H14922   8.458  11.233  11.746  0.4328  1.8326 -0.4852
  111MOL0     H14923   8.344  11.363  11.786 -1.0338 -0.5715  0.7928
  111MOL0     H14924   8.365  11.203  11.980 -4.2045 -2.6854  4.1838
  111MOL0     H14925   8.206  11.200  11.915  0.7397  1.5328  0.8006
  111MOL0     H14926   8.286  10.968  11.959  1.7433  0.2685  0.9951
  111MOL0     H14927   8.237  10.998  11.793 -0.5785 -1.9758  0.3927
  111MOL0     H14928   8.499  11.018  11.742 -3.2336  0.0033 -1.5676
  111MOL0     H14929   8.526  10.969  11.911 -0.5133  3.0813  0.3925
  111MOL0     H14930   8.366  10.791  11.711  0.4570 -0.5588 -0.2280
  111MOL0     H14931   8.542  10.798  11.728  0.3940  2.0596 -0.9965
  111MOL0     H14932   8.375  10.748  11.980 -3.1264 -0.3146 -0.6777
  111MOL0     H14933   8.393  10.618  11.858  0.2796 -0.7741 -2.8120
  111MOL0     H14934   8.584  10.603  12.030  1.8398  0.9407 -0.1226
  111MOL0     H14935   8.635  10.760  11.982 -0.9051  0.8770  0.6056
  111MOL0     H14936   8.538  10.439  11.767 -1.0877  0.8654 -1.1663
  111MOL0     H14937   8.677  10.400  11.488 -1.0694 -2.3895  0.0226
  111MOL0     H14938   8.842  10.363  11.549  1.0796  2.2220  0.3782
  111MOL0     H14939   8.618  10.189  11.544 -0.8036 -1.9132  0.5219
  111MOL0     H14940   8.601  10.258  11.705  3.6642  1.0076  3.7937
  111MOL0     H14941   8.879  10.136  11.639  0.6641  1.5238  2.5688
  111MOL0     H14942   8.736  10.028  11.651 -0.6011 -0.2714  1.8975
  111MOL0     H14943   8.804  10.233  11.849  2.3856  0.3999  0.1472
  111MOL0     H14944   8.881  10.055  11.846 -3.5962 -2.2571 -0.6429
  111MOL0     H14945   8.683   9.906  12.077  0.6318  0.7250 -1.0060
  111MOL0     H14946   8.596   9.946  12.422  0.7746 -0.1663  1.4269
  111MOL0     H14947   8.706   9.855  12.322  3.1594 -0.0261  2.4167
  111MOL0     H14948   8.772   9.998  12.397  0.2277  0.6735  0.0308
  111MOL0     H14949   8.504  10.546  12.492 -0.1508 -2.2734 -1.2376
  111MOL0     H14950   8.436  10.635  12.718  2.3197  0.4154 -0.5978
  111MOL0     H14951   8.481  10.715  12.955  2.4674  0.6419  2.8461
  111MOL0     H14952   8.336  10.622  12.963  0.6340  3.3852 -1.6348
  111MOL0     H14953   8.472  10.523  13.197 -1.4702 -0.7472 -1.2697
  111MOL0     H14954   8.562  10.663  13.158 -0.9613  0.3864  1.6615
  111MOL0     H14955   8.250  10.663  13.229  0.0986  1.4437  2.2520
  111MOL0     H14956   8.327  10.786  13.154  0.8541 -2.3574 -1.8524
  111MOL0     H14957   8.395  10.670  13.422  1.3758  1.1252  0.8927
  111MOL0     H14958   8.489  10.808  13.353 -0.6874  0.9874  1.7846
  111MOL0     H14959   8.293  10.853  13.513 -0.0829 -2.2063  1.0728
  111MOL0     H14960   8.186  10.818  13.376  0.3721 -0.4012 -1.4676
  111MOL0     H14961   8.403  11.033  13.420  1.3267 -0.6920 -0.4219
  111MOL0     H14962   8.342  11.005  13.260  0.7785  1.9295 -0.2275
  111MOL0     H14963   8.161  11.058  13.493 -0.9052  0.6874 -1.0146
  111MOL0     H14964   8.112  11.034  13.325  1.2519 -1.3725 -2.1630
  111MOL0     H14965   8.124  11.291  13.364 -0.4768 -1.2303  0.8121
  111MOL0     H14966   8.279  11.251  13.289  3.0140  1.3556  3.4646
  111MOL0     H14967   8.631  10.290  12.897  0.0312 -0.7149 -0.1261
  111MOL0     H14968   8.688  10.203  12.679  2.2887  0.2125  1.1132
  111MOL0     H14969   8.513  10.361  12.168 -5.5738 -2.0234 -2.4296
  111MOL0     H14970   8.562  10.291  11.935  0.8448  0.8124  0.1365
  111MOL0     H14971   8.099  11.231  11.447 -0.6838  1.3008  1.0371
  111MOL0     H14972   7.988  11.332  11.244  0.9242 -3.1805 -0.5033
  111MOL0     H14973   7.982  11.740  11.000 -0.6773 -0.4229  0.8681
  111MOL0     H14974   7.865  11.869  10.824 -1.3527  0.2091  0.8016
  111MOL0     H14975   7.793  11.670  10.449 -0.3035 -2.7798  2.2683
  111MOL0     H14976   7.639  11.619  10.532 -2.1254 -0.0177 -0.2730
  111MOL0     H14977   7.676  11.878  10.407  0.2139 -1.8050 -1.4034
  111MOL0     H14978   7.523  11.817  10.481  2.4300  0.7513  3.9736
  111MOL0     H14979   7.546  11.639  10.276  0.5186  0.2891 -1.0429
  111MOL0     H14980   7.672  11.744  10.212  1.9403 -0.0517  1.9003
  111MOL0     H14981   7.479  11.818  10.095 -3.0790  1.1299  1.6115
  111MOL0     H14982   7.554  11.935  10.214  0.2791 -0.2495  2.2192
  111MOL0     H14983   7.151  11.905  10.328 -1.2127  0.9708 -1.7646
  111MOL0     H14984   7.768  11.505  10.621 -0.9125  2.4684 -1.6415
  111MOL0     H14985   7.885  11.373  10.806 -2.2822 -0.0420  1.1748
  112MOL0     O14986   3.064  11.008   0.303 -0.3415 -0.6562  0.0396
  112MOL0     C14987   3.157  11.071   0.252  0.0625 -0.5133 -0.5929
  112MOL0     O14988   3.281  11.020   0.226  0.3284 -0.8826  0.2796
  112MOL0     C14989   3.309  10.889   0.240 -1.0167  0.1424 -0.1150
  112MOL0     C14990   3.435  10.843   0.192  0.1403  0.0862  0.2334
  112MOL0     C14991   3.477  10.705   0.212 -0.2402  0.1029  0.4404
  112MOL0     C14992   3.402  10.611   0.288 -0.3827 -0.2309 -0.3429
  112MOL0     O14993   3.426  10.474   0.303  0.7648 -0.3535 -0.2104
  112MOL0     C14994   3.435  10.410   0.175 -0.1904  0.4540 -0.2834
  112MOL0     C14995   3.449  10.260   0.193 -0.8739  0.2935  0.0063
  112MOL0     C14996   3.475  10.197   0.049 -0.1818 -0.7283  0.1662
  112MOL0     C14997   3.535  10.056   0.068 -0.0342  0.0713 -0.2450
  112MOL0     C14998   3.589   9.988  -0.057 -0.4204 -0.2455 -0.1395
  112MOL0     C14999   3.650   9.842  -0.035 -0.3594 -0.0266  0.3994
  112MOL0     C15000   3.687   9.762  -0.160 -0.3987 -0.6115  0.6877
  112MOL0     C15001   3.697   9.613  -0.139  0.0286 -0.1625 -0.4626
  112MOL0     N15002   3.725   9.549  -0.262 -0.4035 -0.9713  0.1480
  112MOL0     C15003   3.710   9.419  -0.277 -0.2990  0.5029  1.1174
  112MOL0     C15004   3.760   9.396  -0.403  0.5238  0.2076  0.6011
  112MOL0     C15005   3.784   9.261  -0.450  0.1333 -0.3193 -1.0201
  112MOL0     C15006   3.682   9.198  -0.545 -0.1759  0.0872 -0.5637
  112MOL0     C15007   3.635   9.302  -0.650 -0.0342  1.2451  0.2160
  112MOL0     C15008   3.523   9.233  -0.737 -0.1784 -0.3655  1.0752
  112MOL0     O15009   3.486   9.315  -0.848 -0.2856  0.3543  0.0581
  112MOL0     C15010   3.550   9.289  -0.973 -0.1197 -0.8011  0.2532
  112MOL0     C15011   3.681   9.323  -0.987  0.0880  0.7482 -0.2842
  112MOL0     C15012   3.758   9.275  -1.091  0.4573 -0.2384  0.2590
  112MOL0     C15013   3.896   9.323  -1.097 -0.5657  0.7910  0.1918
  112MOL0     C15014   3.706   9.175  -1.180 -0.4477  0.7914  0.3475
  112MOL0     C15015   3.787   9.092  -1.278  0.7324 -0.4262  0.4360
  112MOL0     O15016   3.734   8.975  -1.318  0.1977 -0.0230 -0.2305
  112MOL0     C15017   3.703   8.954  -1.444 -0.0153  0.0342 -0.1476
  112MOL0     C15018   3.797   8.904  -1.539  0.4381 -0.9706  0.2415
  112MOL0     C15019   3.756   8.868  -1.670  0.3675  0.2553 -0.5417
  112MOL0     C15020   3.623   8.870  -1.703 -0.7708 -0.7077 -0.0904
  112MOL0     O15021   3.578   8.834  -1.827  0.1075 -0.6394 -0.6336
  112MOL0     C15022   3.652   8.884  -1.941  0.1770 -1.3049  0.3216
  112MOL0     C15023   3.601   9.022  -1.996 -0.5647  0.6722 -1.2240
  112MOL0     C15024   3.463   9.025  -2.061 -0.9111  0.4574 -0.2389
  112MOL0     C15025   3.424   9.178  -2.086  0.7428 -0.0033 -0.0455
  112MOL0     C15026   3.475   9.234  -2.217 -0.7629 -0.1461 -0.4955
  112MOL0     C15027   3.513   9.388  -2.220 -0.0374  0.3722 -0.5005
  112MOL0     C15028   3.614   9.454  -2.119  0.7270  0.2238  0.6822
  112MOL0     C15029   3.596   9.612  -2.110 -0.0274  0.5184 -0.2647
  112MOL0    Cl15030   3.625   9.700  -2.271  0.3732  0.4657  0.1470
  112MOL0     C15031   3.532   8.907  -1.612 -0.5451  0.0927 -0.1585
  112MOL0     C15032   3.569   8.951  -1.489  0.2269  0.4671 -0.1291
  112MOL0     O15033   3.878   9.153  -1.337  0.1768  0.5477 -0.8948
  112MOL0     C15034   3.574   9.149  -1.163  0.5198  0.8698  0.1945
  112MOL0     C15035   3.493   9.197  -1.062 -0.3169 -0.0478  0.2721
  112MOL0     N15036   3.793   9.518  -0.460  0.1101 -1.1014  0.4927
  112MOL0     N15037   3.783   9.608  -0.374  0.2071 -0.4839  1.0615
  112MOL0     C15038   3.276  10.653   0.327 -0.7573 -0.4318 -0.8697
  112MOL0     C15039   3.236  10.790   0.316 -0.3145 -0.0721 -0.8683
  112MOL0     C15040   3.141  11.212   0.234  0.0251 -0.2615  0.4276
  112MOL0     C15041   3.019  11.278   0.265  0.3743  0.1198 -0.2057
  112MOL0     C15042   3.008  11.415   0.243 -0.0694  0.9620  0.0547
  112MOL0     C15043   3.117  11.486   0.189 -0.5385 -0.7992  0.0059
  112MOL0     O15044   3.123  11.619   0.144  0.4765 -0.0348 -0.4795
  112MOL0     C15045   3.006  11.682   0.114  0.2914 -0.4195  0.1513
  112MOL0     C15046   3.015  11.819   0.032 -0.1849 -0.1182 -1.8050
  112MOL0     C15047   3.087  11.931   0.110  0.8362  1.4508  0.1793
  112MOL0     C15048   3.226  11.921   0.134 -1.1626  0.9345  0.4263
  112MOL0     C15049   3.283  12.052   0.177  0.2254 -0.4936 -0.5387
  112MOL0     C15050   3.304  12.166   0.218 -0.2034  0.3763 -0.2134
  112MOL0     C15051   3.230  11.414   0.148 -0.1692 -0.2245  0.4145
  112MOL0     C15052   3.242  11.280   0.165 -0.6037  0.2641 -0.2384
  112MOL0     H15053   3.487  10.915   0.129 -0.4111  0.9411  0.7395
  112MOL0     H15054   3.559  10.659   0.158  0.0510 -1.2476  1.9627
  112MOL0     H15055   3.356  10.434   0.103 -1.7314  0.1745  1.2376
  112MOL0     H15056   3.532  10.445   0.137  0.1422  0.8209  0.8674
  112MOL0     H15057   3.520  10.242   0.275 -1.9007 -1.5580  0.5388
  112MOL0     H15058   3.355  10.219   0.230 -1.7843  1.1207 -1.3181
  112MOL0     H15059   3.380  10.186  -0.005  1.4661  4.2681 -4.6191
  112MOL0     H15060   3.541  10.271   0.004 -0.5784 -1.4494 -1.6936
  112MOL0     H15061   3.610  10.055   0.147 -1.4226 -4.8498  1.3802
  112MOL0     H15062   3.459   9.985   0.103 -1.8793 -0.3111 -4.4299
  112MOL0     H15063   3.511   9.993  -0.133 -1.0708  2.5902  0.5967
  112MOL0     H15064   3.664  10.055  -0.100  0.3862 -0.9355  0.1624
  112MOL0     H15065   3.742   9.843   0.024  1.0068 -2.2207 -1.5203
  112MOL0     H15066   3.571   9.785   0.015  0.6672 -3.4644 -1.5889
  112MOL0     H15067   3.618   9.782  -0.242 -1.8812  1.1014  2.2584
  112MOL0     H15068   3.781   9.797  -0.204 -0.2407  0.6174  1.9234
  112MOL0     H15069   3.603   9.576  -0.099  0.8500  1.0197  2.8863
  112MOL0     H15070   3.773   9.573  -0.071  0.4749 -4.2453 -3.0444
  112MOL0     H15071   3.687   9.342  -0.204  1.3899  0.6473  1.8625
  112MOL0     H15072   3.883   9.263  -0.496  1.5938 -0.5674  1.9502
  112MOL0     H15073   3.794   9.194  -0.365 -1.7970 -1.0697 -1.3217
  112MOL0     H15074   3.596   9.168  -0.485  0.9090 -1.6396  0.2198
  112MOL0     H15075   3.731   9.114  -0.595  0.4917 -0.0029  0.2188
  112MOL0     H15076   3.724   9.307  -0.712  0.2534 -2.2505  0.2004
  112MOL0     H15077   3.604   9.397  -0.603  0.2329  2.3244 -1.6990
  112MOL0     H15078   3.432   9.224  -0.676 -1.0380  1.1916  0.0918
  112MOL0     H15079   3.561   9.136  -0.769  0.9962  0.2711  0.4548
  112MOL0     H15080   3.726   9.391  -0.914  0.0057  0.6097 -0.1046
  112MOL0     H15081   3.963   9.237  -1.105 -0.6058  0.7942 -0.1724
  112MOL0     H15082   3.911   9.388  -1.183 -0.9490  1.5369  0.6783
  112MOL0     H15083   3.924   9.370  -1.001 -0.4919 -2.3609  1.8559
  112MOL0     H15084   3.902   8.891  -1.515  1.3364  3.5630 -0.2933
  112MOL0     H15085   3.825   8.844  -1.750  0.1268  1.8874 -1.2775
  112MOL0     H15086   3.760   8.891  -1.932  0.5890 -5.3745  0.7245
  112MOL0     H15087   3.639   8.815  -2.025  1.4202  0.9285 -1.8127
  112MOL0     H15088   3.593   9.085  -1.907  5.6092 -1.9752  1.8318
  112MOL0     H15089   3.682   9.066  -2.055  1.9880  0.1808  1.6147
  112MOL0     H15090   3.392   8.969  -2.000 -2.0839 -1.2315 -3.0097
  112MOL0     H15091   3.456   8.970  -2.155  1.2531 -0.0862 -0.1402
  112MOL0     H15092   3.319   9.201  -2.068  0.8736 -0.2344  1.0925
  112MOL0     H15093   3.477   9.240  -2.013 -1.3912  2.1590 -0.1978
  112MOL0     H15094   3.398   9.217  -2.293 -1.3576  2.5777 -0.5934
  112MOL0     H15095   3.564   9.176  -2.243 -0.4047 -0.5567  1.4592
  112MOL0     H15096   3.543   9.420  -2.320  0.6827  3.8207  0.6873
  112MOL0     H15097   3.414   9.434  -2.212 -0.7023 -1.1718  0.7801
  112MOL0     H15098   3.715   9.428  -2.151 -0.2437 -1.2220 -1.5100
  112MOL0     H15099   3.610   9.407  -2.021  2.2858  0.5028  0.8885
  112MOL0     H15100   3.669   9.650  -2.038  0.9018 -2.6673  0.5999
  112MOL0     H15101   3.494   9.635  -2.076  0.4566 -1.5750  3.1081
  112MOL0     H15102   3.427   8.917  -1.636 -0.4546 -1.3237 -1.2807
  112MOL0     H15103   3.494   8.990  -1.421 -0.0281 -0.6905  0.2765
  112MOL0     H15104   3.529   9.087  -1.240  1.5138  1.4827 -0.9033
  112MOL0     H15105   3.393   9.161  -1.042  1.0868 -4.2548  0.7835
  112MOL0     H15106   3.213  10.588   0.387  2.8383  0.3315  4.3763
  112MOL0     H15107   3.145  10.803   0.374 -1.3195 -1.2141 -2.1219
  112MOL0     H15108   2.939  11.221   0.310 -1.2100  0.7190 -2.1198
  112MOL0     H15109   2.912  11.457   0.270 -0.6100 -0.6445  0.7027
  112MOL0     H15110   2.933  11.616   0.067  1.1622 -0.9307 -0.5122
  112MOL0     H15111   2.960  11.712   0.209 -1.3233  1.0048 -1.0171
  112MOL0     H15112   2.913  11.857   0.026  0.0489  1.5431  1.8179
  112MOL0     H15113   3.067  11.803  -0.063  3.4925 -1.3652  0.1889
  112MOL0     H15114   3.040  11.934   0.209 -2.1385 -0.9238 -0.9847
  112MOL0     H15115   3.069  12.020   0.049  2.0721  1.2070 -0.5902
  112MOL0     H15116   3.268  11.880   0.042 -1.0929 -1.7472  1.5465
  112MOL0     H15117   3.240  11.840   0.207  4.2907  0.1689 -1.0215
  112MOL0     H15118   3.336  12.262   0.254 -1.9039  0.8285  0.2012
  112MOL0     H15119   3.310  11.471   0.102  1.1286 -0.5515  2.1749
  112MOL0     H15120   3.329  11.232   0.122  0.2470  1.0535  0.5488
  113MOL0     O15121   1.566   8.196   6.382  0.1473 -0.4445 -0.5167
  113MOL0     C15122   1.483   8.274   6.419 -0.0008 -0.9494 -0.2030
  113MOL0     O15123   1.419   8.373   6.346  0.4241  0.6000 -0.3155
  113MOL0     C15124   1.415   8.369   6.219 -1.1975  0.0059  1.2059
  113MOL0     C15125   1.396   8.249   6.144 -1.1634  0.8807 -0.4657
  113MOL0     C15126   1.394   8.251   6.010  0.6652 -0.7216  0.4116
  113MOL0     C15127   1.405   8.368   5.937  0.0910 -0.8084  0.2216
  113MOL0     O15128   1.384   8.339   5.803  0.2448 -0.9756 -0.3524
  113MOL0     C15129   1.354   8.442   5.703  0.8323  0.2274 -0.5384
  113MOL0     C15130   1.471   8.517   5.640 -0.3900  0.3319  0.0039
  113MOL0     C15131   1.423   8.608   5.526 -0.5381  0.3635 -0.0999
  113MOL0     C15132   1.528   8.710   5.477  0.2182  0.4071  0.0709
  113MOL0     C15133   1.474   8.803   5.371 -0.5159  0.0025 -1.0895
  113MOL0     C15134   1.486   8.733   5.239  0.5814  0.4574  0.0082
  113MOL0     C15135   1.372   8.787   5.145  0.1164 -0.1003 -0.1053
  113MOL0     C15136   1.418   8.926   5.090  0.5758 -0.2923 -0.7793
  113MOL0     N15137   1.303   9.009   5.053 -0.3634 -0.6364 -0.5147
  113MOL0     C15138   1.228   8.980   4.945  0.1680  0.4622 -0.3617
  113MOL0     C15139   1.100   9.034   4.955 -0.2635 -0.8700  0.4697
  113MOL0     C15140   0.980   9.014   4.861  0.2712  0.2212 -0.1850
  113MOL0     C15141   0.913   8.878   4.890  0.1848 -0.3513 -0.1830
  113MOL0     C15142   0.786   8.856   4.802 -1.0394  0.3889  0.3327
  113MOL0     C15143   0.811   8.840   4.653  0.5876 -0.2938 -0.2902
  113MOL0     O15144   0.918   8.751   4.634 -0.4032 -0.1387  0.0974
  113MOL0     C15145   0.927   8.695   4.515 -0.0178 -0.5073 -0.3828
  113MOL0     C15146   0.860   8.577   4.477  0.8628 -0.0965  0.8984
  113MOL0     C15147   0.887   8.517   4.347  1.4020 -0.3864  1.3092
  113MOL0     C15148   0.799   8.392   4.338  0.4587 -1.2179  1.0303
  113MOL0     C15149   0.956   8.587   4.251 -0.0412  0.3121 -0.1101
  113MOL0     C15150   0.966   8.533   4.107  0.2971 -0.3294  0.2590
  113MOL0     O15151   0.867   8.449   4.056  0.4873 -0.5172 -0.0961
  113MOL0     C15152   0.883   8.352   3.969  0.8271 -0.1976  1.2472
  113MOL0     C15153   0.765   8.274   3.941  0.8161  0.3402 -0.4839
  113MOL0     C15154   0.764   8.161   3.856 -1.1222  0.3509 -0.1686
  113MOL0     C15155   0.874   8.139   3.775 -0.4066  0.9607  0.0016
  113MOL0     O15156   0.858   8.049   3.672  0.2195  0.3622 -1.0377
  113MOL0     C15157   0.783   8.105   3.566  0.5015 -0.6036 -0.0948
  113MOL0     C15158   0.764   7.985   3.469  0.6186  0.8046  0.2649
  113MOL0     C15159   0.887   7.933   3.403  0.0023 -1.4750 -0.1204
  113MOL0     C15160   0.964   7.835   3.492  0.1100  0.8818  0.2595
  113MOL0     C15161   1.106   7.812   3.439  0.7708 -0.7997 -0.1334
  113MOL0     C15162   1.202   7.750   3.530 -0.1200 -0.6945 -0.2454
  113MOL0     C15163   1.351   7.761   3.484  0.9436  0.7943  0.7888
  113MOL0     C15164   1.443   7.634   3.493 -0.1663 -0.0017  1.3501
  113MOL0    Cl15165   1.490   7.578   3.658 -0.0784  0.0293  0.1636
  113MOL0     C15166   0.992   8.210   3.795 -0.1100  0.0353  0.1180
  113MOL0     C15167   0.997   8.316   3.892 -0.1306  0.1858  0.1138
  113MOL0     O15168   1.068   8.563   4.049 -0.2344 -0.1767  0.0942
  113MOL0     C15169   1.015   8.708   4.289  0.2392 -0.7623  0.2728
  113MOL0     C15170   1.005   8.755   4.419 -0.4757 -0.1064 -0.1773
  113MOL0     N15171   1.104   9.100   5.077 -0.4591 -0.3148  0.3257
  113MOL0     N15172   1.225   9.091   5.130 -0.0336  0.4069 -0.6426
  113MOL0     C15173   1.429   8.487   5.996 -0.0781 -0.2827 -0.6878
  113MOL0     C15174   1.432   8.485   6.137 -0.0597  0.1337 -0.7794
  113MOL0     C15175   1.456   8.265   6.570  0.0346  0.4479 -0.2648
  113MOL0     C15176   1.491   8.164   6.646  0.4647  0.5505 -0.2210
  113MOL0     C15177   1.473   8.162   6.786 -0.1471  0.6679 -0.2470
  113MOL0     C15178   1.425   8.270   6.851 -0.5681 -0.9764  0.8375
  113MOL0     O15179   1.421   8.287   6.990 -0.2499  0.9651 -0.0941
  113MOL0     C15180   1.517   8.231   7.085 -1.4716 -0.3776  0.0192
  113MOL0     C15181   1.607   8.336   7.147 -1.6260 -0.0572  0.6264
  113MOL0     C15182   1.722   8.269   7.231  0.0334  0.2080  0.3281
  113MOL0     C15183   1.827   8.371   7.265 -0.6953  1.4496 -0.0763
  113MOL0     C15184   1.959   8.315   7.315  0.6830 -0.1605 -0.4986
  113MOL0     C15185   2.065   8.265   7.350 -0.2072  0.1069 -0.5539
  113MOL0     C15186   1.380   8.378   6.776  0.3200 -0.2977  0.3151
  113MOL0     C15187   1.402   8.377   6.634 -0.0603 -0.2675  0.2889
  113MOL0     H15188   1.394   8.154   6.196  2.4276  1.4649  1.0771
  113MOL0     H15189   1.385   8.158   5.955 -1.0127 -0.5429  0.3268
  113MOL0     H15190   1.306   8.389   5.620  0.9868 -0.1095 -0.4160
  113MOL0     H15191   1.273   8.507   5.738 -2.2143 -2.9475 -1.1223
  113MOL0     H15192   1.505   8.581   5.722 -1.8195 -1.2928  1.9652
  113MOL0     H15193   1.556   8.461   5.603  0.3471  2.7118 -2.2207
  113MOL0     H15194   1.405   8.537   5.444 -2.9754 -2.4098  2.5677
  113MOL0     H15195   1.327   8.657   5.544 -1.7847 -2.1820  0.6514
  113MOL0     H15196   1.560   8.781   5.555  3.3564 -0.3776 -0.3719
  113MOL0     H15197   1.615   8.655   5.442 -0.0489 -0.2470  0.4161
  113MOL0     H15198   1.377   8.842   5.405  1.8790  2.2597  4.3765
  113MOL0     H15199   1.534   8.895   5.369 -1.0264  0.3888  0.2667
  113MOL0     H15200   1.581   8.737   5.185 -0.1459  0.6277 -1.3026
  113MOL0     H15201   1.462   8.627   5.254  1.1677  0.2615 -0.4141
  113MOL0     H15202   1.350   8.713   5.067 -1.6493  3.9319 -3.8096
  113MOL0     H15203   1.276   8.799   5.196  1.0513 -3.0727  2.7004
  113MOL0     H15204   1.494   8.916   5.011  2.7385  2.1209  0.8340
  113MOL0     H15205   1.470   8.985   5.166 -1.6740 -0.5004  1.0139
  113MOL0     H15206   1.259   8.908   4.870 -2.3459  0.0825 -1.1310
  113MOL0     H15207   0.910   9.094   4.887  0.6269  0.1810  0.9681
  113MOL0     H15208   1.017   9.026   4.759  2.1678 -0.1822  0.4211
  113MOL0     H15209   0.888   8.876   4.997  3.9493 -0.7059  0.8276
  113MOL0     H15210   0.982   8.796   4.873  1.6673  1.1589 -1.9163
  113MOL0     H15211   0.717   8.937   4.825 -1.6103 -0.1887  0.7027
  113MOL0     H15212   0.739   8.765   4.842 -2.1972  0.5257 -0.6451
  113MOL0     H15213   0.848   8.930   4.602 -1.2521  0.2928 -0.6620
  113MOL0     H15214   0.717   8.805   4.611  0.0921  1.9808 -1.2385
  113MOL0     H15215   0.802   8.525   4.553 -3.3813  0.3460 -1.7340
  113MOL0     H15216   0.695   8.426   4.343  0.5311 -0.6353 -0.7136
  113MOL0     H15217   0.814   8.332   4.248 -4.1303 -0.2133 -0.6704
  113MOL0     H15218   0.812   8.340   4.433 -2.6471  1.7031  3.2982
  113MOL0     H15219   0.674   8.303   3.992  1.7309  3.6484 -0.5587
  113MOL0     H15220   0.669   8.109   3.847 -1.0080  0.4983 -2.8735
  113MOL0     H15221   0.683   8.133   3.602  1.2581 -0.0706  1.7714
  113MOL0     H15222   0.837   8.191   3.525 -0.2689 -0.9738 -1.9445
  113MOL0     H15223   0.716   7.901   3.520  3.0491 -0.3958  0.7330
  113MOL0     H15224   0.692   8.018   3.394 -1.4893 -2.7804  0.4808
  113MOL0     H15225   0.947   8.021   3.377  0.5467 -1.5983  0.6971
  113MOL0     H15226   0.866   7.881   3.309  3.7810  1.1980 -2.7780
  113MOL0     H15227   0.979   7.871   3.594  0.6134  3.3359 -0.6283
  113MOL0     H15228   0.906   7.742   3.493  1.4488  0.0284  0.7752
  113MOL0     H15229   1.140   7.909   3.402 -1.6080  0.1010 -0.1908
  113MOL0     H15230   1.114   7.754   3.347  0.2381 -1.2111  0.0748
  113MOL0     H15231   1.196   7.815   3.617 -0.7787  0.1910 -0.9382
  113MOL0     H15232   1.175   7.645   3.544 -0.4318 -0.5371  0.3157
  113MOL0     H15233   1.390   7.851   3.532  0.7236  1.8271 -0.8888
  113MOL0     H15234   1.354   7.792   3.379 -0.6736 -2.3598 -0.3290
  113MOL0     H15235   1.528   7.663   3.430 -0.6554  1.1453  1.1827
  113MOL0     H15236   1.387   7.554   3.443  1.4128  0.4687 -1.3923
  113MOL0     H15237   1.082   8.183   3.742  1.2724  2.8478  0.8803
  113MOL0     H15238   1.089   8.371   3.911  0.2799 -0.5881  0.4401
  113MOL0     H15239   1.078   8.755   4.214 -0.7982  0.1058 -0.0897
  113MOL0     H15240   1.066   8.840   4.450  0.0450 -0.3639 -0.4677
  113MOL0     H15241   1.438   8.585   5.950  0.5145 -0.0829 -0.1658
  113MOL0     H15242   1.454   8.578   6.189  2.1292 -1.5262  1.5304
  113MOL0     H15243   1.552   8.089   6.597  1.2709  3.0353 -3.3575
  113MOL0     H15244   1.502   8.083   6.853  0.3174  1.6377  0.7300
  113MOL0     H15245   1.464   8.176   7.163 -1.4440 -0.6211 -0.1313
  113MOL0     H15246   1.586   8.164   7.032 -1.5736  0.7407 -1.5715
  113MOL0     H15247   1.541   8.388   7.217 -3.1967 -3.9612  2.2770
  113MOL0     H15248   1.637   8.396   7.060 -3.4352  3.1762  2.0490
  113MOL0     H15249   1.764   8.175   7.193 -1.6616 -1.0807  1.4995
  113MOL0     H15250   1.676   8.229   7.322  0.0482  1.2498  0.8004
  113MOL0     H15251   1.783   8.447   7.329  0.3088  1.5748  0.4850
  113MOL0     H15252   1.836   8.427   7.171 -2.8455 -0.1152 -1.3145
  113MOL0     H15253   2.169   8.247   7.366  0.1664  2.0388 -0.5441
  113MOL0     H15254   1.360   8.460   6.844 -0.1551 -0.5136  0.4383
  113MOL0     H15255   1.389   8.470   6.579  0.4133 -1.8562 -2.7764
  114MOL0     O15256   7.325   8.508   4.250  0.1746 -0.3003 -0.2265
  114MOL0     C15257   7.221   8.460   4.212  0.1970 -0.3276 -0.6846
  114MOL0     O15258   7.114   8.433   4.290  0.0902  0.2355  0.0404
  114MOL0     C15259   7.140   8.448   4.425 -0.1120 -0.0721  0.5563
  114MOL0     C15260   7.054   8.526   4.498 -0.8322 -0.6563  0.4958
  114MOL0     C15261   7.083   8.562   4.632 -0.3170  0.5673 -0.2183
  114MOL0     C15262   7.186   8.502   4.694 -0.3232 -0.3449  0.1828
  114MOL0     O15263   7.217   8.540   4.824 -0.1468 -0.4040  0.3684
  114MOL0     C15264   7.232   8.423   4.907 -0.0724 -0.1643 -1.3731
  114MOL0     C15265   7.263   8.469   5.055  0.3972  0.3237 -0.0848
  114MOL0     C15266   7.392   8.550   5.079 -0.0916 -0.1282  0.0152
  114MOL0     C15267   7.391   8.697   5.022  0.6970 -0.5363 -1.0014
  114MOL0     C15268   7.509   8.789   5.075  1.5579  0.0247 -0.4500
  114MOL0     C15269   7.646   8.735   5.038  0.0602 -0.2705  0.3810
  114MOL0     C15270   7.752   8.835   5.081  1.0611  0.4489 -0.3849
  114MOL0     C15271   7.779   8.819   5.230 -0.2050 -0.6640  0.0540
  114MOL0     N15272   7.882   8.910   5.288  0.1613 -0.2401  0.3625
  114MOL0     C15273   7.853   9.034   5.348  0.4870 -0.0849  0.6404
  114MOL0     C15274   7.936   9.056   5.448  0.5831  0.5899 -0.1250
  114MOL0     C15275   7.924   9.165   5.547  0.6013 -0.7534 -0.6584
  114MOL0     C15276   7.890   9.115   5.686  0.5890 -0.2768 -0.1956
  114MOL0     C15277   7.810   9.219   5.775 -0.3085  0.4591 -0.2083
  114MOL0     C15278   7.665   9.248   5.741  0.1613  0.1477 -0.2320
  114MOL0     O15279   7.665   9.353   5.638 -0.6564  0.8800 -0.4087
  114MOL0     C15280   7.564   9.349   5.546  0.1283 -0.5511  0.0584
  114MOL0     C15281   7.537   9.237   5.467 -0.1235  0.5367  0.1672
  114MOL0     C15282   7.431   9.227   5.380 -0.8171 -0.9943 -0.3234
  114MOL0     C15283   7.429   9.100   5.309  0.6207  0.1822 -0.2714
  114MOL0     C15284   7.347   9.335   5.359  0.0684 -0.2319  0.3668
  114MOL0     C15285   7.237   9.338   5.269  0.3886  0.7188  0.1031
  114MOL0     O15286   7.151   9.439   5.300  0.5601  1.1162  0.4224
  114MOL0     C15287   7.061   9.492   5.205 -0.7713 -0.6084 -0.3432
  114MOL0     C15288   6.995   9.410   5.111  0.8914 -0.0612  0.3501
  114MOL0     C15289   6.898   9.469   5.024 -0.2033  0.4401  1.7863
  114MOL0     C15290   6.862   9.608   5.036 -0.6655  1.0391 -0.0917
  114MOL0     O15291   6.769   9.671   4.956  1.0973 -0.0715 -0.2032
  114MOL0     C15292   6.761   9.624   4.825  0.1920 -1.0910  0.6241
  114MOL0     C15293   6.684   9.713   4.728  0.1901  0.8744  1.2468
  114MOL0     C15294   6.534   9.687   4.734  0.3564 -1.0654 -0.5166
  114MOL0     C15295   6.461   9.783   4.634 -0.1473  0.5628 -0.1328
  114MOL0     C15296   6.331   9.731   4.565 -0.9139 -0.0551  0.8457
  114MOL0     C15297   6.226   9.712   4.675  0.8147  1.2833  0.9076
  114MOL0     C15298   6.088   9.678   4.608  0.2278 -0.4984 -0.2343
  114MOL0     C15299   5.981   9.704   4.714  1.7195  0.4410 -0.4733
  114MOL0    Cl15300   5.969   9.570   4.839  0.2187  0.3466  0.4724
  114MOL0     C15301   6.911   9.685   5.143  0.5958  0.6738  0.7115
  114MOL0     C15302   7.011   9.630   5.219  0.3294  0.9600 -0.4402
  114MOL0     O15303   7.223   9.262   5.172  0.6717  0.8172 -0.9051
  114MOL0     C15304   7.390   9.456   5.419  0.6164 -0.7806 -0.5914
  114MOL0     C15305   7.483   9.454   5.528  0.6243 -0.7425  1.1188
  114MOL0     N15306   8.025   8.947   5.438 -0.5757 -0.1992 -0.6010
  114MOL0     N15307   7.999   8.866   5.341 -0.1273  0.6594  0.3664
  114MOL0     C15308   7.268   8.408   4.622 -0.4663  0.3809 -0.4526
  114MOL0     C15309   7.243   8.385   4.490  0.5265  0.0148  0.1488
  114MOL0     C15310   7.205   8.436   4.065  0.4796 -0.9563 -0.3203
  114MOL0     C15311   7.313   8.445   3.980  0.7198  0.1885  0.6422
  114MOL0     C15312   7.298   8.425   3.841 -0.6274 -0.4606  0.1679
  114MOL0     C15313   7.173   8.396   3.782 -0.4621 -0.9878  0.3140
  114MOL0     O15314   7.171   8.381   3.644  0.0445  0.4413  0.1101
  114MOL0     C15315   7.047   8.322   3.589  0.1101 -0.4083  0.3679
  114MOL0     C15316   7.074   8.241   3.461  0.4382  0.5804 -0.5717
  114MOL0     C15317   7.113   8.348   3.355  0.0827 -0.5129  0.7718
  114MOL0     C15318   7.103   8.304   3.215  0.4429  0.8241  0.2264
  114MOL0     C15319   7.179   8.399   3.134 -0.6685 -0.1948 -0.3118
  114MOL0     C15320   7.250   8.483   3.074  0.3443  0.8379 -0.3353
  114MOL0     C15321   7.068   8.375   3.871 -0.3199  0.5011  0.3452
  114MOL0     C15322   7.074   8.400   4.011 -1.0105  0.7492  0.6064
  114MOL0     H15323   6.972   8.569   4.440  0.6064  0.5575 -0.7173
  114MOL0     H15324   7.021   8.638   4.678 -2.3139  0.2103 -2.1410
  114MOL0     H15325   7.149   8.353   4.907  0.6710 -1.2332  2.3607
  114MOL0     H15326   7.321   8.369   4.873  2.2900  1.1475  2.0977
  114MOL0     H15327   7.179   8.523   5.100  0.3562 -0.4304  0.7577
  114MOL0     H15328   7.256   8.371   5.101  1.1645 -0.9872 -2.5826
  114MOL0     H15329   7.421   8.539   5.184 -2.0267 -0.6554  0.5439
  114MOL0     H15330   7.480   8.508   5.030 -0.3465 -0.0575 -0.5101
  114MOL0     H15331   7.388   8.702   4.913  1.2856 -1.2995 -1.0566
  114MOL0     H15332   7.298   8.738   5.063  1.5811  2.0687 -1.4053
  114MOL0     H15333   7.495   8.891   5.037 -2.9880  0.1076  0.7535
  114MOL0     H15334   7.490   8.804   5.182 -2.0909  0.3904 -1.0222
  114MOL0     H15335   7.664   8.637   5.083  2.6535  0.2317  0.6309
  114MOL0     H15336   7.655   8.724   4.930 -0.2425 -3.2060  0.5698
  114MOL0     H15337   7.852   8.814   5.040  0.4197 -2.1200 -0.7986
  114MOL0     H15338   7.716   8.936   5.060 -1.9977  0.0480  2.1949
  114MOL0     H15339   7.804   8.715   5.255  1.0857  0.3621  3.4613
  114MOL0     H15340   7.684   8.835   5.281  0.3976  0.9984  0.6987
  114MOL0     H15341   7.770   9.100   5.325  1.0008  1.6326  3.2339
  114MOL0     H15342   8.015   9.224   5.538  1.0769 -1.4159 -0.2859
  114MOL0     H15343   7.849   9.232   5.506  1.7025 -0.1863 -1.8108
  114MOL0     H15344   7.985   9.083   5.730 -0.5932 -2.8577  0.6794
  114MOL0     H15345   7.823   9.029   5.681  0.2729 -0.2647  2.3741
  114MOL0     H15346   7.876   9.306   5.766 -1.7236  1.8136  1.7046
  114MOL0     H15347   7.818   9.192   5.880 -0.8623  0.0383 -0.2696
  114MOL0     H15348   7.609   9.259   5.834 -1.9594  1.3569 -1.5873
  114MOL0     H15349   7.613   9.160   5.703 -1.2296  0.1278  1.5919
  114MOL0     H15350   7.604   9.152   5.478  0.7960  1.1490 -0.5674
  114MOL0     H15351   7.444   9.121   5.203  5.0996 -0.8582 -0.0608
  114MOL0     H15352   7.505   9.026   5.335  2.9074  2.3273 -0.4080
  114MOL0     H15353   7.331   9.054   5.325  0.1459  0.4915 -2.0924
  114MOL0     H15354   7.021   9.305   5.104  1.5966 -0.4686  5.2154
  114MOL0     H15355   6.843   9.420   4.944  1.0051  2.1337 -0.2225
  114MOL0     H15356   6.864   9.610   4.792  0.3471 -4.1523  2.0571
  114MOL0     H15357   6.709   9.528   4.813 -0.6741 -0.4477 -1.0620
  114MOL0     H15358   6.710   9.818   4.739 -0.5789  1.0124  1.8751
  114MOL0     H15359   6.718   9.683   4.629 -0.3123  0.9557  1.0441
  114MOL0     H15360   6.527   9.714   4.840  0.6505 -2.9771  0.0337
  114MOL0     H15361   6.524   9.579   4.719 -0.9006 -0.9011 -0.9157
  114MOL0     H15362   6.444   9.875   4.691  3.7566  0.9437  0.7308
  114MOL0     H15363   6.542   9.807   4.564 -0.9349  2.2314 -0.5126
  114MOL0     H15364   6.358   9.637   4.516 -0.9252  0.3821 -0.0401
  114MOL0     H15365   6.299   9.805   4.490 -0.1405  0.7560  1.3002
  114MOL0     H15366   6.252   9.633   4.746 -1.6885 -0.2296  0.2565
  114MOL0     H15367   6.218   9.811   4.720  0.6056  0.8601  1.8095
  114MOL0     H15368   6.098   9.574   4.573  1.1706 -0.1681 -1.0103
  114MOL0     H15369   6.062   9.747   4.528 -3.4835 -1.8458 -0.3628
  114MOL0     H15370   5.886   9.701   4.659  0.7342 -1.4428  1.1880
  114MOL0     H15371   6.000   9.800   4.763  1.0043  0.6845 -0.6660
  114MOL0     H15372   6.873   9.786   5.154  3.1503  2.0031 -1.6030
  114MOL0     H15373   7.052   9.686   5.302 -0.2263 -0.7193  1.0217
  114MOL0     H15374   7.343   9.552   5.402 -1.5745 -1.1922  2.3352
  114MOL0     H15375   7.499   9.537   5.596 -1.3609  1.6812 -1.1624
  114MOL0     H15376   7.358   8.367   4.667  0.7467  4.5592  1.4009
  114MOL0     H15377   7.312   8.319   4.438 -0.8341 -1.5398  0.2133
  114MOL0     H15378   7.407   8.463   4.031  0.3033  1.2265  1.0625
  114MOL0     H15379   7.372   8.445   3.763 -0.9950  0.7304  0.0971
  114MOL0     H15380   7.014   8.242   3.657  0.4402 -1.7229 -0.9785
  114MOL0     H15381   6.967   8.390   3.560  0.5509 -0.3144 -0.6732
  114MOL0     H15382   6.990   8.173   3.447  1.6737 -1.4909  1.3596
  114MOL0     H15383   7.160   8.175   3.475  0.0451  0.0345 -0.7249
  114MOL0     H15384   7.216   8.379   3.377 -0.4140  4.8238 -2.6332
  114MOL0     H15385   7.052   8.438   3.370 -2.2787 -2.1321  1.5802
  114MOL0     H15386   6.998   8.294   3.188  1.0914 -0.4962 -2.0025
  114MOL0     H15387   7.146   8.206   3.193 -0.8927 -0.0086  1.1358
  114MOL0     H15388   7.323   8.544   3.025  1.4258  0.2140  0.4549
  114MOL0     H15389   6.972   8.340   3.833  0.7406 -1.8922 -0.3144
  114MOL0     H15390   6.986   8.376   4.068 -0.1374 -2.2311  0.8657
  115MOL0     O15391   3.266   6.316  10.472  0.5981 -0.5188  0.6029
  115MOL0     C15392   3.284   6.402  10.385 -0.4141 -1.5599  0.8748
  115MOL0     O15393   3.370   6.392  10.278  0.2296 -0.0012  0.3944
  115MOL0     C15394   3.448   6.281  10.274  0.3612  0.4663 -0.6678
  115MOL0     C15395   3.396   6.153  10.261  0.9122  0.4539 -0.9713
  115MOL0     C15396   3.477   6.044  10.280 -0.1146 -0.2199  0.5085
  115MOL0     C15397   3.617   6.058  10.284  0.2913 -0.1126 -0.4245
  115MOL0     O15398   3.694   5.943  10.287  0.1324  0.0189  0.9456
  115MOL0     C15399   3.746   5.899  10.414 -0.1464 -0.3515 -0.8697
  115MOL0     C15400   3.884   5.832  10.406 -0.4381  0.1893  0.6228
  115MOL0     C15401   3.875   5.702  10.319  0.0865 -0.0970  0.0807
  115MOL0     C15402   3.792   5.593  10.372  0.4319 -0.1366 -0.1478
  115MOL0     C15403   3.824   5.472  10.297 -0.5360 -0.7668 -0.3151
  115MOL0     C15404   3.776   5.337  10.374 -0.7045 -0.4730  0.1103
  115MOL0     C15405   3.623   5.298  10.358 -0.3933 -0.4150 -0.1224
  115MOL0     C15406   3.618   5.140  10.398  0.9770 -1.3324  0.2423
  115MOL0     N15407   3.467   5.113  10.406 -0.1321  0.4751  0.6789
  115MOL0     C15408   3.396   5.058  10.505  0.5651 -0.4785  0.0323
  115MOL0     C15409   3.275   5.057  10.454 -0.3943 -0.1656 -0.3861
  115MOL0     C15410   3.156   5.000  10.533  0.9205 -0.6948  0.5012
  115MOL0     C15411   3.162   4.852  10.575 -0.0185 -0.0133 -1.1129
  115MOL0     C15412   3.143   4.763  10.455  0.4145  0.1584 -0.1046
  115MOL0     C15413   3.139   4.611  10.492 -0.3314  0.1678  0.2284
  115MOL0     O15414   3.194   4.538  10.383  0.5408 -0.0935  0.0578
  115MOL0     C15415   3.118   4.523  10.274 -0.1815  0.0074 -0.5015
  115MOL0     C15416   2.986   4.554  10.259 -0.5731 -0.3636 -0.5495
  115MOL0     C15417   2.918   4.539  10.136 -0.3128 -0.2514  0.5795
  115MOL0     C15418   2.769   4.569  10.137 -0.2593  0.5649  0.3364
  115MOL0     C15419   2.994   4.501  10.022  0.3386  0.0847  0.7602
  115MOL0     C15420   2.931   4.505   9.888 -0.1259  0.7518 -0.7836
  115MOL0     O15421   3.002   4.542   9.784 -0.3293 -0.4763  0.9149
  115MOL0     C15422   2.937   4.584   9.671 -1.0032 -0.6890  0.5284
  115MOL0     C15423   2.972   4.537   9.537  0.6550 -0.6867 -0.1717
  115MOL0     C15424   2.910   4.600   9.425 -0.2311 -1.1471  0.1094
  115MOL0     C15425   2.827   4.714   9.445  0.8013 -0.4524  0.3057
  115MOL0     O15426   2.769   4.792   9.344  0.8376 -0.9677  0.7284
  115MOL0     C15427   2.833   4.793   9.214  0.3254  0.7894 -0.1541
  115MOL0     C15428   2.724   4.830   9.116  0.4724 -0.1088 -0.9019
  115MOL0     C15429   2.607   4.729   9.097  0.0768  0.2000  0.1333
  115MOL0     C15430   2.492   4.789   9.020  0.0515 -0.5350 -0.2498
  115MOL0     C15431   2.396   4.673   8.985  0.1601  0.8411  0.5562
  115MOL0     C15432   2.299   4.629   9.091 -0.2148  0.2006 -0.7735
  115MOL0     C15433   2.254   4.479   9.074 -0.5629  0.0136 -0.2044
  115MOL0     C15434   2.131   4.480   8.984 -0.0334  1.2703 -0.6908
  115MOL0    Cl15435   2.094   4.301   8.980  0.3085  0.2724  0.0977
  115MOL0     C15436   2.798   4.759   9.570  0.6733 -0.6150 -0.2136
  115MOL0     C15437   2.849   4.702   9.682 -0.8583  0.5755 -0.6423
  115MOL0     O15438   2.820   4.451   9.883 -0.1216 -0.2380 -0.8635
  115MOL0     C15439   3.130   4.476  10.032 -0.9367  0.7580  0.8684
  115MOL0     C15440   3.189   4.488  10.155  0.4071  0.5156 -0.4094
  115MOL0     N15441   3.267   5.104  10.325  0.2647  0.4025  0.1623
  115MOL0     N15442   3.390   5.131  10.297 -0.5407 -0.3917 -0.8064
  115MOL0     C15443   3.664   6.190  10.272 -0.4185  0.0269 -0.5116
  115MOL0     C15444   3.583   6.300  10.272  0.2716 -0.1697  0.0336
  115MOL0     C15445   3.192   6.509  10.387  0.5952 -1.0981 -0.0485
  115MOL0     C15446   3.061   6.506  10.450  0.7947 -0.2936  0.2063
  115MOL0     C15447   2.983   6.627  10.456  0.1073  0.7023  0.0881
  115MOL0     C15448   3.017   6.747  10.395 -0.4750  0.1680 -0.2746
  115MOL0     O15449   2.951   6.865  10.397 -0.4860 -0.3520  0.7940
  115MOL0     C15450   2.838   6.894  10.481 -0.5217 -0.2224 -0.2178
  115MOL0     C15451   2.792   7.039  10.446  0.2313 -0.8388  0.0093
  115MOL0     C15452   2.901   7.143  10.475  0.7542  0.4044  0.3798
  115MOL0     C15453   2.878   7.286  10.428  0.4238  0.7429  0.4335
  115MOL0     C15454   2.842   7.304  10.282  0.5578  0.0636 -0.4105
  115MOL0     C15455   2.842   7.322  10.168 -1.0137 -0.4310 -0.0868
  115MOL0     C15456   3.141   6.748  10.330  0.2914 -0.5145  0.2966
  115MOL0     C15457   3.220   6.631  10.327  0.5578  0.3130  0.4158
  115MOL0     H15458   3.293   6.134  10.234 -0.2191  0.3678  2.8980
  115MOL0     H15459   3.441   5.942  10.283 -2.6457  0.4398  6.2475
  115MOL0     H15460   3.760   5.977  10.489  1.2466  0.2303 -1.6869
  115MOL0     H15461   3.673   5.834  10.463 -1.6226  2.3363  0.7003
  115MOL0     H15462   3.957   5.897  10.356  0.9438 -1.3208  0.6049
  115MOL0     H15463   3.921   5.803  10.504  5.5231  2.3768 -0.5464
  115MOL0     H15464   3.846   5.729  10.216 -1.5754  0.9500  0.7772
  115MOL0     H15465   3.980   5.675  10.313 -0.4688 -2.3670 -0.3928
  115MOL0     H15466   3.805   5.570  10.478 -0.4414 -1.8864 -0.3807
  115MOL0     H15467   3.685   5.615  10.367  0.5481  1.6310  2.7217
  115MOL0     H15468   3.789   5.468  10.193  2.5687  1.0231 -1.5884
  115MOL0     H15469   3.933   5.476  10.287 -0.3855  3.6135  0.9173
  115MOL0     H15470   3.843   5.264  10.327  1.9964  2.4099 -0.8729
  115MOL0     H15471   3.789   5.342  10.482 -0.9561 -0.7635  0.1532
  115MOL0     H15472   3.553   5.353  10.422 -1.7448 -0.6704 -1.3090
  115MOL0     H15473   3.594   5.310  10.253  1.3632  0.0999 -0.5739
  115MOL0     H15474   3.677   5.117  10.488 -1.7295 -0.6097  2.3626
  115MOL0     H15475   3.652   5.067  10.324 -0.1737 -1.9694  0.3183
  115MOL0     H15476   3.423   5.020  10.603 -2.4586 -1.1617  0.7069
  115MOL0     H15477   3.144   5.074  10.613  0.9880  2.1972 -1.9871
  115MOL0     H15478   3.070   5.015  10.467  1.4513 -1.5524 -0.3968
  115MOL0     H15479   3.092   4.830  10.657 -1.1918 -1.5959 -2.4642
  115MOL0     H15480   3.261   4.837  10.620  0.8181  0.9724 -2.5479
  115MOL0     H15481   3.224   4.769  10.381 -0.5731 -2.5683 -1.5698
  115MOL0     H15482   3.050   4.795  10.406  1.4636  0.4762 -1.9623
  115MOL0     H15483   3.036   4.591  10.523 -0.4543 -2.6381 -1.6501
  115MOL0     H15484   3.198   4.571  10.575  0.2280 -0.2699 -0.3689
  115MOL0     H15485   2.923   4.588  10.341  1.5748 -0.9562  1.4824
  115MOL0     H15486   2.736   4.619  10.046  0.5593 -0.0183 -0.2992
  115MOL0     H15487   2.705   4.483  10.162 -2.0691  1.2369 -1.7245
  115MOL0     H15488   2.738   4.642  10.212  0.0251  1.0973 -0.0572
  115MOL0     H15489   3.044   4.457   9.524  0.8801 -0.4376 -0.4907
  115MOL0     H15490   2.948   4.559   9.331  0.7887 -0.2294  0.1001
  115MOL0     H15491   2.916   4.864   9.208  2.1111 -1.2361 -0.5783
  115MOL0     H15492   2.866   4.696   9.176  0.8874  1.2416 -0.8155
  115MOL0     H15493   2.688   4.928   9.149  0.2084 -0.9367  1.4631
  115MOL0     H15494   2.758   4.866   9.019  0.0264  0.9592 -0.6734
  115MOL0     H15495   2.571   4.691   9.194  0.3822 -1.0718 -0.2232
  115MOL0     H15496   2.639   4.632   9.057 -3.1758 -2.3918  3.0790
  115MOL0     H15497   2.440   4.859   9.085  1.2420 -2.5744  3.1479
  115MOL0     H15498   2.529   4.834   8.927  0.1904 -0.1900 -0.0276
  115MOL0     H15499   2.458   4.590   8.950  2.5058  2.8865 -0.4354
  115MOL0     H15500   2.333   4.702   8.901 -1.9490 -1.7498  1.1214
  115MOL0     H15501   2.344   4.653   9.187 -1.2988 -1.0244  0.0703
  115MOL0     H15502   2.221   4.705   9.087  0.0250  0.6811  2.1626
  115MOL0     H15503   2.217   4.442   9.170  2.4648 -5.8442 -0.9020
  115MOL0     H15504   2.332   4.411   9.040 -3.3002 -2.7258 -1.4603
  115MOL0     H15505   2.159   4.520   8.886 -1.6883  0.7479 -1.4107
  115MOL0     H15506   2.036   4.531   9.006 -0.0289  0.5384  1.2437
  115MOL0     H15507   2.736   4.847   9.578 -1.2316 -2.0464  1.9159
  115MOL0     H15508   2.842   4.750   9.779  4.4099 -4.8790  3.1366
  115MOL0     H15509   3.199   4.441   9.956 -0.3303 -0.9204  2.1222
  115MOL0     H15510   3.295   4.469  10.168  0.7488  2.7802  0.5542
  115MOL0     H15511   3.772   6.198  10.277 -0.3675 -1.0492  1.0593
  115MOL0     H15512   3.639   6.392  10.274  3.4516 -1.9780  0.2807
  115MOL0     H15513   3.023   6.415  10.494 -1.6038  1.2712  1.6163
  115MOL0     H15514   2.893   6.602  10.510  0.2877  0.7921  0.4367
  115MOL0     H15515   2.760   6.820  10.461 -0.6495  0.1975 -1.3404
  115MOL0     H15516   2.865   6.893  10.587  0.7318 -1.1110 -0.5152
  115MOL0     H15517   2.702   7.072  10.499 -0.3443 -0.6498 -1.0517
  115MOL0     H15518   2.766   7.036  10.340 -0.4173  0.3977  0.0984
  115MOL0     H15519   2.997   7.102  10.442  2.1654  2.8677  1.1164
  115MOL0     H15520   2.913   7.146  10.584 -1.2524 -1.3953  0.7092
  115MOL0     H15521   2.964   7.348  10.454  1.3331  1.2321 -3.2565
  115MOL0     H15522   2.790   7.321  10.482  0.3426 -0.7189  1.3261
  115MOL0     H15523   2.840   7.348  10.064 -1.1719 -1.8562 -0.4707
  115MOL0     H15524   3.178   6.844  10.294 -2.1690  0.3774 -0.0787
  115MOL0     H15525   3.318   6.641  10.282  1.6556 -2.6873  1.8554
  116MOL0     O15526   0.813   7.044   2.097 -1.0663  0.0403 -0.5194
  116MOL0     C15527   0.889   6.957   2.120 -0.0949 -0.0434  0.1305
  116MOL0     O15528   0.859   6.842   2.185 -0.7464 -0.2226  0.2937
  116MOL0     C15529   0.726   6.811   2.192  0.2913  0.1458 -0.7762
  116MOL0     C15530   0.632   6.882   2.272 -0.3282 -0.0365  1.3083
  116MOL0     C15531   0.505   6.838   2.304 -0.4829 -0.0108 -0.6731
  116MOL0     C15532   0.467   6.710   2.249  0.4663  0.0751 -1.4143
  116MOL0     O15533   0.344   6.659   2.266  0.1026 -0.3133 -0.3354
  116MOL0     C15534   0.264   6.696   2.375  0.1319 -0.3022 -0.4144
  116MOL0     C15535   0.153   6.581   2.401  0.3810 -0.2011  0.6771
  116MOL0     C15536   0.208   6.432   2.418 -0.1418 -0.5392  0.3917
  116MOL0     C15537   0.222   6.390   2.560  1.2525  0.5465  0.6335
  116MOL0     C15538   0.082   6.359   2.627 -0.0903 -0.7853  1.0397
  116MOL0     C15539   0.110   6.375   2.780  1.2424 -0.4096  0.1477
  116MOL0     C15540  -0.018   6.392   2.859 -0.1597  0.7851  0.2672
  116MOL0     C15541   0.005   6.424   3.006  0.2390 -0.0754  0.3762
  116MOL0     N15542   0.057   6.304   3.077  0.0017 -0.3238 -0.0728
  116MOL0     C15543  -0.015   6.210   3.152  0.3142  0.5561 -0.4366
  116MOL0     C15544   0.087   6.132   3.196  1.0095  0.1822 -0.9223
  116MOL0     C15545   0.090   6.014   3.290  0.4323  0.6605 -0.7200
  116MOL0     C15546   0.174   6.032   3.426  0.5156 -0.8678  0.3808
  116MOL0     C15547   0.215   5.901   3.493 -0.0895  0.1946 -0.3071
  116MOL0     C15548   0.354   5.914   3.550  0.1912  0.7450  0.6753
  116MOL0     O15549   0.381   6.037   3.617  0.6086 -0.5020  0.2379
  116MOL0     C15550   0.361   6.052   3.754  0.1537 -0.8646 -0.1532
  116MOL0     C15551   0.380   5.953   3.849  0.0033 -0.9005 -0.0141
  116MOL0     C15552   0.365   5.973   3.990 -0.0570 -0.2955 -0.7740
  116MOL0     C15553   0.408   5.861   4.077  0.2456  0.0076 -0.2273
  116MOL0     C15554   0.334   6.097   4.043  0.9462 -1.4277 -0.1579
  116MOL0     C15555   0.310   6.137   4.188 -0.4012  0.8559 -0.0646
  116MOL0     O15556   0.222   6.055   4.254 -0.3739  0.2346  0.3726
  116MOL0     C15557   0.218   6.053   4.395 -0.4667  0.2544 -0.1947
  116MOL0     C15558   0.234   5.933   4.477 -0.6826 -0.0646  0.2701
  116MOL0     C15559   0.229   5.938   4.611  0.7204  1.2413 -0.2777
  116MOL0     C15560   0.204   6.064   4.671 -0.6493 -0.5197 -0.9974
  116MOL0     O15561   0.191   6.051   4.804 -0.1987 -0.0793  0.0547
  116MOL0     C15562   0.164   6.171   4.880  0.3913 -0.5445 -1.1143
  116MOL0     C15563   0.123   6.148   5.022  0.6127  1.0540  0.1164
  116MOL0     C15564   0.228   6.064   5.101  0.2200  0.1781  0.2867
  116MOL0     C15565   0.362   6.128   5.136  1.1038 -0.3482  0.9667
  116MOL0     C15566   0.433   6.077   5.251  1.1441  0.1515  0.2274
  116MOL0     C15567   0.385   6.126   5.383 -0.7002 -0.3896 -0.1064
  116MOL0     C15568   0.463   6.083   5.515 -0.3736 -0.8909 -0.3319
  116MOL0     C15569   0.473   5.934   5.527  0.3843 -0.1013  0.1111
  116MOL0    Cl15570   0.541   5.869   5.683  0.3000  0.4867  0.0903
  116MOL0     C15571   0.174   6.174   4.598  0.0128 -0.4664  0.9394
  116MOL0     C15572   0.172   6.169   4.458  0.3063  0.0479  0.1526
  116MOL0     O15573   0.380   6.234   4.236  0.5008  0.1438  0.4976
  116MOL0     C15574   0.325   6.193   3.946 -0.0056 -0.0958  0.0339
  116MOL0     C15575   0.347   6.178   3.809  0.0255  0.8539  0.5337
  116MOL0     N15576   0.200   6.188   3.154 -0.0879  0.8674 -0.1790
  116MOL0     N15577   0.191   6.297   3.094  0.0319 -0.0060  0.2722
  116MOL0     C15578   0.551   6.643   2.164 -0.5145 -0.8637  0.4243
  116MOL0     C15579   0.678   6.689   2.148 -0.1546  0.3407  0.3585
  116MOL0     C15580   1.014   6.950   2.048  0.0264  0.1458 -0.3572
  116MOL0     C15581   1.069   7.062   1.992 -0.3570  0.8395  0.1477
  116MOL0     C15582   1.188   7.060   1.932  0.6088  0.0933  1.0940
  116MOL0     C15583   1.258   6.942   1.915 -0.1428  0.7253  0.1915
  116MOL0     O15584   1.377   6.956   1.846  0.5985 -0.5166  0.4321
  116MOL0     C15585   1.489   6.891   1.882  0.6508  1.2243 -0.3218
  116MOL0     C15586   1.618   6.943   1.821  0.8269  0.5559 -0.0182
  116MOL0     C15587   1.648   7.081   1.858  0.7076 -0.4880  0.7743
  116MOL0     C15588   1.692   7.094   1.998 -0.4406  0.5240 -0.8822
  116MOL0     C15589   1.840   7.076   2.022  0.9486 -0.0761 -0.3476
  116MOL0     C15590   1.958   7.055   2.046 -0.2399  1.4638 -0.9313
  116MOL0     C15591   1.210   6.820   1.961  0.2376  0.5198 -0.1911
  116MOL0     C15592   1.082   6.823   2.033 -0.1386 -0.5583 -0.2843
  116MOL0     H15593   0.674   6.967   2.325 -2.9189  0.9020  1.9924
  116MOL0     H15594   0.438   6.892   2.370 -1.1609  1.0739 -2.1983
  116MOL0     H15595   0.329   6.702   2.462  1.0566  1.8642 -1.2031
  116MOL0     H15596   0.205   6.786   2.354 -2.4314 -2.4698 -3.6304
  116MOL0     H15597   0.090   6.618   2.482  0.8173  0.6000  0.6650
  116MOL0     H15598   0.092   6.574   2.310 -1.2610  2.3630  1.4454
  116MOL0     H15599   0.133   6.360   2.383 -0.7971  0.6671 -0.7523
  116MOL0     H15600   0.297   6.427   2.355 -0.7019 -0.8412 -0.3918
  116MOL0     H15601   0.284   6.300   2.555  2.0211  1.0823  0.3455
  116MOL0     H15602   0.279   6.469   2.609  1.1084  1.1095 -0.0800
  116MOL0     H15603  -0.002   6.423   2.600 -0.5538 -1.6134  0.5060
  116MOL0     H15604   0.052   6.256   2.607 -1.4817 -0.5041  1.5597
  116MOL0     H15605   0.157   6.290   2.831  1.1971 -0.8173 -0.4780
  116MOL0     H15606   0.165   6.467   2.803 -1.0209  0.3213  3.2661
  116MOL0     H15607  -0.066   6.485   2.825 -1.7864  1.5948  4.2175
  116MOL0     H15608  -0.074   6.300   2.840  1.7375  0.1892 -3.4720
  116MOL0     H15609  -0.092   6.452   3.047 -1.1185 -0.2222 -2.4452
  116MOL0     H15610   0.072   6.510   3.017  1.5826 -0.6158 -2.5216
  116MOL0     H15611  -0.119   6.217   3.182  0.3000 -1.7613  0.2253
  116MOL0     H15612  -0.007   5.966   3.305 -1.6869  3.6974 -3.4957
  116MOL0     H15613   0.154   5.939   3.244 -3.4016 -2.5496 -1.3554
  116MOL0     H15614   0.114   6.090   3.496  0.9832 -1.3956  1.2296
  116MOL0     H15615   0.266   6.086   3.401 -0.6922  1.1171 -0.0212
  116MOL0     H15616   0.222   5.821   3.418  0.5357  0.4552 -0.5245
  116MOL0     H15617   0.138   5.859   3.559 -1.3319 -0.1748 -1.9212
  116MOL0     H15618   0.421   5.925   3.464 -0.6242  2.4048  0.2036
  116MOL0     H15619   0.390   5.836   3.617  2.5353  1.8868  0.8328
  116MOL0     H15620   0.411   5.856   3.811 -0.4804 -1.2433  0.4516
  116MOL0     H15621   0.317   5.809   4.110  0.6594  0.2147  1.3100
  116MOL0     H15622   0.483   5.798   4.028 -0.7009  0.2831 -2.1644
  116MOL0     H15623   0.455   5.893   4.170 -0.6161 -0.2142  0.2962
  116MOL0     H15624   0.249   5.837   4.429  0.7091 -1.3327  2.9974
  116MOL0     H15625   0.221   5.846   4.668  3.5047  1.8504  1.2412
  116MOL0     H15626   0.248   6.241   4.878  0.0422 -0.0424  0.3672
  116MOL0     H15627   0.077   6.217   4.832  1.0309 -1.9614 -3.8203
  116MOL0     H15628   0.124   6.242   5.079  2.7170  0.3644  1.3180
  116MOL0     H15629   0.025   6.099   5.032  0.2385  1.4612 -1.4034
  116MOL0     H15630   0.238   5.966   5.054 -0.7252 -0.1853  0.8239
  116MOL0     H15631   0.188   6.051   5.201  0.8297 -1.3367  0.3607
  116MOL0     H15632   0.426   6.121   5.047  0.8046  0.9961  0.6269
  116MOL0     H15633   0.337   6.232   5.158 -0.0254 -0.2283 -0.6772
  116MOL0     H15634   0.535   6.113   5.235 -0.5470  5.1729 -0.9672
  116MOL0     H15635   0.425   5.968   5.255 -1.5901  0.3130  3.0360
  116MOL0     H15636   0.389   6.235   5.384  1.2174 -0.4258  1.3275
  116MOL0     H15637   0.279   6.101   5.377 -1.0703 -0.1415  3.5469
  116MOL0     H15638   0.405   6.116   5.602  0.7415 -1.9398  0.8550
  116MOL0     H15639   0.561   6.129   5.504 -0.7265  0.0776  0.4322
  116MOL0     H15640   0.546   5.895   5.455  0.3451  0.9463 -0.5235
  116MOL0     H15641   0.374   5.890   5.517  0.6193 -0.7329  0.4959
  116MOL0     H15642   0.146   6.267   4.648 -0.8862 -0.7338  0.9513
  116MOL0     H15643   0.150   6.251   4.390 -2.0741 -2.9869 -3.1460
  116MOL0     H15644   0.305   6.297   3.974  0.4744  0.3505 -1.2162
  116MOL0     H15645   0.349   6.266   3.745  1.1488 -0.3995 -1.2422
  116MOL0     H15646   0.526   6.541   2.135 -1.4323 -0.1529 -1.4067
  116MOL0     H15647   0.744   6.630   2.085 -1.8665 -0.0107 -1.1802
  116MOL0     H15648   1.010   7.152   1.982 -2.2287 -0.1692  1.4426
  116MOL0     H15649   1.228   7.150   1.885  0.9299 -1.1901 -1.3008
  116MOL0     H15650   1.493   6.909   1.990 -1.4351  2.0330 -0.3423
  116MOL0     H15651   1.471   6.785   1.861  0.6522  1.3933 -1.1760
  116MOL0     H15652   1.602   6.933   1.713 -2.8324 -0.5078  0.4911
  116MOL0     H15653   1.701   6.878   1.849 -0.1916 -0.6630  0.2498
  116MOL0     H15654   1.558   7.142   1.845  1.3314  0.3926  0.5410
  116MOL0     H15655   1.717   7.117   1.780 -0.2359  0.6210  0.4220
  116MOL0     H15656   1.627   7.036   2.064  0.2327  1.1804  0.3988
  116MOL0     H15657   1.660   7.194   2.028 -2.4221 -1.1480  3.3281
  116MOL0     H15658   2.061   7.034   2.071 -0.6576  1.5041  1.0005
  116MOL0     H15659   1.261   6.724   1.961  0.8588  0.8475 -0.0229
  116MOL0     H15660   1.054   6.726   2.072 -1.0944 -0.9528 -1.8682
  117MOL0     O15661   5.508   0.079   3.556 -0.0899  0.1209 -0.4348
  117MOL0     C15662   5.514  -0.026   3.496  0.1109 -0.8926  0.2603
  117MOL0     O15663   5.427  -0.136   3.523  0.8365  0.1138  0.2746
  117MOL0     C15664   5.348  -0.130   3.627 -0.1132 -0.4714 -1.0738
  117MOL0     C15665   5.391  -0.165   3.753  0.2357 -0.6474  0.1929
  117MOL0     C15666   5.315  -0.156   3.864  0.9229  0.3534 -1.5445
  117MOL0     C15667   5.181  -0.112   3.849 -0.1588  0.8347  0.4245
  117MOL0     O15668   5.089  -0.102   3.951  0.4920  1.2109  0.3035
  117MOL0     C15669   5.129  -0.153   4.077  0.2710 -0.0662  0.8597
  117MOL0     C15670   5.004  -0.174   4.161 -0.0806  0.3766 -0.2806
  117MOL0     C15671   4.917  -0.276   4.100  0.8388  0.9279  0.5031
  117MOL0     C15672   4.811  -0.334   4.204  1.1364 -0.6787  0.0379
  117MOL0     C15673   4.713  -0.228   4.266 -0.4166  0.3236 -1.1654
  117MOL0     C15674   4.598  -0.174   4.181  1.2598  0.2132 -0.6229
  117MOL0     C15675   4.466  -0.266   4.182 -0.2952  0.0526  0.3375
  117MOL0     C15676   4.350  -0.197   4.110 -0.7241  0.2074 -0.3489
  117MOL0     N15677   4.293  -0.088   4.185  0.5799 -0.1583 -0.4258
  117MOL0     C15678   4.265  -0.058   4.318  0.0796 -0.1073  1.0509
  117MOL0     C15679   4.189   0.052   4.314  0.3717  0.1311  0.7743
  117MOL0     C15680   4.146   0.132   4.431 -0.3325  0.9349  0.5270
  117MOL0     C15681   4.082   0.263   4.392 -0.1501  0.9466 -0.1785
  117MOL0     C15682   4.014   0.326   4.514  0.1904 -1.0185  0.1305
  117MOL0     C15683   3.955   0.462   4.459 -1.4612 -0.2371  0.1610
  117MOL0     O15684   3.903   0.550   4.567  0.4363  1.0824 -0.3115
  117MOL0     C15685   3.860   0.676   4.533 -0.0726  0.2007  0.0237
  117MOL0     C15686   3.808   0.753   4.639  0.2621  0.2379  0.1355
  117MOL0     C15687   3.759   0.886   4.625  0.3921  0.3041  0.1161
  117MOL0     C15688   3.721   0.972   4.745 -0.0684  0.4022  0.1539
  117MOL0     C15689   3.763   0.943   4.490  0.5297 -0.3761 -0.3401
  117MOL0     C15690   3.700   1.069   4.454  0.3000 -0.1832 -0.2411
  117MOL0     O15691   3.744   1.143   4.340 -0.1330  0.1322  0.2383
  117MOL0     C15692   3.723   1.269   4.313 -0.6195 -0.7984  0.0366
  117MOL0     C15693   3.599   1.337   4.336 -0.2869 -0.6725  0.3287
  117MOL0     C15694   3.585   1.464   4.282 -0.8928 -0.7420  0.1001
  117MOL0     C15695   3.699   1.532   4.225 -0.0862  0.2538 -0.1176
  117MOL0     O15696   3.685   1.673   4.208 -0.4945  0.3262 -0.3325
  117MOL0     C15697   3.664   1.750   4.326 -0.8166 -1.0307 -0.3544
  117MOL0     C15698   3.794   1.794   4.397 -0.9383  0.9091  0.0856
  117MOL0     C15699   3.745   1.898   4.494 -0.3093 -0.2323 -0.1344
  117MOL0     C15700   3.875   1.912   4.581 -0.4548 -0.0856  0.6489
  117MOL0     C15701   3.893   2.051   4.643  0.1680  0.5371  0.6219
  117MOL0     C15702   3.906   2.165   4.545  0.2503  0.1955  0.8671
  117MOL0     C15703   3.986   2.275   4.606 -0.0437 -0.6619  0.5548
  117MOL0     C15704   3.969   2.415   4.539 -0.4542  0.0288 -0.3054
  117MOL0    Cl15705   3.802   2.469   4.549 -0.2660  0.0784  0.2231
  117MOL0     C15706   3.820   1.458   4.197 -0.1046 -0.4457 -0.0460
  117MOL0     C15707   3.828   1.327   4.242  0.2429 -0.2046  1.4063
  117MOL0     O15708   3.600   1.096   4.520 -0.2706  0.4422  0.6072
  117MOL0     C15709   3.821   0.864   4.391 -0.4345 -0.4786 -0.6111
  117MOL0     C15710   3.866   0.738   4.409  0.9126  0.1438  0.2394
  117MOL0     N15711   4.177   0.089   4.187  0.0750  0.1470 -0.7224
  117MOL0     N15712   4.237   0.011   4.113  0.4176  0.7105 -0.1666
  117MOL0     C15713   5.136  -0.092   3.716  1.0458  0.2427  0.5261
  117MOL0     C15714   5.213  -0.097   3.609 -1.1591  0.5653 -0.1015
  117MOL0     C15715   5.600  -0.051   3.383  0.5048  0.5666 -0.1694
  117MOL0     C15716   5.695   0.041   3.342 -1.1392 -0.5090  0.2432
  117MOL0     C15717   5.786   0.007   3.239  0.8230  0.3170 -0.2764
  117MOL0     C15718   5.770  -0.112   3.171 -0.0139  0.0996  0.0222
  117MOL0     O15719   5.861  -0.138   3.073  0.2033  0.1033 -0.1848
  117MOL0     C15720   5.886  -0.276   3.040  0.5060  0.8286 -0.3388
  117MOL0     C15721   6.022  -0.321   3.085 -0.3043 -0.6211 -0.2860
  117MOL0     C15722   6.075  -0.442   3.024  0.5789 -0.7778  0.0535
  117MOL0     C15723   5.983  -0.558   3.063 -0.0822  0.1101  0.3380
  117MOL0     C15724   5.988  -0.578   3.215 -0.0651  0.9343  0.5974
  117MOL0     C15725   6.014  -0.617   3.331  0.2075  1.1345  0.2686
  117MOL0     C15726   5.674  -0.199   3.206  0.4074 -0.1997 -0.7183
  117MOL0     C15727   5.591  -0.175   3.313  0.3877  0.0978 -0.1964
  117MOL0     H15728   5.496  -0.184   3.775 -0.0799 -1.1177  1.3625
  117MOL0     H15729   5.356  -0.190   3.959 -0.6086 -1.4202 -1.4532
  117MOL0     H15730   5.186  -0.246   4.076 -1.0988 -0.9929 -1.9649
  117MOL0     H15731   5.197  -0.078   4.118 -1.2946  0.2339  3.1001
  117MOL0     H15732   5.038  -0.197   4.262 -0.1417 -0.1742 -0.3831
  117MOL0     H15733   4.929  -0.096   4.174 -0.2381  0.2409 -0.3678
  117MOL0     H15734   4.864  -0.238   4.012 -1.2338 -2.1789  0.2700
  117MOL0     H15735   4.979  -0.361   4.069 -0.1729  0.7654 -1.2477
  117MOL0     H15736   4.753  -0.416   4.161 -0.8157  0.7117 -0.1077
  117MOL0     H15737   4.876  -0.367   4.285  1.5672  1.8789  0.8311
  117MOL0     H15738   4.671  -0.272   4.358  3.0606  3.6143  2.3616
  117MOL0     H15739   4.766  -0.140   4.302  0.0131  0.2482 -1.6049
  117MOL0     H15740   4.569  -0.073   4.214  1.0999  0.1382 -0.5345
  117MOL0     H15741   4.632  -0.163   4.078  0.9540 -2.6918 -1.1011
  117MOL0     H15742   4.489  -0.349   4.115  0.4426  1.1899 -0.8775
  117MOL0     H15743   4.433  -0.292   4.283 -3.0545  2.0030  0.0608
  117MOL0     H15744   4.252  -0.244   4.099 -0.6568  0.2207 -1.0216
  117MOL0     H15745   4.389  -0.175   4.011  0.4413 -2.4841 -0.5621
  117MOL0     H15746   4.288  -0.101   4.414 -0.0178  0.8270  1.5040
  117MOL0     H15747   4.072   0.079   4.491 -0.7058  2.1449  1.1786
  117MOL0     H15748   4.238   0.131   4.491  0.5514 -3.0604 -0.5866
  117MOL0     H15749   4.013   0.249   4.309 -0.0751  1.2313 -0.2900
  117MOL0     H15750   4.163   0.332   4.371  0.0623  0.9948  0.7360
  117MOL0     H15751   4.103   0.343   4.576  0.4754 -1.3458 -0.1822
  117MOL0     H15752   3.937   0.264   4.561 -2.9360 -0.3806 -3.6476
  117MOL0     H15753   3.882   0.450   4.379 -0.6977  0.5950 -0.6903
  117MOL0     H15754   4.037   0.504   4.401  1.8784 -2.3940  2.8798
  117MOL0     H15755   3.801   0.712   4.739 -0.9623  2.2202  0.9346
  117MOL0     H15756   3.618   0.940   4.767  0.7462 -2.5522  0.1387
  117MOL0     H15757   3.793   0.957   4.826 -1.0206 -2.6200  0.5756
  117MOL0     H15758   3.723   1.080   4.731  3.3801  0.4331  0.0692
  117MOL0     H15759   3.512   1.288   4.377 -3.2423  3.2681 -0.6297
  117MOL0     H15760   3.493   1.521   4.294 -0.9502 -0.7022 -0.5155
  117MOL0     H15761   3.626   1.847   4.292 -1.8186 -1.9145 -1.8837
  117MOL0     H15762   3.588   1.700   4.388 -0.0934  0.1916  1.6014
  117MOL0     H15763   3.848   1.713   4.446 -1.8567  1.0963  1.4563
  117MOL0     H15764   3.859   1.845   4.326 -1.1592  1.3586  0.2036
  117MOL0     H15765   3.656   1.870   4.552 -0.4307  0.6932  0.1402
  117MOL0     H15766   3.715   1.994   4.451 -1.2712 -0.5528 -0.2037
  117MOL0     H15767   3.864   1.854   4.673  1.9386 -0.7499  0.5738
  117MOL0     H15768   3.961   1.883   4.521 -2.2983  1.6310 -3.2069
  117MOL0     H15769   3.988   2.053   4.696 -0.1265  3.2103  1.1585
  117MOL0     H15770   3.821   2.077   4.720 -0.5871 -1.3281  0.6095
  117MOL0     H15771   3.962   2.143   4.454  0.4644 -0.6792  1.1992
  117MOL0     H15772   3.810   2.207   4.514  0.4196  0.0385  0.0986
  117MOL0     H15773   4.093   2.253   4.609 -0.2147 -1.6664 -0.0546
  117MOL0     H15774   3.957   2.297   4.709 -0.6367  2.0817 -0.1395
  117MOL0     H15775   3.993   2.415   4.433  1.6542  2.9467  0.0530
  117MOL0     H15776   4.042   2.478   4.590 -0.4594  0.9440 -1.3847
  117MOL0     H15777   3.901   1.516   4.152 -2.6417  3.4562 -0.0877
  117MOL0     H15778   3.922   1.278   4.219  0.1758  1.2150 -2.9333
  117MOL0     H15779   3.820   0.875   4.283  0.1280 -0.9451 -0.6713
  117MOL0     H15780   3.899   0.683   4.321 -0.8223  1.5084 -1.3424
  117MOL0     H15781   5.033  -0.058   3.706  0.3528 -1.7285  0.6293
  117MOL0     H15782   5.170  -0.088   3.510 -0.6682  0.2779 -0.3418
  117MOL0     H15783   5.708   0.132   3.398  3.0262  0.0620 -1.3228
  117MOL0     H15784   5.859   0.078   3.202  0.6897 -1.1230 -3.7181
  117MOL0     H15785   5.823  -0.341   3.101  1.2709 -0.1953 -0.5965
  117MOL0     H15786   5.854  -0.302   2.939 -0.1830 -2.0239  0.5053
  117MOL0     H15787   6.010  -0.331   3.193  0.4335  1.7725  0.0594
  117MOL0     H15788   6.084  -0.234   3.065 -1.2923  1.2022  3.7476
  117MOL0     H15789   6.175  -0.453   3.067  1.3147  0.9663 -1.0928
  117MOL0     H15790   6.088  -0.433   2.916  0.3218  0.0615  0.0792
  117MOL0     H15791   6.031  -0.643   3.014 -1.8157  0.4589 -2.1959
  117MOL0     H15792   5.881  -0.538   3.027  0.5211  0.0250 -1.5603
  117MOL0     H15793   6.029  -0.632   3.436 -2.8278 -0.4754  0.5814
  117MOL0     H15794   5.650  -0.290   3.153 -2.8587  0.6856 -0.9577
  117MOL0     H15795   5.507  -0.244   3.319  0.9798 -0.5685  0.8017
  118MOL0     O15796   8.362   7.535   7.481  0.2938 -0.2548  0.1554
  118MOL0     C15797   8.344   7.638   7.416 -0.3038  0.4740  0.1439
  118MOL0     O15798   8.415   7.682   7.307 -0.2110  0.7012 -0.5609
  118MOL0     C15799   8.527   7.612   7.270  0.1742  0.4446  0.4109
  118MOL0     C15800   8.539   7.558   7.138  0.8563 -0.5174  0.0598
  118MOL0     C15801   8.656   7.496   7.113  0.2353 -0.5881 -0.0545
  118MOL0     C15802   8.766   7.483   7.207  0.2882  0.4431  0.2316
  118MOL0     O15803   8.877   7.422   7.155  0.2171 -0.6142  0.0878
  118MOL0     C15804   8.935   7.327   7.234 -0.8951 -0.0679 -1.1367
  118MOL0     C15805   8.851   7.207   7.259  1.2647  0.4913  0.5795
  118MOL0     C15806   8.929   7.079   7.283 -0.2164  0.3332  0.5166
  118MOL0     C15807   8.837   6.960   7.318 -0.7529  0.1352 -0.3632
  118MOL0     C15808   8.920   6.832   7.330  0.8811  0.2838  0.2830
  118MOL0     C15809   8.829   6.714   7.368  0.4761  0.1546 -0.2223
  118MOL0     C15810   8.829   6.707   7.520  0.2761  0.2690 -0.1544
  118MOL0     C15811   8.744   6.587   7.566  0.6349  0.3146  0.5335
  118MOL0     N15812   8.808   6.450   7.538 -0.6149 -0.2811 -0.7699
  118MOL0     C15813   8.944   6.413   7.568  1.2374 -0.2534  0.9569
  118MOL0     C15814   8.970   6.307   7.482  0.2417 -0.3356  0.2040
  118MOL0     C15815   9.100   6.233   7.477 -0.1618  0.2410  0.1944
  118MOL0     C15816   9.163   6.252   7.335  0.5063 -0.8109 -0.5795
  118MOL0     C15817   9.318   6.240   7.347  0.9978  0.7767 -0.1066
  118MOL0     C15818   9.383   6.098   7.361  0.1381  0.2286  0.7816
  118MOL0     O15819   9.517   6.112   7.405  0.9329 -0.2623 -0.8090
  118MOL0     C15820   9.581   5.996   7.445  0.3093 -0.1321  0.2401
  118MOL0     C15821   9.706   6.005   7.504 -0.0014  0.3142  1.1579
  118MOL0     C15822   9.782   5.893   7.548  0.4444  0.1736  0.2924
  118MOL0     C15823   9.916   5.904   7.616  0.9029 -0.4501  0.1438
  118MOL0     C15824   9.726   5.766   7.518  1.4650 -0.7652  0.5454
  118MOL0     C15825   9.777   5.639   7.580 -0.0742  0.3822  0.7864
  118MOL0     O15826   9.826   5.542   7.499  0.0057  0.3411  0.2603
  118MOL0     C15827   9.843   5.417   7.542 -0.0130 -0.1825  1.1437
  118MOL0     C15828   9.960   5.350   7.515  0.0538  0.2539 -0.5595
  118MOL0     C15829   9.979   5.216   7.549 -0.9724 -0.0728  0.1397
  118MOL0     C15830   9.870   5.140   7.603 -0.0852  0.2533  0.7464
  118MOL0     O15831   9.903   5.010   7.627 -0.3617 -0.4948  0.5655
  118MOL0     C15832   9.837   4.959   7.746 -1.1950 -0.5146 -0.6705
  118MOL0     C15833   9.905   4.842   7.827  0.5348 -0.9832 -0.1836
  118MOL0     C15834   9.846   4.799   7.964 -0.1459  0.6786  0.0818
  118MOL0     C15835   9.694   4.783   7.981 -0.5701 -0.6406 -0.4750
  118MOL0     C15836   9.640   4.765   8.122 -0.1342 -0.6384  0.1142
  118MOL0     C15837   9.484   4.760   8.116 -0.8361 -0.6968 -0.1536
  118MOL0     C15838   9.434   4.692   8.249 -0.2639 -0.6814  0.4678
  118MOL0     C15839   9.470   4.551   8.287  0.6087 -0.7874  0.5383
  118MOL0    Cl15840   9.389   4.439   8.159  0.4051 -0.2752 -0.4867
  118MOL0     C15841   9.747   5.210   7.615  0.2776  0.4524  0.6063
  118MOL0     C15842   9.733   5.350   7.596 -0.2704  0.8185  0.7064
  118MOL0     O15843   9.732   5.625   7.691 -0.4997 -0.0310  0.2029
  118MOL0     C15844   9.600   5.756   7.439  0.2677 -0.1223  0.1794
  118MOL0     C15845   9.533   5.872   7.413 -0.3462  0.2671 -0.5646
  118MOL0     N15846   8.854   6.285   7.404  0.1325 -1.0195 -0.0165
  118MOL0     N15847   8.767   6.372   7.441  1.1169  0.3561 -0.6200
  118MOL0     C15848   8.752   7.544   7.333 -0.1339  0.2145  0.2376
  118MOL0     C15849   8.630   7.601   7.367 -0.1500 -1.1492  0.2952
  118MOL0     C15850   8.224   7.717   7.452 -0.6317 -0.3887 -0.5712
  118MOL0     C15851   8.182   7.718   7.587 -0.8025 -0.2202 -0.8242
  118MOL0     C15852   8.092   7.806   7.633  1.5425  0.2218 -0.6640
  118MOL0     C15853   8.022   7.895   7.554  0.0135  0.4928  0.1368
  118MOL0     O15854   7.928   7.987   7.606 -0.0593  0.1470  0.9694
  118MOL0     C15855   7.882   7.982   7.747  0.1405  0.1470 -0.0461
  118MOL0     C15856   7.784   8.108   7.769 -0.4545  0.3336  0.2216
  118MOL0     C15857   7.809   8.191   7.900  0.6759 -0.2571  0.6861
  118MOL0     C15858   7.685   8.203   7.991 -0.4190  1.1305 -1.0158
  118MOL0     C15859   7.666   8.094   8.089 -0.4018 -0.4393  0.2836
  118MOL0     C15860   7.652   8.008   8.175 -0.3267  0.5041  0.1260
  118MOL0     C15861   8.068   7.903   7.420  0.3227 -0.1933 -0.3475
  118MOL0     C15862   8.169   7.815   7.370 -0.1995 -0.5126 -0.4106
  118MOL0     H15863   8.448   7.564   7.080 -0.2002  1.4407  1.7553
  118MOL0     H15864   8.670   7.445   7.018  0.2623 -2.8466  1.0933
  118MOL0     H15865   9.032   7.302   7.191 -1.6830 -0.8235 -2.5511
  118MOL0     H15866   8.954   7.371   7.332 -0.2338 -4.4328  0.9518
  118MOL0     H15867   8.794   7.237   7.347  1.9470 -3.8917  2.8256
  118MOL0     H15868   8.784   7.198   7.172  0.2831  3.4051  0.9332
  118MOL0     H15869   8.994   7.051   7.200 -0.6708 -3.6901  1.3038
  118MOL0     H15870   9.003   7.107   7.360 -1.4305  2.0581  1.1095
  118MOL0     H15871   8.795   6.975   7.418  1.8848 -0.9191  0.9918
  118MOL0     H15872   8.757   6.946   7.245  0.2979 -0.8601 -1.3649
  118MOL0     H15873   8.955   6.800   7.231  1.6754 -0.7321  0.8771
  118MOL0     H15874   9.004   6.847   7.398 -0.1425  2.5015  1.1682
  118MOL0     H15875   8.731   6.727   7.322 -0.5286  1.1365  2.0439
  118MOL0     H15876   8.867   6.615   7.339 -3.9903 -2.0829  0.7658
  118MOL0     H15877   8.930   6.683   7.554 -0.4610  0.0273  2.0787
  118MOL0     H15878   8.788   6.802   7.556 -0.8096 -0.0834 -0.4413
  118MOL0     H15879   8.647   6.587   7.515 -0.9303 -3.8097  2.9720
  118MOL0     H15880   8.722   6.594   7.673 -1.6903 -0.5236  0.1866
  118MOL0     H15881   9.020   6.450   7.636  3.4996 -1.7773 -0.5985
  118MOL0     H15882   9.162   6.276   7.555  0.1272 -0.9326  0.6327
  118MOL0     H15883   9.088   6.125   7.495  1.0430 -0.3921 -2.2729
  118MOL0     H15884   9.142   6.351   7.296 -1.9358  0.1047  2.6159
  118MOL0     H15885   9.124   6.177   7.266  2.0195 -0.9400 -1.3505
  118MOL0     H15886   9.353   6.292   7.437  1.2719 -0.1626  0.3483
  118MOL0     H15887   9.373   6.301   7.276  0.8063  1.0561 -0.0152
  118MOL0     H15888   9.390   6.052   7.262  2.2132  0.9495  0.5563
  118MOL0     H15889   9.320   6.039   7.429  1.7582 -2.7803 -0.1392
  118MOL0     H15890   9.743   6.106   7.518 -0.9389  0.8169  0.1775
  118MOL0     H15891   9.943   6.009   7.630 -1.2535  1.2095 -5.3698
  118MOL0     H15892   9.914   5.846   7.708 -1.6809  0.1232  0.5229
  118MOL0     H15893  10.001   5.870   7.556  2.8322  1.1182  1.8510
  118MOL0     H15894  10.046   5.396   7.467  1.3222 -0.8011  0.5985
  118MOL0     H15895  10.071   5.163   7.527 -1.4583 -1.3255  1.0142
  118MOL0     H15896   9.843   5.045   7.815  2.1405  0.0291 -1.4423
  118MOL0     H15897   9.739   4.920   7.717 -0.1079 -3.2800 -0.9265
  118MOL0     H15898   9.916   4.750   7.770 -3.7180 -2.0964  0.4727
  118MOL0     H15899  10.007   4.879   7.846  0.5133 -0.5242 -0.9282
  118MOL0     H15900   9.889   4.870   8.036  0.4627  1.7736 -1.3233
  118MOL0     H15901   9.893   4.701   7.981 -1.7325 -0.8692 -3.4704
  118MOL0     H15902   9.653   4.878   7.947 -0.2050  0.0933  1.0304
  118MOL0     H15903   9.666   4.695   7.923  0.7327 -0.3373 -1.5976
  118MOL0     H15904   9.680   4.847   8.182  1.3443 -0.8849 -0.5090
  118MOL0     H15905   9.678   4.670   8.160 -0.5016 -1.2412 -0.9709
  118MOL0     H15906   9.438   4.857   8.096  2.0444  0.9809  0.7887
  118MOL0     H15907   9.452   4.699   8.031 -1.4606  1.7990 -1.7817
  118MOL0     H15908   9.325   4.702   8.247 -0.3387 -1.4898 -0.7679
  118MOL0     H15909   9.459   4.762   8.329  0.1882  2.1322 -1.9482
  118MOL0     H15910   9.447   4.516   8.388  0.4309 -3.0853 -0.2350
  118MOL0     H15911   9.579   4.541   8.282  0.9124  1.8673  0.5529
  118MOL0     H15912   9.653   5.167   7.648 -1.1403  0.2290 -3.2462
  118MOL0     H15913   9.641   5.407   7.603 -0.4473  1.0717 -2.2097
  118MOL0     H15914   9.554   5.658   7.431 -1.5046  0.7383 -0.5454
  118MOL0     H15915   9.440   5.856   7.359  0.6391  1.6404 -2.8288
  118MOL0     H15916   8.842   7.538   7.394 -0.0229  0.9579  0.1550
  118MOL0     H15917   8.617   7.641   7.467 -0.0299 -1.8854  0.6067
  118MOL0     H15918   8.225   7.653   7.661  3.7881  2.5742 -0.6544
  118MOL0     H15919   8.075   7.804   7.740 -0.7413 -0.8361 -0.9791
  118MOL0     H15920   7.828   7.888   7.759 -0.7270  0.9500  3.7496
  118MOL0     H15921   7.966   7.996   7.816  1.7781 -0.3061 -1.8565
  118MOL0     H15922   7.680   8.077   7.756  0.6310 -2.7118 -2.6617
  118MOL0     H15923   7.820   8.169   7.684  0.9046 -2.2085 -1.1377
  118MOL0     H15924   7.829   8.291   7.861  0.3483 -0.0797  0.9701
  118MOL0     H15925   7.899   8.169   7.957  0.1769 -1.1007  1.1738
  118MOL0     H15926   7.598   8.231   7.932 -1.2996 -1.5142 -1.0882
  118MOL0     H15927   7.713   8.284   8.060  1.2280 -1.1724  1.2122
  118MOL0     H15928   7.642   7.918   8.233  2.5227  2.0521  3.3466
  118MOL0     H15929   8.013   7.972   7.357 -0.7331 -1.0217 -0.3677
  118MOL0     H15930   8.193   7.808   7.264  3.6178  3.5470 -0.1102
  119MOL0     O15931   7.608   3.814  10.770 -0.0494  0.1197 -0.3713
  119MOL0     C15932   7.514   3.860  10.716  0.5048  0.8420  0.2077
  119MOL0     O15933   7.384   3.828  10.752 -0.3074 -0.1544  1.0436
  119MOL0     C15934   7.343   3.739  10.850 -0.9130  0.1895 -0.2787
  119MOL0     C15935   7.260   3.791  10.951 -0.1462  0.3657  0.0132
  119MOL0     C15936   7.204   3.695  11.046 -0.0923 -0.2861  0.0027
  119MOL0     C15937   7.225   3.560  11.037 -0.1420  1.2606 -0.5018
  119MOL0     O15938   7.179   3.471  11.133 -0.3298 -0.1779 -0.7927
  119MOL0     C15939   7.119   3.526  11.256  0.2092 -0.4720  0.6725
  119MOL0     C15940   7.217   3.550  11.367 -0.5183  0.7898  0.2740
  119MOL0     C15941   7.298   3.421  11.419 -0.1738 -0.4135  0.5655
  119MOL0     C15942   7.408   3.460  11.515 -1.0004  0.6490 -1.1425
  119MOL0     C15943   7.498   3.343  11.547 -0.1712  0.6181  0.8154
  119MOL0     C15944   7.444   3.259  11.663  0.1776  0.8839 -1.0712
  119MOL0     C15945   7.546   3.176  11.734 -0.1230  0.3168 -0.7508
  119MOL0     C15946   7.581   3.203  11.880 -0.4400 -0.4659  0.4375
  119MOL0     N15947   7.466   3.181  11.968 -0.5290 -0.0841 -0.3093
  119MOL0     C15948   7.344   3.130  11.936  0.0510  0.0397  0.0965
  119MOL0     C15949   7.256   3.143  12.043  0.7243  0.1242 -1.5379
  119MOL0     C15950   7.107   3.128  12.047 -0.2580 -0.5319 -0.5948
  119MOL0     C15951   7.061   2.987  12.106  0.0968 -0.0735  0.4646
  119MOL0     C15952   6.906   2.998  12.129 -0.0455  0.4098 -0.1609
  119MOL0     C15953   6.825   2.953  12.010  0.0448  0.4635  0.4687
  119MOL0     O15954   6.711   3.034  11.993  1.1702  0.7006  0.1162
  119MOL0     C15955   6.659   3.017  11.870  0.2606 -0.0845  0.4329
  119MOL0     C15956   6.616   2.893  11.824  0.6491 -0.6598  0.3767
  119MOL0     C15957   6.543   2.882  11.697 -0.4703  0.2867  0.0678
  119MOL0     C15958   6.499   2.740  11.652 -1.1343 -0.1012  0.3001
  119MOL0     C15959   6.517   3.001  11.615  0.5038  0.2727 -0.3655
  119MOL0     C15960   6.444   2.998  11.481 -0.3656 -0.1542 -0.0081
  119MOL0     O15961   6.402   3.121  11.431 -0.1071 -0.7124 -0.8410
  119MOL0     C15962   6.306   3.124  11.332 -0.1512  0.3967 -0.9392
  119MOL0     C15963   6.312   3.081  11.200  0.0435 -1.1522 -0.4625
  119MOL0     C15964   6.206   3.086  11.104 -0.1786  0.3981 -0.6252
  119MOL0     C15965   6.084   3.139  11.145  0.5267 -0.0999  0.4318
  119MOL0     O15966   5.985   3.153  11.059  0.1214 -0.0015 -0.6350
  119MOL0     C15967   5.847   3.210  11.096 -0.8813  1.3379 -0.4780
  119MOL0     C15968   5.741   3.164  10.994  0.2841  0.2079 -0.0086
  119MOL0     C15969   5.652   3.285  10.950  0.3362 -0.0230  0.2330
  119MOL0     C15970   5.546   3.223  10.852  0.1689  0.2089 -0.2717
  119MOL0     C15971   5.454   3.321  10.784  0.1463  0.0917  0.2343
  119MOL0     C15972   5.343   3.260  10.685  0.4027  0.4318 -0.4657
  119MOL0     C15973   5.218   3.354  10.678 -0.2193  0.1029 -0.6312
  119MOL0     C15974   5.252   3.484  10.604 -0.2467  0.6432 -0.3088
  119MOL0    Cl15975   5.117   3.597  10.650  0.2382 -0.2956  0.2067
  119MOL0     C15976   6.063   3.166  11.286 -0.1406  1.0077 -0.3838
  119MOL0     C15977   6.180   3.163  11.370  1.0628 -0.6633 -0.4201
  119MOL0     O15978   6.442   2.896  11.411 -0.9045 -0.1387  0.1213
  119MOL0     C15979   6.571   3.119  11.669  0.0522 -0.6742  0.9374
  119MOL0     C15980   6.633   3.130  11.791 -0.4718  0.4837 -0.4930
  119MOL0     N15981   7.336   3.197  12.143  0.2524 -0.4539  0.8971
  119MOL0     N15982   7.459   3.216  12.097 -0.0396  0.0515 -0.8030
  119MOL0     C15983   7.305   3.515  10.936  0.4897 -0.0168 -0.9232
  119MOL0     C15984   7.367   3.600  10.844 -0.0560  0.4069  0.6226
  119MOL0     C15985   7.537   3.977  10.617  0.1250  0.4192  0.7846
  119MOL0     C15986   7.426   4.043  10.566 -0.1567  0.3796 -0.4854
  119MOL0     C15987   7.432   4.131  10.462 -0.4082 -0.0578  0.5805
  119MOL0     C15988   7.561   4.169  10.407 -0.7584 -0.3010  0.8342
  119MOL0     O15989   7.567   4.265  10.314  0.4425 -0.1495  0.8476
  119MOL0     C15990   7.639   4.237  10.192 -0.3326 -0.6435 -0.6227
  119MOL0     C15991   7.561   4.144  10.095  0.7884 -0.5574  0.5873
  119MOL0     C15992   7.640   4.129   9.961 -0.4823 -0.1067  0.2651
  119MOL0     C15993   7.565   4.030   9.859  0.4205  0.3265 -1.1026
  119MOL0     C15994   7.444   4.096   9.807 -0.3831  0.7498  0.4503
  119MOL0     C15995   7.344   4.162   9.787 -0.6990 -0.6732  0.3779
  119MOL0     C15996   7.683   4.099  10.447 -0.1092 -0.2754 -1.2658
  119MOL0     C15997   7.667   3.999  10.554 -0.3866 -0.2205  0.5180
  119MOL0     H15998   7.238   3.898  10.951 -0.0022  0.4299 -1.5967
  119MOL0     H15999   7.142   3.749  11.117 -2.3712  0.0418 -2.0993
  119MOL0     H16000   7.060   3.617  11.239 -0.4438 -1.3187 -2.1671
  119MOL0     H16001   7.042   3.453  11.281 -2.3905  1.9957  0.3805
  119MOL0     H16002   7.300   3.607  11.324 -1.4435  1.6111 -0.4605
  119MOL0     H16003   7.167   3.594  11.453 -1.7080 -1.7360  0.9696
  119MOL0     H16004   7.246   3.335  11.462 -0.3826  0.3366  1.8518
  119MOL0     H16005   7.338   3.379  11.326 -2.8674 -0.1284 -0.8217
  119MOL0     H16006   7.476   3.531  11.466  2.4938 -1.2793  0.5133
  119MOL0     H16007   7.375   3.496  11.613 -0.4795 -3.0619  0.5762
  119MOL0     H16008   7.499   3.276  11.461 -0.8084  0.7416  0.7072
  119MOL0     H16009   7.596   3.383  11.574 -0.4345 -0.0642  2.9138
  119MOL0     H16010   7.395   3.320  11.740  1.3608  0.1563  0.3176
  119MOL0     H16011   7.362   3.199  11.623  1.4337 -1.4107 -0.3843
  119MOL0     H16012   7.500   3.078  11.726 -1.5807  0.9573 -0.4950
  119MOL0     H16013   7.636   3.173  11.672  0.7819  0.7061  0.4918
  119MOL0     H16014   7.620   3.305  11.894  2.4272 -0.8629 -3.2709
  119MOL0     H16015   7.664   3.135  11.904  0.0397 -0.3066 -0.7261
  119MOL0     H16016   7.306   3.113  11.836 -4.6134 -0.8286  1.7693
  119MOL0     H16017   7.064   3.205  12.110  0.4977  0.4770 -1.2852
  119MOL0     H16018   7.081   3.143  11.941  0.3018 -2.0290 -0.9811
  119MOL0     H16019   7.112   2.960  12.199  0.2609 -0.9547  0.1304
  119MOL0     H16020   7.082   2.901  12.043 -1.7584 -1.3236  1.4490
  119MOL0     H16021   6.862   3.093  12.160  0.1051  0.0729  1.1433
  119MOL0     H16022   6.877   2.927  12.207 -1.3845 -1.1847 -1.9972
  119MOL0     H16023   6.808   2.846  12.021 -0.7908  0.3867 -1.2120
  119MOL0     H16024   6.881   2.972  11.918 -1.1204  0.5885 -0.2295
  119MOL0     H16025   6.631   2.799  11.876  2.3987  0.1445  1.4146
  119MOL0     H16026   6.401   2.742  11.603 -0.7181  2.0444 -0.5406
  119MOL0     H16027   6.569   2.702  11.577 -0.5539 -0.0169  0.7945
  119MOL0     H16028   6.500   2.676  11.740 -1.9162  0.4259  0.7091
  119MOL0     H16029   6.412   3.050  11.171 -0.1779 -2.1651 -0.1444
  119MOL0     H16030   6.220   3.056  11.000  0.5132  0.5571 -0.5818
  119MOL0     H16031   5.817   3.164  11.191  0.4125  3.3633  1.0166
  119MOL0     H16032   5.863   3.318  11.098  2.3035  0.9617  0.0182
  119MOL0     H16033   5.789   3.127  10.903 -1.4238 -0.5789 -0.6211
  119MOL0     H16034   5.683   3.084  11.040  0.2329 -0.8022 -1.7362
  119MOL0     H16035   5.715   3.363  10.904  0.3377 -0.4245 -0.4587
  119MOL0     H16036   5.605   3.337  11.034  0.8951  3.6804 -1.5482
  119MOL0     H16037   5.588   3.156  10.776 -2.3228 -2.7250  0.7412
  119MOL0     H16038   5.485   3.152  10.910 -0.4138  1.7530  1.0623
  119MOL0     H16039   5.518   3.392  10.732  0.2101 -0.8980 -1.0864
  119MOL0     H16040   5.397   3.382  10.855 -0.4983  0.6461 -0.7473
  119MOL0     H16041   5.383   3.237  10.585  2.4208 -1.1039  0.6141
  119MOL0     H16042   5.308   3.165  10.725  2.0944  0.4953  1.2905
  119MOL0     H16043   5.195   3.379  10.782 -0.8917  0.7479 -0.9244
  119MOL0     H16044   5.137   3.295  10.635  0.9415 -2.2540  0.2191
  119MOL0     H16045   5.237   3.448  10.502 -0.2293 -4.1978  1.1686
  119MOL0     H16046   5.352   3.527  10.618 -0.4351  1.6607 -1.7891
  119MOL0     H16047   5.974   3.203  11.336 -1.2773  0.9905 -2.3110
  119MOL0     H16048   6.161   3.192  11.473  2.0838 -1.0414 -0.1067
  119MOL0     H16049   6.543   3.207  11.612 -0.5936 -0.5498  1.4329
  119MOL0     H16050   6.662   3.219  11.846 -0.9748  1.4185 -1.6904
  119MOL0     H16051   7.313   3.407  10.941  2.2855  0.0521 -1.7310
  119MOL0     H16052   7.427   3.555  10.766 -0.6311  0.7881 -0.0501
  119MOL0     H16053   7.328   4.030  10.611  0.4697  1.2360  1.2028
  119MOL0     H16054   7.343   4.183  10.427 -1.8321 -2.3037  0.6350
  119MOL0     H16055   7.643   4.338  10.150 -2.7081  0.8022  2.2362
  119MOL0     H16056   7.742   4.209  10.216 -0.4518  0.0651  0.8477
  119MOL0     H16057   7.462   4.188  10.077 -0.2888 -1.7302  3.1675
  119MOL0     H16058   7.554   4.044  10.138  0.2209 -0.5613  0.4935
  119MOL0     H16059   7.741   4.091   9.977 -0.5366 -1.8118 -2.6718
  119MOL0     H16060   7.643   4.218   9.898  0.5001 -1.1140 -1.1677
  119MOL0     H16061   7.539   3.932   9.903 -0.2781  0.5462 -1.0127
  119MOL0     H16062   7.624   4.012   9.769  1.4232  0.9569 -0.5955
  119MOL0     H16063   7.258   4.225   9.775 -2.2992 -3.1116 -2.0042
  119MOL0     H16064   7.782   4.113  10.405 -0.1022 -1.5834 -1.7379
  119MOL0     H16065   7.753   3.947  10.593 -1.1686 -1.0193  1.2374
  120MOL0     O16066   5.289   5.898   4.825  0.5969  0.1962  0.2612
  120MOL0     C16067   5.199   5.944   4.765 -0.5929  0.3375 -0.3070
  120MOL0     O16068   5.077   5.956   4.812  0.2831 -0.0913  0.0789
  120MOL0     C16069   5.051   5.977   4.950 -0.5581 -0.4153  0.6757
  120MOL0     C16070   4.918   5.989   4.980 -0.3624  0.7864 -0.0927
  120MOL0     C16071   4.860   5.997   5.099 -0.5211 -0.1493 -0.5196
  120MOL0     C16072   4.945   6.013   5.212 -0.1998 -0.0894 -0.0963
  120MOL0     O16073   4.896   6.024   5.337 -0.0895 -0.0935 -0.5215
  120MOL0     C16074   4.848   5.907   5.398  0.6176 -0.2125  0.7775
  120MOL0     C16075   4.956   5.837   5.472 -0.9632 -0.3501  0.3706
  120MOL0     C16076   4.899   5.725   5.554  0.8286  1.3924 -0.4229
  120MOL0     C16077   4.843   5.770   5.689  0.0927 -0.1860 -0.4042
  120MOL0     C16078   4.831   5.665   5.793  0.1804 -0.3876  0.3184
  120MOL0     C16079   4.757   5.541   5.753 -0.4596 -0.7142  0.1473
  120MOL0     C16080   4.786   5.421   5.841 -0.1742 -0.1968  1.0495
  120MOL0     C16081   4.818   5.436   5.992  0.1710 -0.2726  0.0571
  120MOL0     N16082   4.712   5.490   6.071  0.0769 -0.2666  0.4158
  120MOL0     C16083   4.734   5.583   6.168  1.4416  0.7283  0.2196
  120MOL0     C16084   4.615   5.644   6.199  0.1664 -0.5452  0.5029
  120MOL0     C16085   4.596   5.749   6.300 -0.2274  0.4048 -1.5358
  120MOL0     C16086   4.547   5.706   6.437  0.8001 -0.7936 -0.0330
  120MOL0     C16087   4.605   5.572   6.493 -0.2392  0.1644 -0.5414
  120MOL0     C16088   4.530   5.533   6.617  0.2512 -0.3286 -0.4147
  120MOL0     O16089   4.392   5.492   6.593  0.1871  0.0254 -0.2932
  120MOL0     C16090   4.330   5.415   6.689 -0.1850  0.1635 -0.4168
  120MOL0     C16091   4.193   5.378   6.667 -0.5369 -0.1112 -0.5118
  120MOL0     C16092   4.134   5.295   6.767 -0.7319 -0.7413  0.8228
  120MOL0     C16093   3.990   5.268   6.740  1.2395  0.9285  0.1189
  120MOL0     C16094   4.200   5.248   6.887  0.5487  0.5255  0.2172
  120MOL0     C16095   4.135   5.166   6.991 -0.0386  0.1263 -1.0390
  120MOL0     O16096   4.162   5.198   7.122  0.1773  0.6754  0.4267
  120MOL0     C16097   4.091   5.127   7.214  0.2541  0.7604 -0.2923
  120MOL0     C16098   4.064   4.994   7.235  0.1427  0.1700 -0.1001
  120MOL0     C16099   3.981   4.960   7.346 -0.8907  1.0810  0.8657
  120MOL0     C16100   3.928   5.049   7.441 -0.6430  0.2951  0.5891
  120MOL0     O16101   3.847   5.001   7.537  0.9582  0.1980 -0.8700
  120MOL0     C16102   3.732   5.077   7.552  0.2662  0.4780 -0.3667
  120MOL0     C16103   3.625   4.990   7.634  0.2561 -0.9356  0.8741
  120MOL0     C16104   3.498   5.083   7.660  0.2947 -0.1267  0.1565
  120MOL0     C16105   3.359   5.004   7.654  0.2649  0.4531  0.7834
  120MOL0     C16106   3.228   5.070   7.704  0.6544  0.9038 -0.1531
  120MOL0     C16107   3.119   4.968   7.712  0.9395  0.4409  0.3381
  120MOL0     C16108   3.151   4.874   7.831 -0.6549  0.5115  0.4399
  120MOL0     C16109   3.021   4.809   7.888 -0.0363  0.6864 -0.0438
  120MOL0    Cl16110   2.935   4.732   7.750  0.3760 -0.0923  0.3177
  120MOL0     C16111   3.969   5.186   7.420  0.9779 -0.4741 -0.7092
  120MOL0     C16112   4.037   5.225   7.303  0.8723  0.8124  0.2128
  120MOL0     O16113   4.055   5.080   6.950  0.2580 -0.3636  0.0940
  120MOL0     C16114   4.331   5.283   6.902 -0.4012 -0.6398 -0.8613
  120MOL0     C16115   4.390   5.366   6.804 -0.8280 -1.1637  0.0783
  120MOL0     N16116   4.520   5.578   6.121  0.7557 -0.6489  0.5063
  120MOL0     N16117   4.577   5.489   6.049 -0.3821  0.4206 -0.7505
  120MOL0     C16118   5.083   6.004   5.194  0.0075 -0.2429 -0.1571
  120MOL0     C16119   5.132   5.988   5.064 -0.2507 -0.0158  0.1167
  120MOL0     C16120   5.224   5.970   4.617  0.3354 -1.5450 -0.0432
  120MOL0     C16121   5.338   5.920   4.545 -0.4782 -0.4414 -1.0406
  120MOL0     C16122   5.350   5.949   4.416  0.2421  0.3106  0.7009
  120MOL0     C16123   5.257   6.029   4.350  0.8580  0.8316  0.2555
  120MOL0     O16124   5.251   6.043   4.216  0.4216  0.8020  0.1037
  120MOL0     C16125   5.286   5.933   4.129  0.3762 -1.2269  0.9701
  120MOL0     C16126   5.248   5.968   3.979  0.0149  0.9025 -0.5225
  120MOL0     C16127   5.282   6.119   3.949  0.3545  0.3543  0.8200
  120MOL0     C16128   5.424   6.166   3.968 -0.1944  0.8445 -0.5304
  120MOL0     C16129   5.528   6.088   3.897  0.1222  0.2737  0.4768
  120MOL0     C16130   5.609   6.032   3.822 -0.8136  0.6401  0.8853
  120MOL0     C16131   5.142   6.077   4.416 -0.1288 -0.7459  0.1021
  120MOL0     C16132   5.135   6.055   4.555  1.1979 -0.0814 -0.7436
  120MOL0     H16133   4.858   5.974   4.891  0.0561  0.0905 -0.2658
  120MOL0     H16134   4.752   5.998   5.109 -0.6856  2.8325 -1.4523
  120MOL0     H16135   4.765   5.929   5.467  0.7394 -2.1706  1.5869
  120MOL0     H16136   4.805   5.841   5.322  0.1548  1.2865 -0.3162
  120MOL0     H16137   5.029   5.805   5.397  0.8743  1.8261  1.1121
  120MOL0     H16138   5.012   5.898   5.544 -1.5101 -1.7228  2.0359
  120MOL0     H16139   4.820   5.677   5.497  1.6688 -1.8698  0.9224
  120MOL0     H16140   4.974   5.648   5.576 -0.3936 -0.6133 -2.8347
  120MOL0     H16141   4.914   5.848   5.716 -0.0371  0.1568 -1.0226
  120MOL0     H16142   4.745   5.818   5.681  0.9290  1.9852  1.6809
  120MOL0     H16143   4.936   5.654   5.823  0.7488  4.6455  1.1118
  120MOL0     H16144   4.788   5.699   5.888  0.5612 -0.6710  0.5961
  120MOL0     H16145   4.648   5.547   5.745 -0.3081  1.8278 -1.0848
  120MOL0     H16146   4.792   5.503   5.656  3.3732 -2.1361  1.8505
  120MOL0     H16147   4.704   5.348   5.833 -0.6675  0.5419 -2.1806
  120MOL0     H16148   4.871   5.370   5.794 -0.6947 -0.9885  0.9352
  120MOL0     H16149   4.910   5.492   6.004  0.6080 -1.0545  0.4357
  120MOL0     H16150   4.837   5.333   6.023 -0.8211 -0.2423  0.8180
  120MOL0     H16151   4.824   5.610   6.221  1.7630 -1.3619  0.8208
  120MOL0     H16152   4.688   5.803   6.319  0.5247 -0.7636 -1.7439
  120MOL0     H16153   4.526   5.821   6.257 -1.8813 -0.8109 -0.9880
  120MOL0     H16154   4.441   5.697   6.412  1.1089  0.3649 -1.9459
  120MOL0     H16155   4.554   5.780   6.517 -1.2851  0.4337 -0.8908
  120MOL0     H16156   4.712   5.581   6.516 -0.3050 -1.6411  0.6315
  120MOL0     H16157   4.595   5.492   6.420 -1.0408 -1.3251  1.1199
  120MOL0     H16158   4.523   5.609   6.696 -1.7425 -1.6310  0.7656
  120MOL0     H16159   4.587   5.446   6.650 -0.7168 -1.0571 -0.6267
  120MOL0     H16160   4.134   5.410   6.582  0.3911  0.6032 -0.9079
  120MOL0     H16161   3.930   5.301   6.655  0.7646 -4.3354 -1.9570
  120MOL0     H16162   3.973   5.161   6.726  0.9387  0.9883 -0.0067
  120MOL0     H16163   3.929   5.298   6.826 -3.0623  1.5999 -2.8241
  120MOL0     H16164   4.085   4.909   7.171 -1.3050 -0.4441  0.1864
  120MOL0     H16165   3.944   4.859   7.360 -1.2038  1.1055  0.2445
  120MOL0     H16166   3.760   5.165   7.610 -1.8609  0.2209  1.1507
  120MOL0     H16167   3.682   5.114   7.462 -2.6931  0.8802  1.3269
  120MOL0     H16168   3.599   4.904   7.572 -1.8940  0.0981  0.2482
  120MOL0     H16169   3.659   4.953   7.731  0.5371  2.5941  2.2636
  120MOL0     H16170   3.494   5.174   7.600  0.1367 -0.3529 -0.1768
  120MOL0     H16171   3.505   5.122   7.762  0.7837  1.4783 -0.4597
  120MOL0     H16172   3.343   4.982   7.548 -0.6370  0.7646  0.8439
  120MOL0     H16173   3.370   4.907   7.704 -1.3015  0.6953  1.6428
  120MOL0     H16174   3.204   5.150   7.634  0.9282 -0.4796 -1.9171
  120MOL0     H16175   3.249   5.112   7.803 -0.7197  3.8748 -1.0354
  120MOL0     H16176   3.024   5.021   7.719  1.1544  0.8095  0.5005
  120MOL0     H16177   3.125   4.903   7.624  2.0092 -0.2458  0.8955
  120MOL0     H16178   3.200   4.936   7.908 -3.0858  2.8207  0.2636
  120MOL0     H16179   3.227   4.799   7.809 -0.2151  0.2092  2.6843
  120MOL0     H16180   2.956   4.876   7.945 -1.6078 -0.2098 -0.7038
  120MOL0     H16181   3.067   4.731   7.950  2.1153  0.1901 -2.1336
  120MOL0     H16182   3.946   5.267   7.488 -3.5822 -0.4280 -1.9738
  120MOL0     H16183   4.046   5.333   7.299  4.5974  0.5935 -3.0284
  120MOL0     H16184   4.392   5.250   6.986 -2.5521 -2.5448  0.0453
  120MOL0     H16185   4.495   5.390   6.814 -1.1390  1.0679 -1.3974
  120MOL0     H16186   5.153   6.000   5.276  1.2592  0.0621 -1.1805
  120MOL0     H16187   5.240   5.974   5.060 -0.1178 -0.4952  3.0733
  120MOL0     H16188   5.406   5.855   4.599 -1.1516  0.1941  0.6519
  120MOL0     H16189   5.439   5.918   4.362  1.3377  0.7926  2.1531
  120MOL0     H16190   5.393   5.929   4.150  1.2244  1.2864 -2.0057
  120MOL0     H16191   5.236   5.839   4.151 -0.3850 -1.5548 -1.7753
  120MOL0     H16192   5.140   5.947   3.984  0.4976 -1.6148  0.9995
  120MOL0     H16193   5.291   5.897   3.909  0.2016  0.7793 -0.2842
  120MOL0     H16194   5.219   6.189   4.005  0.3896  3.0986 -2.2741
  120MOL0     H16195   5.251   6.123   3.845 -2.7024 -3.4076  1.3611
  120MOL0     H16196   5.444   6.160   4.075  0.5987 -0.7646 -0.7503
  120MOL0     H16197   5.421   6.270   3.933 -0.8343  1.1648  0.4350
  120MOL0     H16198   5.669   5.983   3.748 -1.7518 -0.0233  0.5575
  120MOL0     H16199   5.054   6.127   4.377  0.2552  0.8050  1.1641
  120MOL0     H16200   5.052   6.106   4.602 -2.0180 -4.0896 -1.4742
  121MOL0     O16201   5.211   8.990  10.852 -0.7926 -0.7922  0.4232
  121MOL0     C16202   5.222   8.938  10.961  0.3336 -0.5173  0.0523
  121MOL0     O16203   5.177   8.822  11.007 -0.5254  0.4902 -0.3308
  121MOL0     C16204   5.141   8.715  10.927  1.2721 -0.4288 -2.1043
  121MOL0     C16205   5.145   8.712  10.784 -0.0300  0.0810 -0.0751
  121MOL0     C16206   5.107   8.592  10.718 -0.4289 -0.5952 -0.1376
  121MOL0     C16207   5.060   8.482  10.788 -0.6955  0.0235 -0.7576
  121MOL0     O16208   5.022   8.374  10.717  0.3538  0.2374 -0.0527
  121MOL0     C16209   4.950   8.259  10.761 -0.3469 -0.3008 -0.2811
  121MOL0     C16210   4.871   8.192  10.638 -0.1799  0.3503 -0.2600
  121MOL0     C16211   4.834   8.048  10.662  0.5208 -0.5482  0.5678
  121MOL0     C16212   4.721   8.011  10.568 -0.0877 -0.6509  0.3326
  121MOL0     C16213   4.669   7.871  10.551 -0.5727  0.6124  0.5291
  121MOL0     C16214   4.780   7.768  10.524 -0.3604 -0.4686 -0.2439
  121MOL0     C16215   4.719   7.634  10.503 -1.0369  0.2855  0.9671
  121MOL0     C16216   4.610   7.626  10.396  0.6442 -0.5524  0.1213
  121MOL0     N16217   4.602   7.486  10.352  0.2913  1.4063  0.1037
  121MOL0     C16218   4.684   7.436  10.252  0.5470  0.7666  0.6434
  121MOL0     C16219   4.663   7.299  10.253 -0.4757 -0.0999 -0.8163
  121MOL0     C16220   4.717   7.198  10.156  0.6769 -0.7387  0.0845
  121MOL0     C16221   4.872   7.216  10.152  0.7354  0.4517  0.0909
  121MOL0     C16222   4.920   7.163  10.009 -0.0155 -0.6926 -0.2139
  121MOL0     C16223   5.064   7.118  10.028  0.1531 -0.2827  0.4037
  121MOL0     O16224   5.125   7.066   9.904  0.8533  0.0103 -0.1101
  121MOL0     C16225   5.074   6.954   9.850 -0.5048  0.6042 -0.3548
  121MOL0     C16226   5.122   6.839   9.897  0.2824 -0.6136 -0.3039
  121MOL0     C16227   5.073   6.713   9.846 -0.3552  0.0753 -0.9580
  121MOL0     C16228   5.123   6.584   9.912  0.0382 -0.4296  0.2740
  121MOL0     C16229   4.979   6.715   9.737  0.4080  0.4810 -0.3153
  121MOL0     C16230   4.919   6.582   9.680 -0.4608 -0.5551 -1.0528
  121MOL0     O16231   4.794   6.598   9.627  0.1019 -0.0393  0.2828
  121MOL0     C16232   4.730   6.496   9.565 -1.0470 -0.6659  0.5683
  121MOL0     C16233   4.598   6.517   9.552  1.0515 -0.0922 -1.0328
  121MOL0     C16234   4.507   6.415   9.513 -0.3985  0.6712 -0.1123
  121MOL0     C16235   4.555   6.305   9.444 -0.2547 -0.2246  0.3069
  121MOL0     O16236   4.479   6.202   9.391  0.2163 -0.2131  0.3354
  121MOL0     C16237   4.427   6.216   9.254 -0.7509  0.1630 -0.4715
  121MOL0     C16238   4.295   6.308   9.246 -0.5365 -0.4446 -0.4430
  121MOL0     C16239   4.258   6.310   9.096 -0.3066  0.3602 -0.0769
  121MOL0     C16240   4.212   6.176   9.035  0.1628  0.2127 -0.8069
  121MOL0     C16241   4.088   6.118   9.114 -0.5232  0.4936  0.1202
  121MOL0     C16242   4.032   5.997   9.042  0.3321  0.1641  0.0383
  121MOL0     C16243   4.144   5.888   9.017 -0.0140  0.4778 -0.4945
  121MOL0     C16244   4.089   5.763   8.949 -0.5304  1.1682 -0.7783
  121MOL0    Cl16245   3.970   5.704   9.078  0.2537  0.3438  0.1850
  121MOL0     C16246   4.702   6.309   9.430  0.1378  0.2369  0.1471
  121MOL0     C16247   4.791   6.388   9.498 -0.0017  0.2212  0.0284
  121MOL0     O16248   4.992   6.488   9.671  0.9906 -0.9424 -0.0396
  121MOL0     C16249   4.928   6.839   9.699  0.9857  0.2749  0.6822
  121MOL0     C16250   4.977   6.961   9.757 -0.1022  0.1805  0.1656
  121MOL0     N16251   4.565   7.270  10.347  0.8162 -0.0414 -0.5178
  121MOL0     N16252   4.529   7.386  10.406  0.1528  0.8963 -0.1335
  121MOL0     C16253   5.049   8.486  10.925 -0.6883 -0.2287 -1.0431
  121MOL0     C16254   5.093   8.599  10.991  0.2002 -0.6862  0.0740
  121MOL0     C16255   5.300   9.009  11.063 -0.5328 -0.2293 -0.2304
  121MOL0     C16256   5.384   9.126  11.035 -0.7687 -0.4292  0.8011
  121MOL0     C16257   5.475   9.184  11.127 -0.3861 -0.3477 -0.3635
  121MOL0     C16258   5.489   9.127  11.257 -1.0079  0.3827  0.8970
  121MOL0     O16259   5.586   9.196  11.327  0.4662 -0.1253 -0.2268
  121MOL0     C16260   5.610   9.148  11.459 -0.6738 -0.2222 -0.2881
  121MOL0     C16261   5.711   9.246  11.530  0.2239 -0.6436  0.1177
  121MOL0     C16262   5.680   9.400  11.514 -1.0826 -0.1779 -0.5691
  121MOL0     C16263   5.794   9.479  11.588  0.2362 -0.3731 -0.0629
  121MOL0     C16264   5.798   9.456  11.731  0.4104 -0.4234 -0.3686
  121MOL0     C16265   5.788   9.442  11.847  0.3096  0.7653  1.1710
  121MOL0     C16266   5.410   9.022  11.290  1.2962 -0.1178 -0.8451
  121MOL0     C16267   5.315   8.959  11.193  0.6526 -0.6525  0.6646
  121MOL0     H16268   5.182   8.802  10.736 -1.0018 -0.2867 -1.5865
  121MOL0     H16269   5.128   8.587  10.612  2.4286  1.3063  0.2242
  121MOL0     H16270   5.017   8.182  10.800 -1.6921 -1.1837  0.3477
  121MOL0     H16271   4.886   8.290  10.844  2.8323 -3.3791  3.7684
  121MOL0     H16272   4.776   8.240  10.615 -1.7311 -2.0770  0.7378
  121MOL0     H16273   4.931   8.209  10.548 -1.2663  0.1500 -1.0351
  121MOL0     H16274   4.906   7.971  10.632  0.0349 -0.6699 -0.2944
  121MOL0     H16275   4.795   8.031  10.763  1.1675  0.5208  1.0051
  121MOL0     H16276   4.637   8.074  10.598 -0.8280 -1.5400  0.1506
  121MOL0     H16277   4.763   8.037  10.470 -0.7969  2.1516  0.7009
  121MOL0     H16278   4.610   7.845  10.639  1.3514 -0.3818  1.5895
  121MOL0     H16279   4.601   7.868  10.465 -1.8513 -4.2635  1.3988
  121MOL0     H16280   4.816   7.802  10.426 -0.9932 -1.2859 -0.7692
  121MOL0     H16281   4.859   7.764  10.599 -0.3420  0.1145 -0.2260
  121MOL0     H16282   4.795   7.567  10.460 -1.0334  3.1719 -4.3935
  121MOL0     H16283   4.674   7.593  10.594 -4.7294 -0.2681 -0.9348
  121MOL0     H16284   4.646   7.682  10.309  0.8507 -0.1857  0.4423
  121MOL0     H16285   4.516   7.664  10.437  0.3559 -0.6562 -0.4227
  121MOL0     H16286   4.756   7.495  10.196  1.3703  0.3157  1.2290
  121MOL0     H16287   4.688   7.096  10.181 -1.5139  0.4305  2.9546
  121MOL0     H16288   4.688   7.206  10.051  1.3843  0.1492 -0.0576
  121MOL0     H16289   4.922   7.163  10.233  0.4405 -1.4789 -0.9112
  121MOL0     H16290   4.895   7.322  10.162 -4.6983  1.7590  1.9354
  121MOL0     H16291   4.899   7.242   9.937  2.8835  2.2418  1.8647
  121MOL0     H16292   4.867   7.073   9.977 -1.9896 -0.4255  1.9825
  121MOL0     H16293   5.074   7.042  10.106  2.1812  0.1516  0.6229
  121MOL0     H16294   5.120   7.207  10.058 -2.4261  1.4494  0.4448
  121MOL0     H16295   5.191   6.850   9.980  1.1863 -2.2904 -0.7976
  121MOL0     H16296   5.126   6.590  10.021  1.1710 -2.4852  0.4149
  121MOL0     H16297   5.053   6.500   9.911  1.2853 -1.5137 -1.0364
  121MOL0     H16298   5.216   6.546   9.869  0.2579  0.1488  0.2260
  121MOL0     H16299   4.559   6.597   9.615 -2.8095 -1.7085 -1.1218
  121MOL0     H16300   4.401   6.420   9.533 -0.0632  2.1577  1.6124
  121MOL0     H16301   4.518   6.247   9.201 -0.7962 -0.1349 -0.7254
  121MOL0     H16302   4.399   6.120   9.209  1.8446 -2.5012  2.9664
  121MOL0     H16303   4.221   6.269   9.316 -1.9018 -1.0549 -2.1476
  121MOL0     H16304   4.324   6.410   9.271  0.8701 -1.5530  3.0040
  121MOL0     H16305   4.346   6.341   9.040  1.2451  0.6534  2.3855
  121MOL0     H16306   4.184   6.390   9.086  1.2187  1.8770  0.2619
  121MOL0     H16307   4.182   6.190   8.931 -4.0746 -0.8967  0.0837
  121MOL0     H16308   4.293   6.102   9.027 -1.6047 -1.6193 -2.9823
  121MOL0     H16309   4.002   6.185   9.120 -1.5575 -0.6736 -0.9784
  121MOL0     H16310   4.115   6.094   9.217 -1.6763 -1.3236  0.0437
  121MOL0     H16311   3.955   5.945   9.100  1.0342 -5.4677 -3.3620
  121MOL0     H16312   3.987   6.036   8.951 -1.3833  2.4291  1.7400
  121MOL0     H16313   4.202   5.872   9.108  1.1308  1.4147 -1.0392
  121MOL0     H16314   4.202   5.939   8.940  0.7200  2.9890  1.5735
  121MOL0     H16315   4.178   5.701   8.936 -0.9470 -1.0179  4.5297
  121MOL0     H16316   4.036   5.786   8.856 -3.9751  0.0202  0.7414
  121MOL0     H16317   4.738   6.237   9.358 -1.6207 -0.3159 -0.2474
  121MOL0     H16318   4.899   6.378   9.499  0.4281  2.4802 -4.0419
  121MOL0     H16319   4.839   6.849   9.638  0.3054 -3.2605  0.8858
  121MOL0     H16320   4.938   7.060   9.733  0.4524 -0.0137 -1.7780
  121MOL0     H16321   5.022   8.395  10.979 -0.3037 -0.3757 -1.0971
  121MOL0     H16322   5.103   8.609  11.098  1.6667  3.1061 -0.2683
  121MOL0     H16323   5.375   9.180  10.941  0.7690  0.5884  1.2093
  121MOL0     H16324   5.539   9.268  11.100  2.2969 -2.2796 -0.3766
  121MOL0     H16325   5.514   9.156  11.512  0.2980 -0.4980  1.6031
  121MOL0     H16326   5.644   9.044  11.456 -1.0119 -0.4094  1.3846
  121MOL0     H16327   5.815   9.229  11.504 -0.1451 -3.4145  0.1668
  121MOL0     H16328   5.700   9.225  11.637 -0.1980  2.1083  0.6992
  121MOL0     H16329   5.578   9.418  11.550 -1.7852  2.0213 -3.2985
  121MOL0     H16330   5.675   9.426  11.408 -0.4812 -0.1402 -0.5873
  121MOL0     H16331   5.776   9.587  11.590 -0.8375 -0.5389  2.1297
  121MOL0     H16332   5.887   9.443  11.543 -1.5326 -3.1989 -1.7408
  121MOL0     H16333   5.781   9.428  11.953  2.5490 -0.3005  1.2507
  121MOL0     H16334   5.411   8.987  11.392  2.3986 -1.2181 -1.2002
  121MOL0     H16335   5.263   8.871  11.228 -2.6940  0.9014 -0.0454
  122MOL0     O16336   9.919   3.774   2.771 -0.4909  0.3283  0.4831
  122MOL0     C16337   9.825   3.700   2.755  0.6543  0.0388 -0.8896
  122MOL0     O16338   9.819   3.582   2.682 -1.1515 -0.0748  0.4497
  122MOL0     C16339   9.948   3.552   2.633  1.2725  1.2535  0.4100
  122MOL0     C16340   9.966   3.543   2.492 -0.4889  0.7262  0.4948
  122MOL0     C16341  10.080   3.482   2.434 -0.9151  0.3462 -0.0005
  122MOL0     C16342  10.176   3.435   2.529 -0.0842  0.3504  1.2037
  122MOL0     O16343  10.282   3.365   2.472 -0.5103  0.3601 -0.8777
  122MOL0     C16344  10.368   3.288   2.563  0.9667  0.4070  0.5992
  122MOL0     C16345  10.463   3.176   2.509  0.4390 -0.3076  0.8474
  122MOL0     C16346  10.507   3.069   2.609  0.2215  0.4245 -0.1708
  122MOL0     C16347  10.561   3.145   2.735  0.1506  0.6043 -0.6418
  122MOL0     C16348  10.630   3.041   2.824  0.3120 -0.2656 -0.8202
  122MOL0     C16349  10.743   2.970   2.757 -1.0018 -1.3413 -0.9065
  122MOL0     C16350  10.869   2.927   2.843 -0.2677 -0.7423 -1.3069
  122MOL0     C16351  10.934   3.052   2.902  1.9925  0.1463 -0.7491
  122MOL0     N16352  11.078   3.023   2.925 -0.3299 -0.5504  0.0491
  122MOL0     C16353  11.152   3.073   3.027 -0.4340  0.0442 -0.2865
  122MOL0     C16354  11.276   3.032   2.990  0.1906 -0.0218 -0.4668
  122MOL0     C16355  11.387   3.084   3.065  0.6282  0.7129 -0.0122
  122MOL0     C16356  11.515   2.996   3.083 -0.2270  0.2257 -0.7063
  122MOL0     C16357  11.503   2.919   3.219 -0.4382 -0.0673  0.2123
  122MOL0     C16358  11.524   2.992   3.353 -0.3965 -0.4149  0.8468
  122MOL0     O16359  11.577   2.903   3.454 -1.1512  0.4281  0.6832
  122MOL0     C16360  11.495   2.808   3.504  1.2277 -0.2383 -0.5548
  122MOL0     C16361  11.549   2.721   3.590  0.0676  0.5507  0.5156
  122MOL0     C16362  11.479   2.614   3.639  0.7587 -0.0546 -0.5378
  122MOL0     C16363  11.542   2.536   3.753  0.3079 -1.6764  0.1621
  122MOL0     C16364  11.341   2.599   3.613  0.7066  0.0155  0.3290
  122MOL0     C16365  11.256   2.494   3.661 -0.2786  0.3909  0.8722
  122MOL0     O16366  11.314   2.370   3.626  0.0531 -0.0085 -0.0099
  122MOL0     C16367  11.237   2.254   3.612 -0.6674 -0.7989  1.1094
  122MOL0     C16368  11.312   2.143   3.622 -0.2049  0.0015 -0.1905
  122MOL0     C16369  11.262   2.021   3.610  0.1106  0.5547 -0.7684
  122MOL0     C16370  11.131   1.996   3.566  0.0165 -0.1968 -0.6420
  122MOL0     O16371  11.072   1.874   3.554  0.1002 -0.5843 -0.0175
  122MOL0     C16372  11.153   1.766   3.544  0.3876  1.0591  0.3161
  122MOL0     C16373  11.238   1.756   3.413 -0.1426  0.1832 -0.2990
  122MOL0     C16374  11.368   1.680   3.441 -0.5257 -0.0986  0.8406
  122MOL0     C16375  11.472   1.693   3.328 -1.2788  0.2164 -0.1021
  122MOL0     C16376  11.605   1.616   3.366  0.0751 -1.2093  0.0408
  122MOL0     C16377  11.714   1.647   3.262  0.0241 -0.1081  1.4581
  122MOL0     C16378  11.844   1.572   3.321 -0.3516 -0.9014 -0.1493
  122MOL0     C16379  11.966   1.604   3.234 -0.0595  0.0698 -0.6378
  122MOL0    Cl16380  12.126   1.577   3.325 -0.2863  0.1525  0.0503
  122MOL0     C16381  11.055   2.108   3.532 -0.6331  0.1713  1.1325
  122MOL0     C16382  11.108   2.243   3.552 -0.3307 -0.0232  0.3335
  122MOL0     O16383  11.145   2.513   3.708  0.3504 -0.8903 -0.4720
  122MOL0     C16384  11.281   2.703   3.526 -0.3465  0.0175 -0.2252
  122MOL0     C16385  11.355   2.812   3.479 -0.3473  0.3143 -0.5790
  122MOL0     N16386  11.283   2.952   2.873  0.2204  0.1350  0.5145
  122MOL0     N16387  11.152   2.960   2.835  0.1629 -0.2822 -0.7174
  122MOL0     C16388  10.163   3.450   2.666  0.5696 -1.1188  0.2230
  122MOL0     C16389  10.048   3.516   2.718  0.3805  0.2503 -0.4469
  122MOL0     C16390   9.690   3.742   2.810 -0.3711  0.1778  0.5627
  122MOL0     C16391   9.587   3.645   2.821  0.0873  0.0562  0.3968
  122MOL0     C16392   9.465   3.679   2.867  0.0867  0.5158  0.7110
  122MOL0     C16393   9.438   3.812   2.910  0.7553  0.1094 -0.1843
  122MOL0     O16394   9.306   3.836   2.942 -0.5341  0.0782  0.7105
  122MOL0     C16395   9.252   3.958   3.001 -0.0805  0.7859  0.3458
  122MOL0     C16396   9.307   3.970   3.137 -0.1665 -0.1225  1.0874
  122MOL0     C16397   9.310   4.116   3.186 -0.0824 -0.8257  0.1370
  122MOL0     C16398   9.431   4.197   3.129 -0.5485  0.3633  0.3387
  122MOL0     C16399   9.424   4.336   3.192 -1.1531 -0.1209 -0.2897
  122MOL0     C16400   9.410   4.453   3.217  0.8641 -0.5783  0.3524
  122MOL0     C16401   9.538   3.908   2.908  0.2168  0.2204 -0.6158
  122MOL0     C16402   9.657   3.872   2.850  0.0728  0.0670  0.0579
  122MOL0     H16403   9.889   3.560   2.417  0.6373  1.0075 -0.6293
  122MOL0     H16404  10.086   3.458   2.329 -0.1845 -0.7779  0.2791
  122MOL0     H16405  10.429   3.349   2.630  0.5518 -0.4131  1.7630
  122MOL0     H16406  10.299   3.233   2.629  2.2363 -1.4592  0.4415
  122MOL0     H16407  10.409   3.124   2.429 -0.1749 -0.0723  1.1103
  122MOL0     H16408  10.553   3.206   2.453 -1.5629  2.2940 -1.2055
  122MOL0     H16409  10.418   3.014   2.642 -1.3895  3.4334  0.8459
  122MOL0     H16410  10.583   3.007   2.561  0.6561  1.1538 -0.4253
  122MOL0     H16411  10.638   3.214   2.700  0.8574  0.1572  0.0005
  122MOL0     H16412  10.482   3.196   2.791 -1.2018 -0.2535 -1.6695
  122MOL0     H16413  10.676   3.100   2.903  1.3017 -1.6853 -0.2862
  122MOL0     H16414  10.557   2.966   2.858 -0.3807  0.0279 -1.6180
  122MOL0     H16415  10.705   2.880   2.707 -4.6850  0.8871 -2.5619
  122MOL0     H16416  10.769   3.032   2.670  0.9989 -0.3185  0.3559
  122MOL0     H16417  10.829   2.858   2.918  0.1660 -0.8186 -1.1440
  122MOL0     H16418  10.941   2.865   2.789 -2.2102 -1.4191 -3.2159
  122MOL0     H16419  10.890   3.093   2.993  1.5557 -4.3016  1.2846
  122MOL0     H16420  10.923   3.122   2.819 -2.3662  0.4558 -0.1622
  122MOL0     H16421  11.108   3.137   3.103 -1.7196  2.1151 -2.6246
  122MOL0     H16422  11.409   3.175   3.009 -2.2129  2.7208  1.7991
  122MOL0     H16423  11.335   3.113   3.158 -4.2618  1.6766 -2.6853
  122MOL0     H16424  11.602   3.061   3.096 -0.1947  1.7624 -6.1981
  122MOL0     H16425  11.548   2.933   3.000  1.4816  1.7104 -1.2238
  122MOL0     H16426  11.578   2.841   3.210 -0.8590 -0.3963 -0.5575
  122MOL0     H16427  11.405   2.871   3.212  0.6788 -2.3669 -0.5269
  122MOL0     H16428  11.438   3.051   3.385 -1.2690 -0.1945 -1.6909
  122MOL0     H16429  11.590   3.072   3.319  0.1495 -1.4231 -0.5837
  122MOL0     H16430  11.652   2.731   3.621 -0.5511  1.8638  2.3653
  122MOL0     H16431  11.634   2.592   3.776  0.5054 -2.3959  1.2077
  122MOL0     H16432  11.480   2.534   3.843 -0.6800 -3.8896 -0.5040
  122MOL0     H16433  11.571   2.435   3.724 -0.5885 -1.2623 -2.4597
  122MOL0     H16434  11.418   2.151   3.642  0.2270  1.7406 -2.7409
  122MOL0     H16435  11.328   1.946   3.652  0.7083  0.5322 -1.7337
  122MOL0     H16436  11.214   1.756   3.635  1.3815 -0.4761 -0.4614
  122MOL0     H16437  11.090   1.676   3.548  1.4257  0.2085 -1.2013
  122MOL0     H16438  11.193   1.699   3.331 -1.6277  1.9012 -0.7513
  122MOL0     H16439  11.248   1.861   3.383  3.3365 -0.5223 -2.1141
  122MOL0     H16440  11.330   1.578   3.453 -0.1200 -0.3656 -0.0411
  122MOL0     H16441  11.417   1.712   3.533  1.8734  0.4910 -0.5474
  122MOL0     H16442  11.426   1.655   3.236 -3.4854  0.5538  0.7982
  122MOL0     H16443  11.495   1.799   3.311 -2.5916  0.4320 -0.7275
  122MOL0     H16444  11.589   1.508   3.374  1.4439 -1.6505 -2.2903
  122MOL0     H16445  11.647   1.655   3.459  1.4734 -1.2179 -0.5536
  122MOL0     H16446  11.695   1.588   3.171 -0.6361 -0.4631  1.8143
  122MOL0     H16447  11.724   1.748   3.221  0.7833 -0.7630 -0.0730
  122MOL0     H16448  11.829   1.464   3.323 -0.4157 -0.8743  1.4072
  122MOL0     H16449  11.864   1.609   3.422  1.4407  2.8214 -1.6491
  122MOL0     H16450  11.967   1.703   3.187  1.7845 -0.6582 -2.2815
  122MOL0     H16451  11.972   1.530   3.153  2.0230 -0.0210 -0.4397
  122MOL0     H16452  10.958   2.089   3.488 -0.6252  0.7158  0.8755
  122MOL0     H16453  11.044   2.326   3.523 -1.5327  0.6205  4.2236
  122MOL0     H16454  11.176   2.712   3.499 -0.3517  4.1993  0.6474
  122MOL0     H16455  11.302   2.887   3.422 -1.9871  2.6503  3.5386
  122MOL0     H16456  10.242   3.442   2.740  0.6584 -1.4040  0.0978
  122MOL0     H16457  10.037   3.533   2.825  0.4128  1.0278 -0.5640
  122MOL0     H16458   9.607   3.547   2.778  3.4409  1.5825 -2.0091
  122MOL0     H16459   9.390   3.602   2.849  1.0734 -0.1090 -0.9942
  122MOL0     H16460   9.293   4.040   2.941  0.0079  1.5415  1.4028
  122MOL0     H16461   9.144   3.968   2.987 -0.2734 -2.1432 -0.9957
  122MOL0     H16462   9.408   3.928   3.146 -0.6573 -1.9771 -1.0996
  122MOL0     H16463   9.239   3.918   3.206 -0.2463  1.4994  2.2815
  122MOL0     H16464   9.325   4.111   3.294 -1.6953  2.4373  0.6373
  122MOL0     H16465   9.218   4.169   3.158  0.4008 -0.9790 -1.9059
  122MOL0     H16466   9.422   4.202   3.020 -1.2277  1.2937  0.4229
  122MOL0     H16467   9.534   4.162   3.140 -0.2062  0.6540 -1.5472
  122MOL0     H16468   9.422   4.558   3.233 -0.6074  0.0550 -2.1478
  122MOL0     H16469   9.525   4.013   2.935  1.0524 -0.1928  1.5543
  122MOL0     H16470   9.743   3.939   2.846 -0.1126  0.3536  0.7923
  123MOL0     O16471   9.770   5.829  11.488 -0.2746 -0.9976 -0.8097
  123MOL0     C16472   9.735   5.890  11.587  0.0792 -1.2037 -0.5855
  123MOL0     O16473   9.677   6.013  11.586 -0.3117 -0.4092 -0.1873
  123MOL0     C16474   9.656   6.075  11.465  0.3066 -0.5982  0.6914
  123MOL0     C16475   9.750   6.140  11.386  0.5114 -0.2916 -0.3115
  123MOL0     C16476   9.703   6.179  11.264  0.5330  0.1104  0.4384
  123MOL0     C16477   9.571   6.173  11.219  0.2633 -0.0917 -0.0131
  123MOL0     O16478   9.539   6.200  11.090  0.1585  0.5617 -0.2455
  123MOL0     C16479   9.603   6.128  10.988  0.3687  0.0488  1.2865
  123MOL0     C16480   9.571   6.178  10.840 -0.0031  0.4234 -0.0176
  123MOL0     C16481   9.634   6.310  10.826 -0.9706 -0.5397 -0.2896
  123MOL0     C16482   9.584   6.391  10.708 -0.3849 -0.3985 -0.1335
  123MOL0     C16483   9.606   6.319  10.569  0.5955  0.2548  0.5186
  123MOL0     C16484   9.495   6.356  10.479  0.4399 -0.7342  0.6757
  123MOL0     C16485   9.482   6.501  10.423 -0.5400  0.7131  0.3273
  123MOL0     C16486   9.600   6.546  10.340 -0.1746  0.7470 -0.4336
  123MOL0     N16487   9.547   6.627  10.235  0.3037 -0.5077  0.1010
  123MOL0     C16488   9.497   6.752  10.242 -0.2836 -0.2471  0.5664
  123MOL0     C16489   9.448   6.783  10.120  0.0683 -0.4174  0.0257
  123MOL0     C16490   9.381   6.907  10.081  0.0771  0.5181 -0.2009
  123MOL0     C16491   9.326   7.006  10.189 -0.1421  0.5334 -0.0565
  123MOL0     C16492   9.412   7.129  10.207  0.2313 -1.0714  0.1102
  123MOL0     C16493   9.481   7.206  10.096 -0.1671 -0.6907  0.6854
  123MOL0     O16494   9.590   7.290  10.135 -0.7933  0.3537  0.0384
  123MOL0     C16495   9.636   7.371  10.033 -0.2290  2.0392 -0.3420
  123MOL0     C16496   9.574   7.407   9.914  0.0878 -0.3502 -0.6426
  123MOL0     C16497   9.632   7.503   9.823 -0.1486  0.5885 -0.5737
  123MOL0     C16498   9.559   7.516   9.694 -0.4376 -0.6722 -0.5235
  123MOL0     C16499   9.751   7.571   9.861  0.0675  0.6908  0.2469
  123MOL0     C16500   9.824   7.672   9.783  0.5316  0.5495  0.5298
  123MOL0     O16501   9.945   7.707   9.820  0.3535 -0.0506  0.0632
  123MOL0     C16502  10.010   7.824   9.784 -0.7166 -0.2589  0.3070
  123MOL0     C16503  10.018   7.930   9.874 -0.4049 -0.1222  0.5514
  123MOL0     C16504  10.082   8.048   9.825  0.1983  0.7074 -0.0616
  123MOL0     C16505  10.120   8.059   9.690 -0.5348  0.1319 -0.0236
  123MOL0     O16506  10.151   8.177   9.625 -0.5559 -1.1024 -0.4533
  123MOL0     C16507  10.135   8.294   9.700 -0.3959 -0.9233 -0.1535
  123MOL0     C16508  10.165   8.410   9.608  0.7713  0.0131  0.2771
  123MOL0     C16509  10.316   8.432   9.564 -0.1192 -0.0940 -0.5469
  123MOL0     C16510  10.387   8.521   9.666 -0.0814 -0.2687  0.7442
  123MOL0     C16511  10.416   8.461   9.803 -0.4478  0.2167  0.4261
  123MOL0     C16512  10.504   8.324   9.797  0.4941 -0.0951  0.3100
  123MOL0     C16513  10.543   8.262   9.926  0.3664 -0.6215  0.0906
  123MOL0     C16514  10.611   8.127   9.895  0.5567  0.4133 -1.2773
  123MOL0    Cl16515  10.482   8.017   9.869  0.2358  0.0995 -0.3898
  123MOL0     C16516  10.106   7.944   9.606  1.0952  0.7200 -0.3458
  123MOL0     C16517  10.049   7.825   9.648 -1.0411 -0.8166  0.3342
  123MOL0     O16518   9.761   7.729   9.687 -0.0301  0.0400  0.1888
  123MOL0     C16519   9.813   7.525   9.984 -0.7787  0.0800  0.0766
  123MOL0     C16520   9.759   7.430  10.061  0.4526  0.8101  0.4558
  123MOL0     N16521   9.467   6.671  10.041  0.6566  0.6143  0.2310
  123MOL0     N16522   9.512   6.574  10.119  0.8522  0.4413  0.6930
  123MOL0     C16523   9.472   6.134  11.312 -0.5599  0.2964 -0.1988
  123MOL0     C16524   9.519   6.082  11.435 -0.9174  0.9365  0.8072
  123MOL0     C16525   9.738   5.825  11.719 -0.8867  0.9665  1.0701
  123MOL0     C16526   9.818   5.703  11.723  1.0577 -0.0915  0.3188
  123MOL0     C16527   9.837   5.647  11.848 -0.2437  0.5860 -0.8268
  123MOL0     C16528   9.766   5.687  11.959 -0.3677 -0.2069  0.4182
  123MOL0     O16529   9.789   5.599  12.061  0.1717 -0.5050  0.1090
  123MOL0     C16530   9.701   5.619  12.176 -0.5129  0.0472 -0.3666
  123MOL0     C16531   9.713   5.513  12.273  0.9697 -0.2500 -0.1670
  123MOL0     C16532   9.600   5.497  12.386  0.3927  0.5804 -0.0756
  123MOL0     C16533   9.463   5.474  12.323 -0.0044 -0.2301  1.5961
  123MOL0     C16534   9.357   5.420  12.413 -0.5830  0.4772  1.1691
  123MOL0     C16535   9.276   5.369  12.483  0.7377 -0.2288 -0.2963
  123MOL0     C16536   9.678   5.795  11.946  0.2870  0.2120  0.0328
  123MOL0     C16537   9.667   5.866  11.827  0.0756 -0.1849  0.2910
  123MOL0     H16538   9.854   6.160  11.410  0.5516  0.3255 -0.9568
  123MOL0     H16539   9.783   6.222  11.204  1.6649  1.0467  2.5151
  123MOL0     H16540   9.709   6.127  11.012  0.0632 -2.2799  2.8768
  123MOL0     H16541   9.580   6.021  10.987  2.5513 -0.4641  2.4665
  123MOL0     H16542   9.616   6.119  10.760 -1.1226  0.1482 -0.4613
  123MOL0     H16543   9.465   6.177  10.813  0.3622 -1.1873 -1.6260
  123MOL0     H16544   9.613   6.368  10.917  0.1597 -0.9299  0.2424
  123MOL0     H16545   9.742   6.301  10.812 -1.0908 -3.1296 -0.0478
  123MOL0     H16546   9.481   6.423  10.723 -0.9283 -2.5453  1.1601
  123MOL0     H16547   9.646   6.480  10.694 -0.0888 -0.6105 -0.1871
  123MOL0     H16548   9.703   6.351  10.530  0.2323  0.0666 -0.5650
  123MOL0     H16549   9.600   6.210  10.574 -3.6064  0.1934 -1.6885
  123MOL0     H16550   9.504   6.287  10.394 -0.2889  0.2759 -0.2604
  123MOL0     H16551   9.398   6.332  10.523  0.0231  2.3025  1.6737
  123MOL0     H16552   9.383   6.507  10.377  0.5158  0.6799 -2.0785
  123MOL0     H16553   9.469   6.572  10.505  2.0337  0.9106  0.6631
  123MOL0     H16554   9.649   6.461  10.292  2.9238  1.9429  0.3396
  123MOL0     H16555   9.672   6.600  10.402  0.7098  1.0199 -1.6753
  123MOL0     H16556   9.492   6.811  10.333 -1.7781 -0.8566  0.9111
  123MOL0     H16557   9.432   6.951   9.995 -2.8613  0.2541 -2.2380
  123MOL0     H16558   9.295   6.868  10.027  1.8918  0.1504 -3.0438
  123MOL0     H16559   9.320   6.958  10.287 -0.3131 -1.6258 -1.0660
  123MOL0     H16560   9.223   7.037  10.168  0.1322  0.4056 -1.7491
  123MOL0     H16561   9.491   7.093  10.274 -0.4975  0.8070  2.1096
  123MOL0     H16562   9.341   7.188  10.266 -3.8626 -2.3960 -3.0318
  123MOL0     H16563   9.393   7.264  10.066  0.1930  0.8340  2.3429
  123MOL0     H16564   9.507   7.137  10.016 -1.0904  0.2069 -0.4344
  123MOL0     H16565   9.472   7.382   9.887  0.0097  0.6177 -1.3120
  123MOL0     H16566   9.500   7.427   9.673  1.2013 -2.1796  1.0090
  123MOL0     H16567   9.499   7.604   9.720  0.8668  0.3187 -0.7531
  123MOL0     H16568   9.622   7.540   9.607  1.3162 -0.6569  0.6921
  123MOL0     H16569   9.971   7.923   9.971  0.6098 -1.2023  0.9865
  123MOL0     H16570  10.089   8.124   9.901 -0.6749  0.7972 -0.0587
  123MOL0     H16571  10.036   8.305   9.745  0.0857 -4.2344  2.0946
  123MOL0     H16572  10.201   8.295   9.787 -0.9999 -2.6070  0.3541
  123MOL0     H16573  10.108   8.398   9.516  0.1959  2.3021  0.2667
  123MOL0     H16574  10.125   8.503   9.652 -0.1097 -1.0240  1.7549
  123MOL0     H16575  10.313   8.481   9.466 -1.4309  2.9228  0.8689
  123MOL0     H16576  10.373   8.338   9.556 -0.3883 -0.1703 -1.7623
  123MOL0     H16577  10.486   8.556   9.636 -1.3368  1.8701 -1.1662
  123MOL0     H16578  10.327   8.612   9.675  0.2530  0.2581 -1.6782
  123MOL0     H16579  10.322   8.444   9.856  0.4820  2.5501  3.0632
  123MOL0     H16580  10.480   8.530   9.859 -1.0630  1.3468 -0.2284
  123MOL0     H16581  10.447   8.254   9.737 -0.0868  0.7323 -0.1277
  123MOL0     H16582  10.594   8.349   9.739 -0.5149 -2.0173 -2.2616
  123MOL0     H16583  10.458   8.247   9.992  1.3312 -1.1537  1.2401
  123MOL0     H16584  10.599   8.333   9.987  0.4851 -2.5767  2.4059
  123MOL0     H16585  10.671   8.089   9.978 -0.5087  2.7411  0.6912
  123MOL0     H16586  10.670   8.130   9.803 -0.2570  1.0112 -1.7991
  123MOL0     H16587  10.125   7.949   9.500 -3.7457 -1.1223 -1.5838
  123MOL0     H16588  10.039   7.738   9.585  0.5249  0.0491 -1.2174
  123MOL0     H16589   9.913   7.553  10.015 -0.5752  0.8411 -1.1676
  123MOL0     H16590   9.817   7.403  10.149  0.9432  0.0174 -0.1005
  123MOL0     H16591   9.373   6.121  11.269 -0.3423  0.4087 -0.7465
  123MOL0     H16592   9.455   6.026  11.503  1.1695 -0.5551  1.6615
  123MOL0     H16593   9.855   5.655  11.633  0.2758 -2.3101  1.1089
  123MOL0     H16594   9.915   5.572  11.857  1.5099  2.5194  2.1278
  123MOL0     H16595   9.739   5.705  12.231  0.7139 -1.6483  1.5889
  123MOL0     H16596   9.595   5.634  12.154 -0.8073 -1.5285 -0.1671
  123MOL0     H16597   9.802   5.525  12.337  2.6565 -0.7325 -2.2932
  123MOL0     H16598   9.722   5.417  12.222  0.0374 -0.7298  0.5437
  123MOL0     H16599   9.588   5.587  12.446 -2.8382 -0.7420  1.4749
  123MOL0     H16600   9.620   5.413  12.453 -0.2022  0.6493  0.1981
  123MOL0     H16601   9.482   5.402  12.243 -1.0989  1.2603 -0.0796
  123MOL0     H16602   9.426   5.571  12.286 -0.0017 -0.8135 -0.0065
  123MOL0     H16603   9.196   5.326  12.541 -0.1336  1.4170 -0.2000
  123MOL0     H16604   9.617   5.841  12.023  0.4729 -3.8269  2.9257
  123MOL0     H16605   9.595   5.946  11.817 -0.8209 -1.2523 -3.1673
  124MOL0     O16606   4.605   7.600   3.211 -0.6852 -0.9249  0.1528
  124MOL0     C16607   4.581   7.632   3.329 -1.2537  0.0493  0.5871
  124MOL0     O16608   4.554   7.760   3.378  0.2688 -0.1912 -0.1985
  124MOL0     C16609   4.595   7.873   3.306  0.4449  0.2447 -0.8612
  124MOL0     C16610   4.519   7.994   3.339 -0.8924  0.1736  0.4753
  124MOL0     C16611   4.559   8.116   3.278 -0.5262 -0.9974 -0.1103
  124MOL0     C16612   4.673   8.128   3.202  0.7533  0.4743  0.8494
  124MOL0     O16613   4.737   8.245   3.156  0.4034  0.5750 -0.1039
  124MOL0     C16614   4.668   8.372   3.159  0.9463 -0.5227  0.0425
  124MOL0     C16615   4.748   8.463   3.069  0.0031 -0.0076 -0.1214
  124MOL0     C16616   4.709   8.608   3.088  0.2804 -0.1690 -0.2422
  124MOL0     C16617   4.821   8.707   3.061 -0.5678  0.0281 -0.0064
  124MOL0     C16618   4.781   8.843   3.002  0.7070 -0.4766  0.3681
  124MOL0     C16619   4.678   8.911   3.101 -0.1971  0.4552  0.7022
  124MOL0     C16620   4.582   9.005   3.038  0.1391  0.3312 -0.4171
  124MOL0     C16621   4.652   9.136   3.000 -0.4304 -0.0812 -0.1792
  124MOL0     N16622   4.562   9.239   2.942  0.4107  0.6899 -0.6848
  124MOL0     C16623   4.530   9.235   2.805 -0.5338 -1.4684 -0.8226
  124MOL0     C16624   4.425   9.312   2.797  0.3350 -0.0736 -0.2534
  124MOL0     C16625   4.321   9.313   2.694 -0.2934 -0.1183  0.6168
  124MOL0     C16626   4.395   9.351   2.559  0.4539  1.0481  1.0649
  124MOL0     C16627   4.265   9.378   2.471 -0.8308 -0.0623  0.0768
  124MOL0     C16628   4.303   9.397   2.321  0.1187 -0.4965  0.0373
  124MOL0     O16629   4.429   9.460   2.301 -0.7422 -0.0961 -0.4132
  124MOL0     C16630   4.424   9.591   2.252 -0.3834 -0.1295 -0.2426
  124MOL0     C16631   4.499   9.629   2.140 -0.0304  0.3532  0.3204
  124MOL0     C16632   4.513   9.771   2.111  0.6148 -0.3209  0.1486
  124MOL0     C16633   4.601   9.811   2.001  0.2874  0.2498  0.2334
  124MOL0     C16634   4.435   9.868   2.173  0.0676 -0.4145 -0.3120
  124MOL0     C16635   4.425  10.010   2.129 -0.1009 -0.1673 -0.9050
  124MOL0     O16636   4.308  10.060   2.179  0.3897 -0.3581  0.7393
  124MOL0     C16637   4.214  10.103   2.079  0.8758  0.1295  0.1244
  124MOL0     C16638   4.154  10.225   2.107 -0.0336  0.2183  0.4752
  124MOL0     C16639   4.046  10.272   2.033  0.2990 -0.0070  0.5933
  124MOL0     C16640   4.010  10.208   1.915  0.7650  0.2243 -0.7487
  124MOL0     O16641   3.891  10.227   1.838 -0.5438  0.2868 -0.3444
  124MOL0     C16642   3.875  10.361   1.799  0.1411  0.3195  0.8394
  124MOL0     C16643   3.990  10.412   1.712 -0.9354  0.0517 -0.1286
  124MOL0     C16644   3.939  10.546   1.645  0.1261  0.3194  0.6143
  124MOL0     C16645   4.052  10.617   1.578  0.4556 -0.3032 -0.5458
  124MOL0     C16646   4.003  10.712   1.470  1.0561 -0.9815  0.2805
  124MOL0     C16647   4.125  10.792   1.408 -0.1650 -0.3878 -1.1760
  124MOL0     C16648   4.081  10.893   1.295  0.3294 -0.6036 -1.0902
  124MOL0     C16649   3.972  10.994   1.325  0.2849  0.4247  0.3039
  124MOL0    Cl16650   3.983  11.088   1.485 -0.3311  0.2202  0.2760
  124MOL0     C16651   4.086  10.099   1.873 -0.8249 -0.2978 -0.3628
  124MOL0     C16652   4.182  10.042   1.961 -0.3350  0.0051  0.3532
  124MOL0     O16653   4.501  10.079   2.060 -0.5929 -0.1073 -0.1591
  124MOL0     C16654   4.361   9.825   2.279 -1.1683  0.1182 -0.0203
  124MOL0     C16655   4.357   9.689   2.316 -0.3918  0.0700 -0.0294
  124MOL0     N16656   4.409   9.387   2.912 -0.3607  0.3558 -0.1230
  124MOL0     N16657   4.498   9.340   3.000 -0.7599  0.1067  0.3663
  124MOL0     C16658   4.739   8.004   3.171  0.1466 -0.2820 -0.5894
  124MOL0     C16659   4.705   7.878   3.219  0.4456 -0.3670 -0.2733
  124MOL0     C16660   4.568   7.519   3.423  0.5709 -0.0845 -0.1076
  124MOL0     C16661   4.536   7.546   3.560  0.7283 -0.2036 -0.1449
  124MOL0     C16662   4.518   7.449   3.657 -1.1779  0.0768  0.1504
  124MOL0     C16663   4.531   7.316   3.618  0.1310 -0.5352  0.7006
  124MOL0     O16664   4.522   7.203   3.700  0.7521  0.1143 -0.1529
  124MOL0     C16665   4.619   7.183   3.804 -0.7432  0.0307 -0.6699
  124MOL0     C16666   4.738   7.103   3.745  0.2310 -0.2335 -0.1594
  124MOL0     C16667   4.707   6.955   3.723 -0.3044  1.3763 -0.4503
  124MOL0     C16668   4.748   6.905   3.580  1.4058  0.6030 -0.3092
  124MOL0     C16669   4.889   6.912   3.548  0.0467 -1.1506 -0.1187
  124MOL0     C16670   5.007   6.918   3.524 -0.3259 -0.7411  0.6052
  124MOL0     C16671   4.560   7.289   3.480 -0.6312  0.6654 -0.4165
  124MOL0     C16672   4.575   7.388   3.386  0.2016  0.5051 -0.1421
  124MOL0     H16673   4.434   8.012   3.405 -2.4073  1.6752 -1.7310
  124MOL0     H16674   4.496   8.199   3.308  3.3529  1.6802  1.3720
  124MOL0     H16675   4.562   8.363   3.132  0.4075 -3.9531  2.6733
  124MOL0     H16676   4.667   8.400   3.265  0.3492 -1.6928  0.3568
  124MOL0     H16677   4.853   8.448   3.095 -0.9815 -0.6006  4.3278
  124MOL0     H16678   4.728   8.432   2.966 -0.8840 -2.5032  0.7293
  124MOL0     H16679   4.622   8.636   3.027 -0.6172 -4.8951 -1.5669
  124MOL0     H16680   4.674   8.625   3.191 -2.4106 -0.0166 -1.1041
  124MOL0     H16681   4.876   8.727   3.154  0.7379  1.1635 -0.9761
  124MOL0     H16682   4.882   8.658   2.984 -1.7826 -0.5045 -0.6600
  124MOL0     H16683   4.863   8.914   2.989  1.7719 -2.1055 -2.6580
  124MOL0     H16684   4.741   8.825   2.902 -0.1472 -0.7957  0.7594
  124MOL0     H16685   4.610   8.830   3.130 -0.2218  0.4029  0.4989
  124MOL0     H16686   4.735   8.958   3.182  3.0575 -1.0656 -0.5265
  124MOL0     H16687   4.535   8.960   2.950  0.0338 -3.4799  1.3693
  124MOL0     H16688   4.497   9.009   3.107  0.9832 -2.1451  0.9003
  124MOL0     H16689   4.744   9.126   2.943  0.0772 -1.5017  0.8319
  124MOL0     H16690   4.698   9.189   3.084 -1.6676  1.3321 -0.3566
  124MOL0     H16691   4.565   9.163   2.732  1.2535  0.3556 -1.8508
  124MOL0     H16692   4.280   9.213   2.675  1.1596 -0.0326 -4.7770
  124MOL0     H16693   4.245   9.386   2.723  0.4734 -0.6319  4.3116
  124MOL0     H16694   4.455   9.268   2.521  1.7068  0.8060  3.3651
  124MOL0     H16695   4.453   9.443   2.573  3.9408 -0.7530 -0.3778
  124MOL0     H16696   4.204   9.459   2.513  1.2412  1.3984  0.4285
  124MOL0     H16697   4.201   9.290   2.467  1.0213 -1.5184  1.0482
  124MOL0     H16698   4.229   9.450   2.261  0.0127 -0.5150  0.1498
  124MOL0     H16699   4.307   9.294   2.285 -2.1518 -0.8652  0.6742
  124MOL0     H16700   4.566   9.569   2.079 -1.2936  1.9521 -2.8605
  124MOL0     H16701   4.680   9.874   2.042 -0.5644  1.4727  0.0310
  124MOL0     H16702   4.659   9.728   1.959  2.9180  0.5730  2.9007
  124MOL0     H16703   4.541   9.871   1.932  0.2077  1.7000  1.5079
  124MOL0     H16704   4.186  10.281   2.194  1.0638  1.6822 -0.8240
  124MOL0     H16705   3.992  10.356   2.076 -0.3618 -0.6905  1.1323
  124MOL0     H16706   3.778  10.368   1.747 -0.3622 -2.0330  1.3661
  124MOL0     H16707   3.872  10.440   1.875  0.3109  3.1911 -1.9327
  124MOL0     H16708   4.086  10.427   1.763  0.2972  1.0722 -2.6018
  124MOL0     H16709   3.996  10.338   1.633 -3.1535  0.3173 -0.5970
  124MOL0     H16710   3.894  10.605   1.725  0.8384  0.6700  0.7603
  124MOL0     H16711   3.860  10.518   1.574 -1.9936  1.6253  2.3425
  124MOL0     H16712   4.108  10.672   1.653 -1.7363  0.8196  0.3588
  124MOL0     H16713   4.115  10.541   1.531  1.1289  0.0712 -0.2515
  124MOL0     H16714   3.942  10.792   1.513  3.2947  1.4325 -0.7076
  124MOL0     H16715   3.963  10.653   1.388 -0.8105 -0.8581  1.0692
  124MOL0     H16716   4.172  10.848   1.490 -0.6857 -1.2357 -0.2715
  124MOL0     H16717   4.194  10.721   1.362  1.5442  1.2590 -1.2753
  124MOL0     H16718   4.040  10.838   1.209 -1.2409  1.2562 -1.5925
  124MOL0     H16719   4.160  10.956   1.252 -0.5636 -0.8229 -3.1650
  124MOL0     H16720   3.880  10.936   1.320 -2.4986  3.7500  5.0026
  124MOL0     H16721   3.965  11.065   1.242 -0.2281  1.0742  0.9025
  124MOL0     H16722   4.059  10.046   1.783  0.2667 -0.7541 -0.4297
  124MOL0     H16723   4.218   9.942   1.937  0.3174 -0.1143  1.7271
  124MOL0     H16724   4.293   9.884   2.339 -0.9862  4.2913 -3.3899
  124MOL0     H16725   4.318   9.649   2.409  0.7331 -1.2172 -0.0891
  124MOL0     H16726   4.824   8.009   3.105  0.7209  1.9507  0.2171
  124MOL0     H16727   4.767   7.799   3.177 -0.3764 -1.6132  0.7970
  124MOL0     H16728   4.525   7.649   3.591  3.2364  0.6718 -1.8423
  124MOL0     H16729   4.502   7.470   3.762 -1.4148 -1.1882  0.3903
  124MOL0     H16730   4.651   7.277   3.850  0.0017 -1.0279  1.0878
  124MOL0     H16731   4.582   7.119   3.884 -1.4776 -3.6274 -3.6538
  124MOL0     H16732   4.825   7.111   3.811 -2.3259  0.1624  3.4861
  124MOL0     H16733   4.751   7.153   3.648 -0.3008  1.8349  0.7787
  124MOL0     H16734   4.598   6.947   3.732 -0.1092 -0.4171  1.0279
  124MOL0     H16735   4.746   6.886   3.799 -1.4265 -0.1892 -1.2469
  124MOL0     H16736   4.701   6.977   3.513 -0.2075 -0.9292 -0.8840
  124MOL0     H16737   4.712   6.803   3.564  2.5064 -0.6088  3.8030
  124MOL0     H16738   5.108   6.900   3.496  0.1747  1.2613  0.9764
  124MOL0     H16739   4.585   7.193   3.437  1.5895  1.1368 -0.3049
  124MOL0     H16740   4.591   7.352   3.285  1.6358  0.0127  0.2263
  125MOL0     O16741   1.000  11.457   5.308 -1.2224  1.0636 -0.4314
  125MOL0     C16742   0.895  11.469   5.370 -1.5866  0.0074 -0.2754
  125MOL0     O16743   0.822  11.580   5.378 -0.6964 -0.2816  0.5093
  125MOL0     C16744   0.847  11.697   5.298  1.3047  0.2565  1.3009
  125MOL0     C16745   0.967  11.768   5.299 -1.1415  0.0336  0.7134
  125MOL0     C16746   0.977  11.890   5.227 -0.4343 -0.5386  0.2819
  125MOL0     C16747   0.878  11.931   5.142  0.6169  0.0987  0.5182
  125MOL0     O16748   0.922  12.043   5.073  0.0192  1.1037  0.1042
  125MOL0     C16749   0.851  12.075   4.958 -0.7334 -0.4558 -0.0558
  125MOL0     C16750   0.942  12.184   4.897 -0.5275 -0.5743  0.6037
  125MOL0     C16751   0.873  12.281   4.807  0.7974 -0.1335 -0.1248
  125MOL0     C16752   0.823  12.398   4.887 -0.0777  0.3704  0.1591
  125MOL0     C16753   0.777  12.508   4.787  0.5537 -0.7606 -0.0109
  125MOL0     C16754   0.772  12.646   4.857 -0.6348  0.0944 -0.2321
  125MOL0     C16755   0.721  12.774   4.780  0.2404 -0.0292  0.3054
  125MOL0     C16756   0.797  12.806   4.650 -0.8875  0.0847 -0.0059
  125MOL0     N16757   0.895  12.909   4.674 -0.8741  0.2343  0.3832
  125MOL0     C16758   0.878  13.038   4.639  0.1314 -0.1591 -0.3565
  125MOL0     C16759   0.995  13.097   4.672  0.6622 -0.4863  0.4679
  125MOL0     C16760   1.018  13.245   4.659 -0.0949 -0.3038 -0.2783
  125MOL0     C16761   0.986  13.297   4.519  1.0074 -0.1258  0.0436
  125MOL0     C16762   1.044  13.429   4.503 -0.0815  0.4976 -0.7428
  125MOL0     C16763   0.966  13.551   4.573 -0.5447 -0.1552  0.0109
  125MOL0     O16764   0.843  13.585   4.508 -0.7743  0.1489 -0.0294
  125MOL0     C16765   0.838  13.697   4.431 -0.0083 -0.6881  0.1268
  125MOL0     C16766   0.953  13.765   4.378 -0.8658  0.4440 -0.7750
  125MOL0     C16767   0.933  13.882   4.299  0.1734  1.3141  0.0230
  125MOL0     C16768   1.050  13.954   4.249  0.4943  0.3541  0.3404
  125MOL0     C16769   0.804  13.927   4.272 -0.7690 -0.4046  0.6528
  125MOL0     C16770   0.769  14.049   4.187  0.3508  0.0916  0.0032
  125MOL0     O16771   0.642  14.121   4.206 -0.6911 -0.0906  0.0067
  125MOL0     C16772   0.580  14.173   4.092  0.0194 -0.5338  0.5040
  125MOL0     C16773   0.547  14.093   3.985  1.0922 -0.2409  0.8075
  125MOL0     C16774   0.448  14.123   3.893 -0.7385 -1.1170 -0.3600
  125MOL0     C16775   0.414  14.257   3.881 -0.3826  0.0377 -0.2732
  125MOL0     O16776   0.343  14.288   3.772 -0.0349 -0.2976 -0.6842
  125MOL0     C16777   0.315  14.433   3.752 -0.4344  0.2972 -0.5941
  125MOL0     C16778   0.418  14.522   3.675  0.2925  0.6945 -0.2610
  125MOL0     C16779   0.427  14.462   3.531 -0.1867  0.0781 -0.4298
  125MOL0     C16780   0.537  14.353   3.519 -0.7112 -0.3190  0.0358
  125MOL0     C16781   0.523  14.272   3.389 -0.4748 -1.1846  0.1132
  125MOL0     C16782   0.400  14.174   3.386  1.0361  0.5677 -0.4505
  125MOL0     C16783   0.420  14.052   3.287 -0.7413  0.0101  0.2227
  125MOL0     C16784   0.383  14.088   3.146 -0.0476  0.4293  0.2853
  125MOL0    Cl16785   0.509  14.215   3.091 -0.0381 -0.2484 -0.2529
  125MOL0     C16786   0.449  14.347   3.988  0.7402 -0.5380 -0.5135
  125MOL0     C16787   0.529  14.311   4.093  0.6180 -0.0411  0.6347
  125MOL0     O16788   0.839  14.067   4.087  0.8000 -0.2274  0.1241
  125MOL0     C16789   0.701  13.867   4.336  0.0209  1.2267 -0.9866
  125MOL0     C16790   0.711  13.750   4.410 -0.5630  0.1852  0.0352
  125MOL0     N16791   1.082  13.001   4.723 -0.0974 -0.3390  0.3243
  125MOL0     N16792   1.021  12.888   4.719  0.2790  0.3153 -0.3008
  125MOL0     C16793   0.768  11.845   5.123  0.9003  0.6106 -0.2869
  125MOL0     C16794   0.739  11.738   5.206 -0.8594 -0.0876  0.4105
  125MOL0     C16795   0.857  11.355   5.468 -0.1460 -0.6168  0.2233
  125MOL0     C16796   0.737  11.333   5.537 -0.5583 -0.1626 -0.3531
  125MOL0     C16797   0.722  11.231   5.627 -0.5170  0.0616  0.3958
  125MOL0     C16798   0.826  11.139   5.647  0.0238 -0.6370  0.1878
  125MOL0     O16799   0.799  11.026   5.717  0.8759 -0.0692 -0.6628
  125MOL0     C16800   0.780  10.907   5.642  0.3559  0.2893  0.0427
  125MOL0     C16801   0.804  10.791   5.744 -0.7991 -0.5611 -0.7697
  125MOL0     C16802   0.784  10.652   5.682 -0.4362 -0.1277 -0.1530
  125MOL0     C16803   0.797  10.538   5.786 -0.6152  0.3984  0.0599
  125MOL0     C16804   0.737  10.418   5.726  1.2765 -0.5063  0.8341
  125MOL0     C16805   0.694  10.304   5.695 -0.7621 -0.9573 -0.4067
  125MOL0     C16806   0.946  11.161   5.585 -0.7030 -0.5058 -0.8310
  125MOL0     C16807   0.960  11.258   5.489  0.1191  0.1919  0.1150
  125MOL0     H16808   1.059  11.733   5.346 -0.9310  1.8417  1.7475
  125MOL0     H16809   1.065  11.952   5.217  0.1211 -0.8572  2.5953
  125MOL0     H16810   0.851  11.995   4.884 -2.8127 -0.2402 -0.3595
  125MOL0     H16811   0.749  12.107   4.982 -0.6952 -1.1877  1.1588
  125MOL0     H16812   0.988  12.239   4.980  0.8553 -1.8461  0.7196
  125MOL0     H16813   1.019  12.129   4.842 -0.4519  0.7111 -0.6371
  125MOL0     H16814   0.945  12.323   4.736  0.0153  1.8074  0.1813
  125MOL0     H16815   0.789  12.235   4.756 -1.4518  1.9869  1.4510
  125MOL0     H16816   0.744  12.366   4.955 -0.0615 -1.7693 -0.7514
  125MOL0     H16817   0.903  12.438   4.949 -2.0533  3.9169  0.6958
  125MOL0     H16818   0.849  12.513   4.704  0.7170  2.3605  0.1883
  125MOL0     H16819   0.676  12.491   4.749 -0.5309  0.7209  2.0128
  125MOL0     H16820   0.710  12.631   4.946  2.3813 -1.9132  1.7353
  125MOL0     H16821   0.869  12.669   4.901  0.0699 -2.9618  0.0665
  125MOL0     H16822   0.616  12.756   4.756  0.3925 -2.9341  1.3732
  125MOL0     H16823   0.719  12.852   4.856 -3.0412 -2.0497  2.5750
  125MOL0     H16824   0.726  12.848   4.578  0.0055  3.6055  0.9550
  125MOL0     H16825   0.842  12.716   4.607  0.7446 -0.8101  3.2463
  125MOL0     H16826   0.793  13.081   4.588 -1.7092 -1.9483  1.0372
  125MOL0     H16827   0.955  13.295   4.734  0.6103  0.3187 -0.0803
  125MOL0     H16828   1.124  13.266   4.680  0.5084 -0.9044 -2.5019
  125MOL0     H16829   0.879  13.304   4.498  1.0077 -2.4996 -1.0616
  125MOL0     H16830   1.032  13.232   4.444 -2.0550 -0.3411 -1.7949
  125MOL0     H16831   1.049  13.445   4.395 -2.2220 -2.3488 -1.3625
  125MOL0     H16832   1.143  13.438   4.550 -0.1704  1.8563 -0.7859
  125MOL0     H16833   1.044  13.628   4.574 -1.2142  0.6539 -2.5162
  125MOL0     H16834   0.948  13.535   4.680  1.7693  2.3442  0.8886
  125MOL0     H16835   1.053  13.730   4.401 -1.0098  1.1747  1.2337
  125MOL0     H16836   1.036  13.952   4.141 -2.7084  0.6428  0.6477
  125MOL0     H16837   1.056  14.058   4.280 -0.5900 -0.1178  2.2887
  125MOL0     H16838   1.148  13.914   4.277  1.3590  2.8347  1.1305
  125MOL0     H16839   0.601  13.999   3.987  1.1639 -0.2337 -0.1896
  125MOL0     H16840   0.429  14.047   3.818  4.5436 -2.9712 -0.2424
  125MOL0     H16841   0.217  14.430   3.705  0.1541 -0.1364 -1.8451
  125MOL0     H16842   0.294  14.477   3.850 -1.6908 -2.2570  0.3830
  125MOL0     H16843   0.367  14.618   3.680 -0.7180  0.1468  0.4750
  125MOL0     H16844   0.512  14.521   3.730 -1.5293 -3.9081  3.5058
  125MOL0     H16845   0.448  14.539   3.456  0.1060 -0.1326 -0.5684
  125MOL0     H16846   0.330  14.414   3.514 -1.3864  1.7796  1.2688
  125MOL0     H16847   0.629  14.412   3.510 -2.6656  2.6371 -2.3519
  125MOL0     H16848   0.533  14.287   3.606  0.1054  1.3292  1.3807
  125MOL0     H16849   0.617  14.216   3.382 -0.1193 -0.4188 -2.0091
  125MOL0     H16850   0.511  14.344   3.309 -0.5838  0.8705  1.8945
  125MOL0     H16851   0.392  14.132   3.486 -0.2318 -0.4833 -0.9658
  125MOL0     H16852   0.305  14.222   3.358  0.8621  0.1836 -0.5215
  125MOL0     H16853   0.338  13.985   3.316  0.5353 -2.3544 -1.3408
  125MOL0     H16854   0.520  14.009   3.294  0.9340  3.6541  1.0428
  125MOL0     H16855   0.280  14.123   3.140 -1.7036 -3.2813  2.9822
  125MOL0     H16856   0.374  14.000   3.081 -2.8514 -0.1886  1.3724
  125MOL0     H16857   0.412  14.448   3.999 -2.1163 -1.7627  3.9084
  125MOL0     H16858   0.548  14.372   4.181 -0.3575  0.3980  0.5460
  125MOL0     H16859   0.600  13.906   4.329 -1.4054 -1.7621  1.0211
  125MOL0     H16860   0.620  13.703   4.445  1.0659 -2.3063  1.2800
  125MOL0     H16861   0.682  11.874   5.063  0.3047 -1.9366 -0.8113
  125MOL0     H16862   0.640  11.694   5.216 -2.1143  2.0437 -1.7137
  125MOL0     H16863   0.664  11.412   5.520  1.5589  1.9713 -0.1775
  125MOL0     H16864   0.624  11.217   5.671 -1.4102 -1.3724 -1.8581
  125MOL0     H16865   0.683  10.903   5.593  0.6633 -0.9299 -0.5127
  125MOL0     H16866   0.855  10.904   5.562  1.7220 -1.6841  1.3163
  125MOL0     H16867   0.738  10.793   5.832 -1.0688 -2.5687 -0.8788
  125MOL0     H16868   0.908  10.791   5.777 -1.2713 -2.6561  0.9360
  125MOL0     H16869   0.862  10.643   5.605  1.1278  0.4497  1.2869
  125MOL0     H16870   0.691  10.646   5.625  0.8846  3.3965 -3.0667
  125MOL0     H16871   0.761  10.542   5.889  0.7734  0.7581  0.5598
  125MOL0     H16872   0.906  10.533   5.794 -0.5724  1.9164  0.8856
  125MOL0     H16873   0.646  10.215   5.661 -0.2069 -0.7533 -1.8109
  125MOL0     H16874   1.021  11.083   5.597 -2.9059 -2.5075  0.9656
  125MOL0     H16875   1.054  11.260   5.435 -0.2652 -2.4122 -0.8067
  126MOL0     O16876   3.255   2.961   8.360  0.6131 -0.1328  0.5232
  126MOL0     C16877   3.170   2.877   8.373  0.2701  0.7462 -0.3516
  126MOL0     O16878   3.127   2.799   8.272 -0.1033 -0.5201  0.2764
  126MOL0     C16879   3.197   2.794   8.154  0.6499 -0.0656  0.1102
  126MOL0     C16880   3.131   2.826   8.037 -0.5980  0.0509  1.0691
  126MOL0     C16881   3.205   2.824   7.914  0.0474 -0.3425 -0.1688
  126MOL0     C16882   3.340   2.792   7.912  0.3277  0.4490  0.3713
  126MOL0     O16883   3.411   2.801   7.794  0.3566 -0.2468  0.4056
  126MOL0     C16884   3.507   2.910   7.795 -0.5647  0.6324  0.2702
  126MOL0     C16885   3.434   3.036   7.754  0.7984 -0.1776 -0.2161
  126MOL0     C16886   3.393   3.019   7.604 -0.8712  0.2756 -0.6666
  126MOL0     C16887   3.325   3.143   7.552  0.0838  0.1510 -0.9139
  126MOL0     C16888   3.283   3.144   7.406 -0.1859  0.3133  0.5303
  126MOL0     C16889   3.268   3.278   7.347 -0.3239 -0.4313 -0.5526
  126MOL0     C16890   3.221   3.280   7.200  0.5697 -0.8515  0.0265
  126MOL0     C16891   3.075   3.242   7.192 -0.4388  0.8758 -0.6053
  126MOL0     N16892   3.039   3.179   7.059 -0.8645  0.3613 -0.8361
  126MOL0     C16893   2.927   3.222   6.987 -0.8707 -0.0116  1.0302
  126MOL0     C16894   2.917   3.151   6.877 -0.1431  1.1928  0.3146
  126MOL0     C16895   2.817   3.166   6.758 -0.1165  0.6934  0.2770
  126MOL0     C16896   2.710   3.280   6.790  0.6499  0.0775  1.3861
  126MOL0     C16897   2.644   3.321   6.649 -1.1009  0.0244 -0.5760
  126MOL0     C16898   2.516   3.401   6.683  0.4310  0.8347  0.8028
  126MOL0     O16899   2.431   3.339   6.789 -0.9764 -0.1410  0.4298
  126MOL0     C16900   2.339   3.419   6.850  0.7302 -0.7325  0.8188
  126MOL0     C16901   2.251   3.502   6.773 -0.4832  0.5718  0.3703
  126MOL0     C16902   2.174   3.590   6.842  0.6832 -0.4861  0.4424
  126MOL0     C16903   2.087   3.672   6.740  0.1533  0.1618  1.1837
  126MOL0     C16904   2.169   3.612   6.985  0.7551  0.9826 -0.0327
  126MOL0     C16905   2.085   3.702   7.071  0.1122  0.0693  0.4985
  126MOL0     O16906   2.119   3.707   7.203  0.6618 -0.6124 -0.8601
  126MOL0     C16907   2.051   3.816   7.276 -1.4191 -0.1570 -0.5361
  126MOL0     C16908   2.089   3.947   7.248  0.0274 -0.4431 -0.5131
  126MOL0     C16909   2.032   4.064   7.315 -0.9863  1.0296 -1.0206
  126MOL0     C16910   1.947   4.039   7.424  0.4503 -0.0612  0.9902
  126MOL0     O16911   1.899   4.141   7.486  0.2756 -0.9616 -0.5975
  126MOL0     C16912   1.766   4.126   7.537 -0.4166 -0.0324  0.3644
  126MOL0     C16913   1.687   4.243   7.503  0.2502 -0.2450 -0.0818
  126MOL0     C16914   1.748   4.357   7.583  0.3190 -0.3737 -0.2003
  126MOL0     C16915   1.677   4.491   7.562 -0.5614 -0.7640 -0.3918
  126MOL0     C16916   1.739   4.598   7.653 -0.6754  0.0593  0.2458
  126MOL0     C16917   1.886   4.622   7.626  0.3116 -0.5973  0.1183
  126MOL0     C16918   1.941   4.739   7.718  0.5492  0.7755  0.2108
  126MOL0     C16919   2.093   4.746   7.702 -0.4409 -0.3602  0.6362
  126MOL0    Cl16920   2.132   4.809   7.537  0.1750  0.2125  0.1567
  126MOL0     C16921   1.925   3.903   7.468 -0.1714  0.7091  0.0934
  126MOL0     C16922   1.975   3.803   7.388  0.2294 -0.0867 -0.4420
  126MOL0     O16923   2.017   3.783   7.012  1.1333 -0.1768 -1.0124
  126MOL0     C16924   2.251   3.513   7.052 -0.4339 -0.1946 -0.1315
  126MOL0     C16925   2.330   3.426   6.986  0.6993  0.4812  0.5031
  126MOL0     N16926   3.022   3.058   6.879 -0.2545  0.2647  0.1834
  126MOL0     N16927   3.083   3.066   6.992 -0.2450 -0.2595 -0.0332
  126MOL0     C16928   3.400   2.766   8.036 -0.4698 -0.3991  0.2456
  126MOL0     C16929   3.334   2.761   8.157  0.2538  0.3397  0.6247
  126MOL0     C16930   3.099   2.863   8.505 -0.3633 -0.0392 -0.2014
  126MOL0     C16931   3.131   2.950   8.608  0.3153 -0.3982  0.0976
  126MOL0     C16932   3.064   2.948   8.732  1.5141 -0.8726 -0.0623
  126MOL0     C16933   2.977   2.849   8.765  0.3766 -0.7737 -0.0055
  126MOL0     O16934   2.916   2.843   8.892  0.3231  0.4117  0.3602
  126MOL0     C16935   2.922   2.947   8.990 -0.0612 -0.7407 -0.4218
  126MOL0     C16936   2.798   2.938   9.082  0.7455 -1.0210 -0.1054
  126MOL0     C16937   2.804   2.793   9.143  1.2407 -0.6845  0.2469
  126MOL0     C16938   2.736   2.794   9.280 -0.4655 -0.3127  0.4368
  126MOL0     C16939   2.598   2.855   9.280  0.1150  1.3858  1.1846
  126MOL0     C16940   2.494   2.921   9.273 -0.0064  0.0509  0.4496
  126MOL0     C16941   2.944   2.761   8.659 -1.1164 -0.3726  0.6991
  126MOL0     C16942   3.007   2.757   8.536 -0.9414  0.9578 -0.8926
  126MOL0     H16943   3.026   2.851   8.027  0.1418  3.6989  1.1292
  126MOL0     H16944   3.161   2.861   7.822 -3.1115 -1.6149  0.7029
  126MOL0     H16945   3.557   2.914   7.892 -1.6177 -0.7250  0.8941
  126MOL0     H16946   3.586   2.879   7.725  0.8765 -1.1114  2.4957
  126MOL0     H16947   3.340   3.050   7.808 -0.5332  0.1508 -2.4903
  126MOL0     H16948   3.497   3.125   7.766 -0.0093  0.3582  0.1456
  126MOL0     H16949   3.481   2.994   7.543 -0.6652  1.4940 -0.9003
  126MOL0     H16950   3.328   2.931   7.606  1.3927 -1.5334 -1.3981
  126MOL0     H16951   3.238   3.168   7.613  2.1725  3.0314  1.1823
  126MOL0     H16952   3.393   3.226   7.575 -2.8721  2.1499  1.2239
  126MOL0     H16953   3.360   3.093   7.348  0.4926  0.2346  1.4812
  126MOL0     H16954   3.183   3.100   7.402 -0.4575  0.9282  0.4818
  126MOL0     H16955   3.196   3.334   7.408  0.9924 -1.7837  2.4433
  126MOL0     H16956   3.369   3.318   7.361 -0.5257 -0.8887  3.1429
  126MOL0     H16957   3.228   3.382   7.160 -1.7524 -0.2762  0.9150
  126MOL0     H16958   3.285   3.214   7.140  2.4006  1.3988 -0.6687
  126MOL0     H16959   3.011   3.330   7.206 -0.7270  0.7022 -0.8396
  126MOL0     H16960   3.052   3.170   7.271 -0.2562 -1.1438 -2.3104
  126MOL0     H16961   2.870   3.312   7.004 -2.3633 -0.7327 -0.0353
  126MOL0     H16962   2.866   3.200   6.666 -0.0801 -0.9810 -0.3607
  126MOL0     H16963   2.768   3.071   6.737  1.2331  0.8282 -4.8180
  126MOL0     H16964   2.767   3.360   6.838  0.6923  1.3102 -0.5988
  126MOL0     H16965   2.635   3.235   6.856 -0.3829  1.3958  1.1682
  126MOL0     H16966   2.623   3.226   6.600  0.5582 -1.5367  1.5498
  126MOL0     H16967   2.709   3.380   6.584  1.3341  0.5321  2.1046
  126MOL0     H16968   2.444   3.410   6.602  0.7680  3.0806  0.6909
  126MOL0     H16969   2.554   3.503   6.693  0.6819  0.8242  0.0113
  126MOL0     H16970   2.247   3.487   6.665 -1.2968 -0.1943  0.5017
  126MOL0     H16971   2.129   3.771   6.724 -0.7552  0.6676  1.8094
  126MOL0     H16972   2.089   3.619   6.644  2.7461  0.3020  1.1024
  126MOL0     H16973   1.982   3.679   6.770  0.2957 -1.8405  2.3881
  126MOL0     H16974   2.168   3.959   7.175 -2.0450  0.6644 -2.7340
  126MOL0     H16975   2.054   4.167   7.289  3.3580  0.8508  0.9808
  126MOL0     H16976   1.710   4.039   7.501  0.5650 -0.3939 -0.3420
  126MOL0     H16977   1.783   4.110   7.644 -0.2233 -2.3306  0.0503
  126MOL0     H16978   1.695   4.273   7.398  3.5822 -1.2413 -0.2332
  126MOL0     H16979   1.584   4.225   7.535  0.2160 -1.1271 -0.6577
  126MOL0     H16980   1.850   4.379   7.551  0.4336  1.0502  1.0248
  126MOL0     H16981   1.753   4.331   7.689  0.4363 -0.2049 -0.1649
  126MOL0     H16982   1.680   4.519   7.456 -2.3413  1.4461  0.0437
  126MOL0     H16983   1.572   4.485   7.591 -0.2762 -1.1634  0.6026
  126MOL0     H16984   1.725   4.579   7.759 -0.7873  0.7579  0.3608
  126MOL0     H16985   1.680   4.686   7.625  0.0843 -0.0162 -1.7417
  126MOL0     H16986   1.942   4.532   7.652  0.9067  0.1187  1.4282
  126MOL0     H16987   1.898   4.659   7.523 -1.7334  1.7731  0.6446
  126MOL0     H16988   1.919   4.717   7.823 -0.1614  1.2238  0.1648
  126MOL0     H16989   1.896   4.833   7.685 -2.5915 -0.0717  1.6692
  126MOL0     H16990   2.133   4.645   7.713  1.2497 -0.4012 -3.8218
  126MOL0     H16991   2.139   4.823   7.764  1.5777  0.2014 -1.4253
  126MOL0     H16992   1.862   3.874   7.552  1.1620  0.1509  0.9292
  126MOL0     H16993   1.960   3.707   7.437 -0.0613 -0.5539 -1.4069
  126MOL0     H16994   2.243   3.507   7.160  4.2670  5.2872  1.0116
  126MOL0     H16995   2.400   3.366   7.043  0.0922  0.8284  1.6391
  126MOL0     H16996   3.501   2.727   8.039 -0.7504 -1.0566  2.1029
  126MOL0     H16997   3.403   2.737   8.238  2.0274  1.6590 -0.4171
  126MOL0     H16998   3.186   3.038   8.575  0.0573  0.3185  1.4891
  126MOL0     H16999   3.091   3.033   8.793 -5.1352  1.8564 -0.0865
  126MOL0     H17000   3.019   2.946   9.041 -0.5633  1.0092  0.6245
  126MOL0     H17001   2.921   3.044   8.941  1.5747 -0.7659 -0.5693
  126MOL0     H17002   2.704   2.933   9.027  0.9915 -2.2706 -0.4327
  126MOL0     H17003   2.795   3.011   9.163  0.3289 -0.0202 -0.9894
  126MOL0     H17004   2.908   2.760   9.134  0.8247 -2.1400  0.5506
  126MOL0     H17005   2.754   2.720   9.079 -1.1120 -1.2560  2.5533
  126MOL0     H17006   2.784   2.851   9.361 -1.7529  0.7253  0.5088
  126MOL0     H17007   2.728   2.694   9.322  0.2572 -0.3960  0.3829
  126MOL0     H17008   2.407   2.978   9.297 -1.8163 -3.4176  3.0889
  126MOL0     H17009   2.894   2.665   8.664  0.7002 -1.6391 -2.3550
  126MOL0     H17010   2.964   2.692   8.461 -2.3879  1.1313 -0.2567
  127MOL0     O17011   8.354   7.981   8.117  0.4412  0.3453  0.8820
  127MOL0     C17012   8.330   7.988   8.232  1.3300 -0.5061 -1.3893
  127MOL0     O17013   8.234   8.073   8.290 -0.8293 -0.1469  0.7033
  127MOL0     C17014   8.183   8.181   8.220 -0.4883  0.6278  0.5087
  127MOL0     C17015   8.250   8.252   8.121 -0.6963 -0.0012 -0.1120
  127MOL0     C17016   8.196   8.366   8.054  0.3724 -0.3729 -0.3455
  127MOL0     C17017   8.063   8.420   8.097 -0.0848  0.5049  0.8886
  127MOL0     O17018   7.995   8.526   8.035 -0.3934  0.3275 -1.0068
  127MOL0     C17019   8.072   8.604   7.946 -0.3796  0.2260 -0.4296
  127MOL0     C17020   7.988   8.727   7.899 -0.0740 -0.0366 -1.0137
  127MOL0     C17021   8.052   8.820   7.801 -0.6954  0.4260 -0.6184
  127MOL0     C17022   7.952   8.917   7.737  0.4156  0.3741 -0.5022
  127MOL0     C17023   8.004   8.982   7.610 -1.0247 -0.9572  0.0640
  127MOL0     C17024   7.890   9.065   7.543  0.4909  0.1282  0.8813
  127MOL0     C17025   7.825   9.175   7.636 -0.0700 -0.3638  0.2033
  127MOL0     C17026   7.705   9.236   7.560 -0.0881  0.1259  0.2063
  127MOL0     N17027   7.726   9.367   7.497 -0.5808 -0.2931 -0.4122
  127MOL0     C17028   7.750   9.486   7.559 -0.2550  0.5620 -0.4669
  127MOL0     C17029   7.742   9.583   7.468  0.7216  0.0894  0.0771
  127MOL0     C17030   7.741   9.727   7.486  0.0357 -0.1174  0.3012
  127MOL0     C17031   7.605   9.805   7.437 -0.3886  1.2371 -0.3259
  127MOL0     C17032   7.482   9.764   7.516  0.1595  0.8806 -0.2843
  127MOL0     C17033   7.359   9.811   7.443  0.0348 -0.0208  1.2423
  127MOL0     O17034   7.377   9.956   7.437  0.2024  0.2393  0.2502
  127MOL0     C17035   7.305  10.008   7.340  0.7099  1.1012  0.0125
  127MOL0     C17036   7.384  10.053   7.232 -0.1402 -1.0109 -0.4146
  127MOL0     C17037   7.301  10.109   7.123 -0.1444  0.7677 -1.2262
  127MOL0     C17038   7.364  10.135   6.991 -0.4811  0.1305  0.2058
  127MOL0     C17039   7.162  10.132   7.144 -0.3851  0.5559  0.0452
  127MOL0     C17040   7.066  10.196   7.043  0.0074 -0.0939 -0.0582
  127MOL0     O17041   6.935  10.215   7.082 -0.2480  0.1493  1.0159
  127MOL0     C17042   6.855  10.261   6.989  0.1316 -0.3222 -0.2910
  127MOL0     C17043   6.768  10.173   6.927  0.3452 -0.6844 -0.2810
  127MOL0     C17044   6.672  10.224   6.832  0.3368  0.4737  0.4267
  127MOL0     C17045   6.655  10.358   6.818  0.0519 -0.3026  0.0720
  127MOL0     O17046   6.553  10.424   6.748 -0.0361 -0.1042 -0.2820
  127MOL0     C17047   6.428  10.353   6.720  0.3006 -0.3050  0.1565
  127MOL0     C17048   6.327  10.451   6.782 -0.6423 -0.1844  0.0085
  127MOL0     C17049   6.309  10.593   6.727 -0.8143 -0.2988 -0.7816
  127MOL0     C17050   6.290  10.603   6.571  0.3024  0.0106 -0.5304
  127MOL0     C17051   6.245  10.749   6.538 -0.1662  0.6700  0.3315
  127MOL0     C17052   6.357  10.833   6.489  0.3220  0.7169 -0.2524
  127MOL0     C17053   6.366  10.836   6.330 -0.5152 -0.4374 -1.4289
  127MOL0     C17054   6.500  10.895   6.288 -0.5943  0.0119  0.3695
  127MOL0    Cl17055   6.490  10.971   6.120 -0.2434  0.3243 -0.2155
  127MOL0     C17056   6.745  10.445   6.875 -0.1892  0.1691 -0.5848
  127MOL0     C17057   6.851  10.400   6.961 -0.3069 -0.0967  0.3910
  127MOL0     O17058   7.105  10.225   6.928 -0.4500 -0.7846 -0.5243
  127MOL0     C17059   7.103  10.088   7.263 -0.0215 -0.5115  1.1545
  127MOL0     C17060   7.173  10.028   7.366 -1.1753 -0.6458 -0.2536
  127MOL0     N17061   7.718   9.525   7.342 -0.6153  0.7338  0.0027
  127MOL0     N17062   7.716   9.396   7.365 -0.1736  0.1191  0.4524
  127MOL0     C17063   7.993   8.334   8.183 -0.3518 -0.7373  0.3982
  127MOL0     C17064   8.052   8.220   8.243 -0.3260 -0.1400 -0.2498
  127MOL0     C17065   8.417   7.899   8.319  0.6799 -0.0148 -0.0501
  127MOL0     C17066   8.367   7.882   8.454 -0.0552  0.3018  0.5468
  127MOL0     C17067   8.442   7.792   8.533  0.5730 -0.1613  0.5334
  127MOL0     C17068   8.550   7.717   8.481 -0.2087  0.1613 -0.7869
  127MOL0     O17069   8.632   7.652   8.565  0.0649 -0.4321  0.5124
  127MOL0     C17070   8.677   7.522   8.520 -0.7677 -1.5356  0.4340
  127MOL0     C17071   8.643   7.400   8.608  0.2560 -0.4345  0.0274
  127MOL0     C17072   8.493   7.409   8.655  0.0941  0.6371  0.2768
  127MOL0     C17073   8.462   7.304   8.770  0.2767  0.4739  0.0445
  127MOL0     C17074   8.544   7.319   8.896 -0.6758 -0.3640  0.4885
  127MOL0     C17075   8.590   7.325   9.009  0.1495 -0.0365  0.4159
  127MOL0     C17076   8.594   7.742   8.351 -0.1897 -0.5178  0.9179
  127MOL0     C17077   8.529   7.834   8.267  0.2329  0.7541  0.7066
  127MOL0     H17078   8.346   8.223   8.079 -0.7970  1.9590 -1.9022
  127MOL0     H17079   8.262   8.411   7.981  1.4737  1.6909  1.7954
  127MOL0     H17080   8.167   8.630   7.994  1.0099 -1.1224 -2.3095
  127MOL0     H17081   8.099   8.543   7.860 -0.5922 -1.1703  0.4538
  127MOL0     H17082   7.894   8.690   7.857 -0.1322 -1.7231  0.5083
  127MOL0     H17083   7.970   8.782   7.992  0.2167 -2.0657  0.3040
  127MOL0     H17084   8.136   8.878   7.840 -1.5766  2.0278 -1.0058
  127MOL0     H17085   8.108   8.773   7.720  0.8648  1.4950 -0.2154
  127MOL0     H17086   7.861   8.859   7.720 -0.3012  0.5506  2.2870
  127MOL0     H17087   7.923   8.993   7.810 -2.5315 -1.0386 -0.0463
  127MOL0     H17088   8.085   9.051   7.637 -3.4551  1.1300  2.6405
  127MOL0     H17089   8.019   8.907   7.532 -3.1698 -1.0528 -0.3223
  127MOL0     H17090   7.920   9.129   7.460 -2.8265  0.4558 -0.2447
  127MOL0     H17091   7.823   8.989   7.502  0.0683 -0.6959  2.9579
  127MOL0     H17092   7.782   9.119   7.720  1.3290 -0.7354  0.7030
  127MOL0     H17093   7.888   9.260   7.663 -0.8830  0.7670 -1.3258
  127MOL0     H17094   7.632   9.252   7.640  0.2782  3.7255 -0.0537
  127MOL0     H17095   7.675   9.167   7.480  4.4508 -3.3577  1.1210
  127MOL0     H17096   7.760   9.493   7.667  1.7771  3.4225 -0.7174
  127MOL0     H17097   7.747   9.763   7.590  2.1797 -0.8110  0.4507
  127MOL0     H17098   7.819   9.769   7.422 -1.2760  1.3918 -0.4067
  127MOL0     H17099   7.581   9.772   7.335  0.4955 -1.6162  0.2764
  127MOL0     H17100   7.624   9.912   7.436 -1.2673  1.4374  1.2485
  127MOL0     H17101   7.481   9.828   7.605 -1.7799  2.6939 -1.5110
  127MOL0     H17102   7.476   9.657   7.537  1.5351  0.6062 -1.1357
  127MOL0     H17103   7.270   9.780   7.499 -0.2563  1.5248  1.6776
  127MOL0     H17104   7.360   9.772   7.341  0.0371  2.1748  0.3575
  127MOL0     H17105   7.491  10.035   7.231  0.3826  1.5433  0.8053
  127MOL0     H17106   7.311  10.076   6.916  0.1425 -1.0645  0.6795
  127MOL0     H17107   7.354  10.236   6.949  2.8490  0.4487 -0.1496
  127MOL0     H17108   7.470  10.105   6.990 -0.3413  0.5159 -1.8007
  127MOL0     H17109   6.768  10.066   6.949  1.5801 -0.2901  1.9515
  127MOL0     H17110   6.612  10.158   6.770  0.8346 -0.3096  0.7552
  127MOL0     H17111   6.395  10.344   6.616 -0.1299 -0.5176  0.3088
  127MOL0     H17112   6.414  10.253   6.763  1.6619  0.4307  2.4971
  127MOL0     H17113   6.226  10.411   6.778 -0.7089 -0.3058  2.0959
  127MOL0     H17114   6.344  10.466   6.889  1.2748 -2.9624  0.2081
  127MOL0     H17115   6.392  10.655   6.761 -2.6983  1.5143  0.7907
  127MOL0     H17116   6.224  10.642   6.776 -0.0383  3.0567 -2.5643
  127MOL0     H17117   6.385  10.583   6.522  0.5188  3.4426 -1.7732
  127MOL0     H17118   6.222  10.525   6.536 -2.0965  1.4386  0.6694
  127MOL0     H17119   6.195  10.797   6.622  1.7539  1.1926  1.2372
  127MOL0     H17120   6.169  10.730   6.462  2.4778  0.2575 -2.3782
  127MOL0     H17121   6.330  10.933   6.524 -3.8874 -0.1270 -0.5106
  127MOL0     H17122   6.442  10.798   6.547 -2.1230 -1.0434  2.5840
  127MOL0     H17123   6.278  10.869   6.273  0.3480  3.5512 -0.7248
  127MOL0     H17124   6.362  10.728   6.312 -0.5945 -0.8604  0.8730
  127MOL0     H17125   6.581  10.823   6.300  0.0293  0.7586  0.6797
  127MOL0     H17126   6.526  10.968   6.365 -1.2113  0.4002  0.2179
  127MOL0     H17127   6.734  10.547   6.841  3.5726  0.7045 -0.6108
  127MOL0     H17128   6.910  10.482   7.000 -2.3821  0.7918  1.8434
  127MOL0     H17129   6.994  10.087   7.262 -0.1249 -1.0920 -2.9720
  127MOL0     H17130   7.135   9.988   7.459  1.4529 -0.9373  0.7990
  127MOL0     H17131   7.893   8.371   8.206  0.2654 -0.5500  3.0856
  127MOL0     H17132   7.992   8.164   8.314  3.4182 -0.5961  2.8463
  127MOL0     H17133   8.275   7.931   8.484 -0.5503 -0.5288  0.4135
  127MOL0     H17134   8.416   7.779   8.638 -2.1096 -3.9408 -0.3850
  127MOL0     H17135   8.631   7.495   8.425  2.9241 -2.4146 -1.2444
  127MOL0     H17136   8.783   7.518   8.494 -0.8135  2.3546 -0.9825
  127MOL0     H17137   8.701   7.405   8.700  0.8584 -2.4745 -0.1919
  127MOL0     H17138   8.669   7.306   8.558 -1.2050 -1.2499  0.7307
  127MOL0     H17139   8.428   7.381   8.572  2.4013 -0.2515 -1.3617
  127MOL0     H17140   8.462   7.507   8.691  3.2045  3.2509 -3.3420
  127MOL0     H17141   8.467   7.200   8.736 -1.7539  0.2929  0.1780
  127MOL0     H17142   8.355   7.302   8.791  0.4496 -0.8174  0.9524
  127MOL0     H17143   8.634   7.330   9.107  2.9971 -2.2345 -0.6042
  127MOL0     H17144   8.682   7.697   8.306 -0.3844  2.4842 -2.9217
  127MOL0     H17145   8.568   7.828   8.166  3.5351 -1.9243  1.9534
  128MOL0     O17146   6.510   0.010   8.712 -0.1943  1.0020 -0.5315
  128MOL0     C17147   6.461   0.115   8.753  0.2272  0.8544  0.9658
  128MOL0     O17148   6.426   0.221   8.682 -0.0067 -0.0433 -0.3795
  128MOL0     C17149   6.425   0.211   8.542 -0.0231  0.0673  0.3018
  128MOL0     C17150   6.355   0.103   8.479  0.3161 -0.0814 -0.1501
  128MOL0     C17151   6.334   0.106   8.339 -0.7581  0.0874  0.2658
  128MOL0     C17152   6.383   0.211   8.257 -0.5871  0.9337  0.1174
  128MOL0     O17153   6.365   0.193   8.123 -0.2582  0.1462  0.3606
  128MOL0     C17154   6.501   0.170   8.066  0.3867 -0.3361 -1.3378
  128MOL0     C17155   6.470   0.084   7.944 -0.5337 -0.1342 -0.3913
  128MOL0     C17156   6.428  -0.068   7.972  0.0073 -0.1532 -0.0931
  128MOL0     C17157   6.376  -0.155   7.854 -0.6226 -0.1598 -0.1150
  128MOL0     C17158   6.262  -0.090   7.777  0.9357  0.6637 -0.6809
  128MOL0     C17159   6.220  -0.195   7.664 -0.4183 -0.0381 -0.0404
  128MOL0     C17160   6.099  -0.148   7.577  0.0072 -0.8479 -0.0603
  128MOL0     C17161   5.964  -0.144   7.661  0.4988 -0.1263 -0.3086
  128MOL0     N17162   5.900  -0.278   7.685 -0.6575 -0.8582  0.2609
  128MOL0     C17163   5.861  -0.362   7.586 -0.9708 -0.7197  0.1841
  128MOL0     C17164   5.831  -0.477   7.651  1.6737 -0.5562 -0.3323
  128MOL0     C17165   5.777  -0.607   7.585  0.2348 -0.0875  0.6079
  128MOL0     C17166   5.804  -0.631   7.433 -0.2956 -0.8453 -0.5931
  128MOL0     C17167   5.949  -0.622   7.404  0.2035 -0.1285  0.5054
  128MOL0     C17168   5.981  -0.618   7.266  0.1664 -0.0983 -0.0351
  128MOL0     O17169   6.101  -0.535   7.234 -0.2491  0.2277 -0.5074
  128MOL0     C17170   6.218  -0.578   7.294 -0.3591  0.1758 -0.4418
  128MOL0     C17171   6.263  -0.537   7.423  0.7062 -0.3934  0.6087
  128MOL0     C17172   6.390  -0.568   7.481  0.1058 -0.0962  0.2713
  128MOL0     C17173   6.409  -0.547   7.622  0.6960 -0.2444 -0.2140
  128MOL0     C17174   6.473  -0.643   7.386 -0.0438  0.2206 -0.2610
  128MOL0     C17175   6.605  -0.700   7.422  0.5361  0.3374  1.3567
  128MOL0     O17176   6.696  -0.614   7.473  0.6164 -0.7333  0.3045
  128MOL0     C17177   6.800  -0.647   7.543 -0.1809 -0.3348 -0.0595
  128MOL0     C17178   6.929  -0.593   7.514 -0.0056  0.0629  1.2449
  128MOL0     C17179   7.044  -0.634   7.577  0.3034 -0.0717 -0.0630
  128MOL0     C17180   7.034  -0.723   7.682  0.0033 -0.1843  0.1471
  128MOL0     O17181   7.152  -0.759   7.745 -0.4037  0.3654 -0.0571
  128MOL0     C17182   7.158  -0.838   7.864 -0.0389  0.2623 -0.0273
  128MOL0     C17183   7.298  -0.812   7.925  0.0511  0.6759 -0.3241
  128MOL0     C17184   7.298  -0.689   8.013 -0.3327 -0.2699 -1.1910
  128MOL0     C17185   7.279  -0.732   8.164  0.4162 -0.7037 -1.4019
  128MOL0     C17186   7.248  -0.609   8.248 -0.1457  0.3452  0.3719
  128MOL0     C17187   7.371  -0.518   8.271  0.8383 -0.7349  0.3257
  128MOL0     C17188   7.406  -0.409   8.170  0.0597  0.7411  0.1362
  128MOL0     C17189   7.509  -0.310   8.214  0.3861  0.3665  0.3726
  128MOL0    Cl17190   7.490  -0.227   8.373  0.2908  0.2551  0.2773
  128MOL0     C17191   6.911  -0.785   7.710  0.4256 -0.3637  0.2535
  128MOL0     C17192   6.798  -0.735   7.648  0.0094  0.6101 -0.2620
  128MOL0     O17193   6.621  -0.825   7.408  0.8778 -0.7624 -0.2850
  128MOL0     C17194   6.420  -0.693   7.264 -0.2907  0.0885  0.6049
  128MOL0     C17195   6.298  -0.665   7.214  0.1283 -0.4595 -0.5441
  128MOL0     N17196   5.855  -0.457   7.785 -0.4400 -0.0183 -0.5423
  128MOL0     N17197   5.895  -0.338   7.808  0.0079  0.3001  0.7367
  128MOL0     C17198   6.453   0.322   8.318  0.4118  0.4286  0.5753
  128MOL0     C17199   6.478   0.311   8.460  0.5840  0.0115 -0.6760
  128MOL0     C17200   6.448   0.127   8.900  0.4502 -1.1476 -1.3002
  128MOL0     C17201   6.459   0.015   8.985  0.6744 -0.7253 -0.4273
  128MOL0     C17202   6.430   0.030   9.122 -0.0422  0.8275 -0.5103
  128MOL0     C17203   6.406   0.159   9.178 -1.5491  0.5453 -0.3947
  128MOL0     O17204   6.418   0.171   9.319 -0.7028  0.4721  0.6190
  128MOL0     C17205   6.390   0.299   9.372  0.0062 -0.0915  0.1378
  128MOL0     C17206   6.340   0.275   9.517 -0.5238 -0.2891 -0.6558
  128MOL0     C17207   6.324   0.408   9.584 -1.1348 -0.3130  0.4252
  128MOL0     C17208   6.307   0.393   9.735 -0.4126 -0.9165 -0.1337
  128MOL0     C17209   6.168   0.414   9.772  0.2449 -0.8401 -0.0728
  128MOL0     C17210   6.047   0.425   9.790 -0.4796  0.5317 -0.3704
  128MOL0     C17211   6.399   0.270   9.093  1.4621  0.3322  0.7897
  128MOL0     C17212   6.412   0.255   8.955 -0.5668  0.0602 -0.6165
  128MOL0     H17213   6.308   0.027   8.540  2.0516 -0.1961  1.1230
  128MOL0     H17214   6.277   0.023   8.300 -1.9833  1.8525 -1.9631
  128MOL0     H17215   6.544   0.268   8.040  3.1368 -0.8197  0.8227
  128MOL0     H17216   6.554   0.118   8.146 -1.3364  0.1656  0.2067
  128MOL0     H17217   6.400   0.130   7.873  1.9519  1.6580 -1.8366
  128MOL0     H17218   6.567   0.078   7.895  0.6223 -0.9868  1.8319
  128MOL0     H17219   6.518  -0.123   8.003  1.1148  2.2610  1.2652
  128MOL0     H17220   6.348  -0.063   8.046  0.3463 -0.3000  0.2822
  128MOL0     H17221   6.466  -0.164   7.792  0.2867  2.7286  0.6249
  128MOL0     H17222   6.356  -0.255   7.894  1.2297 -0.1675  0.9347
  128MOL0     H17223   6.176  -0.069   7.842  1.5189  0.5675  0.1293
  128MOL0     H17224   6.293  -0.002   7.720  0.6477 -0.0937 -2.0682
  128MOL0     H17225   6.304  -0.232   7.605 -0.6666 -0.5155 -0.0956
  128MOL0     H17226   6.188  -0.284   7.720  5.0287 -1.6636  1.1306
  128MOL0     H17227   6.117  -0.050   7.532 -1.5401  0.8814  2.7570
  128MOL0     H17228   6.075  -0.224   7.503 -2.0494 -1.4421  1.1277
  128MOL0     H17229   5.896  -0.092   7.592 -1.6973 -3.4022 -0.9020
  128MOL0     H17230   5.981  -0.090   7.754  0.6530  0.1766 -0.5150
  128MOL0     H17231   5.865  -0.346   7.479 -0.0729  0.3428  0.3574
  128MOL0     H17232   5.804  -0.701   7.635 -3.5679 -1.2887  0.7253
  128MOL0     H17233   5.668  -0.606   7.595  0.0531  0.4647 -1.1254
  128MOL0     H17234   5.745  -0.547   7.396 -1.8993 -0.0835  3.1667
  128MOL0     H17235   5.753  -0.721   7.398  0.3070 -0.4320 -2.6874
  128MOL0     H17236   6.006  -0.704   7.448  0.4258 -1.4920 -2.1436
  128MOL0     H17237   5.988  -0.525   7.438  3.5588 -0.8990 -0.8270
  128MOL0     H17238   5.895  -0.574   7.214 -0.2588  1.0477  1.5651
  128MOL0     H17239   6.004  -0.715   7.222 -0.6889 -1.5780  2.5757
  128MOL0     H17240   6.204  -0.472   7.487  2.8662  0.9762  1.3336
  128MOL0     H17241   6.475  -0.624   7.663 -0.8384 -3.3257 -3.0654
  128MOL0     H17242   6.441  -0.444   7.645 -1.4782  0.7761 -1.4043
  128MOL0     H17243   6.314  -0.548   7.675 -0.9120  2.1946 -2.7372
  128MOL0     H17244   6.947  -0.506   7.452  0.7159 -0.6815  0.3873
  128MOL0     H17245   7.141  -0.593   7.549 -0.5378  3.6050  1.8680
  128MOL0     H17246   7.087  -0.808   7.942 -0.3890  0.1550 -0.3023
  128MOL0     H17247   7.136  -0.940   7.830 -1.4221  1.2844 -2.3825
  128MOL0     H17248   7.330  -0.902   7.978  0.7724  0.1171 -1.6478
  128MOL0     H17249   7.362  -0.808   7.836  0.4013 -2.8278 -0.3588
  128MOL0     H17250   7.228  -0.614   7.977  1.1365 -0.0871 -3.9135
  128MOL0     H17251   7.395  -0.647   7.986 -0.0391  0.2818  0.6016
  128MOL0     H17252   7.192  -0.799   8.162 -1.8228  1.8884  0.6932
  128MOL0     H17253   7.366  -0.789   8.196 -0.7457 -1.4073  0.6747
  128MOL0     H17254   7.216  -0.650   8.345  0.8360 -2.6545 -0.4669
  128MOL0     H17255   7.165  -0.550   8.208 -1.6060 -2.5662 -1.2365
  128MOL0     H17256   7.339  -0.461   8.358  0.2423 -1.1227  0.3647
  128MOL0     H17257   7.462  -0.572   8.299  2.6665  1.5886 -0.7819
  128MOL0     H17258   7.320  -0.345   8.146 -1.7712 -1.4043  0.6701
  128MOL0     H17259   7.429  -0.453   8.072 -0.8586  0.0909  0.2028
  128MOL0     H17260   7.515  -0.233   8.136 -1.7059 -1.6081 -1.9383
  128MOL0     H17261   7.609  -0.353   8.216  1.1774  2.0705  3.1705
  128MOL0     H17262   6.894  -0.871   7.773 -1.7367  0.4088  0.8045
  128MOL0     H17263   6.696  -0.765   7.670  0.5311 -0.3279  1.0318
  128MOL0     H17264   6.484  -0.756   7.204 -2.1610 -0.6543 -0.6887
  128MOL0     H17265   6.266  -0.701   7.117 -3.0183  3.4840 -1.2640
  128MOL0     H17266   6.504   0.398   8.261 -1.1295  2.8493  2.2526
  128MOL0     H17267   6.533   0.387   8.514 -3.4025  1.4088  1.8345
  128MOL0     H17268   6.492  -0.074   8.933 -2.5318 -2.7338  0.6062
  128MOL0     H17269   6.431  -0.057   9.187 -2.9029  0.4434 -0.8593
  128MOL0     H17270   6.476   0.366   9.371  0.5905 -0.8010 -1.7320
  128MOL0     H17271   6.312   0.352   9.316  1.4390  0.7035 -1.1645
  128MOL0     H17272   6.410   0.205   9.564 -1.2653 -0.9300 -0.4638
  128MOL0     H17273   6.240   0.230   9.524  0.5792 -2.7371  1.1054
  128MOL0     H17274   6.234   0.451   9.541 -2.5489 -3.7295 -0.3763
  128MOL0     H17275   6.403   0.481   9.566 -2.4327  0.7815 -1.1576
  128MOL0     H17276   6.377   0.464   9.779  1.5661 -2.3214 -0.8951
  128MOL0     H17277   6.335   0.300   9.785 -1.0737 -0.2350  1.5966
  128MOL0     H17278   5.941   0.418   9.808  0.0342 -1.6317  2.5955
  128MOL0     H17279   6.373   0.370   9.125 -1.8952  0.5389 -1.9754
  128MOL0     H17280   6.398   0.337   8.885  2.2884  0.8450 -0.3983
  129MOL0     O17281   8.367   5.886   3.223  0.5154  0.8063  0.0578
  129MOL0     C17282   8.401   5.834   3.121 -0.4013 -0.9399  1.3193
  129MOL0     O17283   8.490   5.891   3.022  0.4516  0.1375  0.4050
  129MOL0     C17284   8.557   6.016   3.034 -0.3636 -0.8091  0.1045
  129MOL0     C17285   8.665   6.031   2.944  0.2208  0.1086 -0.6059
  129MOL0     C17286   8.715   6.157   2.930 -0.6378  0.0244  0.2254
  129MOL0     C17287   8.677   6.267   3.014 -0.5959  0.1186 -0.4429
  129MOL0     O17288   8.746   6.390   3.014  0.9506 -0.0739 -1.0246
  129MOL0     C17289   8.832   6.413   2.907  0.6570 -0.1551  0.2325
  129MOL0     C17290   8.899   6.549   2.911  0.1221  0.2439 -0.0135
  129MOL0     C17291   8.956   6.590   2.779  1.2934  0.6785  0.3252
  129MOL0     C17292   8.891   6.712   2.722  1.3299 -0.5470 -0.2517
  129MOL0     C17293   8.923   6.738   2.572 -1.0948  0.2928 -0.3266
  129MOL0     C17294   8.873   6.866   2.505  0.4956  0.5459 -0.1581
  129MOL0     C17295   8.875   6.846   2.351 -0.1904  0.1137 -0.5670
  129MOL0     C17296   8.743   6.788   2.310  0.5917  1.2062 -0.7600
  129MOL0     N17297   8.762   6.714   2.184 -0.0690  0.0588 -0.4555
  129MOL0     C17298   8.864   6.725   2.097  0.0128 -0.0176  0.6507
  129MOL0     C17299   8.827   6.643   1.988  0.0054  0.7431 -0.2064
  129MOL0     C17300   8.893   6.650   1.853 -0.4096 -0.2475  0.1121
  129MOL0     C17301   8.892   6.518   1.765 -0.2183  0.1712  0.0157
  129MOL0     C17302   8.981   6.506   1.634  0.5270 -0.2032  0.0397
  129MOL0     C17303   8.933   6.604   1.521 -0.8393  0.0051  0.0924
  129MOL0     O17304   8.990   6.561   1.400 -1.0734  0.1351 -0.1748
  129MOL0     C17305   8.940   6.619   1.283  0.5787 -0.0521 -0.3190
  129MOL0     C17306   8.906   6.534   1.175  1.4383  0.2885 -0.8623
  129MOL0     C17307   8.830   6.572   1.065 -0.8446  0.1997  0.0876
  129MOL0     C17308   8.786   6.462   0.963 -0.2028  0.0926  1.2443
  129MOL0     C17309   8.798   6.713   1.052 -0.9770 -0.2030 -0.9558
  129MOL0     C17310   8.714   6.771   0.947 -0.4404  0.5180 -0.3863
  129MOL0     O17311   8.626   6.868   0.986  0.3906 -0.2261  0.4369
  129MOL0     C17312   8.551   6.910   0.880 -0.6426 -0.1714 -0.0168
  129MOL0     C17313   8.448   6.831   0.827  1.0154  0.5383  0.7554
  129MOL0     C17314   8.359   6.867   0.717 -0.2212  0.2217 -0.6307
  129MOL0     C17315   8.369   7.000   0.676  0.2438 -0.4011 -0.4631
  129MOL0     O17316   8.277   7.048   0.585  0.1971 -0.0913  0.7449
  129MOL0     C17317   8.242   7.190   0.572  0.6438 -0.8325  1.0257
  129MOL0     C17318   8.189   7.210   0.431  0.5714 -0.3799  0.0231
  129MOL0     C17319   8.291   7.185   0.320 -0.0843  0.6627  1.1038
  129MOL0     C17320   8.264   7.274   0.202 -0.0845  0.7413 -0.3034
  129MOL0     C17321   8.354   7.248   0.093 -0.4982 -0.5012  0.0213
  129MOL0     C17322   8.325   7.324  -0.034 -0.5423  0.1014  0.6242
  129MOL0     C17323   8.445   7.308  -0.141 -0.0759  0.3143 -0.3922
  129MOL0     C17324   8.570   7.397  -0.113 -0.3581 -0.9472  1.0159
  129MOL0    Cl17325   8.691   7.395  -0.245  0.1822  0.2785  0.0169
  129MOL0     C17326   8.460   7.088   0.735 -0.0820 -0.3208 -0.1323
  129MOL0     C17327   8.554   7.040   0.828 -0.8512 -0.7450  0.3420
  129MOL0     O17328   8.743   6.730   0.833 -0.0803 -0.6355  0.7246
  129MOL0     C17329   8.858   6.807   1.145  0.1678 -0.1577  0.5533
  129MOL0     C17330   8.919   6.760   1.266  0.7227  0.7538  0.3405
  129MOL0     N17331   8.712   6.576   2.018  0.2717  0.0113 -0.6529
  129MOL0     N17332   8.663   6.627   2.138 -0.6263 -0.5188 -0.0679
  129MOL0     C17333   8.579   6.248   3.107 -0.1865  0.1508 -0.5958
  129MOL0     C17334   8.511   6.122   3.120  0.6066  0.7101  0.2293
  129MOL0     C17335   8.353   5.691   3.100 -0.2773 -0.8892 -0.1325
  129MOL0     C17336   8.274   5.639   3.198 -0.4901  0.5824  0.4404
  129MOL0     C17337   8.210   5.515   3.181  0.1969  0.4929 -0.5321
  129MOL0     C17338   8.220   5.441   3.062 -0.6862 -0.1246 -0.7886
  129MOL0     O17339   8.172   5.317   3.045  0.1622 -0.3904 -0.4497
  129MOL0     C17340   8.141   5.288   2.916 -0.2655 -0.0141 -0.4276
  129MOL0     C17341   8.070   5.155   2.924 -0.2819  0.4994  0.1563
  129MOL0     C17342   7.931   5.168   2.985  0.7072 -0.3311 -0.1408
  129MOL0     C17343   7.918   5.136   3.129 -0.3104 -0.0782 -0.0163
  129MOL0     C17344   7.860   5.244   3.212  0.0131 -0.9285 -0.2119
  129MOL0     C17345   7.802   5.314   3.296  0.2607  0.5625 -0.1008
  129MOL0     C17346   8.301   5.502   2.965  0.3915  0.1597 -0.9910
  129MOL0     C17347   8.361   5.628   2.977  0.7338 -0.2465 -0.6750
  129MOL0     H17348   8.694   5.944   2.886  0.7103 -0.0388 -0.1477
  129MOL0     H17349   8.799   6.173   2.863 -0.6399 -1.8451 -0.2699
  129MOL0     H17350   8.917   6.345   2.912  1.4258  0.8266  0.6844
  129MOL0     H17351   8.769   6.388   2.820 -1.4222  0.0037  1.6226
  129MOL0     H17352   8.824   6.618   2.953  0.4872 -0.9092  2.7577
  129MOL0     H17353   8.979   6.552   2.986 -1.5067  0.2216  1.8172
  129MOL0     H17354   9.063   6.611   2.792  2.3234 -2.0446 -2.4577
  129MOL0     H17355   8.948   6.504   2.713  1.2864  1.0985 -0.2274
  129MOL0     H17356   8.784   6.710   2.743  1.5228  1.7501  1.3005
  129MOL0     H17357   8.913   6.802   2.779 -1.0361 -0.9164  1.3837
  129MOL0     H17358   9.031   6.729   2.563 -1.0747  0.0717  0.1085
  129MOL0     H17359   8.891   6.653   2.510 -1.4602  1.0093 -1.1424
  129MOL0     H17360   8.769   6.880   2.537  1.6686  4.5579  2.5964
  129MOL0     H17361   8.927   6.956   2.535  0.4261  0.2628  0.8636
  129MOL0     H17362   8.896   6.930   2.284 -2.9564 -0.1954 -1.9544
  129MOL0     H17363   8.957   6.778   2.324 -0.5447  0.0025 -1.4186
  129MOL0     H17364   8.666   6.866   2.299 -2.2673 -1.2134  0.6625
  129MOL0     H17365   8.695   6.727   2.387  1.6609 -1.5864 -2.1752
  129MOL0     H17366   8.943   6.800   2.091  2.0937 -2.2187 -1.4688
  129MOL0     H17367   8.848   6.724   1.787 -2.1676  0.7941  2.3272
  129MOL0     H17368   8.998   6.664   1.881 -0.0129 -2.8847  0.1304
  129MOL0     H17369   8.788   6.486   1.749  0.1994 -0.5965 -1.2688
  129MOL0     H17370   8.920   6.435   1.831  0.3294  0.5932  0.3170
  129MOL0     H17371   8.967   6.405   1.596  0.8276 -0.2430  0.0339
  129MOL0     H17372   9.079   6.533   1.674 -1.2539  2.4381  3.1959
  129MOL0     H17373   8.958   6.709   1.542 -1.0976  0.5599 -2.1476
  129MOL0     H17374   8.824   6.592   1.519 -0.7713 -0.5069 -1.6502
  129MOL0     H17375   8.917   6.427   1.193 -0.3516 -0.0328 -1.4107
  129MOL0     H17376   8.830   6.484   0.865 -3.1991 -0.6224 -0.3874
  129MOL0     H17377   8.810   6.360   0.994 -0.1426 -2.0070 -4.5192
  129MOL0     H17378   8.679   6.460   0.943  0.0338 -2.5818 -0.3179
  129MOL0     H17379   8.462   6.734   0.873  0.1344  1.1506  2.3693
  129MOL0     H17380   8.292   6.794   0.673 -0.4202  0.8700 -1.4413
  129MOL0     H17381   8.176   7.228   0.650  0.9433 -2.4997  2.1366
  129MOL0     H17382   8.338   7.241   0.560 -0.4731  1.4237  1.1518
  129MOL0     H17383   8.090   7.173   0.405 -0.4929  2.5607 -0.5589
  129MOL0     H17384   8.184   7.319   0.420  2.6480 -0.1434  1.0072
  129MOL0     H17385   8.290   7.086   0.274  2.5306  1.7455 -1.5947
  129MOL0     H17386   8.394   7.201   0.355  0.7041 -1.4106 -0.1285
  129MOL0     H17387   8.165   7.245   0.166  0.3793 -0.8624 -0.3484
  129MOL0     H17388   8.266   7.382   0.222  0.4613  0.9292 -1.3037
  129MOL0     H17389   8.340   7.145   0.059  1.1104 -1.1525  1.1746
  129MOL0     H17390   8.458   7.262   0.124 -0.8709 -1.5070  1.8384
  129MOL0     H17391   8.240   7.284  -0.090  0.7881  2.1307 -3.3122
  129MOL0     H17392   8.311   7.427  -0.000  0.4272  0.8961 -1.2135
  129MOL0     H17393   8.423   7.325  -0.247  2.3788 -1.5830 -1.3140
  129MOL0     H17394   8.471   7.201  -0.139 -2.9983 -0.5041  2.9493
  129MOL0     H17395   8.617   7.372  -0.017 -0.7149  0.4078  1.5632
  129MOL0     H17396   8.533   7.500  -0.111 -3.6527 -1.9938 -0.0469
  129MOL0     H17397   8.471   7.195   0.720  3.2752 -0.3238  1.3589
  129MOL0     H17398   8.629   7.111   0.862 -1.5694  0.5580 -0.7317
  129MOL0     H17399   8.837   6.912   1.130  3.6964  0.3718 -1.7504
  129MOL0     H17400   8.948   6.832   1.342  3.5501 -0.3193  0.3812
  129MOL0     H17401   8.550   6.339   3.158  0.3205  1.1364 -1.9970
  129MOL0     H17402   8.430   6.102   3.189 -3.0594  0.2483 -3.7822
  129MOL0     H17403   8.249   5.692   3.290  0.7240  0.7593  0.6809
  129MOL0     H17404   8.153   5.487   3.269  1.9647  0.0445  0.5359
  129MOL0     H17405   8.078   5.367   2.874 -0.5492  0.7351  1.3110
  129MOL0     H17406   8.226   5.269   2.849 -2.9730 -0.3421 -4.0793
  129MOL0     H17407   8.117   5.079   2.987  2.3681  2.0040  0.1237
  129MOL0     H17408   8.065   5.124   2.819  2.8664  2.3511 -0.6569
  129MOL0     H17409   7.876   5.088   2.936 -4.0062  1.6844  1.2454
  129MOL0     H17410   7.875   5.254   2.947 -1.5666 -2.6025 -2.3085
  129MOL0     H17411   8.018   5.115   3.168  0.9066  2.1011 -1.6932
  129MOL0     H17412   7.846   5.056   3.145  0.2798 -0.7747 -0.7484
  129MOL0     H17413   7.739   5.361   3.370 -0.1298 -3.1742  2.1762
  129MOL0     H17414   8.308   5.455   2.868 -0.1094 -1.3019 -0.3495
  129MOL0     H17415   8.413   5.670   2.891  0.9405 -0.9419 -0.8976
  130MOL0     O17416   6.805   2.004   5.335  0.4122 -0.3602 -0.1452
  130MOL0     C17417   6.882   1.952   5.255  1.1054  0.6578 -1.0937
  130MOL0     O17418   6.864   1.940   5.123  0.1042 -0.6750  0.0311
  130MOL0     C17419   6.736   1.963   5.072  0.3704 -1.0531 -1.1242
  130MOL0     C17420   6.670   1.861   4.997 -0.3782 -1.0080 -0.2664
  130MOL0     C17421   6.548   1.891   4.929  0.8552 -0.6183 -0.7369
  130MOL0     C17422   6.496   2.023   4.945 -0.2919  0.7310 -0.1348
  130MOL0     O17423   6.374   2.047   4.874 -0.3431  0.4928  0.2745
  130MOL0     C17424   6.328   2.166   4.823 -0.2840 -0.3507  0.5931
  130MOL0     C17425   6.188   2.151   4.765 -0.3506  0.1700 -0.2409
  130MOL0     C17426   6.073   2.136   4.866 -0.7080  0.1154  0.1089
  130MOL0     C17427   5.931   2.130   4.807  0.4589  0.3634  0.2901
  130MOL0     C17428   5.828   2.097   4.910 -0.3448 -0.6672  0.7638
  130MOL0     C17429   5.853   2.168   5.051  0.1048 -0.3028 -0.5334
  130MOL0     C17430   5.736   2.190   5.148  0.3313  0.1520  0.7638
  130MOL0     C17431   5.710   2.065   5.232  0.5232 -0.3981  0.0533
  130MOL0     N17432   5.597   2.097   5.321 -0.5716  0.3735  0.4018
  130MOL0     C17433   5.465   2.108   5.286  0.4685  1.2331 -0.6627
  130MOL0     C17434   5.389   2.094   5.401  0.4198  0.3622  0.2994
  130MOL0     C17435   5.242   2.125   5.414  0.3959  0.7286  0.2911
  130MOL0     C17436   5.178   2.067   5.527 -0.1611  0.0418  0.2338
  130MOL0     C17437   5.019   2.054   5.520 -0.4996  0.0245 -0.4257
  130MOL0     C17438   4.931   2.180   5.512  0.2552 -0.1861  0.0833
  130MOL0     O17439   4.923   2.245   5.647  0.5847  0.5235 -0.5807
  130MOL0     C17440   4.866   2.377   5.647 -0.6833  0.1787 -0.6274
  130MOL0     C17441   4.835   2.459   5.543 -0.3713 -1.4802 -0.2242
  130MOL0     C17442   4.796   2.592   5.555  0.0723  0.4719 -0.5503
  130MOL0     C17443   4.786   2.677   5.430 -0.4616 -0.7588 -0.5616
  130MOL0     C17444   4.765   2.644   5.691  0.4511 -0.1725  0.3577
  130MOL0     C17445   4.730   2.784   5.708 -0.3957 -0.6518 -0.3382
  130MOL0     O17446   4.727   2.824   5.845 -0.7300  0.0066  1.0524
  130MOL0     C17447   4.661   2.939   5.878  0.4849  0.5455  0.1615
  130MOL0     C17448   4.707   3.014   5.987 -0.6387  1.0974  0.2699
  130MOL0     C17449   4.633   3.124   6.023 -0.9465 -0.4141 -0.2139
  130MOL0     C17450   4.524   3.177   5.961  0.2297 -0.0561  1.0526
  130MOL0     O17451   4.469   3.298   6.000 -0.4428  0.6687  0.3194
  130MOL0     C17452   4.427   3.393   5.898 -0.4385 -0.2996  0.7918
  130MOL0     C17453   4.540   3.425   5.795  0.3553 -0.5667  0.1242
  130MOL0     C17454   4.477   3.499   5.679  0.4216 -0.1699  0.0126
  130MOL0     C17455   4.568   3.512   5.558 -0.6822  0.3754  0.1981
  130MOL0     C17456   4.715   3.541   5.575 -0.4855  0.4183 -0.9850
  130MOL0     C17457   4.789   3.574   5.444  0.4095 -0.2658 -0.2601
  130MOL0     C17458   4.922   3.642   5.475  0.5955 -0.3725 -0.5684
  130MOL0     C17459   4.968   3.693   5.342  0.0738 -0.4925 -0.0306
  130MOL0    Cl17460   5.063   3.561   5.273  0.1751 -0.3031  0.8653
  130MOL0     C17461   4.491   3.106   5.846 -0.2633  0.3075  0.2900
  130MOL0     C17462   4.544   2.989   5.801 -0.2549  1.0399 -0.3807
  130MOL0     O17463   4.706   2.856   5.612 -0.2824 -0.3202 -0.4247
  130MOL0     C17464   4.782   2.558   5.796 -0.5883 -0.7537  0.3930
  130MOL0     C17465   4.842   2.431   5.773 -0.1142  0.3808 -0.3775
  130MOL0     N17466   5.483   2.080   5.508 -0.2065 -0.8247 -0.2702
  130MOL0     N17467   5.599   2.070   5.451  0.1485 -0.4420 -0.8579
  130MOL0     C17468   6.563   2.112   5.025  0.4135  0.1354 -0.5345
  130MOL0     C17469   6.681   2.086   5.095  0.4360 -1.1757  0.2379
  130MOL0     C17470   6.992   1.878   5.327 -0.1119 -0.1872 -0.3882
  130MOL0     C17471   7.034   1.899   5.457 -0.4287 -0.5871  0.0901
  130MOL0     C17472   7.129   1.827   5.520 -1.0091  0.4992 -0.8943
  130MOL0     C17473   7.196   1.722   5.455 -0.0321 -0.0141  1.1757
  130MOL0     O17474   7.281   1.647   5.528  0.2839  0.3504 -0.2345
  130MOL0     C17475   7.327   1.520   5.482  0.0815 -0.1210 -0.3073
  130MOL0     C17476   7.437   1.442   5.563  0.4286 -0.5846  0.3863
  130MOL0     C17477   7.584   1.472   5.541 -0.3796 -0.4583 -0.8543
  130MOL0     C17478   7.648   1.538   5.657 -0.7605  0.3222 -0.3502
  130MOL0     C17479   7.784   1.558   5.626 -0.8116 -0.0024 -0.4890
  130MOL0     C17480   7.905   1.573   5.594 -0.4640  0.0235 -0.0113
  130MOL0     C17481   7.160   1.692   5.319 -0.3043  0.6246 -0.9562
  130MOL0     C17482   7.056   1.768   5.262 -0.7076  0.2042  0.4817
  130MOL0     H17483   6.704   1.759   5.000  0.1009 -0.8333  0.8252
  130MOL0     H17484   6.494   1.829   4.859 -1.9328  1.7537 -0.8927
  130MOL0     H17485   6.320   2.235   4.908 -1.7427  2.8588 -1.9370
  130MOL0     H17486   6.398   2.211   4.752 -0.9806  0.2049  0.2456
  130MOL0     H17487   6.166   2.250   4.724 -1.3619  1.4595  3.1054
  130MOL0     H17488   6.197   2.073   4.689 -2.3614 -0.5362  0.1777
  130MOL0     H17489   6.096   2.043   4.918 -3.6051 -0.4224  0.5960
  130MOL0     H17490   6.082   2.216   4.940  3.7455 -1.2612  1.3904
  130MOL0     H17491   5.902   2.226   4.764  0.8320  0.3474 -0.0042
  130MOL0     H17492   5.910   2.061   4.725 -2.8649 -0.8697  2.0043
  130MOL0     H17493   5.724   2.109   4.876 -0.5515 -1.2914  1.1543
  130MOL0     H17494   5.847   1.991   4.929 -0.9799 -1.1356 -1.0194
  130MOL0     H17495   5.932   2.116   5.106  1.3946  2.0851  0.0056
  130MOL0     H17496   5.885   2.269   5.024 -1.6037  0.5462  0.4824
  130MOL0     H17497   5.750   2.285   5.202  0.9462  1.4924 -1.5913
  130MOL0     H17498   5.651   2.218   5.085  0.9704  3.8560  1.3188
  130MOL0     H17499   5.793   2.054   5.302  0.2714 -2.5181  0.0932
  130MOL0     H17500   5.700   1.970   5.177 -0.2620  0.0312 -0.5689
  130MOL0     H17501   5.409   2.124   5.194 -1.5664  3.6257  0.8713
  130MOL0     H17502   5.228   2.233   5.402  5.2445  1.6236  0.4279
  130MOL0     H17503   5.198   2.082   5.324  0.1412 -1.3211  1.3417
  130MOL0     H17504   5.209   2.120   5.617  3.2723 -3.4267  1.3601
  130MOL0     H17505   5.219   1.967   5.547  1.4847  0.5473 -0.4309
  130MOL0     H17506   4.999   2.008   5.617  1.8177  1.1594  0.6878
  130MOL0     H17507   4.998   1.986   5.438 -1.6463 -2.2419  1.6052
  130MOL0     H17508   4.829   2.152   5.485  0.5597 -0.2142 -1.1090
  130MOL0     H17509   4.976   2.246   5.437  2.2884  0.7196  1.9769
  130MOL0     H17510   4.861   2.432   5.441  0.4725 -0.2195 -0.3645
  130MOL0     H17511   4.840   2.632   5.347  1.5530 -2.3471  1.4825
  130MOL0     H17512   4.680   2.693   5.406 -0.1998 -0.7900 -1.7699
  130MOL0     H17513   4.837   2.774   5.435 -0.6648 -0.3549 -4.0139
  130MOL0     H17514   4.799   2.974   6.028  0.9936  0.8509 -3.2975
  130MOL0     H17515   4.654   3.174   6.117 -4.3289  0.8183  0.0213
  130MOL0     H17516   4.343   3.354   5.840  0.0047  1.9416 -1.5275
  130MOL0     H17517   4.385   3.489   5.930 -3.0117 -0.2784 -2.1485
  130MOL0     H17518   4.612   3.491   5.844 -0.8263  1.0689 -0.2621
  130MOL0     H17519   4.587   3.331   5.763 -0.0694  0.6628 -4.9451
  130MOL0     H17520   4.447   3.598   5.715 -0.9984 -0.4249 -0.3923
  130MOL0     H17521   4.383   3.451   5.650 -0.7603  1.0816  1.5937
  130MOL0     H17522   4.559   3.421   5.498 -4.0341 -1.0887  2.6016
  130MOL0     H17523   4.520   3.581   5.488 -2.1424  0.1056  0.8790
  130MOL0     H17524   4.769   3.453   5.611  0.4489  1.7361  1.0616
  130MOL0     H17525   4.728   3.617   5.653 -0.8001 -0.8383  0.3207
  130MOL0     H17526   4.801   3.480   5.388 -3.7522 -0.8399 -0.4715
  130MOL0     H17527   4.726   3.637   5.381  1.1848  1.2807  0.4699
  130MOL0     H17528   4.979   3.557   5.514 -1.3575 -0.6335  1.9515
  130MOL0     H17529   4.906   3.719   5.550  0.1147  1.9519 -2.9104
  130MOL0     H17530   5.041   3.772   5.361  2.8884 -2.9197  0.0190
  130MOL0     H17531   4.885   3.739   5.288  1.4939 -0.3297 -2.2242
  130MOL0     H17532   4.410   3.127   5.777  1.2200  0.5639 -1.4367
  130MOL0     H17533   4.506   2.929   5.718 -0.9384 -1.0166  1.3441
  130MOL0     H17534   4.761   2.586   5.898 -1.7317  0.4944 -0.1484
  130MOL0     H17535   4.870   2.392   5.870 -2.3429 -2.1650 -0.6352
  130MOL0     H17536   6.507   2.205   5.025 -1.9445 -1.1875  0.0745
  130MOL0     H17537   6.735   2.156   5.157 -1.2407 -2.6900  3.6840
  130MOL0     H17538   6.986   1.982   5.508 -0.6173  0.1333 -1.2140
  130MOL0     H17539   7.164   1.844   5.622  0.2464  0.4983 -1.3017
  130MOL0     H17540   7.239   1.455   5.476 -0.2153  0.3597 -1.5462
  130MOL0     H17541   7.381   1.534   5.388  2.2008 -1.3462  0.6416
  130MOL0     H17542   7.407   1.338   5.545 -3.5666  0.9283 -3.4906
  130MOL0     H17543   7.408   1.460   5.667 -1.1426 -2.7050  0.3828
  130MOL0     H17544   7.589   1.528   5.447 -0.7426  1.6168  0.2984
  130MOL0     H17545   7.638   1.377   5.535 -1.2480 -1.3761  3.1767
  130MOL0     H17546   7.652   1.475   5.746  3.1940  1.2568  0.3308
  130MOL0     H17547   7.605   1.634   5.687 -0.6025 -0.6861  3.6653
  130MOL0     H17548   8.004   1.599   5.563 -0.6640  3.1732  1.5656
  130MOL0     H17549   7.193   1.600   5.272  2.0212 -0.3258  2.2144
  130MOL0     H17550   7.020   1.747   5.162  0.4683  0.5854 -0.0372
  131MOL0     O17551   4.138   7.856   4.930 -0.7570  0.0467  0.1946
  131MOL0     C17552   4.112   7.796   5.032  0.2827 -0.2251  0.6382
  131MOL0     O17553   4.075   7.665   5.026 -0.2858  0.2529 -0.2834
  131MOL0     C17554   4.123   7.580   4.930 -0.0119 -0.4080  0.2710
  131MOL0     C17555   4.245   7.595   4.862  0.1476 -0.4942 -0.6073
  131MOL0     C17556   4.286   7.501   4.759 -0.8047  0.2133 -0.8411
  131MOL0     C17557   4.195   7.407   4.705  0.3868 -0.1317 -0.3688
  131MOL0     O17558   4.246   7.317   4.612  0.4147 -1.1224  0.0912
  131MOL0     C17559   4.168   7.199   4.589  0.6392 -0.8669 -0.3913
  131MOL0     C17560   4.185   7.149   4.440 -0.0860 -0.3966 -0.5315
  131MOL0     C17561   4.074   7.201   4.345  0.3762  0.2929 -0.3254
  131MOL0     C17562   4.028   7.349   4.370  1.2070 -0.1309  1.1173
  131MOL0     C17563   4.021   7.436   4.236 -0.0223 -0.5697 -0.1956
  131MOL0     C17564   3.945   7.561   4.248  0.2550 -0.8516 -0.3289
  131MOL0     C17565   3.932   7.634   4.112  0.1067  0.4874 -0.6235
  131MOL0     C17566   3.847   7.770   4.125 -0.1101  0.3810  0.6062
  131MOL0     N17567   3.830   7.824   3.988  0.1616 -0.1814 -0.7343
  131MOL0     C17568   3.934   7.861   3.906  0.3529 -0.7095 -0.8487
  131MOL0     C17569   3.877   7.887   3.788  0.3700 -0.4604  0.0314
  131MOL0     C17570   3.927   7.962   3.669  0.0795 -0.8527  0.4849
  131MOL0     C17571   3.932   7.870   3.546  0.1120 -0.9375  0.0210
  131MOL0     C17572   3.977   7.945   3.422 -0.4348 -0.8878  0.5309
  131MOL0     C17573   4.134   7.947   3.421  0.4936  0.2433  0.1326
  131MOL0     O17574   4.193   8.049   3.497  0.3978  0.6456 -0.1294
  131MOL0     C17575   4.196   8.179   3.458 -0.9336  0.6252  0.7448
  131MOL0     C17576   4.181   8.226   3.324 -0.2919  1.7848 -0.3519
  131MOL0     C17577   4.197   8.361   3.293  0.3845  1.0503  0.0753
  131MOL0     C17578   4.174   8.398   3.147 -0.7504  0.7509  1.1819
  131MOL0     C17579   4.232   8.452   3.400  0.2687  0.1990 -0.6834
  131MOL0     C17580   4.265   8.596   3.374  0.6197  1.1230  0.9014
  131MOL0     O17581   4.277   8.671   3.483  0.2962 -0.4453 -0.3026
  131MOL0     C17582   4.304   8.804   3.460  0.0572 -0.1141  0.1925
  131MOL0     C17583   4.201   8.895   3.488  0.6157 -0.7911  0.3434
  131MOL0     C17584   4.215   9.030   3.453 -0.8898 -0.1478 -0.3648
  131MOL0     C17585   4.334   9.074   3.405  0.4085 -0.3187  0.6702
  131MOL0     O17586   4.346   9.214   3.363 -0.9231  0.5600  0.2649
  131MOL0     C17587   4.362   9.307   3.469  0.1666 -0.4567 -0.2347
  131MOL0     C17588   4.403   9.439   3.407  0.0008  0.9616  0.3330
  131MOL0     C17589   4.297   9.499   3.311  0.5430  0.1542 -1.5232
  131MOL0     C17590   4.356   9.621   3.242 -0.5381  0.6044  0.2063
  131MOL0     C17591   4.251   9.708   3.174  0.3172  0.5474 -0.6312
  131MOL0     C17592   4.152   9.632   3.087  0.5905 -0.9538 -0.5885
  131MOL0     C17593   4.092   9.744   2.998 -0.5902 -0.8759 -0.3733
  131MOL0     C17594   3.972   9.698   2.912 -0.1906  0.4995  0.5629
  131MOL0    Cl17595   4.046   9.614   2.771  0.0688  0.3621  0.3132
  131MOL0     C17596   4.437   8.988   3.382 -0.1088  0.3566 -0.1612
  131MOL0     C17597   4.428   8.852   3.414 -1.3866 -0.0860  1.0426
  131MOL0     O17598   4.267   8.648   3.263 -0.6601  0.8494 -0.0891
  131MOL0     C17599   4.239   8.400   3.529 -0.0821  0.9865 -0.2054
  131MOL0     C17600   4.221   8.264   3.562  0.6055 -0.1019  0.2743
  131MOL0     N17601   3.743   7.865   3.801 -0.6940 -0.2444 -0.2282
  131MOL0     N17602   3.710   7.836   3.923  0.9994 -0.2441 -0.5887
  131MOL0     C17603   4.065   7.398   4.775 -0.9920 -0.5267 -0.5749
  131MOL0     C17604   4.038   7.479   4.892 -0.1015  0.1439  0.5798
  131MOL0     C17605   4.097   7.874   5.156  0.4609  0.6573  0.0554
  131MOL0     C17606   4.047   7.797   5.269  0.4122 -0.9919  0.5450
  131MOL0     C17607   4.042   7.856   5.398 -0.1167  0.3126  1.1188
  131MOL0     C17608   4.086   7.984   5.406  0.6389 -0.4056  0.2004
  131MOL0     O17609   4.064   8.042   5.522  0.7296 -0.2932  0.1875
  131MOL0     C17610   4.175   8.122   5.584  0.2874 -0.1680  0.1973
  131MOL0     C17611   4.199   8.063   5.725 -0.0042  0.8718  1.1922
  131MOL0     C17612   4.105   8.127   5.837 -0.6702  0.0135 -1.0648
  131MOL0     C17613   4.134   8.057   5.975 -0.4902 -0.3701  0.0187
  131MOL0     C17614   4.061   7.930   5.986  0.3114  0.1514  0.6002
  131MOL0     C17615   3.996   7.834   6.026  0.3272 -0.3017  0.2333
  131MOL0     C17616   4.129   8.058   5.298  0.3271 -0.3908 -1.2214
  131MOL0     C17617   4.145   7.999   5.181 -1.0547  0.1882  0.4080
  131MOL0     H17618   4.308   7.680   4.884 -0.5368  0.8163 -3.3059
  131MOL0     H17619   4.384   7.495   4.712  0.0392  0.0375  0.8711
  131MOL0     H17620   4.191   7.114   4.654 -0.2203 -1.3776 -0.7377
  131MOL0     H17621   4.061   7.220   4.593  0.5049 -1.6764  1.2678
  131MOL0     H17622   4.276   7.200   4.407  2.6794 -2.7648  2.7565
  131MOL0     H17623   4.211   7.043   4.434 -3.2102 -1.2574 -0.5889
  131MOL0     H17624   4.104   7.184   4.241  1.0169  1.0409 -0.2743
  131MOL0     H17625   3.989   7.139   4.374  0.8239  0.6832  1.9810
  131MOL0     H17626   3.930   7.334   4.415 -0.7194  0.0801 -2.6834
  131MOL0     H17627   4.094   7.405   4.438  2.5460 -0.3186  0.0305
  131MOL0     H17628   4.124   7.449   4.201  0.4428 -1.3605  0.8114
  131MOL0     H17629   3.970   7.382   4.156 -0.7965 -1.3113  0.7686
  131MOL0     H17630   3.840   7.541   4.272 -0.1742 -0.0748 -1.4902
  131MOL0     H17631   3.986   7.633   4.320 -3.6293  1.7302 -0.4004
  131MOL0     H17632   4.035   7.651   4.078  1.0132 -1.4916  0.8924
  131MOL0     H17633   3.881   7.567   4.042 -2.2349  2.4475 -0.8843
  131MOL0     H17634   3.907   7.837   4.187  2.1576 -1.4114  0.5067
  131MOL0     H17635   3.747   7.753   4.165 -0.7042  0.1883 -0.8826
  131MOL0     H17636   4.034   7.875   3.947 -1.0888  2.0589  2.1355
  131MOL0     H17637   3.863   8.050   3.660 -0.5729 -1.1720  1.7857
  131MOL0     H17638   4.028   8.000   3.685  0.3464 -1.0612 -0.5939
  131MOL0     H17639   3.834   7.826   3.525 -0.7897  1.9157 -2.4085
  131MOL0     H17640   3.983   7.776   3.568  1.3157 -0.7977 -1.9575
  131MOL0     H17641   3.931   8.044   3.422 -0.2413 -0.7509 -1.7505
  131MOL0     H17642   3.945   7.888   3.334  0.6544 -4.1353  2.1125
  131MOL0     H17643   4.169   7.950   3.317  1.5209 -0.7362  0.4275
  131MOL0     H17644   4.169   7.849   3.454 -1.8368 -0.5444  0.4743
  131MOL0     H17645   4.160   8.169   3.234 -2.2768  0.0158  1.1354
  131MOL0     H17646   4.087   8.464   3.136 -0.6497  0.6057 -0.9022
  131MOL0     H17647   4.262   8.449   3.106 -1.2544 -1.1976 -2.8390
  131MOL0     H17648   4.159   8.304   3.093  0.2738  0.8317  0.7286
  131MOL0     H17649   4.109   8.848   3.520 -1.4857  1.3559 -2.0201
  131MOL0     H17650   4.141   9.108   3.440  2.1070  2.8177 -1.1851
  131MOL0     H17651   4.271   9.315   3.529  0.7732 -1.0569  0.7970
  131MOL0     H17652   4.433   9.270   3.543 -0.9627  0.1323  1.1940
  131MOL0     H17653   4.432   9.506   3.488  0.6314  2.1533 -0.8467
  131MOL0     H17654   4.489   9.437   3.339  1.6567  4.2882  2.1200
  131MOL0     H17655   4.209   9.541   3.360  3.3707  3.4787  1.2994
  131MOL0     H17656   4.280   9.432   3.226  0.3021 -2.0176  0.1785
  131MOL0     H17657   4.411   9.694   3.302  1.0321 -0.5659  0.2774
  131MOL0     H17658   4.429   9.588   3.166  2.9292  0.9921  3.0769
  131MOL0     H17659   4.296   9.785   3.111 -1.2422 -0.3050 -2.9189
  131MOL0     H17660   4.196   9.750   3.259 -0.0795 -0.2085 -0.4988
  131MOL0     H17661   4.207   9.555   3.031 -0.5768 -1.4679 -1.0615
  131MOL0     H17662   4.076   9.580   3.146  2.1698 -2.4350  0.2272
  131MOL0     H17663   4.169   9.797   2.942 -0.0092 -2.4039 -1.0687
  131MOL0     H17664   4.045   9.805   3.077  1.2558 -2.6319  2.2519
  131MOL0     H17665   3.911   9.773   2.861  0.0053 -0.1475 -0.6677
  131MOL0     H17666   3.914   9.629   2.974  1.6310  0.9205  2.8585
  131MOL0     H17667   4.533   9.022   3.343  2.4199 -0.5352  4.5545
  131MOL0     H17668   4.513   8.788   3.396 -0.4387  0.4693  3.2062
  131MOL0     H17669   4.257   8.466   3.613  3.5603 -1.3412  1.0926
  131MOL0     H17670   4.231   8.227   3.663  0.0163  3.8350  1.9664
  131MOL0     H17671   3.988   7.333   4.736 -1.4830  1.1858 -2.6611
  131MOL0     H17672   3.944   7.464   4.943  0.7440 -2.4659  1.5375
  131MOL0     H17673   4.030   7.692   5.252  2.5677 -0.9654 -2.5908
  131MOL0     H17674   4.015   7.812   5.493  3.6149  0.1577  2.2589
  131MOL0     H17675   4.262   8.121   5.518  0.4351  0.6262  0.3753
  131MOL0     H17676   4.154   8.227   5.606  3.9856  0.8248 -0.4424
  131MOL0     H17677   4.299   8.078   5.767  0.2820  2.3160  0.0732
  131MOL0     H17678   4.183   7.955   5.716  0.7547  0.9095 -4.9242
  131MOL0     H17679   4.001   8.118   5.806 -1.5015  1.6111  1.0338
  131MOL0     H17680   4.127   8.231   5.861 -1.5975  0.1816 -0.9299
  131MOL0     H17681   4.101   8.126   6.054 -0.4463  0.8780 -1.0157
  131MOL0     H17682   4.240   8.040   5.994 -0.1559  3.2403  2.6044
  131MOL0     H17683   3.930   7.761   6.069  1.8072 -0.7079  1.9588
  131MOL0     H17684   4.166   8.158   5.316 -0.8640 -0.2089  0.4609
  131MOL0     H17685   4.210   8.045   5.106  1.5015 -3.6491  0.0010
  132MOL0     O17686   8.517  11.489   8.994 -0.4791 -0.3478 -0.0156
  132MOL0     C17687   8.576  11.588   9.038 -0.0469 -0.3178 -0.6062
  132MOL0     O17688   8.630  11.687   8.975  0.2293 -0.3869  0.4390
  132MOL0     C17689   8.626  11.696   8.837 -1.0932 -0.4318  0.3950
  132MOL0     C17690   8.583  11.594   8.745  0.5560  0.6300  0.1355
  132MOL0     C17691   8.592  11.635   8.606  0.5489 -1.1670 -0.6333
  132MOL0     C17692   8.629  11.761   8.566  0.0523 -0.7460  0.2270
  132MOL0     O17693   8.633  11.780   8.428  0.0507  0.1277 -0.4987
  132MOL0     C17694   8.626  11.904   8.364  0.2122 -0.2628  0.4920
  132MOL0     C17695   8.741  11.924   8.271 -0.6998 -0.1353 -0.3605
  132MOL0     C17696   8.872  11.914   8.334  0.5387  0.2554  0.3894
  132MOL0     C17697   8.994  11.991   8.271  0.7739 -0.9531  0.2844
  132MOL0     C17698   8.974  12.143   8.280 -0.3220 -0.4666 -0.1240
  132MOL0     C17699   9.106  12.220   8.265  0.3370 -0.1062  0.4407
  132MOL0     C17700   9.097  12.359   8.332 -0.8172  0.1222 -0.1788
  132MOL0     C17701   9.199  12.467   8.287 -0.6482 -0.1117  0.4286
  132MOL0     N17702   9.304  12.477   8.391 -0.6298 -0.1450  0.1923
  132MOL0     C17703   9.408  12.385   8.416  0.0316  0.0230 -1.3077
  132MOL0     C17704   9.480  12.438   8.522 -0.3065  0.1331 -0.9558
  132MOL0     C17705   9.592  12.350   8.584  0.2324 -0.4032 -0.2949
  132MOL0     C17706   9.704  12.450   8.618 -0.1723 -0.9445 -0.4110
  132MOL0     C17707   9.808  12.441   8.511 -0.2690 -0.4893 -0.3360
  132MOL0     C17708   9.920  12.536   8.528  0.7356  0.0901  0.3761
  132MOL0     O17709  10.014  12.495   8.630  0.2367  0.0608  0.3738
  132MOL0     C17710  10.071  12.603   8.693  0.1386  0.6879  0.3466
  132MOL0     C17711  10.073  12.605   8.829  0.0471 -1.4147  0.1497
  132MOL0     C17712  10.127  12.709   8.899  1.0582 -1.1522 -0.2564
  132MOL0     C17713  10.111  12.711   9.046 -0.3974  0.2403  0.1759
  132MOL0     C17714  10.211  12.803   8.832  0.9654 -0.3654 -0.1719
  132MOL0     C17715  10.281  12.914   8.899 -0.0749 -0.2717 -0.5890
  132MOL0     O17716  10.357  13.000   8.822  0.2993 -0.0525 -0.0613
  132MOL0     C17717  10.391  13.123   8.872  0.7679 -0.4151 -0.6486
  132MOL0     C17718  10.506  13.128   8.948  1.1125 -0.0509 -0.4606
  132MOL0     C17719  10.536  13.249   9.015  0.3609 -0.4766 -0.9243
  132MOL0     C17720  10.441  13.360   9.018 -0.2403 -0.2268  0.0643
  132MOL0     O17721  10.471  13.481   9.069 -0.0081 -0.6188 -0.2923
  132MOL0     C17722  10.526  13.569   8.969  0.6986  0.4839 -0.1170
  132MOL0     C17723  10.597  13.688   9.038 -0.1899  0.2161 -0.1943
  132MOL0     C17724  10.723  13.655   9.105 -0.6074  0.8614  0.1822
  132MOL0     C17725  10.731  13.745   9.227  0.3546 -0.5315  0.3595
  132MOL0     C17726  10.851  13.725   9.314 -0.2596  0.8661 -0.2273
  132MOL0     C17727  10.988  13.729   9.240  0.5065 -0.0002 -0.6827
  132MOL0     C17728  11.012  13.862   9.171 -0.7745 -0.3041  0.5155
  132MOL0     C17729  11.155  13.882   9.115 -0.4796 -0.4253 -0.6183
  132MOL0    Cl17730  11.157  14.048   9.067  0.1867 -0.0770 -0.0904
  132MOL0     C17731  10.334  13.351   8.936  0.9257 -1.2357  1.2585
  132MOL0     C17732  10.308  13.233   8.862 -0.6769 -0.9182  0.2064
  132MOL0     O17733  10.288  12.920   9.024  0.3655 -0.6200  0.6157
  132MOL0     C17734  10.210  12.800   8.697 -0.0420  0.5631 -0.1937
  132MOL0     C17735  10.148  12.698   8.621  0.5088  0.8395 -0.3167
  132MOL0     N17736   9.430  12.561   8.561 -0.0726 -0.4864 -0.1496
  132MOL0     N17737   9.336  12.585   8.474  0.0088  0.8279 -0.7014
  132MOL0     C17738   8.654  11.861   8.660  0.3041 -0.3466 -0.1783
  132MOL0     C17739   8.673  11.820   8.789  0.3363  0.5644 -0.4557
  132MOL0     C17740   8.570  11.597   9.186  0.2653  0.1983  0.3052
  132MOL0     C17741   8.651  11.681   9.264 -0.2631  0.4217 -0.2317
  132MOL0     C17742   8.631  11.689   9.402  0.3586 -0.4246 -1.1413
  132MOL0     C17743   8.538  11.616   9.468 -0.8140 -0.3213  0.0783
  132MOL0     O17744   8.522  11.626   9.602  0.2325  0.0832  0.9638
  132MOL0     C17745   8.575  11.735   9.686  0.0362  0.3944  0.3387
  132MOL0     C17746   8.716  11.707   9.742 -0.4435  0.0964 -0.3525
  132MOL0     C17747   8.746  11.557   9.778 -0.3237 -0.0040  0.1273
  132MOL0     C17748   8.900  11.519   9.776  0.8412  0.6185  0.7609
  132MOL0     C17749   8.956  11.497   9.635 -0.3328 -0.6277 -0.2379
  132MOL0     C17750   8.977  11.474   9.517 -0.1241 -0.2727 -1.0119
  132MOL0     C17751   8.469  11.514   9.393  0.0576  0.3295 -0.4270
  132MOL0     C17752   8.473  11.512   9.257 -0.2922  0.2138 -0.0969
  132MOL0     H17753   8.543  11.495   8.762  0.1825  0.5934 -0.8652
  132MOL0     H17754   8.586  11.560   8.528  0.8489 -2.1509  0.2771
  132MOL0     H17755   8.535  11.908   8.303 -0.4806 -0.9008  1.4646
  132MOL0     H17756   8.604  11.984   8.434 -0.8378  1.6271 -1.8343
  132MOL0     H17757   8.742  11.870   8.176 -0.1767 -1.2521  0.2681
  132MOL0     H17758   8.734  12.028   8.236 -2.8579 -0.7376 -1.9849
  132MOL0     H17759   8.853  11.946   8.437 -2.6826  0.4885 -0.1725
  132MOL0     H17760   8.891  11.807   8.327  0.5595 -0.1490  4.4224
  132MOL0     H17761   9.085  11.956   8.322  0.7224  1.0752  1.9254
  132MOL0     H17762   9.008  11.953   8.170  2.7189  1.9805 -0.6591
  132MOL0     H17763   8.911  12.182   8.199  1.7294 -0.8266 -1.9839
  132MOL0     H17764   8.930  12.160   8.379  0.1041 -0.8609  0.1334
  132MOL0     H17765   9.182  12.172   8.328  0.9567 -0.7351 -0.7652
  132MOL0     H17766   9.128  12.235   8.159  1.1910  2.6085  0.9326
  132MOL0     H17767   9.003  12.406   8.299  0.1315  1.3746 -1.1828
  132MOL0     H17768   9.095  12.337   8.439  0.1471 -1.6512 -0.4952
  132MOL0     H17769   9.149  12.564   8.288 -1.6216 -0.5930  0.2287
  132MOL0     H17770   9.246  12.438   8.193  1.6143  0.1800  1.3964
  132MOL0     H17771   9.443  12.304   8.354  1.8720 -2.6538  2.8316
  132MOL0     H17772   9.565  12.309   8.681  1.7472  3.2836  1.8909
  132MOL0     H17773   9.625  12.265   8.524 -0.0835 -0.5675 -0.2425
  132MOL0     H17774   9.752  12.425   8.713 -0.7668 -2.8140 -0.5567
  132MOL0     H17775   9.668  12.553   8.628  1.9152 -0.2196  0.2023
  132MOL0     H17776   9.752  12.478   8.425 -0.4090  2.6464  0.9684
  132MOL0     H17777   9.858  12.344   8.498  2.3016  0.5770  0.9667
  132MOL0     H17778   9.876  12.636   8.524  1.4362  0.5323  2.4517
  132MOL0     H17779   9.983  12.517   8.440  1.6536 -1.8987  1.3965
  132MOL0     H17780  10.020  12.529   8.885 -0.0739 -0.8746  0.7771
  132MOL0     H17781  10.082  12.814   9.068 -1.4720  0.1965 -0.9560
  132MOL0     H17782  10.038  12.646   9.095  0.1589  0.8041  1.8186
  132MOL0     H17783  10.210  12.697   9.091 -0.2829 -0.1086 -0.1816
  132MOL0     H17784  10.582  13.050   8.951 -0.5605 -1.7276  0.6155
  132MOL0     H17785  10.628  13.259   9.071 -0.7390  3.7000  0.4591
  132MOL0     H17786  10.607  13.526   8.909  0.2781  1.4951 -1.4417
  132MOL0     H17787  10.445  13.612   8.910 -0.6405 -0.7132  0.7974
  132MOL0     H17788  10.617  13.769   8.968  0.0731 -0.1092 -0.4967
  132MOL0     H17789  10.530  13.727   9.115 -2.3500 -1.1827 -1.2642
  132MOL0     H17790  10.810  13.653   9.040 -1.4161 -1.1362 -0.9191
  132MOL0     H17791  10.709  13.558   9.154  0.9497  1.5459  2.1230
  132MOL0     H17792  10.718  13.845   9.184 -0.1731  1.7238  5.0845
  132MOL0     H17793  10.645  13.732   9.294 -0.3703 -1.3739 -0.7021
  132MOL0     H17794  10.833  13.635   9.374 -0.6553  0.1724 -1.3585
  132MOL0     H17795  10.846  13.805   9.388  1.5988  1.2707 -0.5061
  132MOL0     H17796  11.070  13.708   9.309 -0.1816 -1.4596 -0.2794
  132MOL0     H17797  10.994  13.642   9.173 -0.9847 -1.6039  1.1584
  132MOL0     H17798  10.985  13.947   9.234 -0.7052 -0.6515  1.0211
  132MOL0     H17799  10.945  13.875   9.086 -0.0420 -3.7147 -0.7377
  132MOL0     H17800  11.187  13.804   9.046 -0.8374 -1.6165  0.5272
  132MOL0     H17801  11.228  13.874   9.196 -0.1302 -1.5405 -1.0307
  132MOL0     H17802  10.258  13.426   8.922  0.3063 -2.5189 -5.0636
  132MOL0     H17803  10.217  13.231   8.803  0.2191 -0.7942 -1.2262
  132MOL0     H17804  10.260  12.882   8.647 -2.4923  3.7673  2.1813
  132MOL0     H17805  10.149  12.698   8.512  0.0738 -0.1488 -0.3339
  132MOL0     H17806   8.673  11.967   8.644  0.0984 -0.5010 -1.5960
  132MOL0     H17807   8.691  11.896   8.864 -3.9470 -1.7594  3.4378
  132MOL0     H17808   8.710  11.761   9.221  1.6488 -0.3098  0.9211
  132MOL0     H17809   8.696  11.760   9.454 -0.2779 -0.9088  0.3580
  132MOL0     H17810   8.579  11.835   9.643  1.4790  1.5138  2.8516
  132MOL0     H17811   8.502  11.741   9.767 -1.1837  0.8593 -0.7657
  132MOL0     H17812   8.727  11.760   9.837 -0.2831  0.8474 -0.7832
  132MOL0     H17813   8.798  11.755   9.688  1.8590 -2.8472  0.2472
  132MOL0     H17814   8.690  11.490   9.713 -0.3285  1.8661 -1.9071
  132MOL0     H17815   8.722  11.545   9.885  0.9074 -4.3385  0.1133
  132MOL0     H17816   8.921  11.429   9.834  0.0263  0.4019  0.7347
  132MOL0     H17817   8.953  11.599   9.828 -1.1605  1.8724  0.9964
  132MOL0     H17818   8.999  11.496   9.415  0.9441  3.2760 -0.1583
  132MOL0     H17819   8.414  11.434   9.442  1.9365  0.1744  1.5734
  132MOL0     H17820   8.424  11.438   9.195  1.3772  1.0164 -2.5287
  133MOL0     O17821   9.789   5.314   6.229 -1.3143  0.6284 -0.2882
  133MOL0     C17822   9.796   5.390   6.324 -0.7401 -0.0634  0.3174
  133MOL0     O17823   9.910   5.422   6.397  0.3362  0.2044 -0.1164
  133MOL0     C17824  10.037   5.379   6.355  0.4868  0.2128  1.0244
  133MOL0     C17825  10.130   5.477   6.359  0.0299  0.3030  0.9468
  133MOL0     C17826  10.269   5.445   6.328  0.6356  0.2594 -0.7963
  133MOL0     C17827  10.299   5.315   6.297  0.0604  0.1748  0.3866
  133MOL0     O17828  10.431   5.273   6.276 -0.3191 -0.6298  0.2585
  133MOL0     C17829  10.523   5.372   6.213 -0.3606  0.0684 -0.7233
  133MOL0     C17830  10.480   5.401   6.069 -0.2688 -0.5581 -0.2405
  133MOL0     C17831  10.490   5.273   5.973 -0.0562  0.1487 -0.0275
  133MOL0     C17832  10.636   5.226   5.949  0.3142  0.7560 -0.1341
  133MOL0     C17833  10.647   5.131   5.833 -0.1982  0.5048  0.2012
  133MOL0     C17834  10.573   5.179   5.704 -0.0565  0.5551 -0.3525
  133MOL0     C17835  10.614   5.112   5.579 -0.7652 -0.5999 -0.3253
  133MOL0     C17836  10.561   4.971   5.583 -0.1610 -1.3440 -0.2581
  133MOL0     N17837  10.617   4.906   5.465  0.2734  0.4213  0.2935
  133MOL0     C17838  10.549   4.862   5.357 -0.1829  0.8829  0.4526
  133MOL0     C17839  10.644   4.791   5.292 -0.0114  0.0351  0.3435
  133MOL0     C17840  10.630   4.708   5.170  0.0220  0.9131  0.3774
  133MOL0     C17841  10.637   4.771   5.031  0.1842  0.1447  0.3093
  133MOL0     C17842  10.587   4.923   5.013  0.1919 -0.4172  0.9249
  133MOL0     C17843  10.617   4.960   4.866  0.5572 -0.2022 -0.8579
  133MOL0     O17844  10.520   5.063   4.837 -0.2143 -0.1329  0.2070
  133MOL0     C17845  10.513   5.110   4.705 -0.3227 -0.7772  0.9811
  133MOL0     C17846  10.602   5.079   4.602  1.1555  0.7473  0.0968
  133MOL0     C17847  10.585   5.124   4.461 -0.0824 -0.5533 -0.6528
  133MOL0     C17848  10.687   5.104   4.364  0.1061 -0.4425  0.0541
  133MOL0     C17849  10.474   5.205   4.430 -0.8985 -0.2460  0.5160
  133MOL0     C17850  10.450   5.262   4.293 -0.1139 -0.2288  1.0915
  133MOL0     O17851  10.556   5.288   4.214 -0.4051 -0.4259 -0.1260
  133MOL0     C17852  10.539   5.385   4.119 -0.3878 -0.1035  0.8571
  133MOL0     C17853  10.578   5.354   3.986  0.5107 -0.0740 -0.6929
  133MOL0     C17854  10.581   5.454   3.886 -0.0187  0.5140 -0.8904
  133MOL0     C17855  10.541   5.584   3.914  1.1821  0.5161 -0.5480
  133MOL0     O17856  10.563   5.688   3.819 -0.1666 -0.0433  0.2868
  133MOL0     C17857  10.626   5.664   3.693  0.8229  0.2186 -0.5004
  133MOL0     C17858  10.637   5.795   3.611 -0.1414  0.1757  0.2883
  133MOL0     C17859  10.704   5.770   3.469 -0.4500 -0.6858 -1.7089
  133MOL0     C17860  10.725   5.903   3.390  0.5175 -0.1362 -0.5903
  133MOL0     C17861  10.748   5.896   3.238 -0.0675 -0.0970  0.1873
  133MOL0     C17862  10.740   6.032   3.173  0.7347  0.5043 -0.3105
  133MOL0     C17863  10.775   6.014   3.020  1.0529 -0.1552  0.3488
  133MOL0     C17864  10.811   6.146   2.953 -0.3722  0.5358  0.9379
  133MOL0    Cl17865  10.678   6.266   2.945  0.3875  0.1427  0.0039
  133MOL0     C17866  10.491   5.611   4.042  0.6736 -0.3657 -0.3050
  133MOL0     C17867  10.488   5.510   4.140 -0.4891 -0.7522 -0.6409
  133MOL0     O17868  10.336   5.308   4.267  0.4319 -0.1703  0.3096
  133MOL0     C17869  10.382   5.237   4.535 -0.1351 -0.4165 -0.5813
  133MOL0     C17870  10.414   5.197   4.665  0.2881 -0.1183  0.0565
  133MOL0     N17871  10.762   4.802   5.354 -0.8525 -0.1730  0.0669
  133MOL0     N17872  10.742   4.854   5.469  0.3593  0.6127 -0.1825
  133MOL0     C17873  10.205   5.211   6.283  0.6815 -0.8171 -0.4970
  133MOL0     C17874  10.073   5.245   6.317  0.8806 -0.9229 -0.5898
  133MOL0     C17875   9.673   5.439   6.386  0.1843 -0.2017  1.4212
  133MOL0     C17876   9.665   5.492   6.512  0.1650  0.0684 -0.6437
  133MOL0     C17877   9.551   5.553   6.559 -0.3828 -0.0534 -0.2642
  133MOL0     C17878   9.431   5.558   6.487  0.0908  0.1791 -0.0152
  133MOL0     O17879   9.314   5.615   6.528  0.0331 -0.3580  0.1573
  133MOL0     C17880   9.301   5.655   6.666  0.4644 -0.6056 -0.3429
  133MOL0     C17881   9.264   5.518   6.735 -1.1185  0.0049 -0.2690
  133MOL0     C17882   9.252   5.540   6.895 -0.2815 -0.8569  0.1305
  133MOL0     C17883   9.210   5.423   6.973 -0.3992 -0.0769 -0.1064
  133MOL0     C17884   9.064   5.413   6.976  0.1188 -0.0352 -0.4033
  133MOL0     C17885   8.946   5.396   7.009 -0.0987 -0.3082 -0.3980
  133MOL0     C17886   9.438   5.503   6.358  0.2341  0.9509 -0.4369
  133MOL0     C17887   9.555   5.449   6.306  0.4376 -0.4876 -0.2230
  133MOL0     H17888  10.091   5.569   6.400 -0.5290 -0.0657  1.2583
  133MOL0     H17889  10.346   5.522   6.338 -0.6784  1.3562  2.5846
  133MOL0     H17890  10.527   5.466   6.269 -0.0403 -0.0785 -0.4912
  133MOL0     H17891  10.621   5.324   6.200  1.1254  2.6105  0.2419
  133MOL0     H17892  10.376   5.432   6.085 -0.5518 -1.7767  0.3607
  133MOL0     H17893  10.541   5.484   6.030  2.6913 -0.7868  3.3425
  133MOL0     H17894  10.431   5.197   6.025  2.5269 -0.5923  2.0906
  133MOL0     H17895  10.443   5.302   5.879 -1.6470 -1.6786  0.1383
  133MOL0     H17896  10.695   5.316   5.926 -1.6755  1.8765 -1.1593
  133MOL0     H17897  10.685   5.185   6.038 -1.0720  0.2978  0.4394
  133MOL0     H17898  10.753   5.114   5.812 -0.1908 -0.0640  0.6837
  133MOL0     H17899  10.612   5.030   5.857 -1.8871  1.1187  0.4912
  133MOL0     H17900  10.464   5.173   5.712  0.1189 -1.0847  1.8627
  133MOL0     H17901  10.595   5.284   5.686 -4.1125  1.0916 -3.6445
  133MOL0     H17902  10.574   5.176   5.500 -0.2338  0.1173 -0.0273
  133MOL0     H17903  10.723   5.118   5.580 -0.6947  0.0464 -3.3135
  133MOL0     H17904  10.453   4.958   5.578 -0.2523 -0.3182 -1.4165
  133MOL0     H17905  10.597   4.917   5.671  1.9640  1.4353  0.7442
  133MOL0     H17906  10.442   4.871   5.346 -0.2667  4.1303  2.5817
  133MOL0     H17907  10.703   4.627   5.175 -3.4148 -2.4511  1.3258
  133MOL0     H17908  10.536   4.654   5.188 -0.0094  2.0884  5.0580
  133MOL0     H17909  10.597   4.707   4.952  0.1189  1.6920 -0.9673
  133MOL0     H17910  10.744   4.763   5.011  0.3710 -0.5373  1.5128
  133MOL0     H17911  10.636   4.992   5.082 -1.5478  0.0288  1.7703
  133MOL0     H17912  10.479   4.920   5.030  0.1364 -0.0109  0.6254
  133MOL0     H17913  10.620   4.879   4.793  3.7414 -0.0667 -0.9838
  133MOL0     H17914  10.714   5.008   4.856  1.1604 -1.2123 -0.0704
  133MOL0     H17915  10.686   5.013   4.622 -0.8962 -2.9893 -2.4230
  133MOL0     H17916  10.754   5.030   4.410  0.0898 -1.7844 -1.9664
  133MOL0     H17917  10.654   5.077   4.264 -2.4302 -0.8667  0.9368
  133MOL0     H17918  10.751   5.192   4.353  0.6579 -1.0344 -1.7349
  133MOL0     H17919  10.622   5.256   3.975 -0.5987 -1.4514  4.5829
  133MOL0     H17920  10.614   5.421   3.788 -2.1037 -1.9031 -0.8555
  133MOL0     H17921  10.728   5.629   3.713  1.3942  1.2034 -1.5551
  133MOL0     H17922  10.570   5.587   3.640 -1.0594  1.0163  0.2309
  133MOL0     H17923  10.541   5.846   3.606 -1.2790 -1.9201 -0.6641
  133MOL0     H17924  10.704   5.862   3.665 -2.0710  0.3783  2.5500
  133MOL0     H17925  10.655   5.695   3.406 -0.9805 -0.2552 -1.8125
  133MOL0     H17926  10.805   5.731   3.490 -1.4670 -3.2709 -1.2536
  133MOL0     H17927  10.643   5.970   3.417  0.5792 -0.9561  1.9999
  133MOL0     H17928  10.818   5.943   3.431 -0.1344 -0.8956  1.8163
  133MOL0     H17929  10.672   5.834   3.189  0.3424  1.0947 -2.1041
  133MOL0     H17930  10.844   5.858   3.202 -1.9313 -2.5637 -2.7229
  133MOL0     H17931  10.645   6.086   3.183 -1.4625 -3.0584  0.0524
  133MOL0     H17932  10.819   6.091   3.221 -0.0991  0.5070  1.1058
  133MOL0     H17933  10.704   5.974   2.947  1.5767  1.7345 -1.2862
  133MOL0     H17934  10.867   5.954   3.016  0.6924 -0.6659 -0.4693
  133MOL0     H17935  10.851   6.113   2.857  0.3565  2.7371  0.4369
  133MOL0     H17936  10.898   6.186   3.006 -1.5387  2.7451  1.2932
  133MOL0     H17937  10.454   5.709   4.068 -0.1183 -0.9683  0.9299
  133MOL0     H17938  10.451   5.534   4.239 -1.4821  1.3512 -1.4485
  133MOL0     H17939  10.292   5.297   4.529  0.2573  0.4555  1.5858
  133MOL0     H17940  10.348   5.217   4.749 -1.2117 -1.7144 -0.6940
  133MOL0     H17941  10.243   5.115   6.249  1.7721 -0.2161 -1.0145
  133MOL0     H17942   9.991   5.174   6.308  1.8275 -2.2345  0.7432
  133MOL0     H17943   9.750   5.482   6.580 -1.4231 -0.9841  1.2800
  133MOL0     H17944   9.560   5.592   6.660 -1.6482 -2.8663  1.0639
  133MOL0     H17945   9.389   5.695   6.717 -1.7168 -0.3244  3.5718
  133MOL0     H17946   9.218   5.726   6.674 -0.3096 -1.2868 -1.9522
  133MOL0     H17947   9.344   5.444   6.721  0.8669  2.1857 -1.2172
  133MOL0     H17948   9.169   5.487   6.690 -1.4458  2.2011 -1.1857
  133MOL0     H17949   9.180   5.619   6.918  1.9377  0.6132  2.7110
  133MOL0     H17950   9.347   5.580   6.933 -0.5046 -2.0982  2.1571
  133MOL0     H17951   9.249   5.426   7.075  2.5426  0.7583 -1.1651
  133MOL0     H17952   9.260   5.337   6.925  0.3884  1.8062 -2.9224
  133MOL0     H17953   8.839   5.390   7.000 -0.0738  0.9761 -2.2725
  133MOL0     H17954   9.347   5.514   6.300 -1.7862 -1.4196  2.0122
  133MOL0     H17955   9.572   5.410   6.206  4.1236  0.5670 -0.1528
  134MOL0     O17956   3.772   3.004  10.750 -0.1348 -0.2710  0.5730
  134MOL0     C17957   3.704   3.023  10.850  0.2055 -0.1004  0.7182
  134MOL0     O17958   3.592   3.097  10.865 -0.6868 -0.2473  0.1801
  134MOL0     C17959   3.532   3.151  10.754  0.3376 -0.5586  0.8297
  134MOL0     C17960   3.597   3.212  10.645  0.0179  0.1396  0.2497
  134MOL0     C17961   3.523   3.249  10.531 -1.0206 -0.1709 -0.1957
  134MOL0     C17962   3.385   3.248  10.533  1.2504 -0.1128 -0.4361
  134MOL0     O17963   3.307   3.269  10.418 -0.3428 -0.1874 -0.5303
  134MOL0     C17964   3.210   3.372  10.422 -0.5915 -0.0093 -0.6140
  134MOL0     C17965   3.105   3.354  10.317  0.3081  0.6005 -0.2126
  134MOL0     C17966   3.010   3.467  10.314 -0.3533  0.3796 -0.6445
  134MOL0     C17967   2.880   3.415  10.250  0.0304 -0.9907 -0.6796
  134MOL0     C17968   2.809   3.526  10.183 -0.3306  0.8522  0.0118
  134MOL0     C17969   2.795   3.655  10.267 -0.2723 -0.0578  1.1572
  134MOL0     C17970   2.666   3.738  10.234  0.2267  0.7275  0.0940
  134MOL0     C17971   2.653   3.856  10.335  0.1676  0.4733 -0.4741
  134MOL0     N17972   2.664   3.818  10.475  0.6218 -0.0944  0.5881
  134MOL0     C17973   2.558   3.751  10.535 -0.1899 -0.6587  0.3147
  134MOL0     C17974   2.594   3.728  10.657  0.6709  0.1432  0.6764
  134MOL0     C17975   2.503   3.662  10.756 -0.5058 -0.7282 -0.1393
  134MOL0     C17976   2.437   3.528  10.691 -0.6186 -0.2879 -0.6587
  134MOL0     C17977   2.381   3.454  10.812 -0.6342  0.3404  0.4675
  134MOL0     C17978   2.340   3.312  10.775  0.5271 -0.0107 -0.2114
  134MOL0     O17979   2.447   3.228  10.726 -1.0610 -0.6110 -0.6146
  134MOL0     C17980   2.426   3.099  10.722  0.4799 -0.0417 -0.8916
  134MOL0     C17981   2.536   3.028  10.668  0.4524  0.4750  1.0612
  134MOL0     C17982   2.529   2.888  10.645 -0.4502  0.0103  0.3139
  134MOL0     C17983   2.641   2.820  10.572  0.6489  0.4229  0.4267
  134MOL0     C17984   2.419   2.814  10.702 -0.2079  1.0471  0.7544
  134MOL0     C17985   2.394   2.672  10.695  0.7733 -0.1659  0.2628
  134MOL0     O17986   2.302   2.611  10.785  0.5660  0.7363 -0.9031
  134MOL0     C17987   2.270   2.476  10.768 -0.3384 -1.2499  1.1353
  134MOL0     C17988   2.233   2.419  10.644 -0.6073 -0.3855  0.0062
  134MOL0     C17989   2.210   2.288  10.626  0.3195  0.1761 -0.0170
  134MOL0     C17990   2.212   2.203  10.744 -1.1798 -0.1059  0.2875
  134MOL0     O17991   2.167   2.076  10.742 -0.2708 -0.1481 -0.2013
  134MOL0     C17992   2.245   1.978  10.673 -0.6276 -0.5766 -0.7251
  134MOL0     C17993   2.384   1.954  10.742 -0.1210  0.1035  0.5555
  134MOL0     C17994   2.358   1.847  10.858  0.4045 -0.6806 -0.0988
  134MOL0     C17995   2.240   1.865  10.951 -0.5512  0.3259  2.1717
  134MOL0     C17996   2.263   1.785  11.083  0.4073  0.4164 -0.0363
  134MOL0     C17997   2.222   1.641  11.067  0.0792  0.3781 -0.3468
  134MOL0     C17998   2.271   1.544  11.180 -0.2923  0.5870  0.2262
  134MOL0     C17999   2.220   1.588  11.316  0.4521 -0.8009 -0.4672
  134MOL0    Cl18000   2.258   1.463  11.439  0.0372  0.2417  0.0368
  134MOL0     C18001   2.250   2.262  10.862 -0.4238  0.2850 -0.2781
  134MOL0     C18002   2.274   2.400  10.875  0.3200  0.3841 -0.4103
  134MOL0     O18003   2.444   2.615  10.599 -0.0620  0.3757 -0.6736
  134MOL0     C18004   2.317   2.891  10.766 -0.3918 -0.0695 -0.1348
  134MOL0     C18005   2.316   3.029  10.777 -0.4772  0.0052  0.1130
  134MOL0     N18006   2.726   3.776  10.673 -0.1673  0.3460  0.3871
  134MOL0     N18007   2.762   3.824  10.565 -0.1860  0.8569 -0.7232
  134MOL0     C18008   3.319   3.197  10.641 -0.1416  0.7398  0.4645
  134MOL0     C18009   3.391   3.142  10.748  0.8197  0.0564  0.4453
  134MOL0     C18010   3.751   2.948  10.972  0.2872  0.1075  0.1534
  134MOL0     C18011   3.885   2.905  10.981  0.2958  1.1208  1.0179
  134MOL0     C18012   3.926   2.837  11.093  0.5064 -0.6064  0.9729
  134MOL0     C18013   3.846   2.815  11.207  0.0545  0.2810  0.1011
  134MOL0     O18014   3.900   2.740  11.318  0.0976  0.1570 -0.7475
  134MOL0     C18015   3.997   2.638  11.290 -0.6783 -0.7692  0.3293
  134MOL0     C18016   4.053   2.586  11.415  0.5602  0.4093  0.9011
  134MOL0     C18017   4.116   2.452  11.393 -0.0923 -0.0789 -0.0261
  134MOL0     C18018   4.122   2.382  11.532 -0.7156 -0.3602 -0.2472
  134MOL0     C18019   3.995   2.325  11.555  0.2614  0.3964  0.3212
  134MOL0     C18020   3.912   2.249  11.597  0.0468  0.0562  0.6163
  134MOL0     C18021   3.718   2.872  11.205 -1.1113 -0.5845  0.0625
  134MOL0     C18022   3.674   2.937  11.089  1.1075 -0.0606  0.0570
  134MOL0     H18023   3.705   3.217  10.658  0.6050 -4.0838 -1.5506
  134MOL0     H18024   3.570   3.281  10.438 -0.4627 -2.2862 -0.6939
  134MOL0     H18025   3.167   3.379  10.523  0.6249 -2.4467  0.1325
  134MOL0     H18026   3.258   3.466  10.390 -2.6809  0.5126 -2.4873
  134MOL0     H18027   3.147   3.347  10.217  0.8367  2.2254 -0.1337
  134MOL0     H18028   3.060   3.256  10.339 -0.7436  1.3822  1.3517
  134MOL0     H18029   2.973   3.497  10.413 -2.2736  2.6450 -1.9407
  134MOL0     H18030   3.053   3.556  10.267 -1.2508  1.3109  0.2477
  134MOL0     H18031   2.915   3.333  10.187 -0.4651 -3.1984  1.7877
  134MOL0     H18032   2.810   3.367  10.318  0.0641  1.5770  1.2977
  134MOL0     H18033   2.863   3.538  10.088 -0.8184 -1.6191 -0.6577
  134MOL0     H18034   2.710   3.486  10.161  0.3295 -0.5366 -0.5795
  134MOL0     H18035   2.796   3.629  10.374  0.9389  2.0908  1.7337
  134MOL0     H18036   2.875   3.728  10.251 -0.5431 -0.3804 -2.3350
  134MOL0     H18037   2.667   3.786  10.136 -2.9869  3.2727  1.1395
  134MOL0     H18038   2.573   3.681  10.245  1.8055 -2.0626 -0.0534
  134MOL0     H18039   2.550   3.889  10.315 -0.4044 -0.9840 -0.1004
  134MOL0     H18040   2.723   3.939  10.320  0.1684  0.2615 -1.7215
  134MOL0     H18041   2.465   3.733  10.481  1.1236  1.1213 -2.7826
  134MOL0     H18042   2.554   3.644  10.851  1.2334 -2.5839 -1.3432
  134MOL0     H18043   2.419   3.732  10.759 -1.9942 -2.4338 -0.3425
  134MOL0     H18044   2.508   3.471  10.630  0.1902 -0.8923  0.8107
  134MOL0     H18045   2.355   3.556  10.624  1.0134  0.7430 -2.3287
  134MOL0     H18046   2.303   3.511  10.864 -2.4018 -0.4215 -1.2163
  134MOL0     H18047   2.467   3.437  10.877 -0.3287  0.1424  0.0159
  134MOL0     H18048   2.256   3.309  10.705 -1.6324 -0.4375  2.2434
  134MOL0     H18049   2.307   3.284  10.876  0.9744 -2.8482 -0.7839
  134MOL0     H18050   2.622   3.086  10.638  0.4697 -0.4474 -0.8398
  134MOL0     H18051   2.676   2.731  10.625 -2.3885 -1.2908 -0.2129
  134MOL0     H18052   2.610   2.794  10.470 -1.3581 -0.8599  1.3105
  134MOL0     H18053   2.728   2.886  10.573 -1.0545  2.8991  3.1675
  134MOL0     H18054   2.254   2.483  10.558 -0.9082 -1.3612 -0.8155
  134MOL0     H18055   2.182   2.244  10.530 -0.0517  0.2473  0.0558
  134MOL0     H18056   2.189   1.886  10.656 -2.2972  1.1177 -6.6366
  134MOL0     H18057   2.281   2.013  10.576  1.6911 -0.2702  0.1870
  134MOL0     H18058   2.455   1.900  10.679 -2.4286 -3.2837  0.6243
  134MOL0     H18059   2.429   2.044  10.787  0.4659  0.7632 -1.2451
  134MOL0     H18060   2.452   1.856  10.913  0.7802  2.3000 -1.0545
  134MOL0     H18061   2.355   1.742  10.828  1.1442 -1.6805  2.9147
  134MOL0     H18062   2.227   1.971  10.973 -0.9540  1.0529 -0.9928
  134MOL0     H18063   2.156   1.832  10.889  3.3400 -5.0961 -1.2307
  134MOL0     H18064   2.206   1.836  11.161  0.2913 -0.8427  0.7413
  134MOL0     H18065   2.366   1.799  11.118  1.3413 -1.1771 -1.9145
  134MOL0     H18066   2.112   1.643  11.064  0.0857  0.5339 -0.4948
  134MOL0     H18067   2.253   1.584  10.978 -2.9134 -0.1393 -1.1745
  134MOL0     H18068   2.374   1.509  11.178  0.2334  2.0814 -1.2243
  134MOL0     H18069   2.212   1.454  11.157 -0.0046  0.2673  0.7388
  134MOL0     H18070   2.112   1.601  11.309  0.2103 -2.0672  0.5446
  134MOL0     H18071   2.267   1.684  11.341  2.1458 -0.9661 -2.6945
  134MOL0     H18072   2.239   2.199  10.950  1.8577  1.1262  0.6745
  134MOL0     H18073   2.287   2.458  10.966  0.1460 -0.1780 -0.0231
  134MOL0     H18074   2.239   2.832  10.813 -0.3372 -0.8061 -0.9446
  134MOL0     H18075   2.245   3.091  10.830 -0.8273  0.1207 -0.4816
  134MOL0     H18076   3.212   3.184  10.638 -0.1376 -0.3397  2.7170
  134MOL0     H18077   3.348   3.078  10.824  0.7674 -1.1893 -0.5935
  134MOL0     H18078   3.947   2.938  10.897 -0.9207  1.4827  0.2369
  134MOL0     H18079   4.032   2.817  11.095  0.0510 -4.2655 -1.4027
  134MOL0     H18080   3.953   2.559  11.227  1.2697 -0.2740 -1.7752
  134MOL0     H18081   4.083   2.673  11.234 -3.1082  0.7238 -2.7564
  134MOL0     H18082   3.974   2.581  11.490 -2.1520 -0.0351 -1.8099
  134MOL0     H18083   4.131   2.655  11.448 -0.4337  2.3365 -0.5100
  134MOL0     H18084   4.221   2.465  11.365  0.4662 -0.9894  1.4766
  134MOL0     H18085   4.067   2.387  11.320  2.2882 -1.5368 -0.4497
  134MOL0     H18086   4.147   2.457  11.608 -2.5970  4.3186 -3.7298
  134MOL0     H18087   4.205   2.311  11.542  0.6827  1.2235 -0.1923
  134MOL0     H18088   3.851   2.169  11.635  1.8622 -1.5983  0.2224
  134MOL0     H18089   3.669   2.864  11.301  0.3441 -2.1436  0.7317
  134MOL0     H18090   3.571   2.972  11.087  1.7800  2.0292 -0.4172
  135MOL0     O18091  10.555   9.767   0.145 -0.2815 -0.1265  0.5055
  135MOL0     C18092  10.526   9.847   0.234  0.1865  0.4609 -0.2448
  135MOL0     O18093  10.457   9.964   0.216  0.2092  0.0424 -0.4262
  135MOL0     C18094  10.437  10.032   0.097 -0.1652  0.4610 -0.2243
  135MOL0     C18095  10.550  10.085   0.028 -1.1023  0.1624 -0.2748
  135MOL0     C18096  10.527  10.144  -0.098  0.5589 -0.3825 -1.0474
  135MOL0     C18097  10.398  10.163  -0.142  0.2944 -1.0161  0.7572
  135MOL0     O18098  10.377  10.237  -0.260 -0.7954  0.2123 -0.6816
  135MOL0     C18099  10.241  10.240  -0.312 -0.3192  0.3827  0.6566
  135MOL0     C18100  10.249  10.315  -0.440  0.4042  0.0263  0.2622
  135MOL0     C18101  10.311  10.461  -0.417  0.4818 -1.4023  0.8772
  135MOL0     C18102  10.296  10.529  -0.563 -0.5631 -0.1674 -0.0526
  135MOL0     C18103  10.398  10.655  -0.583 -0.3979  0.5550 -0.6641
  135MOL0     C18104  10.402  10.747  -0.465  0.2316  0.6630  0.0798
  135MOL0     C18105  10.316  10.865  -0.496  0.6499 -0.1378 -0.6374
  135MOL0     C18106  10.312  10.955  -0.363  0.1997  0.1990  0.6493
  135MOL0     N18107  10.253  11.089  -0.398  0.6216  0.1229  0.0739
  135MOL0     C18108  10.296  11.159  -0.513  0.2788  0.1071 -0.3072
  135MOL0     C18109  10.257  11.286  -0.493 -0.2325  0.1103 -0.2416
  135MOL0     C18110  10.292  11.407  -0.563 -0.3387 -0.1060  1.2330
  135MOL0     C18111  10.451  11.419  -0.558 -0.9522 -0.3063 -0.6183
  135MOL0     C18112  10.489  11.461  -0.414  0.0622  0.8895  0.0158
  135MOL0     C18113  10.637  11.491  -0.393 -0.5779  1.1669  0.2081
  135MOL0     O18114  10.714  11.393  -0.459  0.0418  0.0316 -0.1665
  135MOL0     C18115  10.847  11.379  -0.424 -0.8897 -0.4610 -0.0835
  135MOL0     C18116  10.921  11.464  -0.335 -0.0612  0.2222  0.4836
  135MOL0     C18117  11.054  11.444  -0.309 -0.4054 -0.1389 -0.2232
  135MOL0     C18118  11.103  11.538  -0.199  0.3977 -1.0365  0.3471
  135MOL0     C18119  11.133  11.352  -0.378  0.2325  0.0615  0.1589
  135MOL0     C18120  11.267  11.322  -0.349 -0.1560 -0.8430 -0.1182
  135MOL0     O18121  11.337  11.412  -0.297 -0.2137  0.2750 -0.1974
  135MOL0     C18122  11.459  11.389  -0.240 -0.0914  0.3647  0.3093
  135MOL0     C18123  11.584  11.410  -0.308 -0.9531 -0.5928  0.1951
  135MOL0     C18124  11.706  11.384  -0.245  1.0604 -0.4261  0.2777
  135MOL0     C18125  11.711  11.344  -0.109  0.1831  0.2347  1.0754
  135MOL0     O18126  11.835  11.338  -0.049  0.2426  0.2975  0.2608
  135MOL0     C18127  11.872  11.216   0.019 -0.0298  0.0272 -0.1188
  135MOL0     C18128  11.819  11.221   0.163  0.5726  0.2659 -0.6564
  135MOL0     C18129  11.909  11.148   0.257  0.3129 -0.3487 -0.7627
  135MOL0     C18130  11.855  11.003   0.291  0.0541 -0.6033  0.1109
  135MOL0     C18131  11.903  10.962   0.431  0.4063  0.3145 -0.1320
  135MOL0     C18132  11.822  11.030   0.545 -0.0716  0.2335 -0.8060
  135MOL0     C18133  11.870  10.988   0.680  0.5417  0.3458 -0.9321
  135MOL0     C18134  11.829  10.847   0.710 -0.8286 -0.1205 -0.2077
  135MOL0    Cl18135  11.852  10.795   0.881 -0.1179  0.2306  0.0140
  135MOL0     C18136  11.588  11.321  -0.043  0.1358  0.1899 -0.3202
  135MOL0     C18137  11.467  11.346  -0.106 -0.4345  0.7280  0.4065
  135MOL0     O18138  11.309  11.206  -0.377 -0.0353 -0.4340 -0.1631
  135MOL0     C18139  11.068  11.279  -0.481 -0.2329 -0.0939  0.5603
  135MOL0     C18140  10.922  11.287  -0.501  0.4373 -0.1502 -0.2279
  135MOL0     N18141  10.193  11.297  -0.370 -0.2378 -0.1200  0.4706
  135MOL0     N18142  10.198  11.175  -0.317 -0.2126 -0.1705 -0.4207
  135MOL0     C18143  10.290  10.114  -0.074 -0.2062 -0.0835  1.1727
  135MOL0     C18144  10.307  10.053   0.044  0.0919 -0.5484  0.5321
  135MOL0     C18145  10.567   9.835   0.365 -0.9993  0.0578 -0.2959
  135MOL0     C18146  10.505   9.908   0.472  0.4636  1.0685 -0.0238
  135MOL0     C18147  10.529   9.884   0.603 -0.6052  0.8239  0.0436
  135MOL0     C18148  10.630   9.790   0.640 -0.0696 -0.4005  0.2797
  135MOL0     O18149  10.650   9.767   0.771  0.1030  0.7065 -0.0973
  135MOL0     C18150  10.561   9.827   0.873  0.2159  0.4065 -0.1095
  135MOL0     C18151  10.620   9.961   0.918 -0.1864 -0.1129 -0.5431
  135MOL0     C18152  10.754   9.960   0.999 -0.1416  0.2261  0.0279
  135MOL0     C18153  10.732   9.883   1.130  0.4199 -0.1782  0.8313
  135MOL0     C18154  10.851   9.862   1.204 -0.1955 -0.5518 -0.0771
  135MOL0     C18155  10.947   9.843   1.269 -1.5693  0.3181 -0.3433
  135MOL0     C18156  10.692   9.720   0.532 -0.9155  0.0609 -0.1929
  135MOL0     C18157  10.665   9.743   0.403  0.1628 -0.4821 -0.3930
  135MOL0     H18158  10.654  10.076   0.058 -1.4115  0.3499  0.9060
  135MOL0     H18159  10.611  10.191  -0.149  1.2669 -0.4701 -0.0012
  135MOL0     H18160  10.206  10.137  -0.325 -3.6400  1.4304  0.4642
  135MOL0     H18161  10.171  10.292  -0.247  0.9019  1.9671  0.7867
  135MOL0     H18162  10.325  10.263  -0.499 -0.4578 -0.6762 -0.2717
  135MOL0     H18163  10.158  10.304  -0.500  1.2221 -2.0361 -0.6856
  135MOL0     H18164  10.255  10.508  -0.336  0.6779  0.8816 -0.2515
  135MOL0     H18165  10.420  10.460  -0.402  0.6101  1.1906  0.5039
  135MOL0     H18166  10.326  10.461  -0.642 -2.1353 -1.6297  0.5645
  135MOL0     H18167  10.194  10.559  -0.589 -0.0664 -1.3786 -4.0118
  135MOL0     H18168  10.500  10.617  -0.592 -1.2078 -1.8023 -0.4863
  135MOL0     H18169  10.381  10.711  -0.675  0.4808  3.7646  0.9755
  135MOL0     H18170  10.365  10.694  -0.377  0.9478  1.0640  0.6354
  135MOL0     H18171  10.503  10.784  -0.444  0.1860 -0.1609  1.9760
  135MOL0     H18172  10.354  10.909  -0.589 -0.3471  0.6639 -0.6907
  135MOL0     H18173  10.216  10.825  -0.514 -0.1983  1.1872  0.8382
  135MOL0     H18174  10.413  10.958  -0.319  0.6816 -2.6710 -0.0431
  135MOL0     H18175  10.242  10.908  -0.294 -1.3893 -4.8103 -3.6980
  135MOL0     H18176  10.363  11.124  -0.591  1.6133 -0.6762  1.1231
  135MOL0     H18177  10.258  11.403  -0.666  0.0200 -0.1073  1.1135
  135MOL0     H18178  10.240  11.497  -0.528 -1.6989 -0.7044  0.7716
  135MOL0     H18179  10.494  11.496  -0.622  0.0526 -2.1161 -2.2269
  135MOL0     H18180  10.479  11.318  -0.589  0.2162  0.0927 -0.9218
  135MOL0     H18181  10.461  11.393  -0.333  0.3271  0.2033 -0.4597
  135MOL0     H18182  10.442  11.558  -0.394  1.8621  2.5247 -2.9257
  135MOL0     H18183  10.660  11.477  -0.287 -0.2409 -1.0026 -0.0982
  135MOL0     H18184  10.665  11.592  -0.422 -0.5645  0.2701 -3.4902
  135MOL0     H18185  10.874  11.540  -0.275 -1.2283 -0.5953  0.6288
  135MOL0     H18186  11.176  11.486  -0.136 -1.4600 -1.7611  2.0417
  135MOL0     H18187  11.142  11.627  -0.249 -0.4901 -0.9824 -0.2790
  135MOL0     H18188  11.018  11.560  -0.133 -1.2309 -2.1043 -1.2935
  135MOL0     H18189  11.576  11.442  -0.412 -0.3297 -2.3981 -0.4340
  135MOL0     H18190  11.801  11.405  -0.292  0.7451 -2.1999 -1.2321
  135MOL0     H18191  11.847  11.120  -0.027  1.6853 -2.6514  3.9606
  135MOL0     H18192  11.981  11.214   0.019 -0.0332 -1.1840 -0.6520
  135MOL0     H18193  11.807  11.324   0.198 -1.3782 -0.4836  1.0506
  135MOL0     H18194  11.719  11.180   0.178  1.3343 -0.7503  2.1278
  135MOL0     H18195  11.912  11.210   0.347 -1.2180 -2.7634  1.0546
  135MOL0     H18196  12.006  11.133   0.208 -0.0266  1.1163 -1.9620
  135MOL0     H18197  11.745  10.998   0.289 -0.0010  0.1026  0.7397
  135MOL0     H18198  11.895  10.938   0.214 -0.2540 -0.3500 -0.2657
  135MOL0     H18199  12.006  10.993   0.448 -0.4249  2.3605  1.7029
  135MOL0     H18200  11.895  10.853   0.435 -0.8379  0.3153 -1.5728
  135MOL0     H18201  11.832  11.139   0.535 -1.8722  0.6515  1.2095
  135MOL0     H18202  11.715  11.011   0.530 -0.5884  2.7928 -0.8656
  135MOL0     H18203  11.832  11.054   0.759  2.2061 -1.2228  1.3160
  135MOL0     H18204  11.977  11.011   0.689  0.4896  2.2040 -4.0233
  135MOL0     H18205  11.873  10.773   0.643  0.3140  0.2104  0.1453
  135MOL0     H18206  11.726  10.821   0.682 -0.5304 -2.5943  0.7430
  135MOL0     H18207  11.590  11.278   0.057 -0.9737  0.0459 -0.3481
  135MOL0     H18208  11.378  11.327  -0.048 -1.0809  0.4559 -0.6589
  135MOL0     H18209  11.125  11.214  -0.547  3.5578  1.1873  2.2856
  135MOL0     H18210  10.874  11.232  -0.581 -1.5326 -0.6387  1.2149
  135MOL0     H18211  10.185  10.123  -0.099 -0.9297 -1.9954  3.1636
  135MOL0     H18212  10.230  10.008   0.104  1.2718  0.3012  2.7800
  135MOL0     H18213  10.430   9.985   0.458 -2.0637 -0.2128  4.2702
  135MOL0     H18214  10.476   9.953   0.668 -1.6133  1.5288 -1.4744
  135MOL0     H18215  10.457   9.858   0.859  0.1721  0.8636  1.0695
  135MOL0     H18216  10.558   9.750   0.951 -0.4432 -1.0586 -1.5252
  135MOL0     H18217  10.547  10.001   0.990 -0.6720 -0.9003 -0.5864
  135MOL0     H18218  10.622  10.032   0.835 -1.4024  2.5678  1.5360
  135MOL0     H18219  10.785  10.063   1.020  0.1729  0.0002  0.7113
  135MOL0     H18220  10.832   9.919   0.934  0.2776  0.8718  0.1147
  135MOL0     H18221  10.691   9.785   1.105 -0.8328  0.8457 -1.4063
  135MOL0     H18222  10.666   9.936   1.199  1.6551  1.5162  0.7856
  135MOL0     H18223  11.030   9.841   1.338 -1.4854 -0.6658 -0.4630
  135MOL0     H18224  10.771   9.656   0.570 -0.0960  1.6095  0.8116
  135MOL0     H18225  10.718   9.679   0.333 -0.7666 -1.3338 -0.3415
  136MOL0     O18226   3.830  10.021   2.761  0.1798 -0.0624 -0.3284
  136MOL0     C18227   3.837   9.929   2.675  0.0740 -0.0433 -1.1939
  136MOL0     O18228   3.947   9.900   2.599 -0.0115 -0.1859  0.0314
  136MOL0     C18229   4.044   9.991   2.597  0.0045 -0.2986 -0.2602
  136MOL0     C18230   4.023  10.123   2.574  0.4366 -0.1351  1.0649
  136MOL0     C18231   4.124  10.213   2.564 -0.1339 -0.4138 -0.2809
  136MOL0     C18232   4.260  10.170   2.579 -0.7800 -0.9013  1.0284
  136MOL0     O18233   4.375  10.246   2.554  0.3002 -0.3241 -0.4363
  136MOL0     C18234   4.366  10.385   2.534 -0.2766 -0.5410  0.3901
  136MOL0     C18235   4.317  10.475   2.646  0.2575  0.2834 -0.3463
  136MOL0     C18236   4.304  10.629   2.629 -0.6955  0.3444 -0.2442
  136MOL0     C18237   4.196  10.659   2.532  0.2358  0.5963  0.6804
  136MOL0     C18238   4.196  10.814   2.501 -0.2666  0.2301 -0.3922
  136MOL0     C18239   4.080  10.857   2.415  0.2446  0.4415 -0.0555
  136MOL0     C18240   4.103  11.013   2.380  0.6967  1.0121  0.6350
  136MOL0     C18241   3.980  11.070   2.311 -0.5425 -0.5266 -0.5827
  136MOL0     N18242   3.997  11.217   2.303 -0.2494 -0.3432 -0.1106
  136MOL0     C18243   4.022  11.291   2.411 -0.0277  0.1727 -0.0972
  136MOL0     C18244   4.071  11.407   2.372  0.4410  0.8746  1.2117
  136MOL0     C18245   4.094  11.528   2.459  0.3956  0.9854 -0.3234
  136MOL0     C18246   3.962  11.608   2.457 -0.0405 -0.0591 -0.3877
  136MOL0     C18247   3.950  11.722   2.558 -0.2530  0.4967 -0.3086
  136MOL0     C18248   3.837  11.821   2.545  0.4103 -0.1989  1.2663
  136MOL0     O18249   3.819  11.883   2.676 -0.4957 -0.5967  0.8086
  136MOL0     C18250   3.705  11.961   2.674  1.2186  0.5790  0.0794
  136MOL0     C18251   3.712  12.092   2.719 -0.5537  0.6739  0.5216
  136MOL0     C18252   3.595  12.172   2.748 -0.6606 -0.1042  0.4138
  136MOL0     C18253   3.611  12.303   2.819  0.1585  0.2099  0.1657
  136MOL0     C18254   3.471  12.121   2.714  0.2667 -0.1446  0.5447
  136MOL0     C18255   3.340  12.185   2.749  0.5397  0.8287 -0.2899
  136MOL0     O18256   3.326  12.322   2.743  0.2509  0.2592 -1.4337
  136MOL0     C18257   3.210  12.387   2.791 -0.1278  0.5889  0.2765
  136MOL0     C18258   3.161  12.478   2.697 -0.3675  0.1435  0.1863
  136MOL0     C18259   3.067  12.575   2.738 -1.6399  0.1718 -0.8672
  136MOL0     C18260   3.028  12.574   2.876  0.9805 -0.1225 -0.2732
  136MOL0     O18261   2.935  12.673   2.901 -1.0913  0.1242 -0.8921
  136MOL0     C18262   2.958  12.742   3.023  0.6213  0.1226 -0.0424
  136MOL0     C18263   2.825  12.824   3.043 -0.4281  0.2578  0.2081
  136MOL0     C18264   2.843  12.936   3.151 -0.5238  0.5224  0.1985
  136MOL0     C18265   2.743  13.046   3.149  0.7646 -0.1260 -0.6206
  136MOL0     C18266   2.741  13.138   3.273 -0.4379  0.1837 -0.2039
  136MOL0     C18267   2.648  13.257   3.240 -0.0577 -0.2975 -0.5481
  136MOL0     C18268   2.628  13.365   3.351  1.0433  0.2813  0.7578
  136MOL0     C18269   2.728  13.484   3.359 -0.7172  0.2872  0.0126
  136MOL0    Cl18270   2.718  13.585   3.212  0.6001  0.4626  0.0103
  136MOL0     C18271   3.061  12.472   2.963  0.0803 -0.0109 -1.1271
  136MOL0     C18272   3.161  12.382   2.926  1.3225 -0.1351  0.2509
  136MOL0     O18273   3.263  12.099   2.798 -0.2854  0.0060  0.2831
  136MOL0     C18274   3.463  11.998   2.650 -0.1769  0.2767 -1.0923
  136MOL0     C18275   3.578  11.919   2.636  0.1979 -0.1081 -0.2288
  136MOL0     N18276   4.084  11.397   2.234  0.5650 -0.4652 -1.1551
  136MOL0     N18277   4.055  11.281   2.201  0.1187  0.1218 -0.1798
  136MOL0     C18278   4.286  10.037   2.606 -0.8890 -0.4882  0.2230
  136MOL0     C18279   4.177   9.950   2.623 -0.9614  0.1427  0.6341
  136MOL0     C18280   3.713   9.852   2.662  0.3002  1.3766 -0.0566
  136MOL0     C18281   3.606   9.873   2.741 -0.3971  0.1111 -0.9064
  136MOL0     C18282   3.483   9.800   2.722 -0.4765  0.3900  0.7067
  136MOL0     C18283   3.468   9.733   2.602 -0.3997 -0.8096  0.0507
  136MOL0     O18284   3.348   9.677   2.586  0.4894 -0.1236  0.0468
  136MOL0     C18285   3.341   9.570   2.492 -0.5464  0.6218  0.1089
  136MOL0     C18286   3.210   9.503   2.510  1.0881 -0.0668 -0.5691
  136MOL0     C18287   3.082   9.598   2.494  0.5183  0.3036 -0.1520
  136MOL0     C18288   2.946   9.522   2.499 -0.0890  0.1003 -0.4241
  136MOL0     C18289   2.908   9.469   2.370  0.8814  0.2196 -0.3138
  136MOL0     C18290   2.875   9.421   2.263  0.3630 -0.6786 -1.0147
  136MOL0     C18291   3.568   9.729   2.508 -0.2539  0.1391  0.6104
  136MOL0     C18292   3.698   9.769   2.545  0.7896 -0.9868  0.6698
  136MOL0     H18293   3.925  10.163   2.549  1.0959  1.2370  0.5727
  136MOL0     H18294   4.108  10.315   2.533 -0.4769 -0.6088 -0.7540
  136MOL0     H18295   4.463  10.422   2.497 -0.5369 -0.9316 -0.7246
  136MOL0     H18296   4.305  10.389   2.444  2.8019 -2.1168 -1.9948
  136MOL0     H18297   4.216  10.441   2.670  0.5820 -2.4569 -2.4148
  136MOL0     H18298   4.381  10.452   2.732 -0.1493 -1.4863 -0.4883
  136MOL0     H18299   4.273  10.680   2.721 -2.6837  1.4799 -1.4632
  136MOL0     H18300   4.399  10.675   2.601 -0.4471  1.0878  1.6593
  136MOL0     H18301   4.212  10.603   2.440  1.4965  0.5086  0.9414
  136MOL0     H18302   4.096  10.636   2.571 -0.0349  0.3142 -0.1622
  136MOL0     H18303   4.187  10.868   2.596  3.2156  1.1643 -0.4398
  136MOL0     H18304   4.294  10.842   2.461  1.0322  0.7904  2.8665
  136MOL0     H18305   4.067  10.793   2.328  0.3677 -1.2744  1.1342
  136MOL0     H18306   3.989  10.849   2.475 -0.1271  1.4613 -0.4696
  136MOL0     H18307   4.122  11.074   2.469  0.3503  3.0344 -0.5918
  136MOL0     H18308   4.190  11.014   2.313 -1.9532 -1.5888 -3.2626
  136MOL0     H18309   3.885  11.047   2.359 -0.8446  0.3573 -0.7487
  136MOL0     H18310   3.974  11.028   2.210 -1.8378 -0.8447 -0.3864
  136MOL0     H18311   3.992  11.248   2.506  2.8613 -2.7434 -0.3342
  136MOL0     H18312   4.128  11.493   2.557  1.2909  1.1611 -0.5670
  136MOL0     H18313   4.182  11.587   2.432  1.2830  0.7672  1.8604
  136MOL0     H18314   3.876  11.542   2.469 -0.2662  0.0736 -1.1893
  136MOL0     H18315   3.966  11.655   2.358 -2.7335  0.0271 -0.5340
  136MOL0     H18316   4.049  11.767   2.570 -1.0393  2.6304 -1.3579
  136MOL0     H18317   3.940  11.680   2.659 -0.3187  2.5229  0.5921
  136MOL0     H18318   3.747  11.763   2.519 -0.0287 -0.2155  2.7414
  136MOL0     H18319   3.865  11.885   2.461  2.0981 -0.9338  1.2351
  136MOL0     H18320   3.809  12.133   2.743 -0.5032  2.4273 -2.2558
  136MOL0     H18321   3.601  12.294   2.928  1.9666  1.0660  0.4480
  136MOL0     H18322   3.716  12.328   2.799  0.9879 -2.9444  0.0110
  136MOL0     H18323   3.553  12.389   2.785  1.3129  2.1868  2.7972
  136MOL0     H18324   3.205  12.485   2.598  0.2789 -1.7498  0.3096
  136MOL0     H18325   3.032  12.651   2.668  0.0966 -0.6151 -2.7062
  136MOL0     H18326   2.952  12.666   3.102 -0.5805  1.4740  1.2417
  136MOL0     H18327   3.049  12.801   3.029 -0.4538  1.7273  2.3754
  136MOL0     H18328   2.805  12.865   2.944 -1.2720 -1.3953 -0.3480
  136MOL0     H18329   2.740  12.763   3.076 -1.2197  3.0301  4.0355
  136MOL0     H18330   2.944  12.975   3.139 -0.4963 -0.2535 -3.2192
  136MOL0     H18331   2.840  12.881   3.246  1.2021  0.6801  0.3739
  136MOL0     H18332   2.772  13.104   3.061  0.8517 -2.1745 -2.0121
  136MOL0     H18333   2.645  13.001   3.135 -0.3341  1.9953 -0.2620
  136MOL0     H18334   2.843  13.169   3.299 -0.1144 -0.1456 -1.0641
  136MOL0     H18335   2.717  13.076   3.360 -2.5294  1.0715 -0.0965
  136MOL0     H18336   2.684  13.309   3.151  3.5086  1.5898  1.7242
  136MOL0     H18337   2.550  13.212   3.227 -0.7016  1.0972 -0.6983
  136MOL0     H18338   2.634  13.321   3.451 -2.7385  1.7397  1.7679
  136MOL0     H18339   2.531  13.414   3.344  1.1285  0.2330 -1.9484
  136MOL0     H18340   2.827  13.441   3.375  0.4884  3.8864  4.9459
  136MOL0     H18341   2.715  13.544   3.450  3.5809  0.2095  0.8624
  136MOL0     H18342   3.007  12.463   3.057 -1.7526  1.0710 -2.0011
  136MOL0     H18343   3.204  12.318   3.002 -0.5749  0.6473  2.0861
  136MOL0     H18344   3.368  11.954   2.623  0.1297  0.3530 -2.3493
  136MOL0     H18345   3.562  11.822   2.590 -0.8265 -0.1962  0.2730
  136MOL0     H18346   4.392  10.014   2.616 -0.3777  1.6416  0.2262
  136MOL0     H18347   4.214   9.852   2.650  0.5280  0.8461  1.2138
  136MOL0     H18348   3.626   9.927   2.833 -1.2011 -0.9128 -0.1089
  136MOL0     H18349   3.401   9.810   2.792 -1.8463  1.4749 -0.9905
  136MOL0     H18350   3.347   9.616   2.392  1.3541 -0.3698 -0.2806
  136MOL0     H18351   3.427   9.503   2.496 -0.1872  1.0809  0.1414
  136MOL0     H18352   3.222   9.442   2.601 -0.4933  1.4333  0.7103
  136MOL0     H18353   3.184   9.435   2.428 -3.0064  0.3245  0.1989
  136MOL0     H18354   3.086   9.647   2.396 -1.4166 -3.4077 -2.3151
  136MOL0     H18355   3.081   9.666   2.580 -1.5723 -0.6632  0.6492
  136MOL0     H18356   2.868   9.594   2.525 -0.9272 -1.0250  0.3077
  136MOL0     H18357   2.945   9.451   2.582  0.5833  2.8507  2.1210
  136MOL0     H18358   2.855   9.373   2.170 -1.2454  0.7673 -1.4628
  136MOL0     H18359   3.557   9.668   2.419 -0.9089 -0.3389  1.0049
  136MOL0     H18360   3.781   9.735   2.483 -0.9676 -1.4884 -1.5663
  137MOL0     O18361   0.827   4.081   2.568 -0.6452 -0.0199 -0.2905
  137MOL0     C18362   0.840   4.105   2.451  0.9406  0.1060  0.5236
  137MOL0     O18363   0.738   4.151   2.367  0.4942 -0.2852 -1.3695
  137MOL0     C18364   0.610   4.133   2.403  0.5775  0.1016 -0.5709
  137MOL0     C18365   0.521   4.235   2.366 -0.9777 -0.0741 -0.3386
  137MOL0     C18366   0.379   4.237   2.384  0.1277  0.2531 -0.3850
  137MOL0     C18367   0.330   4.131   2.466  0.4175  0.1673  0.0819
  137MOL0     O18368   0.199   4.127   2.516 -0.4553  0.4388  0.0437
  137MOL0     C18369   0.124   4.247   2.511 -0.0643 -0.3363 -0.0653
  137MOL0     C18370   0.010   4.248   2.621  0.2626  0.1284  0.3830
  137MOL0     C18371  -0.125   4.191   2.576 -0.7121  0.3895 -0.4174
  137MOL0     C18372  -0.215   4.137   2.691 -0.8971 -0.2217 -0.4494
  137MOL0     C18373  -0.348   4.100   2.626 -0.1657 -0.1656  0.3638
  137MOL0     C18374  -0.448   4.018   2.720  0.1251 -0.2488  1.0492
  137MOL0     C18375  -0.386   3.899   2.799 -0.3580  0.1038  0.2666
  137MOL0     C18376  -0.474   3.775   2.848 -0.4915  0.4443  0.5829
  137MOL0     N18377  -0.591   3.810   2.922  0.7534  0.2512 -0.4143
  137MOL0     C18378  -0.701   3.883   2.886 -0.5239 -1.0167  0.3432
  137MOL0     C18379  -0.782   3.904   2.993 -0.4114 -0.4000 -0.3511
  137MOL0     C18380  -0.915   3.969   2.975 -0.2397 -1.8321 -0.1629
  137MOL0     C18381  -0.915   4.115   2.909  0.8021 -0.4984  0.5526
  137MOL0     C18382  -1.002   4.123   2.779  0.5528 -0.1374  0.7876
  137MOL0     C18383  -0.930   4.069   2.649  0.4770 -0.1348 -0.4533
  137MOL0     O18384  -0.972   3.938   2.616  0.1718 -0.2177  0.1832
  137MOL0     C18385  -0.927   3.880   2.506 -1.1216  0.6302  1.3160
  137MOL0     C18386  -1.012   3.781   2.450 -0.7419 -1.2071 -0.6871
  137MOL0     C18387  -0.995   3.722   2.328  0.9050 -0.0241  0.0726
  137MOL0     C18388  -1.089   3.618   2.275 -0.2022  0.3171 -0.0389
  137MOL0     C18389  -0.887   3.763   2.248  0.2747 -1.1961  0.4497
  137MOL0     C18390  -0.865   3.704   2.110 -0.6345  0.1028 -1.1668
  137MOL0     O18391  -0.955   3.731   2.004 -0.7451  0.3614 -0.1789
  137MOL0     C18392  -0.919   3.760   1.876  0.4181  0.0255 -0.5103
  137MOL0     C18393  -0.785   3.792   1.828  0.6840 -0.2205 -0.0074
  137MOL0     C18394  -0.762   3.826   1.696  0.6447 -0.6259  0.7575
  137MOL0     C18395  -0.875   3.852   1.607  0.0588 -0.2757  0.0102
  137MOL0     O18396  -0.834   3.911   1.485  0.3372 -0.6268  0.2138
  137MOL0     C18397  -0.899   3.865   1.370 -0.0843  1.3632  0.7760
  137MOL0     C18398  -0.804   3.875   1.247  0.1915 -0.3375  0.1638
  137MOL0     C18399  -0.661   3.810   1.277 -0.0196  0.1988 -0.0704
  137MOL0     C18400  -0.655   3.681   1.354  0.6800 -0.1523  0.3405
  137MOL0     C18401  -0.515   3.634   1.366  0.3310 -0.5922  0.2968
  137MOL0     C18402  -0.467   3.561   1.239  0.6393 -0.2539  0.4153
  137MOL0     C18403  -0.314   3.565   1.240  0.6160  0.4938 -0.2000
  137MOL0     C18404  -0.259   3.445   1.154  0.4765  0.2638  0.0667
  137MOL0    Cl18405  -0.090   3.470   1.116  0.2417  0.7298 -0.1332
  137MOL0     C18406  -1.001   3.814   1.652 -0.1137  0.7671  0.2285
  137MOL0     C18407  -1.019   3.750   1.776  0.3614 -0.4793 -1.1506
  137MOL0     O18408  -0.760   3.637   2.097 -0.6014 -0.4167 -1.0630
  137MOL0     C18409  -0.796   3.860   2.301 -0.6622  0.7033 -1.2137
  137MOL0     C18410  -0.813   3.917   2.431 -1.0537  1.1491  0.5584
  137MOL0     N18411  -0.719   3.844   3.093  0.1610 -0.2972 -0.4099
  137MOL0     N18412  -0.610   3.788   3.059 -0.9009 -0.3752 -0.5038
  137MOL0     C18413   0.418   4.028   2.511  0.2193 -0.0371 -0.7591
  137MOL0     C18414   0.551   4.028   2.477  0.1158 -0.1160  0.1781
  137MOL0     C18415   0.976   4.099   2.393  0.6031  0.0819  0.1651
  137MOL0     C18416   0.983   4.109   2.253  0.8927 -0.1696  0.2668
  137MOL0     C18417   1.100   4.075   2.191 -0.4493 -0.4584  0.3744
  137MOL0     C18418   1.222   4.046   2.263 -0.5443  0.6972  0.7743
  137MOL0     O18419   1.332   4.021   2.188 -0.6598 -0.9560  0.6011
  137MOL0     C18420   1.452   3.972   2.242  0.6221 -0.1779  0.5325
  137MOL0     C18421   1.564   3.978   2.128  0.3967 -0.1881  0.3252
  137MOL0     C18422   1.618   4.119   2.138  0.3416  0.5584  0.8698
  137MOL0     C18423   1.686   4.154   1.999  0.6181  0.6744 -0.3097
  137MOL0     C18424   1.798   4.050   1.981 -0.6860 -0.4668 -0.3498
  137MOL0     C18425   1.891   3.967   1.983  0.0306 -0.3458 -0.0697
  137MOL0     C18426   1.215   4.038   2.411  0.2141 -0.0240  0.6530
  137MOL0     C18427   1.090   4.065   2.467  0.5393  0.4877  0.2177
  137MOL0     H18428   0.560   4.322   2.314 -2.1256  2.4165  2.6448
  137MOL0     H18429   0.329   4.313   2.326 -0.1449  0.0933 -0.3582
  137MOL0     H18430   0.192   4.327   2.542  0.2540 -1.4621  2.4470
  137MOL0     H18431   0.089   4.275   2.412 -2.4062  1.5290  1.1933
  137MOL0     H18432   0.045   4.178   2.697  2.6881  1.0275  0.1653
  137MOL0     H18433   0.007   4.345   2.672  1.8538 -0.3201  1.3889
  137MOL0     H18434  -0.185   4.268   2.527 -0.5042  0.2603 -0.8834
  137MOL0     H18435  -0.102   4.103   2.515 -0.6331 -0.5156  0.8749
  137MOL0     H18436  -0.164   4.042   2.712 -2.2130 -1.2401 -1.7237
  137MOL0     H18437  -0.224   4.203   2.778 -1.3985  2.3334 -2.3355
  137MOL0     H18438  -0.394   4.192   2.589  0.3130  0.7846  2.0059
  137MOL0     H18439  -0.322   4.040   2.539 -2.7714 -0.8728  0.0124
  137MOL0     H18440  -0.484   4.092   2.793  1.1280  0.7106  0.5977
  137MOL0     H18441  -0.537   3.990   2.662  0.3196  1.4467 -0.1304
  137MOL0     H18442  -0.318   3.856   2.725  0.3787  1.8177 -0.1089
  137MOL0     H18443  -0.320   3.934   2.879  0.5845 -2.3357  0.6492
  137MOL0     H18444  -0.408   3.721   2.916 -2.0119 -1.2745  0.7509
  137MOL0     H18445  -0.497   3.707   2.766  0.0566  1.7233 -0.6867
  137MOL0     H18446  -0.726   3.914   2.785 -3.9947  0.5597  1.5423
  137MOL0     H18447  -0.978   3.905   2.913  0.6764 -0.9263 -2.1401
  137MOL0     H18448  -0.963   3.973   3.073 -1.1614  3.0257 -0.5254
  137MOL0     H18449  -0.815   4.145   2.877  2.2221 -3.5952  1.6695
  137MOL0     H18450  -0.957   4.189   2.978 -2.5770  0.3085 -2.0849
  137MOL0     H18451  -1.024   4.230   2.775  3.4492  0.6467  2.5291
  137MOL0     H18452  -1.099   4.074   2.790  0.1636  0.9303  2.5222
  137MOL0     H18453  -0.823   4.069   2.674  0.0464 -1.2996  1.6363
  137MOL0     H18454  -0.939   4.138   2.565 -1.3470  0.3692  0.1171
  137MOL0     H18455  -1.086   3.760   2.527  1.1214 -1.7734  1.0372
  137MOL0     H18456  -1.130   3.641   2.177  2.6238  2.3740 -0.8668
  137MOL0     H18457  -1.034   3.523   2.275 -0.7735 -0.0408  1.3423
  137MOL0     H18458  -1.173   3.608   2.344  0.5627 -1.1131  0.7322
  137MOL0     H18459  -0.695   3.785   1.889  2.0103  0.4610 -1.8085
  137MOL0     H18460  -0.658   3.848   1.675  0.5431 -0.8782 -0.0653
  137MOL0     H18461  -0.925   3.761   1.387  1.2420  0.9508  0.4492
  137MOL0     H18462  -0.987   3.925   1.345 -1.1081  0.1133  1.3297
  137MOL0     H18463  -0.857   3.840   1.158 -0.1595 -3.9309  1.6006
  137MOL0     H18464  -0.787   3.983   1.254 -1.1340 -0.2076  1.9216
  137MOL0     H18465  -0.602   3.881   1.337  0.3722 -0.0903 -0.1063
  137MOL0     H18466  -0.612   3.801   1.180  1.3316 -2.0704  0.7432
  137MOL0     H18467  -0.700   3.698   1.452 -4.0225  2.3801 -1.9507
  137MOL0     H18468  -0.723   3.606   1.314 -1.9837  1.9185  0.7291
  137MOL0     H18469  -0.516   3.564   1.450 -1.2945 -1.6006 -0.5079
  137MOL0     H18470  -0.444   3.713   1.392  1.4695 -2.3603  3.0528
  137MOL0     H18471  -0.520   3.465   1.243 -1.0919  0.6683  1.0775
  137MOL0     H18472  -0.486   3.613   1.145  0.1434 -1.1915 -0.0250
  137MOL0     H18473  -0.260   3.548   1.333  3.2048 -4.6144 -2.2697
  137MOL0     H18474  -0.278   3.660   1.200  1.4460  0.3207  0.1225
  137MOL0     H18475  -0.313   3.457   1.059 -3.2364 -1.1332  1.8310
  137MOL0     H18476  -0.273   3.348   1.202 -2.2786  1.8054  2.7364
  137MOL0     H18477  -1.069   3.809   1.567  4.8698 -1.2003 -4.2572
  137MOL0     H18478  -1.110   3.695   1.801  1.2407 -1.6628 -0.4147
  137MOL0     H18479  -0.702   3.883   2.251  0.3956 -0.0149  0.3267
  137MOL0     H18480  -0.730   3.973   2.472 -0.1528 -0.2270  0.6866
  137MOL0     H18481   0.381   3.941   2.564  0.2697  0.7389  0.6146
  137MOL0     H18482   0.617   3.950   2.513  4.0758  4.0902  3.2393
  137MOL0     H18483   0.897   4.132   2.190 -1.8254 -1.3746  3.2188
  137MOL0     H18484   1.118   4.087   2.085  0.4978 -1.5316  0.3914
  137MOL0     H18485   1.480   4.037   2.326  1.9794  1.8789 -1.3768
  137MOL0     H18486   1.436   3.866   2.261  0.3614 -0.0544  1.0125
  137MOL0     H18487   1.518   3.955   2.031  0.7950  3.3263 -0.8588
  137MOL0     H18488   1.636   3.898   2.148  0.9440  0.6280  1.7897
  137MOL0     H18489   1.695   4.123   2.215  0.2585  1.4965  0.9241
  137MOL0     H18490   1.538   4.190   2.161  1.1884  1.6572  0.5067
  137MOL0     H18491   1.715   4.259   1.988 -1.6377  1.3618 -0.1819
  137MOL0     H18492   1.625   4.146   1.909  0.2571 -3.4617  0.1017
  137MOL0     H18493   1.960   3.885   1.994  1.4683  0.4450 -2.3679
  137MOL0     H18494   1.288   4.000   2.482 -0.6102 -1.5788  0.7128
  137MOL0     H18495   1.092   4.059   2.576 -0.2418 -3.8916  0.1484
  138MOL0     O18496   2.046   9.452   5.539 -0.0349  0.0435  0.1388
  138MOL0     C18497   1.943   9.452   5.594 -0.3379 -0.3533 -1.1406
  138MOL0     O18498   1.917   9.411   5.725  0.2063  0.2444  0.0082
  138MOL0     C18499   2.004   9.335   5.802  1.1304 -0.9510 -0.9341
  138MOL0     C18500   2.112   9.261   5.759 -0.1700  0.1675 -0.5332
  138MOL0     C18501   2.180   9.180   5.849  0.5269  0.0994  0.3132
  138MOL0     C18502   2.151   9.191   5.985 -0.0725 -0.0062  0.0206
  138MOL0     O18503   2.232   9.123   6.075 -0.0862  0.2093  0.2754
  138MOL0     C18504   2.250   8.986   6.048  0.3224 -0.2099 -0.1476
  138MOL0     C18505   2.289   8.897   6.171  0.0625 -0.6074 -0.1874
  138MOL0     C18506   2.375   8.780   6.128  0.9546  0.0797 -0.1548
  138MOL0     C18507   2.382   8.667   6.235 -0.0522  0.7290  0.3549
  138MOL0     C18508   2.458   8.539   6.189  0.8757 -0.0737 -1.6905
  138MOL0     C18509   2.600   8.575   6.153 -0.3781  0.5880  0.0602
  138MOL0     C18510   2.677   8.434   6.139  1.2186 -0.3812  0.2761
  138MOL0     C18511   2.819   8.452   6.163 -0.7670 -1.0659  0.2445
  138MOL0     N18512   2.911   8.367   6.084 -0.2596  0.1329 -1.3976
  138MOL0     C18513   2.979   8.394   5.972 -1.0879 -0.2575 -0.1760
  138MOL0     C18514   3.074   8.302   5.960 -1.4482 -0.3738  0.5378
  138MOL0     C18515   3.169   8.295   5.843 -0.1130 -0.3402 -0.5703
  138MOL0     C18516   3.227   8.428   5.791  0.2276  1.1261  0.4624
  138MOL0     C18517   3.334   8.489   5.880  0.1526  0.5269 -0.5628
  138MOL0     C18518   3.413   8.587   5.804  0.3156  0.2058  0.1633
  138MOL0     O18519   3.472   8.549   5.676 -0.2087 -0.6082 -0.0750
  138MOL0     C18520   3.540   8.645   5.601  0.0307 -0.1486 -0.4817
  138MOL0     C18521   3.490   8.699   5.478  0.0976 -1.1704 -0.8535
  138MOL0     C18522   3.566   8.791   5.402  0.5397  0.9568 -0.5169
  138MOL0     C18523   3.490   8.837   5.281 -0.7513  0.4193  0.1289
  138MOL0     C18524   3.701   8.809   5.449  0.0315 -1.3473  0.2634
  138MOL0     C18525   3.797   8.888   5.366 -0.2205  1.1119 -0.2304
  138MOL0     O18526   3.925   8.907   5.412 -0.1729  0.3311 -0.2749
  138MOL0     C18527   4.022   8.967   5.332 -0.4856 -0.5493  0.2604
  138MOL0     C18528   4.088   8.889   5.237 -0.6311 -0.8406 -0.1675
  138MOL0     C18529   4.178   8.945   5.148 -0.4527  0.6592 -0.0455
  138MOL0     C18530   4.210   9.081   5.156 -0.6589 -0.2955 -0.3563
  138MOL0     O18531   4.307   9.147   5.078 -0.1068  0.6243  0.2572
  138MOL0     C18532   4.433   9.078   5.072  0.7577  0.1407 -0.4752
  138MOL0     C18533   4.546   9.169   5.026 -0.4269 -0.1627 -0.5986
  138MOL0     C18534   4.524   9.234   4.887 -1.1494  0.5411  0.4226
  138MOL0     C18535   4.627   9.324   4.827  0.0082  0.2753  0.3321
  138MOL0     C18536   4.597   9.387   4.688  1.0697  0.4194 -0.0357
  138MOL0     C18537   4.721   9.428   4.614 -0.0719  1.1146 -0.0426
  138MOL0     C18538   4.819   9.498   4.704  1.3640  0.6983 -0.4328
  138MOL0     C18539   4.914   9.589   4.631 -0.5307  0.0910 -0.3125
  138MOL0    Cl18540   5.030   9.671   4.745  0.1274  0.3350  0.0438
  138MOL0     C18541   4.143   9.165   5.251 -0.3556 -0.3023  0.3925
  138MOL0     C18542   4.047   9.105   5.339  0.2527 -0.4105 -0.1309
  138MOL0     O18543   3.757   8.946   5.263 -0.3611 -0.3883  0.1421
  138MOL0     C18544   3.750   8.757   5.567 -0.3206 -0.0589  0.5048
  138MOL0     C18545   3.662   8.680   5.646  1.0706 -0.3410 -0.4927
  138MOL0     N18546   3.071   8.220   6.068 -1.0562 -0.4623  0.6506
  138MOL0     N18547   2.980   8.259   6.141  1.0126 -0.4444 -1.2995
  138MOL0     C18548   2.053   9.280   6.033 -0.5002 -0.4007 -0.7507
  138MOL0     C18549   1.973   9.343   5.937 -0.3097 -0.3829 -0.4932
  138MOL0     C18550   1.811   9.472   5.515 -0.7696  0.2552  0.4677
  138MOL0     C18551   1.692   9.401   5.544  0.4609 -0.6304  0.1995
  138MOL0     C18552   1.575   9.427   5.472 -0.1530  0.6367  0.8568
  138MOL0     C18553   1.580   9.500   5.356  0.0262  0.0062 -0.5729
  138MOL0     O18554   1.481   9.498   5.268 -0.8885  0.4742  0.8640
  138MOL0     C18555   1.460   9.380   5.185  0.1944 -0.5032  0.9334
  138MOL0     C18556   1.425   9.423   5.040 -0.2332  0.6111  0.3161
  138MOL0     C18557   1.527   9.524   4.986 -0.2400 -0.9566 -0.3526
  138MOL0     C18558   1.533   9.548   4.834 -0.0919  0.0727  0.4415
  138MOL0     C18559   1.437   9.460   4.762  0.4608 -0.8670 -0.0194
  138MOL0     C18560   1.368   9.391   4.696 -1.4482  0.8008 -0.5558
  138MOL0     C18561   1.702   9.560   5.324 -0.0327  0.5618 -0.6376
  138MOL0     C18562   1.820   9.544   5.400  1.1212  0.7019 -0.9278
  138MOL0     H18563   2.142   9.264   5.655 -1.8750  0.3321 -1.0615
  138MOL0     H18564   2.261   9.115   5.816  2.0939  1.8264  0.6272
  138MOL0     H18565   2.161   8.940   6.005  1.0772 -1.7450 -0.1193
  138MOL0     H18566   2.337   8.988   5.982  0.4364  0.1911  0.0093
  138MOL0     H18567   2.336   8.959   6.248 -0.4712  1.0478 -1.1392
  138MOL0     H18568   2.193   8.856   6.204 -1.5645 -0.1787 -3.8626
  138MOL0     H18569   2.351   8.755   6.024  0.5937  2.9955 -0.8581
  138MOL0     H18570   2.474   8.825   6.127  0.0544  2.6920  4.1986
  138MOL0     H18571   2.418   8.708   6.330  2.3140  1.0514 -0.6301
  138MOL0     H18572   2.274   8.651   6.248  0.0643  0.4515  1.0346
  138MOL0     H18573   2.454   8.464   6.268  0.6338  1.3917 -0.2722
  138MOL0     H18574   2.388   8.504   6.112 -1.6019 -0.5717  0.6581
  138MOL0     H18575   2.626   8.637   6.067 -3.6659 -2.2011 -3.3264
  138MOL0     H18576   2.640   8.621   6.244  0.5612  1.3094 -0.6918
  138MOL0     H18577   2.641   8.354   6.205  3.4969 -0.5119  1.4588
  138MOL0     H18578   2.665   8.399   6.036  1.7990 -2.2192  0.7890
  138MOL0     H18579   2.839   8.439   6.269  0.1726 -0.9284  0.0931
  138MOL0     H18580   2.851   8.552   6.131  1.3182 -1.6471  0.3335
  138MOL0     H18581   2.970   8.486   5.916 -1.3291  0.1759  0.5598
  138MOL0     H18582   3.250   8.226   5.867 -0.5982 -0.9280 -0.6110
  138MOL0     H18583   3.104   8.249   5.768  0.5795 -2.7181  0.2203
  138MOL0     H18584   3.151   8.505   5.778  0.8632  1.3031 -2.9929
  138MOL0     H18585   3.262   8.415   5.688  2.6976 -1.7125  1.5279
  138MOL0     H18586   3.396   8.408   5.919 -2.1917 -1.1526 -0.0382
  138MOL0     H18587   3.279   8.533   5.964  0.6257 -2.7321  1.6620
  138MOL0     H18588   3.501   8.610   5.864  2.3469 -0.2877 -2.4383
  138MOL0     H18589   3.351   8.676   5.794  0.6962  0.4602  0.0401
  138MOL0     H18590   3.388   8.669   5.457 -0.4382 -2.1183  2.4588
  138MOL0     H18591   3.511   8.939   5.247  0.3130 -0.3213 -1.5295
  138MOL0     H18592   3.511   8.769   5.198 -2.8816  0.5542 -0.5773
  138MOL0     H18593   3.385   8.835   5.314 -0.9774  0.0532 -0.5907
  138MOL0     H18594   4.072   8.790   5.196  0.4319 -0.5038 -1.4469
  138MOL0     H18595   4.210   8.887   5.063  0.0588 -0.0799  0.6401
  138MOL0     H18596   4.457   9.052   5.176 -1.6556 -3.7359 -0.7187
  138MOL0     H18597   4.431   8.992   5.005 -0.8194  0.3234 -0.6952
  138MOL0     H18598   4.561   9.245   5.103 -1.6055 -1.6453  1.1881
  138MOL0     H18599   4.642   9.118   5.017  1.3765  3.1012 -1.2110
  138MOL0     H18600   4.439   9.300   4.905 -1.5523 -0.2873  1.7100
  138MOL0     H18601   4.496   9.159   4.813  2.4743 -0.0275 -0.5870
  138MOL0     H18602   4.651   9.407   4.894  2.0882 -2.2948  3.0697
  138MOL0     H18603   4.713   9.258   4.820  0.5931  1.1771 -2.3071
  138MOL0     H18604   4.530   9.471   4.709 -1.2292 -1.3507  0.0457
  138MOL0     H18605   4.535   9.317   4.631 -2.4053  3.4751 -0.4114
  138MOL0     H18606   4.774   9.342   4.571 -2.4248 -0.5562  0.2132
  138MOL0     H18607   4.687   9.490   4.530 -2.7832  1.2098  1.0271
  138MOL0     H18608   4.886   9.431   4.759  3.3104  3.3000  0.5329
  138MOL0     H18609   4.767   9.549   4.785 -0.7335 -2.1249  0.1826
  138MOL0     H18610   4.855   9.675   4.598  1.1718  3.4661  4.3359
  138MOL0     H18611   4.972   9.531   4.559  0.6068 -1.6540  1.8874
  138MOL0     H18612   4.181   9.265   5.269 -0.0005 -0.4420  0.4426
  138MOL0     H18613   3.991   9.164   5.411  0.8836 -2.8407  2.5359
  138MOL0     H18614   3.847   8.773   5.612 -0.2220 -3.3206  1.7824
  138MOL0     H18615   3.687   8.656   5.749 -0.8843  2.3985  0.7503
  138MOL0     H18616   2.043   9.303   6.138  1.4358  2.6912 -1.1090
  138MOL0     H18617   1.885   9.401   5.964  0.8701  0.7451  1.1753
  138MOL0     H18618   1.688   9.341   5.635 -0.2776  0.6117  1.0256
  138MOL0     H18619   1.483   9.377   5.498  0.0882 -0.3722 -0.1455
  138MOL0     H18620   1.546   9.313   5.186 -1.4989 -2.8458  0.6696
  138MOL0     H18621   1.384   9.319   5.235  1.6048 -1.3528  2.1232
  138MOL0     H18622   1.323   9.461   5.026 -0.4549 -0.0763  0.0048
  138MOL0     H18623   1.420   9.326   4.990 -0.8783  0.1748  1.2010
  138MOL0     H18624   1.628   9.495   5.015  0.9833  2.5867 -0.6059
  138MOL0     H18625   1.514   9.617   5.042 -0.6799 -0.2478 -1.6103
  138MOL0     H18626   1.634   9.520   4.805 -0.0127 -0.6958  1.3884
  138MOL0     H18627   1.510   9.651   4.803 -0.3329  0.4422  1.7846
  138MOL0     H18628   1.327   9.310   4.638  0.0851  0.7307 -1.6109
  138MOL0     H18629   1.699   9.630   5.241 -0.2901  1.3437  0.0114
  138MOL0     H18630   1.911   9.593   5.368  0.9503  0.5310 -1.7089
  139MOL0     O18631   1.180   6.488  11.174 -0.5793 -0.0711  0.0669
  139MOL0     C18632   1.245   6.434  11.267  0.0023 -0.3372 -0.1639
  139MOL0     O18633   1.213   6.440  11.401 -0.5294 -0.2422  1.0254
  139MOL0     C18634   1.094   6.484  11.441  0.3326 -0.4095 -0.7868
  139MOL0     C18635   1.007   6.399  11.508  0.3960  0.4194  0.1442
  139MOL0     C18636   0.878   6.440  11.557  0.2147 -0.4524 -0.7134
  139MOL0     C18637   0.843   6.578  11.553 -0.5998  0.5795  0.0612
  139MOL0     O18638   0.723   6.611  11.612  0.1351  0.2800 -0.1026
  139MOL0     C18639   0.668   6.739  11.589 -0.3847  0.4586  0.5629
  139MOL0     C18640   0.534   6.743  11.651  0.4205  0.5440  0.8205
  139MOL0     C18641   0.438   6.620  11.617  0.2919 -0.2827  0.4121
  139MOL0     C18642   0.351   6.578  11.738  0.8498 -0.2490  0.1740
  139MOL0     C18643   0.229   6.486  11.707  0.8337  0.6126  0.5147
  139MOL0     C18644   0.126   6.470  11.826  0.2586  0.4943 -0.1038
  139MOL0     C18645   0.022   6.582  11.828 -0.1167  0.3303  0.8390
  139MOL0     C18646  -0.077   6.578  11.944  0.5263  0.3372  0.6692
  139MOL0     N18647  -0.179   6.471  11.947 -0.1090 -0.1440  1.0635
  139MOL0     C18648  -0.300   6.494  11.885  0.5696  1.0649 -0.6963
  139MOL0     C18649  -0.376   6.380  11.921 -0.1757 -0.7368 -0.1601
  139MOL0     C18650  -0.510   6.334  11.863 -0.7987 -0.4109  0.0388
  139MOL0     C18651  -0.624   6.417  11.935 -0.7694 -0.5970 -0.0910
  139MOL0     C18652  -0.702   6.518  11.841  0.2951 -0.3001 -0.0479
  139MOL0     C18653  -0.830   6.569  11.910  0.6759 -0.6640 -0.4198
  139MOL0     O18654  -0.793   6.628  12.029  0.1125 -0.5714 -0.2505
  139MOL0     C18655  -0.871   6.588  12.137  0.5733 -0.0171 -0.0384
  139MOL0     C18656  -0.818   6.575  12.260 -0.1921 -0.0318  0.2317
  139MOL0     C18657  -0.893   6.535  12.373 -0.1471  0.4394  0.5336
  139MOL0     C18658  -0.825   6.528  12.496  0.7945  0.0974  0.5817
  139MOL0     C18659  -1.037   6.516  12.369 -1.2342 -0.0219  0.5007
  139MOL0     C18660  -1.129   6.456  12.472  1.2703  1.0011 -0.5771
  139MOL0     O18661  -1.097   6.443  12.603 -0.1228  0.2987  0.0188
  139MOL0     C18662  -1.187   6.407  12.701 -1.2107 -0.1708 -0.2249
  139MOL0     C18663  -1.127   6.369  12.824  0.5468  0.6175  0.4326
  139MOL0     C18664  -1.201   6.324  12.931  0.2104  0.8612 -0.7996
  139MOL0     C18665  -1.343   6.314  12.926 -0.5917 -0.4337 -0.0950
  139MOL0     O18666  -1.411   6.259  13.029  0.0387  0.9721 -0.5945
  139MOL0     C18667  -1.524   6.180  13.007 -0.6162  0.2535  0.0678
  139MOL0     C18668  -1.518   6.044  13.079 -0.3363  0.1932 -0.2312
  139MOL0     C18669  -1.508   6.047  13.234 -0.0236 -0.1229  0.7748
  139MOL0     C18670  -1.467   5.903  13.275  1.1150  0.3712  0.2618
  139MOL0     C18671  -1.412   5.901  13.415 -0.4585 -0.7882  0.0946
  139MOL0     C18672  -1.409   5.772  13.489 -0.2269 -0.3492  1.1297
  139MOL0     C18673  -1.339   5.784  13.628 -0.3811  0.3915 -0.4123
  139MOL0     C18674  -1.189   5.829  13.621 -0.1556 -0.1620 -0.3604
  139MOL0    Cl18675  -1.092   5.729  13.519  0.4402 -0.1311 -0.7037
  139MOL0     C18676  -1.404   6.367  12.815  0.0962  0.1367 -0.2028
  139MOL0     C18677  -1.326   6.410  12.702  0.4291 -0.9347 -0.7013
  139MOL0     O18678  -1.232   6.417  12.432 -0.2606  0.5617  0.4398
  139MOL0     C18679  -1.094   6.546  12.239 -0.1353 -0.4992 -0.8511
  139MOL0     C18680  -1.016   6.575  12.129 -0.0364  0.2964 -0.1279
  139MOL0     N18681  -0.298   6.301  12.010  0.4272 -1.1190 -0.5631
  139MOL0     N18682  -0.179   6.355  12.019  0.2773 -0.5915  0.2569
  139MOL0     C18683   0.935   6.666  11.489 -0.1981 -0.0249 -0.1878
  139MOL0     C18684   1.055   6.621  11.429 -0.3192  0.4803 -0.6560
  139MOL0     C18685   1.355   6.346  11.234  0.1230 -0.6545  0.6612
  139MOL0     C18686   1.392   6.252  11.320  0.3868  0.2841 -0.8717
  139MOL0     C18687   1.496   6.158  11.298  0.7659 -0.1537  0.0324
  139MOL0     C18688   1.552   6.141  11.178  0.8883 -0.0995 -0.2137
  139MOL0     O18689   1.653   6.051  11.179  0.3407  0.5154 -0.6152
  139MOL0     C18690   1.743   6.044  11.068 -0.2973 -0.9516  0.1650
  139MOL0     C18691   1.881   5.980  11.098  0.9768  0.0787  0.2070
  139MOL0     C18692   1.872   5.846  11.170 -0.0889  0.2902 -0.1434
  139MOL0     C18693   2.004   5.789  11.200  0.3003 -0.5177  0.5029
  139MOL0     C18694   2.092   5.868  11.285  0.3786 -0.1368  0.5657
  139MOL0     C18695   2.140   5.964  11.346  0.3986  0.5326  0.8238
  139MOL0     C18696   1.499   6.220  11.074 -0.1089  1.0525  0.3243
  139MOL0     C18697   1.405   6.321  11.104 -0.7793  0.5754  0.4028
  139MOL0     H18698   1.038   6.296  11.493  0.3218  0.6411 -1.8743
  139MOL0     H18699   0.801   6.376  11.598  0.7467 -1.8128 -1.7819
  139MOL0     H18700   0.738   6.797  11.650  3.8277  0.6271 -3.8119
  139MOL0     H18701   0.657   6.759  11.482 -0.3072  0.3714  0.5385
  139MOL0     H18702   0.547   6.750  11.760 -0.4121  1.3345  0.8849
  139MOL0     H18703   0.479   6.834  11.626 -1.8261 -1.3666 -1.8029
  139MOL0     H18704   0.369   6.647  11.536 -1.4712 -1.8687  1.3211
  139MOL0     H18705   0.496   6.542  11.566  1.4298  0.6660  0.2007
  139MOL0     H18706   0.408   6.526  11.816 -0.7729 -2.1072  0.1964
  139MOL0     H18707   0.312   6.671  11.778 -2.2330 -0.0910 -2.7477
  139MOL0     H18708   0.175   6.511  11.615  1.4561  0.2593  0.0453
  139MOL0     H18709   0.289   6.398  11.680  0.7430  0.2810  1.3432
  139MOL0     H18710   0.074   6.375  11.811 -0.0472  0.5482  0.5799
  139MOL0     H18711   0.168   6.475  11.927 -0.1697  0.1418  0.0974
  139MOL0     H18712   0.073   6.678  11.828  2.2017 -0.6353 -3.5116
  139MOL0     H18713  -0.033   6.579  11.733 -2.0894 -0.2065  1.9470
  139MOL0     H18714  -0.131   6.673  11.949  1.4673  1.0227 -1.1278
  139MOL0     H18715  -0.025   6.587  12.040 -1.0003 -1.7903  1.7846
  139MOL0     H18716  -0.337   6.571  11.819 -0.0091 -0.6180 -2.4406
  139MOL0     H18717  -0.510   6.342  11.754 -0.8227 -0.1876  0.0542
  139MOL0     H18718  -0.525   6.230  11.892  4.1698 -0.6779  2.6385
  139MOL0     H18719  -0.576   6.477  12.014 -0.3592 -0.8934 -0.1089
  139MOL0     H18720  -0.687   6.353  11.997  0.3060 -2.2033 -0.6073
  139MOL0     H18721  -0.726   6.474  11.743  1.4930  1.0369 -0.9812
  139MOL0     H18722  -0.633   6.600  11.820  0.9735 -0.8250  0.1057
  139MOL0     H18723  -0.908   6.494  11.924  1.1469 -0.4915  6.2020
  139MOL0     H18724  -0.865   6.652  11.847  1.0033 -0.8880 -0.9046
  139MOL0     H18725  -0.710   6.583  12.259 -0.3047  1.9975  0.1767
  139MOL0     H18726  -0.858   6.605  12.567  0.2714  3.4151 -2.9213
  139MOL0     H18727  -0.876   6.439  12.533 -1.3975  0.1976 -1.9312
  139MOL0     H18728  -0.718   6.510  12.483  0.3795 -3.7625  1.3416
  139MOL0     H18729  -1.020   6.384  12.831  0.5700  2.1397 -1.8855
  139MOL0     H18730  -1.148   6.281  13.015 -0.5949 -0.9639 -1.1722
  139MOL0     H18731  -1.609   6.245  13.033  0.1399  2.1571 -1.8970
  139MOL0     H18732  -1.518   6.146  12.903  2.8032  0.9250 -0.0705
  139MOL0     H18733  -1.600   5.977  13.053  0.5366 -0.0345 -2.6219
  139MOL0     H18734  -1.420   6.014  13.040  0.7451  0.7729  1.8890
  139MOL0     H18735  -1.598   6.088  13.281 -0.7163  2.1465 -2.1821
  139MOL0     H18736  -1.429   6.115  13.267 -1.0636  1.1271  0.7502
  139MOL0     H18737  -1.543   5.827  13.256  2.2589 -1.1496  1.5048
  139MOL0     H18738  -1.380   5.865  13.219 -0.6439 -1.3095 -1.5042
  139MOL0     H18739  -1.467   5.977  13.470  3.1385 -0.1013  3.1973
  139MOL0     H18740  -1.311   5.940  13.403 -0.7125 -0.1364  0.0639
  139MOL0     H18741  -1.515   5.749  13.502 -0.8451 -1.4114 -3.8545
  139MOL0     H18742  -1.382   5.682  13.432  1.1176  0.7122 -0.0130
  139MOL0     H18743  -1.339   5.689  13.683  1.2488 -0.1479 -1.2715
  139MOL0     H18744  -1.391   5.856  13.692 -1.0831 -0.9678  0.5903
  139MOL0     H18745  -1.146   5.831  13.721  0.1296  2.8762 -0.4565
  139MOL0     H18746  -1.189   5.933  13.586 -1.0011  0.5424  1.5875
  139MOL0     H18747  -1.511   6.388  12.813 -0.3976 -2.1002 -0.0972
  139MOL0     H18748  -1.385   6.451  12.621  0.4731  2.5574  0.8706
  139MOL0     H18749  -1.202   6.536  12.227 -0.6930  3.3619 -0.3590
  139MOL0     H18750  -1.077   6.584  12.039  0.0487 -1.8734 -0.4604
  139MOL0     H18751   0.907   6.771  11.492  2.9499  0.9614 -1.2550
  139MOL0     H18752   1.117   6.694  11.378  0.0245  2.3764  2.2750
  139MOL0     H18753   1.346   6.248  11.418  0.8495  1.5748 -0.5870
  139MOL0     H18754   1.529   6.098  11.383 -0.2056 -0.3893  0.2517
  139MOL0     H18755   1.695   5.984  10.990  2.2313 -2.2586 -0.5071
  139MOL0     H18756   1.760   6.146  11.034 -0.8418 -0.6199  0.8760
  139MOL0     H18757   1.934   6.050  11.163  1.5665  0.7756 -0.9928
  139MOL0     H18758   1.942   5.965  11.008  2.2913 -0.3750  1.1518
  139MOL0     H18759   1.825   5.773  11.103  0.8117  2.1977 -3.0410
  139MOL0     H18760   1.800   5.850  11.252 -0.2501  1.6811 -0.3331
  139MOL0     H18761   2.055   5.793  11.103 -5.0672  1.0885 -2.6515
  139MOL0     H18762   1.991   5.685  11.232 -3.4368 -1.0936 -2.1611
  139MOL0     H18763   2.197   6.043  11.391  2.9569 -0.7885  0.1305
  139MOL0     H18764   1.540   6.192  10.977 -3.6045 -1.2632 -0.6988
  139MOL0     H18765   1.364   6.373  11.018  0.0097  1.5496  0.5939
  140MOL0     O18766   4.894   0.202   6.837 -0.1477 -0.5696  0.2580
  140MOL0     C18767   4.886   0.114   6.752 -1.3788  0.6918  0.0736
  140MOL0     O18768   4.988   0.069   6.665  0.1981  0.5733 -0.0542
  140MOL0     C18769   5.101   0.139   6.656 -0.4310 -0.3630 -0.4264
  140MOL0     C18770   5.079   0.272   6.623 -1.0183 -0.0498 -0.3416
  140MOL0     C18771   5.195   0.354   6.597 -0.2648 -0.0098 -0.2378
  140MOL0     C18772   5.322   0.291   6.598 -0.1924 -0.0310 -0.1269
  140MOL0     O18773   5.435   0.362   6.569  0.0145  0.4602 -0.6273
  140MOL0     C18774   5.434   0.502   6.551  0.4306  0.2634  0.2262
  140MOL0     C18775   5.577   0.539   6.508 -0.5365 -0.8638 -1.0002
  140MOL0     C18776   5.571   0.681   6.474 -0.0933 -0.5497  0.5837
  140MOL0     C18777   5.678   0.712   6.357  0.2910  0.2518 -0.0308
  140MOL0     C18778   5.652   0.852   6.303 -0.0368 -0.6511 -0.0231
  140MOL0     C18779   5.547   0.877   6.186 -0.0184  0.2714  0.5187
  140MOL0     C18780   5.470   1.015   6.178 -0.4378  0.7746  0.0493
  140MOL0     C18781   5.576   1.121   6.130 -0.5118  0.2623 -0.2364
  140MOL0     N18782   5.552   1.257   6.184 -0.3847 -0.2376  0.0560
  140MOL0     C18783   5.454   1.355   6.153 -0.9957  0.0637 -0.3912
  140MOL0     C18784   5.471   1.450   6.254  0.1268 -0.0030 -0.6656
  140MOL0     C18785   5.389   1.579   6.258  0.4905  0.4487 -0.6380
  140MOL0     C18786   5.458   1.700   6.324 -0.3020 -0.3185 -0.9371
  140MOL0     C18787   5.586   1.742   6.234  0.1397  0.4441 -0.0767
  140MOL0     C18788   5.657   1.874   6.271  0.7001 -0.2737  0.6294
  140MOL0     O18789   5.728   1.853   6.392 -0.0145 -0.2608 -0.3149
  140MOL0     C18790   5.806   1.961   6.438  0.1710  0.7893 -0.1966
  140MOL0     C18791   5.824   2.084   6.374  0.0380  1.2997  1.0162
  140MOL0     C18792   5.911   2.179   6.419  0.8821 -0.2016 -0.4420
  140MOL0     C18793   5.929   2.306   6.330 -0.2731  0.4417 -0.5466
  140MOL0     C18794   5.972   2.156   6.546  0.0803 -0.3202 -0.1739
  140MOL0     C18795   6.039   2.268   6.611  0.5117  0.0035 -0.3291
  140MOL0     O18796   6.114   2.346   6.539 -0.5605  0.0297 -0.0679
  140MOL0     C18797   6.175   2.460   6.589  0.1832  0.3435  0.1702
  140MOL0     C18798   6.122   2.541   6.697  0.0738  0.1268  0.5580
  140MOL0     C18799   6.189   2.665   6.718  0.0317 -0.4501  0.4229
  140MOL0     C18800   6.297   2.702   6.645 -0.4635  0.8440  1.0269
  140MOL0     O18801   6.360   2.817   6.671  0.0604 -0.1582  0.2846
  140MOL0     C18802   6.457   2.806   6.787  0.8663 -0.2264  0.5465
  140MOL0     C18803   6.517   2.943   6.822 -0.0602 -0.2153  0.3711
  140MOL0     C18804   6.618   2.995   6.718  0.4895  0.7733  0.8320
  140MOL0     C18805   6.694   3.113   6.769  0.1129  0.6859  0.2236
  140MOL0     C18806   6.753   3.192   6.663 -0.5878 -0.3479 -0.8811
  140MOL0     C18807   6.675   3.330   6.633 -0.1250  0.0422 -0.1429
  140MOL0     C18808   6.692   3.452   6.730 -0.0982  0.6030 -0.5599
  140MOL0     C18809   6.627   3.573   6.672  0.7087  0.3932 -0.7325
  140MOL0    Cl18810   6.668   3.713   6.783 -0.0210  0.2240  0.0339
  140MOL0     C18811   6.345   2.618   6.546  0.5773  0.3032  0.0991
  140MOL0     C18812   6.277   2.504   6.505 -0.4916 -0.1214  0.0681
  140MOL0     O18813   6.034   2.272   6.732  0.3866 -0.0582 -0.1538
  140MOL0     C18814   5.960   2.032   6.611 -1.1079  0.2198 -0.9564
  140MOL0     C18815   5.881   1.929   6.548  0.0232 -0.0467 -0.3451
  140MOL0     N18816   5.573   1.408   6.341 -0.4272  0.4129  0.3089
  140MOL0     N18817   5.613   1.299   6.297 -0.5063  0.5491  0.2613
  140MOL0     C18818   5.342   0.165   6.646  0.4578  0.1956  0.3754
  140MOL0     C18819   5.232   0.092   6.688  0.3659  0.4148  0.4044
  140MOL0     C18820   4.754   0.049   6.736 -0.3991  0.5786  0.2344
  140MOL0     C18821   4.644   0.105   6.793  0.1247  0.1077 -0.4054
  140MOL0     C18822   4.518   0.042   6.782  0.0359  0.4581 -0.4289
  140MOL0     C18823   4.503  -0.073   6.707 -0.5397 -0.7267 -0.0015
  140MOL0     O18824   4.371  -0.116   6.698 -0.3775  0.0192  0.6427
  140MOL0     C18825   4.349  -0.262   6.686  0.3169  0.2035 -0.3201
  140MOL0     C18826   4.246  -0.305   6.792  0.4840  0.0101  0.5545
  140MOL0     C18827   4.235  -0.452   6.801  0.3242  0.4491  0.9005
  140MOL0     C18828   4.145  -0.497   6.926  0.1134  0.6190  0.5328
  140MOL0     C18829   4.213  -0.483   7.058 -0.4133 -0.8938 -0.8718
  140MOL0     C18830   4.275  -0.469   7.160  0.3749 -0.2859 -0.2867
  140MOL0     C18831   4.613  -0.127   6.649 -0.3088 -0.1913  0.2138
  140MOL0     C18832   4.745  -0.077   6.663 -0.3735 -0.4254 -0.2856
  140MOL0     H18833   4.981   0.317   6.612 -0.3664  0.9216 -3.0249
  140MOL0     H18834   5.172   0.457   6.574 -1.4840  0.5530  2.9943
  140MOL0     H18835   5.370   0.525   6.465  1.4812  1.1024 -0.3506
  140MOL0     H18836   5.401   0.555   6.641 -0.0348 -0.9228  0.7806
  140MOL0     H18837   5.641   0.519   6.595 -1.3716  1.6149  0.2906
  140MOL0     H18838   5.613   0.485   6.420  2.3527  0.6172 -0.8412
  140MOL0     H18839   5.473   0.724   6.454  1.2565  1.6781 -1.9667
  140MOL0     H18840   5.619   0.721   6.564  0.4760  0.8492 -0.2964
  140MOL0     H18841   5.779   0.705   6.399  0.8929  3.1802 -0.7624
  140MOL0     H18842   5.664   0.643   6.273  0.2102  1.7606 -1.3276
  140MOL0     H18843   5.631   0.922   6.384  0.5667  0.2649 -0.6178
  140MOL0     H18844   5.744   0.898   6.263 -0.7281 -0.2679 -1.2369
  140MOL0     H18845   5.604   0.852   6.096 -1.4335  0.9946 -0.6192
  140MOL0     H18846   5.472   0.798   6.182 -0.2792  0.3317  2.7291
  140MOL0     H18847   5.390   1.006   6.104  1.1065 -0.9429 -1.5151
  140MOL0     H18848   5.439   1.048   6.278 -1.5463 -1.6950  0.5778
  140MOL0     H18849   5.576   1.132   6.021 -3.0415 -0.1191 -0.3332
  140MOL0     H18850   5.674   1.094   6.169 -1.7561  1.9266  4.7451
  140MOL0     H18851   5.391   1.359   6.065 -0.9137 -0.2084 -0.4650
  140MOL0     H18852   5.368   1.618   6.158 -1.8961  2.3284  0.4985
  140MOL0     H18853   5.296   1.544   6.303  3.0085 -5.1844  1.1582
  140MOL0     H18854   5.480   1.670   6.427  2.4881 -2.2639 -1.9557
  140MOL0     H18855   5.386   1.782   6.325  0.5214  0.4716 -2.5093
  140MOL0     H18856   5.546   1.746   6.132 -1.0329  1.0819  0.3894
  140MOL0     H18857   5.644   1.649   6.227 -0.5542 -0.3045  2.7683
  140MOL0     H18858   5.583   1.954   6.286  1.9062  0.9387  0.3176
  140MOL0     H18859   5.725   1.912   6.194 -2.1873 -0.3280 -2.1779
  140MOL0     H18860   5.769   2.107   6.283  0.5091  1.9104  0.8804
  140MOL0     H18861   5.940   2.397   6.389 -3.0560  0.1781  0.5135
  140MOL0     H18862   6.026   2.287   6.284  0.2955  0.4585  0.6107
  140MOL0     H18863   5.851   2.315   6.254 -1.1389  0.7865  0.3703
  140MOL0     H18864   6.040   2.506   6.759 -1.3134 -1.4876 -1.9726
  140MOL0     H18865   6.153   2.734   6.793  1.5024  0.3978  0.3853
  140MOL0     H18866   6.398   2.775   6.873  0.6290  0.5070  0.6608
  140MOL0     H18867   6.537   2.734   6.770 -1.1356 -2.2549 -0.9241
  140MOL0     H18868   6.436   3.015   6.826  1.4089  1.4712  0.7957
  140MOL0     H18869   6.569   2.934   6.918  0.8541 -2.4458 -0.2676
  140MOL0     H18870   6.558   3.024   6.631 -1.2125 -0.5450  1.5173
  140MOL0     H18871   6.687   2.916   6.686  0.4627  0.1816  2.1670
  140MOL0     H18872   6.628   3.182   6.823 -1.3187 -1.2800  1.0999
  140MOL0     H18873   6.774   3.068   6.827  0.8761  0.0866 -1.2294
  140MOL0     H18874   6.746   3.139   6.567  2.6131 -0.5100 -1.1300
  140MOL0     H18875   6.858   3.218   6.674 -1.1669  2.6705 -1.5368
  140MOL0     H18876   6.709   3.347   6.530  0.7272 -2.1562 -0.2856
  140MOL0     H18877   6.566   3.316   6.631 -0.0091 -0.9948  0.2895
  140MOL0     H18878   6.795   3.476   6.759 -0.1956  0.6498 -0.2478
  140MOL0     H18879   6.632   3.444   6.821 -0.9328  1.4602 -1.0176
  140MOL0     H18880   6.518   3.564   6.673  0.6062  1.4899 -0.7562
  140MOL0     H18881   6.668   3.590   6.572 -1.7045 -1.2336 -2.1036
  140MOL0     H18882   6.431   2.633   6.482  0.7272 -0.5541  0.0759
  140MOL0     H18883   6.334   2.440   6.439  0.2764 -0.9572  1.4947
  140MOL0     H18884   6.000   2.003   6.708 -0.9206  3.2796 -0.0289
  140MOL0     H18885   5.876   1.829   6.592  0.4284  0.5124  1.0368
  140MOL0     H18886   5.446   0.136   6.648  0.8571  1.2735  4.4063
  140MOL0     H18887   5.246  -0.011   6.718  0.1035  0.8029  1.9467
  140MOL0     H18888   4.653   0.197   6.850 -0.9681  0.7763 -1.2701
  140MOL0     H18889   4.428   0.090   6.820  0.0324  0.6668 -0.6972
  140MOL0     H18890   4.303  -0.273   6.587  0.3769  1.8047 -0.5564
  140MOL0     H18891   4.440  -0.322   6.691 -1.4756 -2.6170  2.4960
  140MOL0     H18892   4.153  -0.269   6.746 -0.1462 -2.3286 -0.1007
  140MOL0     H18893   4.275  -0.262   6.889 -1.5685  0.1141  1.1704
  140MOL0     H18894   4.335  -0.495   6.811  1.2527  1.8217 -1.6512
  140MOL0     H18895   4.196  -0.485   6.704  0.9128  2.3128  0.0017
  140MOL0     H18896   4.104  -0.599   6.923 -0.8585  0.8642  3.0494
  140MOL0     H18897   4.060  -0.428   6.916  1.3233  2.2245  0.8916
  140MOL0     H18898   4.331  -0.469   7.252  1.7574 -2.5314 -1.0490
  140MOL0     H18899   4.590  -0.214   6.588  3.3933  0.9889 -3.3279
  140MOL0     H18900   4.824  -0.106   6.594 -0.5370  3.2136 -2.2358
  141MOL0     O18901   0.252   0.658   3.033  0.8327 -0.5256 -0.3582
  141MOL0     C18902   0.329   0.725   2.972 -1.5569 -0.4491  0.4593
  141MOL0     O18903   0.320   0.768   2.839 -0.1623 -0.1894 -0.6212
  141MOL0     C18904   0.200   0.732   2.776 -0.5716 -0.1418  0.7422
  141MOL0     C18905   0.120   0.838   2.723  1.5101 -0.7518  0.2019
  141MOL0     C18906   0.008   0.804   2.644  0.0732 -0.0892 -0.9509
  141MOL0     C18907  -0.028   0.667   2.611  0.2569 -0.5623  0.0414
  141MOL0     O18908  -0.137   0.631   2.545  0.5916 -0.4144 -0.8223
  141MOL0     C18909  -0.208   0.718   2.464  0.6188  1.5393 -0.7996
  141MOL0     C18910  -0.293   0.635   2.363  0.3573  1.4343 -0.5682
  141MOL0     C18911  -0.410   0.571   2.442 -0.5318  0.5560 -0.6185
  141MOL0     C18912  -0.536   0.656   2.448  0.1842  0.1008  0.5754
  141MOL0     C18913  -0.638   0.626   2.330 -0.1883  0.6490 -0.0158
  141MOL0     C18914  -0.763   0.715   2.346  0.2359 -0.0692  0.0146
  141MOL0     C18915  -0.893   0.654   2.279 -0.5363 -0.3585  0.6448
  141MOL0     C18916  -1.008   0.730   2.312  0.3086  0.7785 -0.0082
  141MOL0     N18917  -1.135   0.675   2.255 -0.7407 -0.3033  0.7925
  141MOL0     C18918  -1.189   0.670   2.129  0.3737 -0.8830 -0.5292
  141MOL0     C18919  -1.297   0.597   2.148  1.2380 -0.9171 -0.0488
  141MOL0     C18920  -1.404   0.562   2.056  0.4492  0.4244  0.5863
  141MOL0     C18921  -1.490   0.685   2.004  0.3367 -0.4499 -0.9912
  141MOL0     C18922  -1.588   0.737   2.110  0.0011  0.2483  0.1036
  141MOL0     C18923  -1.680   0.842   2.044  0.2021 -0.2401  0.2328
  141MOL0     O18924  -1.630   0.953   1.980  0.5029  0.6880 -0.4504
  141MOL0     C18925  -1.516   1.010   2.028 -0.4795  0.2494 -0.0906
  141MOL0     C18926  -1.488   1.023   2.163 -0.4079 -0.1054  0.8190
  141MOL0     C18927  -1.365   1.067   2.210  0.2485 -0.6793  0.8874
  141MOL0     C18928  -1.342   1.064   2.360  0.5912 -0.3238 -0.0902
  141MOL0     C18929  -1.267   1.099   2.118 -0.0762  0.2448 -0.6990
  141MOL0     C18930  -1.133   1.129   2.160  0.1452  0.6195 -0.4281
  141MOL0     O18931  -1.041   1.083   2.073  0.0863 -0.4791 -0.1026
  141MOL0     C18932  -0.902   1.084   2.104  0.3180 -0.1316  1.1907
  141MOL0     C18933  -0.836   0.969   2.074  0.5846 -0.7830  0.8565
  141MOL0     C18934  -0.695   0.955   2.082  0.9319  0.0005  1.0842
  141MOL0     C18935  -0.614   1.051   2.145 -0.0413  0.7317  0.2182
  141MOL0     O18936  -0.478   1.035   2.152  0.5720  0.4488 -0.2859
  141MOL0     C18937  -0.403   1.137   2.223  0.6970 -0.6972 -0.0348
  141MOL0     C18938  -0.255   1.095   2.246  1.4788 -0.1352 -1.4579
  141MOL0     C18939  -0.186   1.061   2.119  0.3820  0.1031 -0.1892
  141MOL0     C18940  -0.219   1.145   1.995  0.3598 -0.6618 -0.7533
  141MOL0     C18941  -0.119   1.113   1.884  0.4223  0.4346  0.1829
  141MOL0     C18942  -0.130   1.206   1.756 -0.1678 -0.5040 -0.2807
  141MOL0     C18943  -0.013   1.173   1.654 -0.1312 -0.1494  0.1307
  141MOL0     C18944  -0.028   1.036   1.598 -0.4865 -0.0491  1.3466
  141MOL0    Cl18945   0.098   0.930   1.674 -0.1125  0.2365  0.3130
  141MOL0     C18946  -0.685   1.164   2.188  0.5379 -0.3848  0.3293
  141MOL0     C18947  -0.821   1.176   2.170  1.0690 -0.6253 -0.5633
  141MOL0     O18948  -1.113   1.197   2.257  0.3563  0.8458 -0.9168
  141MOL0     C18949  -1.301   1.101   1.988 -0.0501 -0.8621 -0.8326
  141MOL0     C18950  -1.422   1.050   1.947 -0.0166  0.1775  0.7529
  141MOL0     N18951  -1.310   0.563   2.284 -0.1371 -0.0333  0.4443
  141MOL0     N18952  -1.209   0.616   2.343 -0.6957 -0.3195 -0.5650
  141MOL0     C18953   0.058   0.570   2.660  0.2358  1.0329  0.5140
  141MOL0     C18954   0.171   0.599   2.740  0.1999  0.4024  0.2612
  141MOL0     C18955   0.455   0.754   3.043 -0.1878  0.4988  0.2177
  141MOL0     C18956   0.564   0.814   2.985 -0.4791 -0.9788 -0.2738
  141MOL0     C18957   0.690   0.819   3.054 -0.1766 -0.3216  0.8441
  141MOL0     C18958   0.704   0.778   3.184 -0.8594 -0.4439 -0.2897
  141MOL0     O18959   0.830   0.799   3.237 -1.0447 -0.1366  0.5508
  141MOL0     C18960   0.853   0.784   3.377  0.4968  0.7155  0.1382
  141MOL0     C18961   0.992   0.729   3.390 -0.3885 -0.3867 -0.3800
  141MOL0     C18962   1.112   0.832   3.391  1.3528  0.1281  1.0254
  141MOL0     C18963   1.217   0.788   3.301 -0.2213 -1.0753  0.1672
  141MOL0     C18964   1.286   0.673   3.352  0.5825  0.8909  0.3816
  141MOL0     C18965   1.358   0.582   3.388 -0.3836 -0.6577  0.5605
  141MOL0     C18966   0.594   0.709   3.241 -0.4983 -0.0900 -0.5378
  141MOL0     C18967   0.470   0.705   3.183  0.4709  0.0959  0.5905
  141MOL0     H18968   0.150   0.937   2.752  2.3166 -0.6883 -0.7783
  141MOL0     H18969  -0.049   0.893   2.616 -0.2586 -0.4282 -1.3597
  141MOL0     H18970  -0.274   0.785   2.520 -1.3506 -1.7404  1.1041
  141MOL0     H18971  -0.140   0.776   2.401  1.0403  1.9605  0.0249
  141MOL0     H18972  -0.345   0.684   2.280  0.0047 -1.0959 -1.9482
  141MOL0     H18973  -0.222   0.556   2.338  0.9940  1.3193  1.4337
  141MOL0     H18974  -0.433   0.469   2.412  0.7454  0.3098 -0.8214
  141MOL0     H18975  -0.384   0.572   2.548  1.1211  0.7555 -0.9962
  141MOL0     H18976  -0.588   0.652   2.544 -2.6279  1.2166 -0.7774
  141MOL0     H18977  -0.511   0.761   2.430 -1.4130  0.4441  0.2535
  141MOL0     H18978  -0.595   0.643   2.231  0.6761  4.5380  0.8683
  141MOL0     H18979  -0.672   0.523   2.349 -1.5684  0.3604 -3.3293
  141MOL0     H18980  -0.788   0.712   2.452 -3.3936 -0.3834 -0.7064
  141MOL0     H18981  -0.741   0.817   2.314  1.8658 -0.2342  0.5461
  141MOL0     H18982  -0.888   0.635   2.171  1.4296 -2.7476  1.0634
  141MOL0     H18983  -0.916   0.561   2.331 -3.0207  1.2875  2.7181
  141MOL0     H18984  -1.000   0.836   2.288  1.2420  1.2269  1.9988
  141MOL0     H18985  -1.018   0.725   2.421  1.5761  0.9088  0.1268
  141MOL0     H18986  -1.157   0.720   2.038 -2.5438 -1.1243 -1.7857
  141MOL0     H18987  -1.349   0.511   1.976  1.2527 -0.3025  1.5890
  141MOL0     H18988  -1.475   0.486   2.088 -0.1122  0.5209 -0.3867
  141MOL0     H18989  -1.552   0.647   1.922 -0.4408  2.2364 -1.7518
  141MOL0     H18990  -1.419   0.759   1.967  2.9892 -1.2331  2.0781
  141MOL0     H18991  -1.519   0.770   2.189  0.3914  0.5977 -0.3780
  141MOL0     H18992  -1.659   0.665   2.153  1.4877 -2.7031 -2.0255
  141MOL0     H18993  -1.755   0.869   2.119 -0.4868 -0.2115 -0.4578
  141MOL0     H18994  -1.745   0.790   1.973  2.1838 -3.1956  0.3943
  141MOL0     H18995  -1.567   1.003   2.235 -1.5833  1.3808 -0.0030
  141MOL0     H18996  -1.240   1.058   2.398  1.3512  0.6110 -1.8616
  141MOL0     H18997  -1.366   1.163   2.401  2.3613 -1.3603  3.9032
  141MOL0     H18998  -1.408   0.988   2.404 -1.2356  0.7689 -0.8087
  141MOL0     H18999  -0.895   0.897   2.019 -0.5878  1.4248 -0.9698
  141MOL0     H19000  -0.663   0.858   2.045 -1.4921 -0.3249 -0.3731
  141MOL0     H19001  -0.416   1.231   2.169  0.0448 -1.0321 -0.4737
  141MOL0     H19002  -0.458   1.140   2.317  1.9962 -0.5155  0.7507
  141MOL0     H19003  -0.201   1.166   2.309  1.4867 -3.0211  2.1209
  141MOL0     H19004  -0.257   1.005   2.309 -6.2523 -0.1437 -0.6451
  141MOL0     H19005  -0.214   0.960   2.088  1.4005  0.0271 -0.9165
  141MOL0     H19006  -0.078   1.060   2.140  0.1065  0.4225  1.3938
  141MOL0     H19007  -0.322   1.129   1.962  0.5916 -1.4337 -1.1154
  141MOL0     H19008  -0.204   1.250   2.023  2.6364 -1.1628  0.1119
  141MOL0     H19009  -0.134   1.007   1.863  1.5209 -0.1265  2.0218
  141MOL0     H19010  -0.017   1.112   1.923 -0.4304  1.8539  2.6620
  141MOL0     H19011  -0.226   1.191   1.705  0.7295 -1.6018 -1.7234
  141MOL0     H19012  -0.131   1.308   1.795  2.6076 -0.1826 -0.8660
  141MOL0     H19013   0.084   1.187   1.702 -0.4945 -0.6255  1.0477
  141MOL0     H19014  -0.016   1.252   1.579 -2.2366  1.5792  1.8759
  141MOL0     H19015  -0.022   1.039   1.489 -2.7324  2.5416  1.2177
  141MOL0     H19016  -0.126   0.995   1.621  0.3919 -1.1860  3.3533
  141MOL0     H19017  -0.629   1.249   2.224 -1.5871 -0.1802  3.5334
  141MOL0     H19018  -0.868   1.273   2.187  1.1481 -0.6276 -0.3225
  141MOL0     H19019  -1.233   1.138   1.912  1.4091  1.2498  1.3788
  141MOL0     H19020  -1.434   1.055   1.840  0.5240 -0.1810  0.6702
  141MOL0     H19021   0.019   0.470   2.648 -3.6166  2.3056  0.8703
  141MOL0     H19022   0.242   0.521   2.767 -0.3638  0.3956  1.8560
  141MOL0     H19023   0.541   0.855   2.887 -0.1576 -3.8370 -1.6652
  141MOL0     H19024   0.771   0.862   2.995 -3.1362  0.1633 -3.2627
  141MOL0     H19025   0.839   0.871   3.443 -0.8436  0.8877 -0.3382
  141MOL0     H19026   0.788   0.710   3.424 -2.0770  3.4080  1.1572
  141MOL0     H19027   1.005   0.657   3.308  3.4644  0.6891 -0.9286
  141MOL0     H19028   1.003   0.667   3.480  0.8636 -1.9535 -1.5542
  141MOL0     H19029   1.134   0.830   3.498 -3.9482 -2.0573  2.4150
  141MOL0     H19030   1.076   0.931   3.361  1.3463  0.1584  1.1334
  141MOL0     H19031   1.300   0.859   3.294 -1.3065  0.4505  2.0139
  141MOL0     H19032   1.175   0.777   3.200 -1.1456 -1.1749  0.5530
  141MOL0     H19033   1.415   0.502   3.431  0.6489  0.2430  0.9277
  141MOL0     H19034   0.605   0.671   3.342 -4.7101 -1.6289 -0.4775
  141MOL0     H19035   0.390   0.658   3.239 -0.0667  2.2534  1.7176
  142MOL0     O19036  11.324   3.270   0.026  1.1102 -0.5848 -0.3531
  142MOL0     C19037  11.236   3.200   0.079 -0.8530  0.3948  0.4443
  142MOL0     O19038  11.229   3.178   0.215  0.3905 -0.1598  0.1265
  142MOL0     C19039  11.329   3.210   0.304 -1.4290  0.1306 -0.4906
  142MOL0     C19040  11.459   3.249   0.283 -0.5268  0.6800  0.7814
  142MOL0     C19041  11.551   3.274   0.392 -0.1519  0.5337 -0.0796
  142MOL0     C19042  11.506   3.280   0.522  0.2364  0.5080  0.0090
  142MOL0     O19043  11.587   3.311   0.628  0.1710 -0.2700  0.2511
  142MOL0     C19044  11.611   3.194   0.707  0.5742  0.2894 -0.2782
  142MOL0     C19045  11.745   3.200   0.793  0.0006  0.1819 -0.0450
  142MOL0     C19046  11.737   3.301   0.900  0.3538  0.0759 -0.4230
  142MOL0     C19047  11.840   3.277   1.015  0.4392 -0.3379  0.0443
  142MOL0     C19048  11.828   3.370   1.139  0.5056 -0.1008 -0.6066
  142MOL0     C19049  11.873   3.515   1.112  0.5420  0.2394  0.0206
  142MOL0     C19050  11.877   3.603   1.238  0.9873  0.1899 -0.2545
  142MOL0     C19051  12.013   3.589   1.309  0.3996  0.1367 -0.1787
  142MOL0     N19052  12.017   3.686   1.424 -0.2018 -0.5569  0.1722
  142MOL0     C19053  12.086   3.799   1.428  0.5522 -0.0094  0.3096
  142MOL0     C19054  12.101   3.832   1.561  0.1885 -0.2032  0.5705
  142MOL0     C19055  12.174   3.943   1.624 -0.2860  0.2516  0.6462
  142MOL0     C19056  12.214   4.067   1.538  0.3913 -0.0114 -1.0206
  142MOL0     C19057  12.089   4.151   1.494  0.0574 -0.3956 -0.1648
  142MOL0     C19058  12.122   4.295   1.448 -0.6048  0.3622 -0.1741
  142MOL0     O19059  12.213   4.283   1.346  0.0736 -1.0879  0.4407
  142MOL0     C19060  12.345   4.309   1.384  0.3488 -0.8114 -0.4324
  142MOL0     C19061  12.448   4.242   1.326 -0.7201 -0.6449 -0.7414
  142MOL0     C19062  12.583   4.282   1.330 -0.0678  0.5880 -0.5807
  142MOL0     C19063  12.671   4.183   1.259  0.6924 -0.3773  0.1865
  142MOL0     C19064  12.626   4.383   1.423 -1.1467  0.4236  1.7580
  142MOL0     C19065  12.774   4.421   1.440  0.0874 -0.9965 -0.8055
  142MOL0     O19066  12.865   4.325   1.414  0.1489 -0.5243  0.6670
  142MOL0     C19067  13.001   4.365   1.417  1.1837 -0.6138  0.0777
  142MOL0     C19068  13.091   4.285   1.489 -1.3491 -0.1865  0.1787
  142MOL0     C19069  13.229   4.312   1.494  0.0102  0.1315  0.5173
  142MOL0     C19070  13.277   4.422   1.432  0.6161 -1.0463  0.9891
  142MOL0     O19071  13.404   4.479   1.435  0.2479  0.6285 -0.4731
  142MOL0     C19072  13.512   4.396   1.467  0.1659  0.3597  0.1810
  142MOL0     C19073  13.630   4.490   1.479 -0.3367 -0.6321  0.1540
  142MOL0     C19074  13.755   4.417   1.531  0.2152 -0.1957 -0.1250
  142MOL0     C19075  13.878   4.495   1.530  0.5437 -0.1357 -1.0962
  142MOL0     C19076  13.997   4.392   1.526 -0.1047  0.1388  0.3900
  142MOL0     C19077  14.121   4.482   1.544 -0.4126 -0.2100 -0.4330
  142MOL0     C19078  14.205   4.432   1.660 -0.7167 -0.2845 -0.1935
  142MOL0     C19079  14.339   4.514   1.682  0.0240  0.4383  1.0084
  142MOL0    Cl19080  14.283   4.668   1.726  0.1489  0.1343 -0.0657
  142MOL0     C19081  13.187   4.503   1.357  0.0712 -0.3284  0.8259
  142MOL0     C19082  13.050   4.462   1.343 -0.3809  0.1459 -0.7671
  142MOL0     O19083  12.797   4.542   1.478  0.3619  0.6077  0.3834
  142MOL0     C19084  12.520   4.448   1.497 -0.2519 -0.0863 -0.0647
  142MOL0     C19085  12.384   4.418   1.460  0.4583 -0.0412  0.7878
  142MOL0     N19086  12.021   3.742   1.626 -0.3509 -0.1089  0.5423
  142MOL0     N19087  11.971   3.650   1.549 -0.0126 -0.1682 -0.3898
  142MOL0     C19088  11.371   3.251   0.549 -0.7968  0.2874 -0.2153
  142MOL0     C19089  11.283   3.222   0.435 -0.1353  0.2917  0.7694
  142MOL0     C19090  11.118   3.167   0.005 -0.3767 -0.2314  0.4562
  142MOL0     C19091  11.009   3.113   0.072  0.1269 -0.5717  0.2207
  142MOL0     C19092  10.886   3.085   0.005  0.1822 -0.3477  0.4005
  142MOL0     C19093  10.877   3.115  -0.138 -0.0052  0.0606 -1.0392
  142MOL0     O19094  10.770   3.093  -0.225 -0.5421  0.6433 -0.3473
  142MOL0     C19095  10.686   2.991  -0.175 -0.1375 -0.2177 -0.2774
  142MOL0     C19096  10.570   2.994  -0.270  0.4374 -0.3016  0.0954
  142MOL0     C19097  10.610   2.953  -0.413  1.4401 -0.0631 -0.5202
  142MOL0     C19098  10.489   2.894  -0.472 -0.1762  0.4432  0.4745
  142MOL0     C19099  10.525   2.840  -0.605  0.7416 -0.1071 -1.5031
  142MOL0     C19100  10.543   2.786  -0.712 -0.4768  0.9263 -0.6712
  142MOL0     C19101  10.989   3.177  -0.205 -0.3612 -0.2523  0.0769
  142MOL0     C19102  11.104   3.205  -0.131 -1.1681  0.7663 -0.6247
  142MOL0     H19103  11.493   3.277   0.184  0.2591 -0.1046  0.8187
  142MOL0     H19104  11.654   3.304   0.376 -1.1625  4.3905 -0.5397
  142MOL0     H19105  11.533   3.193   0.784  0.7058 -0.8141 -0.1420
  142MOL0     H19106  11.600   3.097   0.657 -0.3872  0.7313 -0.9454
  142MOL0     H19107  11.749   3.100   0.837 -1.2270  0.1281 -0.0308
  142MOL0     H19108  11.833   3.201   0.727 -0.7230 -1.7183 -1.1168
  142MOL0     H19109  11.751   3.397   0.848 -3.1817  1.0071  0.0446
  142MOL0     H19110  11.635   3.308   0.940  0.8082  1.5099  0.5512
  142MOL0     H19111  11.849   3.176   1.055 -1.0237 -2.0120 -3.4823
  142MOL0     H19112  11.933   3.299   0.961 -0.0925 -0.6907 -1.0468
  142MOL0     H19113  11.730   3.365   1.186 -0.3051 -2.6524 -2.3464
  142MOL0     H19114  11.904   3.338   1.211 -0.3902  2.6911  1.7471
  142MOL0     H19115  11.975   3.519   1.074  1.0266  1.5112  1.3940
  142MOL0     H19116  11.801   3.560   1.044 -1.1781 -0.2899  1.4106
  142MOL0     H19117  11.863   3.712   1.234  0.5459  0.1122 -3.5035
  142MOL0     H19118  11.791   3.575   1.299  0.0798  1.4905 -0.8813
  142MOL0     H19119  12.096   3.595   1.239 -1.5360  3.2195 -2.4621
  142MOL0     H19120  12.005   3.490   1.355  1.2364  0.7300  1.3407
  142MOL0     H19121  12.139   3.844   1.344  0.4570  0.7504  0.6495
  142MOL0     H19122  12.115   3.970   1.712  0.4767 -2.0797  1.9745
  142MOL0     H19123  12.272   3.908   1.656  0.3163  1.6013  0.3576
  142MOL0     H19124  12.263   4.034   1.446 -0.7572 -0.1026 -1.6177
  142MOL0     H19125  12.286   4.131   1.589 -0.8120 -0.1078  0.9064
  142MOL0     H19126  12.012   4.165   1.570 -1.0309 -1.2417 -1.0703
  142MOL0     H19127  12.037   4.105   1.409 -3.5311  1.9676  0.5325
  142MOL0     H19128  12.167   4.346   1.533  1.8476 -1.0231 -0.5335
  142MOL0     H19129  12.033   4.349   1.415 -0.0024  1.2952 -0.2815
  142MOL0     H19130  12.422   4.164   1.255 -1.7441 -1.0118  0.0146
  142MOL0     H19131  12.771   4.224   1.241 -0.9242  3.3489 -1.3096
  142MOL0     H19132  12.660   4.085   1.306 -3.9390 -0.8943 -1.4676
  142MOL0     H19133  12.639   4.154   1.158 -0.4018 -0.7765  0.6350
  142MOL0     H19134  13.047   4.198   1.536 -1.8149  1.5152  3.1595
  142MOL0     H19135  13.307   4.247   1.532 -0.5576 -0.7630  0.1741
  142MOL0     H19136  13.507   4.338   1.559  0.8116  0.6884  0.4285
  142MOL0     H19137  13.547   4.332   1.386  4.8112  3.8657 -0.9897
  142MOL0     H19138  13.673   4.540   1.391  1.5895  0.2454  1.5230
  142MOL0     H19139  13.609   4.567   1.553 -1.5455  0.7142 -1.5083
  142MOL0     H19140  13.766   4.325   1.474  1.5276 -1.5891  2.1991
  142MOL0     H19141  13.741   4.379   1.633  4.7366  0.6882  1.0742
  142MOL0     H19142  13.883   4.563   1.445 -0.2335 -0.2724 -1.2542
  142MOL0     H19143  13.877   4.557   1.620 -0.9722 -1.7459  0.0550
  142MOL0     H19144  13.993   4.342   1.428  0.0887 -0.9981  0.9510
  142MOL0     H19145  13.985   4.308   1.595 -1.5000 -0.7634 -0.8675
  142MOL0     H19146  14.170   4.483   1.446 -1.2930 -1.8551 -0.9349
  142MOL0     H19147  14.086   4.583   1.567 -3.2108 -0.8404 -1.4065
  142MOL0     H19148  14.214   4.328   1.627 -0.2062 -0.2406 -0.1958
  142MOL0     H19149  14.142   4.442   1.749 -3.3049 -0.8859 -1.8513
  142MOL0     H19150  14.404   4.528   1.594  0.3299  0.3624  1.2208
  142MOL0     H19151  14.396   4.461   1.759  0.8136 -1.6278 -0.8886
  142MOL0     H19152  13.204   4.599   1.309  0.2484 -0.6753  0.1879
  142MOL0     H19153  12.984   4.507   1.269  2.8383  1.1658 -3.2328
  142MOL0     H19154  12.539   4.535   1.559  1.6544 -0.0843 -0.5987
  142MOL0     H19155  12.307   4.486   1.495  0.4322  2.2109 -3.1064
  142MOL0     H19156  11.326   3.251   0.647 -1.1991 -2.3234 -0.3327
  142MOL0     H19157  11.180   3.202   0.463 -0.4309  0.3118 -0.2618
  142MOL0     H19158  11.006   3.093   0.179  1.6925  1.6484  0.7599
  142MOL0     H19159  10.799   3.044   0.056 -0.4162 -0.1379 -0.4372
  142MOL0     H19160  10.726   2.890  -0.182 -1.1606 -1.1469  4.1909
  142MOL0     H19161  10.660   3.009  -0.071  3.4031  1.4042  0.4836
  142MOL0     H19162  10.514   3.085  -0.245  0.2669  0.1415 -1.7558
  142MOL0     H19163  10.504   2.913  -0.237  2.5812 -1.2545  2.3999
  142MOL0     H19164  10.686   2.874  -0.405  1.0438 -0.4190 -0.2270
  142MOL0     H19165  10.656   3.039  -0.463 -0.9559  3.1330  2.3476
  142MOL0     H19166  10.409   2.968  -0.464 -0.1112  0.3754  2.2108
  142MOL0     H19167  10.459   2.808  -0.410 -0.0099  1.3359  1.8281
  142MOL0     H19168  10.568   2.742  -0.806  1.5609 -2.0187  1.0521
  142MOL0     H19169  10.985   3.183  -0.313  1.1978  0.8828  0.0387
  142MOL0     H19170  11.187   3.246  -0.187 -2.8196  1.4841 -2.6815
  143MOL0     O19171   9.962   3.592   6.191 -0.4849  0.2722  0.6918
  143MOL0     C19172   9.865   3.603   6.276  0.2683 -0.3537 -0.3678
  143MOL0     O19173   9.732   3.582   6.247 -0.1305 -0.3183  0.4023
  143MOL0     C19174   9.686   3.587   6.120 -0.1460 -0.3950  0.0561
  143MOL0     C19175   9.571   3.512   6.102 -0.2297 -1.2592 -0.4795
  143MOL0     C19176   9.520   3.486   5.978 -0.0774  0.8154  0.8566
  143MOL0     C19177   9.590   3.537   5.865  0.4083 -0.0389 -0.3026
  143MOL0     O19178   9.533   3.529   5.747  0.3812 -0.6417 -0.3083
  143MOL0     C19179   9.612   3.505   5.627 -0.7612  0.0492  0.2263
  143MOL0     C19180   9.536   3.413   5.531 -0.4079 -0.8615  0.1578
  143MOL0     C19181   9.408   3.486   5.489  0.9425  0.5596 -0.6770
  143MOL0     C19182   9.331   3.413   5.385  0.7966  0.2567  0.1484
  143MOL0     C19183   9.214   3.497   5.328  0.1731  0.5707  0.0404
  143MOL0     C19184   9.136   3.433   5.209 -0.3039  0.5082 -0.3336
  143MOL0     C19185   9.083   3.295   5.230  0.4330 -0.8428 -0.3473
  143MOL0     C19186   8.951   3.307   5.329  0.1701  0.2054  0.2772
  143MOL0     N19187   8.877   3.186   5.343  0.3198 -0.9282 -0.6298
  143MOL0     C19188   8.902   3.081   5.429 -0.1015  0.5041  0.2918
  143MOL0     C19189   8.820   2.982   5.399 -0.6771  1.0912 -0.7316
  143MOL0     C19190   8.815   2.847   5.472 -0.4364  0.3590  0.5981
  143MOL0     C19191   8.767   2.741   5.376  0.0107  0.2987 -0.5324
  143MOL0     C19192   8.738   2.615   5.457 -0.1928 -0.1085 -0.3797
  143MOL0     C19193   8.693   2.484   5.373 -0.1089 -0.2102  0.4321
  143MOL0     O19194   8.790   2.468   5.265 -0.8624  0.2400  0.5305
  143MOL0     C19195   8.852   2.348   5.265  0.4686  0.3205  0.0809
  143MOL0     C19196   8.946   2.306   5.366  0.6022  0.1455 -0.0134
  143MOL0     C19197   9.002   2.178   5.364  1.1467 -0.3080  0.2665
  143MOL0     C19198   9.072   2.141   5.493  1.0564  0.3895 -0.1930
  143MOL0     C19199   8.984   2.098   5.252  0.1980  0.0910  0.7172
  143MOL0     C19200   9.055   1.967   5.223  0.0838  0.2753 -0.3525
  143MOL0     O19201   9.030   1.915   5.104 -0.3342  0.1470  0.5599
  143MOL0     C19202   9.125   1.820   5.067  0.4104  0.2812  0.0310
  143MOL0     C19203   9.266   1.848   5.062  0.4868 -0.4896  0.0662
  143MOL0     C19204   9.340   1.742   5.007  0.3767 -0.1125  0.1062
  143MOL0     C19205   9.289   1.635   4.940  0.7550  0.8573 -0.1212
  143MOL0     O19206   9.383   1.560   4.878 -0.5971 -0.3159  0.1696
  143MOL0     C19207   9.346   1.435   4.800 -0.8044 -0.3318  0.7097
  143MOL0     C19208   9.464   1.342   4.757  0.1660 -0.1762 -0.6027
  143MOL0     C19209   9.431   1.211   4.690  0.2798 -0.2343  0.3236
  143MOL0     C19210   9.463   1.084   4.767 -0.5921  0.0324  0.2162
  143MOL0     C19211   9.461   0.959   4.680  0.1426 -0.8601 -0.6714
  143MOL0     C19212   9.316   0.916   4.654 -0.1452 -0.1808  0.2552
  143MOL0     C19213   9.311   0.778   4.589 -0.0742  0.3026  0.0095
  143MOL0     C19214   9.403   0.760   4.471 -1.1155  0.5597 -0.5861
  143MOL0    Cl19215   9.347   0.878   4.349  0.0026  0.7384 -0.0215
  143MOL0     C19216   9.155   1.611   4.946  0.3573  0.1640 -0.4713
  143MOL0     C19217   9.066   1.702   5.009 -0.1047  0.2817  0.5817
  143MOL0     O19218   9.130   1.914   5.305 -0.4714 -0.7123 -0.9070
  143MOL0     C19219   8.901   2.146   5.144  0.1600  0.7698  0.7615
  143MOL0     C19220   8.823   2.266   5.149 -0.7930  0.0052  0.6732
  143MOL0     N19221   8.747   3.024   5.296  0.3611  0.2356 -0.2180
  143MOL0     N19222   8.771   3.147   5.263 -0.7654  0.2285  0.2211
  143MOL0     C19223   9.711   3.600   5.885  0.6386 -0.4939  1.0968
  143MOL0     C19224   9.755   3.638   6.011  0.4696  0.1182 -0.3900
  143MOL0     C19225   9.903   3.606   6.420 -0.5475 -0.5077 -0.7002
  143MOL0     C19226  10.017   3.547   6.465 -0.5547  0.0423 -1.3988
  143MOL0     C19227  10.039   3.567   6.608 -0.5641 -0.1430  0.5019
  143MOL0     C19228   9.962   3.654   6.695  0.3365 -1.3085  1.3078
  143MOL0     O19229   9.997   3.657   6.825 -0.1263  0.6830  0.9310
  143MOL0     C19230   9.914   3.737   6.919 -0.4205 -1.1031 -0.1408
  143MOL0     C19231   9.975   3.734   7.063  0.3459 -0.6993 -0.0467
  143MOL0     C19232   9.989   3.589   7.121 -0.2752 -0.0194  0.7105
  143MOL0     C19233  10.026   3.597   7.267  0.2974  0.3509  0.7561
  143MOL0     C19234   9.912   3.655   7.336  0.1177  0.1662 -0.5221
  143MOL0     C19235   9.826   3.714   7.393  0.7115  0.3030  0.6270
  143MOL0     C19236   9.860   3.728   6.634 -0.2398 -0.8081 -0.1851
  143MOL0     C19237   9.833   3.702   6.496 -0.6606 -0.5138 -0.6321
  143MOL0     H19238   9.505   3.489   6.185 -1.3943  0.8648 -0.7626
  143MOL0     H19239   9.424   3.437   5.966 -0.3628  1.3143  1.0879
  143MOL0     H19240   9.627   3.601   5.576 -1.0514 -0.9089 -1.7748
  143MOL0     H19241   9.711   3.462   5.645  0.5137  1.3165 -2.9854
  143MOL0     H19242   9.617   3.396   5.460  0.6892  1.9841  0.6052
  143MOL0     H19243   9.508   3.323   5.586 -0.0048 -2.5764 -2.2649
  143MOL0     H19244   9.341   3.518   5.569 -0.9201  0.3434 -2.0870
  143MOL0     H19245   9.439   3.583   5.450  2.2418 -0.1519 -1.5114
  143MOL0     H19246   9.391   3.374   5.302  0.9446 -1.6455  1.0853
  143MOL0     H19247   9.289   3.321   5.427 -4.3754  1.5755 -1.4246
  143MOL0     H19248   9.145   3.506   5.412 -1.3086  0.0579 -1.0652
  143MOL0     H19249   9.258   3.594   5.304  2.8345  0.4150  3.5200
  143MOL0     H19250   9.052   3.493   5.174 -0.3375 -0.9632 -3.0512
  143MOL0     H19251   9.209   3.424   5.128 -0.6214 -0.3237 -0.5358
  143MOL0     H19252   9.046   3.244   5.141  2.0039 -3.1148  0.2099
  143MOL0     H19253   9.159   3.228   5.271  1.9159 -0.9815 -3.1025
  143MOL0     H19254   8.879   3.378   5.288  2.0777  1.3754 -1.2422
  143MOL0     H19255   8.984   3.349   5.424  1.3861  2.3754 -1.0299
  143MOL0     H19256   8.959   3.086   5.522 -1.2843 -0.4193  1.1025
  143MOL0     H19257   8.911   2.817   5.515  1.0466 -0.9179 -3.1512
  143MOL0     H19258   8.734   2.853   5.546 -0.5766 -0.1161  0.4883
  143MOL0     H19259   8.846   2.733   5.301  1.1686  3.9588  0.0979
  143MOL0     H19260   8.669   2.770   5.334 -0.3558 -0.1545 -0.0002
  143MOL0     H19261   8.655   2.624   5.527 -1.8625 -2.3928 -1.9317
  143MOL0     H19262   8.830   2.583   5.506 -0.1457  0.8060  0.1467
  143MOL0     H19263   8.597   2.502   5.324  1.4117  2.3268 -1.9025
  143MOL0     H19264   8.687   2.398   5.440  3.6298 -1.4562 -0.5621
  143MOL0     H19265   8.954   2.374   5.450 -2.8230 -0.5007  0.9724
  143MOL0     H19266   9.162   2.088   5.459 -0.3613 -0.1602 -3.5924
  143MOL0     H19267   9.094   2.223   5.562  1.4737 -0.7661  1.0964
  143MOL0     H19268   9.018   2.065   5.551 -0.7205  0.1997 -1.9549
  143MOL0     H19269   9.299   1.943   5.104 -1.5091  0.7459 -1.0170
  143MOL0     H19270   9.448   1.746   4.998  0.4152 -1.3802 -0.2648
  143MOL0     H19271   9.275   1.376   4.859  0.1744 -1.1542  1.0914
  143MOL0     H19272   9.289   1.468   4.713 -0.5436  1.3354  1.1351
  143MOL0     H19273   9.528   1.401   4.691  0.3822  1.3830  0.9361
  143MOL0     H19274   9.521   1.326   4.849 -1.5249 -1.9004  0.2322
  143MOL0     H19275   9.486   1.216   4.596  1.0969  0.9572  0.8461
  143MOL0     H19276   9.324   1.222   4.670  0.4751  2.3132  0.3777
  143MOL0     H19277   9.565   1.097   4.804  0.1105 -0.9761 -1.2604
  143MOL0     H19278   9.401   1.062   4.855 -1.1371 -0.6675 -0.3267
  143MOL0     H19279   9.514   0.884   4.740 -2.5758 -0.9025  1.9255
  143MOL0     H19280   9.516   0.992   4.592 -0.7383  1.9081 -0.2778
  143MOL0     H19281   9.261   0.905   4.748  1.3505  0.0656  1.1847
  143MOL0     H19282   9.253   0.986   4.597  0.4897  1.8525  1.8937
  143MOL0     H19283   9.212   0.747   4.556  0.2765  0.9446 -1.7903
  143MOL0     H19284   9.337   0.707   4.669  2.2878  0.1611 -0.7985
  143MOL0     H19285   9.406   0.653   4.448 -2.7701  0.1173  0.9496
  143MOL0     H19286   9.503   0.798   4.490 -0.4724 -1.4583  0.2942
  143MOL0     H19287   9.108   1.521   4.907 -0.7075  0.1069  0.8479
  143MOL0     H19288   8.959   1.687   5.010 -0.2029  0.8135 -0.8170
  143MOL0     H19289   8.880   2.081   5.060  1.9589 -0.5789  1.2892
  143MOL0     H19290   8.752   2.285   5.070  1.0385  0.8825 -0.8420
  143MOL0     H19291   9.762   3.642   5.800 -1.7454  1.7248  0.6226
  143MOL0     H19292   9.838   3.706   6.026 -1.1788  3.0394 -3.0911
  143MOL0     H19293  10.077   3.474   6.412  0.4938 -1.2496  1.4067
  143MOL0     H19294  10.122   3.514   6.656 -0.3105 -1.0928 -0.9239
  143MOL0     H19295   9.907   3.843   6.894  1.2815 -0.6540  1.1377
  143MOL0     H19296   9.814   3.694   6.910 -0.0149 -1.7289 -2.3028
  143MOL0     H19297   9.918   3.799   7.131 -0.1332 -1.4590  0.2887
  143MOL0     H19298  10.074   3.779   7.068  0.3910 -0.9370  2.2186
  143MOL0     H19299  10.061   3.528   7.065  0.7600  0.8658  1.0442
  143MOL0     H19300   9.895   3.537   7.102  0.0076 -0.0829 -0.6359
  143MOL0     H19301  10.121   3.648   7.283  0.7896 -0.1951 -0.3294
  143MOL0     H19302  10.046   3.495   7.303 -0.2906  0.0322  0.2244
  143MOL0     H19303   9.760   3.767   7.459 -3.1939 -0.1093 -2.5812
  143MOL0     H19304   9.796   3.787   6.698  0.2915  1.5392 -1.6957
  143MOL0     H19305   9.749   3.757   6.453 -2.2194 -0.5389  2.1337
  144MOL0     O19306   4.377   3.652  10.778 -0.0445 -0.3736  0.2457
  144MOL0     C19307   4.493   3.634  10.764 -0.1663 -0.0498 -0.0843
  144MOL0     O19308   4.587   3.726  10.800  0.6216 -0.2586  0.6864
  144MOL0     C19309   4.551   3.853  10.820 -0.5292 -0.1391 -0.0461
  144MOL0     C19310   4.466   3.931  10.741  0.2460 -0.3406  0.8213
  144MOL0     C19311   4.450   4.069  10.740 -0.4437 -0.1776  0.1248
  144MOL0     C19312   4.517   4.136  10.843 -0.5052 -0.0003 -0.0478
  144MOL0     O19313   4.512   4.267  10.859  0.7372 -0.0085 -0.1206
  144MOL0     C19314   4.376   4.308  10.886  0.1602  0.4929  0.1808
  144MOL0     C19315   4.379   4.441  10.968 -0.4364 -0.1363 -0.5601
  144MOL0     C19316   4.499   4.455  11.061 -0.1316 -0.6070 -0.1051
  144MOL0     C19317   4.485   4.586  11.118  0.2678 -0.1789 -0.2657
  144MOL0     C19318   4.606   4.636  11.198 -1.5484  0.4981  1.1667
  144MOL0     C19319   4.726   4.663  11.117 -0.3391  1.4929 -0.5650
  144MOL0     C19320   4.848   4.707  11.200 -0.5269 -0.0519 -0.9307
  144MOL0     C19321   4.902   4.591  11.287 -0.0424 -0.5830 -0.2173
  144MOL0     N19322   5.034   4.628  11.336  0.2193 -0.0503 -0.0648
  144MOL0     C19323   5.154   4.586  11.289  0.0803 -0.5217  0.2087
  144MOL0     C19324   5.243   4.665  11.361 -0.0378  1.2470  0.0511
  144MOL0     C19325   5.394   4.654  11.335 -0.4435  0.0123 -0.2249
  144MOL0     C19326   5.473   4.625  11.465 -0.2573 -0.4973  0.6256
  144MOL0     C19327   5.634   4.630  11.445 -0.6547 -0.5486 -0.1502
  144MOL0     C19328   5.710   4.541  11.541 -0.0330  0.3856 -0.6552
  144MOL0     O19329   5.697   4.595  11.676 -0.5676 -0.6656  0.0963
  144MOL0     C19330   5.808   4.591  11.751 -0.0068 -0.5054 -0.6522
  144MOL0     C19331   5.803   4.540  11.880 -0.2458 -0.8332  0.3073
  144MOL0     C19332   5.916   4.535  11.968 -0.7254  0.9865 -0.0297
  144MOL0     C19333   5.895   4.465  12.097  0.4465 -0.0970  0.1051
  144MOL0     C19334   6.040   4.591  11.923  0.3434 -0.0074  0.1191
  144MOL0     C19335   6.161   4.606  12.001 -1.6719 -0.7225 -0.5238
  144MOL0     O19336   6.272   4.667  11.932 -0.1493  0.7587  0.1855
  144MOL0     C19337   6.380   4.707  12.003 -0.5502  0.1237 -0.8723
  144MOL0     C19338   6.389   4.746  12.139  0.3744 -0.3331  0.1522
  144MOL0     C19339   6.506   4.788  12.198 -1.0604  0.6147 -0.4651
  144MOL0     C19340   6.617   4.817  12.114 -0.3404  0.3315  0.2984
  144MOL0     O19341   6.741   4.853  12.164  0.1987  0.6100  0.1979
  144MOL0     C19342   6.734   4.957  12.266  1.4397 -0.3369 -0.0111
  144MOL0     C19343   6.868   5.017  12.314 -0.3477 -0.2249  0.5546
  144MOL0     C19344   6.926   4.917  12.420 -0.0210  0.8036  0.9035
  144MOL0     C19345   7.041   4.950  12.502 -1.1679 -0.5953  0.3137
  144MOL0     C19346   7.062   4.860  12.624 -0.6182 -0.1643 -0.3491
  144MOL0     C19347   7.218   4.856  12.631  0.7080 -0.9217  0.4004
  144MOL0     C19348   7.284   4.991  12.679  0.0902 -0.0987  0.4484
  144MOL0     C19349   7.432   4.985  12.650 -0.4076  0.5114 -0.5956
  144MOL0    Cl19350   7.518   4.855  12.742  0.0589  0.4656  0.4215
  144MOL0     C19351   6.608   4.782  11.977 -0.2419 -0.0547  0.1112
  144MOL0     C19352   6.498   4.718  11.929 -0.3181 -0.7936 -0.0160
  144MOL0     O19353   6.174   4.553  12.106 -0.3789  0.1448 -0.2460
  144MOL0     C19354   6.032   4.650  11.799  0.0549  0.1279 -0.5641
  144MOL0     C19355   5.916   4.659  11.717  0.1991 -0.1471 -0.1275
  144MOL0     N19356   5.177   4.747  11.446  0.4789 -0.0414 -0.0698
  144MOL0     N19357   5.056   4.717  11.433  0.1191 -0.3368 -0.3746
  144MOL0     C19358   4.611   4.056  10.931  0.5454 -0.3216  1.5313
  144MOL0     C19359   4.623   3.915  10.922 -0.0961 -0.5881  0.3590
  144MOL0     C19360   4.533   3.504  10.699 -0.7073 -0.3375 -0.2450
  144MOL0     C19361   4.668   3.495  10.653  0.3696 -0.3803  0.3670
  144MOL0     C19362   4.712   3.372  10.600 -0.1775 -0.7552  0.8830
  144MOL0     C19363   4.627   3.264  10.583 -0.0095  0.3185 -1.0869
  144MOL0     O19364   4.661   3.152  10.525 -0.5900  0.2588 -1.4130
  144MOL0     C19365   4.795   3.099  10.550  0.3759  0.0617  0.5019
  144MOL0     C19366   4.852   3.113  10.695 -0.2442 -0.0578  1.0129
  144MOL0     C19367   4.765   3.055  10.811 -0.3584 -0.2830  0.8241
  144MOL0     C19368   4.708   2.921  10.781  0.7785  0.6042  0.0619
  144MOL0     C19369   4.812   2.824  10.748 -0.3439  0.5185  0.5261
  144MOL0     C19370   4.902   2.746  10.716 -1.2122 -0.4541 -0.3525
  144MOL0     C19371   4.502   3.275  10.642  0.7385  0.9278 -0.1222
  144MOL0     C19372   4.447   3.396  10.687  0.4288 -0.0513  0.2850
  144MOL0     H19373   4.416   3.886  10.656  2.9283  2.0147 -2.2900
  144MOL0     H19374   4.394   4.126  10.666 -1.5761 -2.1576 -0.6083
  144MOL0     H19375   4.337   4.333  10.788  1.3732  1.2061 -0.1407
  144MOL0     H19376   4.324   4.232  10.946  0.6524 -1.1532 -1.3776
  144MOL0     H19377   4.384   4.521  10.893  2.0781  2.0177  1.6609
  144MOL0     H19378   4.284   4.455  11.020 -1.0006 -1.8740 -1.0795
  144MOL0     H19379   4.514   4.380  11.139  2.5710 -1.3033 -1.2033
  144MOL0     H19380   4.589   4.455  10.999 -1.4081  3.0858 -2.2392
  144MOL0     H19381   4.483   4.665  11.042 -1.1684  1.2811  1.2032
  144MOL0     H19382   4.394   4.584  11.177  0.8672  1.0851  0.7520
  144MOL0     H19383   4.568   4.730  11.238 -1.5185  0.5827  0.9962
  144MOL0     H19384   4.633   4.568  11.280 -0.8228 -1.7038 -0.7803
  144MOL0     H19385   4.752   4.566  11.074 -0.7634 -0.7756  3.7435
  144MOL0     H19386   4.692   4.740  11.047 -4.2638  2.3883  2.0255
  144MOL0     H19387   4.917   4.739  11.121  0.4192 -0.5530 -0.3286
  144MOL0     H19388   4.819   4.785  11.270  1.9178  0.1577 -0.0732
  144MOL0     H19389   4.891   4.494  11.238 -0.5263 -1.4680  1.5375
  144MOL0     H19390   4.845   4.602  11.380  0.6183  1.7994 -0.0297
  144MOL0     H19391   5.192   4.516  11.215  1.2242 -1.2333  1.4065
  144MOL0     H19392   5.422   4.589  11.251 -1.7812  1.4552 -1.8643
  144MOL0     H19393   5.425   4.752  11.297 -0.8799  0.5354  0.7428
  144MOL0     H19394   5.439   4.524  11.492 -1.4272  0.2555  2.0841
  144MOL0     H19395   5.451   4.691  11.549 -0.5972  0.4250 -0.1773
  144MOL0     H19396   5.670   4.731  11.468  1.0766 -0.6125 -2.2227
  144MOL0     H19397   5.665   4.603  11.344 -1.4757 -1.5017 -0.1632
  144MOL0     H19398   5.814   4.526  11.509  0.7646 -1.3504  2.2757
  144MOL0     H19399   5.679   4.436  11.531  3.3439 -1.1395  2.4461
  144MOL0     H19400   5.718   4.484  11.918  1.5232 -3.9346  0.0215
  144MOL0     H19401   5.789   4.471  12.122  0.7103  2.6763  0.8251
  144MOL0     H19402   5.918   4.358  12.095 -2.0659 -0.7314 -2.4268
  144MOL0     H19403   5.950   4.521  12.173  2.9300 -2.9652  0.6346
  144MOL0     H19404   6.305   4.736  12.208  0.4228 -1.3979  0.0862
  144MOL0     H19405   6.503   4.777  12.306  0.0853 -5.9638 -0.6607
  144MOL0     H19406   6.665   5.037  12.239 -1.7139 -2.7531  0.2667
  144MOL0     H19407   6.685   4.920  12.357 -0.6320 -1.5124 -1.5227
  144MOL0     H19408   6.932   5.047  12.231  2.7032 -1.0069  2.4501
  144MOL0     H19409   6.851   5.108  12.372 -0.7711 -0.5542  0.9555
  144MOL0     H19410   6.958   4.840  12.349 -1.5248  1.8688 -1.0545
  144MOL0     H19411   6.848   4.881  12.488 -0.1821  1.5276  1.1119
  144MOL0     H19412   7.127   4.980  12.441 -1.8052  0.1366 -0.2601
  144MOL0     H19413   7.020   5.048  12.547 -2.9277 -0.8507  0.1295
  144MOL0     H19414   7.024   4.758  12.610 -0.1932 -0.8932  2.9072
  144MOL0     H19415   7.019   4.908  12.712  3.3453  0.0805  1.6880
  144MOL0     H19416   7.248   4.771  12.693  2.9123 -1.6930 -1.5647
  144MOL0     H19417   7.257   4.846  12.529 -2.7650  1.5852 -1.3733
  144MOL0     H19418   7.269   5.021  12.784 -0.2734  3.7689 -0.5483
  144MOL0     H19419   7.241   5.071  12.617  1.0910  0.7245  0.7843
  144MOL0     H19420   7.477   5.076  12.689 -0.5726  0.7262 -0.8994
  144MOL0     H19421   7.455   4.985  12.543  0.2061 -0.7448 -0.4764
  144MOL0     H19422   6.697   4.804  11.918  0.4875  0.3490  1.3134
  144MOL0     H19423   6.502   4.694  11.823  2.3405  2.2149 -0.7620
  144MOL0     H19424   6.123   4.692  11.759 -0.5435  0.5181 -1.5563
  144MOL0     H19425   5.924   4.713  11.623 -4.3042  0.0802 -0.6013
  144MOL0     H19426   4.673   4.105  11.006  1.5466  2.3291 -0.8709
  144MOL0     H19427   4.701   3.874  10.984 -0.1818 -0.3914  0.5973
  144MOL0     H19428   4.732   3.582  10.657 -0.3699  0.2631 -1.1354
  144MOL0     H19429   4.811   3.359  10.556 -0.6648  1.6605 -1.1494
  144MOL0     H19430   4.793   2.995  10.515  2.5856  0.2234 -0.2392
  144MOL0     H19431   4.869   3.143  10.483  1.3812 -1.5525  0.4880
  144MOL0     H19432   4.891   3.213  10.717 -0.2475 -0.6665  4.4308
  144MOL0     H19433   4.943   3.051  10.689  1.7015  2.7935 -2.6294
  144MOL0     H19434   4.682   3.119  10.841  0.1980  2.2833 -2.4808
  144MOL0     H19435   4.827   3.032  10.898 -0.5113 -1.7298  0.5708
  144MOL0     H19436   4.637   2.922  10.697  2.3974  0.5093 -1.3713
  144MOL0     H19437   4.653   2.897  10.872 -0.9073  2.1924 -0.4798
  144MOL0     H19438   4.984   2.684  10.688  0.8279  1.5253  0.8520
  144MOL0     H19439   4.443   3.187  10.617  0.5969  0.6367  1.1342
  144MOL0     H19440   4.342   3.405  10.710  0.0220  1.8349 -1.9473
  145MOL0     O19441   6.151   9.462   3.282  0.3837  0.1361  0.3950
  145MOL0     C19442   6.087   9.365   3.250  0.1775 -0.1923 -0.5190
  145MOL0     O19443   5.982   9.366   3.159  0.1237  0.1029 -0.3256
  145MOL0     C19444   5.963   9.494   3.108  0.0671 -0.8401 -0.6560
  145MOL0     C19445   6.034   9.539   2.992  0.2437  0.2995  0.3295
  145MOL0     C19446   6.034   9.675   2.953 -0.6685  0.6872 -0.9848
  145MOL0     C19447   5.944   9.758   3.024 -0.1539 -0.5170  1.0780
  145MOL0     O19448   5.929   9.890   2.989  0.5725 -0.4087  0.0658
  145MOL0     C19449   5.848   9.909   2.867  0.6265 -0.8898 -0.1328
  145MOL0     C19450   5.699   9.895   2.896  0.4511  0.5942  1.3120
  145MOL0     C19451   5.621   9.944   2.772 -0.0740  0.2438  0.2829
  145MOL0     C19452   5.470   9.930   2.791 -0.0886  0.3241  0.1754
  145MOL0     C19453   5.372   9.984   2.684  0.3963 -0.6260 -0.4170
  145MOL0     C19454   5.409   9.935   2.546 -0.4034  0.2561  0.3729
  145MOL0     C19455   5.304   9.984   2.438 -0.5115 -0.0611 -0.5077
  145MOL0     C19456   5.159   9.923   2.462  0.2932  0.3596  0.1260
  145MOL0     N19457   5.077   9.947   2.344 -0.3762 -0.7297  0.4260
  145MOL0     C19458   5.090  10.067   2.276 -0.2257  0.8240 -0.3188
  145MOL0     C19459   5.012  10.040   2.162  0.0792  0.0376  0.1079
  145MOL0     C19460   4.967  10.143   2.070 -0.2014  0.0656 -0.2945
  145MOL0     C19461   4.851  10.091   1.986 -0.1139  0.4939  0.2961
  145MOL0     C19462   4.787  10.192   1.891  0.5493 -1.2448 -0.4990
  145MOL0     C19463   4.865  10.221   1.753  0.1397  0.9048 -0.5334
  145MOL0     O19464   5.013  10.242   1.771 -0.6509  0.0127 -0.0551
  145MOL0     C19465   5.086  10.202   1.668  0.1743 -0.3016  0.2346
  145MOL0     C19466   5.142  10.291   1.580  0.6498 -0.5219  0.0251
  145MOL0     C19467   5.189  10.266   1.454 -1.0002 -0.2091 -0.7109
  145MOL0     C19468   5.233  10.386   1.364  0.4097  0.3038  0.5906
  145MOL0     C19469   5.185  10.132   1.413 -0.1123  0.3926  1.4582
  145MOL0     C19470   5.244  10.079   1.285  0.2336  0.1325 -0.7930
  145MOL0     O19471   5.209   9.954   1.239  1.4125  0.4178 -0.0139
  145MOL0     C19472   5.275   9.896   1.135  0.1391 -0.5783  0.0433
  145MOL0     C19473   5.379   9.816   1.155  0.9287  0.3246  0.0949
  145MOL0     C19474   5.449   9.762   1.039  0.5731  0.6898  0.3084
  145MOL0     C19475   5.401   9.792   0.910 -0.4731 -0.4946 -0.2767
  145MOL0     O19476   5.475   9.770   0.793  0.7962  0.2451  0.1233
  145MOL0     C19477   5.614   9.761   0.806 -0.1794  0.0176 -0.8078
  145MOL0     C19478   5.665   9.830   0.680  0.1589 -0.5706  0.7361
  145MOL0     C19479   5.818   9.806   0.668  0.0018 -0.0779  0.9850
  145MOL0     C19480   5.881   9.872   0.547  0.0492  0.0733  0.0925
  145MOL0     C19481   6.016   9.813   0.513 -0.3250  0.6529  0.0947
  145MOL0     C19482   6.033   9.665   0.537  0.2876  0.5836 -0.0666
  145MOL0     C19483   6.157   9.606   0.466  0.2543  0.2574  0.2130
  145MOL0     C19484   6.284   9.626   0.548 -0.6358  0.5229 -0.6077
  145MOL0    Cl19485   6.296   9.517   0.695  0.2141  0.2875  0.1820
  145MOL0     C19486   5.282   9.871   0.893 -0.5143  0.6918 -1.2215
  145MOL0     C19487   5.222   9.920   1.008  0.5592 -0.1045  1.0486
  145MOL0     O19488   5.326  10.141   1.232 -0.5340 -0.0755  0.5948
  145MOL0     C19489   5.137  10.031   1.502  0.2615 -0.3121  0.0868
  145MOL0     C19490   5.087  10.072   1.631  0.9168  0.7357  0.4317
  145MOL0     N19491   4.967   9.911   2.167 -0.8604 -0.3798 -0.8235
  145MOL0     N19492   5.002   9.864   2.288 -0.1773  0.2412 -0.2462
  145MOL0     C19493   5.876   9.719   3.139  0.4751  0.4718  0.2911
  145MOL0     C19494   5.875   9.582   3.177  0.7109  0.2108  0.2268
  145MOL0     C19495   6.132   9.228   3.303 -0.3724  0.0304  0.5292
  145MOL0     C19496   6.252   9.217   3.385 -0.4335 -0.4997  0.0154
  145MOL0     C19497   6.282   9.097   3.442  1.4563  0.3976  0.2398
  145MOL0     C19498   6.215   8.972   3.402 -0.0250 -0.7356 -0.3389
  145MOL0     O19499   6.254   8.842   3.435  0.3984 -0.8493 -0.2426
  145MOL0     C19500   6.394   8.810   3.462 -0.1719 -0.1508  0.2515
  145MOL0     C19501   6.412   8.668   3.519 -0.4830 -0.3804 -0.6480
  145MOL0     C19502   6.370   8.661   3.668  1.0142  0.3488 -0.6996
  145MOL0     C19503   6.344   8.524   3.730 -0.0744  0.0399  1.0116
  145MOL0     C19504   6.211   8.472   3.710  0.0834  0.4531 -0.1459
  145MOL0     C19505   6.109   8.411   3.664  0.0831 -0.3331  0.0130
  145MOL0     C19506   6.095   8.989   3.337  0.5343 -0.4781 -0.6855
  145MOL0     C19507   6.059   9.112   3.284 -0.6756 -0.7222  0.3702
  145MOL0     H19508   6.087   9.467   2.929  0.8767  1.0010  0.0446
  145MOL0     H19509   6.095   9.692   2.865  5.0580 -4.2494  1.3425
  145MOL0     H19510   5.865  10.011   2.830  0.3096 -0.0070  2.0315
  145MOL0     H19511   5.878   9.833   2.793  0.0114 -0.5553 -0.7413
  145MOL0     H19512   5.675   9.790   2.918  1.2894 -0.2755 -1.4761
  145MOL0     H19513   5.684   9.957   2.984 -1.2829 -2.9725  3.8051
  145MOL0     H19514   5.642  10.051   2.757  0.8087 -0.1761 -1.7604
  145MOL0     H19515   5.645   9.901   2.675 -1.6476 -0.2309  0.0723
  145MOL0     H19516   5.462   9.822   2.804  1.1261  0.2528  0.4280
  145MOL0     H19517   5.439   9.977   2.886 -0.3159 -1.4143  0.9915
  145MOL0     H19518   5.271   9.956   2.712 -1.0670  0.9383 -3.6292
  145MOL0     H19519   5.382  10.093   2.691  1.3227 -0.6051 -1.7468
  145MOL0     H19520   5.509   9.973   2.521  0.3775 -2.4180 -0.9288
  145MOL0     H19521   5.413   9.826   2.537  0.8542  0.3634 -0.6387
  145MOL0     H19522   5.306  10.092   2.450 -1.0810 -0.1629  0.7032
  145MOL0     H19523   5.333   9.945   2.340 -1.7277 -0.7412 -0.6138
  145MOL0     H19524   5.124   9.950   2.562  3.8921  2.1771  1.0599
  145MOL0     H19525   5.169   9.814   2.468 -0.4388  0.2619 -0.2415
  145MOL0     H19526   5.151  10.155   2.294 -0.3549  0.6531  1.1264
  145MOL0     H19527   4.946  10.237   2.122 -5.0125 -1.2560  0.6496
  145MOL0     H19528   5.054  10.160   2.007  0.3691 -1.4224  0.0544
  145MOL0     H19529   4.775  10.070   2.062 -0.6196  4.6123  1.1854
  145MOL0     H19530   4.876  10.001   1.928 -0.2824 -0.5576  1.7970
  145MOL0     H19531   4.796  10.285   1.949  1.0679  0.3262 -2.9444
  145MOL0     H19532   4.681  10.169   1.875  0.5110 -3.1518  1.9636
  145MOL0     H19533   4.816  10.313   1.720 -0.7967  0.2282 -1.0572
  145MOL0     H19534   4.831  10.148   1.679 -5.5971  2.0389  0.5083
  145MOL0     H19535   5.141  10.394   1.613 -0.9479 -0.7617  0.8316
  145MOL0     H19536   5.185  10.479   1.394 -0.3448 -0.2128  1.0287
  145MOL0     H19537   5.341  10.402   1.357  0.5577 -1.0588 -3.6471
  145MOL0     H19538   5.211  10.379   1.256  2.8596  0.2047  0.0498
  145MOL0     H19539   5.404   9.793   1.258 -2.5573  0.5725  1.1297
  145MOL0     H19540   5.537   9.698   1.041  0.3636  0.3589 -0.4693
  145MOL0     H19541   5.650   9.804   0.900  4.0838 -4.2305 -0.1277
  145MOL0     H19542   5.636   9.655   0.793  0.1497  0.3580 -3.5801
  145MOL0     H19543   5.622   9.782   0.591  1.5208 -0.5084  0.0282
  145MOL0     H19544   5.630   9.933   0.664  0.9759 -0.5653 -1.3196
  145MOL0     H19545   5.826   9.698   0.677 -2.5335 -0.2532  1.9867
  145MOL0     H19546   5.869   9.840   0.758  0.6209  1.5384  0.0720
  145MOL0     H19547   5.813   9.852   0.463 -2.3194  0.5941  1.7619
  145MOL0     H19548   5.885   9.981   0.563  0.3405  0.0680  0.0601
  145MOL0     H19549   6.097   9.854   0.574  0.1938 -0.0166 -0.1335
  145MOL0     H19550   6.042   9.839   0.410 -0.8487 -1.2156 -0.5466
  145MOL0     H19551   6.040   9.655   0.645 -3.5204 -0.3456  0.2472
  145MOL0     H19552   5.943   9.612   0.505  0.9699  0.0286 -1.1337
  145MOL0     H19553   6.172   9.658   0.371 -0.3056  2.6924  1.3824
  145MOL0     H19554   6.133   9.500   0.451  0.5716  0.1121  0.6910
  145MOL0     H19555   6.282   9.728   0.586  0.9789  1.0410 -1.7897
  145MOL0     H19556   6.378   9.612   0.494 -0.5181 -3.4619  0.3196
  145MOL0     H19557   5.250   9.895   0.792 -3.1265  5.5285  0.3945
  145MOL0     H19558   5.126   9.970   1.002 -2.2040 -4.9214 -0.9280
  145MOL0     H19559   5.146   9.928   1.468  3.5682  0.5128 -1.9332
  145MOL0     H19560   5.056  10.000   1.705  0.1632  1.7642  1.1369
  145MOL0     H19561   5.812   9.784   3.197 -0.1010 -0.0023  0.1907
  145MOL0     H19562   5.836   9.559   3.276  0.8329  2.4304  0.8640
  145MOL0     H19563   6.316   9.299   3.416 -0.7624 -0.1989 -0.0864
  145MOL0     H19564   6.368   9.105   3.509 -0.0678  0.1993  2.3113
  145MOL0     H19565   6.433   8.813   3.360 -2.6091  2.1256 -0.7397
  145MOL0     H19566   6.446   8.890   3.515 -0.0510 -0.1575  0.1410
  145MOL0     H19567   6.517   8.638   3.515 -0.2873  0.1582  0.3401
  145MOL0     H19568   6.350   8.596   3.463 -1.8230 -0.5778  0.9882
  145MOL0     H19569   6.280   8.721   3.687 -0.5487 -2.1033  0.0866
  145MOL0     H19570   6.442   8.716   3.730  1.0402 -0.6816  0.2119
  145MOL0     H19571   6.358   8.532   3.838  2.2402  0.2687  0.7406
  145MOL0     H19572   6.414   8.451   3.687 -0.2094  0.1148  0.6577
  145MOL0     H19573   6.039   8.351   3.611 -0.8980 -0.0056  0.9133
  145MOL0     H19574   6.034   8.899   3.332  1.2201 -1.0289  0.4491
  145MOL0     H19575   5.962   9.120   3.236  0.0031 -0.7262 -1.0738
  146MOL0     O19576   7.024   9.595  11.227  0.6442  0.0652 -0.1349
  146MOL0     C19577   7.000   9.663  11.125 -0.7739  0.2903  1.4190
  146MOL0     O19578   7.058   9.636  11.000 -0.8667 -0.2981  0.0342
  146MOL0     C19579   7.147   9.527  10.984 -0.2769  0.0321 -0.4218
  146MOL0     C19580   7.108   9.396  11.008  0.3283  0.4052 -0.3394
  146MOL0     C19581   7.200   9.285  10.991  0.4030 -0.3419  0.1273
  146MOL0     C19582   7.334   9.314  10.952  0.8363  0.9886 -0.8085
  146MOL0     O19583   7.433   9.222  10.938 -0.0718 -0.1460 -0.4874
  146MOL0     C19584   7.429   9.146  10.816 -0.6205 -0.4867  0.2448
  146MOL0     C19585   7.465   9.234  10.699  0.8036 -0.9904 -0.1247
  146MOL0     C19586   7.414   9.170  10.575 -0.9005 -0.6704  0.8656
  146MOL0     C19587   7.463   9.229  10.442  0.0036  0.6231  0.9278
  146MOL0     C19588   7.419   9.140  10.323 -0.5276  0.7240 -0.3782
  146MOL0     C19589   7.502   9.165  10.187  0.1122  0.0466  0.0505
  146MOL0     C19590   7.466   9.289  10.116  0.2158  0.5592 -0.5567
  146MOL0     C19591   7.529   9.303   9.976 -0.3988 -0.4220 -0.2496
  146MOL0     N19592   7.537   9.440   9.925 -0.0451  0.8769  0.5209
  146MOL0     C19593   7.424   9.515   9.899 -0.2128 -0.1091  0.2219
  146MOL0     C19594   7.471   9.630   9.864 -0.2797  0.5501 -0.3918
  146MOL0     C19595   7.392   9.735   9.798 -0.0575  0.6786  0.2650
  146MOL0     C19596   7.340   9.835   9.902 -0.0189 -0.7713 -0.3183
  146MOL0     C19597   7.447   9.932   9.959  0.9200 -0.7714 -0.6520
  146MOL0     C19598   7.393  10.006  10.082 -1.2997 -0.3883 -0.2116
  146MOL0     O19599   7.453  10.132  10.094  0.0771 -0.7675 -0.4660
  146MOL0     C19600   7.407  10.225  10.180  0.8087  0.3218 -1.2019
  146MOL0     C19601   7.274  10.215  10.240 -1.0943  0.0965  0.3017
  146MOL0     C19602   7.232  10.313  10.335 -0.5516  0.8099  0.0596
  146MOL0     C19603   7.093  10.313  10.389  0.6691 -0.2109  0.1358
  146MOL0     C19604   7.313  10.428  10.350  0.7928 -0.7795 -0.9495
  146MOL0     C19605   7.267  10.562  10.409  0.6378  0.6058  0.2877
  146MOL0     O19606   7.365  10.653  10.433 -0.3579 -0.2859 -0.7445
  146MOL0     C19607   7.354  10.791  10.468 -0.3975  0.6264  0.2990
  146MOL0     C19608   7.261  10.868  10.410  0.2726 -0.6007 -0.1235
  146MOL0     C19609   7.255  11.008  10.439 -0.4352 -0.7266 -0.6881
  146MOL0     C19610   7.344  11.066  10.528  0.6317  0.1967  0.1849
  146MOL0     O19611   7.340  11.197  10.571  0.2979  0.4503 -0.9998
  146MOL0     C19612   7.275  11.294  10.498  0.1701 -0.5626  0.7526
  146MOL0     C19613   7.332  11.431  10.527 -0.4350 -0.0993  0.1461
  146MOL0     C19614   7.351  11.454  10.678 -0.0205 -0.3264 -0.0296
  146MOL0     C19615   7.390  11.605  10.706  0.0351 -0.3686  0.2427
  146MOL0     C19616   7.382  11.641  10.855 -0.0129 -0.2577 -1.0471
  146MOL0     C19617   7.250  11.650  10.923  1.7216 -0.2349 -2.1102
  146MOL0     C19618   7.285  11.698  11.071  0.5417  0.8343  1.0139
  146MOL0     C19619   7.166  11.706  11.156  0.5104  0.5763 -0.2060
  146MOL0    Cl19620   7.199  11.779  11.318 -0.0899  0.5077  0.1855
  146MOL0     C19621   7.435  10.986  10.592 -0.9828  0.5152  0.3839
  146MOL0     C19622   7.448  10.843  10.563 -0.2798 -0.3914 -0.4368
  146MOL0     O19623   7.144  10.582  10.433  0.1851  0.1711 -0.4091
  146MOL0     C19624   7.443  10.435  10.297  1.1958 -0.3138  0.2937
  146MOL0     C19625   7.488  10.328  10.218 -0.1413  0.3008 -1.6299
  146MOL0     N19626   7.608   9.623   9.885 -0.1219  0.3511  0.6104
  146MOL0     N19627   7.649   9.517   9.927  0.3817  0.1069 -0.0397
  146MOL0     C19628   7.368   9.452  10.925 -0.4876  0.0189 -1.3295
  146MOL0     C19629   7.271   9.556  10.939 -0.5319  0.5592 -0.7991
  146MOL0     C19630   6.909   9.775  11.128 -0.8061  0.8582  0.1783
  146MOL0     C19631   6.874   9.852  11.011  1.0784  0.0658  0.0031
  146MOL0     C19632   6.803   9.962  11.025  0.4858 -0.6437 -1.1813
  146MOL0     C19633   6.765  10.008  11.156  1.5332 -0.8292 -0.8333
  146MOL0     O19634   6.680  10.117  11.184  0.2366 -0.6979 -0.2562
  146MOL0     C19635   6.673  10.219  11.088  0.0933  0.2594 -0.0569
  146MOL0     C19636   6.642  10.352  11.159  0.0161  0.3275  0.0896
  146MOL0     C19637   6.584  10.442  11.057  0.6906 -0.3041 -0.8584
  146MOL0     C19638   6.485  10.534  11.124 -0.2734  0.0491 -0.4195
  146MOL0     C19639   6.530  10.608  11.247 -0.0546 -0.3217  0.6474
  146MOL0     C19640   6.547  10.682  11.347  0.5259 -0.2556  0.4871
  146MOL0     C19641   6.805   9.940  11.266 -0.5570 -0.5179 -0.5276
  146MOL0     C19642   6.878   9.828  11.255  0.9748 -0.0157  0.4828
  146MOL0     H19643   7.015   9.355  11.045  0.2199  0.3785 -0.6387
  146MOL0     H19644   7.168   9.185  11.017  2.1598 -0.5706  1.6603
  146MOL0     H19645   7.498   9.065  10.836  0.8843  1.1820  2.2714
  146MOL0     H19646   7.333   9.093  10.808  0.0887 -1.7803  0.1054
  146MOL0     H19647   7.424   9.335  10.706  2.1490 -0.2126 -2.5127
  146MOL0     H19648   7.573   9.249  10.693  0.7799  0.5110  2.1285
  146MOL0     H19649   7.452   9.068  10.581  0.3840 -0.2508  0.3271
  146MOL0     H19650   7.305   9.168  10.572 -0.9360  0.8267 -0.4623
  146MOL0     H19651   7.441   9.336  10.436  4.5052  1.6936 -0.0632
  146MOL0     H19652   7.572   9.228  10.449  0.0893  1.7842  0.1546
  146MOL0     H19653   7.437   9.033  10.340 -1.9988  0.1515 -2.1791
  146MOL0     H19654   7.314   9.161  10.301 -0.3226  2.8464  0.4323
  146MOL0     H19655   7.607   9.147  10.212  0.8690  0.6745 -2.4089
  146MOL0     H19656   7.489   9.086  10.113  2.1916  1.0555 -1.4577
  146MOL0     H19657   7.363   9.255  10.104 -0.1869  0.7500  1.9401
  146MOL0     H19658   7.485   9.382  10.171  0.4440  1.6354 -2.3688
  146MOL0     H19659   7.471   9.240   9.907 -0.6939 -0.1527 -0.2468
  146MOL0     H19660   7.632   9.266   9.974 -0.2986 -0.1703 -2.4541
  146MOL0     H19661   7.322   9.480   9.888 -0.3113 -0.3976  1.8233
  146MOL0     H19662   7.460   9.773   9.720  4.9946  0.3847  4.0009
  146MOL0     H19663   7.299   9.699   9.754  0.2255 -0.8125  0.8319
  146MOL0     H19664   7.297   9.770   9.978  0.0028 -1.1456 -0.6225
  146MOL0     H19665   7.263   9.903   9.863 -0.9692 -0.3711  2.1025
  146MOL0     H19666   7.455  10.003   9.877 -1.3510  1.1845  0.6854
  146MOL0     H19667   7.540   9.890   9.997  1.3593  1.3661  0.7907
  146MOL0     H19668   7.431   9.962  10.175 -0.8974 -1.1573 -0.7287
  146MOL0     H19669   7.284  10.016  10.080 -1.7984 -2.2814  4.4111
  146MOL0     H19670   7.208  10.132  10.216  0.6482 -1.4104  0.4326
  146MOL0     H19671   7.040  10.217  10.382  0.6315 -0.4731  2.9167
  146MOL0     H19672   7.109  10.330  10.496 -2.4594 -0.7793  0.7775
  146MOL0     H19673   7.022  10.387  10.351 -0.9107 -2.5401 -1.8043
  146MOL0     H19674   7.184  10.825  10.347 -3.1641  3.7789  0.6494
  146MOL0     H19675   7.161  11.058  10.419 -0.4983  0.0751  1.4087
  146MOL0     H19676   7.274  11.284  10.389 -5.2642 -2.0660  0.6193
  146MOL0     H19677   7.168  11.298  10.522  0.0162 -0.0211  0.0304
  146MOL0     H19678   7.431  11.434  10.480 -1.6502  2.7706 -2.5816
  146MOL0     H19679   7.268  11.508  10.483  1.7743  2.6266  1.4111
  146MOL0     H19680   7.433  11.391  10.714 -1.4069 -3.8409 -2.4630
  146MOL0     H19681   7.258  11.439  10.734 -0.6626 -1.7779 -1.3908
  146MOL0     H19682   7.485  11.632  10.658 -2.0974  2.2165 -3.0112
  146MOL0     H19683   7.326  11.671  10.646 -1.4329 -1.3491  0.6779
  146MOL0     H19684   7.435  11.736  10.864 -3.1595  1.5280  0.4797
  146MOL0     H19685   7.442  11.561  10.897 -0.9799 -1.5806 -2.0900
  146MOL0     H19686   7.165  11.707  10.883 -1.5937 -1.7756  1.9307
  146MOL0     H19687   7.212  11.548  10.935  0.3485  0.5374  1.2416
  146MOL0     H19688   7.324  11.798  11.050  0.8822  0.7844  1.3863
  146MOL0     H19689   7.356  11.637  11.127  0.5763 -0.0777 -0.0036
  146MOL0     H19690   7.119  11.607  11.166  2.3415 -0.2210  1.0900
  146MOL0     H19691   7.085  11.757  11.103 -0.6848 -0.8108  0.2077
  146MOL0     H19692   7.504  11.034  10.661  0.7202  0.9665 -1.5153
  146MOL0     H19693   7.517  10.779  10.617 -1.7769 -1.5755  0.1478
  146MOL0     H19694   7.516  10.515  10.310  1.9040 -1.0822  1.2458
  146MOL0     H19695   7.581  10.343  10.165  0.7778 -1.4629 -0.6030
  146MOL0     H19696   7.466   9.466  10.880 -0.9527 -2.4237 -3.3306
  146MOL0     H19697   7.291   9.663  10.935 -1.3906  0.7439 -0.5030
  146MOL0     H19698   6.905   9.807  10.917  0.1852  0.9972 -0.7551
  146MOL0     H19699   6.775  10.017  10.935 -0.8436 -0.4762 -0.6874
  146MOL0     H19700   6.765  10.233  11.030  1.2537 -0.1930  1.6367
  146MOL0     H19701   6.585  10.189  11.031 -0.5630 -0.7643  1.4472
  146MOL0     H19702   6.727  10.401  11.208 -0.9819  0.7440  1.4351
  146MOL0     H19703   6.563  10.328  11.230  1.0971  2.9057  2.3409
  146MOL0     H19704   6.535  10.385  10.977 -3.3077  1.3745  0.2018
  146MOL0     H19705   6.663  10.502  11.010  0.1584  2.4525  1.5042
  146MOL0     H19706   6.380  10.502  11.127 -0.2096 -0.6697 -3.1888
  146MOL0     H19707   6.482  10.617  11.053  0.8837  0.0545 -0.4774
  146MOL0     H19708   6.566  10.734  11.438  1.6671 -1.6032  1.0728
  146MOL0     H19709   6.774   9.982  11.362 -4.4609 -5.6137  0.8967
  146MOL0     H19710   6.903   9.783  11.351 -2.7387 -1.0917  1.1152
  147MOL0     O19711   1.579   8.703   8.485  0.0679 -0.6062  1.1016
  147MOL0     C19712   1.491   8.652   8.418 -0.8171  0.1494  0.0363
  147MOL0     O19713   1.357   8.622   8.461 -0.0408  0.1555 -1.0010
  147MOL0     C19714   1.301   8.642   8.584 -0.8385 -0.1015 -0.1084
  147MOL0     C19715   1.369   8.701   8.688  0.6470 -0.4059  0.5102
  147MOL0     C19716   1.302   8.707   8.816 -0.5161  0.5886  0.7473
  147MOL0     C19717   1.163   8.666   8.830 -0.4339  0.0630  0.5125
  147MOL0     O19718   1.087   8.682   8.940  0.4926 -0.2526 -0.6433
  147MOL0     C19719   1.164   8.725   9.061  0.7581 -0.4514  0.0847
  147MOL0     C19720   1.054   8.795   9.147  0.2635  0.6981 -1.0330
  147MOL0     C19721   0.991   8.925   9.088  0.3203  0.1023  0.6033
  147MOL0     C19722   0.866   8.907   8.999 -0.7890  0.5845  0.1572
  147MOL0     C19723   0.810   9.040   8.974 -1.0607  0.2925  0.4277
  147MOL0     C19724   0.685   9.033   8.889  0.2501 -0.3507 -0.2135
  147MOL0     C19725   0.644   9.175   8.849  0.3469 -0.3021  0.4121
  147MOL0     C19726   0.507   9.172   8.778 -0.9130  0.5411 -0.3935
  147MOL0     N19727   0.438   9.295   8.797  0.2766 -0.2419 -0.1846
  147MOL0     C19728   0.475   9.421   8.773 -0.2668  0.5812  0.1056
  147MOL0     C19729   0.388   9.500   8.839  0.2243  0.4685 -0.4533
  147MOL0     C19730   0.381   9.642   8.848  1.2521 -0.0732  0.8961
  147MOL0     C19731   0.460   9.693   8.970 -0.8110 -0.1898  0.2227
  147MOL0     C19732   0.472   9.840   8.965  0.3475 -0.0593  0.0959
  147MOL0     C19733   0.356   9.910   9.045  0.4015  0.0493 -0.4272
  147MOL0     O19734   0.361  10.052   9.039 -0.2041  0.7613 -0.0876
  147MOL0     C19735   0.258  10.113   9.099  0.3785 -0.8877 -0.6797
  147MOL0     C19736   0.146  10.052   9.165  0.6983 -0.0984  0.0092
  147MOL0     C19737   0.054  10.129   9.234  0.8725 -0.4606  0.0148
  147MOL0     C19738  -0.066  10.060   9.293 -0.0807  0.1613  0.5008
  147MOL0     C19739   0.078  10.268   9.240 -0.2802  0.1062 -0.0873
  147MOL0     C19740  -0.007  10.361   9.318  0.2329  0.5712  0.4042
  147MOL0     O19741  -0.015  10.495   9.278  0.4763 -0.3204 -0.1156
  147MOL0     C19742  -0.088  10.582   9.348  0.7012 -1.2304 -0.9675
  147MOL0     C19743  -0.035  10.696   9.415 -0.7113  1.0334 -0.9116
  147MOL0     C19744  -0.121  10.785   9.486 -0.6238 -0.7251  0.2181
  147MOL0     C19745  -0.259  10.771   9.486 -0.4997 -0.5664 -0.6386
  147MOL0     O19746  -0.345  10.852   9.563 -0.6735  0.6803  0.0859
  147MOL0     C19747  -0.304  10.989   9.593  0.6220 -0.1106  0.9924
  147MOL0     C19748  -0.417  11.046   9.683 -0.8975 -0.1676  0.4821
  147MOL0     C19749  -0.553  11.051   9.612  0.8036  0.5190  0.2714
  147MOL0     C19750  -0.545  11.090   9.466 -0.1597 -0.5730  0.7137
  147MOL0     C19751  -0.678  11.149   9.423  0.0404 -0.1827 -0.3526
  147MOL0     C19752  -0.675  11.214   9.289  0.6294 -0.2062  0.0858
  147MOL0     C19753  -0.817  11.235   9.238  0.2124  0.2672  0.0799
  147MOL0     C19754  -0.811  11.333   9.112  0.0637  0.0954  0.2234
  147MOL0    Cl19755  -0.720  11.257   8.999  0.0660  0.4958 -0.3662
  147MOL0     C19756  -0.320  10.679   9.397  0.5218  0.1125  0.0815
  147MOL0     C19757  -0.236  10.582   9.336 -0.8425  0.2995 -0.0041
  147MOL0     O19758  -0.050  10.311   9.422  0.6146 -0.7165 -0.0972
  147MOL0     C19759   0.196  10.329   9.188  0.4313  0.3493 -0.0253
  147MOL0     C19760   0.283  10.250   9.112  0.5300 -0.5437 -0.6670
  147MOL0     N19761   0.283   9.419   8.883  0.7693  0.5056  0.7764
  147MOL0     N19762   0.317   9.297   8.867  0.5463  0.9077  0.1527
  147MOL0     C19763   1.099   8.618   8.722 -0.4322 -0.0353  0.6388
  147MOL0     C19764   1.174   8.598   8.603 -0.0992 -0.6279 -0.0700
  147MOL0     C19765   1.528   8.623   8.271  0.2659 -0.8172  0.1963
  147MOL0     C19766   1.434   8.581   8.186  0.4429  0.2119  0.0437
  147MOL0     C19767   1.447   8.560   8.048 -0.5742 -0.0416  0.7323
  147MOL0     C19768   1.572   8.577   8.000 -1.0807  0.5014 -0.7506
  147MOL0     O19769   1.602   8.555   7.870 -0.2083 -0.3713  0.2681
  147MOL0     C19770   1.720   8.471   7.855 -0.1854 -0.3257  0.1322
  147MOL0     C19771   1.745   8.444   7.703 -0.3736 -1.3661 -0.2960
  147MOL0     C19772   1.873   8.365   7.668  0.2071  0.3469  0.1591
  147MOL0     C19773   1.852   8.221   7.632  0.2235  0.1010  0.3595
  147MOL0     C19774   1.794   8.147   7.736 -0.0652  0.3231 -0.0430
  147MOL0     C19775   1.756   8.094   7.842 -0.7177  0.0985  0.1707
  147MOL0     C19776   1.674   8.616   8.092  0.2960  0.6957  0.4968
  147MOL0     C19777   1.657   8.642   8.223  0.2483 -0.4316 -0.4287
  147MOL0     H19778   1.470   8.740   8.683  0.6676 -0.5937 -0.8930
  147MOL0     H19779   1.369   8.733   8.897 -0.1645 -0.2634  0.7394
  147MOL0     H19780   1.200   8.630   9.101 -2.8883 -2.4426 -0.9220
  147MOL0     H19781   1.234   8.810   9.057 -3.0058  3.2620  3.1692
  147MOL0     H19782   0.975   8.720   9.158 -2.5092  3.1662 -2.7897
  147MOL0     H19783   1.094   8.831   9.242 -2.4714 -0.8782  0.8465
  147MOL0     H19784   0.970   8.994   9.170  0.7682  0.7478  0.1797
  147MOL0     H19785   1.072   8.975   9.032 -1.4720 -1.4980 -3.9132
  147MOL0     H19786   0.909   8.856   8.912  2.4390  0.4192  1.7044
  147MOL0     H19787   0.789   8.843   9.043 -0.9931 -0.1525 -1.2115
  147MOL0     H19788   0.800   9.096   9.068 -0.2748  0.7382  0.2537
  147MOL0     H19789   0.879   9.103   8.918 -0.3314 -1.7086 -1.0344
  147MOL0     H19790   0.695   8.980   8.794 -0.6880 -0.3552 -0.3247
  147MOL0     H19791   0.603   8.992   8.950  1.1022  1.6363  2.4805
  147MOL0     H19792   0.648   9.242   8.936  1.4142  3.6899 -2.4325
  147MOL0     H19793   0.718   9.216   8.780  0.5366  1.8332  1.7740
  147MOL0     H19794   0.451   9.085   8.813  0.0723 -0.1009 -0.3610
  147MOL0     H19795   0.522   9.157   8.670 -0.3478 -1.3810 -0.0862
  147MOL0     H19796   0.561   9.461   8.720  2.8607 -2.3931  2.4838
  147MOL0     H19797   0.420   9.681   8.754 -2.7310  1.6244 -0.2384
  147MOL0     H19798   0.275   9.669   8.850  1.3728  0.4010  1.9072
  147MOL0     H19799   0.558   9.650   8.947 -0.9198  0.8987 -2.6579
  147MOL0     H19800   0.417   9.657   9.064 -1.8617  0.7424  0.1220
  147MOL0     H19801   0.465   9.874   8.862  0.6715 -0.8399 -0.1876
  147MOL0     H19802   0.564   9.865   9.018 -0.7314  2.7685  0.8120
  147MOL0     H19803   0.363   9.875   9.148  0.5958  1.3227  0.0072
  147MOL0     H19804   0.265   9.872   8.998  0.1215  3.4570 -2.9978
  147MOL0     H19805   0.140   9.944   9.164  1.2149 -0.1368  0.5478
  147MOL0     H19806  -0.156  10.121   9.307 -1.8269 -1.6450 -1.9174
  147MOL0     H19807  -0.091   9.967   9.239  1.7756 -1.0192  1.5657
  147MOL0     H19808  -0.030  10.032   9.392  1.0297 -3.2403 -0.6979
  147MOL0     H19809   0.071  10.716   9.406  0.6537 -3.6017  1.5836
  147MOL0     H19810  -0.066  10.871   9.523 -0.3054 -1.7315  2.1732
  147MOL0     H19811  -0.207  10.974   9.641  0.3103 -2.7765  0.9380
  147MOL0     H19812  -0.290  11.044   9.499 -0.7167 -1.0101  0.2264
  147MOL0     H19813  -0.427  10.978   9.768 -2.9652 -0.7981 -0.2169
  147MOL0     H19814  -0.394  11.136   9.741 -0.2468 -2.0427  3.3486
  147MOL0     H19815  -0.612  11.124   9.667  2.3926  2.0166  0.0814
  147MOL0     H19816  -0.598  10.951   9.613 -0.7907  1.1874 -0.8721
  147MOL0     H19817  -0.458  11.157   9.462 -0.5873  0.1586  2.5775
  147MOL0     H19818  -0.528  11.009   9.394 -1.4762  0.2207 -0.5327
  147MOL0     H19819  -0.709  11.227   9.494  0.1308 -1.0927  0.7270
  147MOL0     H19820  -0.756  11.072   9.421 -1.4322  1.2549 -0.6739
  147MOL0     H19821  -0.630  11.313   9.299  1.0728 -0.2342 -1.3457
  147MOL0     H19822  -0.618  11.163   9.211 -0.9662  0.4266 -1.5671
  147MOL0     H19823  -0.876  11.279   9.319 -1.7782  1.0677 -1.6982
  147MOL0     H19824  -0.864  11.142   9.203 -2.0539  1.5279 -0.4326
  147MOL0     H19825  -0.778  11.435   9.132  1.0616 -0.6479  2.7853
  147MOL0     H19826  -0.916  11.339   9.081 -0.0905 -0.1725  0.6785
  147MOL0     H19827  -0.428  10.676   9.386  0.5562 -0.8107 -0.0165
  147MOL0     H19828  -0.272  10.502   9.273 -0.8595 -0.3947  0.8680
  147MOL0     H19829   0.212  10.435   9.204 -3.9406  1.8502 -3.5499
  147MOL0     H19830   0.366  10.293   9.057 -0.6524 -1.2575 -3.1541
  147MOL0     H19831   1.000   8.577   8.733 -1.8567  2.2822 -2.0843
  147MOL0     H19832   1.134   8.536   8.523 -0.2272 -1.4249  0.5988
  147MOL0     H19833   1.335   8.557   8.225  0.8182  1.0654  1.5916
  147MOL0     H19834   1.370   8.535   7.977  0.5354 -0.0693 -0.5050
  147MOL0     H19835   1.798   8.533   7.898 -0.9029 -0.3192  1.4766
  147MOL0     H19836   1.703   8.381   7.914 -1.1004 -2.1050 -2.6208
  147MOL0     H19837   1.759   8.539   7.650  0.0269 -2.1659 -1.6723
  147MOL0     H19838   1.663   8.398   7.647  2.5502 -1.9813 -4.6035
  147MOL0     H19839   1.937   8.372   7.757 -1.0874  3.2359  0.9639
  147MOL0     H19840   1.927   8.413   7.586 -0.1879  0.4220 -0.0570
  147MOL0     H19841   1.949   8.187   7.593  1.0221  1.5474  0.9766
  147MOL0     H19842   1.780   8.218   7.550 -1.8463  0.4216  2.0861
  147MOL0     H19843   1.713   8.033   7.919 -1.8862  0.0994 -0.4664
  147MOL0     H19844   1.773   8.638   8.054 -1.8081  4.2215 -3.8748
  147MOL0     H19845   1.742   8.683   8.277 -0.1566  1.4752 -1.1343
  148MOL0     O19846   1.751   7.155   5.620 -0.0816 -0.2038 -0.0185
  148MOL0     C19847   1.808   7.045   5.587 -1.0014 -0.1958  0.5268
  148MOL0     O19848   1.781   6.918   5.626 -0.3489 -0.9749  0.7537
  148MOL0     C19849   1.680   6.892   5.718 -0.0736 -0.0309  0.9240
  148MOL0     C19850   1.589   6.786   5.698 -0.3683  0.0341  0.0332
  148MOL0     C19851   1.484   6.763   5.787 -0.1250 -0.1126 -0.2906
  148MOL0     C19852   1.462   6.836   5.904 -0.8422  0.9960 -0.3494
  148MOL0     O19853   1.373   6.801   6.000 -0.7640  0.5998 -0.9754
  148MOL0     C19854   1.409   6.822   6.140  0.2834  0.9144  0.4797
  148MOL0     C19855   1.288   6.775   6.235  0.1342 -0.4787 -0.6701
  148MOL0     C19856   1.166   6.863   6.219  0.4398 -0.1169  0.1750
  148MOL0     C19857   1.052   6.839   6.316 -0.0588  0.9113 -0.0469
  148MOL0     C19858   1.065   6.918   6.441 -0.0323 -0.2172 -0.0272
  148MOL0     C19859   0.928   6.938   6.504 -0.1118  0.7180  0.0656
  148MOL0     C19860   0.943   7.011   6.629 -0.4310 -0.0947  0.8499
  148MOL0     C19861   0.949   7.165   6.630  0.3600  0.0693  0.5001
  148MOL0     N19862   0.995   7.203   6.762  0.6524  1.0093 -0.2500
  148MOL0     C19863   0.915   7.242   6.863 -1.6057 -0.0138  0.0836
  148MOL0     C19864   0.994   7.295   6.960 -0.1606 -0.6618 -0.1904
  148MOL0     C19865   0.968   7.376   7.087 -0.7302 -0.3249 -0.7335
  148MOL0     C19866   0.829   7.354   7.159 -0.7536  0.2191  0.4617
  148MOL0     C19867   0.808   7.447   7.281  0.6651  0.0918  1.2698
  148MOL0     C19868   0.675   7.447   7.358 -0.1373 -0.1971 -0.3877
  148MOL0     O19869   0.680   7.544   7.459  0.7430  0.0615  1.1932
  148MOL0     C19870   0.579   7.549   7.553  0.3549 -0.0184 -0.8822
  148MOL0     C19871   0.457   7.474   7.546 -0.6041  0.5054  0.4602
  148MOL0     C19872   0.365   7.474   7.651 -0.8670  1.0765 -0.3527
  148MOL0     C19873   0.245   7.388   7.626  0.3643  0.1786  0.0621
  148MOL0     C19874   0.390   7.562   7.759  0.5221 -0.1113 -0.1910
  148MOL0     C19875   0.299   7.575   7.882  0.1262  0.1419  0.2005
  148MOL0     O19876   0.330   7.678   7.964 -0.0183  1.0429 -0.4954
  148MOL0     C19877   0.238   7.710   8.064  0.4083  0.2201  1.2325
  148MOL0     C19878   0.112   7.761   8.030  0.5652  0.8881  0.0651
  148MOL0     C19879   0.023   7.823   8.117  1.0205  0.1513 -0.0616
  148MOL0     C19880   0.061   7.820   8.252  0.6076  0.4715 -0.9127
  148MOL0     O19881   0.001   7.896   8.350 -0.1873  0.1388  0.0559
  148MOL0     C19882  -0.114   7.835   8.417  0.2057 -0.3353  0.7031
  148MOL0     C19883  -0.220   7.944   8.436  0.5164 -1.1302 -0.9008
  148MOL0     C19884  -0.263   7.994   8.302  0.4995  0.2913 -0.3530
  148MOL0     C19885  -0.403   8.063   8.316  0.0241  0.6594 -1.0662
  148MOL0     C19886  -0.400   8.171   8.427 -0.7901  0.0393 -0.3600
  148MOL0     C19887  -0.454   8.300   8.376 -0.5131 -0.4407  0.6250
  148MOL0     C19888  -0.433   8.418   8.466  0.0196  0.3229 -0.6641
  148MOL0     C19889  -0.349   8.534   8.421 -0.0894 -0.7487 -0.0273
  148MOL0    Cl19890  -0.176   8.490   8.436 -0.4492 -0.1742  0.1057
  148MOL0     C19891   0.192   7.758   8.289  0.6185 -0.0418 -0.3233
  148MOL0     C19892   0.275   7.695   8.198 -0.7585 -0.3966  0.4734
  148MOL0     O19893   0.198   7.503   7.890 -0.0442  0.7263 -0.5716
  148MOL0     C19894   0.502   7.639   7.765 -0.6264 -0.6513  0.4009
  148MOL0     C19895   0.593   7.647   7.650  0.7842  0.1371 -0.1502
  148MOL0     N19896   1.127   7.282   6.918  0.3421 -0.1794 -0.0768
  148MOL0     N19897   1.123   7.224   6.800 -0.0569  0.6007  0.3452
  148MOL0     C19898   1.559   6.941   5.928 -0.6664 -0.4514  0.3287
  148MOL0     C19899   1.661   6.969   5.833 -0.5896  0.8237  0.1883
  148MOL0     C19900   1.938   7.044   5.514  0.0131  1.1896 -0.0112
  148MOL0     C19901   1.995   6.921   5.467  0.4807 -0.0486  0.3693
  148MOL0     C19902   2.122   6.908   5.399 -0.1061 -0.0931  0.1216
  148MOL0     C19903   2.205   7.024   5.387 -0.2662  0.0961 -0.8267
  148MOL0     O19904   2.335   7.003   5.356  0.5201 -0.0541  0.4292
  148MOL0     C19905   2.408   7.124   5.324  0.0912 -0.2640 -0.1808
  148MOL0     C19906   2.513   7.070   5.230 -0.2319  0.1281 -0.3165
  148MOL0     C19907   2.610   6.980   5.319  0.3092 -0.1452  0.6162
  148MOL0     C19908   2.742   6.978   5.255 -1.0126  0.3929  0.1533
  148MOL0     C19909   2.812   6.851   5.294  0.5484 -0.4742 -0.1502
  148MOL0     C19910   2.873   6.748   5.312  0.1989  0.3936 -0.0034
  148MOL0     C19911   2.141   7.146   5.437  0.0620  0.2767 -0.0134
  148MOL0     C19912   2.014   7.151   5.486  0.8162  0.7946  0.3466
  148MOL0     H19913   1.591   6.726   5.608 -2.1934 -1.6660  1.0439
  148MOL0     H19914   1.413   6.688   5.756 -0.9440 -0.1551  1.5799
  148MOL0     H19915   1.507   6.775   6.155 -0.2047  0.8700  4.6459
  148MOL0     H19916   1.422   6.928   6.164  0.2557  0.2463  4.0266
  148MOL0     H19917   1.270   6.675   6.196 -0.7750  0.7559 -3.7331
  148MOL0     H19918   1.322   6.760   6.337  1.8981 -1.7802 -1.3925
  148MOL0     H19919   1.206   6.965   6.221  1.5517 -0.4760 -1.4590
  148MOL0     H19920   1.129   6.838   6.119  1.6392 -4.2009  0.5620
  148MOL0     H19921   0.960   6.868   6.263  1.7012  3.1002 -2.1664
  148MOL0     H19922   1.054   6.733   6.343 -0.0896  1.2171  1.1916
  148MOL0     H19923   1.139   6.865   6.502  0.9518 -0.4185 -1.3417
  148MOL0     H19924   1.111   7.014   6.419  0.1541  0.0353  1.3779
  148MOL0     H19925   0.854   6.979   6.434  0.4646  0.6416 -0.5942
  148MOL0     H19926   0.884   6.842   6.531  0.1840 -0.7212 -3.9894
  148MOL0     H19927   0.869   6.979   6.703 -0.1809 -2.5775  0.1354
  148MOL0     H19928   1.037   6.981   6.675  0.5330 -1.4254 -1.7584
  148MOL0     H19929   0.858   7.212   6.590  0.9048  0.0305 -0.8251
  148MOL0     H19930   1.024   7.185   6.552  1.7435  0.0953  1.7950
  148MOL0     H19931   0.808   7.238   6.874 -1.3849 -0.3561  3.2529
  148MOL0     H19932   1.047   7.362   7.161 -0.0098  4.2854 -0.3036
  148MOL0     H19933   0.975   7.481   7.057 -2.4090  0.1569  0.4085
  148MOL0     H19934   0.829   7.247   7.181  1.8573 -0.5993 -2.8024
  148MOL0     H19935   0.752   7.369   7.082  1.7995  1.2727 -2.0833
  148MOL0     H19936   0.834   7.547   7.245 -0.7205  0.0018 -0.0708
  148MOL0     H19937   0.889   7.423   7.351  2.4329 -1.4076 -1.1444
  148MOL0     H19938   0.659   7.348   7.402 -1.4898  0.2276  0.1577
  148MOL0     H19939   0.587   7.466   7.296 -1.7869 -2.1870  1.1941
  148MOL0     H19940   0.443   7.410   7.460  4.6641 -0.1899 -0.2149
  148MOL0     H19941   0.239   7.368   7.518  1.6510 -0.2174  0.0441
  148MOL0     H19942   0.245   7.301   7.691  1.0639 -1.6400 -2.2222
  148MOL0     H19943   0.150   7.437   7.647 -0.0667  0.2753 -1.9331
  148MOL0     H19944   0.099   7.754   7.923  0.3621  1.5554  0.0387
  148MOL0     H19945  -0.073   7.866   8.089  0.7298 -0.0933  0.5322
  148MOL0     H19946  -0.151   7.747   8.365 -2.9452  0.7974  0.7695
  148MOL0     H19947  -0.090   7.803   8.519  0.2600  0.5276  0.9701
  148MOL0     H19948  -0.308   7.897   8.481 -0.3648 -1.0514 -2.4619
  148MOL0     H19949  -0.187   8.026   8.500 -1.0875 -0.7661 -0.4842
  148MOL0     H19950  -0.272   7.911   8.231  0.3300  0.0231 -0.0226
  148MOL0     H19951  -0.196   8.073   8.268  0.7664  0.0452 -0.4086
  148MOL0     H19952  -0.412   8.100   8.214 -0.0778  1.3485 -0.8139
  148MOL0     H19953  -0.483   7.991   8.333  0.9121 -0.2137 -0.5364
  148MOL0     H19954  -0.294   8.197   8.441 -0.9451  0.0790  0.9325
  148MOL0     H19955  -0.450   8.138   8.519  0.6813 -1.9507 -0.1913
  148MOL0     H19956  -0.400   8.334   8.286 -0.0657  0.1441  1.1094
  148MOL0     H19957  -0.559   8.280   8.355 -0.3668  1.2286 -2.3693
  148MOL0     H19958  -0.382   8.382   8.556 -1.4940 -2.1371 -0.7188
  148MOL0     H19959  -0.531   8.450   8.502 -1.2926 -2.7360 -1.2103
  148MOL0     H19960  -0.363   8.614   8.494 -2.6173 -0.2915 -0.9023
  148MOL0     H19961  -0.374   8.567   8.320 -1.1002  3.0273  1.3065
  148MOL0     H19962   0.223   7.763   8.393 -0.3157  1.3996 -0.0925
  148MOL0     H19963   0.361   7.637   8.230 -0.5398  0.2664  1.1096
  148MOL0     H19964   0.533   7.702   7.848 -0.0470 -1.4073  0.7669
  148MOL0     H19965   0.660   7.731   7.658 -1.8929  2.2614  2.7046
  148MOL0     H19966   1.551   7.014   6.007  0.7379 -1.6318  1.6127
  148MOL0     H19967   1.744   7.037   5.850  0.6414 -0.4943 -0.3404
  148MOL0     H19968   1.948   6.824   5.480  0.5257  0.3879  6.4466
  148MOL0     H19969   2.164   6.812   5.370  0.6473 -0.1093  1.2284
  148MOL0     H19970   2.347   7.198   5.272  0.4883  0.6868  0.6754
  148MOL0     H19971   2.457   7.158   5.416  3.5256 -3.7654 -0.4839
  148MOL0     H19972   2.569   7.158   5.195  0.3784  0.0162  0.3443
  148MOL0     H19973   2.460   7.021   5.149 -0.0476  0.1122 -0.4272
  148MOL0     H19974   2.572   6.878   5.333 -4.6424  1.5878  2.1883
  148MOL0     H19975   2.615   7.016   5.422 -0.1298 -1.6534  1.1962
  148MOL0     H19976   2.794   7.072   5.274 -3.2924  1.8861 -0.5770
  148MOL0     H19977   2.728   6.983   5.147 -0.7718 -0.0609  0.0997
  148MOL0     H19978   2.942   6.666   5.313  0.4315  0.5218 -1.7855
  148MOL0     H19979   2.193   7.242   5.439 -0.7285  0.7350 -0.5372
  148MOL0     H19980   1.978   7.249   5.514  3.3852  1.7005  0.6857
  149MOL0     O19981   8.422   0.585   0.391  0.7055  0.2600 -0.1208
  149MOL0     C19982   8.545   0.613   0.374 -0.0377  1.4123 -0.5147
  149MOL0     O19983   8.652   0.593   0.461  0.4024 -0.2762  0.4817
  149MOL0     C19984   8.634   0.559   0.594 -0.5259 -0.5326 -0.1653
  149MOL0     C19985   8.732   0.473   0.652  1.2193  1.3982 -0.0954
  149MOL0     C19986   8.707   0.429   0.785 -0.2748  1.0129  0.3421
  149MOL0     C19987   8.592   0.465   0.863  0.4885  0.1982 -0.4754
  149MOL0     O19988   8.563   0.424   0.994 -0.1334 -0.2935  0.1960
  149MOL0     C19989   8.659   0.352   1.066 -0.6098  0.5740 -0.0144
  149MOL0     C19990   8.641   0.382   1.223  0.0495 -0.1337  0.0974
  149MOL0     C19991   8.776   0.339   1.289  0.3279 -0.3043 -0.3970
  149MOL0     C19992   8.798   0.391   1.431 -0.1993 -0.3221  0.3667
  149MOL0     C19993   8.948   0.383   1.462  0.1634  0.0520 -0.3052
  149MOL0     C19994   8.984   0.446   1.604  0.0904 -0.6626  0.6330
  149MOL0     C19995   8.910   0.385   1.724  0.0330 -1.2505  0.0649
  149MOL0     C19996   8.960   0.457   1.853 -0.1915  0.0470 -0.9950
  149MOL0     N19997   8.877   0.420   1.972 -0.8191 -0.5468  1.1496
  149MOL0     C19998   8.918   0.449   2.108 -0.1792  0.5900 -0.8361
  149MOL0     C19999   8.806   0.433   2.171 -0.5157 -0.2174 -0.1396
  149MOL0     C20000   8.805   0.452   2.321  0.1772  0.0342 -0.0573
  149MOL0     C20001   8.674   0.520   2.370 -1.2292 -0.6242 -0.9151
  149MOL0     C20002   8.661   0.663   2.306 -0.0225  0.5678  0.1550
  149MOL0     C20003   8.558   0.736   2.385  0.2685 -0.1493 -0.2263
  149MOL0     O20004   8.550   0.878   2.348  0.5952 -0.1045  0.1962
  149MOL0     C20005   8.420   0.929   2.319  0.7077  0.7343  0.3409
  149MOL0     C20006   8.317   0.927   2.406  1.1922 -0.2628 -0.0639
  149MOL0     C20007   8.194   0.988   2.384  0.0515  0.0127 -0.1166
  149MOL0     C20008   8.101   1.006   2.498  0.2027  0.3439  1.2463
  149MOL0     C20009   8.156   1.030   2.256 -0.0897 -0.7397 -0.9450
  149MOL0     C20010   8.019   1.080   2.216 -0.4959 -0.7173  0.3336
  149MOL0     O20011   7.912   1.003   2.260 -0.3585 -0.8926 -0.6957
  149MOL0     C20012   7.790   1.035   2.196 -0.9976 -1.1353  0.4454
  149MOL0     C20013   7.754   0.982   2.070 -0.4682  0.2355  0.3853
  149MOL0     C20014   7.628   1.024   2.019 -0.1915  0.3469  0.0094
  149MOL0     C20015   7.533   1.107   2.081 -0.2845  0.0629 -0.4828
  149MOL0     O20016   7.409   1.126   2.024  0.1189 -0.2387  0.0653
  149MOL0     C20017   7.290   1.077   2.093 -1.0546  0.8361 -0.2462
  149MOL0     C20018   7.162   1.108   2.011  0.2817 -0.4985 -0.2875
  149MOL0     C20019   7.048   1.012   2.034 -0.2068  0.2343 -0.3225
  149MOL0     C20020   6.980   0.988   1.888  0.4099 -0.0553 -0.8679
  149MOL0     C20021   7.035   0.863   1.821 -0.0550  0.2856  0.6284
  149MOL0     C20022   7.014   0.727   1.885  0.1516 -0.4296 -0.3029
  149MOL0     C20023   7.057   0.626   1.781  0.0443 -0.1466  0.1534
  149MOL0     C20024   7.046   0.482   1.825 -0.1061  0.1422  0.0801
  149MOL0    Cl20025   6.871   0.440   1.804 -0.5767  0.1425  0.6421
  149MOL0     C20026   7.565   1.139   2.211  0.0061 -0.6110  0.8071
  149MOL0     C20027   7.687   1.107   2.265 -0.5255  0.2692 -1.3193
  149MOL0     O20028   8.008   1.174   2.136  0.0583 -0.7011 -0.1312
  149MOL0     C20029   8.263   1.042   2.164 -0.7816 -0.0242 -0.8621
  149MOL0     C20030   8.388   0.979   2.189 -0.0842 -0.0704 -0.0641
  149MOL0     N20031   8.702   0.393   2.094 -0.3915  0.1206  0.5117
  149MOL0     N20032   8.743   0.375   1.975  0.3330 -0.0906  0.3576
  149MOL0     C20033   8.503   0.547   0.799  0.4079  0.1831 -0.6017
  149MOL0     C20034   8.521   0.597   0.668 -0.3917 -1.0533 -0.1759
  149MOL0     C20035   8.585   0.643   0.230  0.3731  0.0358  0.1025
  149MOL0     C20036   8.717   0.625   0.186  0.2463  0.2085 -0.0378
  149MOL0     C20037   8.757   0.663   0.056 -0.1392 -0.7179 -0.0113
  149MOL0     C20038   8.667   0.715  -0.034  0.1764  0.0980 -0.1171
  149MOL0     O20039   8.695   0.738  -0.169  1.0730 -0.4069 -0.1864
  149MOL0     C20040   8.827   0.716  -0.221 -0.2503  0.0376  1.0577
  149MOL0     C20041   8.833   0.745  -0.369 -0.2280  0.5511 -0.5770
  149MOL0     C20042   8.713   0.695  -0.450 -0.2695  0.5620 -0.0814
  149MOL0     C20043   8.701   0.774  -0.584  0.0742 -0.9319 -0.6650
  149MOL0     C20044   8.785   0.716  -0.694  0.7105  0.2175  0.1208
  149MOL0     C20045   8.859   0.684  -0.778  0.1334 -0.4905  0.2131
  149MOL0     C20046   8.534   0.732   0.006  0.6784  0.3119 -0.4985
  149MOL0     C20047   8.494   0.697   0.140 -1.2866  0.7461 -0.0536
  149MOL0     H20048   8.821   0.431   0.607 -0.1856  1.2698 -3.0099
  149MOL0     H20049   8.780   0.356   0.817  0.0071  0.1774 -2.0345
  149MOL0     H20050   8.639   0.246   1.049 -4.0069  0.8586  1.3873
  149MOL0     H20051   8.761   0.378   1.034  0.0874  3.2461  3.6531
  149MOL0     H20052   8.618   0.484   1.256 -3.9047 -1.5767  2.5219
  149MOL0     H20053   8.569   0.311   1.265  3.3099 -2.9621  1.3958
  149MOL0     H20054   8.787   0.230   1.286 -2.2887 -0.7390  1.5528
  149MOL0     H20055   8.852   0.395   1.234  0.2087  1.9401  1.5998
  149MOL0     H20056   8.783   0.497   1.413  3.3499 -0.1348 -2.8599
  149MOL0     H20057   8.725   0.354   1.504 -1.1309 -2.9169 -1.7177
  149MOL0     H20058   8.989   0.282   1.449 -1.1294 -0.8313  1.9268
  149MOL0     H20059   8.997   0.450   1.391 -2.3130  2.7860  0.3654
  149MOL0     H20060   9.090   0.426   1.617  0.2523 -1.7733 -1.8040
  149MOL0     H20061   8.984   0.555   1.597 -0.5921 -0.6381  0.9643
  149MOL0     H20062   8.803   0.396   1.704  0.2835 -1.3949 -1.5088
  149MOL0     H20063   8.935   0.279   1.736 -3.1550 -2.1466 -0.1090
  149MOL0     H20064   8.943   0.565   1.846 -1.3886  0.3639  3.7113
  149MOL0     H20065   9.065   0.431   1.869 -0.4923 -0.4198  0.3447
  149MOL0     H20066   9.016   0.479   2.145  1.4779 -1.9220 -2.7348
  149MOL0     H20067   8.810   0.351   2.362  1.2372  0.3629  0.6607
  149MOL0     H20068   8.891   0.513   2.349  0.6496  0.2887 -1.9246
  149MOL0     H20069   8.672   0.532   2.479  1.7692 -3.2714 -0.4126
  149MOL0     H20070   8.594   0.452   2.340 -1.1531 -0.0392 -2.5473
  149MOL0     H20071   8.631   0.651   2.202 -1.1540  0.7403  0.4496
  149MOL0     H20072   8.756   0.718   2.313  0.0111  0.4460  0.7437
  149MOL0     H20073   8.593   0.740   2.489 -0.0040 -0.7823 -0.1009
  149MOL0     H20074   8.462   0.684   2.377  1.3092 -2.0683 -1.1102
  149MOL0     H20075   8.338   0.898   2.508  1.1708  3.9083  1.3370
  149MOL0     H20076   8.048   0.914   2.527 -2.1851  0.6930 -1.6151
  149MOL0     H20077   8.147   1.048   2.588 -0.7362 -0.7548  2.2861
  149MOL0     H20078   8.027   1.082   2.473 -1.3318 -1.1306  1.1127
  149MOL0     H20079   7.806   0.908   2.010 -2.4020 -2.9418  2.3688
  149MOL0     H20080   7.603   0.988   1.920  0.6783 -1.9724  0.5547
  149MOL0     H20081   7.313   0.971   2.109  3.8664  1.9713  2.0819
  149MOL0     H20082   7.272   1.127   2.188 -0.6934 -0.1225  0.3460
  149MOL0     H20083   7.125   1.205   2.045  0.5421  0.1580 -1.8446
  149MOL0     H20084   7.192   1.116   1.907  3.1774  2.2491  0.6146
  149MOL0     H20085   6.979   1.068   2.098  0.7924  1.2490 -0.0875
  149MOL0     H20086   7.082   0.923   2.088 -2.3469  0.4241  1.4660
  149MOL0     H20087   6.875   0.962   1.904  0.7950  0.1753  2.7329
  149MOL0     H20088   6.984   1.082   1.833  0.1979  0.6968  0.3667
  149MOL0     H20089   7.143   0.880   1.817  0.1274 -0.3514  2.1425
  149MOL0     H20090   6.988   0.865   1.722  2.1440 -0.5864 -0.4829
  149MOL0     H20091   7.083   0.715   1.969  0.2702  2.4525  0.1118
  149MOL0     H20092   6.911   0.710   1.918  0.7140 -0.9547  1.2650
  149MOL0     H20093   7.164   0.639   1.761  0.2983 -0.9455  0.9244
  149MOL0     H20094   7.000   0.637   1.688  1.2245  1.1701 -0.4415
  149MOL0     H20095   7.068   0.480   1.932 -5.4401  1.0605  1.4954
  149MOL0     H20096   7.111   0.415   1.768 -0.6899  2.5472 -3.8218
  149MOL0     H20097   7.483   1.186   2.264  0.3321  1.1772 -0.2062
  149MOL0     H20098   7.683   1.131   2.371 -2.6530  2.8592 -1.8800
  149MOL0     H20099   8.243   1.090   2.069 -1.9312  0.5993 -0.3328
  149MOL0     H20100   8.463   0.986   2.111 -1.2408  0.4032 -1.1612
  149MOL0     H20101   8.416   0.572   0.859  0.1176  1.5676 -1.5516
  149MOL0     H20102   8.450   0.664   0.622 -0.8607 -1.9151 -0.7424
  149MOL0     H20103   8.788   0.571   0.249 -1.1184 -0.3463  1.0861
  149MOL0     H20104   8.860   0.663   0.020  0.1620  3.6629  0.2960
  149MOL0     H20105   8.902   0.780  -0.175  0.3038 -0.2643  0.5865
  149MOL0     H20106   8.867   0.616  -0.199  1.4916  0.3280 -0.5419
  149MOL0     H20107   8.923   0.705  -0.418 -1.6327  1.2659 -4.0194
  149MOL0     H20108   8.847   0.852  -0.382  0.0708  0.1986 -4.1829
  149MOL0     H20109   8.619   0.711  -0.395 -0.3251 -0.2359  0.0641
  149MOL0     H20110   8.738   0.591  -0.472  0.4805  0.7977 -0.3598
  149MOL0     H20111   8.717   0.881  -0.566 -1.7784 -1.0562  2.3087
  149MOL0     H20112   8.595   0.773  -0.610 -0.5673  0.3173  1.6137
  149MOL0     H20113   8.916   0.671  -0.867  0.9751  0.5811  0.5848
  149MOL0     H20114   8.453   0.768  -0.056  0.9019  1.0716 -0.3580
  149MOL0     H20115   8.391   0.720   0.166 -2.1234 -1.5564 -1.0352
  150MOL0     O20116   6.605   1.139   2.319  0.4926  0.7976 -0.3490
  150MOL0     C20117   6.700   1.064   2.325 -0.3613 -0.0650  0.6179
  150MOL0     O20118   6.690   0.932   2.302  0.5043 -1.2700  0.0647
  150MOL0     C20119   6.571   0.882   2.278 -0.0500 -0.6382  0.7452
  150MOL0     C20120   6.533   0.882   2.143 -0.5729  0.1594  0.2449
  150MOL0     C20121   6.422   0.814   2.107 -0.3526  0.4538  0.4296
  150MOL0     C20122   6.342   0.747   2.201 -0.7716 -0.0277  1.1503
  150MOL0     O20123   6.217   0.710   2.157  1.2605  0.2067 -0.0650
  150MOL0     C20124   6.148   0.611   2.233  0.1997  0.4197  0.4182
  150MOL0     C20125   6.069   0.517   2.157 -0.4192  0.3911  0.4964
  150MOL0     C20126   5.930   0.563   2.114 -0.0565 -0.5504  0.1141
  150MOL0     C20127   5.863   0.455   2.028 -0.0978  0.9443 -0.1894
  150MOL0     C20128   5.726   0.502   1.999  0.0628  0.5812 -0.4550
  150MOL0     C20129   5.667   0.421   1.888  0.1223  0.2319 -1.1344
  150MOL0     C20130   5.596   0.294   1.942  0.5825  0.0475  0.6586
  150MOL0     C20131   5.461   0.289   1.878 -0.3850  0.6603  0.2180
  150MOL0     N20132   5.383   0.180   1.952 -0.9380 -0.2807 -0.0935
  150MOL0     C20133   5.271   0.204   2.024  0.3365 -0.2099  0.5788
  150MOL0     C20134   5.234   0.074   2.057 -1.0289 -0.0090 -0.0478
  150MOL0     C20135   5.108   0.040   2.127 -0.5039 -0.0135  0.0533
  150MOL0     C20136   5.098   0.114   2.259  0.3067  0.7766  0.6352
  150MOL0     C20137   5.097   0.010   2.371  0.5094  0.2644 -0.1976
  150MOL0     C20138   5.104   0.090   2.502 -0.6774  0.6186  0.3410
  150MOL0     O20139   4.976   0.146   2.534  0.0782 -1.0215 -0.4516
  150MOL0     C20140   4.967   0.246   2.630 -0.7019  0.7339 -0.9697
  150MOL0     C20141   5.073   0.278   2.713 -0.6171  0.5358 -0.9311
  150MOL0     C20142   5.056   0.366   2.814 -0.5335 -0.1709  0.0220
  150MOL0     C20143   5.169   0.376   2.911  0.2754  0.2856 -0.7971
  150MOL0     C20144   4.928   0.433   2.831 -0.1080  1.4386  0.1261
  150MOL0     C20145   4.890   0.533   2.934  0.3854 -0.0763  0.5972
  150MOL0     O20146   4.767   0.600   2.912 -0.2287  0.0444  0.1626
  150MOL0     C20147   4.720   0.706   2.994 -0.2901  0.1656  0.8600
  150MOL0     C20148   4.626   0.794   2.929  0.0673  0.3416 -0.5542
  150MOL0     C20149   4.565   0.894   3.006 -0.0020  0.4634  1.1076
  150MOL0     C20150   4.593   0.919   3.144  0.0157  0.1689 -0.0954
  150MOL0     O20151   4.529   1.006   3.234  0.7185 -0.1843 -0.0775
  150MOL0     C20152   4.406   1.060   3.191  0.2351  0.3409 -0.0365
  150MOL0     C20153   4.291   0.971   3.249 -0.3369  0.2968  0.1942
  150MOL0     C20154   4.193   1.054   3.338 -0.1986 -1.1219  0.9913
  150MOL0     C20155   4.081   0.969   3.380  0.8494  0.4216 -0.0951
  150MOL0     C20156   3.983   1.042   3.472  0.6995 -0.3606 -0.1426
  150MOL0     C20157   3.851   0.966   3.480  0.0698  0.5510 -0.4673
  150MOL0     C20158   3.772   1.013   3.599  0.3437 -0.1722 -0.5159
  150MOL0     C20159   3.624   1.004   3.585 -0.3019  0.4129  0.2346
  150MOL0    Cl20160   3.577   1.112   3.448 -0.0851 -0.2651 -0.4993
  150MOL0     C20161   4.690   0.839   3.200  0.8030 -0.6725  0.3241
  150MOL0     C20162   4.756   0.735   3.128  0.0335  0.3540 -0.9701
  150MOL0     O20163   4.971   0.554   3.026 -0.5275  0.0354 -0.9676
  150MOL0     C20164   4.837   0.409   2.735 -0.1844  0.3811 -1.0850
  150MOL0     C20165   4.849   0.317   2.639 -0.0106 -0.5878 -0.6290
  150MOL0     N20166   5.323  -0.018   2.014 -0.0603 -0.2077  0.4580
  150MOL0     N20167   5.413   0.048   1.944  0.2706  0.4018 -0.1110
  150MOL0     C20168   6.376   0.755   2.331 -0.1988 -0.0504  0.9027
  150MOL0     C20169   6.491   0.820   2.375 -0.3485  0.1892 -0.3862
  150MOL0     C20170   6.831   1.107   2.365 -0.0499 -0.2371  0.1188
  150MOL0     C20171   6.860   1.246   2.376  0.2227  0.5065  0.4316
  150MOL0     C20172   6.986   1.286   2.407 -0.7805 -0.0791  0.1576
  150MOL0     C20173   7.087   1.190   2.428 -0.1449 -0.3913 -0.3412
  150MOL0     O20174   7.221   1.224   2.433 -0.3919  0.8586 -0.5882
  150MOL0     C20175   7.257   1.347   2.502  0.1242  0.9844 -1.1982
  150MOL0     C20176   7.391   1.341   2.564  0.1338 -1.1439  0.7640
  150MOL0     C20177   7.382   1.262   2.695  0.4541 -0.0751 -0.0733
  150MOL0     C20178   7.406   1.111   2.694 -0.8664  0.1546  0.4992
  150MOL0     C20179   7.537   1.085   2.647  0.7316 -0.1356  1.1022
  150MOL0     C20180   7.635   1.032   2.609  0.0330 -0.1066 -0.2419
  150MOL0     C20181   7.061   1.049   2.397  0.0754  0.1358 -0.0512
  150MOL0     C20182   6.933   1.011   2.374 -0.8921 -0.2203 -1.1654
  150MOL0     H20183   6.597   0.927   2.067 -1.5255 -0.0566 -0.7057
  150MOL0     H20184   6.396   0.807   2.002  0.3217  2.0665  0.1129
  150MOL0     H20185   6.229   0.552   2.279  2.0532  0.1914 -2.8614
  150MOL0     H20186   6.105   0.649   2.326  1.8278 -3.7828  3.1640
  150MOL0     H20187   6.124   0.485   2.068 -2.2857 -3.3188  0.5188
  150MOL0     H20188   6.061   0.429   2.220  0.3306  1.0144  1.4937
  150MOL0     H20189   5.873   0.582   2.206 -1.9619  1.3924 -1.3695
  150MOL0     H20190   5.935   0.654   2.054 -0.0995  1.2659  2.6813
  150MOL0     H20191   5.920   0.434   1.937  2.0253  3.0789  0.5706
  150MOL0     H20192   5.858   0.360   2.081 -1.4725  1.1387  0.0804
  150MOL0     H20193   5.665   0.518   2.088  2.0398  0.9215  0.9181
  150MOL0     H20194   5.735   0.602   1.955 -0.8974  1.3037  0.8977
  150MOL0     H20195   5.599   0.488   1.835  0.9097  3.4863  1.6055
  150MOL0     H20196   5.745   0.387   1.820  1.7125 -3.0732  2.0110
  150MOL0     H20197   5.654   0.209   1.906 -0.7412 -2.0117  3.0061
  150MOL0     H20198   5.592   0.294   2.051 -3.0512  0.4688  0.6455
  150MOL0     H20199   5.467   0.277   1.770  0.6468  0.0682  0.3261
  150MOL0     H20200   5.414   0.388   1.882 -2.9822 -0.4313 -0.8487
  150MOL0     H20201   5.214   0.295   2.038 -1.7156 -1.4878  1.0415
  150MOL0     H20202   5.021   0.054   2.061  0.3112  1.4742 -0.7636
  150MOL0     H20203   5.101  -0.067   2.148  0.4120  0.5697  4.1757
  150MOL0     H20204   5.006   0.171   2.272 -0.5954  0.4293 -3.1629
  150MOL0     H20205   5.188   0.176   2.268  0.0267  0.9230  4.4787
  150MOL0     H20206   5.182  -0.056   2.352  0.1857  0.5229 -3.0487
  150MOL0     H20207   5.001  -0.041   2.378  0.1333  1.1844  1.9974
  150MOL0     H20208   5.170   0.175   2.484 -0.1170 -0.1948 -1.8375
  150MOL0     H20209   5.150   0.024   2.576 -2.7085 -1.4855 -0.1604
  150MOL0     H20210   5.163   0.221   2.697 -2.3252 -2.6756 -0.0241
  150MOL0     H20211   5.132   0.332   3.004 -0.9797 -1.3009 -1.9888
  150MOL0     H20212   5.266   0.329   2.892  1.8027  2.4935  0.9687
  150MOL0     H20213   5.194   0.482   2.924 -2.1425  0.7622  0.5254
  150MOL0     H20214   4.596   0.783   2.825 -1.1122  1.7128 -0.3882
  150MOL0     H20215   4.493   0.963   2.961  0.4714 -0.2390 -0.8344
  150MOL0     H20216   4.400   1.154   3.247  0.7958  0.4533 -0.1598
  150MOL0     H20217   4.396   1.087   3.086 -0.8993 -3.1030 -0.9409
  150MOL0     H20218   4.235   0.921   3.169 -0.4851 -0.8223  0.9827
  150MOL0     H20219   4.340   0.894   3.308  1.4680  1.8318  0.7897
  150MOL0     H20220   4.151   1.140   3.286  1.5939  0.7383  2.4174
  150MOL0     H20221   4.237   1.089   3.432  1.5100 -3.9276  1.3633
  150MOL0     H20222   4.015   0.931   3.302  1.1214 -1.3594  0.5002
  150MOL0     H20223   4.131   0.883   3.426  4.2395  2.6210  0.6689
  150MOL0     H20224   3.958   1.138   3.426  2.1681 -0.4252 -1.1385
  150MOL0     H20225   4.029   1.077   3.565 -2.9663  1.1943  1.3006
  150MOL0     H20226   3.794   0.951   3.388 -2.8149  1.3138  1.0949
  150MOL0     H20227   3.882   0.861   3.490  1.6943  0.7601 -2.6276
  150MOL0     H20228   3.805   1.110   3.640 -1.7352  0.7078 -0.8108
  150MOL0     H20229   3.791   0.940   3.678  1.5103  1.1561  0.5096
  150MOL0     H20230   3.567   1.019   3.677  1.7978  1.1652  1.4733
  150MOL0     H20231   3.602   0.900   3.559  0.2012 -0.0072  1.4398
  150MOL0     H20232   4.719   0.849   3.304 -1.6227  0.8680  0.9130
  150MOL0     H20233   4.828   0.678   3.185 -0.1054 -0.7841 -1.8989
  150MOL0     H20234   4.738   0.454   2.742 -1.1686 -0.8810 -4.8048
  150MOL0     H20235   4.762   0.299   2.576  2.0090 -0.6974 -3.5965
  150MOL0     H20236   6.307   0.735   2.413 -1.2185  0.5677  0.2197
  150MOL0     H20237   6.522   0.840   2.477 -1.9958  0.4703  0.0832
  150MOL0     H20238   6.783   1.322   2.362  1.9437  1.8380 -2.9693
  150MOL0     H20239   7.005   1.393   2.402 -2.4501  0.2426  0.2560
  150MOL0     H20240   7.262   1.428   2.428  1.1923  0.4075 -1.7724
  150MOL0     H20241   7.174   1.369   2.570  0.8594 -0.9713  0.4287
  150MOL0     H20242   7.430   1.441   2.582  0.3180 -1.1638  0.4690
  150MOL0     H20243   7.469   1.299   2.500  1.4735  0.0794  1.5285
  150MOL0     H20244   7.282   1.281   2.734  0.6887  3.2050 -0.7773
  150MOL0     H20245   7.446   1.318   2.763  0.6969  0.6125 -0.8395
  150MOL0     H20246   7.335   1.051   2.637 -0.6092 -0.0593  0.4015
  150MOL0     H20247   7.401   1.105   2.803 -0.9996  4.7857  0.9585
  150MOL0     H20248   7.722   0.990   2.563 -0.3799  1.6272 -2.8254
  150MOL0     H20249   7.143   0.978   2.408  0.1884 -0.3625 -3.2550
  150MOL0     H20250   6.926   0.905   2.350 -1.2445  0.0403 -2.3037
  151MOL0     O20251   4.976   0.903   6.913  0.4382 -0.1584  0.5596
  151MOL0     C20252   4.969   0.860   6.796  0.1021 -0.1824 -0.3578
  151MOL0     O20253   5.036   0.747   6.748 -0.0722 -0.1137 -0.4886
  151MOL0     C20254   5.094   0.665   6.845  0.1581 -0.2850 -0.4930
  151MOL0     C20255   5.056   0.529   6.863  0.4765 -0.5862  0.2572
  151MOL0     C20256   5.116   0.451   6.961  0.2690 -0.1416 -0.1601
  151MOL0     C20257   5.216   0.511   7.040  0.3386 -0.2441 -0.8836
  151MOL0     O20258   5.265   0.424   7.139 -0.3196  0.2721 -0.3245
  151MOL0     C20259   5.391   0.445   7.201  0.3672 -0.4330  0.3397
  151MOL0     C20260   5.454   0.307   7.223 -0.0806  0.3848 -0.2836
  151MOL0     C20261   5.372   0.243   7.344  0.6185 -0.0265 -0.4318
  151MOL0     C20262   5.228   0.199   7.336  0.0232  0.9563 -0.6067
  151MOL0     C20263   5.223   0.077   7.246  0.0347 -0.4677  0.8830
  151MOL0     C20264   5.115  -0.016   7.281 -0.2758 -0.2577  0.9585
  151MOL0     C20265   5.123  -0.144   7.197 -0.5885  0.6839  0.8698
  151MOL0     C20266   5.155  -0.134   7.049  0.3519 -0.5260  0.0605
  151MOL0     N20267   5.139  -0.264   6.966  0.7747 -0.1142  0.9217
  151MOL0     C20268   5.208  -0.377   7.001 -0.5076 -0.3920  0.1034
  151MOL0     C20269   5.161  -0.473   6.926  0.1602 -0.4592  0.3850
  151MOL0     C20270   5.213  -0.608   6.923 -0.1695 -0.3296  0.5936
  151MOL0     C20271   5.318  -0.649   6.814  0.0742  1.1488 -0.5980
  151MOL0     C20272   5.241  -0.759   6.744 -1.0036  0.3468  0.1868
  151MOL0     C20273   5.208  -0.893   6.817  0.7248  0.4989  1.0243
  151MOL0     O20274   5.317  -0.947   6.902 -0.2872  0.0605 -0.4357
  151MOL0     C20275   5.433  -1.004   6.852  1.0917 -0.1961 -0.1240
  151MOL0     C20276   5.444  -1.036   6.709  0.4423 -0.2790  0.6311
  151MOL0     C20277   5.561  -1.099   6.653  0.6848 -0.7322 -0.1155
  151MOL0     C20278   5.563  -1.122   6.499  0.7026 -0.3646  0.3281
  151MOL0     C20279   5.666  -1.130   6.739 -0.3290 -0.6347  0.3629
  151MOL0     C20280   5.799  -1.192   6.698  0.4477 -0.7994  0.3261
  151MOL0     O20281   5.812  -1.198   6.566  0.3023  0.3293  0.3882
  151MOL0     C20282   5.928  -1.226   6.490 -0.6746 -0.8661 -0.2443
  151MOL0     C20283   6.061  -1.244   6.542 -0.4698 -0.3874  0.0874
  151MOL0     C20284   6.159  -1.296   6.455 -0.3903  0.1122 -0.1984
  151MOL0     C20285   6.133  -1.317   6.315 -0.2905 -0.3481 -1.1886
  151MOL0     O20286   6.236  -1.363   6.229  1.0449  0.0601  0.4954
  151MOL0     C20287   6.207  -1.389   6.098  1.0107 -0.9871  0.1534
  151MOL0     C20288   6.331  -1.441   6.031  0.4629  0.6316  0.2325
  151MOL0     C20289   6.301  -1.465   5.879  0.0971 -0.5280  0.0749
  151MOL0     C20290   6.415  -1.552   5.818  0.5004  0.1680 -0.5850
  151MOL0     C20291   6.373  -1.608   5.687  1.4594  0.5642  0.2875
  151MOL0     C20292   6.487  -1.663   5.604  0.6620  0.2960 -0.3457
  151MOL0     C20293   6.541  -1.804   5.651  0.1763  0.3903  0.2041
  151MOL0     C20294   6.692  -1.825   5.660 -0.6021 -0.6780 -0.2166
  151MOL0    Cl20295   6.783  -1.765   5.519 -0.3786  0.4725 -0.2553
  151MOL0     C20296   6.003  -1.292   6.273  0.1040 -0.3589 -0.2338
  151MOL0     C20297   5.907  -1.246   6.362 -0.6251 -0.5431  0.4988
  151MOL0     O20298   5.877  -1.227   6.780 -0.2887 -0.5287  0.1041
  151MOL0     C20299   5.658  -1.089   6.878  0.1688  0.0288  0.2414
  151MOL0     C20300   5.541  -1.035   6.930 -0.1695  0.3432 -0.8482
  151MOL0     N20301   5.062  -0.415   6.852  0.5840 -0.0029 -0.0466
  151MOL0     N20302   5.052  -0.282   6.869 -0.4197  0.7824 -0.4703
  151MOL0     C20303   5.255   0.646   7.024  0.3304  0.0123  0.4583
  151MOL0     C20304   5.203   0.717   6.921 -0.2483  0.2313  0.3157
  151MOL0     C20305   4.895   0.937   6.698  0.7235  0.8142  0.0736
  151MOL0     C20306   4.905   0.905   6.562  0.6088  0.3895  1.2053
  151MOL0     C20307   4.801   0.952   6.476 -0.1334  0.0609  0.1220
  151MOL0     C20308   4.680   1.012   6.523  0.5291  0.0610  0.8744
  151MOL0     O20309   4.565   1.038   6.445  0.0049 -0.5943 -0.8200
  151MOL0     C20310   4.527   0.985   6.316  0.7530  0.1133  0.4504
  151MOL0     C20311   4.482   0.841   6.297  1.0023 -0.5110 -0.8345
  151MOL0     C20312   4.352   0.797   6.369  0.3177 -0.0859  1.1632
  151MOL0     C20313   4.376   0.751   6.514 -0.4312  0.0836  0.0030
  151MOL0     C20314   4.251   0.713   6.585  1.3862  0.2629  0.4587
  151MOL0     C20315   4.139   0.676   6.615 -0.6737  0.0345 -0.1589
  151MOL0     C20316   4.679   1.047   6.661 -0.7631  0.9321 -0.7154
  151MOL0     C20317   4.790   1.012   6.746 -0.2850 -0.5713  0.8019
  151MOL0     H20318   4.977   0.485   6.802 -3.1320  1.1393  3.2926
  151MOL0     H20319   5.086   0.348   6.979  0.5644 -0.1257  0.4544
  151MOL0     H20320   5.460   0.507   7.143 -0.2351 -0.3755 -0.3309
  151MOL0     H20321   5.388   0.493   7.299  1.9163 -3.2579  1.9081
  151MOL0     H20322   5.452   0.237   7.139 -0.5111 -0.4968  0.4462
  151MOL0     H20323   5.559   0.317   7.250  0.2493  0.9843 -1.7098
  151MOL0     H20324   5.430   0.155   7.373 -0.7785 -0.2433  1.9310
  151MOL0     H20325   5.381   0.299   7.437 -1.2169  0.9561 -0.7919
  151MOL0     H20326   5.204   0.166   7.438 -0.0591 -3.1831 -1.7827
  151MOL0     H20327   5.150   0.271   7.310 -0.0926  0.4173 -1.8218
  151MOL0     H20328   5.220   0.113   7.142 -0.1725  1.7940  1.6035
  151MOL0     H20329   5.304   0.009   7.275 -3.2342 -4.2127  2.0272
  151MOL0     H20330   5.137  -0.039   7.385 -1.8815  0.7206  1.5411
  151MOL0     H20331   5.013   0.022   7.290 -1.7807 -2.3854 -3.7042
  151MOL0     H20332   5.192  -0.213   7.245 -0.6056 -0.6003 -0.8483
  151MOL0     H20333   5.026  -0.195   7.198 -0.6189  0.7506  1.5934
  151MOL0     H20334   5.261  -0.106   7.043  1.2417 -3.5553  0.0426
  151MOL0     H20335   5.091  -0.053   7.012  0.9487 -0.8584 -1.8279
  151MOL0     H20336   5.275  -0.396   7.084  1.2724 -0.1525 -1.2291
  151MOL0     H20337   5.262  -0.652   7.010 -0.7414 -2.0765  0.0694
  151MOL0     H20338   5.120  -0.665   6.909 -0.9114  0.8326  0.6501
  151MOL0     H20339   5.414  -0.677   6.859 -0.1693  3.5394  1.6272
  151MOL0     H20340   5.339  -0.563   6.750 -0.5763  1.9881  0.2805
  151MOL0     H20341   5.313  -0.781   6.665 -0.0678 -0.1711  1.1674
  151MOL0     H20342   5.152  -0.715   6.698 -0.7742  1.4878  0.7812
  151MOL0     H20343   5.170  -0.966   6.745 -2.3472  0.7230  2.2498
  151MOL0     H20344   5.115  -0.879   6.874  0.2322  0.9584  0.1328
  151MOL0     H20345   5.356  -1.015   6.651  0.0020 -2.3346  0.4764
  151MOL0     H20346   5.564  -1.228   6.472 -0.6539  0.1251 -1.9385
  151MOL0     H20347   5.475  -1.075   6.455  0.0311 -1.3078  0.6231
  151MOL0     H20348   5.648  -1.073   6.450 -2.3215  1.3854 -3.6886
  151MOL0     H20349   6.085  -1.231   6.647  4.5390 -0.1533 -0.8470
  151MOL0     H20350   6.249  -1.332   6.503 -0.1613  1.2924  0.2916
  151MOL0     H20351   6.120  -1.452   6.077 -0.2704 -0.7225  3.9005
  151MOL0     H20352   6.193  -1.293   6.047  0.5749 -0.4684  1.2350
  151MOL0     H20353   6.421  -1.379   6.038  0.9990 -0.2740  1.9158
  151MOL0     H20354   6.366  -1.529   6.085 -2.6557  0.8131  2.8402
  151MOL0     H20355   6.293  -1.367   5.830 -0.3278 -0.8185 -0.4412
  151MOL0     H20356   6.212  -1.529   5.872  0.9746 -1.9774  1.4918
  151MOL0     H20357   6.506  -1.492   5.813  0.4252  0.6169  1.8782
  151MOL0     H20358   6.441  -1.636   5.884 -1.9935  1.3203  2.0932
  151MOL0     H20359   6.319  -1.526   5.638 -0.9541 -1.3990 -0.5767
  151MOL0     H20360   6.293  -1.682   5.696  1.2884  0.6363 -0.4897
  151MOL0     H20361   6.446  -1.669   5.503 -2.2754 -0.0761  0.7719
  151MOL0     H20362   6.567  -1.589   5.594 -0.1537  1.3903  0.9456
  151MOL0     H20363   6.483  -1.874   5.591  0.6381  0.2547 -0.0875
  151MOL0     H20364   6.499  -1.826   5.750 -1.5966 -0.2926 -0.6581
  151MOL0     H20365   6.698  -1.932   5.682  1.3008 -0.7291 -0.8206
  151MOL0     H20366   6.719  -1.764   5.747  0.9994 -0.0240 -1.1246
  151MOL0     H20367   5.977  -1.307   6.168  1.0113 -2.1199 -0.2535
  151MOL0     H20368   5.807  -1.244   6.321  0.5250  0.7669 -2.5664
  151MOL0     H20369   5.740  -1.121   6.941  1.2628 -2.2970 -2.1355
  151MOL0     H20370   5.524  -1.011   7.034  0.8091  1.0361 -0.8327
  151MOL0     H20371   5.337   0.675   7.089  0.4711 -1.9803  1.2511
  151MOL0     H20372   5.258   0.803   6.884 -0.9980 -0.6909 -3.3950
  151MOL0     H20373   4.982   0.838   6.525 -1.4915 -1.4305 -0.1064
  151MOL0     H20374   4.815   0.929   6.371  3.9916 -2.5091  1.0066
  151MOL0     H20375   4.452   1.051   6.271 -0.9605 -1.4541  0.8979
  151MOL0     H20376   4.613   1.002   6.251 -1.1034  1.3753 -1.8215
  151MOL0     H20377   4.558   0.768   6.327  0.4315  0.9762  5.6814
  151MOL0     H20378   4.468   0.833   6.188 -1.5045  2.8892 -0.9260
  151MOL0     H20379   4.316   0.707   6.317  5.7319 -2.5854  1.0708
  151MOL0     H20380   4.274   0.874   6.364  2.7573  2.4483 -0.8845
  151MOL0     H20381   4.427   0.822   6.579  2.8414 -0.8136 -1.4028
  151MOL0     H20382   4.444   0.669   6.490 -0.6447 -0.0143 -0.2713
  151MOL0     H20383   4.043   0.640   6.645 -0.3842  0.3601  1.2327
  151MOL0     H20384   4.588   1.090   6.700  0.5562  1.2938  2.3123
  151MOL0     H20385   4.786   1.040   6.851 -2.0093 -3.6966  1.6718
  152MOL0     O20386  10.708   9.071   1.294  0.1876  0.5382 -0.4295
  152MOL0     C20387  10.618   8.996   1.260 -0.3601  0.4184 -0.0132
  152MOL0     O20388  10.554   9.012   1.145 -0.0430 -0.2566 -0.5623
  152MOL0     C20389  10.576   9.128   1.070 -0.7619 -1.1275 -0.0478
  152MOL0     C20390  10.592   9.264   1.111  0.2213  0.0251  0.0080
  152MOL0     C20391  10.612   9.369   1.026 -0.2615 -0.6952  0.1785
  152MOL0     C20392  10.620   9.343   0.891 -0.4342  0.2793  0.2670
  152MOL0     O20393  10.634   9.437   0.797 -0.2728 -0.7794  1.0276
  152MOL0     C20394  10.535   9.442   0.699 -0.9772 -0.6524  0.4489
  152MOL0     C20395  10.403   9.465   0.757 -0.4067  0.4525 -0.4103
  152MOL0     C20396  10.292   9.466   0.650  0.8355  1.2228 -0.4171
  152MOL0     C20397  10.269   9.599   0.585 -0.0499 -0.9572  0.7876
  152MOL0     C20398  10.167   9.592   0.463  0.6869  0.2954 -0.6073
  152MOL0     C20399  10.113   9.722   0.399  0.2008  1.0408 -1.0186
  152MOL0     C20400  10.026   9.806   0.495  0.7119  0.6425  0.0720
  152MOL0     C20401   9.961   9.914   0.414 -0.5688  0.0228 -0.2759
  152MOL0     N20402   9.861   9.988   0.492  0.6685 -0.6461  0.1404
  152MOL0     C20403   9.731  10.024   0.444 -0.1267  0.5533  0.1379
  152MOL0     C20404   9.684  10.111   0.536 -0.3310 -0.4819  0.9045
  152MOL0     C20405   9.534  10.162   0.550 -0.5590 -0.2130 -0.9484
  152MOL0     C20406   9.547  10.314   0.570  0.1741  0.0909  0.0795
  152MOL0     C20407   9.415  10.384   0.561  0.4521  0.0142 -0.0235
  152MOL0     C20408   9.315  10.330   0.668 -0.4413  0.8028  0.9753
  152MOL0     O20409   9.371  10.341   0.799  0.5161  0.0430  1.1357
  152MOL0     C20410   9.293  10.332   0.911 -0.3689  0.6835 -0.3650
  152MOL0     C20411   9.168  10.283   0.936  0.2609  0.2246 -0.2078
  152MOL0     C20412   9.113  10.295   1.068 -0.0672  0.3167  1.0870
  152MOL0     C20413   8.970  10.247   1.077  0.2625  0.0860  0.3705
  152MOL0     C20414   9.193  10.337   1.182  0.2815 -0.5921  0.8178
  152MOL0     C20415   9.153  10.347   1.323 -0.3443 -0.4861 -0.9136
  152MOL0     O20416   9.073  10.248   1.377 -0.1275  0.5372  0.4273
  152MOL0     C20417   8.995  10.248   1.490  0.3187 -0.2912 -0.7568
  152MOL0     C20418   8.972  10.125   1.548  0.1125  0.6882 -0.5512
  152MOL0     C20419   8.894  10.104   1.656  0.8318  0.9887 -0.7092
  152MOL0     C20420   8.831  10.212   1.717 -0.8883 -1.2775 -0.0115
  152MOL0     O20421   8.746  10.175   1.818 -0.4505 -0.2159  0.1291
  152MOL0     C20422   8.605  10.213   1.801 -0.7659  0.9443  0.4136
  152MOL0     C20423   8.536  10.190   1.934 -0.1427 -0.1395  0.0240
  152MOL0     C20424   8.379  10.226   1.923 -0.8274  0.5262 -0.1352
  152MOL0     C20425   8.336  10.366   1.991 -0.7478 -0.1032  0.1496
  152MOL0     C20426   8.187  10.376   1.993  0.5685 -0.9359 -0.3946
  152MOL0     C20427   8.132  10.289   2.107  0.6487  0.6190  0.0310
  152MOL0     C20428   7.985  10.288   2.135 -0.1504  0.8944 -0.3545
  152MOL0     C20429   7.962  10.203   2.255  0.0778 -0.1346 -0.0936
  152MOL0    Cl20430   7.792  10.232   2.326 -0.2006 -0.3352 -0.0297
  152MOL0     C20431   8.863  10.338   1.684  0.0977 -0.1697  0.6999
  152MOL0     C20432   8.944  10.352   1.568  0.0281 -0.4202 -0.9112
  152MOL0     O20433   9.185  10.449   1.390  0.3641 -0.1666 -0.2035
  152MOL0     C20434   9.318  10.392   1.145  0.2992 -0.0205  0.0142
  152MOL0     C20435   9.361  10.395   1.012  0.0305  0.7694 -0.4658
  152MOL0     N20436   9.791  10.127   0.627 -0.2478 -0.2094 -0.3245
  152MOL0     N20437   9.888  10.054   0.605 -0.2441  0.7247  0.3106
  152MOL0     C20438  10.600   9.213   0.855 -0.3999  0.1948 -0.0173
  152MOL0     C20439  10.581   9.107   0.937  0.2916 -1.1852  0.3714
  152MOL0     C20440  10.581   8.882   1.345  0.0984  1.0004 -0.0876
  152MOL0     C20441  10.635   8.874   1.476  0.7449 -0.4320  0.3956
  152MOL0     C20442  10.614   8.767   1.569  0.0807  0.3332 -0.1873
  152MOL0     C20443  10.532   8.669   1.520 -0.1613 -0.1887 -0.6593
  152MOL0     O20444  10.479   8.569   1.600  1.3360 -0.2718 -0.0477
  152MOL0     C20445  10.515   8.555   1.739  0.2014  0.3864  0.5790
  152MOL0     C20446  10.634   8.461   1.743  0.9612 -0.1963  0.5383
  152MOL0     C20447  10.707   8.449   1.873 -0.5090 -0.0201 -0.2918
  152MOL0     C20448  10.818   8.555   1.884 -0.0845 -0.5004  1.2499
  152MOL0     C20449  10.919   8.545   1.997 -0.6542 -0.9555  0.5241
  152MOL0     C20450  10.998   8.527   2.084 -1.1382 -0.1606 -0.6463
  152MOL0     C20451  10.471   8.673   1.395 -0.0442  0.7888 -0.1872
  152MOL0     C20452  10.502   8.771   1.298  0.0326 -0.4310 -0.6313
  152MOL0     H20453  10.591   9.269   1.219  0.6589  2.0248 -0.0318
  152MOL0     H20454  10.621   9.472   1.059 -2.5080  0.1507 -1.5157
  152MOL0     H20455  10.567   9.525   0.635 -1.8760 -0.6913 -0.0777
  152MOL0     H20456  10.545   9.361   0.625  2.2297  1.7276 -2.0177
  152MOL0     H20457  10.384   9.376   0.817 -1.3871 -0.2820 -1.7433
  152MOL0     H20458  10.401   9.552   0.823 -3.5465  1.5036 -1.7081
  152MOL0     H20459  10.307   9.393   0.571  0.3014  1.4169 -0.7050
  152MOL0     H20460  10.196   9.442   0.697  0.6905  1.8076 -0.4058
  152MOL0     H20461  10.243   9.673   0.662  3.9484 -0.2333  1.6740
  152MOL0     H20462  10.367   9.630   0.547 -0.5594  0.0385  0.2522
  152MOL0     H20463  10.221   9.544   0.381  0.2771 -0.3455 -0.5030
  152MOL0     H20464  10.085   9.537   0.509  1.8039 -1.4632 -0.6290
  152MOL0     H20465  10.193   9.787   0.363 -0.5705  3.3731  1.2153
  152MOL0     H20466  10.056   9.692   0.311  2.1312  1.4657 -2.4999
  152MOL0     H20467   9.961   9.740   0.552  0.0903  1.1589 -0.0368
  152MOL0     H20468  10.085   9.849   0.577  0.2350 -3.7192  3.0618
  152MOL0     H20469   9.925   9.872   0.320 -1.4038  0.8705 -0.3557
  152MOL0     H20470  10.046   9.980   0.395 -1.0708  1.8645  3.0920
  152MOL0     H20471   9.691   9.980   0.353  1.1170 -1.6642  0.5679
  152MOL0     H20472   9.471  10.128   0.468 -1.9477  0.5404 -0.2218
  152MOL0     H20473   9.487  10.125   0.642  1.0598  2.9839  1.3826
  152MOL0     H20474   9.613  10.345   0.489  0.9669 -1.1813  0.2081
  152MOL0     H20475   9.599  10.330   0.665 -0.8424 -2.6033  1.1955
  152MOL0     H20476   9.373  10.374   0.461 -2.5986 -0.6801  1.2059
  152MOL0     H20477   9.435  10.488   0.587  2.4483 -0.7394  1.8733
  152MOL0     H20478   9.289  10.227   0.646  4.1719 -0.5192  0.7098
  152MOL0     H20479   9.223  10.388   0.657 -1.2776 -0.1363  2.7233
  152MOL0     H20480   9.105  10.258   0.851 -2.1408  1.4953  1.0684
  152MOL0     H20481   8.965  10.137   1.076  1.2731  0.0360 -0.0803
  152MOL0     H20482   8.903  10.297   1.147  0.5425 -0.2609  0.8910
  152MOL0     H20483   8.911  10.272   0.988 -2.1870 -0.0652  1.8373
  152MOL0     H20484   9.029  10.040   1.511 -1.3206 -1.9501  2.7862
  152MOL0     H20485   8.877  10.005   1.696 -2.8849  0.7743 -2.3129
  152MOL0     H20486   8.591  10.316   1.769  1.1945  0.4557 -2.4075
  152MOL0     H20487   8.572  10.148   1.720  2.0095 -1.0628  0.7491
  152MOL0     H20488   8.551  10.087   1.970 -1.2818 -0.2122  0.3345
  152MOL0     H20489   8.586  10.255   2.006 -1.6934 -2.4242  3.4251
  152MOL0     H20490   8.333  10.144   1.978  0.0386  0.3485  0.3549
  152MOL0     H20491   8.338  10.212   1.822  0.4590 -2.1199 -0.3721
  152MOL0     H20492   8.389  10.376   2.086 -0.8826 -0.2900  0.2462
  152MOL0     H20493   8.388  10.439   1.927  4.7247 -2.0152  1.8012
  152MOL0     H20494   8.157  10.348   1.892  2.2436  1.2943 -1.6037
  152MOL0     H20495   8.163  10.480   2.015  0.7697 -0.3607 -2.6283
  152MOL0     H20496   8.169  10.187   2.122 -2.9813 -0.5873  1.9147
  152MOL0     H20497   8.172  10.346   2.192  3.7714 -0.0430 -0.8454
  152MOL0     H20498   7.930  10.249   2.049  0.5354 -0.1758 -0.3328
  152MOL0     H20499   7.941  10.388   2.146  1.3713  1.7340 -1.5074
  152MOL0     H20500   8.028  10.233   2.337 -2.3122 -2.0750  2.7347
  152MOL0     H20501   7.984  10.099   2.232  0.8079  0.3059 -1.5107
  152MOL0     H20502   8.821  10.418   1.744 -1.8340 -2.0670  2.0430
  152MOL0     H20503   8.962  10.452   1.532 -0.3054 -1.5773 -4.7247
  152MOL0     H20504   9.358  10.462   1.217 -2.0463 -2.0994  3.6260
  152MOL0     H20505   9.449  10.454   0.987 -0.0892 -0.1447 -3.4278
  152MOL0     H20506  10.599   9.185   0.750  0.2084  4.6118 -1.4388
  152MOL0     H20507  10.564   9.007   0.897 -0.1106 -1.1354  0.4115
  152MOL0     H20508  10.702   8.950   1.515  0.0568 -1.8409  4.9569
  152MOL0     H20509  10.658   8.766   1.668 -2.3547 -1.7336  0.9701
  152MOL0     H20510  10.526   8.657   1.778  0.7237  1.2487 -1.7045
  152MOL0     H20511  10.427   8.510   1.786 -1.8875  0.9805 -2.4724
  152MOL0     H20512  10.702   8.468   1.657  0.8622 -1.9752  0.2881
  152MOL0     H20513  10.582   8.365   1.742 -2.5558  1.5382  0.3599
  152MOL0     H20514  10.761   8.355   1.859 -1.9472 -0.9119 -0.1229
  152MOL0     H20515  10.645   8.449   1.963  1.0678 -3.2768  0.9538
  152MOL0     H20516  10.758   8.646   1.895 -6.5399 -3.7747 -1.3196
  152MOL0     H20517  10.875   8.556   1.791 -3.0314  0.2370 -0.6976
  152MOL0     H20518  11.067   8.525   2.166  0.8951  2.0020 -2.1337
  152MOL0     H20519  10.407   8.589   1.372  1.8688 -0.5046 -1.1335
  152MOL0     H20520  10.459   8.751   1.200 -0.5916  0.3854 -0.5306
  153MOL0     O20521   5.001   6.554   2.737  0.8223  0.2926 -1.2923
  153MOL0     C20522   4.917   6.501   2.665  0.3045 -0.0857 -0.9068
  153MOL0     O20523   4.837   6.568   2.579 -0.9307 -0.2737 -0.3614
  153MOL0     C20524   4.878   6.701   2.564  0.5604  0.6860 -1.4078
  153MOL0     C20525   4.824   6.782   2.664 -0.1949  0.0278 -0.0125
  153MOL0     C20526   4.875   6.914   2.664  0.1553 -0.0947 -0.3303
  153MOL0     C20527   4.965   6.957   2.565  1.0309  1.0032  1.1349
  153MOL0     O20528   5.021   7.080   2.565 -0.2858  0.4949 -0.2284
  153MOL0     C20529   4.927   7.179   2.519 -0.5010  0.1230 -0.0767
  153MOL0     C20530   5.001   7.318   2.507  0.2214 -0.0515  0.8419
  153MOL0     C20531   5.081   7.385   2.620  1.0238 -1.2271 -0.1583
  153MOL0     C20532   5.061   7.543   2.600  0.8189 -0.2096 -0.1882
  153MOL0     C20533   5.136   7.592   2.472  0.3980 -0.0314 -0.2977
  153MOL0     C20534   5.180   7.740   2.487 -0.4640 -0.9973 -0.2244
  153MOL0     C20535   5.081   7.849   2.525  0.4313  0.5880  0.3572
  153MOL0     C20536   4.958   7.887   2.448  1.1224  0.7045  0.0933
  153MOL0     N20537   5.003   7.918   2.311  0.5231  0.3106 -0.8997
  153MOL0     C20538   5.006   7.835   2.200  0.1193  0.1650  0.0271
  153MOL0     C20539   5.047   7.906   2.093 -0.3578 -1.2648 -0.5502
  153MOL0     C20540   5.082   7.881   1.955  1.0348  0.1934 -0.0970
  153MOL0     C20541   5.216   7.808   1.942 -0.0600  0.0109  0.2581
  153MOL0     C20542   5.293   7.866   1.817 -0.1735 -0.5276 -0.2501
  153MOL0     C20543   5.403   7.780   1.765 -0.1861  0.2325  0.8855
  153MOL0     O20544   5.371   7.720   1.639  0.4740  0.2162  0.7114
  153MOL0     C20545   5.463   7.669   1.552  0.1523  0.2135  0.1126
  153MOL0     C20546   5.597   7.662   1.579 -0.0569 -0.0343  0.6616
  153MOL0     C20547   5.693   7.613   1.494 -0.7430  0.0441 -0.5750
  153MOL0     C20548   5.836   7.605   1.544 -0.4051  0.3029  0.2220
  153MOL0     C20549   5.649   7.570   1.358 -0.5643 -1.6506  0.2001
  153MOL0     C20550   5.734   7.518   1.246  0.9021 -0.4044  0.7262
  153MOL0     O20551   5.672   7.480   1.131  0.8793 -0.6284  0.5024
  153MOL0     C20552   5.737   7.394   1.050  0.9258  1.6246  0.5669
  153MOL0     C20553   5.669   7.362   0.927  0.0282 -0.4608 -0.7958
  153MOL0     C20554   5.720   7.287   0.824 -0.0674  0.2419  0.4741
  153MOL0     C20555   5.847   7.231   0.837  0.2843 -0.1026  0.3404
  153MOL0     O20556   5.881   7.157   0.732 -0.7655  0.1585  0.1701
  153MOL0     C20557   6.020   7.141   0.718 -0.5114  0.4629 -0.7528
  153MOL0     C20558   6.038   7.101   0.573  0.1775 -0.2422 -0.2460
  153MOL0     C20559   6.187   7.103   0.520  0.3012  0.3669 -0.6194
  153MOL0     C20560   6.263   6.978   0.573  0.0306  0.4059 -0.1909
  153MOL0     C20561   6.382   6.943   0.484  0.2237  0.2330 -0.0242
  153MOL0     C20562   6.490   7.052   0.478  0.3157  0.1892  0.4493
  153MOL0     C20563   6.632   7.003   0.447  0.2223 -0.4944 -1.1428
  153MOL0     C20564   6.650   6.997   0.297  0.1583  0.2468 -0.2464
  153MOL0    Cl20565   6.808   6.918   0.268 -0.0130 -0.0621  0.0552
  153MOL0     C20566   5.914   7.242   0.964  0.2361  0.7148  0.3770
  153MOL0     C20567   5.864   7.326   1.069  0.5372  0.2690 -0.5057
  153MOL0     O20568   5.856   7.543   1.260  0.3603 -0.3803  0.3263
  153MOL0     C20569   5.520   7.606   1.322  1.4531  0.2283  0.0237
  153MOL0     C20570   5.427   7.649   1.418 -0.3880  0.1056  0.0586
  153MOL0     N20571   5.062   8.032   2.137  1.0716 -0.0132 -0.2195
  153MOL0     N20572   5.035   8.041   2.258  0.2019  0.5719 -1.1972
  153MOL0     C20573   5.004   6.869   2.462  0.1949 -0.6914 -0.4144
  153MOL0     C20574   4.954   6.738   2.461 -1.1161  0.0434 -0.6033
  153MOL0     C20575   4.919   6.347   2.665 -0.8398  0.3539  0.1101
  153MOL0     C20576   4.832   6.267   2.586  0.1918  0.2733  0.0201
  153MOL0     C20577   4.821   6.127   2.588 -0.4643  0.1529 -0.5665
  153MOL0     C20578   4.917   6.055   2.670 -0.0974  0.0667  0.0805
  153MOL0     O20579   4.913   5.916   2.681  0.3239  0.7387 -0.3620
  153MOL0     C20580   4.842   5.844   2.577  0.0112 -0.0293 -0.6719
  153MOL0     C20581   4.845   5.693   2.588  0.8620 -0.2922 -0.3143
  153MOL0     C20582   4.784   5.638   2.720  0.5944  0.3809 -0.1247
  153MOL0     C20583   4.763   5.492   2.716  1.0663 -0.0450 -0.1007
  153MOL0     C20584   4.664   5.457   2.817  0.3514  1.0037 -0.2589
  153MOL0     C20585   4.572   5.425   2.894  0.4570 -0.8153 -0.8254
  153MOL0     C20586   5.006   6.129   2.746 -0.5297  0.3153  1.0231
  153MOL0     C20587   5.014   6.269   2.739  0.0945  0.0444 -0.8825
  153MOL0     H20588   4.769   6.728   2.741  2.2878 -2.7763 -0.0195
  153MOL0     H20589   4.870   6.984   2.748 -1.3800  0.3366 -0.7548
  153MOL0     H20590   4.884   7.146   2.425  0.0963 -2.0019  0.3359
  153MOL0     H20591   4.842   7.178   2.587 -1.3030 -1.9807 -1.0513
  153MOL0     H20592   5.056   7.309   2.412  1.2152  2.5902  1.0708
  153MOL0     H20593   4.915   7.380   2.481  0.9009 -0.2745 -2.3445
  153MOL0     H20594   5.030   7.353   2.711 -1.0243 -0.2939 -0.9126
  153MOL0     H20595   5.184   7.350   2.613  0.6515 -2.3476 -0.2858
  153MOL0     H20596   4.957   7.576   2.600  1.1030  0.7727 -1.3231
  153MOL0     H20597   5.107   7.600   2.682 -0.0098  0.2464 -0.0250
  153MOL0     H20598   5.212   7.515   2.459 -1.3483 -1.8970 -0.0192
  153MOL0     H20599   5.071   7.580   2.384 -0.2800 -2.6550  0.4738
  153MOL0     H20600   5.256   7.724   2.564  0.8572 -3.6083 -1.9273
  153MOL0     H20601   5.219   7.772   2.390 -1.2098 -0.8344 -0.4802
  153MOL0     H20602   5.040   7.834   2.625 -3.7463 -2.0359 -1.4746
  153MOL0     H20603   5.128   7.948   2.522 -0.6156  1.1015  0.7240
  153MOL0     H20604   4.921   7.982   2.489  0.1813  1.5666 -2.5312
  153MOL0     H20605   4.893   7.800   2.454 -0.4843  1.6721 -1.9267
  153MOL0     H20606   4.965   7.735   2.192 -4.0449  1.7531 -1.0376
  153MOL0     H20607   5.004   7.821   1.907  1.3670  0.1967 -0.6394
  153MOL0     H20608   5.079   7.976   1.901  0.7810  0.7528  0.8635
  153MOL0     H20609   5.198   7.701   1.929  1.5341 -0.1745 -0.6111
  153MOL0     H20610   5.281   7.824   2.028  3.6897 -0.7133 -2.1889
  153MOL0     H20611   5.335   7.967   1.827  0.5521 -0.8821  0.3066
  153MOL0     H20612   5.225   7.869   1.731  0.6810  0.5082 -0.9254
  153MOL0     H20613   5.422   7.694   1.831 -0.4537 -0.9605 -0.5316
  153MOL0     H20614   5.492   7.842   1.750 -1.6205  2.0587 -0.5743
  153MOL0     H20615   5.632   7.705   1.672  0.0437  1.1814  0.0850
  153MOL0     H20616   5.909   7.642   1.473  0.1326  1.1810  1.2003
  153MOL0     H20617   5.852   7.656   1.640  1.8258  0.8257 -0.3839
  153MOL0     H20618   5.857   7.498   1.544  1.5648  0.6302  1.7790
  153MOL0     H20619   5.570   7.404   0.915  0.8147  2.4475  1.4723
  153MOL0     H20620   5.665   7.284   0.730  1.1556  1.1251 -0.2953
  153MOL0     H20621   6.070   7.238   0.730  0.7151  0.1408 -2.7904
  153MOL0     H20622   6.064   7.065   0.783 -1.1885 -0.7401 -1.6633
  153MOL0     H20623   5.987   7.007   0.553 -0.5664 -0.4479  2.2533
  153MOL0     H20624   5.999   7.183   0.512  3.3984  1.8938  0.2937
  153MOL0     H20625   6.248   7.184   0.562  1.6466  0.7631 -3.1260
  153MOL0     H20626   6.183   7.113   0.411 -1.5056 -0.6489 -0.6868
  153MOL0     H20627   6.310   6.980   0.672  0.6251 -1.2219 -0.4094
  153MOL0     H20628   6.196   6.893   0.587  1.6593 -0.8729  0.2029
  153MOL0     H20629   6.354   6.921   0.381  0.6106 -1.1951  0.1578
  153MOL0     H20630   6.423   6.850   0.524 -2.6393  0.6783  4.8100
  153MOL0     H20631   6.461   7.123   0.400  2.7232 -2.1491 -2.8370
  153MOL0     H20632   6.484   7.112   0.570  1.7340  2.1047 -0.6237
  153MOL0     H20633   6.641   6.901   0.483  1.6567  0.4811  1.5674
  153MOL0     H20634   6.710   7.058   0.501 -1.6214  0.8562  0.2774
  153MOL0     H20635   6.653   7.097   0.255 -0.0786  1.1544  1.7837
  153MOL0     H20636   6.576   6.938   0.243  0.3091 -2.1878  1.9452
  153MOL0     H20637   6.008   7.190   0.979 -1.2287 -1.3555  3.2764
  153MOL0     H20638   5.909   7.324   1.168  0.9495  2.2105 -0.6103
  153MOL0     H20639   5.488   7.605   1.219  0.0548  1.4463  0.4193
  153MOL0     H20640   5.325   7.667   1.384 -0.3420 -3.5622 -2.6757
  153MOL0     H20641   5.061   6.913   2.380 -0.7968  4.1668  1.1841
  153MOL0     H20642   4.982   6.658   2.393  1.0809 -0.2026  0.5202
  153MOL0     H20643   4.758   6.312   2.521  3.8886  3.1369 -2.6489
  153MOL0     H20644   4.746   6.079   2.526 -1.9898 -0.8571  1.9120
  153MOL0     H20645   4.737   5.872   2.588  0.2790  0.0876  2.8435
  153MOL0     H20646   4.872   5.867   2.475  2.4263 -0.4475 -0.1411
  153MOL0     H20647   4.950   5.664   2.583 -0.2402 -4.8339 -1.0748
  153MOL0     H20648   4.785   5.660   2.503  0.1870  0.7473 -0.2552
  153MOL0     H20649   4.690   5.693   2.732 -0.8985 -1.9378 -0.4604
  153MOL0     H20650   4.853   5.662   2.801  0.4662 -2.5457  0.9713
  153MOL0     H20651   4.858   5.441   2.737  1.3042  0.3914 -0.1150
  153MOL0     H20652   4.728   5.461   2.617  1.9992  0.1210 -0.4963
  153MOL0     H20653   4.520   5.399   2.983  2.0419  0.1205  0.4275
  153MOL0     H20654   5.078   6.078   2.810  0.2466  3.2182  2.6349
  153MOL0     H20655   5.089   6.326   2.794  1.0983  0.5329 -2.6678
  154MOL0     O20656  10.518   3.397   2.976 -0.0651 -1.2811 -0.1544
  154MOL0     C20657  10.526   3.489   2.895  0.6393  0.6026  0.0820
  154MOL0     O20658  10.424   3.572   2.875 -0.5312  0.2435  0.2275
  154MOL0     C20659  10.312   3.584   2.949  0.4582  0.5319 -0.1302
  154MOL0     C20660  10.259   3.484   3.024  0.6028 -0.3951 -0.1294
  154MOL0     C20661  10.159   3.517   3.107  0.0450 -0.0252 -0.1214
  154MOL0     C20662  10.105   3.644   3.130 -0.2525 -0.5352 -0.5660
  154MOL0     O20663  10.003   3.658   3.216  0.8905  0.4495  0.0558
  154MOL0     C20664   9.891   3.728   3.158 -0.8030  0.5448  0.2010
  154MOL0     C20665   9.755   3.653   3.162  0.5354 -0.2471 -2.0268
  154MOL0     C20666   9.704   3.609   3.306 -0.0023  0.0376 -0.2615
  154MOL0     C20667   9.728   3.717   3.426  0.2411  0.5874 -0.4294
  154MOL0     C20668   9.680   3.669   3.567  0.1138 -0.4613 -0.5268
  154MOL0     C20669   9.810   3.625   3.641 -1.2182 -0.3194  0.0445
  154MOL0     C20670   9.788   3.580   3.783 -0.0815 -0.3661 -0.5013
  154MOL0     C20671   9.911   3.547   3.862 -0.9990  0.7777 -0.2722
  154MOL0     N20672  10.009   3.658   3.876 -0.2644  0.1730 -0.5111
  154MOL0     C20673  10.133   3.652   3.819 -0.3272  0.3963  0.4842
  154MOL0     C20674  10.197   3.758   3.865 -0.8695 -0.5322  0.3617
  154MOL0     C20675  10.335   3.801   3.820 -0.0593 -0.1661  0.5547
  154MOL0     C20676  10.448   3.745   3.916 -1.2081 -0.5157 -0.0570
  154MOL0     C20677  10.468   3.831   4.037 -0.6833 -0.2910  0.0008
  154MOL0     C20678  10.561   3.765   4.141  0.2148 -0.4490  0.5733
  154MOL0     O20679  10.579   3.864   4.242  0.4365  0.6601  0.0436
  154MOL0     C20680  10.642   3.815   4.350  0.2017  0.7771 -0.1859
  154MOL0     C20681  10.716   3.912   4.422  0.3038  0.0862  0.8283
  154MOL0     C20682  10.782   3.886   4.537  0.6712 -1.1724  0.1703
  154MOL0     C20683  10.848   3.997   4.603 -0.0836 -0.2546 -0.5832
  154MOL0     C20684  10.777   3.750   4.590  0.2541 -0.0206  0.4936
  154MOL0     C20685  10.844   3.697   4.709 -0.7705  0.1999  0.3803
  154MOL0     O20686  10.834   3.565   4.735  1.3103  0.0767 -0.6397
  154MOL0     C20687  10.906   3.496   4.826  0.3940 -0.5381 -1.1852
  154MOL0     C20688  11.037   3.532   4.827  0.2368 -0.1217  0.1340
  154MOL0     C20689  11.131   3.462   4.906  0.6843  0.3399  0.1881
  154MOL0     C20690  11.098   3.356   4.985 -0.0295  0.2755  1.0109
  154MOL0     O20691  11.199   3.283   5.046 -0.1331  0.2600 -0.2104
  154MOL0     C20692  11.193   3.140   5.046  0.7512 -0.1033  1.5067
  154MOL0     C20693  11.325   3.049   5.072  0.2058 -0.4042 -0.1362
  154MOL0     C20694  11.364   3.078   5.217  0.3947 -0.0482 -0.1178
  154MOL0     C20695  11.509   3.050   5.247 -0.4633 -0.7740 -0.1244
  154MOL0     C20696  11.516   2.992   5.397 -0.4976  0.2975  0.0021
  154MOL0     C20697  11.650   2.923   5.425  0.2643  0.6615 -1.2655
  154MOL0     C20698  11.658   2.848   5.556  0.1626  0.5422 -0.0890
  154MOL0     C20699  11.803   2.784   5.572  0.4719  0.1611 -0.4848
  154MOL0    Cl20700  11.802   2.624   5.507 -0.1694  0.4994  0.2148
  154MOL0     C20701  10.960   3.316   4.985  0.6780  0.2482 -0.2497
  154MOL0     C20702  10.862   3.386   4.905  0.0207  0.3449 -1.2831
  154MOL0     O20703  10.899   3.785   4.779 -0.0490  0.1621  0.4205
  154MOL0     C20704  10.712   3.651   4.510  0.6138  0.4080 -0.1172
  154MOL0     C20705  10.646   3.680   4.394  0.5444  0.6301  0.7194
  154MOL0     N20706  10.119   3.820   3.960  0.3602  0.1704 -0.4217
  154MOL0     N20707  10.003   3.760   3.965 -0.5129  0.1885  0.0938
  154MOL0     C20708  10.159   3.751   3.054  0.4449  0.7470  0.0023
  154MOL0     C20709  10.257   3.714   2.960  0.0015 -0.3047  0.0280
  154MOL0     C20710  10.643   3.495   2.811  0.3807  0.8504 -0.3838
  154MOL0     C20711  10.629   3.543   2.685  0.1954 -0.3145 -0.0255
  154MOL0     C20712  10.739   3.542   2.598 -0.3102 -1.2529 -0.4997
  154MOL0     C20713  10.865   3.483   2.634 -0.2513 -0.6055 -0.3420
  154MOL0     O20714  10.964   3.483   2.545  0.0903 -0.0527 -0.0163
  154MOL0     C20715  10.934   3.430   2.418 -0.6530  0.8988 -0.5326
  154MOL0     C20716  11.038   3.479   2.318  1.1800 -0.8249  0.4304
  154MOL0     C20717  11.021   3.629   2.299  0.3445 -0.3217  0.0088
  154MOL0     C20718  11.081   3.679   2.160 -0.4573  0.1387 -0.2989
  154MOL0     C20719  11.232   3.642   2.154  0.0054 -0.8266 -0.5060
  154MOL0     C20720  11.346   3.603   2.134  0.0288 -0.6246 -0.5325
  154MOL0     C20721  10.883   3.431   2.759 -0.0058  0.0671 -0.2623
  154MOL0     C20722  10.770   3.438   2.842  0.4641 -0.0008 -0.1735
  154MOL0     H20723  10.285   3.379   3.039  0.2718 -0.3762  0.5890
  154MOL0     H20724  10.099   3.447   3.166 -0.9305  0.4510 -0.5260
  154MOL0     H20725   9.882   3.819   3.218 -1.2822  2.8848 -3.1518
  154MOL0     H20726   9.921   3.761   3.058  2.9261  0.0837  1.0509
  154MOL0     H20727   9.690   3.736   3.133  0.2594 -0.4135 -1.8778
  154MOL0     H20728   9.742   3.566   3.096  2.1025 -0.6221 -1.8913
  154MOL0     H20729   9.597   3.586   3.306 -0.2823  1.1788  0.9874
  154MOL0     H20730   9.749   3.512   3.331 -2.5010 -1.2312 -0.2994
  154MOL0     H20731   9.835   3.741   3.426  0.5937 -0.7930 -2.1553
  154MOL0     H20732   9.671   3.802   3.388 -0.5308 -1.1081 -3.3354
  154MOL0     H20733   9.640   3.752   3.626  3.3742  1.2134 -0.4714
  154MOL0     H20734   9.613   3.583   3.571 -2.5739  1.5015  0.1137
  154MOL0     H20735   9.853   3.544   3.581  2.7689  1.3567  0.3219
  154MOL0     H20736   9.875   3.712   3.646 -1.0528 -0.5152  3.4320
  154MOL0     H20737   9.731   3.654   3.839 -1.0810 -1.7703  0.4284
  154MOL0     H20738   9.724   3.491   3.776  1.4884 -1.4392 -2.1996
  154MOL0     H20739   9.956   3.458   3.818 -0.7719 -0.9813  3.1862
  154MOL0     H20740   9.887   3.518   3.965  1.4465  3.2071  1.1120
  154MOL0     H20741  10.158   3.582   3.741  0.9427  1.2890  0.0512
  154MOL0     H20742  10.346   3.779   3.714 -3.9151 -0.7297  0.1460
  154MOL0     H20743  10.345   3.910   3.821  1.7830 -0.2446 -1.0757
  154MOL0     H20744  10.546   3.755   3.869 -1.9834  2.3407 -1.2632
  154MOL0     H20745  10.422   3.644   3.950  1.3816 -0.6894  1.7589
  154MOL0     H20746  10.364   3.853   4.064 -2.4473 -4.0610 -2.7302
  154MOL0     H20747  10.508   3.930   4.016  2.3540 -1.4734 -0.2646
  154MOL0     H20748  10.649   3.716   4.099  1.2880  2.1444 -0.4392
  154MOL0     H20749  10.509   3.674   4.172  2.2632 -4.1722 -5.2636
  154MOL0     H20750  10.719   4.005   4.367 -2.4933 -0.6294 -0.7444
  154MOL0     H20751  10.939   3.968   4.657 -0.5607 -0.6834  0.0100
  154MOL0     H20752  10.881   4.077   4.536 -2.5628  2.1344  0.8105
  154MOL0     H20753  10.779   4.048   4.672 -1.3273 -0.2716 -1.7707
  154MOL0     H20754  11.078   3.614   4.768 -0.5125  1.6129  1.9160
  154MOL0     H20755  11.234   3.487   4.887  1.4120 -1.2037  1.7450
  154MOL0     H20756  11.114   3.116   5.118 -1.7512  0.1002 -0.9854
  154MOL0     H20757  11.163   3.101   4.948 -0.9427  0.4303  1.7822
  154MOL0     H20758  11.311   2.942   5.058  2.0906 -0.6071 -0.7084
  154MOL0     H20759  11.405   3.068   5.000  1.5262 -1.5749  0.9690
  154MOL0     H20760  11.298   3.011   5.273  1.4664 -0.0234  1.2271
  154MOL0     H20761  11.340   3.181   5.248 -1.9200 -0.3203 -0.8154
  154MOL0     H20762  11.552   2.981   5.173  1.5185 -0.7591  0.9419
  154MOL0     H20763  11.569   3.142   5.246 -0.8558 -0.5001  0.6813
  154MOL0     H20764  11.428   2.932   5.424  0.1863 -0.3722  0.8251
  154MOL0     H20765  11.491   3.086   5.448 -4.1463  3.0351 -5.8148
  154MOL0     H20766  11.665   2.849   5.346 -0.9059 -2.9038  1.5453
  154MOL0     H20767  11.730   2.997   5.418  0.9458 -0.2209 -4.0117
  154MOL0     H20768  11.591   2.761   5.551  1.4471 -0.5414  0.7561
  154MOL0     H20769  11.637   2.913   5.642  1.3081 -0.7893  1.2707
  154MOL0     H20770  11.819   2.773   5.680  0.3569 -2.7347 -0.6894
  154MOL0     H20771  11.868   2.854   5.519 -0.8160  0.2034 -2.1030
  154MOL0     H20772  10.942   3.239   5.060 -2.3772 -0.2657 -1.3741
  154MOL0     H20773  10.758   3.357   4.906  0.5153 -1.6257 -0.6331
  154MOL0     H20774  10.705   3.550   4.548  0.9549  0.3069 -0.3206
  154MOL0     H20775  10.594   3.610   4.331  0.5580  1.9809 -0.8470
  154MOL0     H20776  10.118   3.850   3.068 -2.8128 -0.7717  2.7225
  154MOL0     H20777  10.295   3.790   2.893  0.7028  0.0344  0.7958
  154MOL0     H20778  10.532   3.575   2.648  0.3441  1.4275  1.0067
  154MOL0     H20779  10.734   3.610   2.513 -0.2532 -2.4194 -1.4575
  154MOL0     H20780  10.942   3.322   2.431 -0.1110  0.8307 -1.3572
  154MOL0     H20781  10.837   3.452   2.374 -2.5938 -2.6261  1.5538
  154MOL0     H20782  11.009   3.424   2.228  1.2951 -0.4912  0.1904
  154MOL0     H20783  11.138   3.442   2.347  1.4394 -0.8565 -0.4879
  154MOL0     H20784  11.083   3.678   2.374  0.4948  1.0276 -0.9690
  154MOL0     H20785  10.916   3.658   2.306  0.2864 -0.2818 -0.8472
  154MOL0     H20786  11.077   3.788   2.153 -0.7981  0.1975  0.7388
  154MOL0     H20787  11.028   3.641   2.072 -0.3902 -3.0042  0.8754
  154MOL0     H20788  11.449   3.573   2.134  0.4100  0.4054  2.1468
  154MOL0     H20789  10.974   3.376   2.779 -0.4657 -1.1551 -1.4199
  154MOL0     H20790  10.793   3.395   2.939  0.9438  1.6485  0.4807
  155MOL0     O20791   6.768   0.433   5.710 -0.2092  0.1993  0.2363
  155MOL0     C20792   6.853   0.341   5.727 -0.2049 -0.4320 -0.1173
  155MOL0     O20793   6.837   0.204   5.698  0.3380 -0.4162  0.7315
  155MOL0     C20794   6.741   0.161   5.615 -0.2515 -0.7083 -0.0615
  155MOL0     C20795   6.759   0.080   5.498 -0.3563 -0.4206  0.9321
  155MOL0     C20796   6.653   0.032   5.426 -0.1842  0.4076 -0.6717
  155MOL0     C20797   6.525   0.051   5.473  0.3756 -0.4280 -0.3167
  155MOL0     O20798   6.435  -0.005   5.384  0.1339  0.4023  0.1436
  155MOL0     C20799   6.310  -0.026   5.436  0.2501  0.0940 -0.1228
  155MOL0     C20800   6.301  -0.129   5.554  0.3677  0.3832 -0.1822
  155MOL0     C20801   6.163  -0.183   5.602 -0.8132 -0.1117  0.2802
  155MOL0     C20802   6.059  -0.209   5.496 -0.5252 -0.2193  0.1503
  155MOL0     C20803   5.933  -0.285   5.534 -0.0338 -0.1236 -0.7141
  155MOL0     C20804   5.946  -0.426   5.575  0.6664  0.6303 -0.6595
  155MOL0     C20805   6.061  -0.500   5.499  0.6749  0.3981 -0.4727
  155MOL0     C20806   6.052  -0.651   5.535  0.3964 -0.4216 -0.3055
  155MOL0     N20807   6.183  -0.704   5.499  0.0515  0.7505  0.2043
  155MOL0     C20808   6.282  -0.744   5.589  0.5127 -0.1599 -1.1788
  155MOL0     C20809   6.383  -0.768   5.494  0.7067 -0.0739 -1.2857
  155MOL0     C20810   6.488  -0.866   5.539  0.1729  0.1038  0.0914
  155MOL0     C20811   6.623  -0.818   5.493  0.0385 -0.7586  0.2766
  155MOL0     C20812   6.738  -0.917   5.543  0.0323 -0.8921 -0.0453
  155MOL0     C20813   6.763  -0.886   5.689  0.3793  0.5141 -0.6583
  155MOL0     O20814   6.859  -0.783   5.698  0.0008 -1.1662 -0.1302
  155MOL0     C20815   6.897  -0.718   5.812  0.2512 -0.0840  0.3080
  155MOL0     C20816   6.847  -0.751   5.938  0.3661 -0.1262  0.0014
  155MOL0     C20817   6.905  -0.699   6.059 -0.3755 -0.3017  0.3160
  155MOL0     C20818   6.851  -0.750   6.190 -0.4297 -0.4613 -0.0851
  155MOL0     C20819   7.006  -0.596   6.050  0.5286 -1.0324 -1.2130
  155MOL0     C20820   7.072  -0.532   6.168  1.9644 -0.1219  0.4922
  155MOL0     O20821   7.171  -0.447   6.137 -0.1626 -0.6733 -0.4455
  155MOL0     C20822   7.237  -0.406   6.248  0.0141 -0.2244  0.6095
  155MOL0     C20823   7.192  -0.285   6.313 -0.6372  0.2065  0.4838
  155MOL0     C20824   7.260  -0.229   6.416 -0.3363  0.1564 -0.2086
  155MOL0     C20825   7.363  -0.296   6.469  0.4127  0.6931 -0.6042
  155MOL0     O20826   7.425  -0.259   6.589  0.1878 -0.0085  0.8231
  155MOL0     C20827   7.506  -0.140   6.589  0.5785  0.4121  0.4418
  155MOL0     C20828   7.636  -0.163   6.658  0.0277 -0.2579 -1.1871
  155MOL0     C20829   7.636  -0.122   6.809 -0.5209 -0.0962 -0.6551
  155MOL0     C20830   7.547  -0.194   6.912 -0.2202  0.4771  0.2597
  155MOL0     C20831   7.564  -0.155   7.061  0.5525  0.0764  0.0693
  155MOL0     C20832   7.711  -0.156   7.117 -0.4219  0.6652  0.4997
  155MOL0     C20833   7.770  -0.291   7.168  0.7912 -0.3279  1.1092
  155MOL0     C20834   7.734  -0.314   7.322 -0.2280 -0.1729  0.8601
  155MOL0    Cl20835   7.799  -0.472   7.370  0.1427  0.4979 -0.2571
  155MOL0     C20836   7.410  -0.418   6.422  0.7500  0.1142  0.1408
  155MOL0     C20837   7.345  -0.474   6.309 -0.4461 -0.6090  0.7672
  155MOL0     O20838   7.014  -0.539   6.281 -0.9312 -0.6727 -0.2296
  155MOL0     C20839   7.041  -0.555   5.925  0.1401  0.2151  1.0781
  155MOL0     C20840   6.994  -0.620   5.803  0.7616  1.0251 -0.2318
  155MOL0     N20841   6.340  -0.748   5.371 -0.8162 -0.1516 -0.1350
  155MOL0     N20842   6.229  -0.709   5.373 -0.3779 -1.5604 -0.1072
  155MOL0     C20843   6.506   0.139   5.574 -0.2376 -0.5888 -1.1567
  155MOL0     C20844   6.613   0.185   5.655  0.1972  0.3347 -0.7320
  155MOL0     C20845   6.977   0.386   5.792 -0.0798 -0.2376  1.2885
  155MOL0     C20846   6.974   0.468   5.900 -0.1359  0.7408  0.0473
  155MOL0     C20847   7.089   0.496   5.968  0.5397 -0.8176 -0.2509
  155MOL0     C20848   7.213   0.431   5.930  0.7644 -0.5139 -0.5665
  155MOL0     O20849   7.334   0.469   5.983 -0.4797 -0.1785  0.3488
  155MOL0     C20850   7.396   0.594   5.956  1.4496 -0.7219 -0.2477
  155MOL0     C20851   7.528   0.594   6.026  0.2528 -0.0021 -0.9373
  155MOL0     C20852   7.578   0.732   6.017  0.5035 -0.1833  0.5397
  155MOL0     C20853   7.680   0.759   6.130 -0.1829  0.2674  0.0427
  155MOL0     C20854   7.800   0.667   6.135  0.6418 -0.6583 -0.1497
  155MOL0     C20855   7.906   0.608   6.145  0.1282  0.7003  1.1170
  155MOL0     C20856   7.217   0.359   5.809 -0.5896 -0.2873  0.4428
  155MOL0     C20857   7.100   0.341   5.738  0.2857  0.9526  0.3978
  155MOL0     H20858   6.863   0.058   5.476 -0.7593  0.2318 -2.0254
  155MOL0     H20859   6.669  -0.044   5.351 -2.5704  0.3710 -1.2231
  155MOL0     H20860   6.276   0.075   5.461 -0.2287  0.3437 -1.7040
  155MOL0     H20861   6.238  -0.064   5.363  0.7421 -1.0498 -0.0271
  155MOL0     H20862   6.361  -0.219   5.537 -0.2145 -0.0970  0.2791
  155MOL0     H20863   6.367  -0.089   5.632  2.2949 -0.9702 -1.0340
  155MOL0     H20864   6.194  -0.275   5.653 -0.5262  0.1762  0.6363
  155MOL0     H20865   6.125  -0.112   5.677  0.1397  2.1734 -1.2834
  155MOL0     H20866   6.028  -0.110   5.460  1.6575  0.0924 -1.0766
  155MOL0     H20867   6.115  -0.260   5.418 -0.8767 -1.8735  0.9301
  155MOL0     H20868   5.880  -0.231   5.613 -0.2547 -0.6321 -0.5125
  155MOL0     H20869   5.863  -0.271   5.451  0.8872 -3.2017 -2.1648
  155MOL0     H20870   5.957  -0.439   5.683 -3.5101  0.8157 -0.0414
  155MOL0     H20871   5.849  -0.472   5.553  0.5689  0.2678  0.4632
  155MOL0     H20872   6.053  -0.494   5.390  0.8764 -1.5654 -0.6330
  155MOL0     H20873   6.159  -0.464   5.531  0.7729 -1.6574  1.7664
  155MOL0     H20874   5.977  -0.703   5.474  0.0301 -1.4290  0.9458
  155MOL0     H20875   6.026  -0.656   5.641  0.9017 -4.4578 -0.2153
  155MOL0     H20876   6.288  -0.776   5.693 -1.9229  2.5865 -0.0732
  155MOL0     H20877   6.489  -0.887   5.647  0.1794  0.9625  0.2625
  155MOL0     H20878   6.460  -0.949   5.473  0.9559  1.3985 -1.9554
  155MOL0     H20879   6.636  -0.721   5.541  1.4669 -0.9925  0.3951
  155MOL0     H20880   6.625  -0.800   5.385  0.4333 -0.0033  0.4032
  155MOL0     H20881   6.827  -0.895   5.484  1.2205 -1.0763  1.6203
  155MOL0     H20882   6.700  -1.015   5.512  0.7309 -1.1945  0.0386
  155MOL0     H20883   6.803  -0.974   5.739 -4.0361 -0.5955  1.4681
  155MOL0     H20884   6.673  -0.862   5.746  1.9821  4.1422  0.6649
  155MOL0     H20885   6.763  -0.820   5.942 -0.2289  0.6155  2.8854
  155MOL0     H20886   6.763  -0.814   6.178  0.8025 -2.2300  0.0523
  155MOL0     H20887   6.924  -0.810   6.245 -1.2656 -0.3112  1.2584
  155MOL0     H20888   6.813  -0.669   6.254 -0.0168 -2.2941  2.6532
  155MOL0     H20889   7.108  -0.243   6.260 -2.2340 -3.4751 -0.1858
  155MOL0     H20890   7.227  -0.143   6.475  1.7482 -0.0378  1.3209
  155MOL0     H20891   7.534  -0.122   6.485 -1.3996  0.2871 -0.1541
  155MOL0     H20892   7.454  -0.056   6.635  0.8644  0.9484 -0.1898
  155MOL0     H20893   7.676  -0.262   6.634  2.8730 -0.1052  2.1951
  155MOL0     H20894   7.706  -0.100   6.602 -0.2474  0.4291 -0.7616
  155MOL0     H20895   7.620  -0.015   6.824  0.8862 -0.0299  0.6059
  155MOL0     H20896   7.741  -0.132   6.839 -0.1407  1.6895 -1.2141
  155MOL0     H20897   7.442  -0.183   6.886 -0.6912 -2.5078  0.5423
  155MOL0     H20898   7.576  -0.300   6.905  0.4901  0.7790 -2.6387
  155MOL0     H20899   7.507  -0.232   7.114 -1.9585  0.8957 -1.2749
  155MOL0     H20900   7.514  -0.058   7.076  0.2292 -0.2124  0.8941
  155MOL0     H20901   7.778  -0.109   7.044  0.1835 -1.7035 -0.5625
  155MOL0     H20902   7.706  -0.101   7.212  1.6973 -2.7080  2.7720
  155MOL0     H20903   7.879  -0.297   7.168  0.8037 -2.6252  4.0851
  155MOL0     H20904   7.735  -0.371   7.101  0.6757  2.9271 -3.1409
  155MOL0     H20905   7.626  -0.323   7.328 -0.2470  0.2513  1.2185
  155MOL0     H20906   7.770  -0.226   7.377  0.6885 -1.3985  2.3283
  155MOL0     H20907   7.492  -0.464   6.476  0.7508  1.9723  1.8660
  155MOL0     H20908   7.376  -0.572   6.275  1.8418  0.2925  0.0661
  155MOL0     H20909   7.108  -0.471   5.910 -3.6424  2.9400 -3.0347
  155MOL0     H20910   7.021  -0.601   5.700 -1.0100 -1.8771 -1.3491
  155MOL0     H20911   6.414   0.192   5.594  0.1024 -0.0874 -0.9017
  155MOL0     H20912   6.598   0.241   5.747  1.4976  1.8172 -1.3721
  155MOL0     H20913   6.879   0.488   5.949 -1.6322 -2.9268 -1.0069
  155MOL0     H20914   7.087   0.544   6.066  0.3076 -1.1859 -0.0714
  155MOL0     H20915   7.391   0.619   5.849 -2.2643  2.2907  0.3931
  155MOL0     H20916   7.329   0.666   6.003  1.3123 -2.0346  1.7057
  155MOL0     H20917   7.602   0.524   5.988  2.1898  0.6169  1.4237
  155MOL0     H20918   7.519   0.566   6.131  2.2271 -0.8387 -0.9468
  155MOL0     H20919   7.499   0.806   6.035  0.4166 -0.4024  1.0646
  155MOL0     H20920   7.624   0.759   5.922  1.1448  0.7590  1.0937
  155MOL0     H20921   7.627   0.777   6.224 -1.9508  0.4892 -0.9415
  155MOL0     H20922   7.724   0.857   6.108  1.2975  0.3851  2.9494
  155MOL0     H20923   8.002   0.561   6.151 -0.4276 -0.4898  0.9337
  155MOL0     H20924   7.313   0.324   5.771 -0.5262 -0.9236  1.1521
  155MOL0     H20925   7.104   0.286   5.644  1.2152  0.8666  0.4786
  156MOL0     O20926   8.880   9.777   0.106 -0.3021 -0.2305 -0.1348
  156MOL0     C20927   8.976   9.736   0.175 -0.4841  0.5130 -0.5798
  156MOL0     O20928   9.103   9.740   0.143 -0.9124 -0.7493  0.3915
  156MOL0     C20929   9.139   9.779   0.011 -0.3902  0.2756 -0.3685
  156MOL0     C20930   9.245   9.709  -0.047 -0.6211 -0.0711 -0.6330
  156MOL0     C20931   9.289   9.730  -0.172  0.7446  0.6513 -0.6598
  156MOL0     C20932   9.223   9.820  -0.254 -0.4417 -0.2460 -0.1109
  156MOL0     O20933   9.263   9.842  -0.381  0.3219 -0.4564  0.0992
  156MOL0     C20934   9.239   9.749  -0.491  0.6704  0.0316  0.3631
  156MOL0     C20935   9.091   9.724  -0.516  0.4734  0.0898 -0.5975
  156MOL0     C20936   9.017   9.860  -0.544 -0.4325  0.3666  0.5851
  156MOL0     C20937   8.879   9.820  -0.593  0.1035 -0.7319  0.3858
  156MOL0     C20938   8.787   9.746  -0.481 -0.0879  0.1699  0.6570
  156MOL0     C20939   8.747   9.852  -0.373 -1.6837  0.3321 -0.2436
  156MOL0     C20940   8.681   9.798  -0.245  0.3998  0.2181 -0.2558
  156MOL0     C20941   8.644   9.903  -0.144 -0.3022 -1.0479  0.2607
  156MOL0     N20942   8.565  10.011  -0.197 -0.5492  0.9682  1.2722
  156MOL0     C20943   8.428  10.002  -0.210 -0.5697  0.4272  0.5004
  156MOL0     C20944   8.380  10.122  -0.242 -0.1559  0.6747 -0.4236
  156MOL0     C20945   8.242  10.167  -0.302 -1.0955  0.8472 -0.1342
  156MOL0     C20946   8.173  10.266  -0.208 -0.1740  0.3875  0.9586
  156MOL0     C20947   8.020  10.238  -0.215  0.4096 -0.2635  0.3283
  156MOL0     C20948   7.929  10.353  -0.183  0.6461  0.9355 -0.2158
  156MOL0     O20949   7.980  10.477  -0.240  0.1391  0.2287 -0.7053
  156MOL0     C20950   7.938  10.593  -0.173  0.5259  0.2034 -0.2401
  156MOL0     C20951   8.021  10.700  -0.183  0.6834 -1.1224 -0.9567
  156MOL0     C20952   7.996  10.829  -0.127  0.2258 -1.1178 -0.4264
  156MOL0     C20953   8.081  10.943  -0.181 -0.2076 -0.5449  0.5208
  156MOL0     C20954   7.889  10.835  -0.035  0.7959  0.0675  0.1688
  156MOL0     C20955   7.841  10.962   0.037 -0.7395  0.1093 -0.4147
  156MOL0     O20956   7.893  11.082  -0.001  0.6723  0.3478  0.5797
  156MOL0     C20957   7.870  11.201   0.065  0.8040 -1.1524 -0.3269
  156MOL0     C20958   7.816  11.319   0.005 -0.0203  0.7281 -0.8090
  156MOL0     C20959   7.808  11.437   0.079  0.0514  0.6582 -0.2482
  156MOL0     C20960   7.869  11.448   0.206 -0.2888  0.8572  0.8592
  156MOL0     O20961   7.857  11.566   0.273  0.0645  0.0203 -0.2946
  156MOL0     C20962   7.762  11.571   0.369  0.0118 -1.2529  0.2612
  156MOL0     C20963   7.716  11.713   0.409  0.1137  0.0606 -0.1925
  156MOL0     C20964   7.743  11.826   0.304  0.4444  0.0297 -0.4442
  156MOL0     C20965   7.717  11.965   0.362  0.2682  0.3934 -0.2017
  156MOL0     C20966   7.830  12.060   0.306 -0.2211 -0.4341  0.0160
  156MOL0     C20967   7.831  12.201   0.374 -0.5871 -0.9736 -0.1142
  156MOL0     C20968   7.877  12.209   0.518 -0.0351  0.1134 -0.3844
  156MOL0     C20969   8.026  12.212   0.550  0.5449  1.0338  0.1363
  156MOL0    Cl20970   8.089  12.370   0.485 -0.2074 -0.7668  0.1713
  156MOL0     C20971   7.921  11.331   0.264 -0.1470 -0.1605  0.2011
  156MOL0     C20972   7.924  11.208   0.193 -0.8040 -0.6640 -0.7915
  156MOL0     O20973   7.745  10.956   0.112 -0.4894  0.3961  0.2268
  156MOL0     C20974   7.812  10.725  -0.021 -0.9806  0.3841  0.7372
  156MOL0     C20975   7.831  10.600  -0.078  0.7265 -0.2953 -0.1527
  156MOL0     N20976   8.497  10.208  -0.255 -0.5857  0.5586 -0.4422
  156MOL0     N20977   8.597  10.140  -0.222 -0.3869  0.0605  0.0668
  156MOL0     C20978   9.133   9.911  -0.188 -1.6218 -0.8832 -0.0631
  156MOL0     C20979   9.082   9.883  -0.061  0.6413 -0.4180 -0.2017
  156MOL0     C20980   8.931   9.685   0.313 -0.4554  0.1273  0.4985
  156MOL0     C20981   9.027   9.619   0.393 -0.6058 -0.0590 -0.1495
  156MOL0     C20982   8.997   9.569   0.521 -0.0458 -0.5301  0.3357
  156MOL0     C20983   8.861   9.587   0.564 -0.5460 -0.3831  0.7101
  156MOL0     O20984   8.827   9.538   0.689  1.2553 -0.2411  0.2568
  156MOL0     C20985   8.900   9.438   0.768  0.5688  0.8712 -0.4753
  156MOL0     C20986   8.987   9.509   0.864 -0.4107 -0.7336 -0.9017
  156MOL0     C20987   8.899   9.604   0.961 -0.1037 -0.1674  0.0193
  156MOL0     C20988   8.958   9.750   0.971 -0.6140 -0.2424  0.1867
  156MOL0     C20989   8.912   9.824   1.091  0.7593 -0.1332 -0.1637
  156MOL0     C20990   8.874   9.863   1.200  0.2991  0.1458 -0.8066
  156MOL0     C20991   8.767   9.661   0.483 -0.3909 -0.2787 -0.2078
  156MOL0     C20992   8.804   9.708   0.354  1.0338  0.0953 -0.2601
  156MOL0     H20993   9.297   9.652   0.029 -0.1619  1.4486  0.2350
  156MOL0     H20994   9.387   9.693  -0.201  0.9819  1.1832 -0.5653
  156MOL0     H20995   9.285   9.797  -0.578  2.6566 -1.1639  0.7014
  156MOL0     H20996   9.278   9.651  -0.466  1.0142  0.2173  0.5509
  156MOL0     H20997   9.093   9.661  -0.605 -0.3819  2.1578 -2.1512
  156MOL0     H20998   9.039   9.674  -0.434  0.3553  0.8511 -0.1951
  156MOL0     H20999   9.003   9.925  -0.457 -3.1888  1.7585 -0.7596
  156MOL0     H21000   9.069   9.915  -0.623 -1.4929 -0.1699 -0.5310
  156MOL0     H21001   8.826   9.904  -0.639 -0.5188 -1.3470 -0.0437
  156MOL0     H21002   8.894   9.748  -0.674 -2.2530 -0.3288 -0.4910
  156MOL0     H21003   8.700   9.703  -0.532  1.3210 -1.4328 -0.4990
  156MOL0     H21004   8.842   9.666  -0.430  1.1598  0.3999 -0.2781
  156MOL0     H21005   8.840   9.906  -0.351  0.4146 -2.5119 -1.6112
  156MOL0     H21006   8.686   9.920  -0.433 -0.2827  0.5321 -1.4994
  156MOL0     H21007   8.589   9.748  -0.275 -1.9652  2.9507  1.8630
  156MOL0     H21008   8.735   9.717  -0.195  1.6745  1.1484 -0.0715
  156MOL0     H21009   8.734   9.950  -0.106 -0.8069  1.0090 -0.9503
  156MOL0     H21010   8.581   9.859  -0.066 -1.7876  1.2613  0.4571
  156MOL0     H21011   8.372   9.909  -0.199  0.5036 -0.2179  0.6263
  156MOL0     H21012   8.270  10.207  -0.400  3.4421 -1.5625 -0.1081
  156MOL0     H21013   8.182  10.076  -0.309  1.9222 -1.5401  2.0162
  156MOL0     H21014   8.188  10.372  -0.230 -1.2475  0.6357  1.3729
  156MOL0     H21015   8.212  10.253  -0.107  1.1572  1.1962  0.5713
  156MOL0     H21016   8.004  10.153  -0.148  0.2164 -0.5681 -0.0997
  156MOL0     H21017   7.998  10.203  -0.316  1.4101  1.5695 -0.5721
  156MOL0     H21018   7.924  10.356  -0.074 -0.1635 -1.3872 -0.1260
  156MOL0     H21019   7.829  10.329  -0.220  0.8825  1.7913 -1.4675
  156MOL0     H21020   8.103  10.670  -0.248  0.6891 -2.5231 -0.3326
  156MOL0     H21021   8.024  11.018  -0.237  0.9260  0.1399  0.2596
  156MOL0     H21022   8.143  10.979  -0.099  0.4944 -0.1843 -0.1626
  156MOL0     H21023   8.151  10.899  -0.252  1.5476  1.5142  0.8668
  156MOL0     H21024   7.791  11.328  -0.100 -0.3376 -4.4943 -1.4429
  156MOL0     H21025   7.754  11.522   0.037 -1.8095 -1.5714 -2.7005
  156MOL0     H21026   7.673  11.521   0.330 -2.4208  0.8757  2.6527
  156MOL0     H21027   7.795  11.520   0.461  0.1526 -0.2290  0.7922
  156MOL0     H21028   7.609  11.705   0.431 -0.4900  1.3247 -2.4459
  156MOL0     H21029   7.772  11.741   0.499  0.2822 -1.1026  0.0868
  156MOL0     H21030   7.682  11.806   0.216  0.7096  3.3364 -1.4895
  156MOL0     H21031   7.847  11.824   0.271  1.1585 -2.5841  1.5929
  156MOL0     H21032   7.614  11.991   0.337 -1.0854 -2.2013  2.1794
  156MOL0     H21033   7.715  11.955   0.470 -0.8847 -1.4831 -0.3531
  156MOL0     H21034   7.838  12.075   0.198  0.7595 -2.2778 -0.2141
  156MOL0     H21035   7.929  12.020   0.329  0.0849  1.3278  1.9953
  156MOL0     H21036   7.894  12.262   0.308 -1.1625  0.1735  0.3553
  156MOL0     H21037   7.728  12.236   0.365 -1.1205 -2.6464 -0.8324
  156MOL0     H21038   7.828  12.136   0.584 -0.6671 -0.6212 -1.6318
  156MOL0     H21039   7.845  12.310   0.546 -1.4262 -0.4265  0.0377
  156MOL0     H21040   8.088  12.130   0.512  0.7475  0.6480  1.2653
  156MOL0     H21041   8.041  12.209   0.658  1.8597  1.4308 -0.0100
  156MOL0     H21042   7.954  11.338   0.367 -0.8969  3.2519  0.3320
  156MOL0     H21043   7.957  11.111   0.229  0.8894  0.1181 -0.1687
  156MOL0     H21044   7.730  10.736   0.048 -0.8049  3.5846  0.5751
  156MOL0     H21045   7.768  10.514  -0.060  2.2019 -1.6560 -1.1582
  156MOL0     H21046   9.124  10.011  -0.231  0.6927 -1.1773 -1.3937
  156MOL0     H21047   9.013   9.957  -0.022 -0.0499 -0.7213 -0.8486
  156MOL0     H21048   9.125   9.600   0.350 -0.6918  2.1439 -1.4876
  156MOL0     H21049   9.065   9.509   0.580 -0.8658 -0.7161  1.1064
  156MOL0     H21050   8.826   9.371   0.812  3.1350 -2.3707 -0.7616
  156MOL0     H21051   8.968   9.377   0.708  2.3286 -0.0686  2.2774
  156MOL0     H21052   9.056   9.575   0.811 -2.1324  0.2581 -2.0166
  156MOL0     H21053   9.045   9.446   0.931 -0.3884 -0.9792 -1.1523
  156MOL0     H21054   8.900   9.565   1.064  1.0420  2.6198  1.1548
  156MOL0     H21055   8.797   9.612   0.923  0.1870  0.9136 -0.5435
  156MOL0     H21056   8.921   9.791   0.877 -1.1060 -3.6724 -1.2915
  156MOL0     H21057   9.067   9.750   0.974 -0.6102  1.1490  1.1642
  156MOL0     H21058   8.846   9.905   1.295  2.2494  0.2605 -0.2465
  156MOL0     H21059   8.667   9.677   0.521 -1.2607  0.7529 -2.6918
  156MOL0     H21060   8.735   9.774   0.302  1.7904  0.5247 -0.7354
  157MOL0     O21061   7.717   2.840   6.913  0.4201 -0.9214  0.5425
  157MOL0     C21062   7.725   2.962   6.897  0.0854  0.6125 -0.2951
  157MOL0     O21063   7.817   3.020   6.824 -0.7724  0.7114  0.5753
  157MOL0     C21064   7.911   2.955   6.753 -1.0185  0.3308 -0.2169
  157MOL0     C21065   8.046   2.995   6.767 -0.1142 -0.4724  0.0180
  157MOL0     C21066   8.141   2.915   6.701 -0.1785  0.2864  0.0660
  157MOL0     C21067   8.111   2.801   6.626  0.0615  0.1466 -0.0395
  157MOL0     O21068   8.212   2.733   6.573  0.4288 -0.1085  0.4589
  157MOL0     C21069   8.202   2.653   6.452  0.3463 -1.4973  0.1108
  157MOL0     C21070   8.339   2.681   6.374 -0.1445  0.5035  0.0454
  157MOL0     C21071   8.332   2.625   6.238 -0.1602 -0.6375 -0.2819
  157MOL0     C21072   8.464   2.636   6.154  0.3091 -0.8355  0.3980
  157MOL0     C21073   8.582   2.564   6.217 -0.0465 -0.4512 -0.1276
  157MOL0     C21074   8.684   2.539   6.106 -0.6615  0.2912  0.7169
  157MOL0     C21075   8.758   2.662   6.050 -0.7250  0.3322 -0.6469
  157MOL0     C21076   8.724   2.708   5.916 -0.0369  0.0503 -0.0617
  157MOL0     N21077   8.728   2.850   5.896  0.5976 -0.1128  0.3672
  157MOL0     C21078   8.652   2.939   5.958  0.2682  0.3027  0.9433
  157MOL0     C21079   8.685   3.061   5.895  0.2876 -0.0346  0.0080
  157MOL0     C21080   8.621   3.191   5.905 -0.6298  0.8839  0.2925
  157MOL0     C21081   8.671   3.261   6.033 -0.2368  0.2019 -0.1436
  157MOL0     C21082   8.633   3.411   6.038  0.9737 -0.6480 -0.1450
  157MOL0     C21083   8.707   3.480   6.154  0.3869  1.2812  0.1205
  157MOL0     O21084   8.647   3.429   6.280 -0.4215 -0.1279  1.4022
  157MOL0     C21085   8.727   3.418   6.397 -0.5802 -0.1046  0.0283
  157MOL0     C21086   8.662   3.348   6.500  0.7146 -0.1812  0.0517
  157MOL0     C21087   8.725   3.326   6.626 -0.5302 -0.0888 -0.0533
  157MOL0     C21088   8.633   3.249   6.726  0.7674 -0.4254  0.2755
  157MOL0     C21089   8.853   3.377   6.652 -0.6539  0.4351  0.5696
  157MOL0     C21090   8.927   3.369   6.789  0.1973  0.5740  0.8683
  157MOL0     O21091   8.855   3.336   6.908  0.2668 -0.2944 -0.4538
  157MOL0     C21092   8.899   3.361   7.037  0.4341  0.0158  1.2201
  157MOL0     C21093   8.884   3.251   7.121  0.3443 -1.0320 -0.3139
  157MOL0     C21094   8.935   3.263   7.255  0.1945  0.1467 -0.3782
  157MOL0     C21095   9.009   3.369   7.301  0.4334 -0.3057  0.6298
  157MOL0     O21096   9.058   3.358   7.429  0.6436 -0.4264  0.8992
  157MOL0     C21097   9.082   3.481   7.490 -0.2460  0.4225 -0.3630
  157MOL0     C21098   9.088   3.466   7.647 -0.9222 -0.0918 -0.0376
  157MOL0     C21099   9.089   3.605   7.713  0.5074  0.4186 -0.0169
  157MOL0     C21100   9.128   3.590   7.864 -0.5140  0.2751 -0.7094
  157MOL0     C21101   9.159   3.730   7.919 -0.4528  0.8964  0.2175
  157MOL0     C21102   9.025   3.808   7.948 -0.6566 -0.0519  0.0743
  157MOL0     C21103   9.068   3.936   8.015  0.3331 -0.1014  0.1858
  157MOL0     C21104   8.955   4.035   8.046 -0.1472  0.0917  0.3545
  157MOL0    Cl21105   8.856   3.954   8.172  0.1096 -0.2130 -0.2422
  157MOL0     C21106   9.035   3.464   7.204 -0.1609 -0.5418  0.0620
  157MOL0     C21107   8.964   3.469   7.082 -0.3500  0.6249 -0.2884
  157MOL0     O21108   9.047   3.393   6.791 -0.0037  0.2308  0.4701
  157MOL0     C21109   8.916   3.446   6.547  0.0712 -0.6516  0.0515
  157MOL0     C21110   8.847   3.482   6.425 -0.3123  0.2042  0.5165
  157MOL0     N21111   8.792   3.041   5.797 -1.0175 -0.4144  0.6331
  157MOL0     N21112   8.811   2.916   5.808  0.6127 -0.3839  0.7003
  157MOL0     C21113   7.973   2.763   6.611  0.0398  0.8957  0.6561
  157MOL0     C21114   7.877   2.839   6.675 -0.0684  0.5022 -0.2768
  157MOL0     C21115   7.619   3.046   6.956  0.3731 -0.0546 -0.1631
  157MOL0     C21116   7.504   2.979   7.014 -0.1951 -0.4001  0.4475
  157MOL0     C21117   7.411   3.054   7.071  1.1526  0.8705 -0.1560
  157MOL0     C21118   7.403   3.193   7.054  0.0423 -0.0094  0.6083
  157MOL0     O21119   7.314   3.285   7.097 -0.2475 -0.1920  0.0024
  157MOL0     C21120   7.198   3.241   7.164  0.0439 -0.2769  0.1893
  157MOL0     C21121   7.213   3.261   7.315 -1.0171 -0.2340  0.1685
  157MOL0     C21122   7.250   3.127   7.384  0.0016  0.0118 -0.5548
  157MOL0     C21123   7.267   3.149   7.538  0.0587  0.4134  0.1615
  157MOL0     C21124   7.261   3.028   7.614  0.3586  0.5097 -0.3316
  157MOL0     C21125   7.261   2.923   7.670 -0.0916  0.0381  0.0341
  157MOL0     C21126   7.511   3.250   6.979  0.0631  0.8978  0.1482
  157MOL0     C21127   7.616   3.176   6.936  0.7851 -0.4791  0.4819
  157MOL0     H21128   8.071   3.079   6.830 -2.3422 -1.6400  2.7149
  157MOL0     H21129   8.245   2.942   6.713 -0.6937  3.8691 -2.0240
  157MOL0     H21130   8.197   2.546   6.478  0.7933 -0.9256  2.9519
  157MOL0     H21131   8.124   2.693   6.388  1.1872  3.0621  1.5709
  157MOL0     H21132   8.352   2.789   6.363 -2.9651  0.7528 -2.1835
  157MOL0     H21133   8.419   2.630   6.428 -0.7550 -1.7776 -1.0701
  157MOL0     H21134   8.303   2.520   6.247 -3.0212  0.0604 -0.3844
  157MOL0     H21135   8.253   2.677   6.184  0.0320  1.4567  1.3004
  157MOL0     H21136   8.433   2.590   6.060 -1.1380 -0.3997  0.6430
  157MOL0     H21137   8.482   2.744   6.145  3.1657 -1.3643 -1.7174
  157MOL0     H21138   8.628   2.633   6.288 -0.9789  0.9535 -0.8499
  157MOL0     H21139   8.549   2.468   6.260  1.0443  0.3770  2.8535
  157MOL0     H21140   8.758   2.469   6.147  1.5457 -0.5958 -4.0262
  157MOL0     H21141   8.643   2.485   6.020 -1.2497 -0.4023  1.4278
  157MOL0     H21142   8.747   2.733   6.133 -0.7242 -2.2669  1.7185
  157MOL0     H21143   8.866   2.644   6.058 -0.7420  1.1051  3.6028
  157MOL0     H21144   8.624   2.669   5.892 -0.2561  0.5231  0.0692
  157MOL0     H21145   8.794   2.662   5.846  1.1442  1.8655 -0.1546
  157MOL0     H21146   8.581   2.904   6.032  0.6348 -4.8523 -0.6828
  157MOL0     H21147   8.636   3.254   5.816 -1.4328  1.6276  0.6629
  157MOL0     H21148   8.515   3.165   5.914  0.1335 -2.3567  1.3440
  157MOL0     H21149   8.780   3.265   6.036 -0.1976  0.1813 -1.1554
  157MOL0     H21150   8.637   3.202   6.118  2.7694  1.1908  1.9062
  157MOL0     H21151   8.526   3.429   6.048  0.7822 -2.1456  0.8126
  157MOL0     H21152   8.671   3.461   5.948  1.9386 -1.8123 -0.4015
  157MOL0     H21153   8.691   3.586   6.132  1.4426  1.6301  0.9524
  157MOL0     H21154   8.813   3.453   6.155 -0.0771 -0.7075  1.1731
  157MOL0     H21155   8.561   3.324   6.471  0.4661 -0.7224  1.3025
  157MOL0     H21156   8.534   3.241   6.681  0.4590 -0.9543  1.0326
  157MOL0     H21157   8.663   3.144   6.740 -0.1806 -0.8667 -0.8227
  157MOL0     H21158   8.637   3.301   6.822  1.2418 -1.3801  0.7975
  157MOL0     H21159   8.836   3.159   7.090  1.6639 -1.1425 -2.1503
  157MOL0     H21160   8.922   3.194   7.337  0.7233 -0.8048 -1.0833
  157MOL0     H21161   9.174   3.523   7.449 -0.3864 -0.0734 -1.2117
  157MOL0     H21162   9.007   3.551   7.451 -1.9655 -1.4547 -0.6080
  157MOL0     H21163   9.002   3.412   7.688 -0.7492  0.7743  1.5578
  157MOL0     H21164   9.181   3.410   7.665 -1.5754 -0.9483  0.7848
  157MOL0     H21165   8.985   3.636   7.699  0.0298 -2.1571 -3.4084
  157MOL0     H21166   9.159   3.670   7.659 -0.7521  0.8386 -1.2077
  157MOL0     H21167   9.036   3.550   7.907  0.0877 -4.3791 -3.1489
  157MOL0     H21168   9.216   3.527   7.880  0.1840  1.2264 -0.7033
  157MOL0     H21169   9.224   3.781   7.848 -0.5889  1.6057  0.5930
  157MOL0     H21170   9.209   3.717   8.015  0.4422 -0.2481 -0.3803
  157MOL0     H21171   8.976   3.824   7.851 -1.1468 -1.3349  0.0894
  157MOL0     H21172   8.956   3.756   8.015 -0.3658  0.6462  0.9269
  157MOL0     H21173   9.137   3.991   7.951 -0.2893  3.2274  2.1059
  157MOL0     H21174   9.118   3.908   8.109 -1.2943  0.6939  1.3534
  157MOL0     H21175   8.898   4.052   7.954 -1.1683 -0.5171  0.8513
  157MOL0     H21176   8.998   4.129   8.082  3.2162 -1.2910  0.3057
  157MOL0     H21177   9.092   3.553   7.229 -1.2940 -0.1243  1.2715
  157MOL0     H21178   8.983   3.553   7.015  0.8507  0.4709 -0.1564
  157MOL0     H21179   9.013   3.486   6.574  0.1874 -1.0883  0.2987
  157MOL0     H21180   8.904   3.538   6.352  2.0982  1.5783  3.2703
  157MOL0     H21181   7.963   2.675   6.549 -0.2973  2.7092 -2.0298
  157MOL0     H21182   7.773   2.811   6.666 -0.2380  0.8927  0.4291
  157MOL0     H21183   7.492   2.871   7.015  0.9618 -0.5600 -0.3408
  157MOL0     H21184   7.327   3.001   7.114  0.4027 -0.4948 -3.0524
  157MOL0     H21185   7.111   3.299   7.130  0.7937  0.6784 -0.1378
  157MOL0     H21186   7.175   3.138   7.136  0.8067 -0.2680 -0.4765
  157MOL0     H21187   7.122   3.289   7.368 -0.8364 -0.9916  0.8914
  157MOL0     H21188   7.288   3.340   7.324 -0.6446 -0.5589 -0.0367
  157MOL0     H21189   7.347   3.095   7.346  0.7942 -1.2423  2.2968
  157MOL0     H21190   7.170   3.056   7.361 -0.1195  0.2062 -0.7464
  157MOL0     H21191   7.185   3.212   7.573 -0.1768  0.7048 -0.8906
  157MOL0     H21192   7.358   3.208   7.556 -0.7219  2.3938 -1.9385
  157MOL0     H21193   7.283   2.837   7.730 -1.9479  1.0728  2.3492
  157MOL0     H21194   7.483   3.346   6.936  0.4491  0.0128 -2.2252
  157MOL0     H21195   7.686   3.239   6.882  0.8277 -0.9853 -0.0586
  158MOL0     O21196  11.361   0.837   1.268 -0.8160  0.2882  0.2910
  158MOL0     C21197  11.319   0.792   1.373  0.5674  0.0035  0.2308
  158MOL0     O21198  11.196   0.831   1.431 -0.3059  0.2190  1.1030
  158MOL0     C21199  11.111   0.908   1.363  0.6719  0.6781  0.1012
  158MOL0     C21200  11.013   0.846   1.306  0.3658  0.5376 -0.0539
  158MOL0     C21201  10.921   0.925   1.229 -0.5233 -0.3996 -0.3060
  158MOL0     C21202  10.953   1.060   1.199 -0.0392 -0.3521 -0.3932
  158MOL0     O21203  10.878   1.142   1.117  0.3139 -0.9561 -0.0577
  158MOL0     C21204  10.754   1.102   1.069  0.0931  0.5816 -0.7743
  158MOL0     C21205  10.686   1.231   1.031 -0.0679  0.4049  1.2121
  158MOL0     C21206  10.567   1.209   0.938  0.2915  0.4018 -0.0311
  158MOL0     C21207  10.446   1.303   0.976  0.0822 -0.7925 -0.8309
  158MOL0     C21208  10.328   1.287   0.887 -0.2590 -1.2598 -0.3520
  158MOL0     C21209  10.211   1.376   0.934 -0.6441  0.4303 -1.0476
  158MOL0     C21210  10.089   1.365   0.849 -0.3616 -0.1263 -0.2693
  158MOL0     C21211   9.986   1.471   0.882  0.6849 -0.6760  1.0861
  158MOL0     N21212   9.862   1.451   0.811  0.4822 -0.7459 -0.2730
  158MOL0     C21213   9.860   1.469   0.680 -0.2624  0.9147  0.1622
  158MOL0     C21214   9.733   1.444   0.636  0.0271 -0.2541  0.9414
  158MOL0     C21215   9.684   1.447   0.494  1.2487 -0.0356  0.9394
  158MOL0     C21216   9.669   1.586   0.434  0.0145 -0.1950 -0.0730
  158MOL0     C21217   9.570   1.603   0.332  0.5423  0.0119  0.9851
  158MOL0     C21218   9.602   1.735   0.245  0.7851 -0.8135 -0.0066
  158MOL0     O21219   9.495   1.775   0.155 -0.4680 -0.4464  0.1151
  158MOL0     C21220   9.512   1.875   0.062 -0.3639 -1.3955 -0.8724
  158MOL0     C21221   9.433   1.873  -0.059 -0.1590 -0.1177  0.9196
  158MOL0     C21222   9.456   1.965  -0.164 -0.6191 -0.0252 -0.9665
  158MOL0     C21223   9.387   1.958  -0.293 -0.5704 -0.6911  0.1075
  158MOL0     C21224   9.547   2.069  -0.141 -0.6121 -0.3673  0.1257
  158MOL0     C21225   9.583   2.176  -0.230  0.0427 -0.1976 -0.4688
  158MOL0     O21226   9.540   2.311  -0.213 -0.5879  0.2577 -0.5749
  158MOL0     C21227   9.438   2.342  -0.129  0.3401  0.4246  0.1920
  158MOL0     C21228   9.455   2.333   0.004 -0.0603 -0.2743  0.5150
  158MOL0     C21229   9.355   2.391   0.093 -1.1128  0.7086 -0.7749
  158MOL0     C21230   9.238   2.445   0.048  1.0429  0.0486 -0.3153
  158MOL0     O21231   9.132   2.475   0.128  0.3457 -0.5958 -0.4122
  158MOL0     C21232   9.146   2.462   0.274 -0.2231  0.1708  0.4108
  158MOL0     C21233   9.019   2.496   0.358  0.9066 -0.3743 -0.4539
  158MOL0     C21234   8.925   2.378   0.384 -0.0229  0.6659  0.0859
  158MOL0     C21235   8.966   2.296   0.512  0.1737 -0.2406  0.3418
  158MOL0     C21236   8.858   2.181   0.530 -0.0904 -0.6623 -0.0399
  158MOL0     C21237   8.906   2.084   0.628 -0.6937  0.1330 -0.0028
  158MOL0     C21238   8.903   2.135   0.774 -0.2946 -0.9440 -0.8397
  158MOL0     C21239   8.992   2.045   0.868 -0.3506  0.1807  0.0620
  158MOL0    Cl21240   8.902   1.881   0.858  0.0165  0.2193  0.6519
  158MOL0     C21241   9.225   2.464  -0.092  0.1046 -1.0741  0.6551
  158MOL0     C21242   9.327   2.411  -0.182 -0.2670  0.2185  0.0838
  158MOL0     O21243   9.651   2.131  -0.321  0.2257  0.3546 -0.1755
  158MOL0     C21244   9.626   2.067  -0.026  0.2044 -0.4526  0.4667
  158MOL0     C21245   9.609   1.977   0.078 -0.3850  0.7405  1.0054
  158MOL0     N21246   9.661   1.411   0.741  0.1737 -0.3586  0.3549
  158MOL0     N21247   9.736   1.429   0.844 -0.2342  0.1946  0.2248
  158MOL0     C21248  11.052   1.123   1.268 -0.0009  0.0358  1.2150
  158MOL0     C21249  11.127   1.053   1.361 -0.0885  0.3267 -1.1858
  158MOL0     C21250  11.405   0.724   1.471  0.5378  0.4416  0.1737
  158MOL0     C21251  11.361   0.667   1.593 -0.3066  0.5438 -0.1910
  158MOL0     C21252  11.462   0.604   1.677 -0.0915  0.5829 -0.4680
  158MOL0     C21253  11.595   0.583   1.632  0.4569 -0.5224 -0.9262
  158MOL0     O21254  11.676   0.519   1.722  0.4738  0.0498  0.3718
  158MOL0     C21255  11.802   0.448   1.686 -0.2487 -0.5739 -0.5659
  158MOL0     C21256  11.851   0.378   1.824  0.0490  0.5100 -0.2171
  158MOL0     C21257  12.000   0.324   1.805 -0.2690 -0.2920  0.1726
  158MOL0     C21258  12.053   0.257   1.931  0.6235 -1.0395  0.6611
  158MOL0     C21259  12.197   0.226   1.932  0.6526  0.2227  0.3968
  158MOL0     C21260  12.312   0.196   1.922  0.8657 -1.0521  0.1119
  158MOL0     C21261  11.625   0.639   1.508 -0.8976 -0.2672  0.5004
  158MOL0     C21262  11.540   0.715   1.431  0.5564  0.2675 -0.4351
  158MOL0     H21263  11.024   0.739   1.292  2.4200  0.7198 -0.1286
  158MOL0     H21264  10.843   0.872   1.177 -1.5595 -1.3875  2.0828
  158MOL0     H21265  10.773   1.026   0.993 -4.6281 -0.5149 -1.1685
  158MOL0     H21266  10.697   1.049   1.145  0.8906  2.0873  0.9645
  158MOL0     H21267  10.647   1.279   1.122 -0.2914 -1.7397  2.3061
  158MOL0     H21268  10.756   1.298   0.980 -0.3727 -0.1512  0.0394
  158MOL0     H21269  10.597   1.228   0.835 -2.1179 -0.9512 -1.0480
  158MOL0     H21270  10.533   1.105   0.940  3.8373 -0.8946 -0.5298
  158MOL0     H21271  10.417   1.276   1.078  0.9969 -2.2555 -0.9198
  158MOL0     H21272  10.484   1.405   0.987 -0.7712 -0.4416 -1.0972
  158MOL0     H21273  10.356   1.318   0.786  4.8652  0.1405  1.2024
  158MOL0     H21274  10.288   1.186   0.876 -0.3766 -1.0544 -2.0099
  158MOL0     H21275  10.184   1.337   1.032  3.3903 -0.7179 -0.2230
  158MOL0     H21276  10.223   1.484   0.937 -0.8349  0.4260  1.0812
  158MOL0     H21277  10.100   1.363   0.741  0.8453 -1.8625 -0.1599
  158MOL0     H21278  10.059   1.261   0.864  0.2565 -0.5654 -1.9575
  158MOL0     H21279  10.013   1.568   0.839 -1.1410  0.4480  2.3108
  158MOL0     H21280   9.968   1.485   0.989  0.0237  0.8624  0.7983
  158MOL0     H21281   9.939   1.501   0.612 -0.5041  0.5988 -0.2724
  158MOL0     H21282   9.749   1.382   0.434  0.5690 -1.3796  1.6078
  158MOL0     H21283   9.589   1.392   0.500 -0.5100  2.2221 -2.6717
  158MOL0     H21284   9.762   1.619   0.386  0.0961 -0.1810  0.0923
  158MOL0     H21285   9.666   1.654   0.520  1.6481 -2.5899  2.0295
  158MOL0     H21286   9.467   1.594   0.367 -0.1034 -1.2192 -1.0688
  158MOL0     H21287   9.584   1.524   0.257  3.1189  2.1633 -0.9967
  158MOL0     H21288   9.699   1.716   0.198  1.6587  0.0795  1.3269
  158MOL0     H21289   9.612   1.813   0.322 -1.4037 -0.5192  0.0367
  158MOL0     H21290   9.356   1.798  -0.074 -0.6901  0.7156 -0.7196
  158MOL0     H21291   9.398   2.059  -0.335  2.1714  0.1532  2.5009
  158MOL0     H21292   9.433   1.893  -0.368  1.4401 -0.0453  0.6919
  158MOL0     H21293   9.282   1.931  -0.283 -1.5924  2.3004 -1.3411
  158MOL0     H21294   9.548   2.310   0.054  1.0917  1.6387 -0.6181
  158MOL0     H21295   9.380   2.382   0.198  0.3883  1.1700 -1.0729
  158MOL0     H21296   9.177   2.359   0.291  1.9919  0.9440  1.3580
  158MOL0     H21297   9.225   2.532   0.299  0.5874  0.5694 -2.7940
  158MOL0     H21298   9.058   2.537   0.452  2.2914 -2.3739 -0.0930
  158MOL0     H21299   8.960   2.566   0.298 -1.3877 -0.7051  1.2880
  158MOL0     H21300   8.915   2.311   0.298  1.7989  0.2364  0.1749
  158MOL0     H21301   8.826   2.419   0.404 -0.2045  0.0796  0.4166
  158MOL0     H21302   9.065   2.253   0.494 -0.5165 -1.5722 -0.4159
  158MOL0     H21303   8.978   2.362   0.599  2.2192 -0.8118  0.5473
  158MOL0     H21304   8.851   2.131   0.433 -0.2407  1.5821 -1.2540
  158MOL0     H21305   8.765   2.230   0.560  1.6840  2.5231  0.7104
  158MOL0     H21306   8.837   2.001   0.607 -0.2037 -0.2662 -0.0771
  158MOL0     H21307   9.006   2.051   0.597 -0.0063  0.4519  1.8103
  158MOL0     H21308   8.802   2.132   0.817 -0.3577 -0.7908 -0.9754
  158MOL0     H21309   8.946   2.235   0.776 -1.2120 -0.5051 -1.9940
  158MOL0     H21310   8.996   2.079   0.972  3.6102  1.1985 -0.2654
  158MOL0     H21311   9.096   2.032   0.836 -1.7991 -0.4618 -5.5603
  158MOL0     H21312   9.144   2.519  -0.138  0.7538  1.7204  2.5857
  158MOL0     H21313   9.326   2.429  -0.289  1.3629  0.4171  0.0713
  158MOL0     H21314   9.687   2.156  -0.014  1.1386 -0.3561 -3.4952
  158MOL0     H21315   9.677   1.976   0.163 -0.9274 -2.2816  1.5370
  158MOL0     H21316  11.069   1.230   1.264  2.1875 -0.1978  2.6469
  158MOL0     H21317  11.211   1.086   1.422  0.1267 -1.5267 -0.3936
  158MOL0     H21318  11.257   0.672   1.622  0.5032  2.6270  2.7894
  158MOL0     H21319  11.435   0.576   1.779  3.7648  1.4694  0.9792
  158MOL0     H21320  11.777   0.393   1.595 -4.6718 -0.6067  0.4102
  158MOL0     H21321  11.883   0.519   1.674 -1.0022  0.8154  1.9188
  158MOL0     H21322  11.789   0.293   1.853 -0.8350  0.3639 -2.3354
  158MOL0     H21323  11.844   0.447   1.909 -4.1809 -0.2181  0.2568
  158MOL0     H21324  12.055   0.409   1.765  0.0011 -0.1552  0.8271
  158MOL0     H21325  12.013   0.242   1.733  1.7289 -2.2432  2.5682
  158MOL0     H21326  11.998   0.163   1.946 -1.7826 -0.4466 -3.2254
  158MOL0     H21327  12.035   0.336   2.005 -0.1384 -0.1490 -0.4434
  158MOL0     H21328  12.419   0.192   1.927  1.1291  1.3584 -1.7966
  158MOL0     H21329  11.727   0.623   1.477  0.0064  3.3524  1.2445
  158MOL0     H21330  11.587   0.755   1.342  2.4626  0.7074  0.7174
  159MOL0     O21331   0.446  10.646   6.588 -0.4851 -0.1122 -0.0691
  159MOL0     C21332   0.538  10.713   6.539 -0.4274 -0.1355 -0.6521
  159MOL0     O21333   0.582  10.695   6.407 -0.6348  0.2658 -0.0337
  159MOL0     C21334   0.565  10.578   6.338 -0.3068  0.3848  0.0636
  159MOL0     C21335   0.464  10.481   6.346 -0.0706  0.9773 -0.3091
  159MOL0     C21336   0.458  10.369   6.258  0.5568  0.6623 -0.9609
  159MOL0     C21337   0.558  10.344   6.171  0.0869 -0.3222 -0.4549
  159MOL0     O21338   0.562  10.232   6.100 -0.6283 -0.0557  0.0090
  159MOL0     C21339   0.622  10.111   6.158 -0.3713  0.8580 -0.0895
  159MOL0     C21340   0.772  10.092   6.098 -0.1137  0.4897  0.7097
  159MOL0     C21341   0.773  10.068   5.944  0.3198 -0.1925 -0.6719
  159MOL0     C21342   0.772   9.914   5.916  0.2106 -0.4510  0.0743
  159MOL0     C21343   0.780   9.892   5.768  0.0971  0.4318  0.2314
  159MOL0     C21344   0.915   9.948   5.701 -0.6258 -0.2671  0.1168
  159MOL0     C21345   0.933   9.883   5.557  0.3266  0.0614 -0.2305
  159MOL0     C21346   1.004   9.967   5.457  0.3475  0.1904 -0.0544
  159MOL0     N21347   1.013   9.897   5.328 -0.6956  0.2719  0.1737
  159MOL0     C21348   1.113   9.809   5.296 -0.1932  0.4479 -0.0216
  159MOL0     C21349   1.094   9.776   5.167 -1.1759  0.2955 -0.0820
  159MOL0     C21350   1.182   9.681   5.091  0.4268 -0.1277  0.4161
  159MOL0     C21351   1.124   9.637   4.952 -0.6371 -0.0746 -0.0596
  159MOL0     C21352   1.017   9.532   4.983 -0.3126 -0.2877  0.1855
  159MOL0     C21353   0.981   9.453   4.853 -0.4447  0.5747 -0.6088
  159MOL0     O21354   0.852   9.400   4.873 -0.8233 -0.5052  0.7887
  159MOL0     C21355   0.802   9.311   4.783 -0.0612 -0.0374 -0.5724
  159MOL0     C21356   0.689   9.237   4.826  0.3059 -0.1495  1.1620
  159MOL0     C21357   0.605   9.155   4.751 -1.4009  1.1776  0.3432
  159MOL0     C21358   0.476   9.107   4.812  0.3353  0.7822  0.1353
  159MOL0     C21359   0.649   9.127   4.625 -0.8329 -0.6666  0.9923
  159MOL0     C21360   0.573   9.032   4.534 -0.6978  0.5177 -0.2797
  159MOL0     O21361   0.627   9.016   4.406 -0.0515 -0.2683 -0.9796
  159MOL0     C21362   0.580   8.931   4.319 -0.4676  0.8623  0.2882
  159MOL0     C21363   0.445   8.925   4.288 -0.2490 -1.1786 -0.1788
  159MOL0     C21364   0.402   8.827   4.199  0.1954  0.3536  0.2455
  159MOL0     C21365   0.491   8.734   4.135 -0.1983 -1.0664 -0.6403
  159MOL0     O21366   0.443   8.634   4.044  0.0934  0.0944  0.3866
  159MOL0     C21367   0.316   8.575   4.074  0.0881 -0.4186  0.4348
  159MOL0     C21368   0.303   8.428   4.024  0.3379 -0.1623  0.5866
  159MOL0     C21369   0.197   8.341   4.079 -0.4419 -0.2880  0.3606
  159MOL0     C21370   0.175   8.337   4.226  0.1752 -0.3877 -0.2492
  159MOL0     C21371   0.062   8.435   4.254  0.6806 -0.8353  0.0458
  159MOL0     C21372   0.039   8.408   4.401 -0.9063 -0.3004 -0.5512
  159MOL0     C21373  -0.022   8.271   4.433 -0.9679  0.0408 -0.8783
  159MOL0     C21374  -0.116   8.277   4.557  0.0374  0.7607 -0.1858
  159MOL0    Cl21375  -0.037   8.346   4.701  0.1305 -0.0180 -0.2372
  159MOL0     C21376   0.629   8.735   4.172  0.4780 -0.2170 -0.0486
  159MOL0     C21377   0.674   8.846   4.253  0.1285 -0.6270 -0.5130
  159MOL0     O21378   0.498   8.945   4.577 -0.4447  0.5875 -0.2111
  159MOL0     C21379   0.760   9.201   4.567 -0.1336 -0.1301 -0.4934
  159MOL0     C21380   0.834   9.290   4.649 -0.2493  0.3732 -0.5478
  159MOL0     N21381   0.989   9.851   5.119  0.0148  0.2158 -0.7551
  159MOL0     N21382   0.935   9.916   5.218 -0.0890  0.2661 -0.3494
  159MOL0     C21383   0.664  10.433   6.160  0.6494  0.1012 -0.3959
  159MOL0     C21384   0.665  10.555   6.239 -0.2690 -0.3775  1.2040
  159MOL0     C21385   0.605  10.824   6.612 -0.4272  0.9029 -0.5344
  159MOL0     C21386   0.663  10.932   6.549  1.4446 -0.2454 -0.0323
  159MOL0     C21387   0.713  11.038   6.619  0.0517 -0.5221 -0.2834
  159MOL0     C21388   0.722  11.038   6.755  0.3768 -0.0006 -0.9707
  159MOL0     O21389   0.764  11.138   6.843  0.9449  0.6604  0.1352
  159MOL0     C21390   0.818  11.264   6.797  0.3141  0.4063  0.0081
  159MOL0     C21391   0.974  11.283   6.822  0.7413 -0.0639  0.1659
  159MOL0     C21392   1.058  11.209   6.722 -0.6233  0.5307  0.9743
  159MOL0     C21393   1.204  11.264   6.726 -0.6196 -0.8657  0.7849
  159MOL0     C21394   1.288  11.229   6.617 -0.3028 -0.6765  0.1249
  159MOL0     C21395   1.355  11.194   6.521 -0.4599 -0.8395 -0.6549
  159MOL0     C21396   0.664  10.930   6.821 -0.0784 -0.6575  0.3780
  159MOL0     C21397   0.602  10.824   6.751  0.2281  0.0460 -0.2558
  159MOL0     H21398   0.372  10.486   6.403  0.1921 -1.2773  0.3893
  159MOL0     H21399   0.377  10.298   6.250  2.5487 -1.8174 -0.4880
  159MOL0     H21400   0.625  10.123   6.267 -1.9132  0.1755  0.0534
  159MOL0     H21401   0.563  10.020   6.144 -0.9873  1.5829 -2.6488
  159MOL0     H21402   0.830  10.184   6.107 -2.9758  2.3940  0.9233
  159MOL0     H21403   0.829  10.020   6.158 -0.8764  1.7067  2.9952
  159MOL0     H21404   0.682  10.114   5.902  0.0546  0.7725  0.8890
  159MOL0     H21405   0.853  10.126   5.896 -1.5088  1.2716 -2.1255
  159MOL0     H21406   0.854   9.864   5.968  0.9528  0.1271 -0.5134
  159MOL0     H21407   0.675   9.874   5.945 -2.3872  3.3855 -2.3366
  159MOL0     H21408   0.779   9.783   5.757  0.6629  0.0896  2.8240
  159MOL0     H21409   0.696   9.931   5.711 -0.3909 -2.3398 -1.1379
  159MOL0     H21410   0.914  10.057   5.696  1.0893 -0.2514 -0.4753
  159MOL0     H21411   1.004   9.927   5.761 -0.1213 -3.0889 -1.4737
  159MOL0     H21412   0.974   9.783   5.575  0.4492  0.0861 -0.3707
  159MOL0     H21413   0.832   9.869   5.518  0.7527 -2.3343 -0.6644
  159MOL0     H21414   1.101  10.002   5.496  1.1026 -0.6795 -1.0984
  159MOL0     H21415   0.933  10.049   5.448  1.0245  1.2744  3.0050
  159MOL0     H21416   1.181   9.773   5.373 -0.9879 -2.1993 -0.4616
  159MOL0     H21417   1.269   9.738   5.056  0.5743 -1.3163 -1.2917
  159MOL0     H21418   1.215   9.592   5.146 -2.5777 -1.1559  0.7145
  159MOL0     H21419   1.211   9.585   4.911  0.6209 -0.4734  2.8533
  159MOL0     H21420   1.093   9.714   4.882 -4.8504  0.1908  1.7944
  159MOL0     H21421   0.930   9.588   5.021 -0.9255  0.5639 -2.2517
  159MOL0     H21422   1.044   9.462   5.062 -0.5566  2.0417  2.4629
  159MOL0     H21423   1.056   9.373   4.850 -2.9983 -1.9706 -1.7740
  159MOL0     H21424   0.988   9.492   4.751 -0.2055 -1.1860 -1.3036
  159MOL0     H21425   0.658   9.260   4.927 -1.3433 -1.5561  1.0244
  159MOL0     H21426   0.482   9.004   4.848  0.3298  0.6421 -0.2584
  159MOL0     H21427   0.457   9.164   4.904  1.9336  0.4248  0.7202
  159MOL0     H21428   0.399   9.114   4.735 -0.8236 -1.8199  0.9603
  159MOL0     H21429   0.370   9.000   4.313  1.9933  1.1621 -0.0487
  159MOL0     H21430   0.297   8.817   4.173 -0.1303 -2.2874  2.1065
  159MOL0     H21431   0.300   8.569   4.182 -0.4848 -0.3973  0.3546
  159MOL0     H21432   0.246   8.647   4.030  0.9525  0.4579  0.4810
  159MOL0     H21433   0.288   8.433   3.916  1.0681 -0.8910  0.4427
  159MOL0     H21434   0.390   8.369   4.055  0.4347 -1.3843 -1.8434
  159MOL0     H21435   0.225   8.243   4.039 -2.7304  0.6073 -4.0993
  159MOL0     H21436   0.099   8.361   4.033  0.4295  0.8718 -1.0835
  159MOL0     H21437   0.156   8.232   4.253  4.1191 -1.3812 -0.6956
  159MOL0     H21438   0.265   8.362   4.282 -2.5284  4.8494  2.4634
  159MOL0     H21439  -0.024   8.402   4.195 -0.8847  1.9309  0.5863
  159MOL0     H21440   0.088   8.536   4.223  1.4828 -1.3763 -1.0990
  159MOL0     H21441   0.125   8.409   4.469 -2.0839  0.0891  1.0068
  159MOL0     H21442  -0.031   8.488   4.430  0.6467  0.1269  2.3608
  159MOL0     H21443   0.059   8.200   4.450 -2.3941 -1.5569 -0.4116
  159MOL0     H21444  -0.067   8.224   4.345 -1.2275 -1.8113  0.1818
  159MOL0     H21445  -0.173   8.190   4.591  0.0642  1.6844  2.4717
  159MOL0     H21446  -0.197   8.342   4.523 -1.5788 -0.3531  1.3378
  159MOL0     H21447   0.701   8.675   4.118  0.8243 -0.7156  0.9464
  159MOL0     H21448   0.779   8.868   4.266 -0.1244  1.0909 -1.1732
  159MOL0     H21449   0.791   9.193   4.463  0.8495  0.7121 -0.2893
  159MOL0     H21450   0.925   9.340   4.617  0.2274  0.9699  1.5997
  159MOL0     H21451   0.752  10.405   6.103  0.3244  0.0520 -0.8792
  159MOL0     H21452   0.746  10.626   6.235 -0.6720  0.0434 -0.7041
  159MOL0     H21453   0.678  10.945   6.442  6.7203  1.3372  0.5987
  159MOL0     H21454   0.765  11.124   6.579 -2.7825  1.0521 -0.8137
  159MOL0     H21455   0.780  11.298   6.700 -0.9218 -1.0040 -0.0432
  159MOL0     H21456   0.771  11.335   6.865 -3.7916 -0.4593 -1.6270
  159MOL0     H21457   1.004  11.279   6.927 -2.1474  5.5142  1.5865
  159MOL0     H21458   0.963  11.389   6.800 -1.4644 -0.3482 -0.3420
  159MOL0     H21459   1.015  11.228   6.622  1.0390  2.3755  0.5580
  159MOL0     H21460   1.049  11.106   6.756 -3.6508  0.9147  1.6804
  159MOL0     H21461   1.254  11.228   6.817  0.0292 -2.0751 -0.0206
  159MOL0     H21462   1.202  11.373   6.732 -1.6694 -0.7248 -1.2124
  159MOL0     H21463   1.406  11.168   6.431  0.3622  0.1731 -0.5126
  159MOL0     H21464   0.672  10.933   6.929  1.2587 -1.1414  0.3095
  159MOL0     H21465   0.555  10.738   6.799  2.9163 -1.8108 -0.6680
  160MOL0     O21466   5.802   8.916   3.117 -0.1676 -0.1056  0.3481
  160MOL0     C21467   5.763   8.846   3.215 -0.5777 -0.2942 -0.2678
  160MOL0     O21468   5.673   8.894   3.308  0.2847  0.7562  0.2242
  160MOL0     C21469   5.589   8.994   3.270 -0.7587 -0.5225  1.0805
  160MOL0     C21470   5.453   8.964   3.238 -0.4725 -0.6021  0.1864
  160MOL0     C21471   5.366   9.073   3.211 -0.4427 -0.4498  0.4534
  160MOL0     C21472   5.405   9.210   3.212  0.5815 -0.3895  0.1364
  160MOL0     O21473   5.324   9.320   3.199 -0.2457 -0.0939  0.0015
  160MOL0     C21474   5.184   9.324   3.237 -0.3081 -0.7506  0.3034
  160MOL0     C21475   5.134   9.469   3.192 -0.4493 -0.1833 -0.2984
  160MOL0     C21476   4.986   9.491   3.236  0.5490  0.2375 -0.0223
  160MOL0     C21477   4.917   9.608   3.160  0.2526  0.3539 -0.8221
  160MOL0     C21478   4.825   9.544   3.056  0.5951  0.7911  0.5119
  160MOL0     C21479   4.746   9.642   2.965 -0.1679 -0.7447 -0.4523
  160MOL0     C21480   4.721   9.564   2.843  0.9218  0.7620  0.7979
  160MOL0     C21481   4.596   9.624   2.773  0.1439 -0.1271  0.1167
  160MOL0     N21482   4.619   9.767   2.736  0.3874  0.4700 -0.4572
  160MOL0     C21483   4.716   9.823   2.651  1.4389  0.6814 -0.1662
  160MOL0     C21484   4.700   9.953   2.662  0.4616 -0.0821 -0.0373
  160MOL0     C21485   4.774  10.051   2.581  1.0902 -0.4345  1.1021
  160MOL0     C21486   4.681  10.099   2.462  0.2698 -0.4125 -0.1644
  160MOL0     C21487   4.715  10.236   2.423  0.0780 -0.7631  0.5219
  160MOL0     C21488   4.644  10.274   2.287 -0.6964  0.4157  0.1246
  160MOL0     O21489   4.686  10.397   2.234 -0.1040 -0.1969  0.1806
  160MOL0     C21490   4.649  10.447   2.113  0.2064 -0.2709  0.5997
  160MOL0     C21491   4.551  10.382   2.035 -0.5203  0.1753 -0.1545
  160MOL0     C21492   4.526  10.433   1.906  0.6127  0.3861  0.4423
  160MOL0     C21493   4.416  10.373   1.827  0.5840 -0.1268  0.1332
  160MOL0     C21494   4.599  10.538   1.846 -0.0906 -0.0311  0.0438
  160MOL0     C21495   4.568  10.605   1.719 -0.3652  0.4835  0.7142
  160MOL0     O21496   4.548  10.743   1.709 -0.1243  0.1150  0.1986
  160MOL0     C21497   4.527  10.799   1.590 -0.8888 -0.2493  1.3785
  160MOL0     C21498   4.554  10.935   1.595  0.3463 -0.2558  0.0493
  160MOL0     C21499   4.508  11.019   1.494 -0.1001 -0.3876  0.3755
  160MOL0     C21500   4.453  10.968   1.380  0.4731 -1.0661 -0.3846
  160MOL0     O21501   4.424  11.042   1.268 -0.5512  0.5904 -0.1427
  160MOL0     C21502   4.488  11.175   1.260  0.2218 -0.6651  0.4525
  160MOL0     C21503   4.377  11.274   1.293  0.5453 -0.2335 -0.2534
  160MOL0     C21504   4.278  11.278   1.172 -0.3292 -0.4906 -0.4341
  160MOL0     C21505   4.153  11.364   1.209 -0.1920  0.4054 -0.8999
  160MOL0     C21506   4.048  11.323   1.111  0.9626 -0.9089 -0.1188
  160MOL0     C21507   3.915  11.397   1.124  0.0599 -0.2045 -0.2647
  160MOL0     C21508   3.902  11.553   1.145 -0.6751  0.4208  0.6908
  160MOL0     C21509   3.761  11.606   1.139 -0.3227  0.5815 -0.3176
  160MOL0    Cl21510   3.710  11.614   0.970  0.1155  0.3925  0.1029
  160MOL0     C21511   4.448  10.824   1.366 -0.4077 -0.5478  0.2159
  160MOL0     C21512   4.480  10.742   1.467  0.0663 -0.4086  1.2453
  160MOL0     O21513   4.572  10.523   1.624 -0.2074 -1.2634  0.3192
  160MOL0     C21514   4.688  10.600   1.933  0.5156 -0.7486  0.7087
  160MOL0     C21515   4.711  10.558   2.064  0.2114 -0.1668 -0.4763
  160MOL0     N21516   4.586   9.973   2.743 -0.3097 -0.6916 -0.6539
  160MOL0     N21517   4.544   9.868   2.797 -0.0967  0.1692  0.1238
  160MOL0     C21518   5.544   9.230   3.226  1.3802 -0.7248  0.5786
  160MOL0     C21519   5.630   9.131   3.258 -0.5174  0.9259 -0.3089
  160MOL0     C21520   5.844   8.734   3.242 -0.7864  0.1736 -0.3034
  160MOL0     C21521   5.959   8.695   3.162 -0.0574 -0.0095  0.2273
  160MOL0     C21522   6.038   8.586   3.190  0.3167  0.0743 -0.5633
  160MOL0     C21523   6.013   8.516   3.309  0.7850  0.3716 -0.5959
  160MOL0     O21524   6.079   8.399   3.355  0.5007  0.0855 -0.9571
  160MOL0     C21525   6.172   8.342   3.256  0.2445 -0.5552 -0.8318
  160MOL0     C21526   6.220   8.210   3.301 -0.5435 -0.4610  0.2508
  160MOL0     C21527   6.105   8.124   3.326 -0.3702  0.3402  0.2526
  160MOL0     C21528   6.146   7.978   3.359 -0.2796  0.7418  1.5172
  160MOL0     C21529   6.233   7.961   3.469  0.6983  0.0676  0.5137
  160MOL0     C21530   6.304   7.969   3.564 -0.2045  0.5018 -0.7021
  160MOL0     C21531   5.903   8.557   3.390  0.2892  1.0016  0.0368
  160MOL0     C21532   5.818   8.659   3.352  0.0599 -0.1015  0.1756
  160MOL0     H21533   5.406   8.867   3.232 -0.0493 -0.7330 -4.1972
  160MOL0     H21534   5.267   9.037   3.184 -1.3573  1.9446  0.3367
  160MOL0     H21535   5.129   9.257   3.170 -0.6706  1.7296 -2.0327
  160MOL0     H21536   5.164   9.287   3.338  1.2142 -3.8240 -0.3882
  160MOL0     H21537   5.196   9.550   3.233  0.3731  0.5074 -2.7140
  160MOL0     H21538   5.128   9.488   3.084 -1.2947  3.0955  0.2160
  160MOL0     H21539   4.936   9.399   3.205 -1.9458  0.5223  2.7025
  160MOL0     H21540   4.972   9.496   3.344  0.1449 -1.7634  0.0638
  160MOL0     H21541   4.871   9.671   3.237  0.6328  1.8396 -1.7616
  160MOL0     H21542   4.987   9.684   3.123 -2.9358  3.2888 -1.3798
  160MOL0     H21543   4.907   9.507   2.993  3.2385  1.1728  3.4802
  160MOL0     H21544   4.758   9.476   3.108  0.0982 -0.6430 -1.8486
  160MOL0     H21545   4.658   9.675   3.021  1.5921  1.5667  1.1425
  160MOL0     H21546   4.824   9.717   2.950  0.9484 -1.5213  1.2466
  160MOL0     H21547   4.804   9.567   2.773 -2.1973 -0.4385 -3.4082
  160MOL0     H21548   4.704   9.456   2.850 -0.3214  0.4205 -3.8027
  160MOL0     H21549   4.507   9.632   2.835  1.6471  2.5042  2.1689
  160MOL0     H21550   4.571   9.577   2.678 -2.2587 -0.2752  0.7725
  160MOL0     H21551   4.787   9.767   2.590  2.3143  0.7692  0.7450
  160MOL0     H21552   4.791  10.138   2.645  2.1091  1.6524 -1.7855
  160MOL0     H21553   4.872  10.011   2.557  2.1050  3.3128 -2.1104
  160MOL0     H21554   4.577  10.099   2.495  0.2344  1.9360 -0.1595
  160MOL0     H21555   4.706  10.029   2.382  2.2028  0.8763 -0.7482
  160MOL0     H21556   4.823  10.237   2.406 -0.4495 -1.1746 -3.9422
  160MOL0     H21557   4.687  10.301   2.506 -0.4858 -1.6605  1.0491
  160MOL0     H21558   4.535  10.275   2.297 -0.6846 -0.7539  0.5981
  160MOL0     H21559   4.673  10.195   2.217 -1.1661  0.8654 -0.5973
  160MOL0     H21560   4.477  10.318   2.082 -4.0577  3.9607 -0.0162
  160MOL0     H21561   4.347  10.454   1.802 -0.7121 -0.9129  1.0308
  160MOL0     H21562   4.449  10.327   1.734 -2.7188 -0.7703 -0.8675
  160MOL0     H21563   4.366  10.286   1.873 -0.9584  0.3116 -0.6519
  160MOL0     H21564   4.605  10.988   1.675  1.1934 -1.0705  0.0652
  160MOL0     H21565   4.515  11.122   1.525  1.4542  0.2159 -1.7909
  160MOL0     H21566   4.577  11.189   1.321  0.6543  1.3930 -0.5532
  160MOL0     H21567   4.519  11.200   1.158 -2.2506  1.5608  0.1311
  160MOL0     H21568   4.330  11.258   1.390  0.2609  2.2768  0.0810
  160MOL0     H21569   4.415  11.376   1.302 -0.1945  0.5960 -4.2146
  160MOL0     H21570   4.235  11.178   1.165 -2.3958  0.3824 -1.1201
  160MOL0     H21571   4.328  11.307   1.080 -0.3740 -0.1305 -0.3483
  160MOL0     H21572   4.111  11.340   1.307  0.1033  1.5054 -0.4971
  160MOL0     H21573   4.180  11.470   1.210 -1.4286  0.7324  0.2601
  160MOL0     H21574   4.053  11.214   1.112  1.5983 -0.8978  2.5064
  160MOL0     H21575   4.076  11.350   1.008 -1.8383 -0.4358 -0.8510
  160MOL0     H21576   3.862  11.365   1.034  1.1864  1.1128 -1.4444
  160MOL0     H21577   3.869  11.355   1.214 -1.1467  0.1932 -0.6856
  160MOL0     H21578   3.975  11.602   1.080  1.1511  0.5342  2.7130
  160MOL0     H21579   3.932  11.581   1.246 -3.7524  1.4977  1.4086
  160MOL0     H21580   3.755  11.707   1.180 -0.8180  0.2574  0.4195
  160MOL0     H21581   3.690  11.540   1.189 -0.1727 -0.6401 -1.6674
  160MOL0     H21582   4.400  10.777   1.281 -1.8023  0.0298  0.6531
  160MOL0     H21583   4.466  10.635   1.456  0.0440 -0.2142 -1.4634
  160MOL0     H21584   4.733  10.694   1.904  3.3008 -2.9075 -2.8629
  160MOL0     H21585   4.786  10.605   2.127 -0.6538  2.0354 -1.0054
  160MOL0     H21586   5.591   9.327   3.231  1.9818 -1.0636  2.9590
  160MOL0     H21587   5.735   9.159   3.267  0.4272 -2.7331  3.5333
  160MOL0     H21588   5.970   8.754   3.072 -1.7856  0.0575  0.0383
  160MOL0     H21589   6.115   8.571   3.115  0.5090  0.9937 -0.5597
  160MOL0     H21590   6.130   8.339   3.155 -0.6513  0.2053 -0.5013
  160MOL0     H21591   6.259   8.407   3.242 -0.2387 -0.0730 -1.7020
  160MOL0     H21592   6.273   8.227   3.395 -0.8007  1.0112  0.1613
  160MOL0     H21593   6.297   8.173   3.233  0.2892  2.2058 -0.3924
  160MOL0     H21594   6.047   8.129   3.234  3.7792 -2.9865 -2.9834
  160MOL0     H21595   6.050   8.164   3.411  2.1458  2.2607  1.1178
  160MOL0     H21596   6.197   7.936   3.272  0.5490 -3.2385  3.7146
  160MOL0     H21597   6.056   7.917   3.353 -0.6243  1.3121  0.5737
  160MOL0     H21598   6.371   7.975   3.648 -1.9553  0.6020  0.7441
  160MOL0     H21599   5.883   8.506   3.483 -0.2483 -2.2391 -1.7228
  160MOL0     H21600   5.731   8.673   3.414 -1.0016 -2.4844 -0.6598
  161MOL0     O21601   9.092   1.329   1.491 -0.2940 -0.0376  0.1246
  161MOL0     C21602   9.012   1.312   1.585 -0.1109  0.4401 -0.3512
  161MOL0     O21603   8.948   1.191   1.612  0.1900 -0.8461  0.4620
  161MOL0     C21604   8.911   1.095   1.516  0.3062 -0.0506 -0.8031
  161MOL0     C21605   8.912   1.107   1.376 -0.3158 -0.6741 -0.0225
  161MOL0     C21606   8.863   1.006   1.290 -0.1941 -0.2596 -0.5739
  161MOL0     C21607   8.803   0.889   1.348 -0.4384 -0.5033 -0.3405
  161MOL0     O21608   8.737   0.787   1.272  0.0251  0.1583 -0.1504
  161MOL0     C21609   8.767   0.769   1.138  0.3429  0.8706 -0.1524
  161MOL0     C21610   8.903   0.706   1.112 -0.7476  0.6912  0.6738
  161MOL0     C21611   8.936   0.716   0.957 -0.3448  0.1839 -0.1109
  161MOL0     C21612   8.872   0.824   0.862  0.6009  0.5015  1.0018
  161MOL0     C21613   8.912   0.826   0.712 -0.3013  0.0582  0.1773
  161MOL0     C21614   8.837   0.932   0.636 -0.2197  0.7158 -0.1795
  161MOL0     C21615   8.877   0.937   0.494 -0.5224 -0.3119  0.0195
  161MOL0     C21616   8.794   1.044   0.424  0.4931 -0.4696  0.8324
  161MOL0     N21617   8.866   1.072   0.307 -0.3867  0.2521 -0.5346
  161MOL0     C21618   8.855   1.013   0.187  0.2933  0.5520 -0.2493
  161MOL0     C21619   8.930   1.086   0.102 -0.2058 -0.5836  0.0563
  161MOL0     C21620   8.929   1.056  -0.044  0.3349  0.5784 -0.6599
  161MOL0     C21621   8.799   1.066  -0.121  0.5924  0.5192 -0.8386
  161MOL0     C21622   8.757   1.202  -0.161 -0.0349  0.7341 -1.0693
  161MOL0     C21623   8.698   1.225  -0.301  0.2841  0.3868 -0.0200
  161MOL0     O21624   8.807   1.240  -0.397  0.1636  0.0799 -0.7299
  161MOL0     C21625   8.784   1.217  -0.530 -0.4148  0.1946 -0.5751
  161MOL0     C21626   8.656   1.228  -0.580 -0.8953 -0.7808  0.2990
  161MOL0     C21627   8.647   1.220  -0.720  0.0287 -0.1862  0.1676
  161MOL0     C21628   8.500   1.249  -0.770 -0.1091 -0.3010 -0.6165
  161MOL0     C21629   8.753   1.165  -0.798  1.1904 -0.3671 -0.2802
  161MOL0     C21630   8.747   1.131  -0.948 -0.0385 -0.2934 -0.6465
  161MOL0     O21631   8.626   1.140  -1.018  0.2338  0.2943 -0.7025
  161MOL0     C21632   8.619   1.202  -1.139 -0.4011 -0.9247  0.0597
  161MOL0     C21633   8.508   1.189  -1.211  1.0079 -0.6129 -0.7506
  161MOL0     C21634   8.486   1.245  -1.328  0.0663  0.1971  0.5962
  161MOL0     C21635   8.580   1.325  -1.385 -0.6088 -0.6561  0.1388
  161MOL0     O21636   8.574   1.391  -1.501 -0.7798  0.8191 -0.4291
  161MOL0     C21637   8.578   1.298  -1.611 -0.7853  0.1401  0.1270
  161MOL0     C21638   8.524   1.364  -1.727  0.1846 -0.0768  0.6231
  161MOL0     C21639   8.632   1.431  -1.815  0.0725  0.7085 -0.1935
  161MOL0     C21640   8.673   1.569  -1.761 -0.3536 -0.4436  0.1495
  161MOL0     C21641   8.765   1.628  -1.875  1.0846 -0.2229 -0.4083
  161MOL0     C21642   8.812   1.774  -1.854 -0.3104  0.2200 -0.5913
  161MOL0     C21643   8.919   1.835  -1.952  0.0009 -0.3678  0.6933
  161MOL0     C21644   9.054   1.780  -1.976  0.3124  0.1780 -0.9666
  161MOL0    Cl21645   9.033   1.652  -2.106 -0.1087 -0.1590 -0.3616
  161MOL0     C21646   8.703   1.348  -1.317 -0.0693  0.5529  0.4745
  161MOL0     C21647   8.717   1.281  -1.188 -0.7610 -0.3773 -0.4996
  161MOL0     O21648   8.860   1.096  -0.999  0.0850 -0.5241  0.0775
  161MOL0     C21649   8.875   1.145  -0.739  1.0313 -0.5226  0.6627
  161MOL0     C21650   8.892   1.181  -0.606  0.5305 -0.7339 -0.4285
  161MOL0     N21651   8.993   1.192   0.174 -0.4905  0.2368 -0.4759
  161MOL0     N21652   8.950   1.179   0.300 -0.6145 -0.8685  0.8628
  161MOL0     C21653   8.797   0.885   1.486  0.1163  0.0597  0.7710
  161MOL0     C21654   8.849   0.976   1.568 -1.1369  0.2052 -0.0254
  161MOL0     C21655   9.009   1.412   1.699 -0.1070 -0.3820  0.4313
  161MOL0     C21656   9.091   1.534   1.692  0.4908 -0.1952  0.0773
  161MOL0     C21657   9.079   1.618   1.807  0.5850 -0.4695 -0.0656
  161MOL0     C21658   9.001   1.597   1.918 -0.2909  0.3577 -0.0622
  161MOL0     O21659   9.004   1.685   2.017  0.2544 -0.8102 -0.1758
  161MOL0     C21660   8.896   1.704   2.119  0.0704  0.6914 -0.2275
  161MOL0     C21661   8.904   1.850   2.183  0.7081 -0.1868 -0.1395
  161MOL0     C21662   8.846   1.967   2.098 -0.7693  0.6216  0.0584
  161MOL0     C21663   8.950   2.062   2.032  0.4942 -0.0694 -0.6490
  161MOL0     C21664   8.997   2.024   1.904  0.1998  1.1578  0.2082
  161MOL0     C21665   9.030   1.979   1.793  0.3835  0.9993  0.5582
  161MOL0     C21666   8.921   1.482   1.922 -0.8829  0.2659 -0.7387
  161MOL0     C21667   8.930   1.387   1.812  0.1490  0.0304 -0.9629
  161MOL0     H21668   8.964   1.194   1.338 -2.5195  1.0132  0.6475
  161MOL0     H21669   8.881   1.010   1.183 -0.3296  1.0514 -0.5648
  161MOL0     H21670   8.692   0.702   1.096 -0.0108  0.5550  0.9380
  161MOL0     H21671   8.747   0.866   1.093 -2.2003  1.4998  2.0451
  161MOL0     H21672   8.991   0.744   1.165  0.8058 -2.4562  0.6054
  161MOL0     H21673   8.905   0.600   1.140  2.6126 -0.0614 -1.7459
  161MOL0     H21674   9.045   0.732   0.951 -0.3633  1.3750  1.7916
  161MOL0     H21675   8.903   0.620   0.917 -0.9906 -0.7416  2.4782
  161MOL0     H21676   8.765   0.805   0.868  0.7804 -0.8899  0.1900
  161MOL0     H21677   8.884   0.930   0.888 -0.9652  0.9976 -0.1649
  161MOL0     H21678   9.021   0.834   0.709 -0.3589  0.9598  0.2509
  161MOL0     H21679   8.877   0.733   0.666  0.5389  0.7993 -2.0870
  161MOL0     H21680   8.730   0.918   0.650 -0.0421 -1.5443 -0.7683
  161MOL0     H21681   8.865   1.028   0.680 -0.9800  0.7446  0.2577
  161MOL0     H21682   8.983   0.964   0.496 -0.8330  1.2204  3.9352
  161MOL0     H21683   8.863   0.841   0.441 -5.0442  1.9723 -3.6754
  161MOL0     H21684   8.795   1.135   0.484  2.0117 -1.8687  3.0425
  161MOL0     H21685   8.693   1.011   0.397  0.4916 -1.5065  2.0206
  161MOL0     H21686   8.793   0.930   0.153  1.6847 -0.5159 -0.2899
  161MOL0     H21687   9.017   1.105  -0.088  0.8825 -0.3661 -0.6532
  161MOL0     H21688   8.958   0.951  -0.032 -1.1723  0.3056  0.9890
  161MOL0     H21689   8.713   1.033  -0.063  0.1071  3.0732  0.0346
  161MOL0     H21690   8.809   1.012  -0.216  1.0983  2.2666 -1.8324
  161MOL0     H21691   8.841   1.270  -0.147  2.5279 -2.3176 -0.5646
  161MOL0     H21692   8.678   1.234  -0.092 -1.1155  0.5266 -2.1697
  161MOL0     H21693   8.628   1.309  -0.298  2.8449  2.8759 -2.7503
  161MOL0     H21694   8.640   1.139  -0.336  2.5452 -0.0807 -3.0437
  161MOL0     H21695   8.571   1.272  -0.529 -1.2710 -0.2807 -0.7102
  161MOL0     H21696   8.489   1.333  -0.839 -0.5244  0.0650 -0.1163
  161MOL0     H21697   8.463   1.159  -0.822  2.5689 -0.2685 -2.7866
  161MOL0     H21698   8.441   1.266  -0.679  3.6401 -0.7391  2.1228
  161MOL0     H21699   8.428   1.140  -1.156  3.5865  1.8384  6.3059
  161MOL0     H21700   8.387   1.240  -1.371 -0.3362  4.6952  0.4817
  161MOL0     H21701   8.683   1.271  -1.626 -0.9013 -0.8807  0.9903
  161MOL0     H21702   8.522   1.204  -1.603  0.0556 -0.9270 -4.0202
  161MOL0     H21703   8.474   1.293  -1.794  0.0960  4.0725 -4.3119
  161MOL0     H21704   8.447   1.436  -1.694 -0.4884 -0.1653 -0.6873
  161MOL0     H21705   8.596   1.441  -1.918 -1.6967  0.1573  0.3233
  161MOL0     H21706   8.728   1.380  -1.820  0.3245  1.2950 -2.0186
  161MOL0     H21707   8.591   1.637  -1.733  0.1024  0.6153 -0.9737
  161MOL0     H21708   8.739   1.566  -1.674 -0.1183  1.5714  0.1064
  161MOL0     H21709   8.721   1.640  -1.974  0.9714  3.1060 -0.0734
  161MOL0     H21710   8.850   1.559  -1.884  2.0762  0.6599  1.4990
  161MOL0     H21711   8.724   1.838  -1.859  0.1412  0.9921  0.6772
  161MOL0     H21712   8.844   1.760  -1.750 -0.5555 -1.2413 -0.6802
  161MOL0     H21713   8.929   1.940  -1.923  4.6416 -0.5078  0.3289
  161MOL0     H21714   8.882   1.834  -2.055  3.0664  0.0352 -0.5282
  161MOL0     H21715   9.098   1.744  -1.882 -2.1511 -4.1455 -1.1820
  161MOL0     H21716   9.129   1.851  -2.012  2.1548 -1.0239  0.3181
  161MOL0     H21717   8.779   1.410  -1.363  0.3288  0.3608  0.8595
  161MOL0     H21718   8.806   1.292  -1.127 -1.3759 -0.6634  0.4777
  161MOL0     H21719   8.968   1.130  -0.793  0.6196 -1.9937  0.3247
  161MOL0     H21720   8.988   1.183  -0.556 -0.5765  0.9615  1.8001
  161MOL0     H21721   8.733   0.809   1.530 -0.9510 -1.0360 -2.3431
  161MOL0     H21722   8.833   0.962   1.675 -1.8688 -0.1201 -0.1734
  161MOL0     H21723   9.155   1.555   1.607  1.9512  4.1145  1.9263
  161MOL0     H21724   9.141   1.706   1.811  1.3125 -0.9493  4.7678
  161MOL0     H21725   8.798   1.681   2.076 -0.0305 -1.0737  0.8456
  161MOL0     H21726   8.929   1.637   2.199  1.5974  1.3878 -0.2305
  161MOL0     H21727   9.002   1.867   2.229 -0.4078 -1.9983  3.3086
  161MOL0     H21728   8.834   1.850   2.268  3.4214  3.5673  2.4373
  161MOL0     H21729   8.785   2.028   2.164  1.1469 -0.3235  2.8857
  161MOL0     H21730   8.787   1.918   2.020  2.0252  0.8562 -2.3907
  161MOL0     H21731   9.033   2.089   2.098  0.1860 -0.7676  0.0400
  161MOL0     H21732   8.900   2.159   2.022  3.6698  2.0230  1.7672
  161MOL0     H21733   9.067   1.953   1.696 -0.3644 -0.9670  0.7476
  161MOL0     H21734   8.858   1.465   2.009 -0.8640  0.2224 -0.7333
  161MOL0     H21735   8.866   1.301   1.829  0.1167  0.3199  0.4857
  162MOL0     O21736   8.404   1.431   0.019 -0.1656  0.1203 -0.0514
  162MOL0     C21737   8.497   1.436   0.102  0.8944  0.5166  0.7208
  162MOL0     O21738   8.618   1.476   0.076  0.3603  0.6042 -0.8775
  162MOL0     C21739   8.656   1.530  -0.044 -0.3308 -0.0564  0.0130
  162MOL0     C21740   8.581   1.599  -0.147  0.0817 -0.3754  0.4569
  162MOL0     C21741   8.645   1.641  -0.266 -0.2675 -0.3639  0.8200
  162MOL0     C21742   8.789   1.630  -0.288 -0.8051  0.2936 -0.0796
  162MOL0     O21743   8.859   1.691  -0.383 -0.4344 -0.6670 -0.3587
  162MOL0     C21744   8.810   1.703  -0.522  0.4939  0.3417 -0.4404
  162MOL0     C21745   8.804   1.576  -0.598 -0.4662 -0.0858  0.2245
  162MOL0     C21746   8.770   1.619  -0.748 -0.2814 -0.2168  0.4202
  162MOL0     C21747   8.813   1.520  -0.862 -0.0354  0.7682 -0.0079
  162MOL0     C21748   8.973   1.504  -0.861 -0.4757 -0.5881  0.3826
  162MOL0     C21749   9.027   1.401  -0.969 -0.4672 -0.7118  0.5266
  162MOL0     C21750   9.163   1.434  -1.010 -0.6093  0.4043 -0.1924
  162MOL0     C21751   9.201   1.563  -1.070  0.0116 -0.0706  0.0886
  162MOL0     N21752   9.326   1.558  -1.148  0.0208  0.0152 -1.1483
  162MOL0     C21753   9.450   1.552  -1.088 -0.0345  0.6474  0.5910
  162MOL0     C21754   9.534   1.557  -1.194 -0.4517 -0.3721  0.6962
  162MOL0     C21755   9.674   1.502  -1.194  0.6910  0.4280  0.5895
  162MOL0     C21756   9.778   1.607  -1.222 -0.8536 -0.3150 -0.4857
  162MOL0     C21757   9.906   1.552  -1.267 -0.2608  0.1581  0.1901
  162MOL0     C21758  10.028   1.627  -1.203 -0.3333 -0.4383  0.5543
  162MOL0     O21759  10.004   1.767  -1.228 -0.7553 -0.4844 -0.3130
  162MOL0     C21760  10.089   1.854  -1.157 -0.6700 -0.7326 -0.3958
  162MOL0     C21761  10.055   1.990  -1.163  0.1995 -0.2145 -0.4908
  162MOL0     C21762  10.132   2.092  -1.089  1.3035 -0.3500 -0.4496
  162MOL0     C21763  10.081   2.229  -1.077  0.8371 -0.3373 -0.6057
  162MOL0     C21764  10.249   2.053  -1.025  0.0094 -1.2303  0.0353
  162MOL0     C21765  10.338   2.148  -0.940 -0.2327  0.1407 -0.3425
  162MOL0     O21766  10.465   2.086  -0.907  0.2563 -0.6909  0.5548
  162MOL0     C21767  10.564   2.146  -0.846 -1.3883 -0.8055  0.6319
  162MOL0     C21768  10.674   2.063  -0.819  0.2724  0.3086 -0.3344
  162MOL0     C21769  10.783   2.107  -0.753 -0.8441  0.7181  0.2461
  162MOL0     C21770  10.790   2.249  -0.718  0.6154 -0.3762  0.2463
  162MOL0     O21771  10.913   2.287  -0.667  0.5430 -0.3283 -0.2839
  162MOL0     C21772  10.912   2.375  -0.563  0.0494  0.3584  0.0029
  162MOL0     C21773  11.052   2.364  -0.488 -0.2216  0.5912 -0.4483
  162MOL0     C21774  11.170   2.453  -0.536  0.4245  0.1312 -0.1244
  162MOL0     C21775  11.292   2.437  -0.443 -0.1099 -1.1748 -0.0610
  162MOL0     C21776  11.395   2.545  -0.495 -1.2261 -0.0923  0.5710
  162MOL0     C21777  11.522   2.554  -0.407 -0.3003 -0.3020  0.5681
  162MOL0     C21778  11.647   2.580  -0.503  0.2048  0.3067 -0.1679
  162MOL0     C21779  11.674   2.469  -0.599  0.4689 -0.2235 -0.6056
  162MOL0    Cl21780  11.664   2.306  -0.516 -0.0710  0.0674 -0.0399
  162MOL0     C21781  10.698   2.339  -0.766 -0.7828  0.3032  0.8873
  162MOL0     C21782  10.585   2.285  -0.828 -0.3587  0.2503  0.1362
  162MOL0     O21783  10.303   2.253  -0.897 -0.6274 -1.0678 -0.4876
  162MOL0     C21784  10.290   1.924  -1.033  0.0783  0.3805  0.6221
  162MOL0     C21785  10.212   1.822  -1.090 -0.5164  0.1058 -0.0560
  162MOL0     N21786   9.471   1.586  -1.312  0.4238  0.2855  0.4912
  162MOL0     N21787   9.346   1.576  -1.282 -0.1487  1.4168 -0.4583
  162MOL0     C21788   8.858   1.573  -0.179  0.0979 -0.2392 -0.1049
  162MOL0     C21789   8.792   1.527  -0.062 -0.7505 -0.2476  0.1120
  162MOL0     C21790   8.485   1.373   0.238 -0.8132 -0.1926 -0.1367
  162MOL0     C21791   8.367   1.339   0.290  0.2773  0.9818  0.0907
  162MOL0     C21792   8.353   1.263   0.414 -0.7657  0.5611 -0.9075
  162MOL0     C21793   8.466   1.263   0.504  0.8342 -0.9524  0.1875
  162MOL0     O21794   8.477   1.194   0.625  0.1064  0.1200 -0.5202
  162MOL0     C21795   8.355   1.165   0.701  0.5616  0.0877 -0.7275
  162MOL0     C21796   8.390   1.114   0.837  0.8535  0.6519  0.1759
  162MOL0     C21797   8.253   1.083   0.912  0.2685 -0.3562  0.5087
  162MOL0     C21798   8.278   1.036   1.061  0.5784  0.0200 -0.2257
  162MOL0     C21799   8.349   0.906   1.060  0.9314  0.0581  0.1017
  162MOL0     C21800   8.427   0.816   1.055  0.5923  0.2175 -0.4411
  162MOL0     C21801   8.584   1.315   0.455  0.4447 -0.4505 -0.6401
  162MOL0     C21802   8.598   1.368   0.325  0.3174  0.6778  0.5204
  162MOL0     H21803   8.473   1.614  -0.152  0.1895  0.9524  1.5281
  162MOL0     H21804   8.573   1.689  -0.331 -3.4669  1.9800  5.5127
  162MOL0     H21805   8.712   1.753  -0.528 -1.7177 -3.7100 -1.6762
  162MOL0     H21806   8.885   1.765  -0.572  0.0340  0.9636 -0.3659
  162MOL0     H21807   8.901   1.528  -0.582  0.8257  1.6699 -1.8109
  162MOL0     H21808   8.716   1.526  -0.557 -0.4350  2.2445  3.5527
  162MOL0     H21809   8.663   1.636  -0.763 -0.2480 -2.1768 -3.2426
  162MOL0     H21810   8.825   1.711  -0.769 -0.2594 -0.8941 -3.0433
  162MOL0     H21811   8.766   1.421  -0.856 -4.0705  2.3684 -1.6975
  162MOL0     H21812   8.785   1.548  -0.964 -1.8457 -2.5097 -0.5931
  162MOL0     H21813   9.008   1.602  -0.894  0.4772 -0.7686  0.8390
  162MOL0     H21814   9.010   1.480  -0.761 -3.1659  0.0735  1.6172
  162MOL0     H21815   9.034   1.300  -0.927  2.5873  0.4608  3.3283
  162MOL0     H21816   8.960   1.398  -1.055  0.8478 -2.0239 -0.5159
  162MOL0     H21817   9.205   1.423  -0.909 -0.5293 -2.3638 -0.4489
  162MOL0     H21818   9.223   1.358  -1.060  3.3844  2.9599  0.2079
  162MOL0     H21819   9.200   1.643  -0.995 -1.5789  0.3009 -0.2781
  162MOL0     H21820   9.119   1.593  -1.137  0.2879  0.8919  0.1697
  162MOL0     H21821   9.473   1.518  -0.987 -0.9174  0.6760  0.8133
  162MOL0     H21822   9.686   1.463  -1.093  2.4299 -1.6096 -0.3140
  162MOL0     H21823   9.669   1.413  -1.259 -0.1053  1.8176 -1.3674
  162MOL0     H21824   9.782   1.665  -1.129  1.0173  2.2842 -2.0566
  162MOL0     H21825   9.748   1.675  -1.302  2.9726  2.0816 -0.1434
  162MOL0     H21826   9.914   1.547  -1.376  2.2152  2.3047  0.1906
  162MOL0     H21827   9.925   1.453  -1.224 -0.6055 -0.2232 -0.5158
  162MOL0     H21828  10.116   1.601  -1.262 -1.3692 -0.9096 -0.8309
  162MOL0     H21829  10.038   1.600  -1.097  0.0287  1.4805  1.0574
  162MOL0     H21830   9.968   2.011  -1.224 -0.3716 -1.3922 -0.1198
  162MOL0     H21831  10.160   2.289  -1.125 -1.1261  1.7789 -1.3960
  162MOL0     H21832   9.989   2.246  -1.133  1.9352  1.7528 -1.9128
  162MOL0     H21833  10.062   2.252  -0.972 -1.2200 -4.2754  0.0696
  162MOL0     H21834  10.667   1.956  -0.838  1.4215 -0.0146  0.9262
  162MOL0     H21835  10.868   2.040  -0.750 -0.8044  0.5196 -2.6790
  162MOL0     H21836  10.917   2.478  -0.599 -0.7850  1.1422  1.9642
  162MOL0     H21837  10.824   2.364  -0.498  1.2879  3.1391  2.3576
  162MOL0     H21838  11.031   2.386  -0.383  0.6767 -0.3501 -0.0629
  162MOL0     H21839  11.089   2.262  -0.495 -2.1478 -0.0602 -4.9845
  162MOL0     H21840  11.144   2.558  -0.547 -3.8426 -0.9584 -2.8958
  162MOL0     H21841  11.196   2.431  -0.640  0.5891 -1.8558  0.2861
  162MOL0     H21842  11.252   2.455  -0.343  1.2530  3.0519 -0.1079
  162MOL0     H21843  11.339   2.338  -0.444  3.5786  0.3539  2.1530
  162MOL0     H21844  11.366   2.650  -0.484  1.7758  0.7259  1.8896
  162MOL0     H21845  11.403   2.522  -0.601 -2.0207 -4.3886  1.2603
  162MOL0     H21846  11.505   2.632  -0.333  3.7130 -0.4279  1.8092
  162MOL0     H21847  11.533   2.457  -0.357 -1.1688 -1.2036 -0.9054
  162MOL0     H21848  11.727   2.589  -0.429 -0.6694 -0.7361  0.9641
  162MOL0     H21849  11.640   2.673  -0.560  0.0246  1.4226  1.6082
  162MOL0     H21850  11.769   2.483  -0.651 -0.8284  2.0323 -2.6415
  162MOL0     H21851  11.608   2.491  -0.684  0.5550  2.2363 -0.1132
  162MOL0     H21852  10.716   2.445  -0.754  1.3493  0.1310 -0.2576
  162MOL0     H21853  10.502   2.354  -0.843 -1.4190 -1.1823 -0.8934
  162MOL0     H21854  10.388   1.896  -0.997 -0.1727 -1.3790  0.0210
  162MOL0     H21855  10.250   1.720  -1.098 -2.5055 -0.5377 -3.7912
  162MOL0     H21856   8.966   1.562  -0.181  0.1862  0.3255 -3.2938
  162MOL0     H21857   8.845   1.479   0.019 -1.5095 -0.2996  0.5859
  162MOL0     H21858   8.279   1.355   0.227 -0.7097 -2.2410  0.4480
  162MOL0     H21859   8.256   1.217   0.428 -1.5430  1.3272 -3.2777
  162MOL0     H21860   8.286   1.249   0.688 -0.4278 -1.0209 -3.0208
  162MOL0     H21861   8.305   1.088   0.643 -0.9090  1.7475 -1.7740
  162MOL0     H21862   8.461   1.183   0.884  1.5364  0.9686 -1.2720
  162MOL0     H21863   8.432   1.013   0.832  0.3447  0.2549  2.5463
  162MOL0     H21864   8.197   1.000   0.868 -1.3231 -1.9062  4.9638
  162MOL0     H21865   8.191   1.173   0.918  0.3332 -0.1859 -0.9012
  162MOL0     H21866   8.187   1.022   1.120  0.6900 -1.3442 -0.3490
  162MOL0     H21867   8.354   1.102   1.106  1.8412 -2.0166  0.7658
  162MOL0     H21868   8.501   0.739   1.064  1.5865  1.2435  0.3405
  162MOL0     H21869   8.672   1.308   0.518 -0.1971 -0.1452  0.3095
  162MOL0     H21870   8.695   1.404   0.293  0.2682 -0.3254 -0.8748
  163MOL0     O21871   9.899   3.247   1.378  0.2662 -0.1116 -0.9950
  163MOL0     C21872   9.923   3.126   1.389  0.3046  0.1817  0.7399
  163MOL0     O21873   9.844   3.029   1.441  0.5063 -0.4538  0.9622
  163MOL0     C21874   9.736   3.067   1.508 -0.6438 -0.4425  0.8256
  163MOL0     C21875   9.735   3.169   1.602  0.8056 -0.4214 -0.2983
  163MOL0     C21876   9.617   3.186   1.676  0.0386  0.1982 -0.3906
  163MOL0     C21877   9.497   3.112   1.638 -1.2321  0.0658 -1.2518
  163MOL0     O21878   9.379   3.132   1.701 -0.1191 -0.0196 -0.3551
  163MOL0     C21879   9.256   3.123   1.631 -0.2910  0.8254  0.1841
  163MOL0     C21880   9.155   3.163   1.722  0.7057  0.4347 -0.1965
  163MOL0     C21881   9.023   3.196   1.655  0.7349  0.3426  0.7278
  163MOL0     C21882   8.980   3.084   1.569 -0.0815 -0.5223 -0.4134
  163MOL0     C21883   8.827   3.092   1.562  0.0732 -0.8479  0.2360
  163MOL0     C21884   8.736   3.076   1.686  0.1422  0.6871 -0.0498
  163MOL0     C21885   8.759   2.930   1.754 -0.3053  0.6694  0.0226
  163MOL0     C21886   8.659   2.821   1.709  1.0049 -0.8130  0.0210
  163MOL0     N21887   8.686   2.699   1.784  0.0138 -0.2343  0.3719
  163MOL0     C21888   8.773   2.602   1.741 -0.1314 -0.3452 -0.5369
  163MOL0     C21889   8.744   2.495   1.827 -0.5203 -0.1796 -0.3789
  163MOL0     C21890   8.819   2.369   1.831  0.5673 -0.0277  0.3600
  163MOL0     C21891   8.728   2.252   1.797  0.5089  0.8388 -0.3528
  163MOL0     C21892   8.680   2.228   1.656 -0.0531  1.3132 -0.9131
  163MOL0     C21893   8.587   2.101   1.661  0.1227 -0.1069  0.7408
  163MOL0     O21894   8.568   2.060   1.528  0.0316  1.0075  0.0458
  163MOL0     C21895   8.504   2.143   1.438 -0.3663 -0.3744  0.4392
  163MOL0     C21896   8.580   2.179   1.329  0.4707 -0.0651 -0.5162
  163MOL0     C21897   8.524   2.234   1.212  0.4830 -0.7928 -0.9372
  163MOL0     C21898   8.611   2.246   1.089  0.6098  0.7267 -0.0137
  163MOL0     C21899   8.378   2.269   1.220  0.4400 -0.1280  0.1483
  163MOL0     C21900   8.320   2.329   1.098  0.1575 -0.6697  0.2780
  163MOL0     O21901   8.396   2.422   1.032 -0.1918  0.1975  0.4435
  163MOL0     C21902   8.351   2.468   0.907 -0.0328 -0.5209  0.3875
  163MOL0     C21903   8.234   2.534   0.899 -1.1036 -0.8600 -0.0642
  163MOL0     C21904   8.190   2.576   0.773 -0.0676 -1.0307 -0.4549
  163MOL0     C21905   8.284   2.582   0.668  0.8009 -0.3696 -0.2355
  163MOL0     O21906   8.238   2.662   0.571 -0.9662 -1.0843 -0.2370
  163MOL0     C21907   8.298   2.651   0.446  0.1594  0.3017  0.2756
  163MOL0     C21908   8.181   2.671   0.345 -0.7135 -0.2747 -0.2346
  163MOL0     C21909   8.213   2.660   0.194 -0.6502  0.3590 -0.1361
  163MOL0     C21910   8.250   2.507   0.163 -0.7270 -0.0794 -0.2631
  163MOL0     C21911   8.275   2.467   0.017  0.0334 -0.0870 -0.3345
  163MOL0     C21912   8.147   2.432  -0.069  0.2359 -0.1892 -0.0467
  163MOL0     C21913   8.154   2.456  -0.221 -0.3776 -0.2130 -0.8346
  163MOL0     C21914   8.255   2.371  -0.296  0.8161 -0.1487 -0.8529
  163MOL0    Cl21915   8.203   2.374  -0.465 -0.4798  0.6486 -0.0031
  163MOL0     C21916   8.409   2.515   0.676 -0.0481  0.4531  0.2184
  163MOL0     C21917   8.436   2.453   0.794  0.1638 -0.4866  0.4850
  163MOL0     O21918   8.200   2.305   1.069 -0.4567  0.3626 -0.5666
  163MOL0     C21919   8.302   2.242   1.331  0.0439 -0.3897  0.5705
  163MOL0     C21920   8.371   2.172   1.443  0.2256 -0.2019  0.4709
  163MOL0     N21921   8.641   2.532   1.910 -0.8448 -1.0549 -0.6106
  163MOL0     N21922   8.612   2.655   1.889 -0.3635  0.8026 -0.3980
  163MOL0     C21923   9.503   3.035   1.522 -0.0212  0.4045 -0.2041
  163MOL0     C21924   9.628   3.002   1.464  0.2735  0.3739  0.4406
  163MOL0     C21925  10.060   3.084   1.347 -1.0445 -0.1335 -0.3636
  163MOL0     C21926  10.138   3.168   1.264  0.1167 -0.5692 -0.0979
  163MOL0     C21927  10.261   3.122   1.222 -0.6810  0.3003  0.0618
  163MOL0     C21928  10.321   3.001   1.280 -0.0182  0.9800  0.3837
  163MOL0     O21929  10.439   2.947   1.244  0.5848  0.4742  0.1103
  163MOL0     C21930  10.438   2.870   1.117 -0.2281 -0.3954  0.0113
  163MOL0     C21931  10.464   2.718   1.149 -0.4531 -0.4256 -0.6725
  163MOL0     C21932  10.521   2.635   1.016  0.3535 -0.2369  0.5960
  163MOL0     C21933  10.672   2.614   1.015  0.3353  0.2866  0.3717
  163MOL0     C21934  10.716   2.509   1.111  1.3061  0.6649  0.0418
  163MOL0     C21935  10.771   2.428   1.189  0.7075  0.6880  0.3132
  163MOL0     C21936  10.237   2.918   1.359 -0.4403 -0.0280 -0.1002
  163MOL0     C21937  10.107   2.951   1.383  0.2275  0.7842 -0.3204
  163MOL0     H21938   9.828   3.219   1.624 -1.0178  2.8992  0.5657
  163MOL0     H21939   9.606   3.253   1.759 -0.7123 -2.0233  1.4057
  163MOL0     H21940   9.253   3.194   1.547  2.2502 -1.5051 -2.0701
  163MOL0     H21941   9.235   3.020   1.603  2.3718 -0.4411  2.4105
  163MOL0     H21942   9.147   3.104   1.814  1.9076  1.1090  0.3767
  163MOL0     H21943   9.181   3.260   1.766  0.5674  1.0501 -1.4363
  163MOL0     H21944   8.949   3.226   1.730  2.2974 -2.2804  3.5432
  163MOL0     H21945   9.023   3.283   1.588 -2.2136  0.0285  0.1590
  163MOL0     H21946   9.015   3.110   1.469  2.0537 -1.6490 -0.0160
  163MOL0     H21947   9.016   2.990   1.611  0.1291 -0.4459 -0.4217
  163MOL0     H21948   8.808   3.194   1.527  1.0029 -2.0988 -4.5426
  163MOL0     H21949   8.800   3.013   1.491  0.8398 -1.1502  0.2733
  163MOL0     H21950   8.764   3.150   1.762  2.2249  0.4709 -0.5448
  163MOL0     H21951   8.629   3.095   1.674  0.4472  1.9403 -0.9728
  163MOL0     H21952   8.863   2.901   1.740 -0.6026  0.2373 -1.3938
  163MOL0     H21953   8.757   2.948   1.862  1.1387 -0.7323  0.3107
  163MOL0     H21954   8.686   2.807   1.604  1.2542  2.0763 -0.3920
  163MOL0     H21955   8.554   2.853   1.709  2.3871  5.4334  3.0033
  163MOL0     H21956   8.849   2.594   1.664 -0.4514 -2.4323 -0.6867
  163MOL0     H21957   8.905   2.378   1.764  3.3073 -4.1502  2.8879
  163MOL0     H21958   8.854   2.348   1.932  3.3925 -0.0414 -0.5334
  163MOL0     H21959   8.639   2.270   1.858 -0.3043 -4.5310  0.5694
  163MOL0     H21960   8.761   2.158   1.843 -2.1849 -0.5699 -1.0888
  163MOL0     H21961   8.772   2.206   1.602 -0.3475  0.0058 -0.9160
  163MOL0     H21962   8.629   2.314   1.613  0.7627  1.7349 -1.0530
  163MOL0     H21963   8.488   2.119   1.703 -0.0319 -0.5987  0.5948
  163MOL0     H21964   8.636   2.021   1.716 -1.1192 -0.1465  1.8296
  163MOL0     H21965   8.685   2.152   1.325  0.6700  0.7556 -0.9339
  163MOL0     H21966   8.710   2.201   1.106  1.1226  0.7313 -2.5914
  163MOL0     H21967   8.571   2.201   0.998  2.1085  3.2590 -2.0851
  163MOL0     H21968   8.628   2.351   1.061 -1.0528  1.2533  0.8381
  163MOL0     H21969   8.176   2.548   0.990  0.4139  1.9012  0.5866
  163MOL0     H21970   8.093   2.624   0.770 -0.5928 -2.0546 -0.5776
  163MOL0     H21971   8.373   2.730   0.437 -0.5406  0.8891 -0.5587
  163MOL0     H21972   8.332   2.551   0.417 -0.9971  0.2231 -0.9618
  163MOL0     H21973   8.092   2.615   0.373 -1.7169  1.5002  0.3016
  163MOL0     H21974   8.142   2.773   0.355 -2.8403 -1.0768  0.1092
  163MOL0     H21975   8.289   2.731   0.162 -0.0989 -0.3795 -0.4974
  163MOL0     H21976   8.120   2.681   0.141 -1.4773 -0.8319  0.7822
  163MOL0     H21977   8.346   2.494   0.214 -0.6440  3.3343  0.7191
  163MOL0     H21978   8.171   2.443   0.204  1.1855 -0.7905  2.6379
  163MOL0     H21979   8.329   2.373   0.036 -2.8477 -1.5658  1.2220
  163MOL0     H21980   8.352   2.533  -0.024  2.7447 -1.3185  2.3422
  163MOL0     H21981   8.120   2.326  -0.060 -0.6385 -0.0644 -1.0052
  163MOL0     H21982   8.062   2.480  -0.019  0.0725 -1.9260  1.4693
  163MOL0     H21983   8.175   2.563  -0.233 -0.1937  0.0576  1.3427
  163MOL0     H21984   8.060   2.425  -0.269  1.2394 -1.0495 -3.6970
  163MOL0     H21985   8.260   2.269  -0.257  0.1480 -0.1799 -0.8395
  163MOL0     H21986   8.361   2.397  -0.288  1.9689 -4.3850 -0.3865
  163MOL0     H21987   8.486   2.523   0.600 -1.1823 -0.2337 -1.0565
  163MOL0     H21988   8.536   2.411   0.803  1.3260  1.9399 -0.1593
  163MOL0     H21989   8.194   2.247   1.331 -0.0934 -2.1184 -1.4260
  163MOL0     H21990   8.307   2.133   1.521 -0.1621 -0.2197  0.1476
  163MOL0     H21991   9.413   2.991   1.480 -2.2152  2.6372  1.7768
  163MOL0     H21992   9.637   2.935   1.379  2.0711  2.0619 -0.7899
  163MOL0     H21993  10.087   3.260   1.238 -2.4477 -2.2819 -1.6880
  163MOL0     H21994  10.311   3.198   1.162  1.9304 -1.2419  0.1870
  163MOL0     H21995  10.335   2.872   1.080 -1.1003 -3.8678  1.8123
  163MOL0     H21996  10.496   2.913   1.035 -0.2937  2.3108  1.2647
  163MOL0     H21997  10.372   2.665   1.174  0.0268 -0.7350  0.5401
  163MOL0     H21998  10.531   2.704   1.234  0.2443  0.4425 -1.0633
  163MOL0     H21999  10.476   2.692   0.934 -0.4205 -0.1539  1.0643
  163MOL0     H22000  10.476   2.535   1.014 -2.4425  0.9287 -0.5760
  163MOL0     H22001  10.712   2.712   1.041  1.9775 -1.0797  3.4748
  163MOL0     H22002  10.703   2.572   0.918  0.4617 -1.2750  1.0599
  163MOL0     H22003  10.810   2.345   1.243  0.8279  1.7531  1.9322
  163MOL0     H22004  10.273   2.816   1.366 -0.8804 -0.3014 -1.4604
  163MOL0     H22005  10.054   2.877   1.442  3.4237 -1.0911  0.4232
  164MOL0     O22006  10.488   9.888   5.770  0.4347 -0.1040 -0.8251
  164MOL0     C22007  10.480   9.992   5.833  0.4758 -0.0885  0.0979
  164MOL0     O22008  10.413  10.014   5.951 -0.5676  0.5102  0.2098
  164MOL0     C22009  10.311   9.924   5.989  0.0834 -0.0311  0.2514
  164MOL0     C22010  10.218   9.883   5.892 -0.2428  0.1237 -0.4655
  164MOL0     C22011  10.113   9.798   5.928  1.4641  0.3305 -0.6608
  164MOL0     C22012  10.099   9.767   6.075  0.0917  0.1761  0.9411
  164MOL0     O22013   9.993   9.695   6.137  0.0842 -0.0290  0.4835
  164MOL0     C22014   9.891   9.643   6.055  0.3453  0.4455  1.1129
  164MOL0     C22015   9.785   9.563   6.137  0.1689 -0.1884 -0.0410
  164MOL0     C22016   9.832   9.472   6.234 -1.6927  0.0364 -0.7857
  164MOL0     C22017   9.916   9.373   6.162  0.1433 -0.0955 -0.1588
  164MOL0     C22018   9.966   9.273   6.268 -1.1035 -0.1277 -0.1600
  164MOL0     C22019  10.034   9.158   6.206  0.1928  0.1458  0.2270
  164MOL0     C22020  10.182   9.180   6.171 -0.3797 -0.3189 -0.6657
  164MOL0     C22021  10.230   9.069   6.076 -0.3328 -0.2253 -0.8654
  164MOL0     N22022  10.236   8.943   6.150 -1.0922 -0.2854 -0.4232
  164MOL0     C22023  10.143   8.852   6.178 -0.7359  0.1291  0.0517
  164MOL0     C22024  10.186   8.773   6.271 -0.6964  0.7929  0.0089
  164MOL0     C22025  10.130   8.639   6.306  1.2952 -0.1262 -0.6558
  164MOL0     C22026  10.122   8.547   6.191  0.4681  0.0176 -0.0059
  164MOL0     C22027  10.268   8.494   6.165  0.0284 -0.0266 -0.0202
  164MOL0     C22028  10.343   8.433   6.284  0.1225 -0.5414 -0.4310
  164MOL0     O22029  10.458   8.367   6.240  0.0498 -0.3433 -0.2928
  164MOL0     C22030  10.505   8.262   6.317 -0.5486 -0.8472  1.7772
  164MOL0     C22031  10.477   8.249   6.452 -0.0716  0.5261  0.4804
  164MOL0     C22032  10.510   8.125   6.518 -0.0681 -0.3743  0.6120
  164MOL0     C22033  10.479   8.116   6.662 -0.2362  0.0527 -0.6264
  164MOL0     C22034  10.565   8.019   6.442  0.0347 -0.1036 -0.5421
  164MOL0     C22035  10.591   7.886   6.498 -0.0149  0.6995  0.1495
  164MOL0     O22036  10.643   7.872   6.620  0.0299 -0.1821  0.1853
  164MOL0     C22037  10.622   7.752   6.680  0.7711 -0.3755 -0.8747
  164MOL0     C22038  10.709   7.644   6.658 -0.1010 -0.2025 -0.2401
  164MOL0     C22039  10.699   7.518   6.721  0.0240 -0.4499 -0.6902
  164MOL0     C22040  10.590   7.505   6.814  0.0935  0.5381  0.1342
  164MOL0     O22041  10.578   7.381   6.876  0.2606  0.5935  0.6464
  164MOL0     C22042  10.696   7.323   6.929 -0.9645 -0.2029 -0.5709
  164MOL0     C22043  10.664   7.195   7.011  0.6204 -0.0277  1.0311
  164MOL0     C22044  10.794   7.150   7.074  0.0816  0.1615  0.1794
  164MOL0     C22045  10.781   7.002   7.104 -0.4363  0.2855 -0.0574
  164MOL0     C22046  10.922   6.955   7.131 -0.3601  0.0053  0.2811
  164MOL0     C22047  10.935   6.805   7.161  1.1191  0.2639 -0.4026
  164MOL0     C22048  11.082   6.771   7.207 -0.4080  0.3012 -0.2764
  164MOL0     C22049  11.081   6.627   7.251 -0.5475  0.3533 -0.0575
  164MOL0    Cl22050  11.091   6.521   7.102 -0.0473  0.4212 -0.2854
  164MOL0     C22051  10.502   7.615   6.836  0.6938 -0.3701  0.1928
  164MOL0     C22052  10.517   7.741   6.775 -0.2991  0.8197 -1.0599
  164MOL0     O22053  10.565   7.791   6.428  0.2577 -0.1052  0.6378
  164MOL0     C22054  10.607   8.041   6.312  1.3507  0.4883 -0.1326
  164MOL0     C22055  10.578   8.160   6.246  0.2172  0.5603 -0.4661
  164MOL0     N22056  10.318   8.816   6.290 -0.0897 -0.1505 -0.2429
  164MOL0     N22057  10.350   8.909   6.213  0.6674 -0.1537 -0.3175
  164MOL0     C22058  10.192   9.812   6.162  0.2519  0.0544 -0.4509
  164MOL0     C22059  10.302   9.882   6.122 -0.7657  0.7937  0.3437
  164MOL0     C22060  10.546  10.111   5.781  0.2411  0.6148 -0.4547
  164MOL0     C22061  10.683  10.107   5.748  0.7776 -0.3460 -0.3957
  164MOL0     C22062  10.751  10.220   5.697  1.1831 -0.1191  0.0933
  164MOL0     C22063  10.688  10.342   5.692  0.2930  0.3928 -0.1935
  164MOL0     O22064  10.761  10.456   5.673 -0.6593 -0.1476  0.0347
  164MOL0     C22065  10.840  10.515   5.770 -0.1328  0.0186  0.6636
  164MOL0     C22066  10.903  10.644   5.730  0.6030  0.6405 -0.3567
  164MOL0     C22067  10.794  10.751   5.706  0.3065  0.5018 -0.0373
  164MOL0     C22068  10.838  10.864   5.611  0.6760  0.8412 -0.7511
  164MOL0     C22069  10.727  10.956   5.595 -0.0294 -0.3897  0.0458
  164MOL0     C22070  10.630  11.030   5.588 -0.5032 -0.3539 -0.3039
  164MOL0     C22071  10.549  10.349   5.727  0.0397  0.0208 -0.3086
  164MOL0     C22072  10.475  10.236   5.771 -0.4308 -0.6325 -0.5513
  164MOL0     H22073  10.227   9.934   5.797 -2.3343  0.2720 -0.6187
  164MOL0     H22074  10.045   9.771   5.848  1.4695  1.5810 -1.1179
  164MOL0     H22075   9.850   9.723   5.993 -1.9192 -0.0459  1.8993
  164MOL0     H22076   9.929   9.576   5.977 -0.4827  0.2951  0.8248
  164MOL0     H22077   9.714   9.628   6.190  0.7103 -1.4238  2.2918
  164MOL0     H22078   9.721   9.510   6.065 -0.8059  1.4607 -0.4444
  164MOL0     H22079   9.896   9.530   6.301 -0.3819  0.1242 -2.0655
  164MOL0     H22080   9.747   9.432   6.291 -1.8020  1.6357  0.2456
  164MOL0     H22081   9.855   9.321   6.087  0.5255  0.1570 -0.6540
  164MOL0     H22082  10.005   9.423   6.123 -0.5139  0.7864 -0.5432
  164MOL0     H22083  10.037   9.319   6.338 -1.2612 -0.3548  0.1487
  164MOL0     H22084   9.879   9.243   6.327 -2.1594  3.2531  0.2117
  164MOL0     H22085  10.033   9.075   6.278 -4.5302 -0.6112 -0.3708
  164MOL0     H22086   9.981   9.125   6.116 -0.6517  0.6993  0.5072
  164MOL0     H22087  10.195   9.271   6.113  2.6926  0.9302  1.7437
  164MOL0     H22088  10.261   9.186   6.246  1.6468  1.4424 -2.7826
  164MOL0     H22089  10.324   9.090   6.024  1.9977 -0.1352  3.0060
  164MOL0     H22090  10.148   9.057   6.004 -0.7761  0.9818 -0.5738
  164MOL0     H22091  10.041   8.842   6.141 -1.8194  3.2284  1.7899
  164MOL0     H22092  10.185   8.599   6.391 -0.7013  0.3643  0.9390
  164MOL0     H22093  10.032   8.646   6.354 -0.2809 -2.2041 -3.2693
  164MOL0     H22094  10.082   8.590   6.099 -2.1836 -1.0991  0.5306
  164MOL0     H22095  10.053   8.465   6.212 -1.5878  1.5769 -0.2956
  164MOL0     H22096  10.329   8.579   6.132 -1.3897  0.9505 -0.2138
  164MOL0     H22097  10.247   8.413   6.095 -3.9129 -2.2875  3.3685
  164MOL0     H22098  10.283   8.355   6.331  0.8512 -0.1978  1.1439
  164MOL0     H22099  10.374   8.514   6.351 -2.3882  0.6089 -0.5301
  164MOL0     H22100  10.430   8.334   6.500  1.7568  1.6608  0.3266
  164MOL0     H22101  10.418   8.198   6.700  0.0301  0.7965 -1.7474
  164MOL0     H22102  10.436   8.016   6.678  1.1945 -0.4402  0.2722
  164MOL0     H22103  10.575   8.126   6.713 -1.1643  2.2684  0.7884
  164MOL0     H22104  10.780   7.667   6.579  0.6810 -1.1700  0.1648
  164MOL0     H22105  10.771   7.442   6.695 -1.6238 -2.6109  0.6539
  164MOL0     H22106  10.762   7.282   6.852  0.4294  0.9977 -0.0665
  164MOL0     H22107  10.759   7.390   6.988  0.2765 -1.8799  0.0866
  164MOL0     H22108  10.585   7.222   7.082 -0.7463 -0.5936 -0.2181
  164MOL0     H22109  10.624   7.125   6.937 -0.0132  0.5129  0.8520
  164MOL0     H22110  10.815   7.215   7.160  1.4530  0.7940 -0.5986
  164MOL0     H22111  10.866   7.167   6.994 -0.7113  3.4940  0.0188
  164MOL0     H22112  10.710   6.981   7.184  0.5769 -0.0821  0.7808
  164MOL0     H22113  10.752   6.951   7.012 -1.3449 -0.3739  0.5805
  164MOL0     H22114  10.959   7.027   7.205 -0.9924  0.4047  0.2241
  164MOL0     H22115  10.994   6.981   7.053  2.3578  0.0551  2.6666
  164MOL0     H22116  10.869   6.789   7.246  0.1233 -0.8257 -1.3413
  164MOL0     H22117  10.904   6.748   7.073 -0.1261  1.3135 -0.6776
  164MOL0     H22118  11.114   6.832   7.292  2.8909 -0.4319 -0.8622
  164MOL0     H22119  11.155   6.793   7.129 -0.5298 -2.4753 -1.2986
  164MOL0     H22120  10.990   6.600   7.305  0.0243 -1.1327  0.2033
  164MOL0     H22121  11.167   6.599   7.312  1.4462  1.7414 -2.0496
  164MOL0     H22122  10.420   7.594   6.904  0.4912 -0.4958 -0.0897
  164MOL0     H22123  10.461   7.830   6.801 -3.6809 -1.2268 -0.7686
  164MOL0     H22124  10.662   7.969   6.253 -0.0279 -0.0952 -0.7570
  164MOL0     H22125  10.626   8.179   6.151  0.7878  1.2051 -0.0563
  164MOL0     H22126  10.176   9.799   6.268 -1.1219 -1.1855 -0.7838
  164MOL0     H22127  10.369   9.921   6.198 -2.6432  0.5630  2.2293
  164MOL0     H22128  10.735  10.014   5.769  1.4393  0.2973  0.9117
  164MOL0     H22129  10.858  10.223   5.676  1.2284  2.8808  0.3020
  164MOL0     H22130  10.770  10.515   5.854 -2.0751 -2.8787 -0.8157
  164MOL0     H22131  10.926  10.451   5.793  0.1359  0.6310  1.3883
  164MOL0     H22132  10.954  10.633   5.634 -2.0199  1.8960 -2.0214
  164MOL0     H22133  10.972  10.687   5.802  2.9257 -1.0685 -1.4261
  164MOL0     H22134  10.786  10.788   5.808  0.0880 -2.2091  0.9953
  164MOL0     H22135  10.701  10.719   5.658 -1.9727  4.5789  1.1311
  164MOL0     H22136  10.834  10.845   5.504 -1.5893  0.8564 -0.7182
  164MOL0     H22137  10.934  10.891   5.656 -0.0919  0.2899  1.3583
  164MOL0     H22138  10.554  11.106   5.584  2.0750  2.6183  2.1659
  164MOL0     H22139  10.506  10.448   5.718  2.2547  1.0940  0.1881
  164MOL0     H22140  10.373  10.265   5.790 -0.0864  2.0682 -2.2706
  165MOL0     O22141   3.578   6.754  11.449 -0.0074  0.0029 -1.0260
  165MOL0     C22142   3.485   6.711  11.382 -0.6914 -0.2523 -0.1031
  165MOL0     O22143   3.489   6.673  11.258 -0.8497  0.4553 -0.2344
  165MOL0     C22144   3.615   6.656  11.203 -0.5208 -0.7843 -0.3687
  165MOL0     C22145   3.716   6.586  11.265 -0.0586  0.3851  0.0052
  165MOL0     C22146   3.838   6.584  11.203 -0.5104 -0.0108  0.1485
  165MOL0     C22147   3.861   6.651  11.080 -0.0225  1.3357 -0.3885
  165MOL0     O22148   3.975   6.646  11.003  0.6549  0.0115  0.2511
  165MOL0     C22149   4.083   6.562  11.039  0.1603 -0.4032  0.1475
  165MOL0     C22150   4.193   6.588  10.946 -0.5708 -0.7582  0.1242
  165MOL0     C22151   4.317   6.495  10.977  0.3497 -1.0205 -0.0683
  165MOL0     C22152   4.434   6.578  11.037  0.8960  0.1251 -0.1968
  165MOL0     C22153   4.556   6.488  11.040 -0.7362  0.1976  0.9012
  165MOL0     C22154   4.560   6.368  11.133 -0.1691 -0.5551  0.1240
  165MOL0     C22155   4.693   6.293  11.147  0.5838 -0.1455 -0.6277
  165MOL0     C22156   4.807   6.372  11.217  0.0291  1.2077  0.9161
  165MOL0     N22157   4.754   6.413  11.345 -0.5168  0.4526  0.2671
  165MOL0     C22158   4.787   6.351  11.465  0.2185 -0.7341 -0.6104
  165MOL0     C22159   4.751   6.434  11.566  0.4421  0.7749 -0.7396
  165MOL0     C22160   4.736   6.413  11.713 -1.1128 -0.6795  0.2770
  165MOL0     C22161   4.674   6.276  11.754 -0.5146 -0.2690 -0.4799
  165MOL0     C22162   4.659   6.278  11.908 -0.1669  0.5671 -0.3222
  165MOL0     C22163   4.547   6.179  11.952  0.3579  0.3587  0.4098
  165MOL0     O22164   4.428   6.240  11.908 -0.2163 -0.3993  0.7074
  165MOL0     C22165   4.315   6.164  11.891 -0.9379  0.5570  0.0821
  165MOL0     C22166   4.288   6.040  11.950 -1.0197  0.6464 -0.1399
  165MOL0     C22167   4.162   5.968  11.925  0.2456  0.5356  0.2509
  165MOL0     C22168   4.136   5.840  12.010 -0.7169 -0.1100  0.8293
  165MOL0     C22169   4.068   6.024  11.828  0.4903  0.2287  1.3589
  165MOL0     C22170   3.948   5.952  11.771  0.2709 -0.1439 -0.3222
  165MOL0     O22171   3.867   6.033  11.685  0.2160  1.3029 -0.5735
  165MOL0     C22172   3.764   5.963  11.623  0.1015 -0.4953  0.6181
  165MOL0     C22173   3.635   5.972  11.669 -0.2116 -0.2763 -0.1803
  165MOL0     C22174   3.525   5.935  11.592  0.4462  0.0138 -0.6538
  165MOL0     C22175   3.543   5.863  11.479 -0.9109  0.5234 -0.6692
  165MOL0     O22176   3.431   5.831  11.421  0.2859  0.5567  0.1194
  165MOL0     C22177   3.438   5.765  11.295 -0.0669 -0.0623  0.0507
  165MOL0     C22178   3.291   5.725  11.259  0.2333  0.2217  0.1922
  165MOL0     C22179   3.263   5.578  11.285  0.1867  0.5287  0.4076
  165MOL0     C22180   3.166   5.529  11.174 -0.0813 -0.2358  0.0014
  165MOL0     C22181   3.161   5.376  11.182  0.5539 -0.0819 -0.7920
  165MOL0     C22182   3.048   5.328  11.098 -0.4919 -0.7690  0.1417
  165MOL0     C22183   3.039   5.174  11.083  0.0296  0.2273 -0.5510
  165MOL0     C22184   2.928   5.129  10.987 -0.7832 -0.6838 -0.2857
  165MOL0    Cl22185   2.937   5.209  10.827  0.2195  0.0959 -0.1937
  165MOL0     C22186   3.671   5.849  11.429 -0.3445 -0.2188 -0.3237
  165MOL0     C22187   3.776   5.908  11.493 -0.8978 -0.2006 -0.0967
  165MOL0     O22188   3.941   5.828  11.780  0.4274 -0.8373 -0.1876
  165MOL0     C22189   4.106   6.148  11.778 -0.0193 -0.2388  0.5497
  165MOL0     C22190   4.212   6.216  11.821 -0.6183 -0.6750 -0.4216
  165MOL0     N22191   4.690   6.539  11.503  0.2555  0.2799 -0.4758
  165MOL0     N22192   4.703   6.525  11.377  0.4315  0.4582  0.2269
  165MOL0     C22193   3.762   6.719  11.011  0.0741  0.6742 -0.8094
  165MOL0     C22194   3.632   6.720  11.072 -0.5526 -0.1099 -0.6387
  165MOL0     C22195   3.351   6.724  11.447 -0.6278  0.4222  0.2245
  165MOL0     C22196   3.242   6.658  11.395 -0.2795 -0.8655  0.6964
  165MOL0     C22197   3.110   6.663  11.453  0.4570 -0.5741 -0.1454
  165MOL0     C22198   3.092   6.755  11.555 -0.5839  0.5881 -0.2341
  165MOL0     O22199   2.972   6.780  11.617  0.3023  0.1564 -0.2343
  165MOL0     C22200   2.857   6.778  11.525  0.3458 -0.7904 -0.2324
  165MOL0     C22201   2.753   6.695  11.579 -0.3772  0.2181  0.1127
  165MOL0     C22202   2.616   6.712  11.508  0.6067  0.0056 -0.4655
  165MOL0     C22203   2.518   6.624  11.586  1.0387  0.6090  0.1422
  165MOL0     C22204   2.456   6.698  11.703 -1.0960 -0.6631  0.0903
  165MOL0     C22205   2.404   6.743  11.799 -0.0256  1.0980  0.5498
  165MOL0     C22206   3.203   6.806  11.625 -0.9440  0.4253  0.4591
  165MOL0     C22207   3.335   6.789  11.573 -0.1836  1.1522 -0.3099
  165MOL0     H22208   3.696   6.536  11.359 -4.3649 -0.9025 -1.3762
  165MOL0     H22209   3.918   6.518  11.236  1.4415  1.3220 -1.6091
  165MOL0     H22210   4.105   6.584  11.144 -0.1608  0.3663  0.0597
  165MOL0     H22211   4.051   6.459  11.023 -2.9318  0.6315 -1.0484
  165MOL0     H22212   4.163   6.577  10.842 -1.7487  3.2531 -0.1365
  165MOL0     H22213   4.213   6.696  10.948 -2.7163 -0.2064 -2.6544
  165MOL0     H22214   4.282   6.411  11.037 -3.2803  0.5738  0.2630
  165MOL0     H22215   4.355   6.452  10.883 -2.2904 -2.9285 -0.3591
  165MOL0     H22216   4.448   6.668  10.977 -0.7430  0.2305 -0.4684
  165MOL0     H22217   4.416   6.613  11.140 -1.6121 -2.0624  0.2042
  165MOL0     H22218   4.568   6.447  10.939 -1.5992 -0.4415  1.0470
  165MOL0     H22219   4.649   6.545  11.049  0.3628 -0.2999 -4.1472
  165MOL0     H22220   4.518   6.392  11.231  0.6006 -0.3900  0.4144
  165MOL0     H22221   4.487   6.312  11.073  0.2588 -2.4952  1.3119
  165MOL0     H22222   4.674   6.201  11.203 -1.9299 -0.2453 -1.5306
  165MOL0     H22223   4.734   6.274  11.047  0.2937 -0.0855 -0.7574
  165MOL0     H22224   4.823   6.463  11.158  1.9557  0.3234 -0.0051
  165MOL0     H22225   4.899   6.313  11.212 -2.2587 -2.5868 -1.6722
  165MOL0     H22226   4.820   6.248  11.470 -0.1473 -0.8049  1.7545
  165MOL0     H22227   4.833   6.420  11.763 -2.6095  0.7250  3.2298
  165MOL0     H22228   4.686   6.504  11.750 -1.2468 -0.4916 -0.3514
  165MOL0     H22229   4.741   6.196  11.721  0.4273  0.5570 -0.6150
  165MOL0     H22230   4.572   6.264  11.717 -1.5854  0.6081  1.9221
  165MOL0     H22231   4.633   6.383  11.928 -0.2671  0.4346  0.2550
  165MOL0     H22232   4.747   6.239  11.959 -0.6538  0.4995  0.4829
  165MOL0     H22233   4.555   6.152  12.058  0.8787 -0.5334  0.1558
  165MOL0     H22234   4.543   6.084  11.898 -1.0082 -0.2949  1.5988
  165MOL0     H22235   4.355   6.000  12.025 -1.8012 -2.3169 -0.8712
  165MOL0     H22236   4.233   5.795  12.032 -0.0625  0.7651 -0.1424
  165MOL0     H22237   4.083   5.871  12.101 -2.0536 -0.8232  0.3218
  165MOL0     H22238   4.066   5.763  11.977  0.0633 -1.2070  1.6584
  165MOL0     H22239   3.607   6.032  11.755 -0.2036 -1.2392  0.5105
  165MOL0     H22240   3.426   5.952  11.635  0.9216 -1.8580  1.3533
  165MOL0     H22241   3.477   5.843  11.229  0.7717  0.0427  0.6601
  165MOL0     H22242   3.509   5.683  11.282 -0.9916 -0.5621 -2.6442
  165MOL0     H22243   3.214   5.780  11.314 -0.5767 -3.3107  2.9704
  165MOL0     H22244   3.288   5.751  11.152  1.4180 -1.8264 -0.3943
  165MOL0     H22245   3.234   5.558  11.388  1.7871 -5.1532  0.1078
  165MOL0     H22246   3.354   5.520  11.270 -1.5154 -1.8463 -1.6796
  165MOL0     H22247   3.073   5.585  11.190  0.4187  0.2470  1.3690
  165MOL0     H22248   3.203   5.550  11.073  1.5694 -2.0299  0.1705
  165MOL0     H22249   3.143   5.341  11.284 -2.2574  2.1248 -0.4004
  165MOL0     H22250   3.257   5.338  11.147 -0.0811 -3.2152  0.5304
  165MOL0     H22251   2.961   5.366  11.152 -2.2466  0.6035 -3.3535
  165MOL0     H22252   3.039   5.383  11.004  0.2048  0.2503  0.6445
  165MOL0     H22253   3.013   5.142  11.185  0.8215 -0.0529 -0.4297
  165MOL0     H22254   3.132   5.127  11.050  0.1636  0.8946 -1.1355
  165MOL0     H22255   2.829   5.158  11.024  0.5104  0.6688  2.3032
  165MOL0     H22256   2.935   5.021  10.968 -0.9781 -0.9658  1.1666
  165MOL0     H22257   3.703   5.808  11.334 -0.4783 -0.8504 -0.0993
  165MOL0     H22258   3.873   5.913  11.446  0.3273  2.5216  2.4355
  165MOL0     H22259   4.047   6.209  11.711  2.1504  0.1046 -1.1616
  165MOL0     H22260   4.220   6.319  11.785 -2.8837 -0.5115 -0.5481
  165MOL0     H22261   3.790   6.775  10.923 -1.5452 -0.3577 -2.0178
  165MOL0     H22262   3.563   6.777  11.010 -0.1305  0.8510 -0.2578
  165MOL0     H22263   3.241   6.616  11.295  1.7041  2.5175 -0.9387
  165MOL0     H22264   3.031   6.602  11.410 -0.3660  0.2464  0.1843
  165MOL0     H22265   2.813   6.877  11.514 -3.2002 -2.2924 -1.0528
  165MOL0     H22266   2.881   6.745  11.424  0.2762 -2.1525  0.1763
  165MOL0     H22267   2.745   6.717  11.686  0.8263 -1.8600  0.6981
  165MOL0     H22268   2.793   6.594  11.568  0.4853  0.5726 -0.1125
  165MOL0     H22269   2.630   6.689  11.402 -0.7067  0.8352 -0.8451
  165MOL0     H22270   2.591   6.819  11.515  3.1621  0.6029  0.7373
  165MOL0     H22271   2.562   6.530  11.618  0.7174  1.2193  2.5786
  165MOL0     H22272   2.427   6.619  11.526  0.4137 -1.4756  1.1775
  165MOL0     H22273   2.354   6.769  11.890 -1.0559 -1.7684  0.9306
  165MOL0     H22274   3.196   6.874  11.709 -0.1152  0.2100  0.7091
  165MOL0     H22275   3.419   6.836  11.623  0.8054 -0.8948  0.0210
  166MOL0     O22276   7.746   9.919   6.764  0.4647 -0.0427 -0.7393
  166MOL0     C22277   7.807   9.816   6.790  0.3444  0.5034  0.1924
  166MOL0     O22278   7.750   9.700   6.839 -0.1012 -0.0955  0.2417
  166MOL0     C22279   7.619   9.684   6.853  0.0415 -0.7449 -0.6345
  166MOL0     C22280   7.541   9.617   6.763  0.0146  0.1873 -0.8564
  166MOL0     C22281   7.400   9.618   6.776  0.1786 -0.0381  0.9262
  166MOL0     C22282   7.338   9.681   6.876 -0.6533  0.2991  0.7316
  166MOL0     O22283   7.207   9.669   6.911  1.0443 -0.6388  0.3321
  166MOL0     C22284   7.126   9.727   6.802 -0.2032 -0.5670 -0.2256
  166MOL0     C22285   7.055   9.851   6.861  0.1038  0.5383 -0.2235
  166MOL0     C22286   6.972   9.841   6.993 -0.1500 -0.9033  0.1087
  166MOL0     C22287   6.844   9.767   6.964  1.0640  1.1080 -0.0890
  166MOL0     C22288   6.762   9.783   7.091  0.4021 -0.0319  0.2725
  166MOL0     C22289   6.653   9.675   7.100  0.1834  0.3080  0.2827
  166MOL0     C22290   6.608   9.667   7.254  1.0012 -0.8074  1.1970
  166MOL0     C22291   6.501   9.570   7.284 -0.2117  0.2980  0.8455
  166MOL0     N22292   6.383   9.583   7.185  0.2640  0.5867  0.0392
  166MOL0     C22293   6.307   9.694   7.175  0.3166  0.3035  0.2924
  166MOL0     C22294   6.206   9.668   7.088 -0.2412 -0.5905  0.1428
  166MOL0     C22295   6.084   9.767   7.055  1.0038 -0.4192  0.0259
  166MOL0     C22296   6.021   9.846   7.167  0.0859  0.2758 -0.3783
  166MOL0     C22297   5.911   9.941   7.116 -0.0316 -0.0096  0.0476
  166MOL0     C22298   5.857  10.026   7.232 -0.3151 -0.5414  0.0351
  166MOL0     O22299   5.737  10.088   7.189  0.5992 -0.6537 -0.1801
  166MOL0     C22300   5.626  10.020   7.180 -0.5939  0.6563  0.1886
  166MOL0     C22301   5.533  10.092   7.104  1.6892  0.8091 -0.5491
  166MOL0     C22302   5.400  10.047   7.083  0.1492  0.1162 -0.2712
  166MOL0     C22303   5.302  10.134   7.006  0.0624  0.2442 -0.5329
  166MOL0     C22304   5.360   9.927   7.148 -0.2541 -0.8081 -0.3469
  166MOL0     C22305   5.229   9.878   7.131 -0.3090 -0.2664  0.0171
  166MOL0     O22306   5.141   9.880   7.241 -0.9186  0.0708  0.5189
  166MOL0     C22307   5.011   9.894   7.206 -0.1979 -0.4859  0.5945
  166MOL0     C22308   4.950  10.019   7.203  0.4328 -0.9639 -0.5098
  166MOL0     C22309   4.814  10.034   7.183  0.0574  0.3983 -0.5310
  166MOL0     C22310   4.737   9.920   7.172 -0.2482  0.5543 -0.1720
  166MOL0     O22311   4.600   9.936   7.150 -0.1102  0.1188 -0.4607
  166MOL0     C22312   4.533  10.030   7.230  0.0551  0.7471 -0.7689
  166MOL0     C22313   4.418  10.096   7.152 -0.8529 -0.5012 -0.1375
  166MOL0     C22314   4.459  10.187   7.036 -1.2266 -0.3094  1.0544
  166MOL0     C22315   4.523  10.116   6.917  0.0361  0.5031  0.1085
  166MOL0     C22316   4.533  10.202   6.787 -0.5606 -0.7473  0.4602
  166MOL0     C22317   4.666  10.278   6.773  0.4820 -0.3811 -0.6105
  166MOL0     C22318   4.792  10.190   6.759  0.0024 -0.6275  0.2791
  166MOL0     C22319   4.898  10.269   6.680  0.0348 -0.2263  0.2844
  166MOL0    Cl22320   4.967  10.403   6.778 -0.2066  0.2134 -0.4729
  166MOL0     C22321   4.794   9.798   7.168 -0.7346 -0.2725 -0.1560
  166MOL0     C22322   4.934   9.781   7.193  0.9340 -0.4521  0.0871
  166MOL0     O22323   5.198   9.830   7.026 -0.3989  0.0537  0.2948
  166MOL0     C22324   5.461   9.855   7.215 -0.2758  0.6436 -0.1547
  166MOL0     C22325   5.593   9.895   7.234  0.2821  0.6220  0.0766
  166MOL0     N22326   6.223   9.542   7.040  0.1348  0.0874 -1.6609
  166MOL0     N22327   6.328   9.490   7.097  0.2374 -0.0057  0.1546
  166MOL0     C22328   7.420   9.749   6.967 -0.1885 -1.0398  0.1451
  166MOL0     C22329   7.557   9.747   6.963  0.8035 -0.6249  1.2105
  166MOL0     C22330   7.947   9.810   6.753  0.1884 -0.3538 -0.1626
  166MOL0     C22331   8.025   9.693   6.766 -0.3413 -0.1957  0.0324
  166MOL0     C22332   8.160   9.702   6.727  0.3759 -0.2221 -0.1621
  166MOL0     C22333   8.219   9.807   6.666 -1.1203 -0.5627 -0.0291
  166MOL0     O22334   8.357   9.782   6.642  0.6031  0.0423 -0.5151
  166MOL0     C22335   8.430   9.879   6.575 -0.7510  0.2131  0.0848
  166MOL0     C22336   8.386   9.879   6.418 -0.6805 -0.0382  0.0921
  166MOL0     C22337   8.422   9.733   6.364  0.7459  0.1037  0.9652
  166MOL0     C22338   8.346   9.683   6.237  0.8344  0.3233 -0.6804
  166MOL0     C22339   8.398   9.754   6.124  0.1154 -0.5963 -0.1085
  166MOL0     C22340   8.390   9.801   6.008 -0.1628 -0.1296  0.0601
  166MOL0     C22341   8.140   9.926   6.643 -1.0629  1.0232  0.3261
  166MOL0     C22342   8.007   9.927   6.693  0.0862 -0.8065  0.0260
  166MOL0     H22343   7.590   9.579   6.674 -1.1443  1.8055 -2.2579
  166MOL0     H22344   7.340   9.555   6.712  0.2553  0.7048  0.1095
  166MOL0     H22345   7.187   9.753   6.715  1.6636 -0.5512  1.0296
  166MOL0     H22346   7.050   9.651   6.782 -2.6062  2.4026 -3.6396
  166MOL0     H22347   7.137   9.918   6.888  1.0569 -1.1398  1.2193
  166MOL0     H22348   6.996   9.899   6.782  0.3428 -2.2178 -2.2099
  166MOL0     H22349   7.033   9.797   7.073  2.4813 -0.3874 -1.4904
  166MOL0     H22350   6.949   9.944   7.023  1.7004 -0.5245  0.4034
  166MOL0     H22351   6.788   9.823   6.889 -2.1752 -1.0447  0.5413
  166MOL0     H22352   6.858   9.667   6.922  0.7271  1.4242 -0.9858
  166MOL0     H22353   6.822   9.776   7.183  0.2481  0.3924  0.4067
  166MOL0     H22354   6.716   9.882   7.089 -1.5833 -0.9131  0.1425
  166MOL0     H22355   6.571   9.694   7.032  0.0756  1.7283  0.7770
  166MOL0     H22356   6.697   9.578   7.075  0.7780  1.3547 -3.3142
  166MOL0     H22357   6.686   9.633   7.322 -0.7607 -1.4704  3.0118
  166MOL0     H22358   6.577   9.768   7.281  3.3045  0.1005  0.6781
  166MOL0     H22359   6.479   9.577   7.391  0.2808  1.4194  0.8876
  166MOL0     H22360   6.538   9.467   7.275  1.4708  0.9525 -0.0551
  166MOL0     H22361   6.321   9.783   7.235 -0.9389  2.0661 -1.8752
  166MOL0     H22362   6.111   9.841   6.980  1.7770 -0.4249  0.2927
  166MOL0     H22363   5.997   9.713   7.015  2.2979  0.0878 -3.8924
  166MOL0     H22364   6.103   9.903   7.210 -1.1345  4.5693 -3.1024
  166MOL0     H22365   5.988   9.780   7.248  1.0993  0.6645  0.3617
  166MOL0     H22366   5.848   9.872   7.059  1.2402  0.5676 -2.1516
  166MOL0     H22367   5.947  10.013   7.042  1.5120 -2.7152 -2.0257
  166MOL0     H22368   5.920  10.112   7.256  1.4202 -2.2116  1.8563
  166MOL0     H22369   5.839   9.978   7.329 -0.3158  1.1149  0.8857
  166MOL0     H22370   5.558  10.194   7.076 -1.0921  0.6623 -4.4063
  166MOL0     H22371   5.354  10.214   6.954 -1.2303  1.3893 -0.1173
  166MOL0     H22372   5.231  10.075   6.947 -4.2297  3.8090  0.5010
  166MOL0     H22373   5.239  10.185   7.079 -0.9304 -1.4645 -0.1357
  166MOL0     H22374   5.015  10.105   7.212  3.3156 -3.0219 -0.1585
  166MOL0     H22375   4.779  10.134   7.159  0.3033  0.8784  0.9742
  166MOL0     H22376   4.496   9.970   7.314  0.1935 -0.3055 -1.4480
  166MOL0     H22377   4.594  10.115   7.261 -1.1916  1.9217 -1.4092
  166MOL0     H22378   4.352  10.017   7.116 -0.4716 -1.0082  0.2582
  166MOL0     H22379   4.368  10.170   7.216  1.1466  0.8258 -0.0283
  166MOL0     H22380   4.525  10.264   7.078 -1.2353  0.7091 -0.6853
  166MOL0     H22381   4.378  10.248   6.995  0.3913  2.2263  1.3783
  166MOL0     H22382   4.620  10.072   6.944  1.5995  1.2220 -3.6686
  166MOL0     H22383   4.463  10.029   6.889 -2.0674  2.3253 -1.3619
  166MOL0     H22384   4.451  10.274   6.775 -0.8823 -1.2767 -0.7260
  166MOL0     H22385   4.534  10.133   6.702  1.3316  0.0844 -0.2615
  166MOL0     H22386   4.647  10.342   6.686  0.4159  3.7619  2.1408
  166MOL0     H22387   4.676  10.342   6.861 -1.7614  0.4303 -0.8731
  166MOL0     H22388   4.764  10.109   6.691 -1.2962  0.2026 -0.2056
  166MOL0     H22389   4.837  10.147   6.849  1.4880 -0.0552 -0.1589
  166MOL0     H22390   4.863  10.309   6.585  1.7812 -2.1416 -1.2442
  166MOL0     H22391   4.977  10.202   6.645 -0.3785  1.2540 -4.0175
  166MOL0     H22392   4.726   9.713   7.160 -2.7060  1.2718 -0.6316
  166MOL0     H22393   4.974   9.681   7.193 -0.9247 -1.2904  2.1682
  166MOL0     H22394   5.433   9.762   7.262  0.0499 -1.1070 -3.1769
  166MOL0     H22395   5.663   9.830   7.285  0.8753 -0.8908 -2.4769
  166MOL0     H22396   7.358   9.816   7.026 -1.1140  2.1626 -3.9814
  166MOL0     H22397   7.619   9.802   7.033 -2.5635  1.8539  2.5284
  166MOL0     H22398   7.983   9.601   6.804  3.7637 -1.7349  1.4254
  166MOL0     H22399   8.225   9.616   6.741 -0.1759 -0.6660 -0.2942
  166MOL0     H22400   8.411   9.976   6.623  1.1969 -0.5351  2.6214
  166MOL0     H22401   8.538   9.861   6.582 -1.2137 -2.8509  0.7258
  166MOL0     H22402   8.437   9.955   6.358 -1.8867  0.9856  0.3139
  166MOL0     H22403   8.279   9.902   6.414 -0.8471  0.5868  3.7796
  166MOL0     H22404   8.416   9.658   6.443 -0.6032  0.2393  1.0252
  166MOL0     H22405   8.528   9.723   6.340  1.3095 -0.6176  3.4973
  166MOL0     H22406   8.238   9.695   6.250  1.0177  2.7385 -1.0124
  166MOL0     H22407   8.360   9.575   6.238 -0.3271  0.1601 -0.2092
  166MOL0     H22408   8.384   9.822   5.903  1.4432 -1.8742 -0.4474
  166MOL0     H22409   8.178  10.019   6.601  2.3415 -1.0131 -1.5331
  166MOL0     H22410   7.952  10.020   6.684  0.4222 -0.5583  0.5140
  167MOL0     O22411   8.132   7.779   1.178  0.2422  0.7137 -0.4119
  167MOL0     C22412   8.204   7.828   1.265 -0.3814  0.1816  0.9384
  167MOL0     O22413   8.177   7.928   1.348  0.8350 -0.1183 -0.2897
  167MOL0     C22414   8.061   8.001   1.343 -0.4289 -0.2402  0.1903
  167MOL0     C22415   8.018   8.088   1.240  0.0896  1.1627  0.6416
  167MOL0     C22416   7.906   8.174   1.251 -0.1980  0.3241  1.2101
  167MOL0     C22417   7.848   8.176   1.382  0.0835 -0.2819  0.8618
  167MOL0     O22418   7.750   8.259   1.426  0.3518  0.0649  0.1654
  167MOL0     C22419   7.662   8.329   1.340 -0.9167 -0.4469 -0.4582
  167MOL0     C22420   7.513   8.325   1.383 -0.1632 -0.2907 -0.2211
  167MOL0     C22421   7.441   8.445   1.315 -0.0994  0.7634  0.6610
  167MOL0     C22422   7.302   8.448   1.372 -0.3058 -0.2467  1.2830
  167MOL0     C22423   7.217   8.540   1.272  0.0272 -0.1802 -0.1258
  167MOL0     C22424   7.248   8.687   1.262 -0.1439 -1.1486 -0.4655
  167MOL0     C22425   7.187   8.766   1.377  0.1545 -0.6354 -0.3411
  167MOL0     C22426   7.191   8.909   1.365  0.8940  0.2499 -0.0959
  167MOL0     N22427   7.077   8.964   1.283  0.6902  0.6523 -0.0839
  167MOL0     C22428   7.051   8.937   1.145  0.8930 -0.7290 -0.0841
  167MOL0     C22429   6.924   8.980   1.125 -1.2460 -0.2023 -0.1480
  167MOL0     C22430   6.845   8.962   1.004 -0.2477  0.5631 -0.0829
  167MOL0     C22431   6.845   8.815   0.951 -0.1959 -0.9507 -0.5046
  167MOL0     C22432   6.763   8.732   1.043  0.3260  0.2813  0.1406
  167MOL0     C22433   6.788   8.585   0.993 -0.8238  0.4350 -0.2647
  167MOL0     O22434   6.904   8.533   1.051 -0.4796 -0.6962 -0.1841
  167MOL0     C22435   6.932   8.401   1.031  0.1325 -0.3168  0.0029
  167MOL0     C22436   7.038   8.374   0.955 -1.1180  0.2197  0.7912
  167MOL0     C22437   7.079   8.252   0.913 -0.0113  0.4612  0.3983
  167MOL0     C22438   7.200   8.224   0.830 -0.1486  0.3498  0.4125
  167MOL0     C22439   7.004   8.136   0.966 -1.4406  0.2086  0.9679
  167MOL0     C22440   7.048   8.001   0.941 -1.5172  0.1476 -0.8334
  167MOL0     O22441   7.159   7.959   1.006 -0.0615  0.6395 -0.8459
  167MOL0     C22442   7.231   7.845   0.991  0.3827  0.5458  0.6703
  167MOL0     C22443   7.208   7.759   0.878  0.1601 -0.6776  0.4084
  167MOL0     C22444   7.295   7.646   0.857  0.4909  0.9387 -0.0603
  167MOL0     C22445   7.391   7.607   0.961  0.6450 -0.0337 -1.1135
  167MOL0     O22446   7.482   7.507   0.928 -0.5052 -0.3723 -0.0076
  167MOL0     C22447   7.549   7.448   1.032 -0.3829 -0.3031  0.3086
  167MOL0     C22448   7.612   7.318   0.987 -0.3917 -1.2658 -0.0570
  167MOL0     C22449   7.524   7.190   0.982  0.5807 -0.3768  0.1413
  167MOL0     C22450   7.389   7.211   0.922 -1.0440 -0.8981 -0.0235
  167MOL0     C22451   7.328   7.073   0.897  0.1279  0.5121 -1.4008
  167MOL0     C22452   7.177   7.086   0.851  0.1512 -1.1289 -0.3084
  167MOL0     C22453   7.113   6.952   0.817 -0.8410 -0.8199 -0.2288
  167MOL0     C22454   6.967   6.984   0.785 -0.0223 -0.2473 -0.4943
  167MOL0    Cl22455   6.884   6.842   0.789  0.2978  0.2458 -0.3610
  167MOL0     C22456   7.394   7.681   1.079 -0.2834 -0.8167  0.0284
  167MOL0     C22457   7.323   7.801   1.086 -0.5694  0.0625  1.6787
  167MOL0     O22458   6.975   7.935   0.867 -0.1535  0.9201 -0.2467
  167MOL0     C22459   6.889   8.167   1.044  0.5489 -0.4190 -0.1186
  167MOL0     C22460   6.851   8.301   1.071 -0.5909 -0.2183  0.2906
  167MOL0     N22461   6.878   9.040   1.239 -0.2537 -0.4335 -0.1405
  167MOL0     N22462   6.967   9.029   1.337  0.2240  0.5806  0.2790
  167MOL0     C22463   7.890   8.099   1.484  1.1996  0.4635 -0.4436
  167MOL0     C22464   7.998   8.017   1.462  0.6516 -0.7513 -0.5558
  167MOL0     C22465   8.320   7.746   1.308 -0.2434 -0.6945 -0.4303
  167MOL0     C22466   8.412   7.799   1.401 -0.0537  0.2991 -0.3646
  167MOL0     C22467   8.526   7.724   1.432 -0.0329 -0.0385 -0.5727
  167MOL0     C22468   8.553   7.593   1.373  0.0092 -0.4971  0.1280
  167MOL0     O22469   8.672   7.529   1.401  0.9280 -0.3130  0.2772
  167MOL0     C22470   8.680   7.388   1.373 -0.4432  0.6319  1.0955
  167MOL0     C22471   8.823   7.335   1.383 -0.6048  0.2910  0.4806
  167MOL0     C22472   8.834   7.208   1.306 -0.2215 -0.2758 -0.5679
  167MOL0     C22473   8.856   7.244   1.155 -0.2336 -0.2609 -0.7264
  167MOL0     C22474   8.996   7.290   1.131  0.1162 -0.3328 -0.4296
  167MOL0     C22475   9.107   7.340   1.123  0.0192 -0.3315 -0.3682
  167MOL0     C22476   8.457   7.552   1.286 -0.4107  0.0965 -0.6724
  167MOL0     C22477   8.347   7.624   1.257 -0.1243  0.3963  0.9809
  167MOL0     H22478   8.070   8.080   1.144 -3.9341 -0.1229 -1.6807
  167MOL0     H22479   7.862   8.229   1.168  0.6742 -1.5405 -0.5841
  167MOL0     H22480   7.701   8.429   1.323 -0.1486 -0.4865  0.9156
  167MOL0     H22481   7.671   8.274   1.246 -0.8828 -3.2745  1.0748
  167MOL0     H22482   7.477   8.229   1.346 -0.6270  0.9332 -3.2359
  167MOL0     H22483   7.496   8.336   1.491 -0.5217 -1.4124 -0.1558
  167MOL0     H22484   7.481   8.544   1.337  1.1656  0.2352  0.8845
  167MOL0     H22485   7.430   8.418   1.210  2.1659  1.1512  0.2748
  167MOL0     H22486   7.253   8.350   1.380 -0.0057 -0.7949 -2.0951
  167MOL0     H22487   7.320   8.495   1.469 -0.0681  0.3128  0.9716
  167MOL0     H22488   7.237   8.507   1.170  2.6317 -0.2179  0.3421
  167MOL0     H22489   7.113   8.526   1.303 -0.2472  0.8157 -0.5930
  167MOL0     H22490   7.355   8.709   1.264 -0.4472  0.6112  2.4704
  167MOL0     H22491   7.220   8.717   1.161  1.5788 -0.8993 -0.8907
  167MOL0     H22492   7.082   8.738   1.393 -0.2879  1.4228  0.6923
  167MOL0     H22493   7.239   8.735   1.468  1.4874 -1.0738 -1.2179
  167MOL0     H22494   7.280   8.944   1.311 -0.0463  0.5550 -1.4976
  167MOL0     H22495   7.167   8.958   1.460 -2.1650  0.4197 -0.8401
  167MOL0     H22496   7.126   8.892   1.080  0.2600 -2.0190  0.0518
  167MOL0     H22497   6.744   9.001   1.020 -0.9594 -1.0771 -0.3717
  167MOL0     H22498   6.892   9.022   0.927 -1.9697  0.4981 -1.2349
  167MOL0     H22499   6.947   8.778   0.960  0.4049  0.5881 -0.6247
  167MOL0     H22500   6.808   8.800   0.850 -2.4537 -3.3574  0.5560
  167MOL0     H22501   6.656   8.754   1.037  0.5618  2.1006  1.5785
  167MOL0     H22502   6.787   8.751   1.148 -3.1135  1.0426  0.8933
  167MOL0     H22503   6.790   8.576   0.884  0.8930 -0.6416 -0.1681
  167MOL0     H22504   6.711   8.520   1.038  0.0144  1.1437  2.3825
  167MOL0     H22505   7.101   8.455   0.918 -1.4299  0.8141  1.5623
  167MOL0     H22506   7.196   8.126   0.781  0.4044  0.1987  0.6628
  167MOL0     H22507   7.200   8.303   0.753  3.5481  0.5966  0.4876
  167MOL0     H22508   7.294   8.235   0.886 -0.5382  0.7872  0.9951
  167MOL0     H22509   7.146   7.786   0.794  0.9504 -1.1884 -0.3599
  167MOL0     H22510   7.293   7.585   0.767  0.4653 -0.7431  1.0381
  167MOL0     H22511   7.628   7.515   1.068 -3.0062  2.1616  1.9329
  167MOL0     H22512   7.485   7.419   1.116 -0.6703 -0.3155  0.0875
  167MOL0     H22513   7.663   7.338   0.892  1.1251  1.7383  1.2305
  167MOL0     H22514   7.697   7.293   1.051  0.8878 -0.1189 -1.2243
  167MOL0     H22515   7.519   7.165   1.088  1.5610  0.8160  0.4851
  167MOL0     H22516   7.570   7.108   0.925 -0.7360  1.1396 -3.3931
  167MOL0     H22517   7.327   7.278   0.983 -3.2716 -2.2270 -0.6945
  167MOL0     H22518   7.401   7.248   0.820  0.4732 -3.4646 -0.8602
  167MOL0     H22519   7.336   7.009   0.986  0.2950 -0.6384 -2.2132
  167MOL0     H22520   7.391   7.022   0.824  1.3095 -0.6478  0.3329
  167MOL0     H22521   7.109   7.144   0.913  1.8504  2.7781 -1.7980
  167MOL0     H22522   7.189   7.139   0.756 -0.0934  1.8453  1.1938
  167MOL0     H22523   7.119   6.886   0.903 -6.1745 -0.2448  0.9580
  167MOL0     H22524   7.146   6.899   0.727 -1.3817 -1.7673  0.1143
  167MOL0     H22525   6.963   7.031   0.686  3.4077  0.9343 -0.2159
  167MOL0     H22526   6.911   7.049   0.853 -2.3741 -2.1875 -0.4542
  167MOL0     H22527   7.456   7.657   1.165 -0.8392 -1.9998  0.1254
  167MOL0     H22528   7.342   7.874   1.164 -1.2599  0.4861  1.4590
  167MOL0     H22529   6.819   8.105   1.098 -0.0338  1.2885  1.1953
  167MOL0     H22530   6.760   8.322   1.126 -1.0790 -1.9864  0.2105
  167MOL0     H22531   7.824   8.105   1.570  1.4607  2.2919 -0.3248
  167MOL0     H22532   8.036   7.949   1.538  0.7105 -0.9575 -0.7684
  167MOL0     H22533   8.401   7.897   1.447  3.6488 -0.1881  1.9087
  167MOL0     H22534   8.591   7.758   1.512  0.9055 -1.4111 -0.7197
  167MOL0     H22535   8.615   7.330   1.439 -0.6673  0.4494  0.7214
  167MOL0     H22536   8.638   7.368   1.274  0.2009  2.3425  0.4415
  167MOL0     H22537   8.850   7.319   1.487 -0.1847  1.3622  0.5565
  167MOL0     H22538   8.891   7.404   1.332  0.1836 -1.0970 -0.4062
  167MOL0     H22539   8.740   7.153   1.318 -0.2102 -0.3541 -0.8167
  167MOL0     H22540   8.914   7.141   1.338 -1.0831 -0.7918  0.5713
  167MOL0     H22541   8.789   7.324   1.123  0.9553  1.2528  0.4251
  167MOL0     H22542   8.839   7.159   1.089  0.4334  0.0297 -1.2740
  167MOL0     H22543   9.200   7.393   1.132 -0.4700  0.3988  0.6280
  167MOL0     H22544   8.473   7.454   1.241 -1.2835  1.3198 -3.9867
  167MOL0     H22545   8.277   7.583   1.185 -1.4720  0.9816  1.9336
  168MOL0     O22546   7.862  10.373   8.559  0.5902 -0.3206  0.0384
  168MOL0     C22547   7.811  10.433   8.652  1.0027 -0.9603  0.6705
  168MOL0     O22548   7.829  10.411   8.781 -0.2668  0.2406 -0.3342
  168MOL0     C22549   7.922  10.312   8.808  0.0997 -0.6076 -0.1609
  168MOL0     C22550   7.902  10.176   8.810 -0.5735  1.3319 -0.8483
  168MOL0     C22551   7.996  10.092   8.868  0.2492 -0.8037  0.6426
  168MOL0     C22552   8.116  10.138   8.907 -1.2515 -0.2398  0.4028
  168MOL0     O22553   8.217  10.047   8.949 -0.0677  0.4492  0.3426
  168MOL0     C22554   8.217   9.904   8.926 -0.8268 -0.1958 -0.0639
  168MOL0     C22555   8.360   9.863   8.942 -0.0397  1.1675 -0.1941
  168MOL0     C22556   8.402   9.732   8.873 -0.5776 -0.3619  0.2541
  168MOL0     C22557   8.555   9.744   8.844 -0.8062 -0.8184  0.0772
  168MOL0     C22558   8.589   9.633   8.743  0.0584  0.0940  0.2296
  168MOL0     C22559   8.731   9.652   8.669  0.1079 -0.2519  0.1124
  168MOL0     C22560   8.795   9.511   8.675  1.3401 -0.5834 -0.0281
  168MOL0     C22561   8.910   9.476   8.567  0.9474  0.0372 -0.0417
  168MOL0     N22562   9.047   9.547   8.590 -0.7958  0.8303 -0.5608
  168MOL0     C22563   9.076   9.660   8.667  0.3937 -0.1880 -0.5381
  168MOL0     C22564   9.210   9.678   8.659  0.5689  0.6110 -0.1289
  168MOL0     C22565   9.289   9.780   8.727  0.6452  0.9231 -0.2144
  168MOL0     C22566   9.265   9.928   8.679  0.0995  0.2994 -0.7184
  168MOL0     C22567   9.271   9.933   8.524 -1.2676  0.1058  0.8982
  168MOL0     C22568   9.415   9.935   8.461  0.8177  0.6876 -0.9084
  168MOL0     O22569   9.493  10.045   8.512 -1.1854  0.1985  0.8650
  168MOL0     C22570   9.622  10.044   8.472 -0.6405  0.0890 -0.0994
  168MOL0     C22571   9.659  10.117   8.359 -0.3050  0.4611 -0.1415
  168MOL0     C22572   9.789  10.124   8.309  0.8532 -0.2252 -0.3890
  168MOL0     C22573   9.824  10.199   8.180 -0.6201  0.4344  0.0008
  168MOL0     C22574   9.884  10.038   8.384 -0.1579  0.2640  0.4789
  168MOL0     C22575  10.026  10.028   8.343 -0.1740 -0.2052 -0.2148
  168MOL0     O22576  10.050  10.020   8.211 -0.2208 -0.4291  0.5868
  168MOL0     C22577  10.175  10.031   8.157  0.2670  0.3899  0.1180
  168MOL0     C22578  10.203  10.118   8.045  0.3239  0.5674  0.0115
  168MOL0     C22579  10.329  10.124   7.988 -0.2943  0.7673  0.1405
  168MOL0     C22580  10.438  10.047   8.046 -0.2189 -0.0239 -0.8556
  168MOL0     O22581  10.567  10.046   7.986  0.2390  0.3859  0.3264
  168MOL0     C22582  10.668  10.074   8.080  0.4643  0.6456 -0.0959
  168MOL0     C22583  10.801  10.116   8.009 -0.2289 -0.6884  0.5258
  168MOL0     C22584  10.921  10.023   8.042  0.5658  0.6163  0.4541
  168MOL0     C22585  10.992  10.067   8.174 -0.0209  0.4321  0.6088
  168MOL0     C22586  11.078   9.959   8.228 -0.3125  0.3767 -0.2803
  168MOL0     C22587  11.132   9.983   8.366  0.3447 -0.1316 -0.2904
  168MOL0     C22588  11.036   9.982   8.483  0.8488  0.2977 -0.5575
  168MOL0     C22589  11.086  10.084   8.583 -0.3880  0.0396 -0.3268
  168MOL0    Cl22590  11.081  10.257   8.529  0.1698  0.0260  0.0688
  168MOL0     C22591  10.408   9.956   8.150 -0.9945  0.3119 -0.3659
  168MOL0     C22592  10.280   9.945   8.199 -0.3099 -0.5945  0.3611
  168MOL0     O22593  10.113  10.045   8.427  0.5274  0.3598  0.0275
  168MOL0     C22594   9.848   9.972   8.502 -0.0858  0.0714 -0.7081
  168MOL0     C22595   9.721   9.974   8.549  0.3939  0.0153 -0.3085
  168MOL0     N22596   9.270   9.569   8.597 -0.5195  0.4204  0.1364
  168MOL0     N22597   9.165   9.505   8.551  0.6303 -0.3186  0.1390
  168MOL0     C22598   8.137  10.283   8.917  0.1961 -1.1703 -0.1522
  168MOL0     C22599   8.035  10.367   8.868 -0.8806 -0.4450 -0.0977
  168MOL0     C22600   7.716  10.534   8.620  0.0280 -0.4506 -0.8955
  168MOL0     C22601   7.727  10.604   8.496 -0.9256  0.6801 -0.9723
  168MOL0     C22602   7.645  10.717   8.477 -0.0477  0.2491 -0.1446
  168MOL0     C22603   7.566  10.770   8.572 -0.6267  0.7562  0.4332
  168MOL0     O22604   7.512  10.895   8.536  0.1487 -0.4153 -0.5917
  168MOL0     C22605   7.423  10.965   8.627 -0.4056 -0.1726  0.9491
  168MOL0     C22606   7.485  11.041   8.746  0.9064  0.2718 -0.6970
  168MOL0     C22607   7.395  11.036   8.872 -0.1171  0.1192 -0.6913
  168MOL0     C22608   7.420  11.147   8.979 -1.3609 -0.1396 -0.0083
  168MOL0     C22609   7.562  11.146   9.022  0.3747  0.7285 -0.0785
  168MOL0     C22610   7.675  11.173   9.049 -0.1537  0.6138 -0.9453
  168MOL0     C22611   7.557  10.706   8.693 -0.4022  0.1377 -0.8235
  168MOL0     C22612   7.628  10.590   8.721  0.3837 -0.3284  0.3398
  168MOL0     H22613   7.804  10.137   8.784  0.6147 -1.0277 -2.0436
  168MOL0     H22614   7.993   9.984   8.857  2.2857 -0.7612 -1.1911
  168MOL0     H22615   8.156   9.860   9.005 -0.4860 -2.5884 -1.0429
  168MOL0     H22616   8.190   9.863   8.828  2.1059  0.2639 -1.1919
  168MOL0     H22617   8.426   9.937   8.895  1.0592 -0.7764 -1.8675
  168MOL0     H22618   8.383   9.862   9.049 -1.1683 -2.8509  0.1596
  168MOL0     H22619   8.376   9.643   8.930  1.4349 -2.0809 -1.3226
  168MOL0     H22620   8.353   9.725   8.775  2.0416 -2.1372 -1.0584
  168MOL0     H22621   8.590   9.844   8.814 -1.0926 -0.8021 -0.2071
  168MOL0     H22622   8.613   9.735   8.936  0.1031 -1.8261 -0.5650
  168MOL0     H22623   8.593   9.542   8.803  1.2786  1.3660  2.1740
  168MOL0     H22624   8.514   9.633   8.663  0.8487 -1.3309 -0.5584
  168MOL0     H22625   8.703   9.693   8.572 -0.7552 -0.0799  0.4157
  168MOL0     H22626   8.805   9.708   8.728  1.4533 -1.5838 -0.2629
  168MOL0     H22627   8.837   9.488   8.773  1.7141  0.4746  0.0724
  168MOL0     H22628   8.716   9.439   8.652  2.1303 -0.6767 -2.7489
  168MOL0     H22629   8.869   9.488   8.466 -1.6535 -1.1614  0.7901
  168MOL0     H22630   8.929   9.368   8.573  1.8586  0.2114  0.3585
  168MOL0     H22631   9.003   9.730   8.706  0.4456  0.3104 -1.3190
  168MOL0     H22632   9.269   9.759   8.832 -1.9897 -1.5160 -1.0672
  168MOL0     H22633   9.388   9.753   8.689  0.7357  1.7679 -0.6000
  168MOL0     H22634   9.345   9.996   8.711 -2.1530  1.9494  1.8772
  168MOL0     H22635   9.168   9.947   8.724 -0.2568 -1.6306 -0.5757
  168MOL0     H22636   9.226  10.025   8.485 -1.6152 -0.2944  0.3316
  168MOL0     H22637   9.216   9.854   8.472 -2.9369  2.2694 -0.8337
  168MOL0     H22638   9.407   9.969   8.357  2.2671  1.8464 -0.6717
  168MOL0     H22639   9.456   9.834   8.465  0.3432  0.5364  2.0128
  168MOL0     H22640   9.579  10.167   8.306 -1.4999 -1.4289 -0.2003
  168MOL0     H22641   9.748  10.272   8.151 -3.2616 -2.5693 -1.3598
  168MOL0     H22642   9.918  10.251   8.196  0.7261 -1.6448 -0.7607
  168MOL0     H22643   9.840  10.127   8.100 -2.7502 -0.7351  0.5298
  168MOL0     H22644  10.113  10.156   7.998 -0.3931  0.3611  1.1823
  168MOL0     H22645  10.339  10.176   7.894  1.4184 -0.1990 -0.2422
  168MOL0     H22646  10.629  10.144   8.155  0.3905  1.2682 -0.7005
  168MOL0     H22647  10.684   9.982   8.137 -1.3375  0.2524 -0.1671
  168MOL0     H22648  10.799  10.106   7.900  1.5544 -3.3583  0.6429
  168MOL0     H22649  10.841  10.215   8.035  2.9897 -1.9096  0.7505
  168MOL0     H22650  10.991  10.006   7.959 -0.5591 -1.3458 -0.1570
  168MOL0     H22651  10.889   9.919   8.053  0.0568  0.1813 -3.5761
  168MOL0     H22652  11.047  10.162   8.173  1.0981 -0.1352  2.7169
  168MOL0     H22653  10.912  10.091   8.244 -1.0713 -0.5959 -0.2086
  168MOL0     H22654  11.160   9.931   8.160 -0.3705 -0.4844 -0.0080
  168MOL0     H22655  11.013   9.874   8.251 -2.6572  1.9844 -0.7386
  168MOL0     H22656  11.202   9.907   8.403 -1.6978 -2.0565 -0.1951
  168MOL0     H22657  11.199  10.070   8.363  0.0051  0.1021 -1.5189
  168MOL0     H22658  11.052   9.893   8.544  0.3512  0.1562 -0.6240
  168MOL0     H22659  10.932  10.000   8.453 -0.1180 -1.4029  1.4590
  168MOL0     H22660  11.189  10.069   8.615  0.0548  3.0541 -0.1158
  168MOL0     H22661  11.013  10.098   8.663 -0.9861  2.7273 -1.2383
  168MOL0     H22662  10.484   9.890   8.193 -0.4298  0.7842 -0.6290
  168MOL0     H22663  10.260   9.872   8.277 -2.4882 -2.3317 -1.6671
  168MOL0     H22664   9.926   9.925   8.561  1.9271  3.2564 -0.5610
  168MOL0     H22665   9.696   9.935   8.647  1.6411  1.0939  0.4813
  168MOL0     H22666   8.226  10.327   8.959  0.2701 -1.4068 -0.0594
  168MOL0     H22667   8.041  10.474   8.885  1.0889 -0.8289  2.2819
  168MOL0     H22668   7.801  10.585   8.419  0.3648  0.1577  0.3488
  168MOL0     H22669   7.678  10.781   8.396  2.6008 -1.9727 -0.9956
  168MOL0     H22670   7.369  11.032   8.560  0.9169 -0.0950 -0.0820
  168MOL0     H22671   7.343  10.897   8.659 -0.9883 -0.9118 -1.8251
  168MOL0     H22672   7.509  11.143   8.712  2.1665 -0.1369 -1.0932
  168MOL0     H22673   7.583  11.001   8.772  0.3389 -1.0837 -0.5549
  168MOL0     H22674   7.408  10.937   8.917 -1.6672  0.7794  1.3387
  168MOL0     H22675   7.286  11.041   8.864 -0.5813  0.8153  3.6326
  168MOL0     H22676   7.355  11.120   9.062  2.3162 -3.2401  2.1953
  168MOL0     H22677   7.384  11.237   8.927 -3.4034 -0.3848  0.8850
  168MOL0     H22678   7.773  11.207   9.076 -1.1238  3.0728 -0.3283
  168MOL0     H22679   7.485  10.736   8.768  0.4545 -2.4852  1.2103
  168MOL0     H22680   7.610  10.545   8.818  0.8971 -3.1423 -0.7808
  169MOL0     O22681   0.624   1.089   0.816  0.5515  0.1810  1.1582
  169MOL0     C22682   0.513   1.127   0.843  0.0344  0.2960 -0.3865
  169MOL0     O22683   0.477   1.253   0.880  0.1843  0.3453  0.7060
  169MOL0     C22684   0.575   1.357   0.856  0.7921  0.2018 -0.0620
  169MOL0     C22685   0.717   1.338   0.862 -0.3553 -0.7282  0.4415
  169MOL0     C22686   0.798   1.448   0.832  0.6948  0.2671  0.1262
  169MOL0     C22687   0.749   1.567   0.791 -0.3994  0.5669 -0.3171
  169MOL0     O22688   0.832   1.675   0.777 -0.2072  0.5405  0.0037
  169MOL0     C22689   0.911   1.717   0.885 -0.1577  0.3300 -0.3958
  169MOL0     C22690   0.837   1.815   0.978  1.2000  0.3695 -0.6620
  169MOL0     C22691   0.908   1.833   1.112  0.2942 -0.5941 -0.1142
  169MOL0     C22692   0.889   1.705   1.200 -0.0292 -0.0503  0.1834
  169MOL0     C22693   0.969   1.729   1.327  1.0486  1.2802 -0.4833
  169MOL0     C22694   1.113   1.751   1.295 -0.5879 -0.0063 -0.2136
  169MOL0     C22695   1.190   1.726   1.417  0.2446 -0.6790  0.5249
  169MOL0     C22696   1.337   1.748   1.383 -0.3841 -0.3159  0.6815
  169MOL0     N22697   1.392   1.625   1.323  0.3779 -0.3582  0.9755
  169MOL0     C22698   1.412   1.505   1.392  0.1002  0.7962  0.2775
  169MOL0     C22699   1.504   1.433   1.321  0.0599 -0.2329  0.8186
  169MOL0     C22700   1.594   1.323   1.371  0.4645 -0.7304 -0.0134
  169MOL0     C22701   1.654   1.368   1.503  0.6426 -0.1048  0.1933
  169MOL0     C22702   1.658   1.254   1.614 -0.6490  0.2654 -0.0207
  169MOL0     C22703   1.515   1.214   1.662 -0.0353 -0.9956  0.5004
  169MOL0     O22704   1.514   1.160   1.796  0.1659  0.4576 -0.0398
  169MOL0     C22705   1.392   1.123   1.847 -0.0440 -0.1845 -0.0496
  169MOL0     C22706   1.275   1.195   1.806 -0.1003 -1.1423  0.0943
  169MOL0     C22707   1.147   1.163   1.852  1.1323  0.3024  0.0276
  169MOL0     C22708   1.034   1.233   1.784 -1.0427 -0.2244 -0.2480
  169MOL0     C22709   1.142   1.071   1.958  0.1587  0.4750  0.2766
  169MOL0     C22710   1.023   1.050   2.037  0.2134 -0.3708  0.3966
  169MOL0     O22711   1.035   0.979   2.158 -0.1824  0.4310  0.5122
  169MOL0     C22712   0.930   0.905   2.225 -0.5953 -0.5589  0.3160
  169MOL0     C22713   0.965   0.844   2.347  0.1934  0.2143 -0.4421
  169MOL0     C22714   0.866   0.785   2.434  1.3299 -0.2467  1.2025
  169MOL0     C22715   0.729   0.804   2.406  0.5278  0.3429  0.1602
  169MOL0     O22716   0.640   0.751   2.501  0.0282 -1.1474  0.2307
  169MOL0     C22717   0.610   0.614   2.473  0.0462 -0.8490  0.5454
  169MOL0     C22718   0.514   0.540   2.572  0.0009 -0.1565 -0.6798
  169MOL0     C22719   0.600   0.459   2.680  0.8159  0.6928  0.1057
  169MOL0     C22720   0.732   0.511   2.739 -0.1692 -0.5274 -0.1600
  169MOL0     C22721   0.812   0.430   2.844  0.7438 -0.3699 -0.5978
  169MOL0     C22722   0.858   0.305   2.768  0.0997 -0.6553 -0.2713
  169MOL0     C22723   0.971   0.242   2.848 -0.5005  0.3636 -0.2558
  169MOL0     C22724   0.999   0.107   2.789 -0.6894  0.6010 -0.1067
  169MOL0    Cl22725   1.051   0.001   2.924  0.0296 -0.1328 -0.2681
  169MOL0     C22726   0.695   0.862   2.288 -0.2046 -0.9413 -0.1734
  169MOL0     C22727   0.796   0.916   2.198 -0.0329 -1.0148 -1.2675
  169MOL0     O22728   0.918   1.090   1.988  0.6308  0.6007  0.3825
  169MOL0     C22729   1.257   0.993   1.990  1.0947  0.4691  0.7107
  169MOL0     C22730   1.375   1.016   1.932 -0.4985 -0.8730 -0.5107
  169MOL0     N22731   1.532   1.506   1.206 -0.0910 -0.1988  0.2966
  169MOL0     N22732   1.468   1.622   1.210  0.6713 -0.2338 -0.5437
  169MOL0     C22733   0.616   1.582   0.778 -1.0463  0.0638  0.2368
  169MOL0     C22734   0.526   1.485   0.815  0.4109  0.0543  0.2076
  169MOL0     C22735   0.409   1.023   0.865  0.7168 -0.5288 -0.2317
  169MOL0     C22736   0.432   0.903   0.918  0.0625 -0.8126 -0.8808
  169MOL0     C22737   0.333   0.810   0.950 -0.2810  0.5679 -0.3257
  169MOL0     C22738   0.203   0.840   0.924  0.6613  0.8405 -0.0096
  169MOL0     O22739   0.112   0.753   0.977 -0.0564 -0.2339 -0.1569
  169MOL0     C22740  -0.011   0.731   0.905  0.2322  1.1686 -0.7248
  169MOL0     C22741  -0.008   0.574   0.878  0.6915  0.3491 -0.5265
  169MOL0     C22742   0.024   0.485   0.995 -1.0001  0.0946 -0.3926
  169MOL0     C22743  -0.013   0.535   1.138 -0.6709  0.8555 -0.2723
  169MOL0     C22744  -0.155   0.546   1.122  0.5629 -0.3631  0.5009
  169MOL0     C22745  -0.278   0.586   1.106  0.2055  0.3903  0.0758
  169MOL0     C22746   0.169   0.960   0.864  0.4894 -0.6130  1.2415
  169MOL0     C22747   0.270   1.053   0.830  0.7013  0.7201 -0.3152
  169MOL0     H22748   0.774   1.251   0.892  2.3913  1.4675  2.0545
  169MOL0     H22749   0.905   1.434   0.821  0.7628 -0.9062  1.8832
  169MOL0     H22750   0.942   1.636   0.952 -0.7805  2.0053  2.0494
  169MOL0     H22751   1.005   1.758   0.849  1.9249 -2.5598  1.3082
  169MOL0     H22752   0.820   1.913   0.931 -0.2920 -0.0035 -0.9483
  169MOL0     H22753   0.741   1.775   1.014  1.1642  2.4980  1.9324
  169MOL0     H22754   1.015   1.850   1.100  1.4855 -2.1042  5.4792
  169MOL0     H22755   0.879   1.927   1.160 -0.1933  0.4799 -2.4010
  169MOL0     H22756   0.782   1.699   1.221 -0.4470  0.6522 -1.6064
  169MOL0     H22757   0.925   1.608   1.163 -1.8407 -1.0213  0.8240
  169MOL0     H22758   0.937   1.819   1.380  1.6398  1.2478 -0.0692
  169MOL0     H22759   0.956   1.642   1.391 -1.0324  0.7651 -1.5319
  169MOL0     H22760   1.143   1.686   1.212  2.3322  0.4081  0.4032
  169MOL0     H22761   1.119   1.859   1.276  0.0299 -0.0267 -0.1537
  169MOL0     H22762   1.158   1.792   1.498 -0.9800 -1.5795  0.8099
  169MOL0     H22763   1.174   1.626   1.460  0.7193 -1.8242 -1.7938
  169MOL0     H22764   1.394   1.771   1.473  1.1947 -5.1302  1.2132
  169MOL0     H22765   1.345   1.837   1.319  0.6093 -0.4613  0.5998
  169MOL0     H22766   1.373   1.481   1.491  2.8368 -2.3441  0.7678
  169MOL0     H22767   1.518   1.246   1.378 -0.5105  0.3352  4.5954
  169MOL0     H22768   1.674   1.304   1.299 -0.1979  1.0756 -1.3156
  169MOL0     H22769   1.610   1.461   1.539  2.2097  0.4254  0.8379
  169MOL0     H22770   1.761   1.380   1.482  0.7009  1.0792  1.0529
  169MOL0     H22771   1.723   1.297   1.692  1.0176  1.5660 -2.0294
  169MOL0     H22772   1.710   1.162   1.588  1.0565  1.4436 -0.9669
  169MOL0     H22773   1.462   1.159   1.584 -1.0983  1.6749 -0.7755
  169MOL0     H22774   1.466   1.311   1.666 -2.7094 -2.2864  1.0701
  169MOL0     H22775   1.280   1.261   1.719 -2.2756 -4.2971 -2.6667
  169MOL0     H22776   0.961   1.166   1.737 -2.6487  1.1508  0.1887
  169MOL0     H22777   0.979   1.289   1.860 -2.0864 -3.3082  1.4533
  169MOL0     H22778   1.068   1.314   1.718 -0.3413  1.1199  1.6949
  169MOL0     H22779   1.070   0.849   2.375 -0.4613  0.3643  2.2703
  169MOL0     H22780   0.896   0.727   2.521 -1.7496  0.2618  2.7332
  169MOL0     H22781   0.541   0.637   2.391 -1.2827  1.2388  2.1268
  169MOL0     H22782   0.695   0.550   2.448  1.9680  1.5627  0.5333
  169MOL0     H22783   0.447   0.613   2.618  0.3628 -1.1189  1.4695
  169MOL0     H22784   0.453   0.468   2.516  0.2242 -2.6806  2.1361
  169MOL0     H22785   0.620   0.361   2.636  4.4115  1.3045  0.0798
  169MOL0     H22786   0.537   0.434   2.766  0.0918  1.2472 -0.2434
  169MOL0     H22787   0.805   0.539   2.663  1.1706 -2.6379  0.2588
  169MOL0     H22788   0.702   0.600   2.795 -1.9003  0.0302 -1.8788
  169MOL0     H22789   0.744   0.408   2.927  1.1561  1.6602  0.3505
  169MOL0     H22790   0.887   0.490   2.896  0.3706  0.3839 -0.9056
  169MOL0     H22791   0.777   0.232   2.760 -1.4683  1.0145 -0.2147
  169MOL0     H22792   0.894   0.323   2.666 -1.8567 -1.4974 -1.1490
  169MOL0     H22793   0.940   0.246   2.953 -0.8990  3.4627 -0.3989
  169MOL0     H22794   1.062   0.302   2.844  0.4075 -0.9183  0.4303
  169MOL0     H22795   1.075   0.118   2.712  1.9481 -0.2054  2.2216
  169MOL0     H22796   0.907   0.068   2.745  0.2203 -2.5912  0.5404
  169MOL0     H22797   0.591   0.877   2.259 -0.6924 -2.4819  0.6569
  169MOL0     H22798   0.751   0.974   2.118  0.5450  3.0729  1.1204
  169MOL0     H22799   1.263   0.921   2.071 -0.6035  0.7065  1.0806
  169MOL0     H22800   1.463   0.956   1.954 -0.1115 -0.6528 -1.4314
  169MOL0     H22801   0.581   1.679   0.743 -0.9225 -0.3576 -1.0898
  169MOL0     H22802   0.419   1.499   0.808  0.2005 -1.2537  0.6789
  169MOL0     H22803   0.537   0.892   0.945  0.2375 -1.8236 -1.9317
  169MOL0     H22804   0.362   0.722   1.006 -0.8583 -0.1874 -1.1932
  169MOL0     H22805  -0.096   0.763   0.967  1.1589  0.8324  0.7712
  169MOL0     H22806  -0.007   0.782   0.808  2.6188 -1.6595 -2.2764
  169MOL0     H22807   0.072   0.561   0.804  1.7390 -0.2258  0.6692
  169MOL0     H22808  -0.108   0.548   0.841  1.0578 -2.4148  0.2190
  169MOL0     H22809   0.132   0.471   0.998 -0.9552 -0.1640 -2.2758
  169MOL0     H22810  -0.022   0.387   0.986 -0.9379 -0.0329  0.5702
  169MOL0     H22811   0.039   0.629   1.159 -0.5045  0.8820 -0.7709
  169MOL0     H22812   0.023   0.464   1.213  2.2659 -0.3135 -2.5556
  169MOL0     H22813  -0.374   0.629   1.087  0.7485  1.0065 -1.4396
  169MOL0     H22814   0.067   0.997   0.858  0.5534 -0.4531  1.1583
  169MOL0     H22815   0.241   1.148   0.785  3.0188  1.3503 -0.6113
  170MOL0     O22816   8.197   5.203   6.744  0.0056 -1.3321  0.1111
  170MOL0     C22817   8.165   5.258   6.853 -0.5492 -0.3663  0.6548
  170MOL0     O22818   8.059   5.344   6.869 -0.4203 -0.6615  0.7486
  170MOL0     C22819   7.996   5.391   6.750  0.3910 -0.1011 -1.1826
  170MOL0     C22820   7.869   5.344   6.726 -0.0199 -0.2394 -0.2086
  170MOL0     C22821   7.785   5.389   6.625  0.1860 -0.5181  0.4405
  170MOL0     C22822   7.840   5.486   6.535  0.0626  0.0564 -0.0483
  170MOL0     O22823   7.755   5.514   6.430  0.1664 -0.5033 -0.4120
  170MOL0     C22824   7.806   5.607   6.335  0.7905  0.4524 -0.0774
  170MOL0     C22825   7.701   5.654   6.239 -0.2787  0.1888  0.3145
  170MOL0     C22826   7.769   5.698   6.110  0.7684 -0.1321  0.5276
  170MOL0     C22827   7.767   5.595   5.998 -0.1181  0.6461 -0.7312
  170MOL0     C22828   7.802   5.644   5.861  0.0509  0.3369 -0.1504
  170MOL0     C22829   7.939   5.704   5.850 -0.1889  1.3337 -0.0965
  170MOL0     C22830   7.971   5.734   5.700 -0.3376  0.0995 -0.5977
  170MOL0     C22831   8.121   5.722   5.687 -0.4897 -0.9094  0.7081
  170MOL0     N22832   8.172   5.738   5.544 -0.4515 -0.7835  0.1872
  170MOL0     C22833   8.107   5.708   5.428 -0.3911  0.3799  0.1665
  170MOL0     C22834   8.208   5.706   5.338  0.6333  0.3724 -0.5664
  170MOL0     C22835   8.187   5.671   5.193  0.0070 -1.0006  0.2391
  170MOL0     C22836   8.128   5.787   5.115  0.7109 -0.2348  0.4499
  170MOL0     C22837   8.090   5.753   4.974 -0.2238 -0.9975 -0.7102
  170MOL0     C22838   7.982   5.641   4.966  0.2437  0.4725  0.2399
  170MOL0     O22839   7.849   5.675   5.019 -0.0186 -0.3716 -0.4640
  170MOL0     C22840   7.767   5.746   4.938  0.2088 -0.0478  0.9820
  170MOL0     C22841   7.633   5.750   4.977 -0.1825  0.0611  0.3258
  170MOL0     C22842   7.539   5.823   4.900  0.3139  0.3735  0.7183
  170MOL0     C22843   7.409   5.843   4.980  1.4377 -0.2999  0.1331
  170MOL0     C22844   7.574   5.875   4.775 -0.2273  0.0438 -0.1392
  170MOL0     C22845   7.484   5.939   4.683  0.0241 -1.0282  0.6677
  170MOL0     O22846   7.533   6.017   4.591 -0.3623  0.7973  0.2718
  170MOL0     C22847   7.458   6.078   4.497  0.0313  0.7822 -0.4198
  170MOL0     C22848   7.508   6.076   4.367 -0.5043  0.5038 -0.6365
  170MOL0     C22849   7.426   6.118   4.263 -0.0358 -0.4827 -0.8804
  170MOL0     C22850   7.291   6.171   4.296  0.0305 -0.0338  0.3555
  170MOL0     O22851   7.213   6.195   4.188 -0.2345 -0.5061 -0.3360
  170MOL0     C22852   7.110   6.292   4.193 -0.3476 -0.3991 -0.2015
  170MOL0     C22853   7.055   6.315   4.042 -0.0530 -0.0639  0.2259
  170MOL0     C22854   7.167   6.351   3.939  0.4392  0.1602 -0.0089
  170MOL0     C22855   7.117   6.327   3.804 -0.3476 -0.6455  0.5511
  170MOL0     C22856   7.222   6.384   3.709  0.1056 -0.3383 -0.3381
  170MOL0     C22857   7.176   6.400   3.566 -0.0984  0.8215  0.2278
  170MOL0     C22858   7.294   6.384   3.472  0.6080 -0.6415  0.3409
  170MOL0     C22859   7.245   6.411   3.330 -0.9552  0.1872 -0.3021
  170MOL0    Cl22860   7.398   6.387   3.227  0.4977  0.4380 -0.0216
  170MOL0     C22861   7.251   6.190   4.423 -0.6066  0.1610 -0.3818
  170MOL0     C22862   7.335   6.143   4.530 -1.2002  0.9014  0.5365
  170MOL0     O22863   7.365   5.911   4.686  0.7543 -0.5681  1.1638
  170MOL0     C22864   7.704   5.846   4.731 -0.1603 -0.2914 -0.0118
  170MOL0     C22865   7.800   5.796   4.812  0.2810  0.4305 -0.8224
  170MOL0     N22866   8.326   5.744   5.392 -0.0260 -0.1684 -0.2922
  170MOL0     N22867   8.299   5.764   5.516 -0.7170 -0.4256  0.0201
  170MOL0     C22868   7.980   5.534   6.557  0.4398 -0.3761  0.7975
  170MOL0     C22869   8.050   5.488   6.664  0.5238  0.0166 -1.4775
  170MOL0     C22870   8.252   5.235   6.958  0.5097  0.6874  0.5851
  170MOL0     C22871   8.193   5.264   7.085 -0.3198 -0.4931 -0.5991
  170MOL0     C22872   8.266   5.256   7.204  0.2890 -1.6082 -0.9841
  170MOL0     C22873   8.400   5.209   7.189  0.5177  0.0361 -0.3448
  170MOL0     O22874   8.455   5.184   7.313  0.0193 -0.4363 -0.4449
  170MOL0     C22875   8.597   5.139   7.323  1.2297 -0.2653  0.1191
  170MOL0     C22876   8.679   5.269   7.307  0.5557 -0.2065  0.5238
  170MOL0     C22877   8.639   5.363   7.412  0.1115  0.4147 -0.2917
  170MOL0     C22878   8.705   5.498   7.399 -0.9763  0.5685 -0.8718
  170MOL0     C22879   8.705   5.554   7.266 -0.0807  0.4808  0.7787
  170MOL0     C22880   8.705   5.575   7.146  0.2958  0.6186 -0.3609
  170MOL0     C22881   8.463   5.184   7.065 -0.5876  0.1728 -0.5555
  170MOL0     C22882   8.387   5.185   6.949  0.3342  0.4987 -0.2713
  170MOL0     H22883   7.816   5.284   6.800  1.0568  0.0922  0.8623
  170MOL0     H22884   7.682   5.355   6.613 -0.2492 -0.1161  2.5981
  170MOL0     H22885   7.836   5.696   6.390  1.1649 -0.0751  0.5964
  170MOL0     H22886   7.887   5.566   6.274 -2.7447 -0.2505 -4.8712
  170MOL0     H22887   7.632   5.571   6.220 -0.1175  0.3990 -1.2803
  170MOL0     H22888   7.638   5.733   6.283 -0.1989 -0.7845  2.2889
  170MOL0     H22889   7.713   5.783   6.071  4.2977  2.1603  0.0282
  170MOL0     H22890   7.869   5.740   6.124 -0.0442  3.0528 -2.0400
  170MOL0     H22891   7.844   5.522   6.023  0.1544  0.2764 -2.5190
  170MOL0     H22892   7.668   5.549   5.990  0.3921 -0.8462  0.9434
  170MOL0     H22893   7.791   5.562   5.790 -1.8696  2.4995 -2.5394
  170MOL0     H22894   7.725   5.720   5.848  0.7688  1.5922  2.1912
  170MOL0     H22895   7.952   5.800   5.902  2.3206  0.4616  1.0207
  170MOL0     H22896   8.004   5.631   5.897 -0.1796  0.7203 -1.0348
  170MOL0     H22897   7.913   5.668   5.635 -2.7932  0.0636  1.4526
  170MOL0     H22898   7.933   5.835   5.680  1.4093  0.6299 -1.3835
  170MOL0     H22899   8.152   5.625   5.728  3.1898  1.1648  3.4525
  170MOL0     H22900   8.169   5.793   5.756 -1.7865 -0.2048  0.9186
  170MOL0     H22901   8.001   5.695   5.409 -0.0452 -1.5727 -0.6556
  170MOL0     H22902   8.280   5.656   5.138  0.1578  2.3563 -0.6986
  170MOL0     H22903   8.133   5.577   5.182 -0.9836 -0.2175 -2.6002
  170MOL0     H22904   8.196   5.872   5.123 -1.0617  1.5336 -1.7922
  170MOL0     H22905   8.035   5.820   5.163  1.2149 -0.4919  1.6407
  170MOL0     H22906   8.172   5.724   4.908  1.4535  1.2332  0.2549
  170MOL0     H22907   8.057   5.845   4.925  2.9503 -0.1205 -1.4386
  170MOL0     H22908   8.031   5.552   5.006  2.8445  2.6534  2.2900
  170MOL0     H22909   7.966   5.608   4.863  0.6395 -1.5769  0.7969
  170MOL0     H22910   7.606   5.704   5.071 -1.7430 -1.4711 -0.8129
  170MOL0     H22911   7.409   5.829   5.088 -1.1755 -2.5310 -0.0403
  170MOL0     H22912   7.376   5.946   4.961  0.0608 -0.9286 -1.1131
  170MOL0     H22913   7.320   5.789   4.946  0.2109  0.9585  1.2107
  170MOL0     H22914   7.605   6.038   4.337  0.4507  1.8611  0.6157
  170MOL0     H22915   7.446   6.115   4.156 -2.5903  1.1087 -1.4966
  170MOL0     H22916   7.021   6.275   4.253 -0.6904  0.2594 -0.5141
  170MOL0     H22917   7.163   6.385   4.215 -2.7985  0.9194  0.4642
  170MOL0     H22918   7.007   6.221   4.012  1.7979 -1.4709  1.4370
  170MOL0     H22919   6.982   6.397   4.042 -0.4868 -0.4363  1.0746
  170MOL0     H22920   7.254   6.287   3.958  1.1515  0.9521 -0.5846
  170MOL0     H22921   7.185   6.458   3.950  1.4036  0.3637 -2.7905
  170MOL0     H22922   7.106   6.223   3.775 -2.1476 -0.1814 -0.5505
  170MOL0     H22923   7.021   6.375   3.785 -0.2966 -1.3155 -1.6169
  170MOL0     H22924   7.311   6.321   3.713  0.9658  0.8495 -0.2637
  170MOL0     H22925   7.243   6.487   3.740 -0.9747  0.8626 -3.2763
  170MOL0     H22926   7.100   6.324   3.544  0.1107 -0.2128  2.7390
  170MOL0     H22927   7.130   6.499   3.560  0.2293  1.0167  0.8604
  170MOL0     H22928   7.330   6.282   3.487 -1.2060 -1.3341  0.1380
  170MOL0     H22929   7.368   6.455   3.512  0.6045  0.0266 -0.7873
  170MOL0     H22930   7.204   6.511   3.311 -1.9254 -0.3442 -1.1399
  170MOL0     H22931   7.170   6.336   3.302 -1.0432 -0.2611  1.0844
  170MOL0     H22932   7.154   6.235   4.444  0.9075  3.1125  0.9742
  170MOL0     H22933   7.322   6.156   4.637  3.0004  2.9024  0.9960
  170MOL0     H22934   7.739   5.864   4.630 -1.9538  3.6065 -0.1392
  170MOL0     H22935   7.899   5.785   4.769  1.2723 -2.3291  1.8206
  170MOL0     H22936   8.026   5.602   6.486 -1.0203  0.0704  0.2353
  170MOL0     H22937   8.151   5.515   6.693 -0.4958  0.3802  2.3381
  170MOL0     H22938   8.090   5.297   7.098 -0.5369 -1.1184 -0.6729
  170MOL0     H22939   8.218   5.272   7.300  1.7675 -0.3601 -0.4046
  170MOL0     H22940   8.618   5.090   7.419 -1.3905  1.3185  1.6400
  170MOL0     H22941   8.603   5.073   7.236 -1.2199 -1.2580  0.6241
  170MOL0     H22942   8.677   5.312   7.206  0.3614  0.1700  0.6866
  170MOL0     H22943   8.786   5.252   7.324  0.6486 -1.6972 -1.1920
  170MOL0     H22944   8.657   5.322   7.512 -1.7667 -0.4160 -0.2557
  170MOL0     H22945   8.531   5.378   7.411  0.0427  0.1478  1.0572
  170MOL0     H22946   8.812   5.497   7.423 -1.1941 -1.9235  0.2923
  170MOL0     H22947   8.650   5.567   7.464 -1.5709  0.5002 -1.2925
  170MOL0     H22948   8.702   5.599   7.042 -0.2663 -0.9245 -0.7273
  170MOL0     H22949   8.566   5.162   7.039 -1.4393 -1.5439 -2.7997
  170MOL0     H22950   8.431   5.151   6.856 -2.7460  1.3192 -2.2012
  171MOL0     O22951   0.331   8.971   6.281  0.3542 -0.4278 -0.0088
  171MOL0     C22952   0.241   8.911   6.221 -0.8482 -0.3099 -0.2176
  171MOL0     O22953   0.239   8.894   6.088 -0.2655  0.2190  0.1194
  171MOL0     C22954   0.334   8.960   6.011  0.2605  0.5815  0.2661
  171MOL0     C22955   0.320   9.099   5.998  0.0616  0.7075 -0.0203
  171MOL0     C22956   0.411   9.175   5.921  0.0100  0.4824 -0.2018
  171MOL0     C22957   0.523   9.116   5.851  0.0703  1.3769  0.2309
  171MOL0     O22958   0.619   9.188   5.776  0.0813 -0.3632  0.2435
  171MOL0     C22959   0.652   9.318   5.812  0.5921  0.2128 -0.0366
  171MOL0     C22960   0.689   9.331   5.963 -0.3031  0.0503 -0.6621
  171MOL0     C22961   0.683   9.480   6.000 -0.3963 -0.4576 -0.0019
  171MOL0     C22962   0.776   9.514   6.110 -0.1524  0.7893 -0.3591
  171MOL0     C22963   0.729   9.637   6.187  0.5448  0.4036 -0.5223
  171MOL0     C22964   0.697   9.605   6.336 -0.3864 -0.9895  0.7746
  171MOL0     C22965   0.658   9.718   6.428  0.1361 -0.0069 -0.0251
  171MOL0     C22966   0.743   9.846   6.432 -0.8179  0.2116  0.7330
  171MOL0     N22967   0.886   9.830   6.465  0.4744  0.3002 -0.1618
  171MOL0     C22968   0.947   9.740   6.551 -0.1306  0.9017  0.1389
  171MOL0     C22969   1.077   9.732   6.514  0.0617  1.0370  0.4311
  171MOL0     C22970   1.181   9.643   6.570  0.5054 -0.3688  0.9005
  171MOL0     C22971   1.178   9.494   6.528  0.2346 -0.9505 -0.7021
  171MOL0     C22972   1.153   9.479   6.377 -0.7237 -0.7141  0.1373
  171MOL0     C22973   1.183   9.336   6.333  0.0933 -0.3317 -0.7962
  171MOL0     O22974   1.189   9.340   6.189 -0.8745  0.2030 -0.1067
  171MOL0     C22975   1.137   9.231   6.128 -0.4431 -0.2688  0.4588
  171MOL0     C22976   1.177   9.104   6.176 -0.9221 -0.4132  0.5584
  171MOL0     C22977   1.125   8.991   6.120 -0.4452 -0.0145 -0.3234
  171MOL0     C22978   1.192   8.866   6.176 -0.5849  0.2638 -0.3073
  171MOL0     C22979   1.033   8.992   6.010  0.8812  0.1641  0.5256
  171MOL0     C22980   0.960   8.879   5.960 -0.1232  0.0266  0.6418
  171MOL0     O22981   0.945   8.764   6.038 -0.0987 -0.6429  0.2095
  171MOL0     C22982   0.884   8.658   5.988  0.6827  0.3021 -0.2928
  171MOL0     C22983   0.757   8.673   5.931 -0.1677 -0.0752  0.6826
  171MOL0     C22984   0.699   8.567   5.864 -0.0670 -0.2573  0.0457
  171MOL0     C22985   0.757   8.436   5.857 -0.0584  0.3825  0.4008
  171MOL0     O22986   0.711   8.337   5.777  0.1438  0.0532  0.0062
  171MOL0     C22987   0.580   8.367   5.706 -0.8110 -0.9547  0.1467
  171MOL0     C22988   0.537   8.250   5.618 -0.7344  0.3593 -0.1262
  171MOL0     C22989   0.627   8.205   5.511  0.5266 -0.2771 -0.4318
  171MOL0     C22990   0.540   8.147   5.399 -0.0921 -0.6313  0.5068
  171MOL0     C22991   0.618   8.081   5.277  0.1597 -0.5107  0.1751
  171MOL0     C22992   0.753   8.027   5.309 -0.2307  0.0171  0.7825
  171MOL0     C22993   0.806   7.953   5.177 -0.5174 -0.0685  0.3219
  171MOL0     C22994   0.928   8.025   5.131  0.2343  1.4028  0.2200
  171MOL0    Cl22995   1.061   7.990   5.262  0.0733 -0.7175  0.3116
  171MOL0     C22996   0.883   8.422   5.923  0.0748  1.2633 -0.0115
  171MOL0     C22997   0.943   8.528   5.988 -0.5167 -0.9471 -1.7592
  171MOL0     O22998   0.934   8.888   5.843 -0.2772 -0.1477 -0.6480
  171MOL0     C22999   0.995   9.121   5.956  0.1378 -0.1020  0.1298
  171MOL0     C23000   1.057   9.237   6.015 -0.0903 -0.5450  1.0258
  171MOL0     N23001   1.089   9.811   6.404  0.2887  0.2240 -0.0229
  171MOL0     N23002   0.982   9.869   6.380  0.7322 -0.4757  0.1051
  171MOL0     C23003   0.526   8.968   5.852 -0.4398 -0.4977 -0.3213
  171MOL0     C23004   0.435   8.897   5.930  0.1589 -0.4037  0.2382
  171MOL0     C23005   0.157   8.826   6.298  1.0554 -0.4393 -0.5814
  171MOL0     C23006   0.198   8.759   6.428 -0.1055 -0.6978  0.7623
  171MOL0     C23007   0.111   8.671   6.490  0.4348  0.4758  0.6813
  171MOL0     C23008  -0.004   8.628   6.425  0.2628 -1.0974  0.2761
  171MOL0     O23009  -0.089   8.528   6.470 -1.1069  0.0336  0.1032
  171MOL0     C23010  -0.025   8.414   6.531  0.6692  0.0315 -0.2217
  171MOL0     C23011  -0.029   8.299   6.429  0.1052  0.0833 -0.5564
  171MOL0     C23012   0.049   8.168   6.470  0.1497 -0.5071 -0.0409
  171MOL0     C23013   0.043   8.054   6.372  0.4204 -0.3257  0.1426
  171MOL0     C23014  -0.059   8.073   6.270 -1.0058 -0.6893 -1.3706
  171MOL0     C23015  -0.128   8.077   6.177  1.1718 -0.4136 -0.2392
  171MOL0     C23016  -0.044   8.689   6.307  0.7601 -0.5079  0.2371
  171MOL0     C23017   0.030   8.796   6.248  0.2032  0.2022  0.8932
  171MOL0     H23018   0.244   9.157   6.050 -1.4966 -1.9930  0.9101
  171MOL0     H23019   0.406   9.283   5.909  0.5918  0.5884  0.4602
  171MOL0     H23020   0.741   9.334   5.750  0.8175 -1.1500 -0.0953
  171MOL0     H23021   0.582   9.391   5.771 -0.7408 -0.5419  0.8335
  171MOL0     H23022   0.611   9.291   6.029 -0.8791  1.4397 -0.4715
  171MOL0     H23023   0.786   9.286   5.986  0.3116  1.4749 -0.4098
  171MOL0     H23024   0.724   9.546   5.923  3.0813  3.4239  4.5889
  171MOL0     H23025   0.585   9.517   6.031 -0.2343  1.0163 -1.1013
  171MOL0     H23026   0.772   9.427   6.177  1.1369  0.2325 -0.9734
  171MOL0     H23027   0.882   9.532   6.089 -0.4211  0.4806 -2.1006
  171MOL0     H23028   0.808   9.713   6.179 -0.0186  0.8821 -2.1043
  171MOL0     H23029   0.644   9.682   6.134  0.4224 -1.5262 -2.0959
  171MOL0     H23030   0.605   9.546   6.328 -1.8567  1.3428 -0.3725
  171MOL0     H23031   0.780   9.551   6.383  0.3137 -0.1129  0.5659
  171MOL0     H23032   0.561   9.758   6.397 -1.5847 -3.9057 -0.2311
  171MOL0     H23033   0.644   9.680   6.529  0.1961  0.0381 -0.0002
  171MOL0     H23034   0.700   9.924   6.496  0.6689  2.4579 -0.8691
  171MOL0     H23035   0.745   9.879   6.328  2.5194 -1.4541  0.1446
  171MOL0     H23036   0.904   9.705   6.644  0.1145  2.4060  0.8475
  171MOL0     H23037   1.279   9.689   6.550 -0.6689  3.3608  2.7779
  171MOL0     H23038   1.153   9.642   6.676  1.7649  0.8554  1.2809
  171MOL0     H23039   1.091   9.451   6.579  0.3839  0.1336  0.5038
  171MOL0     H23040   1.267   9.440   6.562  0.9603  0.5552 -0.1518
  171MOL0     H23041   1.227   9.545   6.330 -1.0135 -0.0115  0.6550
  171MOL0     H23042   1.050   9.512   6.361 -0.8381 -0.7463  0.7562
  171MOL0     H23043   1.102   9.266   6.355  0.9157 -1.5814 -1.5787
  171MOL0     H23044   1.272   9.296   6.383 -0.6467 -0.2289  0.6554
  171MOL0     H23045   1.250   9.098   6.256 -1.3775  2.9662  1.4079
  171MOL0     H23046   1.123   8.800   6.229 -1.3032 -0.2093 -1.7745
  171MOL0     H23047   1.231   8.800   6.098 -0.2565  0.6944 -0.5148
  171MOL0     H23048   1.281   8.881   6.238 -2.0022 -0.3259  2.0041
  171MOL0     H23049   0.703   8.766   5.917  2.8584  1.5642 -1.1776
  171MOL0     H23050   0.612   8.606   5.811  1.1171 -1.6082 -3.1228
  171MOL0     H23051   0.498   8.381   5.777  0.9443 -1.4772  2.3780
  171MOL0     H23052   0.596   8.456   5.644 -0.9160 -0.1919  1.1838
  171MOL0     H23053   0.526   8.169   5.690 -4.3150  0.8749  0.0971
  171MOL0     H23054   0.443   8.280   5.571  0.6600  0.7363 -2.9337
  171MOL0     H23055   0.697   8.133   5.555 -2.2919 -3.5820 -0.9427
  171MOL0     H23056   0.676   8.291   5.465  1.8660 -0.1518  1.1299
  171MOL0     H23057   0.469   8.073   5.439 -4.2834  2.1214 -1.1222
  171MOL0     H23058   0.467   8.220   5.362 -0.7445 -0.9063  1.2031
  171MOL0     H23059   0.622   8.167   5.210  0.8323  1.8404  3.0176
  171MOL0     H23060   0.551   8.004   5.238 -1.0888 -1.1821  3.3450
  171MOL0     H23061   0.807   8.116   5.344 -1.1967  2.8213 -3.9341
  171MOL0     H23062   0.758   7.952   5.388  0.0529 -0.7330  0.0642
  171MOL0     H23063   0.730   7.968   5.100 -2.3188 -0.4497  1.9502
  171MOL0     H23064   0.829   7.851   5.209  0.6220  0.1146  0.1497
  171MOL0     H23065   0.910   8.131   5.111 -0.1127  2.0206  3.2481
  171MOL0     H23066   0.968   7.974   5.043  0.0802  1.7165 -0.0309
  171MOL0     H23067   0.930   8.324   5.923 -1.4214  0.5181  0.7843
  171MOL0     H23068   1.035   8.504   6.041 -0.7178 -2.6276 -2.1140
  171MOL0     H23069   0.917   9.128   5.882  0.5726 -2.0022 -0.5606
  171MOL0     H23070   1.030   9.334   5.975  0.3536 -1.0466 -0.5291
  171MOL0     H23071   0.609   8.917   5.804  1.8096  1.4700  1.1969
  171MOL0     H23072   0.436   8.789   5.921  0.7156 -0.4663  0.9846
  171MOL0     H23073   0.294   8.780   6.473 -1.1204 -0.3958  2.9518
  171MOL0     H23074   0.140   8.619   6.581  0.1926 -1.8741 -0.4941
  171MOL0     H23075   0.079   8.418   6.564  0.8914  4.3364 -0.8775
  171MOL0     H23076  -0.094   8.381   6.609  0.4043 -3.0492 -1.6010
  171MOL0     H23077   0.018   8.342   6.340  1.1377  3.0798  1.2823
  171MOL0     H23078  -0.135   8.280   6.410 -0.0305  1.3452 -1.1658
  171MOL0     H23079  -0.008   8.128   6.555 -0.1061 -2.7022 -1.1791
  171MOL0     H23080   0.147   8.196   6.510 -0.8371  1.5738  1.0893
  171MOL0     H23081   0.025   7.959   6.424 -1.5998 -0.2360 -0.3329
  171MOL0     H23082   0.137   8.037   6.318  0.9243 -1.1124  1.2077
  171MOL0     H23083  -0.195   8.079   6.094  0.3381  0.8530  0.4412
  171MOL0     H23084  -0.146   8.665   6.280  0.9152 -0.2499 -0.6010
  171MOL0     H23085  -0.011   8.852   6.164  1.7095 -0.4507 -0.3379
  172MOL0     O23086   4.114   9.793   6.848  0.1087 -0.4440  0.1400
  172MOL0     C23087   4.062   9.843   6.951 -0.4943  0.0071  0.6040
  172MOL0     O23088   4.088   9.808   7.082 -0.3611 -1.0136 -0.4183
  172MOL0     C23089   4.170   9.698   7.095 -0.4063  0.1456  0.8724
  172MOL0     C23090   4.107   9.576   7.123  0.0970  0.1112 -0.3902
  172MOL0     C23091   4.182   9.454   7.113 -0.1735  0.3759  0.4721
  172MOL0     C23092   4.314   9.455   7.077 -0.3296 -0.0093  0.5471
  172MOL0     O23093   4.373   9.330   7.045 -0.1949  0.1541  0.3688
  172MOL0     C23094   4.494   9.325   6.969 -0.5091 -0.1564 -1.2057
  172MOL0     C23095   4.616   9.312   7.066  0.5446  0.3711  0.3406
  172MOL0     C23096   4.750   9.338   6.982  0.5404 -0.1475 -0.2251
  172MOL0     C23097   4.785   9.481   6.995  0.5443  0.1858 -0.6386
  172MOL0     C23098   4.915   9.520   6.927  0.2783 -0.5827 -0.3448
  172MOL0     C23099   4.942   9.448   6.800 -0.0128 -0.1282  0.3449
  172MOL0     C23100   5.059   9.504   6.732  0.0890  0.4895  0.1929
  172MOL0     C23101   5.091   9.404   6.615  0.5855  0.4353 -0.7021
  172MOL0     N23102   5.171   9.465   6.510 -0.2424 -0.5833  0.5680
  172MOL0     C23103   5.309   9.479   6.508  0.0404 -0.8461  0.2882
  172MOL0     C23104   5.332   9.570   6.406  0.1105  0.8771 -0.0555
  172MOL0     C23105   5.457   9.647   6.355 -0.1041  0.1280  0.0447
  172MOL0     C23106   5.536   9.577   6.247 -0.8425  0.1610 -0.2201
  172MOL0     C23107   5.557   9.428   6.301 -0.2125 -0.1136  1.4558
  172MOL0     C23108   5.663   9.357   6.211  0.1374  0.6449 -0.5243
  172MOL0     O23109   5.625   9.346   6.073  0.3448 -0.2643  0.3193
  172MOL0     C23110   5.694   9.270   5.986 -0.4244  0.3585 -0.2897
  172MOL0     C23111   5.836   9.258   5.997  0.6085 -0.1694 -0.2671
  172MOL0     C23112   5.909   9.198   5.892 -0.4298  0.7352  0.1668
  172MOL0     C23113   6.067   9.186   5.901 -0.6951 -0.9960 -0.1657
  172MOL0     C23114   5.842   9.139   5.779  0.3982  0.5076  0.0605
  172MOL0     C23115   5.902   9.060   5.663  0.7658  0.5041  0.2912
  172MOL0     O23116   5.837   8.955   5.619  0.5325 -0.2444  0.0233
  172MOL0     C23117   5.864   8.890   5.504 -0.2309 -0.5341  0.7936
  172MOL0     C23118   5.781   8.780   5.478  0.0503  0.1377  0.1071
  172MOL0     C23119   5.808   8.701   5.371 -0.3391 -0.4585 -0.3166
  172MOL0     C23120   5.902   8.730   5.268  0.3925 -0.7487  0.0306
  172MOL0     O23121   5.908   8.634   5.173 -0.1140  0.3948 -0.2592
  172MOL0     C23122   6.029   8.640   5.095 -0.3851 -0.1907  0.7609
  172MOL0     C23123   6.026   8.535   4.985  0.4206  0.3608 -0.7579
  172MOL0     C23124   6.051   8.391   5.023  0.4731  0.7898 -0.3427
  172MOL0     C23125   6.106   8.320   4.893  0.4989 -1.2569 -1.5242
  172MOL0     C23126   6.134   8.170   4.917  0.5077 -0.2725 -0.0884
  172MOL0     C23127   6.193   8.091   4.794 -0.0767 -0.3536  0.0985
  172MOL0     C23128   6.138   8.133   4.655  0.2631 -0.1080 -0.3204
  172MOL0     C23129   6.206   8.091   4.527 -0.6031  0.5971  0.0087
  172MOL0    Cl23130   6.271   7.926   4.540 -0.0943  0.0493  0.5581
  172MOL0     C23131   5.977   8.849   5.285  0.4648  0.3660 -0.5067
  172MOL0     C23132   5.961   8.927   5.401 -0.3524  0.3519  0.1588
  172MOL0     O23133   6.022   9.087   5.628  0.0154 -0.8026 -0.1562
  172MOL0     C23134   5.691   9.131   5.787 -0.2494  0.4817  0.0312
  172MOL0     C23135   5.626   9.213   5.886  0.2194 -0.4456  0.1545
  172MOL0     N23136   5.210   9.592   6.350 -0.1731 -0.4765 -1.4768
  172MOL0     N23137   5.111   9.535   6.411 -0.0445 -0.0623  0.2509
  172MOL0     C23138   4.374   9.577   7.063  0.7378  0.4278  0.6787
  172MOL0     C23139   4.306   9.698   7.080 -0.5347  0.8046  0.4268
  172MOL0     C23140   3.958   9.949   6.921  1.3766 -0.1732  1.0001
  172MOL0     C23141   3.930   9.998   6.795 -0.4154 -0.3032 -0.2063
  172MOL0     C23142   3.849  10.114   6.782 -1.1969 -0.0449  0.3235
  172MOL0     C23143   3.771  10.166   6.887  0.3790 -0.1534 -0.0056
  172MOL0     O23144   3.676  10.269   6.888  0.7074  0.5438  0.1986
  172MOL0     C23145   3.665  10.333   6.751  1.1165  0.5993 -1.1027
  172MOL0     C23146   3.590  10.250   6.646 -0.1765  0.4449 -0.6047
  172MOL0     C23147   3.463  10.198   6.698 -0.3298 -0.5370  0.0471
  172MOL0     C23148   3.476  10.049   6.729  0.8528  0.0298  0.1328
  172MOL0     C23149   3.338  10.005   6.780 -0.0269 -0.3580  0.5795
  172MOL0     C23150   3.244   9.939   6.823 -0.7317 -0.5276 -0.2504
  172MOL0     C23151   3.792  10.111   7.002  0.1740 -0.0405 -0.3308
  172MOL0     C23152   3.891  10.017   7.020 -0.6332 -1.0853 -0.6101
  172MOL0     H23153   3.999   9.583   7.134  0.1404 -0.5337  0.5567
  172MOL0     H23154   4.128   9.359   7.112 -0.1943  0.3873  0.0671
  172MOL0     H23155   4.500   9.239   6.902  3.3227 -0.7569 -0.3635
  172MOL0     H23156   4.519   9.418   6.916 -0.6350  0.7334  0.2331
  172MOL0     H23157   4.602   9.383   7.148  0.7597  1.3547 -0.4508
  172MOL0     H23158   4.615   9.220   7.125 -0.5412  2.0478  3.1371
  172MOL0     H23159   4.828   9.278   7.030  0.5615 -0.5462 -0.7448
  172MOL0     H23160   4.744   9.324   6.874  0.0475  1.1603 -0.3950
  172MOL0     H23161   4.701   9.531   6.944 -3.4023 -2.7156  2.3401
  172MOL0     H23162   4.790   9.511   7.100  0.3576 -0.6843 -0.3728
  172MOL0     H23163   4.918   9.628   6.911  0.1538  0.2147  3.7970
  172MOL0     H23164   4.991   9.498   7.003 -0.9134 -1.1135  0.7388
  172MOL0     H23165   4.956   9.343   6.830 -0.5571  0.1728  1.7680
  172MOL0     H23166   4.856   9.465   6.735  0.8852  2.2710 -0.2945
  172MOL0     H23167   5.042   9.601   6.685  1.4293 -1.2998 -4.6933
  172MOL0     H23168   5.148   9.498   6.795 -0.0749 -4.9808  0.4037
  172MOL0     H23169   4.995   9.365   6.578  1.1242 -3.8760  1.7388
  172MOL0     H23170   5.142   9.316   6.655  3.0977  2.5329  1.0689
  172MOL0     H23171   5.379   9.429   6.574 -0.1649  1.8413  2.7051
  172MOL0     H23172   5.430   9.744   6.311 -0.8206 -1.2910 -2.8988
  172MOL0     H23173   5.515   9.667   6.446 -0.0238  1.1362 -0.2107
  172MOL0     H23174   5.636   9.623   6.244 -1.4382  1.6603  1.1307
  172MOL0     H23175   5.489   9.578   6.149  0.9144 -1.1428 -1.1507
  172MOL0     H23176   5.462   9.374   6.299  1.9277 -4.2001  0.9592
  172MOL0     H23177   5.601   9.413   6.400  0.0214  1.5361  1.6325
  172MOL0     H23178   5.697   9.258   6.243  2.9372  1.5762 -0.3600
  172MOL0     H23179   5.754   9.413   6.231  1.9479 -1.6698 -1.7210
  172MOL0     H23180   5.895   9.300   6.079 -0.2291  1.6733 -0.5578
  172MOL0     H23181   6.105   9.084   5.899 -4.5898 -2.6035  0.2168
  172MOL0     H23182   6.110   9.246   5.821 -0.9446  0.3322  0.6570
  172MOL0     H23183   6.091   9.236   5.996 -3.9228  1.8730 -0.6440
  172MOL0     H23184   5.710   8.747   5.553  2.1653  0.1913  2.2709
  172MOL0     H23185   5.751   8.612   5.346  2.1340 -1.7519 -1.6776
  172MOL0     H23186   6.033   8.737   5.044 -0.9912 -2.2180 -3.7006
  172MOL0     H23187   6.111   8.627   5.166  0.0754 -0.5303  0.1787
  172MOL0     H23188   5.934   8.546   4.926 -0.1322  2.3547  0.3896
  172MOL0     H23189   6.100   8.572   4.914  1.6802 -1.8671 -0.7012
  172MOL0     H23190   5.951   8.351   5.041  0.0334  1.9496 -0.1365
  172MOL0     H23191   6.119   8.383   5.109 -0.0877  1.7373  0.2067
  172MOL0     H23192   6.022   8.337   4.826 -2.0644 -0.6742  1.5552
  172MOL0     H23193   6.198   8.370   4.861 -0.3233  2.3451  1.0625
  172MOL0     H23194   6.041   8.122   4.951  1.3838 -0.0096  2.9410
  172MOL0     H23195   6.207   8.159   4.997  2.5394 -2.6438 -2.0945
  172MOL0     H23196   6.299   8.120   4.790 -0.3126  0.3858 -1.6841
  172MOL0     H23197   6.168   7.985   4.805 -1.6217  0.1403  1.8232
  172MOL0     H23198   6.147   8.241   4.644 -0.5463  0.0218  0.2067
  172MOL0     H23199   6.033   8.100   4.656  0.3383 -0.4424  2.1402
  172MOL0     H23200   6.293   8.158   4.520  0.5623 -0.6598  1.6370
  172MOL0     H23201   6.144   8.111   4.439  2.0664  2.9324 -1.5543
  172MOL0     H23202   6.060   8.880   5.222  0.8976  1.9689  0.7656
  172MOL0     H23203   6.027   9.012   5.401  0.1213  0.0146 -1.2593
  172MOL0     H23204   5.647   9.090   5.697  1.8122  2.9350 -2.3078
  172MOL0     H23205   5.518   9.227   5.889  0.5027  4.0431 -2.1092
  172MOL0     H23206   4.480   9.590   7.042  0.3377  1.6220 -0.7478
  172MOL0     H23207   4.359   9.793   7.075 -2.0218  1.8432  2.7583
  172MOL0     H23208   3.975   9.960   6.704  1.4002  3.3213 -1.0217
  172MOL0     H23209   3.841  10.141   6.677 -0.0791 -3.0731 -0.6793
  172MOL0     H23210   3.617  10.430   6.766 -1.3101 -0.6972  0.1100
  172MOL0     H23211   3.768  10.350   6.717  0.4736  2.5377 -2.2313
  172MOL0     H23212   3.653  10.179   6.591  0.0457  0.3236 -0.2011
  172MOL0     H23213   3.557  10.322   6.571 -3.3298 -1.0139 -0.7387
  172MOL0     H23214   3.383  10.211   6.625  1.3813 -3.8260 -2.7088
  172MOL0     H23215   3.444  10.252   6.791  0.8382 -0.4910  0.2780
  172MOL0     H23216   3.559  10.024   6.797  0.8567 -4.8683 -1.2411
  172MOL0     H23217   3.508   9.991   6.642 -0.3765  1.9325 -1.6498
  172MOL0     H23218   3.154   9.884   6.844 -2.2631  1.7920 -0.3188
  172MOL0     H23219   3.729  10.136   7.087 -1.1857  0.6979 -1.5237
  172MOL0     H23220   3.915   9.990   7.122  5.3875  1.1696 -1.0449
  173MOL0     O23221   6.966   8.697   3.373  0.0133  0.3835  0.0579
  173MOL0     C23222   7.049   8.781   3.361  0.2198  0.3004 -0.2454
  173MOL0     O23223   7.103   8.832   3.241 -0.0888  0.2583  0.1751
  173MOL0     C23224   7.021   8.834   3.137  0.9506 -0.3113 -0.8589
  173MOL0     C23225   6.982   8.964   3.090 -0.3518 -0.6563 -0.2480
  173MOL0     C23226   6.898   8.986   2.979 -0.5313 -0.0662  0.9837
  173MOL0     C23227   6.835   8.872   2.927 -0.0590 -1.0218 -0.3405
  173MOL0     O23228   6.737   8.880   2.831 -0.8075  0.3269 -0.1108
  173MOL0     C23229   6.747   8.997   2.745 -0.3800  0.1233  0.1204
  173MOL0     C23230   6.670   8.960   2.613 -0.8823  1.0601 -1.0010
  173MOL0     C23231   6.539   8.893   2.624  0.8439  0.5078  0.8178
  173MOL0     C23232   6.544   8.738   2.640 -0.6510  0.3646  0.6104
  173MOL0     C23233   6.401   8.692   2.660  0.3349 -0.6639  0.0896
  173MOL0     C23234   6.420   8.538   2.693 -0.2488 -0.0660 -0.7618
  173MOL0     C23235   6.278   8.482   2.719  0.3702  0.0441  0.4266
  173MOL0     C23236   6.291   8.329   2.749 -0.0672  0.4880  0.1151
  173MOL0     N23237   6.163   8.264   2.802 -0.4755 -0.4296 -0.2532
  173MOL0     C23238   6.035   8.276   2.750  0.0095 -0.6164  0.2751
  173MOL0     C23239   5.966   8.213   2.847  0.4230 -0.4140  0.4039
  173MOL0     C23240   5.815   8.211   2.852 -0.9287 -0.1522  0.4068
  173MOL0     C23241   5.769   8.191   2.995 -0.7183  0.4719  0.8805
  173MOL0     C23242   5.790   8.300   3.098 -0.1857  1.0165 -0.7252
  173MOL0     C23243   5.717   8.425   3.060 -0.1447 -0.1188 -0.1154
  173MOL0     O23244   5.581   8.423   3.065  0.8516 -0.0078  0.6276
  173MOL0     C23245   5.494   8.519   3.021 -0.7183 -0.7339 -0.3505
  173MOL0     C23246   5.527   8.642   2.963 -0.4140  0.4852  0.2111
  173MOL0     C23247   5.428   8.729   2.917  0.3171 -0.1828  0.8335
  173MOL0     C23248   5.481   8.854   2.846  0.2805  0.1266 -0.1872
  173MOL0     C23249   5.295   8.699   2.940 -1.2074  0.0564 -0.1286
  173MOL0     C23250   5.200   8.802   2.918  0.1872 -0.3245  0.4354
  173MOL0     O23251   5.147   8.820   2.787 -0.7895  0.3391 -0.2348
  173MOL0     C23252   5.070   8.928   2.773 -0.6640 -0.2035 -0.1505
  173MOL0     C23253   5.121   9.055   2.809  0.1997  0.4157  0.3508
  173MOL0     C23254   5.048   9.169   2.786  0.9632 -0.2759  0.4709
  173MOL0     C23255   4.919   9.157   2.719 -0.7711 -0.0370 -0.1534
  173MOL0     O23256   4.837   9.258   2.675 -0.3018 -0.1162  0.5032
  173MOL0     C23257   4.905   9.357   2.602 -0.7992  0.6439  0.6693
  173MOL0     C23258   4.809   9.439   2.515 -0.8879  0.7210 -0.4706
  173MOL0     C23259   4.769   9.381   2.375  0.7365  0.3548 -1.3272
  173MOL0     C23260   4.885   9.345   2.284  0.3197  0.2711  0.2361
  173MOL0     C23261   4.838   9.231   2.189  0.2398  0.5148  0.4322
  173MOL0     C23262   4.952   9.152   2.114 -0.9501 -0.4575 -0.7620
  173MOL0     C23263   4.893   9.055   2.013 -0.0188 -0.6098  0.2705
  173MOL0     C23264   5.013   9.000   1.938 -0.1942 -0.0959 -1.0128
  173MOL0    Cl23265   4.946   8.896   1.801 -0.0448 -0.3908 -0.0597
  173MOL0     C23266   4.865   9.022   2.708  0.3818  0.2669 -0.5340
  173MOL0     C23267   4.941   8.914   2.732  0.0049 -0.3284 -1.0416
  173MOL0     O23268   5.172   8.869   3.013 -0.6574 -0.3563 -0.1040
  173MOL0     C23269   5.260   8.588   3.012  0.5750  1.2140 -0.7730
  173MOL0     C23270   5.360   8.492   3.059 -0.7260  0.2966  0.5919
  173MOL0     N23271   6.047   8.156   2.940  0.8709 -0.0384 -0.3033
  173MOL0     N23272   6.164   8.200   2.923 -0.0397 -0.0789  0.0543
  173MOL0     C23273   6.860   8.745   2.983  0.0619  0.2549  1.5515
  173MOL0     C23274   6.965   8.729   3.070 -0.3558  0.3077 -0.4417
  173MOL0     C23275   7.112   8.820   3.490 -0.4422  0.7604  0.6580
  173MOL0     C23276   7.090   8.756   3.614  0.7221  1.3648 -0.4670
  173MOL0     C23277   7.139   8.807   3.734 -0.4196  0.0861 -0.6600
  173MOL0     C23278   7.215   8.925   3.734 -0.2433 -1.4795  0.7746
  173MOL0     O23279   7.263   8.987   3.845  0.7519 -0.3374  0.2324
  173MOL0     C23280   7.230   8.935   3.978 -0.3961  0.4755  0.2444
  173MOL0     C23281   7.329   8.813   4.012  0.5399  1.4134  0.2098
  173MOL0     C23282   7.461   8.851   4.082  0.8070  1.4313  0.4597
  173MOL0     C23283   7.558   8.926   3.993 -0.8658  1.1586  0.0192
  173MOL0     C23284   7.663   8.954   4.091  0.1306 -0.3741  0.2318
  173MOL0     C23285   7.758   8.989   4.158  0.1241  0.1800 -0.5701
  173MOL0     C23286   7.251   8.980   3.608  0.1919 -0.2343 -0.4672
  173MOL0     C23287   7.212   8.922   3.482  0.7408  0.2770 -0.1861
  173MOL0     H23288   7.026   9.044   3.149  0.1849  1.1308 -2.9167
  173MOL0     H23289   6.872   9.086   2.947 -2.7910 -0.1815  2.2397
  173MOL0     H23290   6.713   9.084   2.802  0.9160 -0.9950  2.7603
  173MOL0     H23291   6.852   9.000   2.715 -0.3396 -2.5920 -0.2663
  173MOL0     H23292   6.637   9.046   2.554 -1.5006  2.1584  0.8602
  173MOL0     H23293   6.743   8.896   2.563 -1.4125 -1.1191  0.8529
  173MOL0     H23294   6.493   8.936   2.713  2.3703  0.4593  1.6556
  173MOL0     H23295   6.478   8.917   2.536 -3.6177 -1.9444  2.9006
  173MOL0     H23296   6.581   8.690   2.549 -2.0526  2.9337 -1.4574
  173MOL0     H23297   6.595   8.698   2.729  1.6257 -0.3359 -0.9171
  173MOL0     H23298   6.350   8.753   2.734 -0.4821 -0.0875 -0.9186
  173MOL0     H23299   6.339   8.716   2.573  1.8769  1.2334 -0.5443
  173MOL0     H23300   6.460   8.489   2.604  0.4009  0.8787 -1.0063
  173MOL0     H23301   6.484   8.518   2.780 -1.7361 -1.0598  0.1314
  173MOL0     H23302   6.231   8.537   2.801  1.7949  1.9409  0.0572
  173MOL0     H23303   6.216   8.502   2.631  3.2366  1.3748 -1.4397
  173MOL0     H23304   6.367   8.304   2.824  1.2077  0.2089 -1.2312
  173MOL0     H23305   6.323   8.270   2.663 -0.1892 -1.1251  1.1340
  173MOL0     H23306   6.003   8.333   2.664  3.4543  0.4225 -0.4642
  173MOL0     H23307   5.776   8.304   2.809  2.4094  1.2241  0.0232
  173MOL0     H23308   5.787   8.125   2.791 -2.1982 -0.5077  1.4616
  173MOL0     H23309   5.811   8.095   3.028  1.6022  1.4551  0.9312
  173MOL0     H23310   5.660   8.175   2.999 -0.3922 -2.7617 -0.0527
  173MOL0     H23311   5.897   8.326   3.097 -0.1558  1.1145  1.2429
  173MOL0     H23312   5.769   8.264   3.199  1.9062 -0.9997 -0.9197
  173MOL0     H23313   5.752   8.438   2.957 -0.3841 -1.8690 -0.4555
  173MOL0     H23314   5.765   8.505   3.116 -1.9688 -0.7313  2.5057
  173MOL0     H23315   5.633   8.662   2.947 -0.9082  2.5598 -0.8502
  173MOL0     H23316   5.503   8.933   2.918 -1.4663 -1.2128  1.9565
  173MOL0     H23317   5.579   8.840   2.799 -0.2996 -0.2439 -1.3172
  173MOL0     H23318   5.407   8.881   2.771 -1.3510  0.3059  1.4077
  173MOL0     H23319   5.226   9.071   2.828  0.2584  4.0557 -1.9296
  173MOL0     H23320   5.097   9.265   2.800  0.1252  0.2934 -0.3522
  173MOL0     H23321   4.960   9.418   2.674  0.2436 -2.3133  2.5706
  173MOL0     H23322   4.971   9.300   2.535 -4.1193 -4.2285  1.0189
  173MOL0     H23323   4.720   9.449   2.579  0.1360  0.5901  1.0208
  173MOL0     H23324   4.855   9.537   2.497 -0.7165  1.5768  3.6266
  173MOL0     H23325   4.717   9.460   2.319  1.8700  0.7557 -1.8335
  173MOL0     H23326   4.704   9.294   2.385  2.6895 -1.2920 -2.3154
  173MOL0     H23327   4.903   9.432   2.221 -0.6950  1.9777  2.1643
  173MOL0     H23328   4.975   9.314   2.339 -1.9981 -2.0602  3.1133
  173MOL0     H23329   4.781   9.281   2.110 -0.0760  0.4228  0.5990
  173MOL0     H23330   4.770   9.168   2.249 -0.4956  2.1098  1.3585
  173MOL0     H23331   5.006   9.228   2.058  0.1047 -1.7973 -1.6449
  173MOL0     H23332   5.016   9.097   2.183  0.1411  2.3504  0.5771
  173MOL0     H23333   4.823   9.106   1.946  1.4653  1.6171  0.3141
  173MOL0     H23334   4.849   8.968   2.063 -2.2809  0.7121  0.7189
  173MOL0     H23335   5.071   8.943   2.011 -2.7952 -1.9864 -0.2862
  173MOL0     H23336   5.071   9.086   1.904 -0.2345  0.0391 -0.7411
  173MOL0     H23337   4.763   9.002   2.677  0.2856 -2.1079  1.0201
  173MOL0     H23338   4.912   8.810   2.716  2.3747 -0.8255 -2.6678
  173MOL0     H23339   5.160   8.566   3.046  0.8427 -1.4000 -1.5045
  173MOL0     H23340   5.336   8.415   3.132 -3.0917  1.8773  1.6353
  173MOL0     H23341   6.813   8.652   2.954  0.9756 -0.8431  3.3466
  173MOL0     H23342   6.997   8.629   3.099  1.5575  0.9325 -0.2239
  173MOL0     H23343   7.008   8.686   3.627 -2.3180  4.8728  1.2529
  173MOL0     H23344   7.121   8.765   3.833 -1.5700  0.3216 -0.7590
  173MOL0     H23345   7.247   9.011   4.055  1.3756 -1.9519  2.4137
  173MOL0     H23346   7.128   8.901   3.995  0.3549 -1.0034  2.1899
  173MOL0     H23347   7.352   8.748   3.927  1.0424  2.1002 -0.1924
  173MOL0     H23348   7.289   8.745   4.088  4.3422  0.7503  1.8119
  173MOL0     H23349   7.505   8.761   4.126  1.3825  0.4103 -2.0150
  173MOL0     H23350   7.433   8.929   4.153 -1.5564  2.9376 -1.9251
  173MOL0     H23351   7.529   9.027   3.960 -1.6372  0.7122 -0.7007
  173MOL0     H23352   7.596   8.868   3.908  0.7674 -1.2299  2.2413
  173MOL0     H23353   7.838   9.012   4.225  0.7133 -2.6939 -0.1421
  173MOL0     H23354   7.309   9.071   3.618 -1.2450  0.5836  0.9286
  173MOL0     H23355   7.241   8.950   3.381 -0.2729  0.5694 -0.4083
  174MOL0     O23356   1.443   3.658   0.699 -0.4861 -0.1786  0.1022
  174MOL0     C23357   1.346   3.597   0.755  0.3050 -0.0555 -0.6595
  174MOL0     O23358   1.219   3.644   0.771  0.8166  0.3476  0.2043
  174MOL0     C23359   1.175   3.774   0.757 -1.0227  0.5471 -0.4884
  174MOL0     C23360   1.202   3.846   0.643 -0.6372 -0.2402  0.1183
  174MOL0     C23361   1.141   3.966   0.608 -0.6665 -0.2740  0.5763
  174MOL0     C23362   1.045   4.016   0.691 -0.9960 -0.4393 -0.3651
  174MOL0     O23363   0.968   4.123   0.674  0.4353 -1.0210  0.7711
  174MOL0     C23364   0.958   4.165   0.536  0.5701 -0.6454  0.8833
  174MOL0     C23365   0.869   4.298   0.540 -0.4089  0.6594  0.0458
  174MOL0     C23366   0.952   4.412   0.604 -0.4396  0.2742  0.5012
  174MOL0     C23367   0.876   4.536   0.611  0.3033 -0.5065  0.0919
  174MOL0     C23368   0.963   4.662   0.619 -0.6234 -0.6127  0.1835
  174MOL0     C23369   1.043   4.671   0.746 -0.6710  0.2356 -0.5579
  174MOL0     C23370   1.162   4.762   0.736 -0.2753  0.7668 -0.9099
  174MOL0     C23371   1.256   4.745   0.871 -0.7792 -0.1731  1.6567
  174MOL0     N23372   1.336   4.616   0.878  0.3502 -0.2534  0.3621
  174MOL0     C23373   1.282   4.496   0.909 -0.1087 -0.3810 -0.5868
  174MOL0     C23374   1.379   4.407   0.869 -0.4923 -0.4721 -0.2139
  174MOL0     C23375   1.364   4.257   0.887 -0.1589 -0.0634 -0.5608
  174MOL0     C23376   1.484   4.198   0.961  0.0076  0.4229 -0.4267
  174MOL0     C23377   1.520   4.059   0.913 -0.2942 -0.2869  0.1510
  174MOL0     C23378   1.432   3.950   0.949 -0.0504  0.2065 -0.5157
  174MOL0     O23379   1.435   3.906   1.087  0.1144 -0.4831  0.2146
  174MOL0     C23380   1.504   3.792   1.122 -0.9238  0.2394 -1.3531
  174MOL0     C23381   1.528   3.771   1.263 -0.0729 -0.0379 -0.1260
  174MOL0     C23382   1.594   3.650   1.313  0.2131  0.3047  0.0204
  174MOL0     C23383   1.572   3.623   1.459 -0.1918  0.5803  0.3882
  174MOL0     C23384   1.660   3.562   1.224  0.2494 -0.1128  0.1409
  174MOL0     C23385   1.734   3.440   1.267 -0.2972  1.0959  0.4376
  174MOL0     O23386   1.810   3.380   1.168  0.0888  0.1195 -0.8039
  174MOL0     C23387   1.859   3.252   1.180  0.4236 -0.2954  0.6286
  174MOL0     C23388   1.782   3.136   1.161 -0.1854 -0.7267  0.3612
  174MOL0     C23389   1.842   3.004   1.144 -1.0665 -0.1621 -0.9107
  174MOL0     C23390   1.980   2.993   1.165  0.0291 -1.2134 -0.0887
  174MOL0     O23391   2.039   2.879   1.122  0.6671  0.1973  0.3758
  174MOL0     C23392   2.178   2.860   1.136  0.2936 -0.3667  0.0824
  174MOL0     C23393   2.222   2.820   1.267  0.0418  0.2923  0.0322
  174MOL0     C23394   2.193   2.668   1.290 -0.1506  0.2967 -0.0260
  174MOL0     C23395   2.233   2.610   1.424 -0.3537 -0.0693 -0.1708
  174MOL0     C23396   2.223   2.458   1.422  0.2965 -0.4080  0.3389
  174MOL0     C23397   2.084   2.415   1.484  0.0111  0.9008  0.8388
  174MOL0     C23398   2.059   2.255   1.477  0.1993 -0.5078  0.6954
  174MOL0     C23399   1.913   2.212   1.461 -0.1383  0.1969 -0.6078
  174MOL0    Cl23400   1.814   2.264   1.603 -0.0485  0.4198 -0.0413
  174MOL0     C23401   2.059   3.108   1.205 -0.1387  0.5819  0.5556
  174MOL0     C23402   1.996   3.232   1.208 -0.6142  0.4693 -0.3443
  174MOL0     O23403   1.720   3.390   1.378  0.0625  0.0663  0.2768
  174MOL0     C23404   1.647   3.592   1.081 -0.6425 -0.1750 -0.5176
  174MOL0     C23405   1.560   3.695   1.034 -1.0859  0.2172 -0.5984
  174MOL0     N23406   1.483   4.480   0.808  0.7407 -0.1417 -0.3821
  174MOL0     N23407   1.457   4.608   0.818 -0.2830  0.2949 -0.2547
  174MOL0     C23408   1.012   3.942   0.814  0.0215  0.4418  0.0217
  174MOL0     C23409   1.080   3.821   0.848 -0.1957 -0.7718  0.1578
  174MOL0     C23410   1.371   3.456   0.803 -0.7375  0.7267 -0.8448
  174MOL0     C23411   1.285   3.398   0.902  0.3509 -0.5081  0.3705
  174MOL0     C23412   1.305   3.271   0.942  0.7060  0.2878 -0.5786
  174MOL0     C23413   1.407   3.185   0.896 -0.9335  0.3196  0.0382
  174MOL0     O23414   1.412   3.059   0.953  0.2077  0.3136  0.5275
  174MOL0     C23415   1.511   2.970   0.920 -0.2616  0.1804  0.3187
  174MOL0     C23416   1.498   2.860   1.021  0.0689  0.8148 -0.7080
  174MOL0     C23417   1.371   2.775   0.990 -0.2712 -0.4213 -0.2799
  174MOL0     C23418   1.394   2.634   1.058  0.6169  0.2742  0.7203
  174MOL0     C23419   1.266   2.557   1.030 -0.1386 -0.2352 -0.5100
  174MOL0     C23420   1.174   2.487   0.991 -0.4563 -0.0494 -0.3920
  174MOL0     C23421   1.504   3.244   0.805  0.4516 -0.9133 -0.1529
  174MOL0     C23422   1.481   3.374   0.761  0.2779 -0.3146  0.0638
  174MOL0     H23423   1.254   3.805   0.557  0.0058  0.7453  0.0254
  174MOL0     H23424   1.160   4.021   0.517  0.6873 -0.5425  0.6680
  174MOL0     H23425   1.054   4.198   0.496  0.0873 -1.0234 -0.6869
  174MOL0     H23426   0.909   4.084   0.480  0.5745 -0.1467  0.1385
  174MOL0     H23427   0.852   4.322   0.434  0.3965 -0.9411 -0.4876
  174MOL0     H23428   0.775   4.283   0.593 -0.4417 -1.7090 -0.5504
  174MOL0     H23429   0.967   4.388   0.710 -0.3406 -0.3210  0.3565
  174MOL0     H23430   1.045   4.418   0.547 -1.5236  0.9883 -1.2876
  174MOL0     H23431   0.814   4.538   0.521  2.4768 -0.8372 -1.5028
  174MOL0     H23432   0.804   4.549   0.693  1.0101 -1.8906  0.9739
  174MOL0     H23433   1.030   4.665   0.532 -2.6446 -3.6845 -1.6962
  174MOL0     H23434   0.894   4.747   0.614  0.6877  0.4371 -0.8627
  174MOL0     H23435   0.971   4.687   0.827  0.5565 -1.0863  0.8576
  174MOL0     H23436   1.083   4.571   0.763  0.0698  0.6724  0.3528
  174MOL0     H23437   1.222   4.742   0.646  0.9657  3.3263 -0.7592
  174MOL0     H23438   1.125   4.865   0.744  0.2442  0.9382 -0.6352
  174MOL0     H23439   1.188   4.750   0.957 -0.1723  0.2701  2.1233
  174MOL0     H23440   1.326   4.829   0.876  0.8903 -1.2920 -0.8041
  174MOL0     H23441   1.182   4.472   0.944 -1.0038 -0.0676 -2.8277
  174MOL0     H23442   1.278   4.234   0.951  1.2804 -1.6025  0.9633
  174MOL0     H23443   1.352   4.202   0.793 -1.4252 -0.0025 -0.4430
  174MOL0     H23444   1.471   4.189   1.069  2.5543  0.7902 -0.0247
  174MOL0     H23445   1.575   4.257   0.949  1.0554 -0.7616  1.2559
  174MOL0     H23446   1.618   4.031   0.952  0.3708 -2.0375 -2.5124
  174MOL0     H23447   1.530   4.052   0.804 -0.1439  1.4519  0.0262
  174MOL0     H23448   1.450   3.862   0.887 -4.1615 -1.6893  0.6438
  174MOL0     H23449   1.330   3.979   0.920  1.2016  2.4332 -3.2176
  174MOL0     H23450   1.484   3.846   1.328  2.9330  2.1682 -0.3993
  174MOL0     H23451   1.666   3.595   1.507  0.0531  1.0033  0.1627
  174MOL0     H23452   1.525   3.704   1.515  0.0823  1.5335 -0.7103
  174MOL0     H23453   1.505   3.538   1.474  2.9470 -2.5313 -1.6557
  174MOL0     H23454   1.677   3.152   1.137 -0.5437  0.6718  2.5456
  174MOL0     H23455   1.782   2.921   1.108 -0.6172 -0.7136 -0.4058
  174MOL0     H23456   2.204   2.776   1.071  0.2931 -0.1688 -0.1721
  174MOL0     H23457   2.237   2.941   1.092  0.5332 -1.8577 -2.5778
  174MOL0     H23458   2.329   2.842   1.270 -0.3695  2.3532  0.7574
  174MOL0     H23459   2.182   2.875   1.352  3.5383 -0.1403  2.1731
  174MOL0     H23460   2.250   2.609   1.217 -0.6806 -2.9602  1.9737
  174MOL0     H23461   2.087   2.644   1.276  0.5891 -2.6564 -1.3692
  174MOL0     H23462   2.337   2.640   1.437 -0.6442  0.1061  2.1959
  174MOL0     H23463   2.189   2.657   1.512  1.3822 -0.7614  1.1282
  174MOL0     H23464   2.301   2.415   1.486  1.1839  0.6938  0.0344
  174MOL0     H23465   2.227   2.415   1.322  2.3794  0.9812 -0.2346
  174MOL0     H23466   2.090   2.450   1.588  0.5986 -0.8107  1.4161
  174MOL0     H23467   1.994   2.467   1.451 -0.2842 -0.0011  0.1848
  174MOL0     H23468   2.092   2.198   1.564  4.0012  1.0086  0.4558
  174MOL0     H23469   2.121   2.212   1.398 -1.5959  0.2812 -1.2453
  174MOL0     H23470   1.908   2.103   1.451 -1.5065  0.3837 -2.6655
  174MOL0     H23471   1.854   2.241   1.373 -2.2393 -2.6493 -0.2962
  174MOL0     H23472   2.163   3.105   1.236 -0.8414  0.7178  3.1214
  174MOL0     H23473   2.057   3.316   1.241  0.8389 -0.5582 -0.3034
  174MOL0     H23474   1.691   3.527   1.006  2.4647 -0.7640  1.6081
  174MOL0     H23475   1.546   3.700   0.926 -0.4199  0.6733 -0.6683
  174MOL0     H23476   0.945   3.983   0.888  0.7738  3.8806 -1.0224
  174MOL0     H23477   1.062   3.782   0.948 -0.4888  2.7513  1.6441
  174MOL0     H23478   1.209   3.463   0.944 -0.3479 -1.2040  0.1909
  174MOL0     H23479   1.239   3.232   1.020 -0.5480  1.7794 -0.8461
  174MOL0     H23480   1.487   2.925   0.823 -1.1831  0.0608  0.5967
  174MOL0     H23481   1.611   3.012   0.907 -0.2885 -0.4883 -2.6191
  174MOL0     H23482   1.494   2.883   1.128  0.9755  1.3121 -0.7704
  174MOL0     H23483   1.585   2.794   1.011  0.9725  1.9644 -0.5994
  174MOL0     H23484   1.355   2.767   0.882 -1.8618  0.7490 -0.1482
  174MOL0     H23485   1.282   2.822   1.031 -2.0882 -2.4089 -1.7134
  174MOL0     H23486   1.397   2.648   1.166  1.4196 -1.2176  0.9144
  174MOL0     H23487   1.486   2.579   1.039  0.0127 -0.8251  0.9103
  174MOL0     H23488   1.092   2.437   0.943 -0.3003 -1.7384  0.9906
  174MOL0     H23489   1.586   3.182   0.768 -0.5462 -1.2520 -1.9399
  174MOL0     H23490   1.553   3.418   0.693 -1.6313  0.4947 -1.5466
  175MOL0     O23491   0.673  10.086   0.603 -0.6081 -0.2797  1.0102
  175MOL0     C23492   0.575  10.155   0.566 -1.1930 -0.6117 -0.1948
  175MOL0     O23493   0.503  10.241   0.646  0.4626  0.3630  0.3145
  175MOL0     C23494   0.552  10.253   0.771  0.4964  0.6364 -0.0873
  175MOL0     C23495   0.499  10.168   0.877 -0.9363 -0.8173 -0.6518
  175MOL0     C23496   0.532  10.189   1.007  0.2952 -0.3377 -0.8085
  175MOL0     C23497   0.612  10.291   1.048  0.2397 -0.0892  0.3094
  175MOL0     O23498   0.618  10.312   1.187 -0.1641 -0.4467  1.3365
  175MOL0     C23499   0.741  10.365   1.240  0.0881 -1.0084  0.1347
  175MOL0     C23500   0.779  10.322   1.384  0.0051 -0.0131  0.1438
  175MOL0     C23501   0.804  10.174   1.389 -0.3460  1.2843 -0.3762
  175MOL0     C23502   0.844  10.132   1.537  0.1740 -0.1793  0.0305
  175MOL0     C23503   0.919  10.001   1.545 -0.0636 -0.0365  1.0709
  175MOL0     C23504   0.941   9.969   1.696  0.6271  0.9242  0.3559
  175MOL0     C23505   0.993   9.828   1.699 -0.5389  0.1393  0.4385
  175MOL0     C23506   1.021   9.774   1.837 -0.6109 -0.2150  0.0521
  175MOL0     N23507   0.907   9.780   1.916  1.0876 -0.2810  0.1081
  175MOL0     C23508   0.786   9.706   1.902 -0.1821  0.7022 -1.0554
  175MOL0     C23509   0.705   9.742   2.001  0.5938  0.3508 -0.1901
  175MOL0     C23510   0.558   9.686   2.033 -1.2003  0.3286 -0.7137
  175MOL0     C23511   0.552   9.541   1.986  0.2534  0.6057 -0.3402
  175MOL0     C23512   0.422   9.470   2.006  0.0705 -0.0832  0.2074
  175MOL0     C23513   0.353   9.507   2.144  0.2052  0.2543 -0.8660
  175MOL0     O23514   0.446   9.456   2.246  0.9200 -0.6410 -0.0990
  175MOL0     C23515   0.392   9.416   2.365  0.4630  0.3691  0.1930
  175MOL0     C23516   0.345   9.284   2.388  0.7174  0.2056 -0.0969
  175MOL0     C23517   0.286   9.237   2.508 -0.6231  0.4538  0.1199
  175MOL0     C23518   0.232   9.091   2.508  0.1207 -0.4841  1.0601
  175MOL0     C23519   0.286   9.326   2.622 -0.1948  0.1690 -0.6050
  175MOL0     C23520   0.223   9.289   2.752 -0.2854  0.0799 -0.2250
  175MOL0     O23521   0.199   9.396   2.833  0.1604 -0.4772 -1.0829
  175MOL0     C23522   0.158   9.366   2.955  0.0620  0.0420  0.0613
  175MOL0     C23523   0.023   9.331   2.977  0.3344  0.2049  0.4668
  175MOL0     C23524  -0.014   9.306   3.105  0.5516  0.0084  0.2621
  175MOL0     C23525   0.072   9.291   3.210 -0.5893 -0.0785 -1.1948
  175MOL0     O23526   0.032   9.277   3.338  0.0791  0.7674 -0.4922
  175MOL0     C23527  -0.037   9.387   3.398 -0.0783  0.3409  0.2240
  175MOL0     C23528  -0.048   9.359   3.545  0.4070 -0.3535  0.3927
  175MOL0     C23529  -0.129   9.230   3.577 -0.5248 -0.2429  0.0868
  175MOL0     C23530  -0.165   9.235   3.728  1.7184 -1.0508  0.3465
  175MOL0     C23531  -0.307   9.296   3.743  0.0729 -0.2209  0.1050
  175MOL0     C23532  -0.361   9.252   3.885 -0.0419 -0.2463  0.8419
  175MOL0     C23533  -0.488   9.341   3.927 -0.4586  0.4160 -0.0558
  175MOL0     C23534  -0.621   9.257   3.920 -0.6193  0.3793 -0.2606
  175MOL0    Cl23535  -0.636   9.199   3.757  0.3702 -0.1750  0.0917
  175MOL0     C23536   0.207   9.314   3.180  0.2406  0.5674  0.0304
  175MOL0     C23537   0.251   9.341   3.052  0.7287  0.0488 -0.7248
  175MOL0     O23538   0.232   9.173   2.789 -0.8472  0.3159  0.6620
  175MOL0     C23539   0.354   9.443   2.603  0.3514 -1.2527  0.4265
  175MOL0     C23540   0.402   9.492   2.483  0.3476 -0.5094 -0.0256
  175MOL0     N23541   0.769   9.834   2.075  0.1946  0.3127 -0.2694
  175MOL0     N23542   0.887   9.858   2.022 -0.2234  0.3209 -0.2305
  175MOL0     C23543   0.676  10.368   0.948 -0.1902  0.3778  0.1851
  175MOL0     C23544   0.654  10.341   0.813 -0.3933 -0.5057 -0.5481
  175MOL0     C23545   0.519  10.150   0.430  0.5541 -0.6968  1.1132
  175MOL0     C23546   0.596  10.092   0.328  1.3284  0.1765  0.4594
  175MOL0     C23547   0.547  10.090   0.192 -0.9132 -0.4434  0.3702
  175MOL0     C23548   0.424  10.125   0.161  1.1252 -0.3712 -0.7187
  175MOL0     O23549   0.387  10.092   0.032  0.3350 -0.5080  0.0996
  175MOL0     C23550   0.258  10.117  -0.014  0.2942  0.3062 -0.0588
  175MOL0     C23551   0.154  10.018   0.055 -0.2863 -0.2555 -0.4767
  175MOL0     C23552   0.015  10.039  -0.014 -0.1149 -0.0205 -0.4261
  175MOL0     C23553  -0.059  10.163   0.034  0.3900  0.0050 -0.1248
  175MOL0     C23554  -0.094  10.260  -0.075 -1.0907 -0.6888 -1.0050
  175MOL0     C23555  -0.103  10.354  -0.142  0.3206 -0.8786  1.0727
  175MOL0     C23556   0.345  10.190   0.266 -0.2322  0.4424  0.4314
  175MOL0     C23557   0.390  10.206   0.399 -0.3066 -0.0456 -0.2170
  175MOL0     H23558   0.416  10.100   0.861 -0.3056 -2.3475  2.0736
  175MOL0     H23559   0.485  10.129   1.085 -0.5355  0.2187 -0.8656
  175MOL0     H23560   0.826  10.347   1.173  0.6676  0.9743  0.2586
  175MOL0     H23561   0.727  10.473   1.252 -1.2294 -1.0332 -0.9573
  175MOL0     H23562   0.868  10.379   1.413 -0.7297  0.3051  1.8741
  175MOL0     H23563   0.696  10.356   1.445  2.1355  2.4840  1.8817
  175MOL0     H23564   0.710  10.126   1.360  0.6557 -0.2690 -1.2292
  175MOL0     H23565   0.882  10.154   1.314  0.4789  1.9994  0.2703
  175MOL0     H23566   0.912  10.213   1.562  0.9518 -0.9153  0.3657
  175MOL0     H23567   0.752  10.134   1.597 -0.0421  0.3143 -0.3196
  175MOL0     H23568   0.867   9.922   1.490  0.7100  0.4735 -0.4629
  175MOL0     H23569   1.018  10.020   1.503  1.8290 -0.9426  4.7233
  175MOL0     H23570   1.005  10.042   1.746  0.8359  1.0141 -0.0331
  175MOL0     H23571   0.841   9.961   1.738  0.0300 -2.5366 -1.2945
  175MOL0     H23572   0.925   9.755   1.655 -0.5212 -0.0028  0.6469
  175MOL0     H23573   1.080   9.812   1.635 -0.1787  0.8415  0.7435
  175MOL0     H23574   1.099   9.823   1.896 -1.5325  0.2321  0.9221
  175MOL0     H23575   1.044   9.667   1.835 -0.5417 -0.3130  2.5805
  175MOL0     H23576   0.762   9.630   1.828 -2.1070  1.7735 -1.5951
  175MOL0     H23577   0.551   9.692   2.142  1.6535 -3.3634 -0.1282
  175MOL0     H23578   0.489   9.749   1.976 -1.4566 -2.4843 -3.8093
  175MOL0     H23579   0.634   9.499   2.045  2.4373  2.1397 -2.0988
  175MOL0     H23580   0.583   9.532   1.881  1.6411  0.7898  0.0355
  175MOL0     H23581   0.453   9.365   2.006 -0.9870 -0.4171 -0.0959
  175MOL0     H23582   0.358   9.491   1.920  1.5701  3.0651 -0.2489
  175MOL0     H23583   0.262   9.447   2.152  0.4871  0.0272  1.0685
  175MOL0     H23584   0.325   9.611   2.160 -0.7388 -0.0776 -0.2731
  175MOL0     H23585   0.343   9.222   2.299 -1.6297 -1.6764  1.1648
  175MOL0     H23586   0.132   9.091   2.551 -1.2877  0.0138 -1.9329
  175MOL0     H23587   0.226   9.058   2.403  0.5589 -1.9227  1.4674
  175MOL0     H23588   0.308   9.024   2.547  1.8653 -1.6079 -3.5396
  175MOL0     H23589  -0.059   9.315   2.907 -0.1473 -1.9470  1.4324
  175MOL0     H23590  -0.120   9.294   3.127  0.0040  1.2260 -1.5026
  175MOL0     H23591   0.027   9.475   3.386  0.8230 -0.0472  1.8815
  175MOL0     H23592  -0.135   9.402   3.351 -1.2539 -3.3287  1.1649
  175MOL0     H23593   0.054   9.353   3.583  0.5104 -0.0284  0.1683
  175MOL0     H23594  -0.109   9.436   3.594 -2.2215 -0.2436 -2.7191
  175MOL0     H23595  -0.075   9.136   3.568 -2.9578 -2.0537  2.6162
  175MOL0     H23596  -0.225   9.240   3.525 -1.5037 -0.6933  1.7303
  175MOL0     H23597  -0.171   9.128   3.753 -0.8905 -0.8404  0.8939
  175MOL0     H23598  -0.089   9.288   3.785  0.4108  2.8417 -1.1992
  175MOL0     H23599  -0.381   9.259   3.671 -0.6948 -1.6678  1.5625
  175MOL0     H23600  -0.300   9.404   3.729 -1.5419 -0.1261 -0.2100
  175MOL0     H23601  -0.379   9.145   3.898 -0.3936 -0.1659  1.0319
  175MOL0     H23602  -0.274   9.288   3.942  0.1257  1.2949 -0.3316
  175MOL0     H23603  -0.504   9.428   3.863 -3.5021 -0.0404 -0.0519
  175MOL0     H23604  -0.464   9.360   4.032  1.4733 -2.3432  0.1213
  175MOL0     H23605  -0.703   9.324   3.948 -0.7661 -0.2653  0.8989
  175MOL0     H23606  -0.616   9.176   3.993  0.7522  1.7720  1.2751
  175MOL0     H23607   0.277   9.312   3.263  0.7391  3.7419 -0.1739
  175MOL0     H23608   0.357   9.352   3.034  1.1736 -1.6520  0.5407
  175MOL0     H23609   0.362   9.510   2.688 -0.3055 -0.6866  0.0531
  175MOL0     H23610   0.441   9.593   2.479 -2.9256  0.8541 -1.2801
  175MOL0     H23611   0.742  10.450   0.971  1.0753 -1.0295  1.8111
  175MOL0     H23612   0.702  10.393   0.730 -0.8380 -0.3112 -0.6867
  175MOL0     H23613   0.695  10.048   0.337  1.7791  1.2541  0.9153
  175MOL0     H23614   0.601  10.049   0.108 -1.4132 -2.0229  0.7927
  175MOL0     H23615   0.233  10.218   0.019 -0.2150 -0.0862  0.8245
  175MOL0     H23616   0.251  10.107  -0.123  2.5867  0.7256 -0.2844
  175MOL0     H23617   0.150  10.038   0.162 -2.2415 -0.7377 -0.4226
  175MOL0     H23618   0.183   9.913   0.046  2.4975  0.3435  0.5960
  175MOL0     H23619  -0.041   9.950   0.014  0.6471  0.1158  1.8078
  175MOL0     H23620   0.029  10.039  -0.122 -1.8940  0.1419 -0.6886
  175MOL0     H23621   0.011  10.216   0.100 -0.7759  1.1803  0.2022
  175MOL0     H23622  -0.143  10.132   0.097  0.4816  1.1875  0.6127
  175MOL0     H23623  -0.083  10.436  -0.208 -1.4361 -1.5352 -0.3241
  175MOL0     H23624   0.245  10.219   0.234 -0.1455  0.8538  0.5359
  175MOL0     H23625   0.328  10.251   0.476  0.7005  1.5178 -0.2765
  176MOL0     O23626   6.757   4.818  10.966  0.5014  0.0023 -0.5012
  176MOL0     C23627   6.769   4.741  11.070 -0.1521 -0.6749 -0.1516
  176MOL0     O23628   6.769   4.785  11.198  0.3368 -0.3554 -0.0288
  176MOL0     C23629   6.804   4.916  11.224  0.2915 -0.3003  0.6715
  176MOL0     C23630   6.922   4.938  11.294  0.0108 -0.3120  0.6305
  176MOL0     C23631   6.959   5.077  11.311  0.5879 -0.0896 -0.5181
  176MOL0     C23632   6.873   5.181  11.276 -0.2149 -0.3573 -0.5676
  176MOL0     O23633   6.920   5.312  11.287  0.2043 -0.1990 -0.9854
  176MOL0     C23634   7.016   5.354  11.380  0.5959  0.3126 -0.6895
  176MOL0     C23635   7.012   5.515  11.403  0.3655  0.0781  0.1782
  176MOL0     C23636   7.135   5.565  11.480  0.1210  0.6763 -0.1488
  176MOL0     C23637   7.139   5.714  11.500  0.1903  0.1237  1.0330
  176MOL0     C23638   7.030   5.762  11.598 -1.0334 -0.6470 -0.8538
  176MOL0     C23639   7.045   5.905  11.646  0.2493  0.7127 -0.1545
  176MOL0     C23640   7.135   5.920  11.768 -0.6976  0.4401 -0.7951
  176MOL0     C23641   7.099   6.037  11.867  0.3916 -0.1836  0.3897
  176MOL0     N23642   7.065   6.157  11.789  0.3629 -0.1288 -0.7157
  176MOL0     C23643   7.138   6.229  11.698  0.3056 -0.6974 -0.3557
  176MOL0     C23644   7.054   6.329  11.665 -0.5588  0.2553  0.9346
  176MOL0     C23645   7.118   6.454  11.605 -0.0088 -0.4699 -0.3584
  176MOL0     C23646   7.034   6.557  11.545 -0.4983 -0.6215  0.0519
  176MOL0     C23647   7.100   6.616  11.420  0.5021 -0.5113  0.8294
  176MOL0     C23648   7.008   6.704  11.331  0.3473 -0.6990 -0.3597
  176MOL0     O23649   6.875   6.650  11.324  0.1804 -1.0210  0.3939
  176MOL0     C23650   6.764   6.712  11.362 -0.0579  0.1429  0.6567
  176MOL0     C23651   6.668   6.636  11.431 -0.6815 -0.4648  1.0354
  176MOL0     C23652   6.551   6.678  11.479 -0.4842  1.1149 -1.4602
  176MOL0     C23653   6.483   6.573  11.563  0.0003 -0.9961 -0.4483
  176MOL0     C23654   6.523   6.812  11.460 -0.7938  1.3139 -0.7388
  176MOL0     C23655   6.410   6.875  11.510  0.0622 -0.4574  0.2173
  176MOL0     O23656   6.305   6.801  11.553 -1.1932  0.1374 -0.0612
  176MOL0     C23657   6.182   6.864  11.550 -0.2148  0.2150  0.8868
  176MOL0     C23658   6.117   6.890  11.424 -0.4585  0.3857 -0.6493
  176MOL0     C23659   6.002   6.969  11.429 -0.0875 -0.0113  0.7420
  176MOL0     C23660   5.947   7.024  11.544 -0.0832  0.0881 -0.2736
  176MOL0     O23661   5.828   7.102  11.521  0.1281  0.2931 -0.3016
  176MOL0     C23662   5.766   7.180  11.630 -0.6010  0.4294  0.9202
  176MOL0     C23663   5.854   7.311  11.639  0.0054 -0.6767 -0.2423
  176MOL0     C23664   5.832   7.391  11.516 -0.4931 -0.3462  0.4604
  176MOL0     C23665   5.887   7.534  11.511  0.7279  0.3744 -0.6296
  176MOL0     C23666   5.798   7.618  11.598  0.2346 -0.5998  0.6564
  176MOL0     C23667   5.832   7.766  11.582 -0.6998  0.2518  0.3039
  176MOL0     C23668   5.726   7.855  11.657  0.5082 -0.4579  0.1510
  176MOL0     C23669   5.807   7.972  11.709 -0.1879 -0.0758  1.2283
  176MOL0    Cl23670   5.899   7.913  11.844 -0.4913 -0.2399  0.0664
  176MOL0     C23671   6.001   6.994  11.669 -0.0644 -0.4269 -0.6184
  176MOL0     C23672   6.114   6.912  11.668  0.0239  0.4129  0.5239
  176MOL0     O23673   6.416   6.999  11.509  0.0714  0.4369 -0.7477
  176MOL0     C23674   6.618   6.898  11.399  0.3071  0.5377 -0.4203
  176MOL0     C23675   6.732   6.846  11.342 -0.1664  0.4327  0.6461
  176MOL0     N23676   6.937   6.318  11.730 -0.3425 -0.2424  0.1295
  176MOL0     N23677   6.943   6.213  11.797  0.1790 -0.0041  0.2633
  176MOL0     C23678   6.760   5.154  11.205 -0.0709  0.8887 -0.3658
  176MOL0     C23679   6.719   5.020  11.179 -0.2999 -0.1620 -0.8286
  176MOL0     C23680   6.764   4.598  11.039 -0.1835  0.0276  0.2972
  176MOL0     C23681   6.767   4.514  11.141 -0.2632  0.2658 -0.1602
  176MOL0     C23682   6.740   4.378  11.122  0.4468  0.3812 -1.4640
  176MOL0     C23683   6.704   4.327  10.996 -0.0252  0.8752  0.2467
  176MOL0     O23684   6.679   4.191  10.986 -0.5581 -0.1100  0.3583
  176MOL0     C23685   6.609   4.131  10.867 -0.4757  0.5854  0.1943
  176MOL0     C23686   6.650   3.983  10.855 -0.0920  0.2984  0.9542
  176MOL0     C23687   6.569   3.892  10.946 -0.2702 -0.2632  0.0550
  176MOL0     C23688   6.598   3.744  10.911  0.6366 -0.7803 -0.6646
  176MOL0     C23689   6.719   3.697  10.984  0.6150  0.3681  0.4297
  176MOL0     C23690   6.825   3.663  11.031  0.7556 -0.3798 -0.5684
  176MOL0     C23691   6.706   4.419  10.890 -0.0865  0.6251 -0.3208
  176MOL0     C23692   6.733   4.557  10.914 -0.0436  0.2926 -0.1394
  176MOL0     H23693   6.976   4.848  11.321 -0.3185 -0.0986  2.0589
  176MOL0     H23694   7.065   5.082  11.334  0.8903  1.2622 -1.9760
  176MOL0     H23695   6.985   5.307  11.474 -1.0825  3.7907  0.6700
  176MOL0     H23696   7.114   5.319  11.346  1.1702  4.4794 -4.1928
  176MOL0     H23697   7.004   5.566  11.306 -1.0258 -0.6996 -0.1504
  176MOL0     H23698   6.913   5.539  11.443 -1.5223 -2.0858 -2.7372
  176MOL0     H23699   7.142   5.514  11.576  2.8668  4.0561  1.6772
  176MOL0     H23700   7.214   5.540  11.408 -2.0966 -1.6193 -1.9586
  176MOL0     H23701   7.236   5.750  11.535  0.9235 -0.1925 -0.5804
  176MOL0     H23702   7.111   5.759  11.405 -1.4154 -0.2943  1.2785
  176MOL0     H23703   6.935   5.759  11.544 -0.9545 -1.6434 -0.9679
  176MOL0     H23704   7.027   5.693  11.683 -3.6952  1.3121  0.7825
  176MOL0     H23705   7.068   5.974  11.564  0.9465 -1.2598 -1.7147
  176MOL0     H23706   6.944   5.929  11.681  1.4726  4.9176  1.0283
  176MOL0     H23707   7.137   5.823  11.820  0.0663 -0.5137 -2.5093
  176MOL0     H23708   7.225   5.943  11.712 -3.8690  2.0277 -5.9510
  176MOL0     H23709   7.187   6.044  11.931  0.0228 -3.6256  1.4564
  176MOL0     H23710   7.015   6.005  11.931 -2.1024  1.1456 -2.0119
  176MOL0     H23711   7.246   6.223  11.685  0.2596 -1.1233 -0.5560
  176MOL0     H23712   7.191   6.500  11.672  2.1780 -1.5497 -1.8774
  176MOL0     H23713   7.177   6.409  11.524 -1.5256 -3.6439  0.1226
  176MOL0     H23714   7.009   6.636  11.617  1.2127 -0.2036  0.2282
  176MOL0     H23715   6.942   6.505  11.519 -1.6837  1.0314  0.7602
  176MOL0     H23716   7.155   6.548  11.355  1.2747  1.6965 -0.9534
  176MOL0     H23717   7.174   6.689  11.454  0.1137  1.7747 -2.8032
  176MOL0     H23718   7.049   6.722  11.232 -0.2493 -0.1893 -0.5192
  176MOL0     H23719   7.010   6.803  11.377  1.7741 -0.8410 -0.0808
  176MOL0     H23720   6.703   6.534  11.445  0.1851 -0.2814  0.3085
  176MOL0     H23721   6.416   6.508  11.507  0.7615 -2.5567  0.3790
  176MOL0     H23722   6.557   6.504  11.604  3.5622  1.8192 -1.6609
  176MOL0     H23723   6.428   6.609  11.651  0.3498 -3.4914  0.8696
  176MOL0     H23724   6.166   6.849  11.336  0.0683  0.6492 -0.4798
  176MOL0     H23725   5.953   6.998  11.336  3.7378 -1.9078 -2.1722
  176MOL0     H23726   5.669   7.215  11.594 -0.3255  0.0934 -0.1746
  176MOL0     H23727   5.760   7.129  11.727  0.6580 -1.9018 -0.1452
  176MOL0     H23728   5.814   7.368  11.724  1.1206 -2.2096  1.3773
  176MOL0     H23729   5.959   7.283  11.653  0.7349  1.4597 -1.0159
  176MOL0     H23730   5.729   7.398  11.481  0.4316 -1.7654 -2.9607
  176MOL0     H23731   5.880   7.336  11.435 -0.5567  0.8303 -0.4128
  176MOL0     H23732   5.987   7.542  11.554  0.6904 -3.0028  0.3678
  176MOL0     H23733   5.883   7.572  11.408 -2.5055  0.3885 -0.6065
  176MOL0     H23734   5.805   7.582  11.701 -0.4422  0.3063  1.0411
  176MOL0     H23735   5.694   7.597  11.569  0.1115 -1.7740  1.8629
  176MOL0     H23736   5.934   7.786  11.617  1.0105 -1.9198 -2.9369
  176MOL0     H23737   5.832   7.790  11.475  0.4281  0.2975  0.3002
  176MOL0     H23738   5.676   7.802  11.739 -0.8027  0.1830 -0.2176
  176MOL0     H23739   5.654   7.890  11.583  1.0053 -0.2895 -0.2617
  176MOL0     H23740   5.746   8.055  11.746 -1.1729 -0.9888  1.7112
  176MOL0     H23741   5.878   8.009  11.635 -0.6868 -2.3571 -0.5220
  176MOL0     H23742   5.958   7.019  11.765  1.7938  0.8269 -0.0514
  176MOL0     H23743   6.158   6.873  11.759  0.1841 -1.5640 -0.3478
  176MOL0     H23744   6.604   7.005  11.388  1.2996  1.1259  2.8190
  176MOL0     H23745   6.811   6.912  11.308 -0.1959 -0.2249 -0.7525
  176MOL0     H23746   6.693   5.226  11.160 -0.9664 -0.0335 -0.5390
  176MOL0     H23747   6.633   4.995  11.117  0.7145  0.2439 -2.4721
  176MOL0     H23748   6.774   4.547  11.244 -1.2121 -0.4569  0.1552
  176MOL0     H23749   6.735   4.317  11.211  1.2193  0.9399 -1.0253
  176MOL0     H23750   6.503   4.131  10.892 -0.5541 -3.1461  0.4259
  176MOL0     H23751   6.628   4.185  10.775 -0.1437  0.9094  0.4503
  176MOL0     H23752   6.759   3.976  10.865 -0.0631  2.7719  3.5494
  176MOL0     H23753   6.639   3.956  10.749 -1.0812  2.0899  0.5594
  176MOL0     H23754   6.462   3.907  10.928 -0.8570 -0.0211  3.1480
  176MOL0     H23755   6.590   3.920  11.050 -3.2681 -2.4483  1.3970
  176MOL0     H23756   6.604   3.727  10.803 -1.2426  1.4523 -1.2013
  176MOL0     H23757   6.514   3.692  10.959  0.7748  0.3586  0.8975
  176MOL0     H23758   6.919   3.651  11.082 -0.6385 -2.2186  1.8068
  176MOL0     H23759   6.679   4.394  10.787  2.5272  0.7056 -1.0973
  176MOL0     H23760   6.738   4.620  10.826  0.0848  0.5186  0.0312
  177MOL0     O23761   8.652   8.621  10.646 -0.1936  0.0086 -0.0092
  177MOL0     C23762   8.588   8.570  10.550  1.2905 -0.4807 -0.1398
  177MOL0     O23763   8.465   8.616  10.495  0.4773 -0.6886 -0.2791
  177MOL0     C23764   8.389   8.717  10.548 -0.6198 -0.2636 -0.5186
  177MOL0     C23765   8.252   8.705  10.544 -0.6998  1.4741 -0.0320
  177MOL0     C23766   8.159   8.807  10.582 -0.6473 -0.0647 -0.3308
  177MOL0     C23767   8.222   8.924  10.639  0.6252  0.3722  0.6249
  177MOL0     O23768   8.146   9.019  10.693  0.6307 -0.1515  0.0360
  177MOL0     C23769   8.010   9.040  10.649 -0.5948  0.0682 -0.0104
  177MOL0     C23770   7.959   9.179  10.666 -0.1504 -0.9235  0.8670
  177MOL0     C23771   7.944   9.203  10.811 -0.3235 -0.8136 -1.1909
  177MOL0     C23772   7.888   9.345  10.827 -0.2801  0.4506  0.5955
  177MOL0     C23773   7.891   9.375  10.983  0.2037 -0.3464  0.1623
  177MOL0     C23774   7.831   9.509  11.014  0.1796 -0.9792 -0.3417
  177MOL0     C23775   7.803   9.513  11.169  0.7538 -0.5988 -0.2067
  177MOL0     C23776   7.850   9.645  11.230  0.4192  0.2390 -0.6333
  177MOL0     N23777   7.994   9.660  11.250 -0.4226 -0.9613 -0.3790
  177MOL0     C23778   8.070   9.581  11.330 -0.2106 -0.0159  0.5241
  177MOL0     C23779   8.192   9.633  11.319  0.3450  0.2765  0.2124
  177MOL0     C23780   8.318   9.583  11.380  0.2963 -0.2221  0.4926
  177MOL0     C23781   8.296   9.611  11.531  1.3000  0.2122  0.4260
  177MOL0     C23782   8.414   9.578  11.619  0.0929  0.3562 -0.1248
  177MOL0     C23783   8.423   9.662  11.740 -0.2843  0.2237 -1.0135
  177MOL0     O23784   8.473   9.787  11.694 -0.2032 -0.0226  0.1762
  177MOL0     C23785   8.423   9.904  11.735 -0.4992  0.0284 -0.0384
  177MOL0     C23786   8.392   9.913  11.872 -0.4529 -0.4715  0.4403
  177MOL0     C23787   8.324  10.025  11.923 -0.4247 -0.4342  0.8566
  177MOL0     C23788   8.301  10.017  12.072  0.9078  0.0424 -0.0089
  177MOL0     C23789   8.313  10.143  11.843 -0.0042  0.2690  0.0686
  177MOL0     C23790   8.283  10.281  11.906  0.8174 -0.1550  0.0796
  177MOL0     O23791   8.226  10.370  11.817 -0.4823  0.2306 -0.8153
  177MOL0     C23792   8.154  10.480  11.850  0.1863 -0.5809 -0.6391
  177MOL0     C23793   8.125  10.550  11.742  0.3546  0.3586  0.5295
  177MOL0     C23794   8.061  10.673  11.754 -0.1757 -0.0447 -0.1834
  177MOL0     C23795   7.992  10.709  11.872 -0.6377 -0.2488 -0.8454
  177MOL0     O23796   7.910  10.818  11.877 -1.1530  0.0452  0.3159
  177MOL0     C23797   7.785  10.787  11.938 -0.4749  0.2082  0.2840
  177MOL0     C23798   7.753  10.883  12.051  0.3299 -0.8024 -1.0360
  177MOL0     C23799   7.699  11.020  11.996  0.2554 -1.5970  0.7134
  177MOL0     C23800   7.664  11.143  12.080 -0.1135 -0.6324  0.0911
  177MOL0     C23801   7.752  11.197  12.195 -0.6629  1.0156  1.2414
  177MOL0     C23802   7.679  11.306  12.275 -0.4690  0.1813 -0.0904
  177MOL0     C23803   7.762  11.362  12.387 -0.7336 -0.1285 -1.0938
  177MOL0     C23804   7.690  11.467  12.469 -0.3257  0.4077 -0.5187
  177MOL0    Cl23805   7.695  11.626  12.382 -0.3930 -0.0698  0.3618
  177MOL0     C23806   8.028  10.636  11.989  0.7883 -0.9178 -0.2719
  177MOL0     C23807   8.107  10.520  11.981 -0.1728  1.0387  1.1430
  177MOL0     O23808   8.299  10.304  12.022  0.7040 -0.0959 -0.4890
  177MOL0     C23809   8.356  10.136  11.712 -0.3280 -0.6565 -0.2679
  177MOL0     C23810   8.406  10.013  11.652 -0.6327 -0.0649 -0.6323
  177MOL0     N23811   8.188   9.747  11.246 -0.5003  0.2296  0.6619
  177MOL0     N23812   8.068   9.752  11.195  0.0293  0.6001  0.1475
  177MOL0     C23813   8.354   8.943  10.633  0.3477  0.4521  0.1139
  177MOL0     C23814   8.440   8.836  10.588  0.2180 -0.4301  0.4730
  177MOL0     C23815   8.638   8.457  10.485 -0.2152  0.1479  0.0721
  177MOL0     C23816   8.767   8.403  10.495 -0.9484 -1.3125 -0.4023
  177MOL0     C23817   8.805   8.287  10.440  0.3755 -0.9382  0.2170
  177MOL0     C23818   8.712   8.217  10.366 -0.0322 -0.3725 -0.7517
  177MOL0     O23819   8.739   8.099  10.308  0.7032  0.1944  0.2905
  177MOL0     C23820   8.873   8.059  10.300 -0.6471 -0.9037 -0.2108
  177MOL0     C23821   8.883   7.921  10.251  0.5109  0.5148 -0.9495
  177MOL0     C23822   9.016   7.860  10.194 -0.3420 -0.0316  0.2221
  177MOL0     C23823   9.127   7.881  10.303  0.2651  0.0967  0.8003
  177MOL0     C23824   9.204   8.002  10.279 -0.4627  0.4026  0.8940
  177MOL0     C23825   9.288   8.083  10.256 -0.6881 -0.1241 -0.0119
  177MOL0     C23826   8.579   8.257  10.363  0.4250  0.2462  1.5120
  177MOL0     C23827   8.540   8.371  10.429  0.4789  0.1374 -0.8091
  177MOL0     H23828   8.215   8.611  10.504  1.4542 -0.2110  1.6746
  177MOL0     H23829   8.053   8.790  10.564 -0.4564  0.4489 -2.1389
  177MOL0     H23830   8.010   9.018  10.541 -1.6549  0.8422 -0.1810
  177MOL0     H23831   7.940   8.965  10.686  0.3183 -1.6804 -1.6302
  177MOL0     H23832   8.032   9.244  10.617 -2.5880  1.2024 -0.1806
  177MOL0     H23833   7.866   9.206  10.615  0.6192 -0.0359 -0.1176
  177MOL0     H23834   7.882   9.127  10.858  1.4296 -0.7486  1.4898
  177MOL0     H23835   8.040   9.194  10.863 -1.3802 -1.7343  0.7352
  177MOL0     H23836   7.943   9.415  10.763  0.1937 -3.6727 -4.1946
  177MOL0     H23837   7.787   9.346  10.786 -0.3550  0.9141  0.7885
  177MOL0     H23838   7.851   9.293  11.043 -1.2808  0.2778  0.0772
  177MOL0     H23839   7.995   9.379  11.017  0.5050 -1.4085 -0.6026
  177MOL0     H23840   7.902   9.584  10.977 -0.2249 -0.2149  0.3883
  177MOL0     H23841   7.742   9.512  10.950  0.1634 -0.0020 -0.2862
  177MOL0     H23842   7.694   9.508  11.182  0.6463  0.9445 -0.3072
  177MOL0     H23843   7.856   9.436  11.226  2.9898  0.8748 -0.1649
  177MOL0     H23844   7.810   9.646  11.332 -0.5143  0.8942 -0.9927
  177MOL0     H23845   7.812   9.725  11.166  0.2189 -0.7117 -1.7346
  177MOL0     H23846   8.048   9.497  11.395 -0.2451 -2.1741 -2.1389
  177MOL0     H23847   8.330   9.476  11.365 -2.0577 -0.3679 -0.7148
  177MOL0     H23848   8.409   9.634  11.346 -0.3792 -0.6414 -2.0973
  177MOL0     H23849   8.219   9.538  11.558  1.3047  0.3527  0.8299
  177MOL0     H23850   8.254   9.710  11.554  0.0889 -0.4859  1.3951
  177MOL0     H23851   8.506   9.574  11.561  0.0115 -2.3074 -0.1975
  177MOL0     H23852   8.399   9.475  11.652 -3.5755 -0.1032 -2.5988
  177MOL0     H23853   8.491   9.608  11.806 -0.6539 -0.0816 -0.8772
  177MOL0     H23854   8.328   9.659  11.794 -0.0355 -1.0667 -0.6078
  177MOL0     H23855   8.426   9.835  11.940  1.1942  1.7081  2.2827
  177MOL0     H23856   8.210  10.069  12.104  1.4962  1.2859 -0.2875
  177MOL0     H23857   8.277   9.914  12.098 -1.7197 -0.3304 -3.3242
  177MOL0     H23858   8.392  10.055  12.121  2.3553 -3.0320 -0.1297
  177MOL0     H23859   8.171  10.521  11.648  0.5972 -0.6056  0.9380
  177MOL0     H23860   8.051  10.732  11.663 -1.9556  2.3799  1.4303
  177MOL0     H23861   7.707  10.816  11.867 -0.7054  5.2336  2.1608
  177MOL0     H23862   7.772  10.683  11.968 -0.2797  0.3665  0.9407
  177MOL0     H23863   7.677  10.842  12.118  1.1008  0.0361  0.4207
  177MOL0     H23864   7.843  10.902  12.110 -0.3618 -0.0056 -0.2086
  177MOL0     H23865   7.599  11.007  11.954 -0.1438  0.6123  0.8444
  177MOL0     H23866   7.757  11.050  11.908  1.4705 -0.5232  1.8326
  177MOL0     H23867   7.651  11.231  12.017 -0.4077  0.3475  1.4799
  177MOL0     H23868   7.573  11.124  12.139  0.5859 -1.0712  1.0594
  177MOL0     H23869   7.846  11.235  12.153 -1.0554  0.4168 -0.2250
  177MOL0     H23870   7.787  11.118  12.262  1.3527  1.5378  0.8859
  177MOL0     H23871   7.652  11.388  12.208 -5.2636 -1.0659 -0.0642
  177MOL0     H23872   7.586  11.260  12.311  0.2920 -0.7176  0.7916
  177MOL0     H23873   7.860  11.401  12.358 -0.0703 -1.5843 -0.9193
  177MOL0     H23874   7.797  11.288  12.460  1.7004  1.4542 -0.5381
  177MOL0     H23875   7.745  11.480  12.563  2.1894 -2.6020 -1.3675
  177MOL0     H23876   7.586  11.438  12.485 -0.6142  1.9709  0.6800
  177MOL0     H23877   7.997  10.674  12.086 -1.0207 -3.2155  0.1408
  177MOL0     H23878   8.141  10.466  12.069 -1.3755 -0.7963  0.5453
  177MOL0     H23879   8.352  10.227  11.653 -3.1110 -0.7598 -0.3664
  177MOL0     H23880   8.431  10.007  11.547 -1.0155 -1.0522 -0.6783
  177MOL0     H23881   8.390   9.041  10.663 -0.7958  0.2453  2.3718
  177MOL0     H23882   8.546   8.861  10.590 -0.4125  2.4771  2.1429
  177MOL0     H23883   8.844   8.461  10.544 -2.4179  0.6796 -0.3109
  177MOL0     H23884   8.912   8.266  10.445  0.4935 -0.2565  0.8737
  177MOL0     H23885   8.915   8.117  10.218 -3.2340  1.3545 -0.0662
  177MOL0     H23886   8.938   8.069  10.387 -1.7434  0.9212  0.4487
  177MOL0     H23887   8.804   7.909  10.177 -2.4701  5.6913  0.8646
  177MOL0     H23888   8.856   7.869  10.343  0.6832  2.3689  0.2145
  177MOL0     H23889   9.055   7.894  10.097  1.7075 -1.6244  0.4064
  177MOL0     H23890   8.991   7.754  10.192 -0.9545  0.1133 -0.8172
  177MOL0     H23891   9.199   7.799  10.296 -0.3183 -0.3250 -0.5273
  177MOL0     H23892   9.080   7.884  10.402 -0.5001  0.5701  0.4302
  177MOL0     H23893   9.362   8.152  10.220 -1.2480 -0.9926 -3.1153
  177MOL0     H23894   8.512   8.185  10.318  0.6867 -0.3403  2.0498
  177MOL0     H23895   8.436   8.399  10.419  0.2043 -0.6775 -0.2940
  178MOL0     O23896   8.861  10.745   6.592  0.3991 -0.3359 -0.6435
  178MOL0     C23897   8.952  10.680   6.642  1.1943 -0.3871 -1.3575
  178MOL0     O23898   8.943  10.612   6.768 -0.0181  0.6011  0.2340
  178MOL0     C23899   8.838  10.611   6.856 -0.7627 -1.0213  0.8691
  178MOL0     C23900   8.764  10.726   6.865 -0.1197  0.2757 -0.0916
  178MOL0     C23901   8.642  10.727   6.930  0.2937 -0.3096 -0.3292
  178MOL0     C23902   8.588  10.610   6.980 -0.2546 -0.4628  0.1163
  178MOL0     O23903   8.461  10.612   7.029  0.0170 -0.3643 -0.3423
  178MOL0     C23904   8.460  10.623   7.171 -0.2132  0.8606  0.2477
  178MOL0     C23905   8.314  10.589   7.221  0.3112  0.3313  0.3473
  178MOL0     C23906   8.210  10.687   7.161  0.7769 -0.6029  0.1854
  178MOL0     C23907   8.071  10.669   7.224 -0.0197 -0.5759 -0.1871
  178MOL0     C23908   7.972  10.782   7.200  0.3930 -0.7084 -0.2303
  178MOL0     C23909   7.909  10.776   7.063 -0.3528 -0.6921 -0.0693
  178MOL0     C23910   7.816  10.888   7.024 -0.6617  0.0239 -0.2206
  178MOL0     C23911   7.761  10.858   6.880  0.2583  0.6691 -0.2333
  178MOL0     N23912   7.617  10.802   6.884 -0.3411  0.8068 -0.2794
  178MOL0     C23913   7.586  10.686   6.951 -0.1932  0.0491  0.3554
  178MOL0     C23914   7.457  10.677   6.917 -0.6940 -0.4507  0.2337
  178MOL0     C23915   7.373  10.555   6.955 -0.2386  0.9642 -0.2350
  178MOL0     C23916   7.254  10.530   6.855 -0.0321 -0.1896  0.4156
  178MOL0     C23917   7.295  10.523   6.708 -0.1739  1.0446 -0.5403
  178MOL0     C23918   7.368  10.383   6.691 -0.1539  0.1088  0.3850
  178MOL0     O23919   7.368  10.339   6.549  0.4806 -0.1922  0.1770
  178MOL0     C23920   7.259  10.275   6.487  0.7754  0.0851  0.1615
  178MOL0     C23921   7.148  10.255   6.569 -0.3122 -0.3661  0.0073
  178MOL0     C23922   7.044  10.170   6.528  0.1169  0.6771  0.1754
  178MOL0     C23923   6.926  10.157   6.621 -0.4009 -0.5389  0.3677
  178MOL0     C23924   7.059  10.090   6.406 -0.1740  1.2662 -0.4032
  178MOL0     C23925   6.964   9.989   6.366  0.4852 -0.0107 -0.0732
  178MOL0     O23926   6.946   9.973   6.234  0.9635 -0.6232  0.5785
  178MOL0     C23927   6.840   9.913   6.174  0.1660 -1.3170  0.9593
  178MOL0     C23928   6.850   9.828   6.056 -0.4490 -0.4683 -0.6266
  178MOL0     C23929   6.741   9.752   6.023  0.1366 -0.3527 -0.4516
  178MOL0     C23930   6.618   9.767   6.089  0.4459  0.2177 -0.5500
  178MOL0     O23931   6.515   9.681   6.054  0.1395  1.1307 -0.5967
  178MOL0     C23932   6.518   9.550   6.116  0.0269  0.0736  0.4590
  178MOL0     C23933   6.403   9.543   6.214 -0.4790 -0.2090 -0.3125
  178MOL0     C23934   6.271   9.551   6.141  0.1112  0.8074 -0.0283
  178MOL0     C23935   6.151   9.488   6.227  0.4802 -0.0831 -0.0451
  178MOL0     C23936   6.129   9.569   6.357  0.0151  0.3674 -0.2744
  178MOL0     C23937   5.991   9.565   6.410 -0.8866  0.2490  0.8374
  178MOL0     C23938   5.896   9.654   6.339 -0.6504  0.3386 -0.0082
  178MOL0     C23939   5.946   9.799   6.304  0.2662 -0.5551  0.0875
  178MOL0    Cl23940   5.813   9.883   6.208  0.1019 -0.1539 -0.6181
  178MOL0     C23941   6.599   9.857   6.193 -0.4300  0.2815 -0.0380
  178MOL0     C23942   6.708   9.929   6.237 -0.4055  0.3064  1.1021
  178MOL0     O23943   6.894   9.935   6.450 -0.4530  1.2928  0.2369
  178MOL0     C23944   7.174  10.124   6.321 -1.2271  0.2249 -0.0330
  178MOL0     C23945   7.269  10.213   6.364  1.1166 -0.6244 -0.0863
  178MOL0     N23946   7.406  10.788   6.854  0.7848 -0.5234 -0.1787
  178MOL0     N23947   7.512  10.859   6.821 -0.8859 -0.1365 -0.2594
  178MOL0     C23948   8.657  10.491   6.953 -0.2362 -0.2721  0.3637
  178MOL0     C23949   8.785  10.490   6.905 -0.7685 -0.9003  0.8598
  178MOL0     C23950   9.073  10.668   6.571 -1.0867  0.1361  0.0554
  178MOL0     C23951   9.090  10.704   6.436  0.0807 -0.0332 -0.2681
  178MOL0     C23952   9.202  10.680   6.363  1.0889  0.0931  0.3030
  178MOL0     C23953   9.307  10.616   6.417  0.5081 -0.5138  0.3878
  178MOL0     O23954   9.430  10.609   6.353 -0.0365  0.3737  0.4293
  178MOL0     C23955   9.436  10.508   6.245  1.0704  0.5963 -0.0323
  178MOL0     C23956   9.538  10.533   6.136  0.4536  0.1458 -0.5427
  178MOL0     C23957   9.674  10.520   6.191 -0.4142 -0.1881 -1.2489
  178MOL0     C23958   9.721  10.642   6.274 -0.0385 -0.1551 -0.5335
  178MOL0     C23959   9.867  10.645   6.271 -0.3378  0.9486 -1.3685
  178MOL0     C23960   9.989  10.646   6.257  0.4828 -0.3195 -0.3341
  178MOL0     C23961   9.297  10.584   6.552  0.1093  0.2105  0.5340
  178MOL0     C23962   9.185  10.601   6.632 -0.4671  0.3852 -0.0701
  178MOL0     H23963   8.797  10.820   6.824 -1.1080  0.7841  0.2529
  178MOL0     H23964   8.584  10.817   6.946  2.6204  1.4219 -1.0814
  178MOL0     H23965   8.525  10.549   7.219 -2.1449 -0.0092  1.6713
  178MOL0     H23966   8.494  10.723   7.198  2.3345  1.3875 -3.9826
  178MOL0     H23967   8.294  10.486   7.193  1.1564  0.8496 -2.4692
  178MOL0     H23968   8.315  10.612   7.328  0.6447  4.1093 -0.3380
  178MOL0     H23969   8.252  10.787   7.176  0.3144 -0.3369 -0.2529
  178MOL0     H23970   8.214  10.679   7.052 -0.0733  2.4657 -0.1765
  178MOL0     H23971   8.031  10.575   7.185  4.4123 -1.3505 -3.7277
  178MOL0     H23972   8.104  10.668   7.328  1.9126  1.6913 -0.6777
  178MOL0     H23973   7.880  10.780   7.258 -0.2212  1.7652 -0.9650
  178MOL0     H23974   8.024  10.875   7.227 -0.9529 -0.0159  0.0805
  178MOL0     H23975   7.991  10.769   6.991  0.6257 -0.2524  0.9778
  178MOL0     H23976   7.846  10.686   7.056 -2.7067  0.8778 -0.1218
  178MOL0     H23977   7.729  10.882   7.089 -0.1299 -3.6666  0.3754
  178MOL0     H23978   7.862  10.987   7.016  0.9260 -0.3231  3.0797
  178MOL0     H23979   7.834  10.792   6.831  1.0034 -0.7687  2.6372
  178MOL0     H23980   7.770  10.953   6.827  1.7314  0.7315  0.0917
  178MOL0     H23981   7.647  10.615   7.006  0.6913  1.0131  0.6603
  178MOL0     H23982   7.431  10.464   6.967  1.7654  2.2375  0.3117
  178MOL0     H23983   7.342  10.583   7.056 -3.5671 -0.1267 -0.8422
  178MOL0     H23984   7.194  10.621   6.869  1.4524  0.8471  0.3131
  178MOL0     H23985   7.209  10.436   6.888 -1.7902 -0.3692 -2.2327
  178MOL0     H23986   7.357  10.607   6.677  2.5896  0.5704  3.0835
  178MOL0     H23987   7.196  10.530   6.660 -0.1518  4.7682 -0.2721
  178MOL0     H23988   7.329  10.306   6.758  0.4046  0.5291  1.2094
  178MOL0     H23989   7.472  10.398   6.718 -0.5111  0.4048  1.6644
  178MOL0     H23990   7.133  10.292   6.670 -1.4440 -0.9361  0.0672
  178MOL0     H23991   6.845  10.144   6.549  0.1317 -0.3838 -0.2779
  178MOL0     H23992   6.938  10.068   6.684  1.4499 -2.5381 -2.5482
  178MOL0     H23993   6.902  10.245   6.681 -0.3093  0.8746 -1.5548
  178MOL0     H23994   6.953   9.812   6.025  0.2479  3.5444 -0.8403
  178MOL0     H23995   6.753   9.668   5.955  3.7483 -0.1340 -0.2915
  178MOL0     H23996   6.511   9.484   6.029 -0.2829  0.7599 -0.0444
  178MOL0     H23997   6.606   9.531   6.178 -0.6221  2.2705  2.1981
  178MOL0     H23998   6.402   9.449   6.269  1.6053 -0.5861 -0.8390
  178MOL0     H23999   6.397   9.623   6.288 -1.3203 -1.3745  0.9181
  178MOL0     H24000   6.283   9.480   6.059 -1.2439  0.2830  0.2049
  178MOL0     H24001   6.248   9.649   6.097  1.5710  0.1302 -2.4685
  178MOL0     H24002   6.058   9.498   6.170 -0.8920  0.4310  2.1578
  178MOL0     H24003   6.166   9.382   6.249  3.6352  0.2583 -0.0837
  178MOL0     H24004   6.177   9.667   6.362  3.5302 -1.2649  2.1767
  178MOL0     H24005   6.181   9.504   6.429 -1.5953 -0.7362 -0.0680
  178MOL0     H24006   5.963   9.460   6.404  1.2374 -0.2787 -3.0638
  178MOL0     H24007   5.997   9.594   6.516 -3.0243 -0.6642  1.2481
  178MOL0     H24008   5.800   9.648   6.391 -1.9112  0.7491 -2.1420
  178MOL0     H24009   5.875   9.602   6.245  0.1513 -3.5603  1.7754
  178MOL0     H24010   6.041   9.788   6.251  0.8281 -2.4990  1.3734
  178MOL0     H24011   5.961   9.867   6.388 -1.3430  0.6251 -0.5134
  178MOL0     H24012   6.516   9.875   6.260 -0.7973  2.7913 -1.0325
  178MOL0     H24013   6.687   9.997   6.319  5.8717  0.3780  3.2243
  178MOL0     H24014   7.194  10.069   6.230  3.2531 -0.3001  1.0054
  178MOL0     H24015   7.354  10.235   6.301  2.1520 -2.2983  0.6447
  178MOL0     H24016   8.615  10.391   6.967  1.7547 -1.3925 -1.1459
  178MOL0     H24017   8.841  10.400   6.880  0.0075 -0.0539 -0.5763
  178MOL0     H24018   9.016  10.761   6.380 -2.3107 -0.7346  1.9785
  178MOL0     H24019   9.204  10.702   6.257 -0.7027  2.5995  0.6975
  178MOL0     H24020   9.465  10.416   6.295  2.3586 -0.7191 -2.9543
  178MOL0     H24021   9.337  10.498   6.200  0.0079  0.6824  2.1441
  178MOL0     H24022   9.518  10.630   6.090  4.5702  0.5254 -1.9830
  178MOL0     H24023   9.542  10.464   6.051  0.1469  0.2749 -0.6623
  178MOL0     H24024   9.738  10.498   6.105  0.3530 -4.7195  0.2184
  178MOL0     H24025   9.691  10.424   6.240 -0.8015 -0.3794 -1.4802
  178MOL0     H24026   9.688  10.655   6.378  0.0445 -1.0807 -0.3899
  178MOL0     H24027   9.682  10.730   6.222 -0.0931 -0.7986 -1.6073
  178MOL0     H24028  10.095  10.645   6.240  0.1387 -1.6409 -2.7322
  178MOL0     H24029   9.381  10.556   6.615 -1.8352  3.4525  5.1908
  178MOL0     H24030   9.193  10.562   6.733 -0.3138 -0.1960 -0.2995
  179MOL0     O24031   1.437  11.400   1.670 -0.8427 -0.1497  0.2360
  179MOL0     C24032   1.453  11.283   1.656  0.9017 -0.1926  0.3064
  179MOL0     O24033   1.540  11.203   1.726  0.1515 -0.3054 -0.3859
  179MOL0     C24034   1.614  11.257   1.830 -1.4664  0.6100 -0.1278
  179MOL0     C24035   1.732  11.191   1.845  0.3606  0.4137  0.0398
  179MOL0     C24036   1.827  11.234   1.943  0.4740  0.2067 -0.0395
  179MOL0     C24037   1.799  11.342   2.028 -0.3878 -0.7580 -0.1205
  179MOL0     O24038   1.874  11.389   2.134 -0.5129  0.1265 -0.2800
  179MOL0     C24039   1.995  11.321   2.168 -0.2910  0.4215 -0.3694
  179MOL0     C24040   1.976  11.194   2.247  0.3123 -0.4473 -0.2319
  179MOL0     C24041   2.101  11.108   2.281 -0.2651 -0.3736  0.3306
  179MOL0     C24042   2.069  10.979   2.365  0.9653  0.1460  0.3251
  179MOL0     C24043   2.179  10.956   2.473  0.3973  0.3283 -0.9969
  179MOL0     C24044   2.310  10.935   2.406  0.8804 -0.8572  0.2177
  179MOL0     C24045   2.423  10.938   2.513 -0.9805  0.3416  0.1571
  179MOL0     C24046   2.556  10.910   2.444  1.0746 -0.1112  0.1669
  179MOL0     N24047   2.672  10.907   2.530 -0.5865  0.4325 -0.6590
  179MOL0     C24048   2.694  10.817   2.635 -0.0449  1.3692  0.1937
  179MOL0     C24049   2.802  10.874   2.702  0.1966  0.1182 -0.5240
  179MOL0     C24050   2.882  10.821   2.818  0.7007 -0.4846 -0.3755
  179MOL0     C24051   2.808  10.876   2.952 -0.5408  0.3081  0.2865
  179MOL0     C24052   2.911  10.861   3.065  0.2025 -0.1502 -0.3593
  179MOL0     C24053   2.858  10.877   3.206  0.2922  0.8193 -0.0004
  179MOL0     O24054   2.962  10.857   3.313  0.1519  0.2162 -0.6303
  179MOL0     C24055   2.951  10.920   3.436  0.0663 -0.2089 -0.3782
  179MOL0     C24056   3.035  10.866   3.529 -0.8808  0.6435 -0.1298
  179MOL0     C24057   3.030  10.915   3.662  0.5644 -0.1485  0.0977
  179MOL0     C24058   3.108  10.836   3.761  0.8714  0.2941 -0.0880
  179MOL0     C24059   2.950  11.033   3.700  0.0629  0.5968 -0.5116
  179MOL0     C24060   2.936  11.101   3.830  0.4895  0.5329 -0.9234
  179MOL0     O24061   2.976  11.024   3.940 -0.4481  0.0432 -0.1604
  179MOL0     C24062   2.948  11.074   4.065 -0.0544  0.0354 -0.2621
  179MOL0     C24063   3.037  11.152   4.128 -0.4339 -0.5946  0.0663
  179MOL0     C24064   3.006  11.232   4.239  0.0184  0.6831  0.9832
  179MOL0     C24065   2.883  11.203   4.308 -0.7499  0.5820  0.3702
  179MOL0     O24066   2.834  11.262   4.425  0.1148 -0.3296  0.6118
  179MOL0     C24067   2.923  11.356   4.486  0.1959  0.2714 -0.7206
  179MOL0     C24068   2.845  11.435   4.593  0.1016  0.4898 -0.5162
  179MOL0     C24069   2.724  11.511   4.532 -0.5483  1.0654  0.9448
  179MOL0     C24070   2.601  11.514   4.625  0.5183 -0.9018 -0.0333
  179MOL0     C24071   2.488  11.596   4.555 -1.0631 -0.6446 -0.7006
  179MOL0     C24072   2.518  11.750   4.532 -0.3461 -0.1527 -0.8386
  179MOL0     C24073   2.533  11.833   4.661  1.3576 -0.3485 -0.3363
  179MOL0     C24074   2.485  11.970   4.640  0.5212  0.1113 -0.2278
  179MOL0    Cl24075   2.497  12.053   4.793  0.1318 -0.4640  0.1114
  179MOL0     C24076   2.795  11.110   4.247 -0.0009  0.0713 -0.2998
  179MOL0     C24077   2.830  11.038   4.129 -0.2470  0.1919 -0.0384
  179MOL0     O24078   2.895  11.212   3.841  0.2447  0.1144  0.3241
  179MOL0     C24079   2.866  11.084   3.598  0.4667  0.2217  0.9908
  179MOL0     C24080   2.870  11.032   3.467  0.3481  0.7817 -0.2548
  179MOL0     N24081   2.838  10.993   2.642 -0.2838 -0.4723 -0.1320
  179MOL0     N24082   2.763  11.012   2.540  1.0459  0.3646 -0.3905
  179MOL0     C24083   1.674  11.403   2.010 -0.9001 -0.4242  0.4041
  179MOL0     C24084   1.582  11.357   1.925  0.7312 -0.9980  0.9377
  179MOL0     C24085   1.409  11.215   1.538  0.7221  1.1023  0.7892
  179MOL0     C24086   1.439  11.076   1.504  0.2302  0.2267 -0.8973
  179MOL0     C24087   1.377  11.017   1.392 -0.0654  0.1463  0.5668
  179MOL0     C24088   1.294  11.090   1.310 -0.3990 -0.1352  0.3588
  179MOL0     O24089   1.227  11.034   1.208 -0.1181 -0.5623 -0.5367
  179MOL0     C24090   1.321  10.995   1.103 -0.3358  0.3976 -0.2650
  179MOL0     C24091   1.348  11.123   1.024  0.5134 -0.9271 -0.5121
  179MOL0     C24092   1.414  11.087   0.896  0.0794  0.9291  0.5597
  179MOL0     C24093   1.537  11.176   0.863  0.2542  0.1096 -0.1184
  179MOL0     C24094   1.636  11.191   0.971  0.7360  0.7304 -0.1229
  179MOL0     C24095   1.693  11.189   1.079 -0.1646 -0.4551 -0.5550
  179MOL0     C24096   1.260  11.215   1.348 -0.2137 -0.4794  0.0778
  179MOL0     C24097   1.325  11.283   1.454 -0.5829 -0.0816 -0.1230
  179MOL0     H24098   1.764  11.116   1.773  0.6041 -1.4351  1.9646
  179MOL0     H24099   1.920  11.180   1.932 -0.5186 -1.3551 -1.3855
  179MOL0     H24100   2.053  11.300   2.077  0.7763  0.4356  0.2829
  179MOL0     H24101   2.064  11.394   2.212  1.5713 -0.4198 -1.7413
  179MOL0     H24102   1.927  11.212   2.343 -1.2651  0.2398 -1.1283
  179MOL0     H24103   1.905  11.134   2.189 -0.1054  0.9327 -1.1862
  179MOL0     H24104   2.152  11.078   2.189 -1.6292  0.5977 -0.7782
  179MOL0     H24105   2.168  11.180   2.331 -1.1675  0.9783 -0.3599
  179MOL0     H24106   1.979  10.985   2.426  1.6491 -0.1596  1.3870
  179MOL0     H24107   2.066  10.887   2.306 -0.4597  0.1120  0.4294
  179MOL0     H24108   2.178  11.041   2.543 -1.0374 -1.0325  0.7422
  179MOL0     H24109   2.153  10.876   2.542  0.4732  1.9635  1.0379
  179MOL0     H24110   2.285  10.845   2.350 -0.0840 -0.0506 -0.6894
  179MOL0     H24111   2.330  11.013   2.332 -0.1510 -1.0676 -0.2873
  179MOL0     H24112   2.424  11.029   2.573  0.5479  0.4041  0.0773
  179MOL0     H24113   2.405  10.849   2.575 -1.4695  0.8800  0.7993
  179MOL0     H24114   2.565  10.988   2.368 -1.7717 -0.6952 -0.9096
  179MOL0     H24115   2.538  10.814   2.395 -1.0074  0.8608 -1.1196
  179MOL0     H24116   2.642  10.723   2.647 -1.0622  2.0094  0.9613
  179MOL0     H24117   2.872  10.713   2.825 -1.7610 -0.2235  1.5265
  179MOL0     H24118   2.983  10.861   2.814 -0.2257  1.9507 -1.4954
  179MOL0     H24119   2.714  10.825   2.974 -0.1518 -1.0653 -1.0431
  179MOL0     H24120   2.791  10.983   2.941  0.7727  0.5416  0.3374
  179MOL0     H24121   2.999  10.924   3.050  2.0921 -2.7388 -0.8194
  179MOL0     H24122   2.958  10.762   3.059 -0.7331 -0.5078 -2.4098
  179MOL0     H24123   2.783  10.798   3.215  0.4587  0.6294 -0.2470
  179MOL0     H24124   2.786  10.958   3.217 -3.0773 -1.9362 -0.0661
  179MOL0     H24125   3.110  10.794   3.500 -0.4570  1.6970 -1.7623
  179MOL0     H24126   3.050  10.799   3.847  3.1591  0.6176  1.6716
  179MOL0     H24127   3.158  10.750   3.717  0.9653  1.1426 -1.6980
  179MOL0     H24128   3.188  10.899   3.799  1.5402 -1.3103  1.2872
  179MOL0     H24129   3.137  11.168   4.089  1.0180  0.0411  3.5919
  179MOL0     H24130   3.085  11.291   4.284 -1.5487  2.9993  0.8174
  179MOL0     H24131   3.002  11.300   4.537 -1.0695  0.4051  1.5556
  179MOL0     H24132   2.972  11.430   4.423  0.4498 -1.1847 -2.2947
  179MOL0     H24133   2.814  11.367   4.673  3.1488 -0.4909 -0.0226
  179MOL0     H24134   2.910  11.505   4.647  1.5012 -1.6236  0.7033
  179MOL0     H24135   2.702  11.457   4.439  3.4694  0.9959 -0.1490
  179MOL0     H24136   2.745  11.618   4.528  3.1403  0.5029  2.1235
  179MOL0     H24137   2.567  11.415   4.656  1.1697 -1.8909 -2.2469
  179MOL0     H24138   2.615  11.577   4.713 -1.1908 -1.7897  0.9288
  179MOL0     H24139   2.404  11.582   4.624  1.5086 -1.0253  2.6007
  179MOL0     H24140   2.458  11.547   4.462  1.1447  0.4402 -2.0641
  179MOL0     H24141   2.610  11.759   4.473  0.4736  1.3331  0.5879
  179MOL0     H24142   2.429  11.786   4.479  0.5680 -0.7437 -2.8783
  179MOL0     H24143   2.634  11.846   4.701  1.0105  3.6482 -0.3749
  179MOL0     H24144   2.461  11.796   4.735  1.0970 -0.1755 -0.5040
  179MOL0     H24145   2.388  11.985   4.592  0.6988  2.5015  0.0311
  179MOL0     H24146   2.550  12.026   4.572  0.8656  0.9822  0.7869
  179MOL0     H24147   2.702  11.090   4.299 -0.8563  2.1724 -0.9085
  179MOL0     H24148   2.769  10.963   4.080 -0.0555  1.4053 -2.2243
  179MOL0     H24149   2.805  11.174   3.604  1.3105  1.4530 -4.0702
  179MOL0     H24150   2.810  11.066   3.383 -2.5391  1.9709  2.1069
  179MOL0     H24151   1.646  11.485   2.075  0.1884 -0.4528  0.9307
  179MOL0     H24152   1.480  11.391   1.909  1.2971 -0.1921 -1.3775
  179MOL0     H24153   1.506  11.026   1.573  0.5712 -0.2502 -1.5567
  179MOL0     H24154   1.387  10.910   1.379  0.4701  0.3667 -0.9599
  179MOL0     H24155   1.416  10.954   1.139 -0.6445 -0.6909 -0.6658
  179MOL0     H24156   1.279  10.920   1.036  1.1684 -0.6362 -0.0927
  179MOL0     H24157   1.414  11.185   1.085  0.2706  0.3549 -1.5241
  179MOL0     H24158   1.250  11.168   1.009  1.2712  1.1022  0.2986
  179MOL0     H24159   1.346  11.099   0.811 -1.2699 -0.1942  1.4315
  179MOL0     H24160   1.452  10.984   0.895 -2.7641 -0.2381 -1.1722
  179MOL0     H24161   1.504  11.277   0.839 -0.3963  0.2732  1.3252
  179MOL0     H24162   1.586  11.121   0.782  0.8298 -3.8390  2.6370
  179MOL0     H24163   1.739  11.179   1.175 -1.8326 -0.5610  0.2559
  179MOL0     H24164   1.192  11.276   1.290 -0.1304  1.3151  1.7568
  179MOL0     H24165   1.317  11.390   1.465  6.4117  0.7125  2.6753
  180MOL0     O24166   2.260   4.801  10.422 -0.0466 -0.2422 -0.2177
  180MOL0     C24167   2.292   4.787  10.307  0.2137  0.4964 -0.8143
  180MOL0     O24168   2.418   4.766  10.267 -0.7847  0.0224 -0.9607
  180MOL0     C24169   2.523   4.745  10.355 -0.6044  0.1221 -0.1178
  180MOL0     C24170   2.562   4.619  10.390 -1.0176 -0.3202 -0.1812
  180MOL0     C24171   2.666   4.594  10.481  0.2563 -0.1887  0.0516
  180MOL0     C24172   2.717   4.698  10.558  0.4920  0.3474  0.3433
  180MOL0     O24173   2.816   4.691  10.650  0.5547  0.4108  0.1612
  180MOL0     C24174   2.815   4.573  10.744  0.5065 -0.6424 -0.0095
  180MOL0     C24175   2.943   4.563  10.816  0.0190 -0.3077  0.1796
  180MOL0     C24176   2.964   4.690  10.901 -0.4914  0.2557 -0.0943
  180MOL0     C24177   3.117   4.708  10.927  0.2791 -0.0078 -0.5468
  180MOL0     C24178   3.151   4.847  10.973  0.3927  0.5849  0.2350
  180MOL0     C24179   3.295   4.864  11.003  0.1778 -0.4968  0.5107
  180MOL0     C24180   3.377   4.753  11.061 -0.2502 -0.4355  0.1518
  180MOL0     C24181   3.526   4.797  11.090 -0.3996 -0.6402 -0.5613
  180MOL0     N24182   3.617   4.690  11.152 -0.6220 -0.3547  0.2610
  180MOL0     C24183   3.740   4.650  11.112 -0.4900 -0.9118 -0.0624
  180MOL0     C24184   3.785   4.566  11.207 -0.1960 -1.6146 -0.4782
  180MOL0     C24185   3.908   4.488  11.203 -0.1801  0.6976 -0.6998
  180MOL0     C24186   3.872   4.353  11.143  0.0200  0.1727 -0.1846
  180MOL0     C24187   3.986   4.266  11.093 -0.1132 -0.5619 -0.1793
  180MOL0     C24188   3.932   4.137  11.022 -0.0573  0.3982  0.0438
  180MOL0     O24189   3.864   4.169  10.902 -0.2968 -0.2747 -0.2478
  180MOL0     C24190   3.917   4.156  10.773 -0.2327  0.1238 -0.4566
  180MOL0     C24191   3.857   4.236  10.678 -0.9656  0.6617  0.4678
  180MOL0     C24192   3.906   4.239  10.543  0.0683  0.4584 -0.9085
  180MOL0     C24193   3.834   4.323  10.439 -0.0514 -0.3449  0.1144
  180MOL0     C24194   4.019   4.167  10.511  0.3702  0.6690  0.3201
  180MOL0     C24195   4.078   4.164  10.372 -0.5262 -0.7262 -0.2643
  180MOL0     O24196   4.218   4.156  10.372 -0.0854 -0.3292  0.3126
  180MOL0     C24197   4.303   4.155  10.270 -1.5640  0.4092  0.2166
  180MOL0     C24198   4.271   4.144  10.135  1.0163  0.7010 -1.1483
  180MOL0     C24199   4.378   4.134  10.046  0.6793  0.6759  0.4132
  180MOL0     C24200   4.512   4.127  10.092  0.9664 -0.5403  1.1066
  180MOL0     O24201   4.617   4.112  10.001 -0.1048 -0.1921 -0.0343
  180MOL0     C24202   4.624   4.002   9.922 -0.3801  0.1025 -0.0228
  180MOL0     C24203   4.757   3.983   9.854  0.2355 -0.0382 -0.1730
  180MOL0     C24204   4.871   3.938   9.939  0.0312  0.1226 -0.3953
  180MOL0     C24205   5.007   3.943   9.863  0.6027  0.1256 -0.6481
  180MOL0     C24206   5.111   3.892   9.964 -0.6217 -0.5065  0.6260
  180MOL0     C24207   5.241   3.871   9.894  0.1351  0.2605 -0.5037
  180MOL0     C24208   5.360   3.838   9.984 -0.5966  0.4746 -0.3302
  180MOL0     C24209   5.494   3.825   9.912  0.5510 -0.9867 -0.8434
  180MOL0    Cl24210   5.609   3.730   9.997 -0.0089 -0.3737  0.0993
  180MOL0     C24211   4.535   4.136  10.232  0.0012 -0.6889 -0.3850
  180MOL0     C24212   4.433   4.138  10.326 -0.0666 -0.0683  0.7718
  180MOL0     O24213   4.013   4.164  10.267  0.8339 -0.1214 -0.5503
  180MOL0     C24214   4.090   4.103  10.612 -0.0791  0.1857 -0.3334
  180MOL0     C24215   4.049   4.105  10.745 -0.0165 -1.5341  1.2815
  180MOL0     N24216   3.687   4.562  11.305 -0.1358 -0.0412  0.1237
  180MOL0     N24217   3.586   4.632  11.274 -0.5198  0.1674  0.0240
  180MOL0     C24218   2.674   4.829  10.532  0.9468  0.7571 -0.0818
  180MOL0     C24219   2.577   4.851  10.436  0.3939  0.4735  0.4287
  180MOL0     C24220   2.186   4.774  10.203  0.1126 -0.3462  0.0054
  180MOL0     C24221   2.205   4.740  10.067 -0.2741  0.8297 -0.0103
  180MOL0     C24222   2.107   4.751   9.975  0.2869  0.5384 -0.5914
  180MOL0     C24223   1.976   4.784  10.007 -0.0349 -1.5457  0.0768
  180MOL0     O24224   1.872   4.786   9.926 -0.1599 -0.2078  0.8956
  180MOL0     C24225   1.899   4.758   9.786  0.0224 -0.9287 -0.3859
  180MOL0     C24226   1.772   4.761   9.707 -0.0600  0.5419 -0.5356
  180MOL0     C24227   1.681   4.642   9.755 -0.9472 -0.2191  0.2129
  180MOL0     C24228   1.535   4.637   9.709  0.9388  0.2850 -0.0962
  180MOL0     C24229   1.524   4.674   9.570  0.2260 -0.2447  0.3138
  180MOL0     C24230   1.507   4.704   9.457 -0.2719  0.0427  0.9699
  180MOL0     C24231   1.951   4.816  10.137 -0.6175 -0.2067  0.7002
  180MOL0     C24232   2.050   4.819  10.235  0.1207 -0.2191  0.0040
  180MOL0     H24233   2.542   4.520  10.350  1.1091  0.6527 -4.1579
  180MOL0     H24234   2.695   4.491  10.499  0.7687 -0.7978 -3.5765
  180MOL0     H24235   2.737   4.596  10.818  3.0562  0.9953  2.3400
  180MOL0     H24236   2.801   4.478  10.690 -1.8220  0.1845 -1.0042
  180MOL0     H24237   2.936   4.477  10.883  0.9530 -0.0080  0.6852
  180MOL0     H24238   3.023   4.547  10.743 -1.5961 -2.4557 -1.2282
  180MOL0     H24239   2.925   4.775  10.844  4.4441  2.1795 -1.1009
  180MOL0     H24240   2.913   4.666  10.994 -3.2364  1.6842 -1.1190
  180MOL0     H24241   3.149   4.642  11.008  2.0828  2.7722  1.2140
  180MOL0     H24242   3.175   4.677  10.840  2.8715 -1.1020  1.4194
  180MOL0     H24243   3.124   4.922  10.898 -1.2707 -1.8021 -1.7471
  180MOL0     H24244   3.087   4.866  11.060 -0.5668  0.5739 -0.4532
  180MOL0     H24245   3.337   4.911  10.913 -1.1351  1.5107  0.8899
  180MOL0     H24246   3.286   4.955  11.062 -4.6055 -0.2281 -0.3026
  180MOL0     H24247   3.336   4.719  11.156  1.5988  1.2340  1.6228
  180MOL0     H24248   3.373   4.664  10.996 -3.9260  1.0011 -1.9302
  180MOL0     H24249   3.519   4.886  11.153 -1.3034  0.5179 -2.2239
  180MOL0     H24250   3.566   4.831  10.994  1.3871 -2.6317 -0.5919
  180MOL0     H24251   3.786   4.679  11.018  0.5122 -1.6398  0.1854
  180MOL0     H24252   3.984   4.540  11.144 -0.6940  0.3728 -1.6883
  180MOL0     H24253   3.956   4.485  11.301  2.0045 -0.9659 -1.7341
  180MOL0     H24254   3.817   4.386  11.054  0.8046  1.3035 -0.2763
  180MOL0     H24255   3.816   4.291  11.214 -0.7087  1.1146  0.0886
  180MOL0     H24256   4.056   4.234  11.170 -1.3339 -3.3588 -0.0765
  180MOL0     H24257   4.043   4.314  11.013 -1.8019  0.9817 -0.5368
  180MOL0     H24258   3.854   4.103  11.090  2.1038 -0.6032  2.1675
  180MOL0     H24259   4.005   4.055  11.017 -1.0464 -0.4967 -0.1364
  180MOL0     H24260   3.773   4.297  10.711 -1.2862 -0.1129  1.1086
  180MOL0     H24261   3.751   4.379  10.485 -0.4779 -0.7460 -0.1650
  180MOL0     H24262   3.907   4.397  10.406 -0.6132  1.1104  1.8956
  180MOL0     H24263   3.788   4.273  10.354 -2.4378  1.9692 -0.1138
  180MOL0     H24264   4.172   4.112  10.105  1.1783  0.8001 -1.8152
  180MOL0     H24265   4.352   4.139   9.941  1.7624  1.4028  0.1769
  180MOL0     H24266   4.617   3.905   9.972  1.4454  0.3842  0.8624
  180MOL0     H24267   4.534   3.998   9.860  0.1625  2.5330 -1.0713
  180MOL0     H24268   4.742   3.905   9.780  1.9101 -0.3610 -0.2232
  180MOL0     H24269   4.787   4.077   9.806 -2.1177  0.0438 -1.6023
  180MOL0     H24270   4.842   3.839   9.975 -2.8710  0.5431 -1.3127
  180MOL0     H24271   4.885   3.998  10.029  0.0845  0.2977 -0.5206
  180MOL0     H24272   4.998   3.876   9.777  0.3465  1.4356 -1.6774
  180MOL0     H24273   5.031   4.041   9.822 -1.9500  1.4752  0.8277
  180MOL0     H24274   5.075   3.798  10.007 -0.5924  0.4186  2.8481
  180MOL0     H24275   5.124   3.952  10.055  1.4541  1.2106 -0.7046
  180MOL0     H24276   5.234   3.790   9.821  1.2626  1.1262 -1.6308
  180MOL0     H24277   5.266   3.960   9.835  1.7529 -0.3798 -0.8315
  180MOL0     H24278   5.340   3.745  10.038  0.3339 -0.1965 -1.1006
  180MOL0     H24279   5.374   3.927  10.046  2.0860 -1.4163  2.0812
  180MOL0     H24280   5.527   3.924   9.882 -1.1635 -0.4988 -1.2250
  180MOL0     H24281   5.471   3.776   9.817 -0.5789 -4.1295  0.8929
  180MOL0     H24282   4.634   4.149  10.275  0.1133 -0.3124 -0.7597
  180MOL0     H24283   4.465   4.153  10.428  2.9666 -0.0898 -0.0820
  180MOL0     H24284   4.174   4.045  10.575  0.7577  1.3990 -0.4029
  180MOL0     H24285   4.108   4.050  10.817  2.6105 -0.6590 -0.0759
  180MOL0     H24286   2.720   4.915  10.581  4.0941 -1.3926  1.0768
  180MOL0     H24287   2.547   4.954  10.423  0.4344  0.8259  2.8095
  180MOL0     H24288   2.299   4.693  10.044 -0.7153 -0.3164  0.4292
  180MOL0     H24289   2.140   4.729   9.874  1.6556  2.3919 -0.6015
  180MOL0     H24290   1.963   4.833   9.740  0.4539 -1.8037 -1.2433
  180MOL0     H24291   1.947   4.660   9.772 -0.2178 -1.0510 -0.3736
  180MOL0     H24292   1.807   4.745   9.605  1.0165 -2.0000  0.1473
  180MOL0     H24293   1.722   4.858   9.715  1.3964  1.4421 -1.7593
  180MOL0     H24294   1.668   4.653   9.863 -0.7054  1.5730  0.0899
  180MOL0     H24295   1.729   4.547   9.727 -0.7968  0.5621 -2.5166
  180MOL0     H24296   1.483   4.713   9.768  1.1972 -0.3000  0.8999
  180MOL0     H24297   1.493   4.543   9.745  3.2046 -0.5731  0.4601
  180MOL0     H24298   1.484   4.741   9.360  3.2062  0.1637  0.0536
  180MOL0     H24299   1.858   4.863  10.166  0.8445  1.9732  2.1981
  180MOL0     H24300   2.026   4.855  10.334 -1.6481 -1.2436  0.0076
  181MOL0     O24301   7.472   9.924   8.307 -0.7527  0.6405  0.2539
  181MOL0     C24302   7.595   9.949   8.316  0.1166 -0.2347  0.1397
  181MOL0     O24303   7.642  10.064   8.357 -0.3057  0.5254  0.2333
  181MOL0     C24304   7.561  10.169   8.389 -0.0277  0.1520  0.6895
  181MOL0     C24305   7.482  10.233   8.291 -0.0958  0.1553  0.3353
  181MOL0     C24306   7.393  10.325   8.324  0.5899 -0.1531 -0.3417
  181MOL0     C24307   7.363  10.343   8.456  0.0757  0.4286  0.8223
  181MOL0     O24308   7.249  10.400   8.488  0.0785 -0.6941  0.0680
  181MOL0     C24309   7.262  10.546   8.466  0.1619 -0.6949  0.7506
  181MOL0     C24310   7.136  10.625   8.524  0.1556 -0.4260  0.6703
  181MOL0     C24311   7.018  10.615   8.425  0.0380 -0.5898 -0.4594
  181MOL0     C24312   6.884  10.598   8.493  0.0283 -0.3745  0.2429
  181MOL0     C24313   6.760  10.638   8.387  0.0571  0.8581 -0.6652
  181MOL0     C24314   6.632  10.551   8.408 -0.2858 -0.2640  0.3687
  181MOL0     C24315   6.543  10.544   8.283  0.4968 -0.2328 -0.6384
  181MOL0     C24316   6.595  10.434   8.196  0.7801  0.2997 -0.4747
  181MOL0     N24317   6.603  10.475   8.056 -0.7611  0.2786 -0.5088
  181MOL0     C24318   6.506  10.469   7.955 -0.1969  0.2418 -0.7401
  181MOL0     C24319   6.579  10.464   7.841 -0.1406 -0.5999  0.3389
  181MOL0     C24320   6.526  10.484   7.703 -0.2733  0.0583  0.1370
  181MOL0     C24321   6.446  10.368   7.650 -0.0695  0.1059  0.6198
  181MOL0     C24322   6.491  10.236   7.697  0.1624  0.5483 -0.3817
  181MOL0     C24323   6.409  10.115   7.623 -0.6530 -0.5490 -0.2851
  181MOL0     O24324   6.462   9.986   7.654  0.7015 -0.3401  0.4914
  181MOL0     C24325   6.388   9.875   7.616  0.3712 -0.3519 -0.0357
  181MOL0     C24326   6.412   9.759   7.657 -0.0400  1.5033  0.0684
  181MOL0     C24327   6.339   9.637   7.637 -0.4236 -0.3498 -0.3116
  181MOL0     C24328   6.381   9.504   7.709  0.1222  0.6108  0.0513
  181MOL0     C24329   6.239   9.641   7.540  0.6461 -0.2987 -1.6826
  181MOL0     C24330   6.152   9.523   7.510 -0.9668 -0.9842 -0.2644
  181MOL0     O24331   6.220   9.428   7.439  0.0003 -0.3199  0.0364
  181MOL0     C24332   6.163   9.306   7.407 -0.2440 -0.0845  0.5902
  181MOL0     C24333   6.229   9.181   7.443 -0.3431 -0.5380 -0.6827
  181MOL0     C24334   6.175   9.062   7.390 -0.2564  0.2215 -1.2092
  181MOL0     C24335   6.076   9.064   7.293  0.0658 -0.2887  1.0561
  181MOL0     O24336   6.027   8.949   7.221  0.1596  0.6098  0.1398
  181MOL0     C24337   6.118   8.845   7.177  0.2616  0.0673 -0.1949
  181MOL0     C24338   6.080   8.787   7.047  0.4271 -0.2967  0.5574
  181MOL0     C24339   6.126   8.857   6.920  0.5290  0.7485  0.3758
  181MOL0     C24340   6.086   8.772   6.796  0.3191 -0.5712 -1.3446
  181MOL0     C24341   6.119   8.848   6.669  0.7644 -0.1040 -0.6454
  181MOL0     C24342   6.259   8.814   6.615  0.3355  0.0261  0.3369
  181MOL0     C24343   6.368   8.858   6.720  0.5946 -0.0834  0.8988
  181MOL0     C24344   6.497   8.890   6.654  0.1473  0.2140  0.3127
  181MOL0    Cl24345   6.560   8.758   6.564 -0.1249 -0.2421 -0.2975
  181MOL0     C24346   6.018   9.195   7.258 -0.2485  0.5688 -0.7015
  181MOL0     C24347   6.063   9.313   7.314  1.1162  0.2121 -0.3728
  181MOL0     O24348   6.035   9.530   7.550 -0.0808  0.5975  0.1862
  181MOL0     C24349   6.199   9.761   7.497 -0.9498 -0.6698  0.4299
  181MOL0     C24350   6.274   9.880   7.529 -0.7299  0.4862  0.7709
  181MOL0     N24351   6.714  10.468   7.871 -0.1086  0.1758  0.0302
  181MOL0     N24352   6.729  10.465   7.997 -0.0336 -0.0874 -0.6198
  181MOL0     C24353   7.442  10.295   8.558 -0.0984 -0.0403 -0.5321
  181MOL0     C24354   7.546  10.205   8.532 -1.2548 -0.5896 -0.1170
  181MOL0     C24355   7.686   9.847   8.280  0.3410  0.0936  0.0466
  181MOL0     C24356   7.645   9.739   8.202  0.0709 -0.3017  0.1781
  181MOL0     C24357   7.737   9.646   8.155 -0.2198 -0.0685 -0.2296
  181MOL0     C24358   7.874   9.652   8.191  1.0944  0.8710 -0.0664
  181MOL0     O24359   7.960   9.561   8.141  0.2935  0.5728  0.1978
  181MOL0     C24360   7.904   9.438   8.113  0.3630  0.8128  0.5116
  181MOL0     C24361   8.013   9.329   8.105 -0.5739 -0.0682 -0.1045
  181MOL0     C24362   7.973   9.175   8.114  0.6090  0.4881 -0.3687
  181MOL0     C24363   8.089   9.081   8.156 -0.2267 -0.0838 -0.4127
  181MOL0     C24364   8.214   9.097   8.079  0.3911  0.8863  0.2236
  181MOL0     C24365   8.315   9.109   8.029 -0.6630  0.1073 -0.6917
  181MOL0     C24366   7.919   9.757   8.271  0.8179  0.8317 -0.1080
  181MOL0     C24367   7.821   9.856   8.312 -0.4422  0.0327 -0.8559
  181MOL0     H24368   7.492  10.215   8.185 -1.1877  1.7268 -0.0596
  181MOL0     H24369   7.317  10.363   8.256  0.1268 -0.0467  0.2245
  181MOL0     H24370   7.346  10.599   8.513  2.9935 -1.1876 -3.1977
  181MOL0     H24371   7.263  10.560   8.357 -2.1723  0.2627  0.8049
  181MOL0     H24372   7.116  10.580   8.621 -0.2050 -1.5630  0.0905
  181MOL0     H24373   7.155  10.733   8.536 -4.7380  0.4340  2.9606
  181MOL0     H24374   7.008  10.702   8.360  2.7292 -1.2836 -1.9375
  181MOL0     H24375   7.040  10.528   8.362  3.9893 -0.9056  1.1139
  181MOL0     H24376   6.876  10.494   8.526 -3.6160 -0.2755  0.0159
  181MOL0     H24377   6.882  10.666   8.578 -1.6000  0.7971 -0.6660
  181MOL0     H24378   6.741  10.746   8.388 -1.9347  0.5485 -0.9887
  181MOL0     H24379   6.801  10.607   8.291  0.4703  1.4106 -0.6789
  181MOL0     H24380   6.655  10.452   8.449 -0.2797 -0.1868  0.5501
  181MOL0     H24381   6.578  10.602   8.488 -1.4206  0.3253 -0.7438
  181MOL0     H24382   6.440  10.522   8.312  1.2182  1.1719  3.6927
  181MOL0     H24383   6.553  10.639   8.230  2.6555 -0.4573 -0.7496
  181MOL0     H24384   6.530  10.346   8.207 -0.8783  1.7225  2.1465
  181MOL0     H24385   6.698  10.405   8.221  0.7345 -0.1203 -0.7520
  181MOL0     H24386   6.399  10.463   7.972 -0.3711  1.4683 -1.3357
  181MOL0     H24387   6.470  10.577   7.697 -3.0813 -1.6237 -2.7638
  181MOL0     H24388   6.613  10.488   7.636 -1.7496  0.9752 -1.8033
  181MOL0     H24389   6.433  10.359   7.542 -0.0273  4.9111  0.0104
  181MOL0     H24390   6.342  10.378   7.682 -0.4388  0.3358 -0.5836
  181MOL0     H24391   6.477  10.229   7.806 -2.8184  1.2707 -0.6367
  181MOL0     H24392   6.598  10.228   7.676  0.5855  2.8444  0.5821
  181MOL0     H24393   6.415  10.141   7.517 -2.1084  0.7104 -0.0864
  181MOL0     H24394   6.300  10.118   7.637 -0.4676  0.3019  1.1802
  181MOL0     H24395   6.491   9.766   7.732  2.0958  2.3062 -2.1190
  181MOL0     H24396   6.456   9.528   7.785 -1.1495  0.5153  1.3630
  181MOL0     H24397   6.306   9.451   7.767  2.0555 -1.0392  1.1950
  181MOL0     H24398   6.421   9.438   7.631 -1.1902 -0.3839  0.1911
  181MOL0     H24399   6.319   9.193   7.504 -1.1148  3.3912 -0.0206
  181MOL0     H24400   6.222   8.966   7.409 -1.8172 -0.5628 -1.1784
  181MOL0     H24401   6.218   8.887   7.166  0.6718 -1.1252 -1.2055
  181MOL0     H24402   6.122   8.769   7.256  0.1310 -4.1807 -3.8845
  181MOL0     H24403   6.115   8.683   7.039  1.4351  0.1429 -1.3982
  181MOL0     H24404   5.971   8.781   7.049  0.2932  1.3575 -0.0108
  181MOL0     H24405   6.230   8.891   6.923  0.0778  2.8570 -3.1276
  181MOL0     H24406   6.085   8.958   6.919 -2.5673 -0.1481  4.6188
  181MOL0     H24407   6.132   8.673   6.785 -0.3809 -1.0295 -0.2761
  181MOL0     H24408   5.979   8.749   6.799 -0.0121  0.5897  3.9097
  181MOL0     H24409   6.117   8.956   6.689  1.9985 -0.0852 -0.5515
  181MOL0     H24410   6.057   8.807   6.588 -1.2205  1.0170  0.2494
  181MOL0     H24411   6.262   8.707   6.593  1.7621  0.2155 -0.4950
  181MOL0     H24412   6.273   8.882   6.531  1.8077  1.3163  1.5601
  181MOL0     H24413   6.372   8.778   6.794 -0.4985 -0.6501  0.3790
  181MOL0     H24414   6.341   8.953   6.768  1.4919  0.6528 -0.0011
  181MOL0     H24415   6.574   8.916   6.728  3.2698 -1.3175 -2.1193
  181MOL0     H24416   6.490   8.979   6.591 -2.3328  0.8502  1.3662
  181MOL0     H24417   5.931   9.193   7.192 -2.1342 -2.7977  1.5450
  181MOL0     H24418   6.008   9.405   7.295 -1.3174 -0.6573  1.8665
  181MOL0     H24419   6.101   9.770   7.450 -0.5812 -0.2876 -0.2762
  181MOL0     H24420   6.246   9.978   7.495  1.8534  0.7433 -0.9073
  181MOL0     H24421   7.412  10.317   8.660 -1.5392 -0.8824 -0.7338
  181MOL0     H24422   7.614  10.160   8.604 -1.9898  0.6358  1.3984
  181MOL0     H24423   7.539   9.728   8.186 -0.1519  0.5083  1.0082
  181MOL0     H24424   7.690   9.566   8.100  3.1828 -1.1361 -1.8531
  181MOL0     H24425   7.839   9.414   8.197  0.7021  1.3520  0.9389
  181MOL0     H24426   7.860   9.441   8.013  0.4930 -0.9324  0.3740
  181MOL0     H24427   8.080   9.343   8.190 -1.9596 -1.2949  1.2546
  181MOL0     H24428   8.076   9.343   8.017 -0.6153 -0.5451 -0.2125
  181MOL0     H24429   7.945   9.142   8.014 -1.9329  1.3056  0.0149
  181MOL0     H24430   7.898   9.161   8.192  1.0592  1.1529  0.1971
  181MOL0     H24431   8.064   8.975   8.145  0.8603 -0.2744 -1.1736
  181MOL0     H24432   8.123   9.103   8.257  2.3251 -3.3066 -0.3784
  181MOL0     H24433   8.402   9.116   7.968 -0.9324 -1.3119 -1.2689
  181MOL0     H24434   8.025   9.772   8.287  1.1344  1.1211 -2.2273
  181MOL0     H24435   7.858   9.940   8.369 -0.2888 -0.5444 -0.0941
  182MOL0     O24436   4.465   1.641   2.292 -0.5143 -0.3730  0.2117
  182MOL0     C24437   4.576   1.608   2.248 -0.1150 -0.5190 -0.1293
  182MOL0     O24438   4.618   1.484   2.211 -0.1993 -0.0917  0.2707
  182MOL0     C24439   4.533   1.374   2.243  1.1715 -0.5105 -0.1144
  182MOL0     C24440   4.525   1.313   2.375  0.5296  0.1077 -0.3835
  182MOL0     C24441   4.441   1.204   2.396  0.4226 -0.0312 -0.0448
  182MOL0     C24442   4.369   1.146   2.299 -0.1923  0.5657  1.2457
  182MOL0     O24443   4.282   1.038   2.314 -0.8264 -0.0560 -0.2565
  182MOL0     C24444   4.360   0.911   2.329  0.0391  0.2101 -0.2406
  182MOL0     C24445   4.284   0.807   2.259  0.4788  0.7940 -0.3387
  182MOL0     C24446   4.159   0.765   2.346  0.4020 -1.0010  0.0401
  182MOL0     C24447   4.051   0.708   2.256 -1.5574 -0.2574 -0.0629
  182MOL0     C24448   3.919   0.683   2.331  0.5312 -1.0284 -0.4401
  182MOL0     C24449   3.817   0.620   2.243 -0.0720 -0.1319  0.4251
  182MOL0     C24450   3.680   0.595   2.318 -0.3248 -0.8694 -0.2416
  182MOL0     C24451   3.581   0.494   2.262 -0.5829 -0.5326 -0.2303
  182MOL0     N24452   3.635   0.352   2.249  0.1817 -0.3950 -0.0174
  182MOL0     C24453   3.723   0.293   2.159  0.8682 -0.1110 -0.0385
  182MOL0     C24454   3.705   0.156   2.177  0.7972 -0.3608  0.3321
  182MOL0     C24455   3.789   0.051   2.111  0.3869 -0.9155 -0.4903
  182MOL0     C24456   3.720   0.015   1.982 -0.1060  0.1825 -0.3849
  182MOL0     C24457   3.800  -0.073   1.892  0.1330 -0.1106  0.1952
  182MOL0     C24458   3.787  -0.232   1.931  0.6796 -1.0880  0.2179
  182MOL0     O24459   3.664  -0.275   1.991 -0.6304  0.2159  0.5187
  182MOL0     C24460   3.647  -0.407   2.009  0.4888  0.5586  0.3825
  182MOL0     C24461   3.741  -0.517   2.004  0.3496 -0.1868 -0.8315
  182MOL0     C24462   3.697  -0.645   2.003  0.6049  0.3352  0.0490
  182MOL0     C24463   3.803  -0.754   2.005 -0.3519  1.0968  0.5336
  182MOL0     C24464   3.556  -0.670   2.030 -0.1531  1.2557  0.5879
  182MOL0     C24465   3.501  -0.802   2.054  1.1581 -1.8224  0.8911
  182MOL0     O24466   3.367  -0.835   2.019  0.5663 -0.7221 -0.6288
  182MOL0     C24467   3.301  -0.945   2.061 -0.7412  0.3425  0.6786
  182MOL0     C24468   3.363  -1.068   2.060 -0.0731  0.8647 -0.1356
  182MOL0     C24469   3.294  -1.174   2.104  0.1658 -0.3950 -0.2183
  182MOL0     C24470   3.152  -1.170   2.129  0.2273 -0.2333  0.1881
  182MOL0     O24471   3.084  -1.276   2.183  0.0067  0.1160  0.2660
  182MOL0     C24472   3.137  -1.334   2.311  0.3349 -0.4756 -0.6889
  182MOL0     C24473   3.120  -1.488   2.300  0.0911 -1.0127  0.1830
  182MOL0     C24474   3.154  -1.558   2.432  0.1106  0.4312 -0.7076
  182MOL0     C24475   3.050  -1.539   2.534 -0.3835 -0.6080 -0.7786
  182MOL0     C24476   3.088  -1.556   2.685 -1.2217 -0.3222 -0.3170
  182MOL0     C24477   2.958  -1.566   2.776 -0.5735 -0.2127  0.4940
  182MOL0     C24478   2.995  -1.559   2.921  0.4179  0.1961  1.0365
  182MOL0     C24479   3.045  -1.701   2.955  0.7647  0.1509 -0.3256
  182MOL0    Cl24480   3.052  -1.688   3.135  0.0168  0.0840 -0.2136
  182MOL0     C24481   3.085  -1.045   2.105 -0.0725  1.1976 -0.6347
  182MOL0     C24482   3.158  -0.936   2.073 -0.0163 -0.0166  0.3157
  182MOL0     O24483   3.566  -0.869   2.126  0.2642 -0.4413 -0.3641
  182MOL0     C24484   3.466  -0.566   2.026 -0.6518  0.2563  0.7796
  182MOL0     C24485   3.513  -0.436   2.007  0.4537 -0.0847  0.3090
  182MOL0     N24486   3.600   0.137   2.273  0.3494 -0.0871 -0.0103
  182MOL0     N24487   3.569   0.253   2.315  0.5082  0.6231  0.2890
  182MOL0     C24488   4.370   1.201   2.168  0.9776  1.4047 -0.9519
  182MOL0     C24489   4.456   1.309   2.149  0.2342  0.7549  0.3804
  182MOL0     C24490   4.668   1.716   2.208 -0.6563 -0.0278  0.4113
  182MOL0     C24491   4.763   1.696   2.108 -1.1991 -0.1002 -0.0870
  182MOL0     C24492   4.836   1.804   2.063 -0.3071 -0.0419 -0.4047
  182MOL0     C24493   4.836   1.924   2.129  0.4241  0.0698 -0.1629
  182MOL0     O24494   4.900   2.032   2.082 -0.6101 -0.0599  0.2635
  182MOL0     C24495   4.848   2.109   1.975 -0.5771  1.1009  0.0359
  182MOL0     C24496   4.880   2.044   1.837 -0.5013 -0.5025 -0.0179
  182MOL0     C24497   4.842   2.138   1.720 -0.2734 -0.2497 -0.0220
  182MOL0     C24498   4.895   2.096   1.587 -0.5897  0.4284  0.5585
  182MOL0     C24499   4.901   2.208   1.490  0.9236  0.7235 -0.0214
  182MOL0     C24500   4.908   2.311   1.420 -0.4221 -0.3512  0.4310
  182MOL0     C24501   4.749   1.947   2.232 -1.2612  0.4453  0.2882
  182MOL0     C24502   4.674   1.839   2.271  0.5520 -0.1760 -0.4403
  182MOL0     H24503   4.586   1.354   2.455  0.6174  0.4365 -0.6169
  182MOL0     H24504   4.445   1.151   2.490  2.0160 -0.1363 -0.1493
  182MOL0     H24505   4.457   0.930   2.281 -0.7028  4.9524 -0.3452
  182MOL0     H24506   4.380   0.873   2.429 -2.0805  0.4164  0.3045
  182MOL0     H24507   4.261   0.843   2.158 -0.8421  3.1877  0.7331
  182MOL0     H24508   4.361   0.729   2.257  1.1347  1.4092  0.4014
  182MOL0     H24509   4.185   0.686   2.417 -2.2160 -3.8844 -1.9732
  182MOL0     H24510   4.125   0.856   2.396  0.3973  0.2199 -2.0682
  182MOL0     H24511   4.041   0.771   2.167  0.9961  0.8600  0.3591
  182MOL0     H24512   4.089   0.613   2.219  1.8875  1.8548 -2.5758
  182MOL0     H24513   3.939   0.617   2.416 -1.9979 -1.7704 -0.3316
  182MOL0     H24514   3.889   0.783   2.362  0.9041 -0.4504 -1.8838
  182MOL0     H24515   3.804   0.689   2.159 -3.6397 -1.9885 -0.7398
  182MOL0     H24516   3.854   0.526   2.201  3.7283  1.2576  0.3328
  182MOL0     H24517   3.710   0.560   2.417  1.9651 -0.5066 -0.7502
  182MOL0     H24518   3.625   0.687   2.339 -0.1684 -1.5582  4.1467
  182MOL0     H24519   3.559   0.516   2.157 -2.3695  0.2822  0.2716
  182MOL0     H24520   3.492   0.499   2.326 -0.6371  0.7374 -0.3682
  182MOL0     H24521   3.788   0.356   2.098  0.1246  3.2672  2.3593
  182MOL0     H24522   3.885   0.097   2.085 -0.0222  0.7259  0.7390
  182MOL0     H24523   3.801  -0.044   2.165  1.7588 -2.1292 -2.7440
  182MOL0     H24524   3.700   0.111   1.933 -1.0030 -1.5938 -3.8779
  182MOL0     H24525   3.629  -0.041   2.006  0.0478 -0.1543 -0.5757
  182MOL0     H24526   3.907  -0.051   1.890  0.5589 -1.8245 -2.9562
  182MOL0     H24527   3.767  -0.058   1.789  2.6341  2.6281 -0.3396
  182MOL0     H24528   3.874  -0.249   1.996  0.3639  0.5609  1.1302
  182MOL0     H24529   3.802  -0.301   1.848 -1.7602 -0.8491 -0.4901
  182MOL0     H24530   3.848  -0.499   2.004  0.7341 -1.2219  3.6738
  182MOL0     H24531   3.883  -0.717   1.939 -0.3185 -2.6100 -1.8462
  182MOL0     H24532   3.839  -0.765   2.107  1.1002 -0.5967 -0.0919
  182MOL0     H24533   3.751  -0.842   1.968  0.9021  0.1108  1.0318
  182MOL0     H24534   3.469  -1.073   2.037 -0.3594 -1.3151 -1.1922
  182MOL0     H24535   3.342  -1.269   2.122 -0.2157 -1.1531 -2.8348
  182MOL0     H24536   3.245  -1.322   2.329  0.2277 -1.1241  0.5048
  182MOL0     H24537   3.090  -1.292   2.401 -0.8162  0.1102 -1.5506
  182MOL0     H24538   3.019  -1.513   2.266  1.0708 -3.6431 -1.1210
  182MOL0     H24539   3.176  -1.537   2.219 -2.1776 -2.1331 -0.8007
  182MOL0     H24540   3.244  -1.511   2.471 -1.5271  2.0470  1.3655
  182MOL0     H24541   3.178  -1.663   2.413  0.8131  0.4953 -0.2010
  182MOL0     H24542   3.008  -1.439   2.521  1.4817  0.5158  1.1741
  182MOL0     H24543   2.973  -1.616   2.524 -1.5202  0.4689 -0.4968
  182MOL0     H24544   3.152  -1.470   2.706 -1.0144 -0.2547 -1.1636
  182MOL0     H24545   3.152  -1.643   2.703 -0.7315 -0.0442 -0.6937
  182MOL0     H24546   2.891  -1.487   2.742  0.4840 -0.7243 -3.2860
  182MOL0     H24547   2.918  -1.664   2.747 -0.9440 -0.5312  1.9946
  182MOL0     H24548   2.899  -1.551   2.972 -0.2670 -3.4776  0.6414
  182MOL0     H24549   3.063  -1.476   2.943  2.7221 -0.9952 -1.0329
  182MOL0     H24550   3.141  -1.722   2.906  0.0085  0.5879 -2.0843
  182MOL0     H24551   2.972  -1.776   2.924  1.8673 -0.6134 -1.1556
  182MOL0     H24552   2.977  -1.037   2.114 -0.4310 -2.9032  0.9671
  182MOL0     H24553   3.106  -0.842   2.066  0.2780  0.0767 -0.7817
  182MOL0     H24554   3.358  -0.576   2.033 -0.4578 -1.7902  1.5798
  182MOL0     H24555   3.445  -0.352   2.019  0.2413 -0.4288  1.7569
  182MOL0     H24556   4.311   1.165   2.084  0.5480 -0.9827  0.2730
  182MOL0     H24557   4.448   1.338   2.044 -0.9922 -5.1272 -1.5626
  182MOL0     H24558   4.773   1.610   2.042  0.4948  1.9978 -2.8004
  182MOL0     H24559   4.895   1.790   1.973 -1.9697  1.9657 -1.9220
  182MOL0     H24560   4.739   2.118   1.982 -0.5511  0.6460  1.4550
  182MOL0     H24561   4.891   2.209   1.986  2.8158 -0.1329 -0.7249
  182MOL0     H24562   4.822   1.952   1.836  0.3688 -1.1599  2.6896
  182MOL0     H24563   4.986   2.018   1.828 -0.7420 -1.5275  0.0377
  182MOL0     H24564   4.879   2.238   1.749  2.1440 -0.6221 -1.5368
  182MOL0     H24565   4.734   2.144   1.705 -0.1739 -1.6162 -1.4700
  182MOL0     H24566   4.841   2.013   1.540  4.7565 -3.2586  0.0473
  182MOL0     H24567   4.996   2.056   1.599 -1.0005 -0.1936  2.1052
  182MOL0     H24568   4.915   2.396   1.356  2.6282  0.2295  1.3903
  182MOL0     H24569   4.743   2.044   2.281 -4.1320  1.3126 -1.5395
  182MOL0     H24570   4.598   1.868   2.343  3.3428  1.0423  2.2220
  183MOL0     O24571   1.111   8.717  11.349  0.8047 -0.0132 -0.0511
  183MOL0     C24572   1.047   8.757  11.449  0.9291  0.8074 -0.2111
  183MOL0     O24573   0.941   8.855  11.447 -1.4588  0.5394  0.2100
  183MOL0     C24574   0.907   8.908  11.328 -0.3722 -1.7223  0.6115
  183MOL0     C24575   0.900   9.044  11.339  0.3607 -0.4442  0.0525
  183MOL0     C24576   0.846   9.123  11.233 -0.1951  0.5132 -0.1496
  183MOL0     C24577   0.796   9.065  11.115 -0.1830  0.3734 -0.3147
  183MOL0     O24578   0.741   9.139  11.010  0.1515 -1.0037  0.8359
  183MOL0     C24579   0.654   9.239  11.063 -1.0642 -0.2289 -0.7947
  183MOL0     C24580   0.540   9.255  10.968  1.4586 -1.0051  0.3595
  183MOL0     C24581   0.558   9.367  10.859 -0.5607  0.2556 -0.0121
  183MOL0     C24582   0.668   9.336  10.754 -0.1891 -0.2865 -0.2988
  183MOL0     C24583   0.655   9.438  10.641  0.6843 -0.3755 -0.1335
  183MOL0     C24584   0.549   9.397  10.536  1.4249 -0.4832 -0.2335
  183MOL0     C24585   0.590   9.430  10.390  0.1699 -0.9914  0.0765
  183MOL0     C24586   0.591   9.585  10.370 -0.0403 -0.8563  0.1346
  183MOL0     N24587   0.592   9.603  10.227  0.4093  0.9941 -0.2368
  183MOL0     C24588   0.686   9.561  10.136 -0.2322 -0.0698 -0.1609
  183MOL0     C24589   0.669   9.620  10.019  0.0914 -1.1395  0.1490
  183MOL0     C24590   0.748   9.618   9.895 -0.1937  0.3189 -0.2339
  183MOL0     C24591   0.858   9.735   9.890  0.4492  0.4977  0.3732
  183MOL0     C24592   0.937   9.750   9.760  0.8513 -1.1485  0.2683
  183MOL0     C24593   0.858   9.739   9.639  0.0769 -0.1019  0.0135
  183MOL0     O24594   0.841   9.596   9.613 -0.0126 -0.2446 -0.2147
  183MOL0     C24595   0.949   9.537   9.549 -0.1898 -0.0936  0.1481
  183MOL0     C24596   1.080   9.583   9.523 -0.1213 -0.2160 -1.0320
  183MOL0     C24597   1.180   9.522   9.448 -0.0405  0.3753  0.0985
  183MOL0     C24598   1.312   9.591   9.435  0.6842 -0.3405 -0.4171
  183MOL0     C24599   1.155   9.387   9.412 -0.3336  1.2027  0.1242
  183MOL0     C24600   1.260   9.296   9.345  0.1401 -0.7388 -0.5195
  183MOL0     O24601   1.214   9.216   9.243 -0.6096 -0.0111 -0.4249
  183MOL0     C24602   1.307   9.144   9.175  0.4241 -0.9355  0.1730
  183MOL0     C24603   1.364   9.026   9.229 -1.1519  0.4071 -0.4257
  183MOL0     C24604   1.433   8.930   9.147 -0.9036  0.7830  0.0541
  183MOL0     C24605   1.474   8.977   9.020  1.4777 -0.2077  0.1672
  183MOL0     O24606   1.557   8.897   8.938  0.0234  1.5422 -0.4555
  183MOL0     C24607   1.654   8.810   8.990  0.3167 -0.1888  0.4959
  183MOL0     C24608   1.692   8.714   8.876 -0.6952 -0.4266 -0.1910
  183MOL0     C24609   1.828   8.654   8.901  0.4680 -0.4747  0.1706
  183MOL0     C24610   1.864   8.553   8.787  0.2175  0.1208  0.0647
  183MOL0     C24611   2.013   8.557   8.763 -0.6680 -0.1802  1.2647
  183MOL0     C24612   2.087   8.530   8.897  0.5790 -0.5851 -0.9642
  183MOL0     C24613   2.243   8.498   8.883 -0.4206 -0.5787 -0.5229
  183MOL0     C24614   2.316   8.630   8.841  0.5561 -0.3093 -1.3866
  183MOL0    Cl24615   2.329   8.734   8.986  0.1464 -0.0533  0.1343
  183MOL0     C24616   1.425   9.101   8.971  0.3101  0.0353  1.3356
  183MOL0     C24617   1.337   9.187   9.049  1.3115  0.6689 -0.4272
  183MOL0     O24618   1.379   9.302   9.391 -0.7849  0.5615  0.3973
  183MOL0     C24619   1.022   9.331   9.426 -0.1718  0.1338  0.1458
  183MOL0     C24620   0.923   9.407   9.498 -0.3830 -1.1504 -0.4116
  183MOL0     N24621   0.556   9.699  10.041  0.5555 -0.7479 -0.3052
  183MOL0     N24622   0.502   9.680  10.156 -0.2844 -0.2053 -0.7058
  183MOL0     C24623   0.803   8.930  11.107  0.6295  0.6581 -0.6458
  183MOL0     C24624   0.856   8.848  11.212  0.5635 -0.4414  0.1673
  183MOL0     C24625   1.063   8.683  11.576 -0.5380 -0.4449 -0.3775
  183MOL0     C24626   1.179   8.602  11.588  0.7262 -0.3250  0.8121
  183MOL0     C24627   1.221   8.563  11.712 -0.1376 -0.3072  0.0323
  183MOL0     C24628   1.147   8.602  11.829 -0.3909  0.3378 -0.2440
  183MOL0     O24629   1.190   8.569  11.945 -0.4719  0.0043 -0.3950
  183MOL0     C24630   1.103   8.517  12.045  0.7185 -1.1407  0.5116
  183MOL0     C24631   1.133   8.367  12.075  0.6668 -0.6236 -0.4877
  183MOL0     C24632   1.268   8.340  12.150  0.0370 -0.1724 -0.6077
  183MOL0     C24633   1.274   8.189  12.198  0.3903 -0.2233 -0.5064
  183MOL0     C24634   1.286   8.103  12.079  0.8710  0.1377  0.3623
  183MOL0     C24635   1.327   8.037  11.980  0.8282 -0.0781 -0.4710
  183MOL0     C24636   1.035   8.692  11.816  0.1394 -1.2913  0.0594
  183MOL0     C24637   0.989   8.724  11.695  0.1471 -1.1841  0.9488
  183MOL0     H24638   0.949   9.095  11.421  1.5598  1.1133 -1.5665
  183MOL0     H24639   0.847   9.231  11.239  1.5264  0.5748 -1.1257
  183MOL0     H24640   0.614   9.207  11.159 -0.0194 -1.0966 -0.6291
  183MOL0     H24641   0.695   9.337  11.087 -4.2576  0.6569  1.8863
  183MOL0     H24642   0.531   9.159  10.917 -0.7936 -0.4522 -0.4038
  183MOL0     H24643   0.452   9.275  11.029  0.6943 -0.6266 -0.8458
  183MOL0     H24644   0.463   9.392  10.811  1.0356  4.6659 -1.2789
  183MOL0     H24645   0.590   9.467  10.889 -0.1148 -0.0658  0.6214
  183MOL0     H24646   0.767   9.351  10.798 -0.7243 -0.4483  1.0077
  183MOL0     H24647   0.656   9.241  10.702  0.2717 -0.6418  0.2313
  183MOL0     H24648   0.636   9.533  10.693 -2.8013 -0.7651 -0.4568
  183MOL0     H24649   0.750   9.461  10.592  0.6687 -1.2789 -0.6058
  183MOL0     H24650   0.529   9.290  10.547 -2.0879  0.2143  1.8126
  183MOL0     H24651   0.458   9.450  10.565  1.7966 -0.0104  0.0851
  183MOL0     H24652   0.688   9.391  10.363  0.9377  1.0980 -0.2752
  183MOL0     H24653   0.522   9.381  10.318  1.4281 -2.0083 -0.4767
  183MOL0     H24654   0.674   9.640  10.415  1.4941 -0.4050 -3.0071
  183MOL0     H24655   0.510   9.631  10.427  0.2465 -0.6659  0.3920
  183MOL0     H24656   0.769   9.494  10.158  0.6967  0.4761 -1.8290
  183MOL0     H24657   0.789   9.517   9.893 -0.4392  0.1983  0.4846
  183MOL0     H24658   0.680   9.621   9.809  1.1124 -2.2665 -1.5026
  183MOL0     H24659   0.929   9.737   9.972 -2.1300  3.8197  2.7901
  183MOL0     H24660   0.810   9.832   9.906  1.3111  1.2759 -1.4189
  183MOL0     H24661   1.026   9.688   9.777  0.7681 -1.4128 -0.2390
  183MOL0     H24662   0.983   9.849   9.771 -1.3981  0.0652 -0.5637
  183MOL0     H24663   0.899   9.798   9.556 -1.5989  3.2300  1.4205
  183MOL0     H24664   0.764   9.793   9.647  0.7213  1.1397 -0.5786
  183MOL0     H24665   1.117   9.674   9.568 -1.5140 -1.9650  4.4521
  183MOL0     H24666   1.357   9.549   9.345 -0.4467 -0.6117 -0.8808
  183MOL0     H24667   1.304   9.699   9.416  1.3789 -0.1595  0.2822
  183MOL0     H24668   1.376   9.583   9.523  1.0218  0.1271 -0.6144
  183MOL0     H24669   1.342   9.005   9.333  0.7037 -0.2064 -0.1158
  183MOL0     H24670   1.481   8.847   9.198 -0.0312 -0.4761 -2.6360
  183MOL0     H24671   1.739   8.866   9.029  2.0970 -1.4435 -1.4227
  183MOL0     H24672   1.626   8.744   9.073 -0.8077  1.5691  1.5803
  183MOL0     H24673   1.610   8.642   8.880  0.6809 -1.9666  1.8031
  183MOL0     H24674   1.695   8.763   8.778  2.6855  0.8827  0.4348
  183MOL0     H24675   1.836   8.607   9.000  0.3831  1.0152  0.9093
  183MOL0     H24676   1.900   8.736   8.899 -0.9830  0.8227 -0.7806
  183MOL0     H24677   1.830   8.454   8.821  3.5761 -0.4616  2.1019
  183MOL0     H24678   1.818   8.583   8.692  3.2008 -0.0269 -1.5253
  183MOL0     H24679   2.029   8.658   8.725 -1.7509 -0.2552  0.5629
  183MOL0     H24680   2.032   8.485   8.682 -1.4859 -0.2198  1.0935
  183MOL0     H24681   2.079   8.625   8.951 -0.1290 -0.4464 -1.3009
  183MOL0     H24682   2.040   8.455   8.961 -1.8560 -0.9148 -2.9921
  183MOL0     H24683   2.274   8.429   8.804  3.8486  1.3720 -0.8340
  183MOL0     H24684   2.278   8.457   8.978 -1.9054 -1.5906 -0.3790
  183MOL0     H24685   2.265   8.678   8.757  0.7603  0.7579 -0.9157
  183MOL0     H24686   2.420   8.604   8.820 -0.5912 -3.4166 -4.0743
  183MOL0     H24687   1.444   9.144   8.873  0.7718 -2.0205  0.4696
  183MOL0     H24688   1.290   9.273   9.004 -1.6226  0.8548  2.5469
  183MOL0     H24689   1.003   9.228   9.397  2.4304 -0.2705 -0.4020
  183MOL0     H24690   0.823   9.366   9.511 -0.2628 -1.2595  0.1931
  183MOL0     H24691   0.765   8.877  11.020 -0.7136 -0.4070  0.5436
  183MOL0     H24692   0.861   8.740  11.199 -0.4351 -0.4245 -0.5410
  183MOL0     H24693   1.225   8.562  11.499  0.3699  0.8487  0.0819
  183MOL0     H24694   1.301   8.492  11.733  0.3952  0.7630  1.7990
  183MOL0     H24695   1.101   8.575  12.138 -3.3890 -2.2195  1.2688
  183MOL0     H24696   1.006   8.512  11.996 -0.4938  1.9273  2.3267
  183MOL0     H24697   1.131   8.324  11.975  1.6536  1.2801 -1.3924
  183MOL0     H24698   1.052   8.325  12.135 -0.3414  1.6608 -0.1186
  183MOL0     H24699   1.292   8.407  12.233  1.9729 -0.5092 -0.8510
  183MOL0     H24700   1.350   8.358  12.080 -1.0330 -4.1603 -3.3003
  183MOL0     H24701   1.186   8.155  12.252  0.0616  0.0346 -0.8701
  183MOL0     H24702   1.369   8.172  12.249  2.0622  0.2244 -3.2566
  183MOL0     H24703   1.366   7.992  11.892 -1.2612 -1.6785 -0.6720
  183MOL0     H24704   0.977   8.732  11.898 -1.6093  0.1195 -1.7795
  183MOL0     H24705   0.910   8.797  11.706  1.1987  0.1340  0.0692
  184MOL0     O24706   4.312   0.278   6.434  0.3974  0.2994  0.2610
  184MOL0     C24707   4.296   0.278   6.556  0.3260 -0.2226  0.3529
  184MOL0     O24708   4.389   0.329   6.643  0.9245 -0.3801  0.5213
  184MOL0     C24709   4.519   0.368   6.600 -0.1453  0.1710  0.6160
  184MOL0     C24710   4.562   0.498   6.632  0.5784  0.1399  0.3407
  184MOL0     C24711   4.676   0.545   6.567 -0.1731 -0.8391 -0.9029
  184MOL0     C24712   4.752   0.460   6.490 -0.4746 -0.3538 -0.3798
  184MOL0     O24713   4.871   0.517   6.454  0.3610  0.2193  0.5879
  184MOL0     C24714   4.950   0.456   6.353  0.1003  0.2751  0.3008
  184MOL0     C24715   5.060   0.542   6.291 -0.0685  0.0313 -0.8002
  184MOL0     C24716   4.991   0.638   6.191  0.2824  0.4616 -0.7485
  184MOL0     C24717   5.075   0.727   6.107  1.1637 -0.5292 -0.3138
  184MOL0     C24718   4.999   0.859   6.091 -0.4828  0.4972 -0.3847
  184MOL0     C24719   4.863   0.854   6.023  0.5147  0.6836 -0.4945
  184MOL0     C24720   4.835   0.988   5.956  0.0434  0.5505  0.9440
  184MOL0     C24721   4.689   0.987   5.900  0.0352 -0.6137 -0.9729
  184MOL0     N24722   4.664   0.890   5.781 -0.2565 -0.6381 -0.4430
  184MOL0     C24723   4.570   0.793   5.784  0.0251 -0.6825 -0.8112
  184MOL0     C24724   4.592   0.727   5.670 -0.2391  0.1437  0.0490
  184MOL0     C24725   4.506   0.599   5.633  0.0919  0.0525 -1.0078
  184MOL0     C24726   4.546   0.466   5.684  0.2864 -0.6680 -0.3012
  184MOL0     C24727   4.656   0.399   5.612  0.3712  0.5784 -0.0956
  184MOL0     C24728   4.734   0.303   5.702  0.1125  0.6802  0.0681
  184MOL0     O24729   4.790   0.376   5.806  0.1376  0.5615 -0.4478
  184MOL0     C24730   4.911   0.434   5.785 -0.6504  0.6103 -0.4370
  184MOL0     C24731   5.027   0.364   5.824 -0.0038  1.0159  0.1732
  184MOL0     C24732   5.151   0.424   5.828 -0.3399  0.4814  0.4226
  184MOL0     C24733   5.267   0.345   5.874 -0.0096  1.5217  0.6691
  184MOL0     C24734   5.162   0.555   5.779  0.3001  0.1956  1.0082
  184MOL0     C24735   5.288   0.636   5.758  0.2115  0.2465 -0.1265
  184MOL0     O24736   5.386   0.577   5.690 -0.0784 -0.1507  0.6970
  184MOL0     C24737   5.505   0.645   5.666  0.6393  0.6556 -0.2581
  184MOL0     C24738   5.565   0.608   5.548 -0.0741 -0.1697 -0.1771
  184MOL0     C24739   5.692   0.661   5.521  0.4611 -0.2936  0.0857
  184MOL0     C24740   5.750   0.765   5.591 -0.6260  0.2879 -0.2303
  184MOL0     O24741   5.865   0.830   5.540  0.3360  0.6923 -0.1631
  184MOL0     C24742   5.927   0.940   5.609 -0.5865  0.2796 -0.5161
  184MOL0     C24743   6.020   1.003   5.515  0.0484 -0.1877  0.2747
  184MOL0     C24744   6.130   0.909   5.455 -0.2056  0.6514  0.0037
  184MOL0     C24745   6.257   0.989   5.423  0.2369 -0.3074  0.2722
  184MOL0     C24746   6.342   0.910   5.324 -0.9479 -0.4878  0.3312
  184MOL0     C24747   6.482   0.965   5.299  0.0631  0.6313 -0.5252
  184MOL0     C24748   6.486   1.108   5.228  0.1751  1.2611 -0.4322
  184MOL0     C24749   6.411   1.114   5.090  0.3895  0.7413 -0.2677
  184MOL0    Cl24750   6.505   1.004   4.975  0.1990  0.1454  0.1789
  184MOL0     C24751   5.682   0.801   5.712  0.3150 -1.1161  0.1595
  184MOL0     C24752   5.567   0.738   5.748  0.1727 -0.0454 -0.4177
  184MOL0     O24753   5.280   0.750   5.807  1.7560  0.4119  0.7807
  184MOL0     C24754   5.049   0.617   5.732 -0.7819  0.4351  0.4140
  184MOL0     C24755   4.928   0.562   5.732 -0.5241 -0.5728 -0.4236
  184MOL0     N24756   4.678   0.797   5.596 -0.0242 -1.2162 -0.4990
  184MOL0     N24757   4.720   0.904   5.655 -0.1026 -0.2058 -0.6545
  184MOL0     C24758   4.718   0.326   6.471 -0.6368 -0.8473  1.3235
  184MOL0     C24759   4.603   0.281   6.519  0.3308  0.2268 -0.7202
  184MOL0     C24760   4.165   0.248   6.619 -1.0604 -0.1122  0.1712
  184MOL0     C24761   4.074   0.171   6.551  0.2873  0.7324  0.3618
  184MOL0     C24762   3.946   0.144   6.596 -0.4592  0.1112 -0.0799
  184MOL0     C24763   3.912   0.189   6.728  1.1536  0.6349 -0.6435
  184MOL0     O24764   3.789   0.164   6.776  0.5466  0.2698 -0.8559
  184MOL0     C24765   3.725   0.275   6.846  0.2548 -0.1213 -0.2277
  184MOL0     C24766   3.566   0.258   6.839 -0.1589  0.4475 -0.3483
  184MOL0     C24767   3.480   0.357   6.921 -0.3195 -0.0312 -0.3216
  184MOL0     C24768   3.355   0.392   6.846  1.0412 -1.5857  1.0257
  184MOL0     C24769   3.253   0.285   6.823 -0.4896 -0.3553  0.6436
  184MOL0     C24770   3.161   0.211   6.785  0.8733 -0.7294 -0.5659
  184MOL0     C24771   4.015   0.255   6.799  0.2524 -0.8689 -0.5005
  184MOL0     C24772   4.147   0.281   6.755  1.1375  0.3472 -0.3315
  184MOL0     H24773   4.497   0.556   6.697 -0.4160  1.9195 -2.1035
  184MOL0     H24774   4.691   0.650   6.589 -1.6604 -0.4119 -1.7854
  184MOL0     H24775   4.991   0.359   6.383 -0.8340 -0.7883 -1.6630
  184MOL0     H24776   4.887   0.425   6.270 -2.6122  0.5952  2.1019
  184MOL0     H24777   5.114   0.594   6.370 -0.5700 -0.6696  0.0273
  184MOL0     H24778   5.135   0.483   6.238  0.1191 -0.6317  0.1723
  184MOL0     H24779   4.936   0.582   6.115  1.6101 -0.4139 -1.0873
  184MOL0     H24780   4.933   0.692   6.267  1.7279 -0.6320  1.2394
  184MOL0     H24781   5.174   0.744   6.152 -0.9920  2.7417  3.9132
  184MOL0     H24782   5.091   0.675   6.012  1.6479 -1.3211  0.1859
  184MOL0     H24783   4.987   0.905   6.189  2.3685 -1.0702  0.8123
  184MOL0     H24784   5.066   0.929   6.040 -0.2649 -0.9987 -2.2502
  184MOL0     H24785   4.856   0.770   5.953 -0.6027 -1.4248  1.9525
  184MOL0     H24786   4.790   0.832   6.102 -0.4887  1.0653 -1.2815
  184MOL0     H24787   4.842   1.080   6.015  2.9716  2.2331 -1.6874
  184MOL0     H24788   4.906   1.005   5.874 -2.5889 -1.2826 -1.9505
  184MOL0     H24789   4.664   1.092   5.881  0.8731 -0.1954  0.1655
  184MOL0     H24790   4.624   0.961   5.984  1.3619 -0.3099  0.1843
  184MOL0     H24791   4.497   0.775   5.861 -0.9572  0.8793 -1.3434
  184MOL0     H24792   4.402   0.619   5.664 -0.8630 -0.8020 -3.4518
  184MOL0     H24793   4.499   0.592   5.524 -5.4386  2.8669 -1.2028
  184MOL0     H24794   4.458   0.400   5.687 -0.7983  0.7252  2.6118
  184MOL0     H24795   4.581   0.486   5.786  0.0155  1.9164 -0.6558
  184MOL0     H24796   4.707   0.487   5.571 -1.4183  2.4704  1.5345
  184MOL0     H24797   4.626   0.334   5.529  0.0068  0.0688  0.4284
  184MOL0     H24798   4.813   0.262   5.638 -2.1714  0.8271 -3.0407
  184MOL0     H24799   4.674   0.219   5.738  2.9150 -1.3348  0.4343
  184MOL0     H24800   5.017   0.259   5.850  0.6330  0.4969 -1.5549
  184MOL0     H24801   5.324   0.384   5.960 -2.3903 -0.8294  3.5376
  184MOL0     H24802   5.244   0.244   5.908 -0.7713  0.5035 -2.5462
  184MOL0     H24803   5.326   0.308   5.790 -0.7819 -0.6751  1.0208
  184MOL0     H24804   5.516   0.539   5.480 -0.0428  1.5821 -2.0754
  184MOL0     H24805   5.745   0.627   5.433  1.9345  1.7894  0.0811
  184MOL0     H24806   5.863   1.024   5.638  0.6371  0.8965  0.4987
  184MOL0     H24807   5.973   0.902   5.701 -2.4494  0.0014  0.3483
  184MOL0     H24808   5.971   1.054   5.432  2.8544 -2.8888 -3.3601
  184MOL0     H24809   6.065   1.087   5.569  2.3684 -2.0919  1.5100
  184MOL0     H24810   6.074   0.873   5.368  0.0095 -2.2913  0.9781
  184MOL0     H24811   6.145   0.831   5.529 -1.2885  1.2483  0.8670
  184MOL0     H24812   6.226   1.087   5.384 -1.4407  0.0188  2.2751
  184MOL0     H24813   6.322   1.001   5.510  0.0936 -0.3057  0.3780
  184MOL0     H24814   6.305   0.907   5.222 -0.5160 -0.0533  0.1568
  184MOL0     H24815   6.359   0.811   5.368  0.0066  0.2600  1.7401
  184MOL0     H24816   6.541   0.973   5.390 -0.8959  0.4890  0.1191
  184MOL0     H24817   6.534   0.887   5.243  0.3727  0.8040 -0.4810
  184MOL0     H24818   6.585   1.153   5.230  1.6005 -1.5475 -2.0964
  184MOL0     H24819   6.419   1.166   5.294 -2.3418 -2.0336  0.1513
  184MOL0     H24820   6.412   1.217   5.055 -1.9123  0.8349 -0.2555
  184MOL0     H24821   6.303   1.095   5.098  0.4637 -0.2086 -1.2352
  184MOL0     H24822   5.718   0.880   5.776 -0.9249 -0.4880  0.1223
  184MOL0     H24823   5.524   0.760   5.846 -0.4719 -0.6937 -0.5502
  184MOL0     H24824   5.064   0.716   5.690 -0.0221  0.4175  0.6375
  184MOL0     H24825   4.831   0.603   5.705 -0.7677  0.6374  1.9484
  184MOL0     H24826   4.767   0.249   6.413 -2.0621 -1.1855  0.5196
  184MOL0     H24827   4.564   0.183   6.494 -3.4082  1.0942  1.0507
  184MOL0     H24828   4.108   0.142   6.452 -0.6584 -0.3309  0.3368
  184MOL0     H24829   3.878   0.081   6.539 -0.2442 -1.4898  1.3469
  184MOL0     H24830   3.767   0.280   6.947  2.2808  3.2219 -1.0726
  184MOL0     H24831   3.748   0.370   6.796 -2.4677 -0.1109 -1.6576
  184MOL0     H24832   3.556   0.153   6.869  3.1550  0.3640  0.8921
  184MOL0     H24833   3.529   0.260   6.735 -3.8194  1.0810  0.8151
  184MOL0     H24834   3.536   0.450   6.934 -1.6352  0.3540  3.8962
  184MOL0     H24835   3.469   0.312   7.020 -3.3318  1.2816  0.0334
  184MOL0     H24836   3.400   0.437   6.757  1.4288  0.5069  2.2108
  184MOL0     H24837   3.305   0.474   6.899  0.1898 -1.0481 -0.5386
  184MOL0     H24838   3.071   0.168   6.748  0.5125 -0.2533 -0.2586
  184MOL0     H24839   3.991   0.287   6.900 -3.2602  0.2509 -1.5244
  184MOL0     H24840   4.208   0.315   6.837  1.9517 -1.0551 -0.3238
  185MOL0     O24841   6.456  10.423   2.583  0.3281 -0.5729 -0.3059
  185MOL0     C24842   6.517  10.320   2.602 -0.1615  0.0433  1.1328
  185MOL0     O24843   6.620  10.300   2.701  0.0096 -0.4350  0.3141
  185MOL0     C24844   6.650  10.403   2.790 -0.1594  0.2959  0.3717
  185MOL0     C24845   6.628  10.394   2.925 -0.5507 -0.2981 -0.6789
  185MOL0     C24846   6.675  10.503   3.010 -0.1277  0.0467 -0.7828
  185MOL0     C24847   6.740  10.611   2.953  0.0942 -0.0795 -0.5350
  185MOL0     O24848   6.768  10.724   3.028 -0.3467 -0.9668  0.9383
  185MOL0     C24849   6.918  10.733   3.060 -0.1670 -1.4422  1.0615
  185MOL0     C24850   6.950  10.792   3.193 -0.1822  0.2411  0.3495
  185MOL0     C24851   6.871  10.737   3.311  0.4864  0.5891 -0.1764
  185MOL0     C24852   6.932  10.766   3.455  0.0592  0.5182 -0.7078
  185MOL0     C24853   6.830  10.713   3.560  0.6951 -0.9180 -0.2783
  185MOL0     C24854   6.884  10.714   3.706  0.1927  0.0054 -0.3945
  185MOL0     C24855   6.775  10.662   3.796  0.9533 -0.5819 -0.0640
  185MOL0     C24856   6.698  10.762   3.885 -0.3241 -1.2849 -0.2651
  185MOL0     N24857   6.769  10.811   4.005 -0.8039 -0.0924  0.7119
  185MOL0     C24858   6.786  10.738   4.127 -0.6598 -0.0512  0.8380
  185MOL0     C24859   6.837  10.838   4.210  0.5244  0.0110 -0.5701
  185MOL0     C24860   6.887  10.785   4.337 -0.0502 -0.2016 -0.1846
  185MOL0     C24861   7.026  10.829   4.352  0.0356 -0.4563  0.1681
  185MOL0     C24862   7.087  10.787   4.482 -0.1221 -0.0823 -0.3205
  185MOL0     C24863   7.115  10.635   4.504  0.7682 -0.6146  0.1703
  185MOL0     O24864   7.208  10.582   4.411 -0.1199  0.9430  0.0855
  185MOL0     C24865   7.222  10.447   4.441 -0.4493 -0.5113  0.1452
  185MOL0     C24866   7.201  10.345   4.350 -0.6797 -0.9835 -0.4698
  185MOL0     C24867   7.223  10.207   4.381  1.4103 -0.1695  0.3462
  185MOL0     C24868   7.192  10.112   4.275 -0.8701  0.0345  0.2462
  185MOL0     C24869   7.261  10.166   4.507 -0.1695  0.2001  0.3673
  185MOL0     C24870   7.271  10.030   4.555 -0.0074 -0.1602  1.0694
  185MOL0     O24871   7.314  10.023   4.686 -0.6388 -0.6519 -0.5030
  185MOL0     C24872   7.332   9.901   4.745 -0.1679 -0.0658 -0.6984
  185MOL0     C24873   7.434   9.815   4.697 -0.4943  0.1411 -0.4740
  185MOL0     C24874   7.461   9.699   4.772  0.3620 -0.5567  0.7200
  185MOL0     C24875   7.373   9.660   4.885 -0.5601 -1.1552  0.0103
  185MOL0     O24876   7.396   9.550   4.964  0.0028 -0.6691  0.2325
  185MOL0     C24877   7.523   9.486   4.955  0.7696 -0.5179 -0.3493
  185MOL0     C24878   7.552   9.393   5.078 -0.2327 -0.3070 -0.4359
  185MOL0     C24879   7.700   9.351   5.084 -0.2256  0.5972 -0.4137
  185MOL0     C24880   7.725   9.244   4.976 -0.0282 -0.4089  0.1042
  185MOL0     C24881   7.869   9.182   4.979 -0.3568  0.2261  0.2838
  185MOL0     C24882   7.894   9.096   4.856  0.3071  0.2143  1.1649
  185MOL0     C24883   8.032   9.037   4.844 -1.5383  0.6635 -0.4656
  185MOL0     C24884   8.038   8.958   4.718 -0.0992 -0.1651  1.2282
  185MOL0    Cl24885   7.937   8.804   4.728 -0.2913 -0.0621 -0.0261
  185MOL0     C24886   7.269   9.750   4.920  0.0004 -0.1243  0.3668
  185MOL0     C24887   7.250   9.868   4.850 -0.2214  0.0946 -0.8853
  185MOL0     O24888   7.245   9.935   4.479 -0.2024 -0.4142 -0.5331
  185MOL0     C24889   7.286  10.274   4.592 -0.7429  0.0447 -0.4046
  185MOL0     C24890   7.279  10.405   4.567  0.5048  0.3225  0.2485
  185MOL0     N24891   6.836  10.958   4.143  0.2835 -0.8566  0.3870
  185MOL0     N24892   6.797  10.943   4.016 -1.4441  0.2599 -0.0522
  185MOL0     C24893   6.759  10.613   2.818 -0.0091 -0.2463  0.5406
  185MOL0     C24894   6.715  10.514   2.736  0.8070 -0.3359 -0.0738
  185MOL0     C24895   6.485  10.208   2.502  0.5356 -0.1416  0.5230
  185MOL0     C24896   6.380  10.235   2.412  0.1338  0.1501 -0.0947
  185MOL0     C24897   6.352  10.155   2.307 -0.0142  0.1653 -0.8656
  185MOL0     C24898   6.416  10.032   2.292 -0.5132 -0.4291  0.2304
  185MOL0     O24899   6.394   9.926   2.201  0.4547  0.3544 -0.4232
  185MOL0     C24900   6.320   9.956   2.077 -0.8656 -0.2502  0.1600
  185MOL0     C24901   6.403  10.022   1.975 -0.5782 -0.6395  0.7164
  185MOL0     C24902   6.528   9.920   1.957  0.2686 -0.5137  0.5068
  185MOL0     C24903   6.638   9.988   1.867 -0.2988 -0.9462 -0.4699
  185MOL0     C24904   6.588  10.047   1.743 -0.4471  0.3836  0.2904
  185MOL0     C24905   6.525  10.093   1.650 -0.5912 -0.1617  0.2213
  185MOL0     C24906   6.520  10.005   2.382  0.0458 -0.6859  0.5315
  185MOL0     C24907   6.558  10.092   2.482  0.5695  0.5743 -0.4305
  185MOL0     H24908   6.566  10.313   2.961 -0.3680 -0.1588 -0.0293
  185MOL0     H24909   6.667  10.492   3.118  3.1166  1.7319 -0.2643
  185MOL0     H24910   6.966  10.636   3.046 -0.8918 -1.6656  0.0181
  185MOL0     H24911   6.967  10.805   2.993  0.0303 -0.7773  1.9021
  185MOL0     H24912   7.058  10.783   3.211  0.6142  4.8258 -0.8853
  185MOL0     H24913   6.927  10.899   3.188  0.4953  0.3469 -0.8987
  185MOL0     H24914   6.768  10.774   3.309  0.6486  1.0196 -0.6525
  185MOL0     H24915   6.849  10.631   3.293  2.8297  0.2631 -1.5573
  185MOL0     H24916   7.026  10.712   3.461  0.1028  0.7911  2.2247
  185MOL0     H24917   6.957  10.872   3.468  0.9612  0.0365  2.1589
  185MOL0     H24918   6.739  10.773   3.547  0.9975  0.1005  1.9429
  185MOL0     H24919   6.805  10.609   3.538  1.2799 -0.8113 -1.5884
  185MOL0     H24920   6.974  10.653   3.720  0.6466  1.0744  1.7671
  185MOL0     H24921   6.902  10.819   3.727 -2.7824  0.7781 -1.2566
  185MOL0     H24922   6.700  10.609   3.736 -1.4980  1.5786  0.8986
  185MOL0     H24923   6.819  10.591   3.866 -2.0272  1.7100  4.6984
  185MOL0     H24924   6.615  10.702   3.923  0.9036 -2.7104  0.2757
  185MOL0     H24925   6.653  10.842   3.827 -2.0358 -2.3944 -0.5529
  185MOL0     H24926   6.772  10.633   4.147  0.3044 -1.2284 -3.6929
  185MOL0     H24927   6.826  10.848   4.403  0.1816  0.1992 -0.3508
  185MOL0     H24928   6.883  10.679   4.364  2.6010 -0.2319  0.3827
  185MOL0     H24929   7.010  10.936   4.335 -0.7043 -0.6931 -0.6733
  185MOL0     H24930   7.092  10.800   4.269 -1.3886 -0.2321 -1.0730
  185MOL0     H24931   7.005  10.809   4.551 -0.6697 -1.0536 -0.6332
  185MOL0     H24932   7.173  10.853   4.498 -2.6825  3.4133  0.1297
  185MOL0     H24933   7.018  10.592   4.476  1.2053 -0.9188 -0.8949
  185MOL0     H24934   7.155  10.623   4.605  1.3659 -0.4303 -0.0427
  185MOL0     H24935   7.161  10.370   4.253 -4.1089 -0.8916  0.8342
  185MOL0     H24936   7.172  10.153   4.175  2.4153 -1.3434 -1.1420
  185MOL0     H24937   7.277  10.048   4.250 -1.4144 -0.1325 -1.2868
  185MOL0     H24938   7.118  10.036   4.300  0.6314 -1.0003  1.7919
  185MOL0     H24939   7.500   9.843   4.616 -4.5223  1.0892 -3.7812
  185MOL0     H24940   7.541   9.636   4.734 -2.3938 -2.6910 -2.0526
  185MOL0     H24941   7.518   9.413   4.873  0.7279 -2.4530  1.2811
  185MOL0     H24942   7.608   9.554   4.952 -0.2654  0.7610 -2.0275
  185MOL0     H24943   7.528   9.441   5.173 -0.0819  2.0186 -1.5059
  185MOL0     H24944   7.475   9.315   5.085  0.7027 -1.0635  3.7202
  185MOL0     H24945   7.711   9.307   5.184  0.8017 -1.3159 -1.3205
  185MOL0     H24946   7.767   9.437   5.076 -1.2233  1.2270 -3.8091
  185MOL0     H24947   7.659   9.163   5.006  0.4192 -0.1057  2.0475
  185MOL0     H24948   7.696   9.291   4.882  1.9803  0.8476  0.0465
  185MOL0     H24949   7.874   9.118   5.067  1.7625  2.6691  2.0697
  185MOL0     H24950   7.946   9.259   4.988  0.6822 -0.6232 -0.9853
  185MOL0     H24951   7.821   9.014   4.854  1.1929 -0.5830 -0.8068
  185MOL0     H24952   7.881   9.151   4.763  1.8975 -1.3289 -0.0460
  185MOL0     H24953   8.049   8.963   4.923  0.9497  0.4278 -1.1365
  185MOL0     H24954   8.115   9.108   4.843 -1.0971  0.2792  2.1936
  185MOL0     H24955   8.144   8.943   4.699  0.4661  0.9664  3.1212
  185MOL0     H24956   7.994   9.028   4.647 -1.2781  2.2443  4.0796
  185MOL0     H24957   7.205   9.733   5.006  1.2600  3.8795  2.3224
  185MOL0     H24958   7.164   9.931   4.874 -1.8113 -1.9920 -0.8259
  185MOL0     H24959   7.304  10.252   4.697 -3.2943  0.6559  0.2275
  185MOL0     H24960   7.315  10.473   4.643  2.2777  2.3902 -2.2449
  185MOL0     H24961   6.800  10.704   2.775 -0.6708 -1.0704 -1.9987
  185MOL0     H24962   6.731  10.517   2.629 -0.2876 -1.3020 -0.2833
  185MOL0     H24963   6.331  10.332   2.400  2.2698  1.3790  0.5523
  185MOL0     H24964   6.272  10.189   2.241  1.3554  0.7527 -2.3094
  185MOL0     H24965   6.280   9.861   2.041 -0.9514  0.3416 -1.3791
  185MOL0     H24966   6.232  10.020   2.091 -2.7270 -2.3649 -1.2118
  185MOL0     H24967   6.441  10.120   2.004 -1.9643  0.7602 -1.8525
  185MOL0     H24968   6.339  10.030   1.887 -0.3670  0.7083  0.6623
  185MOL0     H24969   6.490   9.824   1.921 -2.5631 -0.1111  2.0999
  185MOL0     H24970   6.567   9.895   2.056 -2.7305 -2.3708  1.3645
  185MOL0     H24971   6.716   9.915   1.846  1.2265  0.1177  1.1758
  185MOL0     H24972   6.678  10.066   1.932  1.3507 -1.8582 -0.3405
  185MOL0     H24973   6.479  10.128   1.560  0.4262  2.5138  0.6505
  185MOL0     H24974   6.577   9.912   2.383  1.4438  0.1135 -0.5989
  185MOL0     H24975   6.650  10.072   2.535  0.7422  0.6141 -0.7139
  186MOL0     O24976   2.665   6.094   0.157  0.2287 -1.0083  0.5809
  186MOL0     C24977   2.736   6.166   0.232 -0.7678  0.3782  1.2960
  186MOL0     O24978   2.715   6.188   0.361  0.2236  0.1806 -0.6462
  186MOL0     C24979   2.597   6.143   0.411 -0.5952 -0.6942 -0.4296
  186MOL0     C24980   2.497   6.239   0.450  0.0075  0.0013 -0.0646
  186MOL0     C24981   2.378   6.206   0.516  0.4605 -0.0235  0.4081
  186MOL0     C24982   2.347   6.068   0.550 -0.6989 -0.1869  1.2770
  186MOL0     O24983   2.237   6.036   0.614  0.4517  0.4835 -0.3395
  186MOL0     C24984   2.152   5.928   0.563 -0.2067  0.0973  0.7931
  186MOL0     C24985   2.088   5.945   0.422  0.2162 -0.1778 -0.6226
  186MOL0     C24986   2.040   5.817   0.348  0.4818  0.0209  0.3039
  186MOL0     C24987   1.933   5.756   0.427 -0.3008 -0.3078 -0.6890
  186MOL0     C24988   1.891   5.627   0.372 -0.2568  0.0918  0.0300
  186MOL0     C24989   1.993   5.513   0.374 -0.1795  0.0476  0.5561
  186MOL0     C24990   1.947   5.362   0.367 -0.3644 -0.3961  0.2459
  186MOL0     C24991   1.893   5.318   0.227  0.0766  0.1726  0.2830
  186MOL0     N24992   1.924   5.182   0.197 -0.5878  0.1928  1.5774
  186MOL0     C24993   1.993   5.147   0.079  0.9820  0.0918  0.0839
  186MOL0     C24994   1.995   5.009   0.090 -0.9188 -1.1665  0.5041
  186MOL0     C24995   2.092   4.931   0.000  0.2970  0.8739 -1.6203
  186MOL0     C24996   2.009   4.861  -0.108  1.0641 -0.2657 -0.0083
  186MOL0     C24997   2.094   4.766  -0.179  0.0934 -0.8270 -0.2834
  186MOL0     C24998   2.010   4.695  -0.277  0.1538  0.3624  0.0081
  186MOL0     O24999   2.005   4.768  -0.397 -0.4341 -0.4140  0.3603
  186MOL0     C25000   1.943   4.704  -0.506  0.5987  0.4279  0.0199
  186MOL0     C25001   1.947   4.770  -0.627  0.4524 -0.4109  0.5031
  186MOL0     C25002   1.900   4.718  -0.744 -0.0932 -0.6063  0.2940
  186MOL0     C25003   1.927   4.793  -0.875 -0.4368  0.6495  0.4067
  186MOL0     C25004   1.837   4.590  -0.739 -0.4915 -0.1983  0.2347
  186MOL0     C25005   1.792   4.524  -0.859  0.9725 -0.3769  0.2435
  186MOL0     O25006   1.721   4.589  -0.953  0.1339  0.6688 -0.8536
  186MOL0     C25007   1.694   4.532  -1.075 -1.5808 -0.1444 -0.4735
  186MOL0     C25008   1.688   4.615  -1.186  0.6057  0.5340 -0.0002
  186MOL0     C25009   1.643   4.569  -1.308  0.7986  0.5733  0.6801
  186MOL0     C25010   1.585   4.441  -1.324 -0.0153  1.0369 -0.2099
  186MOL0     O25011   1.533   4.406  -1.447  0.2330  0.2033  0.3470
  186MOL0     C25012   1.509   4.269  -1.475  0.0315 -0.7529 -0.1690
  186MOL0     C25013   1.455   4.271  -1.620 -0.3578 -0.2245  0.2224
  186MOL0     C25014   1.304   4.307  -1.612  0.2277  0.5992  0.0010
  186MOL0     C25015   1.233   4.294  -1.751 -0.2754 -0.2539  0.2932
  186MOL0     C25016   1.252   4.407  -1.855 -0.4786  0.8178 -0.6533
  186MOL0     C25017   1.181   4.369  -1.982 -0.2304  0.2069  0.1155
  186MOL0     C25018   1.195   4.476  -2.095 -0.0886  0.3015 -0.8552
  186MOL0     C25019   1.174   4.621  -2.063 -0.6490  0.2292  0.3819
  186MOL0    Cl25020   1.001   4.621  -2.020  0.0662  0.2128 -0.4588
  186MOL0     C25021   1.583   4.358  -1.210  0.2913 -0.2305 -1.3816
  186MOL0     C25022   1.637   4.404  -1.082  0.0696 -1.1103  0.4893
  186MOL0     O25023   1.840   4.410  -0.869  0.4957  0.7091 -0.1364
  186MOL0     C25024   1.830   4.519  -0.620  0.4501 -0.7236  0.9042
  186MOL0     C25025   1.881   4.580  -0.501  0.0186 -0.7568 -0.0769
  186MOL0     N25026   1.924   4.965   0.206 -0.2056 -0.5170 -0.0191
  186MOL0     N25027   1.898   5.075   0.271 -0.1971 -0.0622  0.0442
  186MOL0     C25028   2.444   5.969   0.508 -0.0091 -0.8207 -0.7132
  186MOL0     C25029   2.568   6.011   0.442 -0.3042  0.1010 -0.5129
  186MOL0     C25030   2.864   6.208   0.173 -0.7925 -0.1844 -0.1794
  186MOL0     C25031   2.948   6.289   0.255  0.0382 -0.3955  0.1438
  186MOL0     C25032   3.072   6.330   0.215  0.1564  0.3712 -1.0258
  186MOL0     C25033   3.129   6.268   0.095  0.2623  0.1002  1.0839
  186MOL0     O25034   3.242   6.318   0.035 -0.1243  0.6232 -0.5381
  186MOL0     C25035   3.339   6.395   0.117  0.3895  0.1518 -0.5863
  186MOL0     C25036   3.477   6.409   0.048  0.6209  0.3487  0.2064
  186MOL0     C25037   3.579   6.469   0.144  0.5832  0.1139  1.1693
  186MOL0     C25038   3.608   6.378   0.264 -0.2322 -1.2309 -0.6919
  186MOL0     C25039   3.726   6.429   0.339 -0.5140 -0.7630  0.9116
  186MOL0     C25040   3.828   6.450   0.401 -0.3121  0.9875  0.0113
  186MOL0     C25041   3.059   6.176   0.026 -0.2249  0.6605 -0.2592
  186MOL0     C25042   2.932   6.142   0.064 -0.5678  0.3189 -0.6079
  186MOL0     H25043   2.525   6.343   0.437  3.0291 -0.7901 -0.7514
  186MOL0     H25044   2.307   6.279   0.554  1.6765 -0.4090  3.6842
  186MOL0     H25045   2.205   5.833   0.563 -0.1848  0.0111 -2.1101
  186MOL0     H25046   2.072   5.916   0.636 -2.1269  1.0680 -1.0198
  186MOL0     H25047   2.006   6.013   0.442  2.5632  2.2856  1.3561
  186MOL0     H25048   2.162   6.004   0.366 -0.2196 -0.5154 -1.5865
  186MOL0     H25049   2.014   5.829   0.242  2.8608  0.4797 -0.2868
  186MOL0     H25050   2.131   5.757   0.342  1.0401  0.8565  0.2262
  186MOL0     H25051   1.981   5.743   0.524  0.6812  1.5021 -0.9104
  186MOL0     H25052   1.842   5.817   0.432 -1.1314 -1.5979  2.2503
  186MOL0     H25053   1.794   5.596   0.412 -0.7946  1.3118 -0.2948
  186MOL0     H25054   1.867   5.648   0.268  0.7831  2.3092  0.1771
  186MOL0     H25055   2.053   5.535   0.286  0.1454 -0.4683  0.6486
  186MOL0     H25056   2.056   5.511   0.464 -0.0148 -4.0447  0.5124
  186MOL0     H25057   2.018   5.286   0.401  2.1351  0.5106 -2.5149
  186MOL0     H25058   1.861   5.350   0.433 -0.5314 -2.5055 -0.3026
  186MOL0     H25059   1.949   5.380   0.156  0.1450 -0.9832 -0.6985
  186MOL0     H25060   1.789   5.346   0.206  1.0921  2.6810 -1.9896
  186MOL0     H25061   2.044   5.202   0.000 -2.4450  1.0868 -1.6403
  186MOL0     H25062   2.165   5.001  -0.042  0.4938  0.9165 -1.2124
  186MOL0     H25063   2.145   4.861   0.064 -3.3564 -0.3110  0.3941
  186MOL0     H25064   1.963   4.919  -0.189 -2.0043 -1.7239  0.5126
  186MOL0     H25065   1.931   4.809  -0.051 -0.9496  1.7755 -0.7405
  186MOL0     H25066   2.137   4.706  -0.098  1.2807  2.9328  2.1383
  186MOL0     H25067   2.178   4.817  -0.225  0.3841 -2.5048 -1.7262
  186MOL0     H25068   1.907   4.673  -0.250 -0.2598 -1.0029 -2.3671
  186MOL0     H25069   2.055   4.597  -0.293  2.5792  1.3942  0.0563
  186MOL0     H25070   2.007   4.861  -0.625 -2.5693  1.7106  2.2130
  186MOL0     H25071   1.931   4.739  -0.970  0.6850  0.3661  0.6006
  186MOL0     H25072   1.855   4.875  -0.882  0.0806  1.0483 -0.4145
  186MOL0     H25073   2.022   4.846  -0.876 -0.9657  1.6274  0.6885
  186MOL0     H25074   1.710   4.722  -1.188 -0.2566  0.7673  1.4083
  186MOL0     H25075   1.630   4.632  -1.396  1.6563 -0.0812  0.0679
  186MOL0     H25076   1.602   4.212  -1.476 -1.2559 -3.1602  2.4749
  186MOL0     H25077   1.441   4.220  -1.404  3.5954 -1.8802  2.7885
  186MOL0     H25078   1.505   4.347  -1.681 -0.8965  1.9271  2.2685
  186MOL0     H25079   1.461   4.177  -1.676 -2.7375 -0.5503  0.4100
  186MOL0     H25080   1.307   4.413  -1.584 -1.5488  0.3800  1.2102
  186MOL0     H25081   1.249   4.242  -1.543 -0.5653  1.1344 -0.1214
  186MOL0     H25082   1.255   4.201  -1.803 -1.7297  0.4430 -1.6863
  186MOL0     H25083   1.127   4.285  -1.725 -0.3575  1.1232  0.5278
  186MOL0     H25084   1.359   4.417  -1.871 -0.0873  1.6972  2.0310
  186MOL0     H25085   1.215   4.498  -1.807  0.4265  2.2919 -2.6234
  186MOL0     H25086   1.224   4.277  -2.021  0.4863  0.8576 -0.6792
  186MOL0     H25087   1.075   4.360  -1.956  0.1043  0.7439  1.7790
  186MOL0     H25088   1.127   4.443  -2.174 -2.5611 -1.0356  1.6621
  186MOL0     H25089   1.296   4.454  -2.131 -0.6268 -1.9440 -1.1746
  186MOL0     H25090   1.201   4.685  -2.147  2.4271  1.7923  2.3518
  186MOL0     H25091   1.230   4.654  -1.975  2.4433 -2.1718 -0.5015
  186MOL0     H25092   1.529   4.264  -1.213 -0.2073  0.0255 -0.5315
  186MOL0     H25093   1.633   4.346  -0.990  0.2626  0.1644  1.3192
  186MOL0     H25094   1.810   4.414  -0.641  1.5848 -0.3949 -2.4041
  186MOL0     H25095   1.866   4.524  -0.409  0.6056  1.8774  1.7194
  186MOL0     H25096   2.422   5.866   0.533 -1.7077 -0.0475  1.2115
  186MOL0     H25097   2.645   5.940   0.413 -0.4232  0.9855 -3.3228
  186MOL0     H25098   2.930   6.344   0.347  4.8188 -0.2167  1.2288
  186MOL0     H25099   3.126   6.405   0.272 -1.1021  1.1847 -0.8688
  186MOL0     H25100   3.295   6.490   0.147  2.3832  1.2051 -0.8378
  186MOL0     H25101   3.362   6.341   0.209  0.5924  0.0782 -0.6792
  186MOL0     H25102   3.468   6.468  -0.044  0.4736  3.5042  2.0971
  186MOL0     H25103   3.511   6.307   0.027  1.6302  1.1488 -2.5279
  186MOL0     H25104   3.547   6.567   0.180  1.7241  1.2638 -0.7531
  186MOL0     H25105   3.672   6.483   0.087 -1.4831  0.5878 -2.3827
  186MOL0     H25106   3.607   6.271   0.238 -0.9250 -0.6742 -3.3207
  186MOL0     H25107   3.527   6.395   0.336  0.0723 -1.2041 -0.3553
  186MOL0     H25108   3.924   6.452   0.447 -1.0160  0.2656  1.5980
  186MOL0     H25109   3.104   6.127  -0.060 -0.8568  0.2398 -0.3594
  186MOL0     H25110   2.884   6.063   0.008 -0.7206 -0.8233  1.0611
  187MOL0     O25111   3.036   6.322   8.352  0.2281  0.5854 -1.2146
  187MOL0     C25112   3.155   6.307   8.346 -0.0919  0.4591 -0.5445
  187MOL0     O25113   3.239   6.401   8.292  0.7216 -0.6070  0.5353
  187MOL0     C25114   3.180   6.524   8.260 -0.6714  0.3491  0.5872
  187MOL0     C25115   3.179   6.573   8.126  0.9608  0.5236 -1.0709
  187MOL0     C25116   3.111   6.699   8.102 -1.0900 -0.0436 -0.0825
  187MOL0     C25117   3.068   6.785   8.203 -0.8819  0.5606  0.7926
  187MOL0     O25118   2.993   6.896   8.169 -0.5805 -0.1061  0.1431
  187MOL0     C25119   3.026   7.006   8.245  0.6011  0.5554 -0.1100
  187MOL0     C25120   3.039   7.118   8.143  0.6683  0.3084  0.5667
  187MOL0     C25121   3.102   7.249   8.200 -0.5736  0.0066 -1.1636
  187MOL0     C25122   3.028   7.323   8.313  0.6882 -0.4795 -0.3310
  187MOL0     C25123   2.905   7.402   8.271 -0.3132  0.3233  0.4808
  187MOL0     C25124   2.848   7.502   8.375  0.5927  0.3383  0.1876
  187MOL0     C25125   2.720   7.585   8.344  0.9900 -0.7553  0.4160
  187MOL0     C25126   2.661   7.676   8.453 -0.5049 -0.3631 -0.7937
  187MOL0     N25127   2.532   7.741   8.428  0.1810 -0.0141  0.7025
  187MOL0     C25128   2.449   7.794   8.520 -0.7382  0.8154  0.8574
  187MOL0     C25129   2.352   7.849   8.443 -1.1910  0.3867  0.3392
  187MOL0     C25130   2.230   7.918   8.498  1.0538  0.0195 -0.2827
  187MOL0     C25131   2.092   7.867   8.455  0.1239  0.6616  0.1449
  187MOL0     C25132   2.069   7.713   8.448  0.6594 -0.7879  0.0286
  187MOL0     C25133   1.961   7.673   8.357  0.6055  0.6958  0.1452
  187MOL0     O25134   1.956   7.529   8.347 -0.2638 -0.6542 -0.1333
  187MOL0     C25135   2.037   7.455   8.263  0.5139 -0.0989  0.1463
  187MOL0     C25136   2.142   7.495   8.183  0.8569  0.0543  0.6773
  187MOL0     C25137   2.204   7.403   8.101 -0.5634  0.3691  0.5997
  187MOL0     C25138   2.296   7.472   8.001  0.4886 -1.0874 -0.1011
  187MOL0     C25139   2.172   7.272   8.100  1.3126 -0.0686 -0.7005
  187MOL0     C25140   2.229   7.182   8.007  0.4497  0.0156 -0.6156
  187MOL0     O25141   2.156   7.062   8.001 -0.9561  0.1156 -0.5696
  187MOL0     C25142   2.196   6.967   7.908  0.1483  0.0285  0.2514
  187MOL0     C25143   2.099   6.910   7.820  0.8391 -0.1861  0.3032
  187MOL0     C25144   2.140   6.797   7.737 -0.1068  0.2468  0.2577
  187MOL0     C25145   2.268   6.741   7.737 -0.7171 -0.0906 -0.2520
  187MOL0     O25146   2.303   6.641   7.652  0.8559  0.2163  0.3136
  187MOL0     C25147   2.419   6.561   7.661 -0.6773 -0.0341  0.1291
  187MOL0     C25148   2.386   6.421   7.622 -0.3149 -0.8325  0.0019
  187MOL0     C25149   2.402   6.404   7.467 -0.3983  0.0351  0.2484
  187MOL0     C25150   2.403   6.258   7.425 -0.4843 -0.0238  0.3000
  187MOL0     C25151   2.413   6.223   7.284 -0.6348 -0.2579  0.8124
  187MOL0     C25152   2.333   6.309   7.188  0.0988 -0.7443  0.3998
  187MOL0     C25153   2.326   6.255   7.048 -0.8324  0.8997 -0.9616
  187MOL0     C25154   2.402   6.337   6.942  0.1522  0.6161  0.4184
  187MOL0    Cl25155   2.582   6.319   6.956 -0.0509  0.1916 -0.1865
  187MOL0     C25156   2.370   6.807   7.812  0.1227 -0.8506  0.5580
  187MOL0     C25157   2.335   6.916   7.906 -0.1458  0.6936 -0.4984
  187MOL0     O25158   2.329   7.205   7.940 -0.1086 -0.3404  0.2004
  187MOL0     C25159   2.081   7.220   8.200 -0.7171  0.2274  0.0865
  187MOL0     C25160   2.006   7.316   8.273 -0.7043 -0.5943  0.6625
  187MOL0     N25161   2.380   7.832   8.304  0.4157  0.8754 -0.2086
  187MOL0     N25162   2.479   7.755   8.297 -0.1249 -0.5682 -0.1163
  187MOL0     C25163   3.078   6.733   8.336 -0.6530 -0.3667  0.5609
  187MOL0     C25164   3.128   6.603   8.360 -0.4060 -0.2789  0.3177
  187MOL0     C25165   3.214   6.187   8.394  1.1836 -0.3141 -0.2761
  187MOL0     C25166   3.342   6.186   8.420 -1.1135  1.0041 -0.5984
  187MOL0     C25167   3.406   6.063   8.450  0.2841  0.6669  0.0268
  187MOL0     C25168   3.338   5.948   8.451  0.5274 -0.0856 -0.2503
  187MOL0     O25169   3.391   5.823   8.470 -0.3052 -0.2119 -0.2993
  187MOL0     C25170   3.536   5.801   8.483  0.9558 -0.0568  0.2488
  187MOL0     C25171   3.581   5.833   8.624 -0.1552 -0.8466  0.0985
  187MOL0     C25172   3.699   5.745   8.667 -0.2639 -0.0686 -0.2753
  187MOL0     C25173   3.838   5.789   8.608  0.1532  0.2804 -1.2197
  187MOL0     C25174   3.883   5.934   8.622  0.1366  0.8610  0.0774
  187MOL0     C25175   3.895   6.055   8.636  0.0886  0.5648  0.8506
  187MOL0     C25176   3.202   5.946   8.440 -0.4224  0.3524 -0.5041
  187MOL0     C25177   3.141   6.073   8.417  0.0275 -0.2078  0.0469
  187MOL0     H25178   3.226   6.519   8.045 -1.4846 -0.6866 -1.7725
  187MOL0     H25179   3.087   6.732   8.001 -1.2984  1.3440  0.3981
  187MOL0     H25180   2.939   7.028   8.307 -0.5444 -1.4647 -0.9308
  187MOL0     H25181   3.111   6.980   8.309  0.7890 -0.8011 -0.8749
  187MOL0     H25182   3.096   7.084   8.056 -2.3250  0.0886 -1.4765
  187MOL0     H25183   2.935   7.128   8.111 -0.4093 -3.2556  2.3869
  187MOL0     H25184   3.199   7.214   8.236  0.0343  1.8875 -0.8696
  187MOL0     H25185   3.132   7.313   8.117  0.7784  3.1212  1.4895
  187MOL0     H25186   3.003   7.239   8.378 -0.3736 -0.4914 -0.7351
  187MOL0     H25187   3.092   7.391   8.370 -0.7231 -0.7003  1.6442
  187MOL0     H25188   2.934   7.460   8.183 -1.7233  2.0716  1.1090
  187MOL0     H25189   2.821   7.336   8.247  0.0098  0.2647 -0.4981
  187MOL0     H25190   2.827   7.439   8.462 -1.1441  0.6036 -0.0021
  187MOL0     H25191   2.924   7.580   8.386 -1.2243  2.5179 -1.6761
  187MOL0     H25192   2.742   7.655   8.263 -1.5009  0.5033  0.7413
  187MOL0     H25193   2.642   7.521   8.301 -1.4409  0.2341  3.0980
  187MOL0     H25194   2.736   7.748   8.487 -0.5298 -1.5750  2.0785
  187MOL0     H25195   2.645   7.610   8.538 -0.3645 -1.9937 -1.9742
  187MOL0     H25196   2.456   7.795   8.628 -3.6920  1.6441  1.1328
  187MOL0     H25197   2.230   7.916   8.608 -0.4347 -1.1563 -0.2773
  187MOL0     H25198   2.235   8.025   8.473  0.0977 -0.3699 -2.3821
  187MOL0     H25199   2.081   7.908   8.355  1.6086 -0.3168 -0.4631
  187MOL0     H25200   2.005   7.908   8.507 -1.0707 -0.3215 -0.9964
  187MOL0     H25201   2.038   7.695   8.552 -0.3394  1.2720  0.1280
  187MOL0     H25202   2.167   7.675   8.418  1.2634  0.1486  0.7702
  187MOL0     H25203   1.979   7.721   8.260  0.0526  1.3418  0.3558
  187MOL0     H25204   1.865   7.718   8.380  1.0876  2.6219 -1.3537
  187MOL0     H25205   2.159   7.602   8.189  3.2177 -0.3036  1.3550
  187MOL0     H25206   2.316   7.575   8.031 -0.4181 -0.0497 -2.7236
  187MOL0     H25207   2.393   7.423   8.004  1.1465 -0.5236 -4.6890
  187MOL0     H25208   2.256   7.490   7.901  1.9703  0.0795 -0.5074
  187MOL0     H25209   1.992   6.926   7.820  0.7335  0.2887 -4.2838
  187MOL0     H25210   2.056   6.757   7.681 -1.0114  0.4815  1.3910
  187MOL0     H25211   2.506   6.600   7.607  1.3094 -0.4748  2.8018
  187MOL0     H25212   2.451   6.541   7.764  3.3299 -2.5865 -1.3777
  187MOL0     H25213   2.467   6.365   7.669  1.1894  1.4795  0.3509
  187MOL0     H25214   2.285   6.396   7.658 -1.0217 -0.2880 -1.5083
  187MOL0     H25215   2.501   6.439   7.438  1.6291 -2.4280  3.5526
  187MOL0     H25216   2.316   6.448   7.415 -0.0944  1.1839  0.6847
  187MOL0     H25217   2.493   6.222   7.476  0.5122 -1.4884 -2.2975
  187MOL0     H25218   2.313   6.216   7.470 -0.8185  1.2231  0.8317
  187MOL0     H25219   2.401   6.117   7.261  2.1540 -0.9331  2.0939
  187MOL0     H25220   2.517   6.234   7.251 -0.8300 -0.0586  0.2381
  187MOL0     H25221   2.230   6.312   7.225 -0.3015  2.7978 -0.6361
  187MOL0     H25222   2.360   6.415   7.187  3.6108 -1.5096  0.5372
  187MOL0     H25223   2.220   6.249   7.020 -1.0586 -2.5252  0.2279
  187MOL0     H25224   2.374   6.157   7.045 -1.5130  0.5718 -1.7968
  187MOL0     H25225   2.378   6.443   6.927 -1.9916  0.0525 -0.4387
  187MOL0     H25226   2.373   6.295   6.846  3.0096  2.5234 -1.4624
  187MOL0     H25227   2.471   6.766   7.807  0.5218  0.0874  0.6859
  187MOL0     H25228   2.418   6.940   7.973  0.9556 -3.4131 -0.1276
  187MOL0     H25229   2.047   7.119   8.217  3.5467 -1.4604 -0.2551
  187MOL0     H25230   1.928   7.288   8.343 -1.6174 -0.3424 -0.2364
  187MOL0     H25231   3.026   6.786   8.415 -1.3548 -0.5246  0.2067
  187MOL0     H25232   3.135   6.577   8.465 -2.0387 -1.1727  0.2254
  187MOL0     H25233   3.401   6.277   8.410 -0.0854  0.5116  0.6154
  187MOL0     H25234   3.512   6.064   8.473  0.3034 -0.8952  0.1657
  187MOL0     H25235   3.549   5.693   8.475  1.8632 -0.2767  3.2864
  187MOL0     H25236   3.600   5.848   8.408 -2.3760 -0.5668 -3.2302
  187MOL0     H25237   3.503   5.824   8.701  2.9064  1.1848  3.7743
  187MOL0     H25238   3.598   5.941   8.624 -2.1159 -0.4994 -0.8231
  187MOL0     H25239   3.690   5.640   8.638  2.5904 -1.3955  2.9567
  187MOL0     H25240   3.695   5.747   8.776 -0.1838  2.1078 -0.2671
  187MOL0     H25241   3.816   5.766   8.503 -2.1367  1.7594 -1.1373
  187MOL0     H25242   3.917   5.720   8.639 -2.4733 -2.3473  0.2607
  187MOL0     H25243   3.886   6.161   8.627  1.7120  0.5688 -1.7631
  187MOL0     H25244   3.162   5.846   8.430  1.6479 -0.6414  0.5470
  187MOL0     H25245   3.036   6.078   8.388  0.1460 -2.2182 -0.9189
  188MOL0     O25246   4.995   4.304   4.746 -0.1091 -0.0648  0.0369
  188MOL0     C25247   4.915   4.340   4.825  0.1190 -0.5960  1.0666
  188MOL0     O25248   4.802   4.399   4.795  0.5738 -0.8442 -0.1871
  188MOL0     C25249   4.759   4.396   4.665  0.3874 -0.2867 -0.3707
  188MOL0     C25250   4.814   4.482   4.566 -0.1312  1.3307 -0.4346
  188MOL0     C25251   4.746   4.488   4.442 -0.3651  0.4661 -0.2201
  188MOL0     C25252   4.629   4.414   4.417  0.2248 -0.5654  0.4754
  188MOL0     O25253   4.565   4.414   4.293 -0.5490  0.2360 -0.3888
  188MOL0     C25254   4.490   4.543   4.266  0.0700 -0.7893  0.1100
  188MOL0     C25255   4.350   4.539   4.319  0.1854  0.7868 -0.2733
  188MOL0     C25256   4.265   4.652   4.275  0.3905  0.5399 -0.0836
  188MOL0     C25257   4.132   4.628   4.346 -0.4692  0.4483  0.5848
  188MOL0     C25258   4.043   4.754   4.331  0.0692  0.6155 -0.8676
  188MOL0     C25259   3.892   4.725   4.359 -0.4126  0.0704  0.2172
  188MOL0     C25260   3.788   4.826   4.313 -0.2690  0.6293  0.2612
  188MOL0     C25261   3.652   4.781   4.368 -0.3297 -0.6179 -0.7938
  188MOL0     N25262   3.546   4.888   4.357 -0.6488 -0.8798  0.3049
  188MOL0     C25263   3.465   4.908   4.250  0.1886 -0.3003  0.1610
  188MOL0     C25264   3.376   4.999   4.284  0.8456 -0.5463 -0.0269
  188MOL0     C25265   3.252   5.029   4.202 -0.9053 -0.3285 -0.1841
  188MOL0     C25266   3.271   5.165   4.133 -0.4152 -0.0065 -0.1966
  188MOL0     C25267   3.170   5.194   4.024 -0.4206 -0.1108  0.2812
  188MOL0     C25268   3.022   5.205   4.078  0.4341 -0.0671 -0.1499
  188MOL0     O25269   2.949   5.290   3.987 -0.2071  0.5776  0.3452
  188MOL0     C25270   2.846   5.247   3.910 -1.0056  0.1260  0.5605
  188MOL0     C25271   2.833   5.311   3.791  0.1540 -0.0876  0.1052
  188MOL0     C25272   2.741   5.283   3.694  0.6646  0.5607 -0.3371
  188MOL0     C25273   2.761   5.341   3.560  0.0937  0.1689 -0.2028
  188MOL0     C25274   2.642   5.187   3.718  0.7464  0.7717  0.0440
  188MOL0     C25275   2.537   5.149   3.615 -0.4343 -1.0852  0.0228
  188MOL0     O25276   2.480   5.029   3.631  0.7806  0.7522  0.2957
  188MOL0     C25277   2.383   4.973   3.548 -0.5552 -0.9299 -0.4717
  188MOL0     C25278   2.348   4.848   3.586 -0.1502  0.0249  0.0035
  188MOL0     C25279   2.238   4.783   3.535  0.3809 -1.0510  0.0132
  188MOL0     C25280   2.180   4.836   3.420  0.8433  0.2346 -0.2373
  188MOL0     O25281   2.075   4.759   3.382 -0.3034  0.0593 -0.0593
  188MOL0     C25282   2.017   4.798   3.259  0.0900  0.0635  0.3265
  188MOL0     C25283   1.885   4.872   3.296 -0.6392  0.6216  0.5751
  188MOL0     C25284   1.808   4.926   3.173 -0.1526  0.3186 -0.2767
  188MOL0     C25285   1.685   5.001   3.227 -0.0638  0.0163 -0.4516
  188MOL0     C25286   1.613   5.104   3.133  0.3555  0.1428  0.2840
  188MOL0     C25287   1.501   5.174   3.200  0.1618 -0.7903 -0.3283
  188MOL0     C25288   1.385   5.078   3.219  0.1786 -0.9958  0.0540
  188MOL0     C25289   1.375   5.026   3.363 -0.2846 -0.0011  0.4842
  188MOL0    Cl25290   1.342   5.133   3.495 -0.3281  0.0660  0.1214
  188MOL0     C25291   2.210   4.967   3.371 -0.7448  0.5119  0.0511
  188MOL0     C25292   2.311   5.034   3.447  0.1268 -0.8946  1.1399
  188MOL0     O25293   2.505   5.233   3.526 -0.4400  0.2541 -1.0467
  188MOL0     C25294   2.648   5.118   3.838 -0.3344  0.6258  0.5353
  188MOL0     C25295   2.755   5.148   3.934  0.3291  0.2221 -0.6389
  188MOL0     N25296   3.412   5.023   4.416  1.0430  0.7871  0.0695
  188MOL0     N25297   3.517   4.967   4.460  0.8907 -0.2985 -0.8689
  188MOL0     C25298   4.581   4.335   4.514  0.2563  0.8458  0.1191
  188MOL0     C25299   4.645   4.327   4.638 -0.2116  0.1744  0.4697
  188MOL0     C25300   4.955   4.320   4.960  0.0962  0.6711 -0.2768
  188MOL0     C25301   5.077   4.271   4.998 -0.2361  0.4330 -0.5510
  188MOL0     C25302   5.107   4.262   5.134  0.8426  0.4131 -0.3751
  188MOL0     C25303   5.012   4.298   5.233 -0.5972 -0.2745 -0.0502
  188MOL0     O25304   5.034   4.284   5.367  0.4253 -0.5424 -0.3609
  188MOL0     C25305   5.094   4.172   5.410 -1.0268  0.4483 -0.8275
  188MOL0     C25306   5.020   4.131   5.529  0.5653 -0.4367  0.1205
  188MOL0     C25307   5.050   4.227   5.652  0.2650 -0.3272 -0.1666
  188MOL0     C25308   5.016   4.150   5.784  0.2556 -0.6768 -0.1730
  188MOL0     C25309   5.112   4.064   5.853  0.6465 -0.4505 -0.3259
  188MOL0     C25310   5.196   4.001   5.908 -0.1178 -0.6607  0.6943
  188MOL0     C25311   4.882   4.339   5.200  0.1188 -0.8274  0.1925
  188MOL0     C25312   4.863   4.364   5.062 -0.7150 -0.3056 -0.0398
  188MOL0     H25313   4.897   4.545   4.597  1.6896 -1.7101  1.4113
  188MOL0     H25314   4.776   4.545   4.354  1.0409  1.9646  1.1671
  188MOL0     H25315   4.542   4.629   4.311 -0.9405  0.6126 -1.2875
  188MOL0     H25316   4.492   4.552   4.157  0.2979 -2.3942 -0.0396
  188MOL0     H25317   4.305   4.442   4.295  2.0102 -0.7241  1.9608
  188MOL0     H25318   4.356   4.517   4.426  2.6538 -2.6891 -0.9323
  188MOL0     H25319   4.325   4.738   4.307  1.4518 -1.4644  4.1899
  188MOL0     H25320   4.251   4.657   4.167  1.3520 -1.0299 -0.3294
  188MOL0     H25321   4.081   4.535   4.319 -2.6979  1.2578  1.6863
  188MOL0     H25322   4.162   4.622   4.451 -0.0947  0.7025  0.4941
  188MOL0     H25323   4.080   4.819   4.411 -0.4215 -1.2289  0.9424
  188MOL0     H25324   4.057   4.809   4.238 -2.2417  2.4857 -0.2121
  188MOL0     H25325   3.872   4.628   4.313  2.0329 -0.7803  0.7583
  188MOL0     H25326   3.885   4.713   4.468  4.0443  2.5351  1.0561
  188MOL0     H25327   3.813   4.924   4.355  3.2810  0.8914 -2.0195
  188MOL0     H25328   3.782   4.836   4.204 -0.2909 -0.1190  0.1885
  188MOL0     H25329   3.662   4.754   4.474 -1.5392  1.3802 -0.1175
  188MOL0     H25330   3.621   4.691   4.315 -2.9207  0.1767 -0.7675
  188MOL0     H25331   3.478   4.852   4.158  0.9627  1.1210 -0.6313
  188MOL0     H25332   3.237   4.945   4.133 -1.2849 -1.5066  1.2750
  188MOL0     H25333   3.165   5.016   4.266 -1.4486 -0.2041 -0.8903
  188MOL0     H25334   3.373   5.178   4.096 -1.2966 -1.1895 -3.4044
  188MOL0     H25335   3.260   5.248   4.203  1.8690  0.8624 -0.7838
  188MOL0     H25336   3.168   5.110   3.953 -2.1374 -2.1917  2.6044
  188MOL0     H25337   3.198   5.284   3.969 -1.8007 -0.3782 -0.9416
  188MOL0     H25338   3.032   5.250   4.177  3.0196  1.2468 -0.9127
  188MOL0     H25339   2.974   5.107   4.078 -2.5801  1.3036 -1.2359
  188MOL0     H25340   2.906   5.387   3.764  1.1899 -0.6956  1.0811
  188MOL0     H25341   2.864   5.372   3.537  0.2341 -0.9498 -1.1601
  188MOL0     H25342   2.752   5.275   3.473  2.0532 -1.1395  0.5225
  188MOL0     H25343   2.710   5.437   3.553 -0.6899 -0.1577  0.9131
  188MOL0     H25344   2.400   4.820   3.677 -1.1010 -0.0181  0.5454
  188MOL0     H25345   2.192   4.698   3.584  0.7562 -0.6176  1.1579
  188MOL0     H25346   2.080   4.859   3.194  0.3936  1.7687  2.1084
  188MOL0     H25347   1.998   4.711   3.196  1.9164  1.3072 -2.0802
  188MOL0     H25348   1.816   4.813   3.358 -1.4876  0.1548 -0.7831
  188MOL0     H25349   1.907   4.960   3.357  0.2681  1.6262 -1.1269
  188MOL0     H25350   1.768   4.848   3.107  0.0185  0.5545 -0.6677
  188MOL0     H25351   1.871   4.992   3.113  2.1715  1.5865  3.2376
  188MOL0     H25352   1.617   4.924   3.265 -0.9334  1.1365  0.3124
  188MOL0     H25353   1.717   5.057   3.315 -1.0145 -0.0429 -0.0578
  188MOL0     H25354   1.586   5.050   3.042 -1.2596  0.2883  0.6574
  188MOL0     H25355   1.684   5.184   3.110  1.8467 -1.4130 -0.8014
  188MOL0     H25356   1.536   5.210   3.297 -0.0866 -0.0168 -0.5145
  188MOL0     H25357   1.463   5.262   3.146  0.1902 -1.0989 -0.8502
  188MOL0     H25358   1.386   5.001   3.142 -3.1796 -0.2343 -0.9275
  188MOL0     H25359   1.286   5.125   3.211  0.4035 -0.2799  1.1525
  188MOL0     H25360   1.463   4.966   3.388 -0.0594  0.2764  0.3646
  188MOL0     H25361   1.289   4.960   3.354 -0.2215 -0.1210  0.7715
  188MOL0     H25362   2.175   5.019   3.282  1.8569 -0.7200 -1.8574
  188MOL0     H25363   2.337   5.132   3.406 -0.6732 -1.7195 -1.5651
  188MOL0     H25364   2.570   5.050   3.869 -2.8202  2.0566 -2.0448
  188MOL0     H25365   2.751   5.114   4.037 -1.8577  0.5657 -0.5623
  188MOL0     H25366   4.491   4.277   4.496  3.7711 -5.3684 -0.6624
  188MOL0     H25367   4.595   4.258   4.706 -1.4813 -1.5536 -2.0302
  188MOL0     H25368   5.154   4.236   4.931 -2.5061 -1.5753 -2.2761
  188MOL0     H25369   5.197   4.211   5.166  2.1239  1.3117 -2.3600
  188MOL0     H25370   5.092   4.092   5.335  2.1953  1.6510 -2.3644
  188MOL0     H25371   5.199   4.190   5.434 -1.5528  0.8020  1.3655
  188MOL0     H25372   5.061   4.031   5.546 -0.5164 -1.2536 -1.7779
  188MOL0     H25373   4.911   4.128   5.520  0.3995 -2.8563  1.7712
  188MOL0     H25374   4.985   4.313   5.667  0.7885 -0.3484  2.6561
  188MOL0     H25375   5.157   4.246   5.661  0.4282 -2.1808  3.2739
  188MOL0     H25376   4.931   4.087   5.755 -0.5386 -0.8713  2.3390
  188MOL0     H25377   4.958   4.217   5.848 -1.5518 -0.6231 -1.7842
  188MOL0     H25378   5.255   3.937   5.970  1.3657  1.4957  1.6198
  188MOL0     H25379   4.802   4.360   5.270  0.7101 -1.5365  1.1077
  188MOL0     H25380   4.767   4.396   5.023  0.0092  0.3685 -1.3517
  189MOL0     O25381   0.842   1.895   9.810  0.5321  0.2062 -0.6157
  189MOL0     C25382   0.767   1.874   9.712 -0.0939 -0.0087 -0.4594
  189MOL0     O25383   0.738   1.749   9.654  0.1375 -0.6736 -1.1232
  189MOL0     C25384   0.787   1.631   9.716 -0.1219  0.8794  0.7452
  189MOL0     C25385   0.919   1.613   9.762  0.1208 -0.0253  0.2937
  189MOL0     C25386   0.951   1.492   9.821 -0.2945 -0.6842 -0.5015
  189MOL0     C25387   0.871   1.378   9.824  0.1452  0.3524 -0.4509
  189MOL0     O25388   0.916   1.272   9.902  0.2610 -0.6716  0.5065
  189MOL0     C25389   1.055   1.229   9.877  0.1483 -0.2110 -0.1881
  189MOL0     C25390   1.066   1.078   9.922  0.1816 -0.1431  0.2480
  189MOL0     C25391   0.991   0.977   9.816  0.4292 -0.6767  0.7560
  189MOL0     C25392   1.055   0.836   9.809  0.2636  0.0888 -0.1816
  189MOL0     C25393   1.185   0.824   9.737 -0.1544  0.5227 -0.2744
  189MOL0     C25394   1.239   0.688   9.753 -0.0041  0.3105 -0.0299
  189MOL0     C25395   1.378   0.682   9.677  0.2829  0.4388 -0.3818
  189MOL0     C25396   1.443   0.541   9.655 -0.8586 -0.5910 -0.0546
  189MOL0     N25397   1.516   0.479   9.761  1.2715  0.1843 -0.4905
  189MOL0     C25398   1.452   0.379   9.837  0.0046  0.5080 -0.1893
  189MOL0     C25399   1.542   0.337   9.930 -0.1816  0.2902 -0.1544
  189MOL0     C25400   1.547   0.223  10.030  0.5922 -0.6612 -0.7070
  189MOL0     C25401   1.495   0.279  10.169  0.2835  0.0137 -0.0923
  189MOL0     C25402   1.353   0.236  10.199 -0.0542 -0.0499  0.3131
  189MOL0     C25403   1.328   0.274  10.337  0.6687 -0.2303 -0.0930
  189MOL0     O25404   1.211   0.212  10.387 -0.6659  0.0974 -0.1024
  189MOL0     C25405   1.170   0.208  10.521  0.2601  0.1155 -0.1173
  189MOL0     C25406   1.044   0.131  10.523  0.3133  0.6797  0.4231
  189MOL0     C25407   0.980   0.098  10.638  0.6435 -0.5655 -0.5461
  189MOL0     C25408   0.866   0.011  10.626 -0.2651 -0.1950 -0.0736
  189MOL0     C25409   1.038   0.141  10.765 -0.0518  0.3042  0.0331
  189MOL0     C25410   0.987   0.105  10.896 -0.4365  0.2264 -0.3699
  189MOL0     O25411   1.069   0.126  11.005 -0.4690 -0.2380 -0.1238
  189MOL0     C25412   1.038   0.076  11.138  1.6830  0.6460  0.4007
  189MOL0     C25413   0.920   0.032  11.197 -1.0410  1.3193 -0.3545
  189MOL0     C25414   0.920  -0.020  11.334 -0.3371 -0.4557  0.5883
  189MOL0     C25415   1.043  -0.031  11.398 -0.6930 -0.6812  0.6188
  189MOL0     O25416   1.072  -0.112  11.503  0.1206 -0.3696 -0.1145
  189MOL0     C25417   0.971  -0.199  11.548  0.9475  0.1705  0.0103
  189MOL0     C25418   1.019  -0.305  11.649  0.4677  0.2827  0.0981
  189MOL0     C25419   0.944  -0.449  11.615 -0.2577  0.2419  0.0898
  189MOL0     C25420   0.980  -0.550  11.717  0.3953  0.4568 -0.3475
  189MOL0     C25421   1.092  -0.644  11.689  0.4934 -0.5384 -0.5055
  189MOL0     C25422   1.048  -0.746  11.585  0.1454  0.4699 -0.5789
  189MOL0     C25423   1.142  -0.870  11.560  0.7510 -0.5041 -1.1363
  189MOL0     C25424   1.281  -0.807  11.529  0.3181 -0.0678  0.6008
  189MOL0    Cl25425   1.382  -0.930  11.440 -0.1025 -0.2121 -0.2442
  189MOL0     C25426   1.150   0.014  11.336  0.0154  0.0774  0.1326
  189MOL0     C25427   1.148   0.069  11.209 -0.0692 -1.0808  0.1630
  189MOL0     O25428   0.874   0.064  10.907 -0.3056  0.0680  0.5444
  189MOL0     C25429   1.160   0.217  10.756  0.9229  0.0423  0.6235
  189MOL0     C25430   1.221   0.251  10.641  0.3144 -0.5083  0.4216
  189MOL0     N25431   1.653   0.416   9.915  0.0535 -0.3761 -0.1706
  189MOL0     N25432   1.642   0.498   9.814 -0.1711  0.5410  0.6528
  189MOL0     C25433   0.750   1.386   9.753 -0.3993  0.6705  0.0269
  189MOL0     C25434   0.706   1.507   9.691 -0.5772  0.0233 -0.4045
  189MOL0     C25435   0.684   1.986   9.666  0.0213 -0.3323 -0.2721
  189MOL0     C25436   0.694   2.103   9.742 -0.4901 -0.7174  0.0545
  189MOL0     C25437   0.610   2.218   9.706 -0.2532 -1.0263  0.2367
  189MOL0     C25438   0.525   2.209   9.597  0.5310  0.1795 -0.0179
  189MOL0     O25439   0.437   2.305   9.553  0.7066 -0.0292  0.8208
  189MOL0     C25440   0.448   2.440   9.566 -0.2655  0.7867  0.5161
  189MOL0     C25441   0.349   2.503   9.466  0.1901 -0.3190 -0.8188
  189MOL0     C25442   0.293   2.632   9.523  0.8100 -0.0530  0.0437
  189MOL0     C25443   0.212   2.711   9.419 -0.7009  0.9481  0.5018
  189MOL0     C25444   0.077   2.648   9.390 -0.2308  0.5920  0.1438
  189MOL0     C25445  -0.018   2.603   9.338  0.0549 -1.0506 -0.5111
  189MOL0     C25446   0.510   2.090   9.538  0.5009 -0.0169 -0.3248
  189MOL0     C25447   0.588   1.978   9.562  0.2199  0.2402 -0.0427
  189MOL0     H25448   0.985   1.699   9.764  0.3533 -0.2162  1.2382
  189MOL0     H25449   1.040   1.488   9.882 -0.5097  0.3099 -0.1122
  189MOL0     H25450   1.072   1.227   9.769 -1.5957  0.5834 -0.5102
  189MOL0     H25451   1.124   1.296   9.929  0.1699  1.3557 -2.1200
  189MOL0     H25452   1.174   1.060   9.921  0.1100 -0.6613 -0.8971
  189MOL0     H25453   1.018   1.063  10.019 -0.9001  5.4385  0.9047
  189MOL0     H25454   0.889   0.955   9.849  0.7560 -2.8447  0.4219
  189MOL0     H25455   0.993   1.025   9.718  0.3660 -3.4865 -0.7032
  189MOL0     H25456   1.063   0.793   9.909  1.9915  3.7478  1.4580
  189MOL0     H25457   0.989   0.762   9.764 -1.6656  1.0050  1.0194
  189MOL0     H25458   1.165   0.851   9.633  4.1573  1.1540 -1.1215
  189MOL0     H25459   1.249   0.907   9.769 -1.0514  0.7849  0.9158
  189MOL0     H25460   1.256   0.662   9.858 -0.8590 -3.2339 -0.6148
  189MOL0     H25461   1.160   0.617   9.727 -0.2026 -0.4925  2.4867
  189MOL0     H25462   1.361   0.718   9.575  1.3967  0.4923 -0.5631
  189MOL0     H25463   1.452   0.748   9.725 -2.0137  3.1498 -0.2994
  189MOL0     H25464   1.509   0.567   9.571 -0.0868  1.4396  1.0943
  189MOL0     H25465   1.362   0.483   9.609 -1.4671  1.8685 -2.4088
  189MOL0     H25466   1.359   0.329   9.813  0.8407 -2.2670  1.7766
  189MOL0     H25467   1.490   0.135   9.998 -0.1691 -0.0825 -0.9666
  189MOL0     H25468   1.655   0.206  10.026  0.8445  0.6317  0.0853
  189MOL0     H25469   1.506   0.388  10.169 -0.5282  0.1105 -0.4401
  189MOL0     H25470   1.567   0.252  10.246  0.3613  0.5640  0.0334
  189MOL0     H25471   1.342   0.128  10.183  2.7575 -0.6046  1.4904
  189MOL0     H25472   1.284   0.282  10.128  1.4218 -0.2409 -1.3275
  189MOL0     H25473   1.306   0.381  10.336 -6.2306 -1.1398 -2.4310
  189MOL0     H25474   1.415   0.242  10.394  1.4709  1.0313 -0.5755
  189MOL0     H25475   1.005   0.109  10.424  0.7992  1.7915 -0.0317
  189MOL0     H25476   0.770   0.050  10.663 -2.0624 -2.5967 -1.8754
  189MOL0     H25477   0.853  -0.017  10.521 -0.4461  2.1934 -0.7462
  189MOL0     H25478   0.900  -0.073  10.687  0.5083  1.0415  1.2639
  189MOL0     H25479   0.830   0.017  11.138 -0.8918 -1.3237 -0.0212
  189MOL0     H25480   0.826  -0.039  11.384 -1.3943  0.0042 -1.1255
  189MOL0     H25481   0.889  -0.141  11.592 -0.5423 -1.0984 -1.0094
  189MOL0     H25482   0.930  -0.251  11.461  1.8021 -3.0731  1.4078
  189MOL0     H25483   1.127  -0.318  11.644  0.6260  1.6610 -0.4091
  189MOL0     H25484   0.997  -0.280  11.753 -1.6003  0.3637 -0.3119
  189MOL0     H25485   0.968  -0.479  11.512  2.6499 -0.9819  1.0143
  189MOL0     H25486   0.836  -0.433  11.619 -0.2411  0.1098  1.2938
  189MOL0     H25487   1.008  -0.495  11.808  0.7579 -1.4416  0.7495
  189MOL0     H25488   0.894  -0.611  11.745  1.0056  0.7550  2.4894
  189MOL0     H25489   1.125  -0.683  11.785  0.8731  1.0687  0.0603
  189MOL0     H25490   1.183  -0.593  11.654  0.7146  0.0882  0.9221
  189MOL0     H25491   0.948  -0.785  11.608 -1.0313  2.6438 -1.6905
  189MOL0     H25492   1.020  -0.701  11.489 -0.7823 -2.8963 -2.0219
  189MOL0     H25493   1.104  -0.932  11.478  0.4278 -1.5914 -0.1901
  189MOL0     H25494   1.134  -0.921  11.656 -0.1532 -0.3030 -1.0961
  189MOL0     H25495   1.326  -0.768  11.620  1.6621 -1.1654  0.4417
  189MOL0     H25496   1.274  -0.720  11.462 -0.3499 -0.7899 -0.2982
  189MOL0     H25497   1.243   0.017  11.392  1.8105  1.8122 -2.6658
  189MOL0     H25498   1.244   0.091  11.162 -0.3170  1.3209  0.6428
  189MOL0     H25499   1.201   0.253  10.850  1.0733 -0.7021  0.8458
  189MOL0     H25500   1.310   0.308  10.665 -0.9754  1.0038  1.8810
  189MOL0     H25501   0.689   1.297   9.746  0.6295  0.0479 -1.2838
  189MOL0     H25502   0.605   1.511   9.652 -0.7250  0.7666  0.0334
  189MOL0     H25503   0.754   2.110   9.832 -2.2734  2.1119  1.1693
  189MOL0     H25504   0.630   2.315   9.750 -1.8354 -0.4270 -0.2631
  189MOL0     H25505   0.430   2.461   9.672  1.9461 -1.3813  1.4408
  189MOL0     H25506   0.550   2.464   9.533  0.3672 -1.5149  0.5869
  189MOL0     H25507   0.269   2.430   9.455 -1.5505  1.7504 -3.2541
  189MOL0     H25508   0.399   2.521   9.370  0.4909  2.3712 -0.2387
  189MOL0     H25509   0.369   2.700   9.563  2.4527 -1.8923  0.1958
  189MOL0     H25510   0.222   2.623   9.606 -1.9917  1.7552 -1.9730
  189MOL0     H25511   0.267   2.714   9.324 -0.1918 -2.6536  0.5323
  189MOL0     H25512   0.206   2.816   9.449 -0.5272  0.8150  1.0087
  189MOL0     H25513  -0.101   2.565   9.281  0.5690 -1.9140 -0.6934
  189MOL0     H25514   0.440   2.075   9.456 -1.1390  1.8517  0.6541
  189MOL0     H25515   0.570   1.883   9.512  0.7418 -1.0897  2.1587
  190MOL0     O25516   5.804   0.983   3.100 -0.6703  0.1125 -0.2768
  190MOL0     C25517   5.880   1.082   3.091  0.3308 -0.0906 -0.3689
  190MOL0     O25518   5.882   1.181   3.195  0.8421  0.2002 -0.1359
  190MOL0     C25519   5.798   1.163   3.302 -0.4673  0.1833  0.5444
  190MOL0     C25520   5.776   1.047   3.378  0.5576  0.0671  0.3610
  190MOL0     C25521   5.670   1.033   3.470 -0.7171 -0.6072  1.0017
  190MOL0     C25522   5.601   1.143   3.510  0.5224 -0.6038 -0.2494
  190MOL0     O25523   5.506   1.119   3.610 -0.2424 -0.1624  0.2531
  190MOL0     C25524   5.463   1.234   3.680  0.2991  0.7158 -0.5385
  190MOL0     C25525   5.565   1.279   3.777  0.0922 -0.1980 -0.5114
  190MOL0     C25526   5.504   1.369   3.882  0.3081 -0.7064 -1.0807
  190MOL0     C25527   5.619   1.418   3.977  1.3439 -0.0822 -0.1276
  190MOL0     C25528   5.572   1.522   4.088 -0.6028  0.3503  1.0339
  190MOL0     C25529   5.475   1.627   4.030  1.0026 -0.2059 -0.3414
  190MOL0     C25530   5.452   1.733   4.132 -0.1961 -0.9301 -1.0119
  190MOL0     C25531   5.321   1.822   4.096 -0.3735 -0.5718 -0.1278
  190MOL0     N25532   5.239   1.861   4.217  0.1877  0.7277  0.3480
  190MOL0     C25533   5.123   1.796   4.258  0.3632 -0.7035  1.0067
  190MOL0     C25534   5.097   1.842   4.380  0.1915  0.2755 -0.4792
  190MOL0     C25535   4.979   1.815   4.466 -0.1263  0.1425 -0.5184
  190MOL0     C25536   4.875   1.921   4.420 -0.8681  0.1682 -1.0565
  190MOL0     C25537   4.842   2.012   4.536  0.2129 -0.6765 -0.2917
  190MOL0     C25538   4.728   2.116   4.506  0.6701  0.7633  0.4320
  190MOL0     O25539   4.667   2.156   4.623 -0.0061  0.2452  0.1163
  190MOL0     C25540   4.573   2.253   4.628 -0.4035 -0.9075 -0.2166
  190MOL0     C25541   4.546   2.302   4.759 -0.5056  0.0462  0.8494
  190MOL0     C25542   4.449   2.393   4.791 -0.1265  0.4267  0.0021
  190MOL0     C25543   4.423   2.419   4.936 -0.2910 -0.1610  0.1012
  190MOL0     C25544   4.375   2.451   4.688  0.0092  0.8883 -0.4024
  190MOL0     C25545   4.277   2.563   4.700 -0.8330 -0.2904 -2.0025
  190MOL0     O25546   4.268   2.641   4.590  0.0763 -0.3088 -0.1900
  190MOL0     C25547   4.174   2.748   4.580 -0.2057  0.6289  0.8679
  190MOL0     C25548   4.172   2.801   4.449  0.1240 -0.7408  1.2822
  190MOL0     C25549   4.072   2.902   4.414 -0.0604 -0.5450 -0.7469
  190MOL0     C25550   3.982   2.944   4.508  0.4408 -0.4431 -0.1572
  190MOL0     O25551   3.897   3.054   4.497  0.0197  0.8334 -0.0178
  190MOL0     C25552   3.961   3.178   4.464 -0.1887 -0.3308 -0.2002
  190MOL0     C25553   3.847   3.278   4.491  0.5375 -0.1543 -0.1255
  190MOL0     C25554   3.743   3.285   4.380 -0.1164 -0.1959 -0.7579
  190MOL0     C25555   3.609   3.334   4.432 -0.2402 -0.4157  0.6104
  190MOL0     C25556   3.510   3.371   4.335 -0.5463 -0.2838  1.3568
  190MOL0     C25557   3.547   3.491   4.250 -0.2363  0.6376  0.4209
  190MOL0     C25558   3.424   3.532   4.165  0.2468 -0.8386  0.8959
  190MOL0     C25559   3.451   3.670   4.103  1.0800  0.0663  0.8746
  190MOL0    Cl25560   3.322   3.694   3.963  0.1645  0.3277  0.1065
  190MOL0     C25561   3.994   2.889   4.634 -0.7350 -0.2723 -1.0973
  190MOL0     C25562   4.084   2.795   4.670  0.2085  0.1222  0.1162
  190MOL0     O25563   4.225   2.577   4.815  0.7123  0.0854 -0.3943
  190MOL0     C25564   4.397   2.405   4.554 -1.1537  0.0032  0.7328
  190MOL0     C25565   4.503   2.313   4.527  0.3291  0.0020  0.3367
  190MOL0     N25566   5.209   1.925   4.416  0.1778  0.6302  0.6214
  190MOL0     N25567   5.292   1.928   4.310  0.2286 -0.2535  0.1923
  190MOL0     C25568   5.630   1.270   3.453 -0.8373  0.5819  0.3600
  190MOL0     C25569   5.724   1.276   3.341 -0.9169 -1.4897 -0.0277
  190MOL0     C25570   5.958   1.105   2.964 -0.5601  0.3778 -0.6204
  190MOL0     C25571   5.965   1.233   2.919  0.2631 -0.6766 -0.4098
  190MOL0     C25572   6.054   1.270   2.818  0.1577 -0.2302  0.3216
  190MOL0     C25573   6.128   1.168   2.754 -0.3393  0.2591 -0.4074
  190MOL0     O25574   6.214   1.210   2.666 -0.5405 -0.1656  0.1233
  190MOL0     C25575   6.232   1.135   2.545 -0.6191  0.3021 -0.0460
  190MOL0     C25576   6.117   1.131   2.445 -0.9230  0.2126  0.2356
  190MOL0     C25577   6.149   1.095   2.297  0.5274  0.1114  0.3565
  190MOL0     C25578   6.054   1.004   2.216  0.4489  0.6165 -0.1749
  190MOL0     C25579   5.919   1.045   2.211 -0.1961  0.4889  0.9015
  190MOL0     C25580   5.797   1.068   2.201 -0.4111 -0.7424 -0.9115
  190MOL0     C25581   6.113   1.033   2.801  0.1007  0.1708 -0.1883
  190MOL0     C25582   6.025   0.999   2.897  0.2884 -0.5721  0.0633
  190MOL0     H25583   5.830   0.958   3.346  1.5987  1.5183 -2.2227
  190MOL0     H25584   5.661   0.944   3.532 -1.3540 -1.6671 -0.5732
  190MOL0     H25585   5.434   1.314   3.611  0.5852 -0.3009 -1.8889
  190MOL0     H25586   5.378   1.200   3.740  1.5767  0.5856  1.2526
  190MOL0     H25587   5.592   1.185   3.826  1.4341  0.4458  0.0282
  190MOL0     H25588   5.654   1.318   3.726  0.0380 -0.5004 -0.8410
  190MOL0     H25589   5.463   1.455   3.827 -0.8255 -0.9536 -0.6396
  190MOL0     H25590   5.433   1.307   3.937  1.7731 -0.9531  0.5954
  190MOL0     H25591   5.669   1.341   4.036  2.6332  2.3532  2.2147
  190MOL0     H25592   5.701   1.458   3.916  1.6436 -0.3620  0.0850
  190MOL0     H25593   5.526   1.461   4.166  0.1628 -2.4497 -0.5851
  190MOL0     H25594   5.664   1.574   4.114 -0.4752  0.2958  0.6895
  190MOL0     H25595   5.509   1.676   3.938  2.0249  0.0163  0.1456
  190MOL0     H25596   5.379   1.581   4.004 -0.0468  1.9874 -0.5134
  190MOL0     H25597   5.418   1.684   4.224 -0.3268  2.7060  1.0728
  190MOL0     H25598   5.534   1.798   4.164 -2.8276  1.6370  1.0460
  190MOL0     H25599   5.258   1.767   4.025 -0.8430 -2.1379  1.4510
  190MOL0     H25600   5.346   1.916   4.046 -1.4216  0.6202  1.5013
  190MOL0     H25601   5.055   1.748   4.189  0.2824  2.6194 -1.4856
  190MOL0     H25602   4.938   1.714   4.457  0.3226 -0.3918  2.4878
  190MOL0     H25603   5.013   1.832   4.569  0.0393 -0.8312 -0.4033
  190MOL0     H25604   4.788   1.878   4.369 -1.4560  1.8558 -1.5506
  190MOL0     H25605   4.915   1.985   4.341  0.8102 -0.0830 -0.4624
  190MOL0     H25606   4.929   2.064   4.578 -1.5204  0.8745  1.6279
  190MOL0     H25607   4.813   1.945   4.617 -0.5882  1.2717  1.1308
  190MOL0     H25608   4.658   2.083   4.429 -1.8487  3.0599  1.5726
  190MOL0     H25609   4.756   2.219   4.481 -1.1337  1.5784  1.6084
  190MOL0     H25610   4.601   2.252   4.838  3.6847  1.7102 -0.6802
  190MOL0     H25611   4.505   2.383   5.000 -0.3947  0.7616  0.7839
  190MOL0     H25612   4.416   2.528   4.944 -3.2145 -0.3174  0.7271
  190MOL0     H25613   4.329   2.369   4.961 -0.1640 -0.1893  0.5438
  190MOL0     H25614   4.242   2.757   4.379 -1.3688 -0.4646 -0.4935
  190MOL0     H25615   4.080   2.956   4.320  0.5721 -0.4836 -0.6607
  190MOL0     H25616   4.048   3.193   4.528 -0.0308  1.8342 -0.8292
  190MOL0     H25617   3.996   3.178   4.360  1.3380 -0.6498  0.2979
  190MOL0     H25618   3.800   3.252   4.586 -2.4544 -0.0559 -1.4794
  190MOL0     H25619   3.891   3.378   4.490 -2.9522  1.5541 -3.3290
  190MOL0     H25620   3.734   3.186   4.335  0.3600  1.1175 -3.9946
  190MOL0     H25621   3.783   3.340   4.295  4.0951 -1.2601  0.3070
  190MOL0     H25622   3.560   3.255   4.490 -1.1062 -1.1906 -1.1123
  190MOL0     H25623   3.623   3.420   4.498 -0.8336 -0.9875  1.4945
  190MOL0     H25624   3.411   3.396   4.374 -0.9456  0.6036 -0.1307
  190MOL0     H25625   3.491   3.287   4.266  2.0282 -0.8036  1.1806
  190MOL0     H25626   3.598   3.570   4.306 -0.1058  0.1693  0.9763
  190MOL0     H25627   3.634   3.472   4.185 -1.3106 -0.6458 -0.7044
  190MOL0     H25628   3.340   3.552   4.232  1.8056  0.4034  2.6116
  190MOL0     H25629   3.403   3.459   4.086 -0.5091 -0.1154  0.4202
  190MOL0     H25630   3.551   3.668   4.060  1.4962  0.4641  1.7864
  190MOL0     H25631   3.444   3.752   4.175  3.4043  1.1070  0.0050
  190MOL0     H25632   3.928   2.922   4.714 -2.6623 -4.4573 -0.7210
  190MOL0     H25633   4.070   2.748   4.767 -1.1386 -0.9097 -0.5521
  190MOL0     H25634   4.341   2.449   4.472 -0.8290 -0.8660  0.0219
  190MOL0     H25635   4.512   2.274   4.426  4.0093 -3.6721  1.8082
  190MOL0     H25636   5.589   1.361   3.496 -0.2394  0.2083  1.7897
  190MOL0     H25637   5.753   1.374   3.303  1.8531 -1.3005  2.2318
  190MOL0     H25638   5.918   1.312   2.977  0.0125 -0.2750 -1.1448
  190MOL0     H25639   6.079   1.374   2.795  1.3850 -0.8445 -1.4091
  190MOL0     H25640   6.324   1.164   2.493  0.6560 -1.4541  1.1032
  190MOL0     H25641   6.244   1.029   2.573 -0.4762 -0.1347 -1.6722
  190MOL0     H25642   6.069   1.229   2.453 -1.3021  0.0331  0.1875
  190MOL0     H25643   6.048   1.060   2.491  1.8019 -0.8763  3.0252
  190MOL0     H25644   6.251   1.058   2.312  0.9131  0.6908 -0.7375
  190MOL0     H25645   6.161   1.188   2.241  1.2453 -1.0012 -1.4442
  190MOL0     H25646   6.064   0.900   2.248  2.3375  1.1823  1.2858
  190MOL0     H25647   6.092   1.012   2.113 -0.5253 -0.1989 -0.6186
  190MOL0     H25648   5.691   1.083   2.202 -0.2198  0.6706 -0.0636
  190MOL0     H25649   6.170   0.950   2.762 -3.4414 -2.6764  0.2289
  190MOL0     H25650   6.023   0.891   2.912 -0.8691 -0.6572 -0.5622
  191MOL0     O25651   1.155   8.995   0.378 -0.4739  0.0258 -0.8665
  191MOL0     C25652   1.145   9.002   0.260 -0.6282  1.0026 -0.5255
  191MOL0     O25653   1.049   9.069   0.190  0.3287  0.2089  0.3061
  191MOL0     C25654   0.931   9.111   0.242 -0.2314  0.8372 -0.3318
  191MOL0     C25655   0.882   9.228   0.189  0.7571 -0.6417 -0.2949
  191MOL0     C25656   0.760   9.277   0.236 -0.4216  0.0165 -0.4336
  191MOL0     C25657   0.694   9.215   0.340  0.2212 -0.1016 -0.7045
  191MOL0     O25658   0.578   9.278   0.384 -0.1971  0.6655  0.4342
  191MOL0     C25659   0.599   9.343   0.510 -0.7282  0.3161  0.1970
  191MOL0     C25660   0.456   9.364   0.571  0.2032  0.1428 -0.8656
  191MOL0     C25661   0.353   9.256   0.547 -0.3260 -0.8919  1.0985
  191MOL0     C25662   0.224   9.285   0.619  0.5369  0.5341  0.0636
  191MOL0     C25663   0.149   9.156   0.625 -0.7647 -0.0247 -0.4455
  191MOL0     C25664   0.013   9.179   0.695 -1.1638  0.4080  0.0103
  191MOL0     C25665  -0.086   9.066   0.688 -0.2692  0.1784 -0.9313
  191MOL0     C25666  -0.232   9.122   0.712 -0.2762  0.0195 -0.2046
  191MOL0     N25667  -0.340   9.025   0.739  0.4375  0.6830  0.0769
  191MOL0     C25668  -0.362   8.953   0.854 -1.0350 -0.4001 -0.4782
  191MOL0     C25669  -0.482   8.890   0.840  0.5776 -0.3587 -0.9064
  191MOL0     C25670  -0.557   8.797   0.937  0.0056 -0.3867 -0.6196
  191MOL0     C25671  -0.693   8.756   0.889  0.3181  0.2721  0.0871
  191MOL0     C25672  -0.754   8.666   0.993  0.3240 -0.0128  0.0671
  191MOL0     C25673  -0.891   8.624   0.946  0.6834 -0.0237  0.1079
  191MOL0     O25674  -0.948   8.526   1.035  0.4212  0.5375 -1.0790
  191MOL0     C25675  -1.072   8.482   0.999 -0.2862 -0.1428 -0.1979
  191MOL0     C25676  -1.144   8.497   0.873 -0.2780 -0.6381  0.9769
  191MOL0     C25677  -1.278   8.450   0.854 -0.2560  0.5839  0.9232
  191MOL0     C25678  -1.338   8.457   0.709 -0.2717  0.0286  0.6397
  191MOL0     C25679  -1.338   8.378   0.965  0.5195 -0.4539  0.0953
  191MOL0     C25680  -1.478   8.320   0.962  0.0149 -0.0940  0.1011
  191MOL0     O25681  -1.541   8.290   1.075  0.7050 -0.0937 -0.6178
  191MOL0     C25682  -1.675   8.243   1.069 -0.5501 -0.1280  0.1040
  191MOL0     C25683  -1.791   8.323   1.071  0.1180 -0.2832  0.1333
  191MOL0     C25684  -1.919   8.271   1.061  0.2310  0.6368  1.3735
  191MOL0     C25685  -1.941   8.140   1.044  0.5579 -0.2564 -0.0103
  191MOL0     O25686  -2.071   8.095   1.029  0.1596 -0.2635 -0.2587
  191MOL0     C25687  -2.088   8.026   0.911 -0.4911  0.2848  0.6740
  191MOL0     C25688  -2.116   8.125   0.795 -0.2059 -0.3782  0.4882
  191MOL0     C25689  -2.177   8.052   0.673 -0.3601 -0.4649 -0.8317
  191MOL0     C25690  -2.202   8.131   0.547  0.2111  0.8465 -0.1665
  191MOL0     C25691  -2.069   8.192   0.496  0.9282 -0.5402  0.4210
  191MOL0     C25692  -2.088   8.256   0.356  0.7146 -1.0959 -0.2154
  191MOL0     C25693  -2.002   8.385   0.347 -1.3207  0.1842 -1.0242
  191MOL0     C25694  -1.998   8.436   0.199  0.5270 -0.2575  0.3576
  191MOL0    Cl25695  -2.165   8.467   0.143 -0.0114  0.3298 -0.3599
  191MOL0     C25696  -1.833   8.060   1.053  0.5552 -0.4503  0.0220
  191MOL0     C25697  -1.694   8.097   1.056 -0.0595 -0.6234 -0.3812
  191MOL0     O25698  -1.536   8.311   0.848 -0.1998 -0.2831  0.7248
  191MOL0     C25699  -1.257   8.353   1.077 -0.5020  0.6634 -0.8304
  191MOL0     C25700  -1.126   8.410   1.097  1.3680 -0.1764  0.1433
  191MOL0     N25701  -0.531   8.928   0.714  0.4227  0.0996 -0.0122
  191MOL0     N25702  -0.437   8.992   0.653  0.4868 -1.6891 -0.6245
  191MOL0     C25703   0.751   9.103   0.407  0.0269 -0.9456  0.1914
  191MOL0     C25704   0.866   9.046   0.350  0.4609 -0.2800  0.0470
  191MOL0     C25705   1.274   8.949   0.202 -0.1824  0.0827  0.2318
  191MOL0     C25706   1.312   8.987   0.073  0.3324  0.0271  0.0369
  191MOL0     C25707   1.423   8.930   0.005 -0.2007 -1.0653 -0.2142
  191MOL0     C25708   1.498   8.824   0.059  0.9344 -0.3469 -0.1580
  191MOL0     O25709   1.590   8.773  -0.022 -0.0152  0.4503 -0.3667
  191MOL0     C25710   1.639   8.643   0.005 -0.5979 -0.1205  0.7657
  191MOL0     C25711   1.737   8.598  -0.105 -0.3750 -0.7623 -0.6840
  191MOL0     C25712   1.669   8.600  -0.243 -0.6166 -0.7018 -0.3632
  191MOL0     C25713   1.766   8.561  -0.349  0.0336 -0.0303 -0.4185
  191MOL0     C25714   1.833   8.430  -0.322  0.2187  0.4851 -0.7143
  191MOL0     C25715   1.871   8.312  -0.314  1.2643  0.6494 -0.2904
  191MOL0     C25716   1.466   8.788   0.192  0.2118  0.2452  0.4694
  191MOL0     C25717   1.358   8.854   0.261 -0.4397  0.0106  0.8649
  191MOL0     H25718   0.942   9.275   0.112  1.9506 -0.1657  0.8807
  191MOL0     H25719   0.726   9.372   0.196  1.3091  0.9069  0.0982
  191MOL0     H25720   0.663   9.288   0.580 -0.4756 -0.4024 -0.5834
  191MOL0     H25721   0.652   9.438   0.499  0.1876 -0.2683 -0.5858
  191MOL0     H25722   0.473   9.378   0.678 -2.4809 -0.4863 -0.2804
  191MOL0     H25723   0.415   9.453   0.523  3.7203  1.2286 -2.1547
  191MOL0     H25724   0.334   9.246   0.439  0.9610 -0.8221  0.8425
  191MOL0     H25725   0.392   9.161   0.584 -1.4763 -0.3809  3.8644
  191MOL0     H25726   0.222   9.338   0.715 -2.9958 -2.7678  2.0571
  191MOL0     H25727   0.158   9.340   0.551  2.0201  1.1635 -0.9349
  191MOL0     H25728   0.129   9.127   0.522 -0.9741 -1.0716 -0.1240
  191MOL0     H25729   0.197   9.072   0.676 -1.5252  1.7715  3.7219
  191MOL0     H25730   0.036   9.182   0.802  3.6866 -1.3367 -0.6940
  191MOL0     H25731  -0.032   9.275   0.668 -1.3165 -0.6116 -3.9310
  191MOL0     H25732  -0.085   9.026   0.586 -1.4045  1.8800 -1.6564
  191MOL0     H25733  -0.056   8.992   0.762 -2.1785  2.0121  1.8696
  191MOL0     H25734  -0.275   9.178   0.628 -2.1504  0.3310  0.9007
  191MOL0     H25735  -0.234   9.192   0.796 -1.2147 -0.5601  0.2805
  191MOL0     H25736  -0.295   8.940   0.939 -0.1115 -2.8521 -1.4856
  191MOL0     H25737  -0.505   8.707   0.971 -2.6696 -1.6635  0.4186
  191MOL0     H25738  -0.581   8.842   1.034 -2.1304 -4.7350  1.1360
  191MOL0     H25739  -0.688   8.710   0.790  3.9318  1.3039 -0.3542
  191MOL0     H25740  -0.760   8.842   0.878  2.4231  2.1266  1.1946
  191MOL0     H25741  -0.761   8.706   1.095 -0.2475 -0.8905  0.3868
  191MOL0     H25742  -0.695   8.574   0.988  2.9329  1.6488 -2.3433
  191MOL0     H25743  -0.893   8.588   0.843  0.8470 -0.9729  0.4315
  191MOL0     H25744  -0.962   8.707   0.953 -1.2847 -1.7247  1.4351
  191MOL0     H25745  -1.105   8.549   0.786 -1.3542 -1.6928 -0.1832
  191MOL0     H25746  -1.289   8.525   0.639 -2.7043 -0.5496 -1.7592
  191MOL0     H25747  -1.325   8.357   0.667  0.9672  0.8294 -1.0126
  191MOL0     H25748  -1.441   8.488   0.724 -0.4335  0.5226 -1.2562
  191MOL0     H25749  -1.761   8.426   1.085  1.4057 -0.5508 -0.4955
  191MOL0     H25750  -2.008   8.331   1.073 -0.8723 -0.8840  1.1046
  191MOL0     H25751  -2.006   7.963   0.875 -2.3360 -0.2134 -3.1824
  191MOL0     H25752  -2.175   7.960   0.910  1.6894 -2.8031 -0.7919
  191MOL0     H25753  -2.159   8.219   0.829 -0.9742 -1.0790  1.5296
  191MOL0     H25754  -2.013   8.150   0.771  0.0602 -1.0501  0.8909
  191MOL0     H25755  -2.274   8.013   0.706 -0.6756  0.8278 -0.1605
  191MOL0     H25756  -2.124   7.958   0.662 -0.1845 -0.4090 -0.4374
  191MOL0     H25757  -2.242   8.065   0.469 -1.6597 -0.8989  2.0952
  191MOL0     H25758  -2.270   8.212   0.575 -0.3387  0.2405  0.2962
  191MOL0     H25759  -1.988   8.121   0.481  1.0259  0.0516 -2.3188
  191MOL0     H25760  -2.034   8.263   0.571  1.3851  2.9194 -2.8212
  191MOL0     H25761  -2.048   8.199   0.271 -1.6663  0.6924 -2.7238
  191MOL0     H25762  -2.189   8.292   0.336  1.9752  2.9923 -0.0642
  191MOL0     H25763  -1.903   8.361   0.387 -1.3658  0.3916 -0.7881
  191MOL0     H25764  -2.050   8.461   0.408  2.5151  2.3308 -0.3628
  191MOL0     H25765  -1.955   8.357   0.136 -0.1448 -1.1665  1.0308
  191MOL0     H25766  -1.928   8.520   0.196  0.5135 -0.2675 -0.8475
  191MOL0     H25767  -1.858   7.955   1.070 -2.7829  0.5464  2.3307
  191MOL0     H25768  -1.619   8.019   1.066  0.6055  0.2107  1.4920
  191MOL0     H25769  -1.308   8.295   1.153 -0.0531 -2.9158 -3.0282
  191MOL0     H25770  -1.076   8.395   1.192  0.7670  2.2658  0.9237
  191MOL0     H25771   0.710   9.066   0.500  2.5221  0.6356  2.0353
  191MOL0     H25772   0.910   8.959   0.398  0.1013 -0.5795 -0.1593
  191MOL0     H25773   1.245   9.052   0.019 -0.9595 -0.5355  0.8904
  191MOL0     H25774   1.460   8.972  -0.088  0.2999 -1.0422 -0.0121
  191MOL0     H25775   1.689   8.623   0.100 -1.0260 -2.1135  0.6208
  191MOL0     H25776   1.557   8.574  -0.013  0.4679 -1.2639  0.1444
  191MOL0     H25777   1.797   8.509  -0.086  1.1264 -0.0491 -1.8125
  191MOL0     H25778   1.806   8.683  -0.099 -1.3360 -0.0912  2.9054
  191MOL0     H25779   1.625   8.694  -0.276 -2.5933 -0.8496  1.6151
  191MOL0     H25780   1.577   8.541  -0.248 -1.3466  0.4611 -0.9439
  191MOL0     H25781   1.851   8.630  -0.357  0.3805 -0.3102  0.6292
  191MOL0     H25782   1.723   8.559  -0.449 -0.0008 -3.5816 -0.4321
  191MOL0     H25783   1.892   8.206  -0.312  1.7128  0.5893 -3.4488
  191MOL0     H25784   1.501   8.704   0.251 -2.7042 -0.5952  1.1710
  191MOL0     H25785   1.340   8.819   0.362  0.5890 -0.1954  0.9880
  192MOL0     O25786   2.035   6.821   5.830 -0.5927  0.1308  0.4261
  192MOL0     C25787   1.963   6.766   5.907  0.2276  0.0224 -0.4614
  192MOL0     O25788   1.954   6.802   6.037 -0.5824 -0.4530 -0.4880
  192MOL0     C25789   2.013   6.917   6.078  0.4199 -0.0067  0.0075
  192MOL0     C25790   1.995   7.047   6.020 -0.3287  0.6963 -0.8924
  192MOL0     C25791   2.050   7.162   6.077 -0.6975  0.1252 -0.0811
  192MOL0     C25792   2.129   7.149   6.191 -0.4162  0.9067 -0.0650
  192MOL0     O25793   2.188   7.250   6.253  0.8341 -0.0035 -0.1872
  192MOL0     C25794   2.110   7.375   6.253 -0.3358  0.9667 -0.6148
  192MOL0     C25795   2.148   7.465   6.377  0.2522 -1.1647 -0.3358
  192MOL0     C25796   2.147   7.403   6.517  0.6434 -0.0397 -0.0584
  192MOL0     C25797   2.138   7.500   6.624  0.4223 -1.2707  0.3187
  192MOL0     C25798   2.141   7.448   6.772  0.0311  0.0310  0.0253
  192MOL0     C25799   2.134   7.561   6.871 -0.3387  0.5338 -0.0164
  192MOL0     C25800   2.137   7.501   7.012  1.6250 -0.3621  0.4842
  192MOL0     C25801   2.110   7.598   7.118  0.0704  0.3487  0.1675
  192MOL0     N25802   2.069   7.529   7.246 -0.3957 -0.1694  0.6218
  192MOL0     C25803   2.151   7.510   7.353 -0.3099  0.2822 -0.1958
  192MOL0     C25804   2.064   7.462   7.446  0.3468 -0.0963  0.8454
  192MOL0     C25805   2.084   7.429   7.587 -0.4576  0.0540  0.0665
  192MOL0     C25806   2.217   7.361   7.617 -0.2807  1.3752 -0.0246
  192MOL0     C25807   2.223   7.225   7.550 -0.2265  0.2445 -0.0738
  192MOL0     C25808   2.358   7.163   7.568 -0.1096  0.0682  0.0874
  192MOL0     O25809   2.423   7.120   7.439 -0.2916  0.7716 -0.8284
  192MOL0     C25810   2.479   7.207   7.352  0.4060  0.3898  0.4644
  192MOL0     C25811   2.522   7.335   7.385  0.2312  0.3230  0.3866
  192MOL0     C25812   2.565   7.417   7.277 -0.3046 -0.4106 -0.9001
  192MOL0     C25813   2.599   7.558   7.308  0.7672  0.1140  0.6449
  192MOL0     C25814   2.576   7.364   7.147  0.1752  0.3385 -0.0540
  192MOL0     C25815   2.603   7.453   7.026  0.0708  0.2370  0.6857
  192MOL0     O25816   2.676   7.394   6.920  0.2696  0.7525 -0.3815
  192MOL0     C25817   2.669   7.458   6.799 -0.1951  0.2598  0.5938
  192MOL0     C25818   2.797   7.495   6.750  0.3704  0.7934  0.2096
  192MOL0     C25819   2.801   7.552   6.627 -1.1104 -0.1301 -0.1960
  192MOL0     C25820   2.687   7.585   6.547 -0.5174  0.8272 -0.8001
  192MOL0     O25821   2.709   7.645   6.424  0.0813 -0.0793 -0.3197
  192MOL0     C25822   2.606   7.743   6.390  0.3346 -0.1405 -0.5112
  192MOL0     C25823   2.616   7.882   6.457  0.9457 -0.2814 -0.4886
  192MOL0     C25824   2.733   7.965   6.402 -0.5780  0.5458  0.2961
  192MOL0     C25825   2.723   8.112   6.451  0.3698  0.3588 -0.1412
  192MOL0     C25826   2.798   8.129   6.585 -0.2678 -0.3854  0.5614
  192MOL0     C25827   2.716   8.153   6.708 -0.0790  0.0874 -0.4234
  192MOL0     C25828   2.799   8.129   6.832  0.3796 -0.4398  1.2410
  192MOL0     C25829   2.938   8.193   6.844 -0.6674 -0.3096  0.2606
  192MOL0    Cl25830   2.912   8.368   6.843  0.5522 -0.1345  0.0162
  192MOL0     C25831   2.563   7.531   6.589 -1.5646  0.6887 -0.6045
  192MOL0     C25832   2.551   7.479   6.717  0.2672  0.2485  0.4405
  192MOL0     O25833   2.546   7.558   7.028 -1.0205  0.7055 -0.0124
  192MOL0     C25834   2.539   7.232   7.118 -0.2428  0.2120  0.2191
  192MOL0     C25835   2.489   7.148   7.227  0.3073 -1.1804 -0.6748
  192MOL0     N25836   1.932   7.451   7.394  0.4524 -0.7274 -0.4832
  192MOL0     N25837   1.937   7.494   7.271 -0.4110  0.2081 -0.3339
  192MOL0     C25838   2.155   7.022   6.248  0.4093  0.1658  0.1327
  192MOL0     C25839   2.098   6.907   6.189 -0.2299  0.0764 -0.0440
  192MOL0     C25840   1.906   6.628   5.876 -0.7805  0.6983  0.9152
  192MOL0     C25841   1.936   6.552   5.751 -0.1741 -1.1633  0.3503
  192MOL0     C25842   1.895   6.422   5.740  0.1812 -0.7697  0.1111
  192MOL0     C25843   1.790   6.371   5.829  1.2491 -0.5552 -0.1529
  192MOL0     O25844   1.732   6.241   5.824 -0.0278 -0.3590 -1.4043
  192MOL0     C25845   1.753   6.163   5.701 -0.2258 -0.0236 -0.6232
  192MOL0     C25846   1.654   6.195   5.595  0.0551 -0.0533 -0.1179
  192MOL0     C25847   1.637   6.083   5.488 -0.1027 -0.2884 -0.4770
  192MOL0     C25848   1.769   6.016   5.436 -0.0558  0.1616  0.7539
  192MOL0     C25849   1.861   6.115   5.374  0.4451 -0.1445  0.7390
  192MOL0     C25850   1.945   6.183   5.329  0.1791 -0.1681  0.1193
  192MOL0     C25851   1.741   6.455   5.928 -0.6535 -0.4516  0.1768
  192MOL0     C25852   1.810   6.570   5.962  0.6820  0.0460  0.0074
  192MOL0     H25853   1.936   7.058   5.929 -2.8717  0.0305  0.5829
  192MOL0     H25854   2.026   7.261   6.040  2.5054  2.1339  2.6549
  192MOL0     H25855   2.131   7.420   6.155  1.8558  1.3439 -0.0393
  192MOL0     H25856   2.003   7.355   6.245  0.0188 -1.9669  0.6931
  192MOL0     H25857   2.247   7.509   6.359 -0.2503 -0.2694 -1.0329
  192MOL0     H25858   2.073   7.544   6.388  0.2305 -1.4176  1.7943
  192MOL0     H25859   2.059   7.340   6.530 -2.1241  3.0474 -2.0172
  192MOL0     H25860   2.235   7.340   6.529  0.3439 -0.2730  1.0394
  192MOL0     H25861   2.218   7.574   6.617 -3.2636  3.0961 -0.7682
  192MOL0     H25862   2.048   7.562   6.618 -0.1665 -2.2333 -1.0863
  192MOL0     H25863   2.065   7.371   6.789  0.9731 -0.7674  0.7214
  192MOL0     H25864   2.232   7.387   6.776  0.4035  0.2403 -2.9719
  192MOL0     H25865   2.222   7.623   6.854  1.8898 -2.5187 -0.5843
  192MOL0     H25866   2.053   7.627   6.841 -0.2501 -0.4911 -2.7989
  192MOL0     H25867   2.064   7.420   7.013  0.5853  0.2252 -4.1787
  192MOL0     H25868   2.232   7.453   7.035  1.7624 -0.6960 -0.7061
  192MOL0     H25869   2.025   7.661   7.093  1.2529  1.0841 -2.4060
  192MOL0     H25870   2.198   7.662   7.130  1.0716 -0.9013 -0.1898
  192MOL0     H25871   2.255   7.538   7.367  0.4219 -2.0588 -0.5516
  192MOL0     H25872   2.085   7.516   7.653 -0.7955 -0.4412  0.7462
  192MOL0     H25873   2.007   7.358   7.618 -2.7749  2.7874  0.9306
  192MOL0     H25874   2.213   7.353   7.726  0.0671 -1.0754 -0.1457
  192MOL0     H25875   2.309   7.416   7.596  3.7140 -2.9260  3.9011
  192MOL0     H25876   2.180   7.227   7.450 -1.3407  1.1760  0.3979
  192MOL0     H25877   2.149   7.170   7.609 -1.1221  0.2602 -1.1538
  192MOL0     H25878   2.359   7.089   7.649 -1.4487  0.3481  0.3893
  192MOL0     H25879   2.432   7.230   7.612  0.1347  0.4928 -0.9433
  192MOL0     H25880   2.523   7.374   7.486  2.0045  0.9319  0.1708
  192MOL0     H25881   2.692   7.589   7.261  0.1894  2.3639  0.8675
  192MOL0     H25882   2.513   7.618   7.277 -1.7804 -2.4892  2.1120
  192MOL0     H25883   2.603   7.573   7.417 -1.1278  0.9432  0.6494
  192MOL0     H25884   2.893   7.492   6.801  1.0074  0.1386 -0.9968
  192MOL0     H25885   2.901   7.584   6.597 -0.8626  2.2300  2.6990
  192MOL0     H25886   2.635   7.777   6.290 -0.8394  2.5190 -0.0350
  192MOL0     H25887   2.504   7.704   6.384  0.1580 -0.0773  1.3278
  192MOL0     H25888   2.521   7.938   6.449  1.6660  0.8675 -1.3709
  192MOL0     H25889   2.623   7.873   6.566 -0.3607  0.7513 -0.2927
  192MOL0     H25890   2.736   7.980   6.293 -0.9240 -0.1073  0.1920
  192MOL0     H25891   2.828   7.917   6.427 -0.2247  1.4940  0.8473
  192MOL0     H25892   2.761   8.177   6.372  1.0180 -0.0734 -0.1928
  192MOL0     H25893   2.618   8.138   6.469  0.8160  1.4546  1.0679
  192MOL0     H25894   2.875   8.206   6.578 -0.5049 -0.1462  0.5288
  192MOL0     H25895   2.859   8.044   6.613  0.5038 -0.0831 -0.1560
  192MOL0     H25896   2.688   8.258   6.724 -1.1069 -0.0535 -1.2130
  192MOL0     H25897   2.630   8.087   6.695 -0.3104  0.0030  1.3676
  192MOL0     H25898   2.812   8.020   6.834 -3.6251 -1.1447 -0.5345
  192MOL0     H25899   2.745   8.155   6.923  1.2422  0.5662  1.4809
  192MOL0     H25900   3.005   8.168   6.761 -0.7235  0.1520  0.0725
  192MOL0     H25901   2.989   8.161   6.936 -0.2274 -1.4526 -0.3616
  192MOL0     H25902   2.472   7.555   6.535 -1.2203 -0.1653 -1.5891
  192MOL0     H25903   2.453   7.451   6.753  0.0338  0.6039  0.0879
  192MOL0     H25904   2.555   7.184   7.022  1.8734  0.8054  0.2321
  192MOL0     H25905   2.439   7.053   7.219  4.0143 -3.4259  0.3987
  192MOL0     H25906   2.205   7.008   6.344 -2.1707 -0.6877  1.4312
  192MOL0     H25907   2.124   6.820   6.248 -1.3596 -0.1401  0.1500
  192MOL0     H25908   1.994   6.610   5.680  0.2724 -0.3722  1.3400
  192MOL0     H25909   1.929   6.373   5.650 -3.3793  2.9650 -3.7251
  192MOL0     H25910   1.856   6.179   5.668  0.8606 -0.9774  2.0436
  192MOL0     H25911   1.740   6.056   5.717 -0.5866 -0.1369 -1.6404
  192MOL0     H25912   1.676   6.289   5.545  0.8331  0.7876  1.7221
  192MOL0     H25913   1.557   6.203   5.645  0.2863 -4.3826  1.4616
  192MOL0     H25914   1.586   6.132   5.404  4.0454  3.4319 -1.2013
  192MOL0     H25915   1.573   6.006   5.532 -1.3041  1.1023  0.2690
  192MOL0     H25916   1.732   5.937   5.370 -2.1720  0.7056  1.2312
  192MOL0     H25917   1.819   5.974   5.524 -0.3324  0.2522  0.9535
  192MOL0     H25918   2.019   6.236   5.272  1.4796  0.0553  1.9462
  192MOL0     H25919   1.663   6.418   5.994  0.0570 -3.2127 -0.3850
  192MOL0     H25920   1.774   6.613   6.055  0.4597  0.3931 -0.2346
  193MOL0     O25921   7.396   6.855   3.725  0.5430  0.5807 -0.1600
  193MOL0     C25922   7.506   6.831   3.686 -0.3728  0.1146 -0.6634
  193MOL0     O25923   7.610   6.779   3.759 -0.2429  1.1881  0.1586
  193MOL0     C25924   7.590   6.718   3.876  0.1992 -0.1927 -0.0216
  193MOL0     C25925   7.633   6.786   3.989  0.6061 -0.4375  1.1613
  193MOL0     C25926   7.615   6.741   4.116  0.6222  0.3022  1.0429
  193MOL0     C25927   7.558   6.613   4.127 -0.5396 -0.3453 -0.2481
  193MOL0     O25928   7.556   6.573   4.257  0.7627 -0.4782  0.4716
  193MOL0     C25929   7.581   6.437   4.288  0.7845 -0.2099 -0.3473
  193MOL0     C25930   7.650   6.428   4.425 -0.3555 -0.1800 -0.2915
  193MOL0     C25931   7.804   6.441   4.413  1.3692 -0.2212  0.6380
  193MOL0     C25932   7.868   6.500   4.538 -0.7279  0.9652  1.0371
  193MOL0     C25933   7.918   6.649   4.527  0.5066 -0.2685 -0.0481
  193MOL0     C25934   8.004   6.687   4.654  0.2728 -0.1740 -0.2463
  193MOL0     C25935   7.927   6.718   4.778 -0.5295 -0.5677 -0.2191
  193MOL0     C25936   7.996   6.729   4.912  0.3885  1.3010  0.3391
  193MOL0     N25937   7.934   6.659   5.023 -0.2027 -0.4258 -0.6741
  193MOL0     C25938   7.801   6.624   5.045  0.1988  0.9255 -0.6426
  193MOL0     C25939   7.801   6.520   5.121 -0.3140 -0.6353 -0.4097
  193MOL0     C25940   7.681   6.434   5.151 -1.5992 -0.2977  0.1015
  193MOL0     C25941   7.571   6.491   5.246 -0.3166  0.1741 -0.7612
  193MOL0     C25942   7.630   6.511   5.393  0.0518 -0.0330 -0.1987
  193MOL0     C25943   7.672   6.651   5.418 -0.1155  0.0189 -0.3355
  193MOL0     O25944   7.725   6.667   5.559  0.4310 -0.3897 -0.4090
  193MOL0     C25945   7.636   6.684   5.663 -0.7871 -0.2966  0.2278
  193MOL0     C25946   7.499   6.704   5.654  0.1783 -0.7191 -0.2380
  193MOL0     C25947   7.417   6.714   5.770 -0.0382  1.6640  0.2653
  193MOL0     C25948   7.267   6.720   5.748  0.4002  0.0221 -0.0391
  193MOL0     C25949   7.477   6.690   5.898  0.9972 -0.7724 -0.2499
  193MOL0     C25950   7.394   6.706   6.027 -0.9394  0.5540 -0.2503
  193MOL0     O25951   7.449   6.662   6.138 -0.7150  0.2300 -0.7376
  193MOL0     C25952   7.381   6.663   6.257 -0.2769  0.9867  0.6989
  193MOL0     C25953   7.366   6.544   6.327 -0.0354  0.1561  0.3366
  193MOL0     C25954   7.321   6.546   6.465  0.0708  0.7048  1.1434
  193MOL0     C25955   7.303   6.663   6.522  0.6299  0.3290 -0.0488
  193MOL0     O25956   7.275   6.643   6.652  0.1260 -0.0479 -0.5690
  193MOL0     C25957   7.176   6.740   6.711 -0.6198  0.9687  0.5986
  193MOL0     C25958   7.266   6.831   6.795  0.3637  0.7577 -0.2293
  193MOL0     C25959   7.186   6.916   6.895 -0.3581 -0.3623 -1.1414
  193MOL0     C25960   7.096   7.023   6.839  0.5772  0.2773 -1.1718
  193MOL0     C25961   7.027   7.103   6.951  0.4673 -0.7159  0.4413
  193MOL0     C25962   7.023   7.250   6.940 -0.1488  0.2370 -0.9645
  193MOL0     C25963   6.949   7.286   6.819 -1.6002  0.4533  0.2888
  193MOL0     C25964   6.862   7.417   6.836 -0.6271 -0.0894 -1.4827
  193MOL0    Cl25965   6.956   7.564   6.866  0.1192  0.0940 -0.4184
  193MOL0     C25966   7.326   6.783   6.452  0.6384  1.2751 -0.8765
  193MOL0     C25967   7.358   6.788   6.319 -0.4323 -0.0031  0.3968
  193MOL0     O25968   7.283   6.753   6.019  0.6471  0.1913  0.7326
  193MOL0     C25969   7.608   6.653   5.898 -0.2288 -0.0750  0.7554
  193MOL0     C25970   7.691   6.649   5.784  0.4665  0.0710 -0.0550
  193MOL0     N25971   7.931   6.494   5.169  0.5326 -1.4260  0.3926
  193MOL0     N25972   8.006   6.576   5.102  0.3668  0.3604 -0.4237
  193MOL0     C25973   7.508   6.545   4.023  0.3761  0.2927  1.2584
  193MOL0     C25974   7.518   6.598   3.899 -0.4375 -0.8757 -0.1054
  193MOL0     C25975   7.538   6.866   3.548  0.7689  0.4703  0.3328
  193MOL0     C25976   7.668   6.869   3.495  0.3966 -1.1595 -0.5824
  193MOL0     C25977   7.693   6.904   3.364 -0.3522 -0.6508  0.1057
  193MOL0     C25978   7.586   6.911   3.271  0.4655  0.7501  0.6796
  193MOL0     O25979   7.600   6.925   3.134 -0.0285 -0.4043 -0.0804
  193MOL0     C25980   7.716   6.962   3.075 -0.2960 -0.8051  0.1116
  193MOL0     C25981   7.701   6.996   2.924  0.5983  0.0238 -0.3122
  193MOL0     C25982   7.567   7.069   2.884  0.1570  0.5797 -0.0192
  193MOL0     C25983   7.559   7.094   2.738  0.1179 -0.9013 -0.7711
  193MOL0     C25984   7.659   7.189   2.683 -0.5666 -0.2310  0.1466
  193MOL0     C25985   7.758   7.252   2.661  0.0947 -0.8837  0.3152
  193MOL0     C25986   7.453   6.881   3.318 -0.3640  0.3400  0.0063
  193MOL0     C25987   7.430   6.874   3.456  0.0324  0.3052  0.0450
  193MOL0     H25988   7.679   6.884   3.977 -2.6446  0.8928 -2.3631
  193MOL0     H25989   7.658   6.791   4.203  0.4088  0.2474  1.1821
  193MOL0     H25990   7.488   6.381   4.298 -0.1899  1.3913 -0.0766
  193MOL0     H25991   7.641   6.388   4.210 -0.7145 -2.4433 -0.1851
  193MOL0     H25992   7.617   6.507   4.493  0.9385 -1.4412  1.9555
  193MOL0     H25993   7.631   6.326   4.460  1.7586 -1.5893 -2.8780
  193MOL0     H25994   7.839   6.340   4.390 -0.2942 -1.0412  1.5530
  193MOL0     H25995   7.826   6.510   4.331 -0.6021 -0.5984 -0.2674
  193MOL0     H25996   7.800   6.491   4.623 -0.7489  2.1094  1.1588
  193MOL0     H25997   7.957   6.442   4.566  0.3126  1.4903 -1.0523
  193MOL0     H25998   7.975   6.664   4.434  0.7722  0.8165  0.2690
  193MOL0     H25999   7.830   6.712   4.507  0.8812 -0.6061 -3.2556
  193MOL0     H26000   8.074   6.606   4.677  1.7269  1.3040  0.8346
  193MOL0     H26001   8.063   6.778   4.634  0.4144 -0.3075 -0.4433
  193MOL0     H26002   7.877   6.813   4.756  0.3212 -0.4006 -1.5220
  193MOL0     H26003   7.848   6.644   4.790  0.4261 -2.2550 -3.3303
  193MOL0     H26004   7.989   6.834   4.942 -2.8155  1.1921  0.2992
  193MOL0     H26005   8.099   6.698   4.892 -0.8542 -2.6020 -0.9719
  193MOL0     H26006   7.719   6.659   4.984  0.7654  1.7217 -0.9658
  193MOL0     H26007   7.619   6.413   5.064 -3.0412  1.9199  0.5076
  193MOL0     H26008   7.721   6.337   5.181  1.6874  0.2984 -1.7661
  193MOL0     H26009   7.490   6.418   5.242  0.6858 -0.9104 -2.1234
  193MOL0     H26010   7.523   6.582   5.210 -0.1164  0.3781 -0.5126
  193MOL0     H26011   7.708   6.439   5.418  1.6529  1.4336 -0.7196
  193MOL0     H26012   7.539   6.496   5.451 -0.6322  1.4897 -0.8258
  193MOL0     H26013   7.599   6.727   5.388  0.8617  0.1491 -2.6498
  193MOL0     H26014   7.763   6.676   5.362  1.1680  1.7516  2.3427
  193MOL0     H26015   7.452   6.725   5.558  0.3237  1.8889  0.2000
  193MOL0     H26016   7.220   6.817   5.766  0.4133  0.0406 -0.1063
  193MOL0     H26017   7.244   6.691   5.645  0.9653  0.8564 -0.4094
  193MOL0     H26018   7.222   6.651   5.820 -3.1427  1.2003 -0.9302
  193MOL0     H26019   7.391   6.442   6.300  2.2459  0.2356  1.8926
  193MOL0     H26020   7.336   6.454   6.520  1.1837 -0.6744 -1.3191
  193MOL0     H26021   7.119   6.797   6.637 -0.1219 -0.6325 -1.0996
  193MOL0     H26022   7.101   6.689   6.771 -1.5013 -0.2440 -1.4063
  193MOL0     H26023   7.326   6.757   6.849  2.2931  0.6053 -2.4333
  193MOL0     H26024   7.331   6.893   6.733 -1.7953 -1.2634 -5.0440
  193MOL0     H26025   7.258   6.959   6.965 -1.2176 -1.7784  0.6803
  193MOL0     H26026   7.138   6.844   6.961  3.0211 -2.1459 -0.3824
  193MOL0     H26027   7.154   7.097   6.782 -1.6339  3.2905  0.1889
  193MOL0     H26028   7.016   6.974   6.782  1.6211 -1.8697 -0.8683
  193MOL0     H26029   7.077   7.079   7.045  0.0542 -1.1771  0.5469
  193MOL0     H26030   6.922   7.075   6.966 -0.1122  0.6648 -0.8423
  193MOL0     H26031   6.967   7.302   7.018  1.4437 -1.4002  1.4204
  193MOL0     H26032   7.126   7.284   6.953  1.3170 -2.7343 -3.4525
  193MOL0     H26033   6.878   7.206   6.801  0.3277 -2.0699  3.0415
  193MOL0     H26034   7.029   7.305   6.746 -0.5656  0.2899  1.3488
  193MOL0     H26035   6.788   7.399   6.914 -1.7358  0.7519 -2.3131
  193MOL0     H26036   6.820   7.442   6.738  4.1339  0.0214 -3.8233
  193MOL0     H26037   7.326   6.874   6.511  1.2267  0.6431  0.1315
  193MOL0     H26038   7.392   6.880   6.272  2.7113 -2.2653 -2.2321
  193MOL0     H26039   7.651   6.633   5.996 -4.4583 -2.5997  2.3595
  193MOL0     H26040   7.798   6.636   5.791  0.4889 -0.3611 -1.0784
  193MOL0     H26041   7.469   6.445   4.040  0.1968 -0.0140 -0.6814
  193MOL0     H26042   7.475   6.542   3.817 -0.0196  0.3154 -1.1778
  193MOL0     H26043   7.745   6.867   3.571  1.9723 -0.5397 -2.0788
  193MOL0     H26044   7.792   6.935   3.331 -0.4087 -4.8289 -5.3369
  193MOL0     H26045   7.757   7.048   3.130  0.0215 -1.5445  1.0673
  193MOL0     H26046   7.787   6.880   3.091 -0.1707 -0.5984  0.6371
  193MOL0     H26047   7.706   6.906   2.864  1.9853  1.5384 -2.6038
  193MOL0     H26048   7.778   7.067   2.894 -0.5165  0.8590 -1.2725
  193MOL0     H26049   7.566   7.159   2.947  0.5177  2.2069 -2.2062
  193MOL0     H26050   7.479   7.008   2.907 -1.9728  2.0553 -3.4805
  193MOL0     H26051   7.457   7.122   2.713 -0.3899  0.0320  1.9915
  193MOL0     H26052   7.587   7.001   2.689  0.1476 -2.2678  1.6883
  193MOL0     H26053   7.847   7.304   2.632 -0.7184  0.1599 -0.3945
  193MOL0     H26054   7.362   6.879   3.259 -1.0563  1.0181  1.0187
  193MOL0     H26055   7.326   6.854   3.480  0.1623 -1.4305 -0.7075
  194MOL0     O26056   0.263   2.241   2.954 -0.0955 -0.1492  0.0461
  194MOL0     C26057   0.221   2.247   3.069  0.1911 -0.8197  0.0753
  194MOL0     O26058   0.266   2.185   3.183  0.3599 -0.3558  0.0625
  194MOL0     C26059   0.398   2.132   3.173  0.0367 -0.6836  0.6857
  194MOL0     C26060   0.470   2.164   3.287  0.6141 -0.5440 -0.0515
  194MOL0     C26061   0.604   2.121   3.294 -0.8651 -0.5569  0.2244
  194MOL0     C26062   0.670   2.042   3.198 -0.5996  0.1109 -0.7501
  194MOL0     O26063   0.784   1.963   3.210 -0.0011  0.1546  0.2121
  194MOL0     C26064   0.818   1.930   3.350  0.2467  0.7523 -0.3108
  194MOL0     C26065   0.924   1.822   3.338 -0.3847 -0.0689  0.8086
  194MOL0     C26066   0.944   1.748   3.467 -0.0424 -0.2082 -0.0334
  194MOL0     C26067   1.055   1.641   3.445 -0.3298 -0.8250 -0.5278
  194MOL0     C26068   1.060   1.547   3.562 -0.7932  0.9347 -0.1470
  194MOL0     C26069   1.143   1.621   3.671  0.6162 -0.4097 -0.0875
  194MOL0     C26070   1.218   1.519   3.755  0.5780 -0.0708 -0.6003
  194MOL0     C26071   1.333   1.582   3.823 -0.5160  0.1705  0.0499
  194MOL0     N26072   1.304   1.718   3.865 -0.1655  0.6237 -0.5860
  194MOL0     C26073   1.242   1.760   3.985 -0.1012  0.1169 -0.6400
  194MOL0     C26074   1.251   1.900   3.984 -0.3199 -0.4913 -0.2736
  194MOL0     C26075   1.209   1.998   4.094 -0.6520 -0.4655 -0.3937
  194MOL0     C26076   1.297   1.982   4.223 -0.9047 -0.7492 -0.0451
  194MOL0     C26077   1.448   2.012   4.214  0.3871  0.7563 -0.4083
  194MOL0     C26078   1.468   2.164   4.221  0.4593 -0.2824 -0.4038
  194MOL0     O26079   1.507   2.193   4.355  0.6275 -0.7372  1.1093
  194MOL0     C26080   1.502   2.333   4.366 -0.8561 -0.3501  0.5729
  194MOL0     C26081   1.601   2.409   4.311  1.0493  0.1279  0.2911
  194MOL0     C26082   1.611   2.548   4.321  0.0908  0.1290 -0.2357
  194MOL0     C26083   1.726   2.618   4.250  0.5506  0.4176  0.2014
  194MOL0     C26084   1.527   2.615   4.409  0.1709  0.0981  0.3041
  194MOL0     C26085   1.538   2.760   4.441 -0.7114 -0.0796 -0.1702
  194MOL0     O26086   1.423   2.822   4.500  0.0432 -0.1156  0.2978
  194MOL0     C26087   1.439   2.940   4.572  0.0309  1.0786  0.0655
  194MOL0     C26088   1.445   2.926   4.709 -0.2213 -0.1853 -0.1502
  194MOL0     C26089   1.489   3.033   4.785 -1.0840  0.0603 -1.2693
  194MOL0     C26090   1.517   3.154   4.727  0.2219 -0.5196 -0.2458
  194MOL0     O26091   1.562   3.251   4.816 -0.5506  0.9495 -0.7754
  194MOL0     C26092   1.598   3.371   4.753 -0.5573 -0.6724  0.6196
  194MOL0     C26093   1.630   3.480   4.861 -0.0959  1.0765  0.3813
  194MOL0     C26094   1.717   3.593   4.803 -0.3300  0.6688 -1.2946
  194MOL0     C26095   1.875   3.577   4.805  0.0095 -0.1205  0.4345
  194MOL0     C26096   1.962   3.668   4.722  0.3740 -0.2203 -0.2170
  194MOL0     C26097   1.903   3.818   4.716 -0.6230  0.0642 -0.1235
  194MOL0     C26098   1.822   3.849   4.586  0.1741  0.1578  0.5537
  194MOL0     C26099   1.793   4.002   4.581 -1.9460  0.6291  0.7252
  194MOL0    Cl26100   1.779   4.046   4.403  0.1600 -0.1878 -0.3696
  194MOL0     C26101   1.491   3.172   4.589  1.0766 -0.8824  0.2316
  194MOL0     C26102   1.464   3.056   4.506  0.0814 -0.7685 -0.8228
  194MOL0     O26103   1.648   2.818   4.433  0.1662  0.5727 -0.8693
  194MOL0     C26104   1.419   2.541   4.460 -1.1571 -0.7037 -0.7084
  194MOL0     C26105   1.411   2.404   4.443  0.0255  0.9482  0.1253
  194MOL0     N26106   1.318   1.928   3.862  0.8711 -0.0153  0.2456
  194MOL0     N26107   1.362   1.824   3.804 -0.3438  0.3126  0.7425
  194MOL0     C26108   0.591   2.015   3.083  0.0529 -0.1134  0.2532
  194MOL0     C26109   0.459   2.055   3.072 -0.1310 -0.0486 -0.4333
  194MOL0     C26110   0.111   2.346   3.095 -0.1923 -1.0877 -0.0664
  194MOL0     C26111   0.070   2.374   3.229  0.1318 -0.4641  0.1187
  194MOL0     C26112  -0.030   2.457   3.251  0.8546 -0.1782 -0.4482
  194MOL0     C26113  -0.093   2.522   3.142  0.7348 -0.8316  0.3389
  194MOL0     O26114  -0.202   2.594   3.186 -0.1934  0.3642  0.1394
  194MOL0     C26115  -0.262   2.691   3.106  0.7703 -0.5344  0.0443
  194MOL0     C26116  -0.359   2.638   3.000  0.4191  0.4660 -0.4440
  194MOL0     C26117  -0.497   2.615   3.046  0.6606 -0.2167  0.3260
  194MOL0     C26118  -0.498   2.542   3.184 -0.1110 -0.1558 -0.3194
  194MOL0     C26119  -0.629   2.467   3.192 -0.1847 -0.6792 -0.5695
  194MOL0     C26120  -0.726   2.397   3.212 -0.0144  0.5871 -1.1028
  194MOL0     C26121  -0.056   2.506   3.009  0.0558  0.8650 -0.8302
  194MOL0     C26122   0.050   2.411   2.989  0.0704  0.0568  0.4424
  194MOL0     H26123   0.404   2.220   3.352 -0.9147 -0.5035 -1.5576
  194MOL0     H26124   0.653   2.129   3.390  2.1540  0.8693 -1.2825
  194MOL0     H26125   0.841   2.020   3.409 -2.8324 -0.3286  2.8632
  194MOL0     H26126   0.729   1.887   3.396  1.0616 -2.9013 -1.8109
  194MOL0     H26127   0.888   1.766   3.252 -1.8919  1.3159  0.5039
  194MOL0     H26128   1.012   1.883   3.313 -0.7455  0.0887 -0.1072
  194MOL0     H26129   0.968   1.817   3.548  2.4915  1.1029 -1.7684
  194MOL0     H26130   0.856   1.691   3.497  0.7509 -1.0111  0.8317
  194MOL0     H26131   1.031   1.589   3.351  0.0751  1.0454 -1.7255
  194MOL0     H26132   1.156   1.679   3.427 -0.5660  1.2267  1.8799
  194MOL0     H26133   0.969   1.514   3.613  1.2608 -0.9694  2.5266
  194MOL0     H26134   1.120   1.464   3.524  0.3362  1.4997  0.3412
  194MOL0     H26135   1.222   1.682   3.627  1.4479 -1.2195  0.2392
  194MOL0     H26136   1.073   1.681   3.730  1.2767  0.5370 -0.2375
  194MOL0     H26137   1.145   1.465   3.815  1.5806  0.4769  1.1843
  194MOL0     H26138   1.255   1.437   3.693  2.9885 -0.3296  1.0425
  194MOL0     H26139   1.429   1.591   3.771  0.1083  0.2883  1.1802
  194MOL0     H26140   1.349   1.518   3.911 -1.0361  3.2745  2.5641
  194MOL0     H26141   1.205   1.702   4.068  1.3959  2.0092  1.4552
  194MOL0     H26142   1.208   2.103   4.065 -0.5755 -0.0895  0.8850
  194MOL0     H26143   1.111   1.965   4.130 -0.5305  1.3301  1.8073
  194MOL0     H26144   1.282   1.881   4.263  1.4447 -0.8072  0.8250
  194MOL0     H26145   1.255   2.053   4.294 -0.4971 -1.3836  0.8556
  194MOL0     H26146   1.490   1.963   4.126 -0.4127  2.2418 -1.6717
  194MOL0     H26147   1.492   1.967   4.304  0.5062  1.8246  0.0863
  194MOL0     H26148   1.380   2.226   4.201  0.6471  0.3504  0.6392
  194MOL0     H26149   1.550   2.192   4.155  1.2293 -0.3980  0.4766
  194MOL0     H26150   1.698   2.368   4.285  2.2660  1.9284  1.6941
  194MOL0     H26151   1.798   2.657   4.323  1.0033 -1.1831  0.6441
  194MOL0     H26152   1.774   2.563   4.169  2.0506  2.4383 -0.3708
  194MOL0     H26153   1.691   2.712   4.207 -0.0144  0.4839  0.7906
  194MOL0     H26154   1.415   2.831   4.755 -0.1073  0.4409  1.2767
  194MOL0     H26155   1.485   3.018   4.893  1.1468  1.1565 -0.9627
  194MOL0     H26156   1.682   3.345   4.689  0.1278 -0.1943  1.2967
  194MOL0     H26157   1.516   3.406   4.690 -0.0314 -0.1405  0.2213
  194MOL0     H26158   1.534   3.509   4.904 -0.2646 -1.1560  1.6074
  194MOL0     H26159   1.688   3.433   4.941 -0.6468 -0.9278 -0.3406
  194MOL0     H26160   1.707   3.689   4.854  2.8431  2.6884 -4.0621
  194MOL0     H26161   1.690   3.596   4.697 -2.0824 -1.7466 -1.0136
  194MOL0     H26162   1.914   3.584   4.906 -0.9049 -0.5412  0.8262
  194MOL0     H26163   1.887   3.473   4.775 -0.0587 -0.3086  1.0624
  194MOL0     H26164   1.969   3.626   4.621 -0.1019 -0.8636  0.0130
  194MOL0     H26165   2.064   3.679   4.763  0.5278  0.7987 -0.8284
  194MOL0     H26166   1.849   3.834   4.810 -0.5993  2.9205 -0.5276
  194MOL0     H26167   1.994   3.879   4.722 -0.5858 -0.1375  3.5335
  194MOL0     H26168   1.732   3.788   4.574  1.4875 -1.5285 -1.4642
  194MOL0     H26169   1.896   3.826   4.508 -0.5166 -0.8392  0.1699
  194MOL0     H26170   1.880   4.047   4.630 -0.2574  0.0946 -1.6604
  194MOL0     H26171   1.701   4.012   4.640 -1.2499  0.3360  1.8853
  194MOL0     H26172   1.522   3.257   4.529  0.6834 -0.8089  0.1306
  194MOL0     H26173   1.448   3.054   4.399 -2.6662 -3.4264 -0.4776
  194MOL0     H26174   1.354   2.585   4.535  1.9827  1.4168  1.0232
  194MOL0     H26175   1.331   2.340   4.480  1.6684 -3.0220 -2.4322
  194MOL0     H26176   0.617   1.943   3.006 -3.7671  0.4668 -1.8374
  194MOL0     H26177   0.414   2.024   2.978  2.4313  0.0111 -1.7770
  194MOL0     H26178   0.112   2.316   3.309 -3.6690 -2.0636  1.1970
  194MOL0     H26179  -0.064   2.473   3.353  1.8737 -1.0932  0.0599
  194MOL0     H26180  -0.323   2.753   3.173 -3.6072 -0.5530 -3.4895
  194MOL0     H26181  -0.192   2.756   3.053 -1.0783  0.8445 -0.8013
  194MOL0     H26182  -0.329   2.538   2.967  0.2788  0.3751 -0.2931
  194MOL0     H26183  -0.354   2.707   2.915 -0.0804  0.3030 -0.6017
  194MOL0     H26184  -0.543   2.556   2.966 -0.6583  0.7385  0.3569
  194MOL0     H26185  -0.544   2.714   3.048 -3.2835 -1.7624 -2.1410
  194MOL0     H26186  -0.500   2.611   3.269 -1.7600 -0.2850 -0.2113
  194MOL0     H26187  -0.415   2.472   3.189 -0.7578 -0.9823 -0.8972
  194MOL0     H26188  -0.824   2.358   3.231 -1.2610  3.9391  0.3384
  194MOL0     H26189  -0.102   2.548   2.921 -0.3352 -0.0765 -1.0847
  194MOL0     H26190   0.091   2.389   2.891 -0.9388 -1.5938  0.3590
  195MOL0     O26191   7.542  10.339   3.113 -0.0079  0.4831  0.8910
  195MOL0     C26192   7.633  10.409   3.168  1.0715  0.9945  0.6175
  195MOL0     O26193   7.647  10.540   3.157  0.5009 -0.2829 -0.7572
  195MOL0     C26194   7.553  10.620   3.093 -0.1374  0.1135  0.6814
  195MOL0     C26195   7.567  10.757   3.134 -0.5057  1.1660 -0.1385
  195MOL0     C26196   7.469  10.846   3.094 -0.0176  0.6896  0.6402
  195MOL0     C26197   7.383  10.813   2.987  0.3903  0.4737  0.7425
  195MOL0     O26198   7.314  10.903   2.913 -0.0106 -0.3276  0.5874
  195MOL0     C26199   7.300  11.031   2.968  0.0988 -0.0371  0.2982
  195MOL0     C26200   7.206  11.041   3.092  0.8065  1.0292  0.3628
  195MOL0     C26201   7.270  11.143   3.192 -0.5821  0.3309 -0.7711
  195MOL0     C26202   7.192  11.191   3.309 -0.7755  0.3711  0.4156
  195MOL0     C26203   7.257  11.290   3.405 -0.3583 -0.3394 -0.7246
  195MOL0     C26204   7.405  11.270   3.449 -0.7613 -0.5103 -0.5975
  195MOL0     C26205   7.480  11.397   3.505  0.6385 -0.3376  0.2561
  195MOL0     C26206   7.513  11.389   3.661  0.0693  0.2422  0.1725
  195MOL0     N26207   7.424  11.292   3.734  0.0611  0.5392 -0.7696
  195MOL0     C26208   7.315  11.320   3.809  0.8281 -0.2174  0.1617
  195MOL0     C26209   7.310  11.221   3.903  1.1256  0.1853 -0.1562
  195MOL0     C26210   7.197  11.186   3.998  0.3892 -0.0783 -0.5657
  195MOL0     C26211   7.134  11.314   4.067 -0.4532  1.1182 -0.1694
  195MOL0     C26212   7.072  11.271   4.194  0.6843  0.8582 -0.7915
  195MOL0     C26213   7.002  11.387   4.279 -0.1841  0.5344 -0.3470
  195MOL0     O26214   6.884  11.454   4.218 -0.0642  0.4681 -0.2367
  195MOL0     C26215   6.774  11.382   4.182  0.5229  0.8484 -0.2370
  195MOL0     C26216   6.683  11.442   4.093 -0.7519 -0.4075  0.5785
  195MOL0     C26217   6.568  11.385   4.043  0.6137 -0.2944  0.1618
  195MOL0     C26218   6.505  11.449   3.915 -0.9747  0.8091  0.6328
  195MOL0     C26219   6.531  11.259   4.097 -0.2533 -0.2886  0.3925
  195MOL0     C26220   6.405  11.186   4.059  0.0525  0.6261 -0.2068
  195MOL0     O26221   6.396  11.053   4.098  0.6733  0.0081 -0.2369
  195MOL0     C26222   6.289  10.974   4.045  0.2607 -0.3272 -0.4692
  195MOL0     C26223   6.157  10.964   4.102 -0.6897 -0.3145 -0.3048
  195MOL0     C26224   6.064  10.878   4.061  0.1755  0.4811 -1.0051
  195MOL0     C26225   6.097  10.799   3.950 -0.6167  0.7567 -0.3349
  195MOL0     O26226   5.997  10.711   3.921  0.5483 -0.4351 -0.2488
  195MOL0     C26227   5.971  10.673   3.785 -0.4062 -0.0266 -0.6546
  195MOL0     C26228   6.006  10.527   3.769  0.0790 -0.7939  0.3382
  195MOL0     C26229   5.941  10.469   3.646  0.1229 -0.3395  0.6546
  195MOL0     C26230   6.035  10.506   3.528 -0.9352 -0.1422  0.0645
  195MOL0     C26231   5.977  10.466   3.385 -0.2436 -1.0174 -0.1437
  195MOL0     C26232   5.989  10.309   3.360 -0.4410 -0.3942  0.3521
  195MOL0     C26233   5.847  10.257   3.365  0.4907  0.3551  0.6208
  195MOL0     C26234   5.819  10.118   3.319  0.3240  0.4658 -0.0687
  195MOL0    Cl26235   5.881  10.004   3.450 -0.0438  0.5581  0.1402
  195MOL0     C26236   6.223  10.797   3.895 -0.6031  0.3039 -0.6625
  195MOL0     C26237   6.320  10.888   3.945 -0.0949  0.6245 -0.1586
  195MOL0     O26238   6.321  11.248   4.001  0.0814 -0.6948 -0.0811
  195MOL0     C26239   6.617  11.201   4.202 -0.0718 -0.0272  0.6669
  195MOL0     C26240   6.743  11.258   4.250 -0.3793  0.4768  0.5763
  195MOL0     N26241   7.409  11.131   3.873 -0.0228  0.2941 -0.4755
  195MOL0     N26242   7.476  11.165   3.768  0.2891  1.4218 -0.2000
  195MOL0     C26243   7.375  10.680   2.942 -0.3533 -0.0420 -0.3152
  195MOL0     C26244   7.463  10.581   2.999  0.2194 -0.6615  0.9490
  195MOL0     C26245   7.747  10.340   3.236  0.2848  0.2347 -0.9905
  195MOL0     C26246   7.755  10.202   3.245 -0.2725  0.0617  0.7864
  195MOL0     C26247   7.860  10.139   3.320 -0.3884 -0.0225 -0.3586
  195MOL0     C26248   7.962  10.207   3.363 -1.4639 -1.0458  0.2012
  195MOL0     O26249   8.071  10.144   3.417 -0.4755 -0.2093  0.0569
  195MOL0     C26250   8.199  10.205   3.395 -0.8268  1.2035  0.1608
  195MOL0     C26251   8.294  10.097   3.450 -0.4197  0.1807 -0.0210
  195MOL0     C26252   8.309  10.101   3.605  0.9774 -0.7914 -0.3774
  195MOL0     C26253   8.413  10.011   3.669  0.0708 -0.7606 -1.0516
  195MOL0     C26254   8.551  10.057   3.692  0.3612  1.1281  0.5306
  195MOL0     C26255   8.663  10.101   3.722  0.3804  0.3272  1.5146
  195MOL0     C26256   7.974  10.351   3.338  0.3307 -0.6695 -0.0193
  195MOL0     C26257   7.867  10.410   3.269  0.3701  0.2489 -0.2558
  195MOL0     H26258   7.637  10.792   3.209  0.3988 -2.5143  0.9466
  195MOL0     H26259   7.466  10.949   3.129 -1.9861  0.0259  2.6429
  195MOL0     H26260   7.396  11.084   2.970 -0.8877  1.8368  0.1200
  195MOL0     H26261   7.244  11.072   2.884 -0.5388 -1.8250 -0.1895
  195MOL0     H26262   7.105  11.068   3.059  0.2907 -2.9901 -2.1517
  195MOL0     H26263   7.204  10.938   3.130 -0.4907  1.0397  0.3709
  195MOL0     H26264   7.359  11.093   3.231  0.4347  2.1769 -0.5888
  195MOL0     H26265   7.310  11.229   3.137  0.9620 -1.3971 -2.4841
  195MOL0     H26266   7.096  11.235   3.280 -1.9940 -1.2903  1.7160
  195MOL0     H26267   7.167  11.106   3.374  1.8837 -1.0014 -0.1851
  195MOL0     H26268   7.255  11.389   3.359  1.6490 -0.0608 -0.3342
  195MOL0     H26269   7.193  11.295   3.493  2.3134 -1.2950  1.4349
  195MOL0     H26270   7.414  11.182   3.513 -0.2155 -1.1054 -1.4692
  195MOL0     H26271   7.452  11.240   3.354 -2.8305  1.2422 -2.2915
  195MOL0     H26272   7.570  11.417   3.446  0.0815  2.5902  0.2287
  195MOL0     H26273   7.420  11.487   3.489  3.9308  1.7947 -1.1005
  195MOL0     H26274   7.505  11.491   3.699  2.0235 -0.2412  2.0946
  195MOL0     H26275   7.616  11.354   3.661  0.3120  0.8876 -1.0687
  195MOL0     H26276   7.244  11.402   3.808 -0.8985 -1.6282 -0.4659
  195MOL0     H26277   7.117  11.122   3.959 -0.0258  0.1021 -0.0234
  195MOL0     H26278   7.245  11.119   4.070 -1.9257 -1.3528 -0.1034
  195MOL0     H26279   7.052  11.354   4.007 -0.6888  0.7135 -0.1206
  195MOL0     H26280   7.211  11.391   4.080  2.0620 -1.2162 -0.2746
  195MOL0     H26281   7.144  11.213   4.252 -0.3123 -2.1595 -2.3742
  195MOL0     H26282   6.996  11.198   4.163  1.0033 -0.5927  1.5616
  195MOL0     H26283   7.090  11.451   4.292  1.7802 -1.9155 -0.6808
  195MOL0     H26284   6.981  11.340   4.376  0.7229  0.7853 -0.0143
  195MOL0     H26285   6.719  11.532   4.045  0.7675 -0.9292  0.6884
  195MOL0     H26286   6.510  11.373   3.837  1.5752 -0.1899  1.6855
  195MOL0     H26287   6.399  11.476   3.926 -0.6019  2.0111  1.5136
  195MOL0     H26288   6.562  11.533   3.875  1.9736 -1.9465 -1.4227
  195MOL0     H26289   6.146  11.032   4.186 -0.1120  0.1884 -0.6382
  195MOL0     H26290   5.967  10.858   4.106  0.2051  2.6788  0.1564
  195MOL0     H26291   5.866  10.693   3.761 -0.3242  0.2458 -0.7971
  195MOL0     H26292   6.029  10.732   3.713 -1.2755  0.9708 -0.5752
  195MOL0     H26293   6.114  10.509   3.774  0.0296 -0.7725  1.7187
  195MOL0     H26294   5.968  10.480   3.860  0.0507 -1.9841 -0.2647
  195MOL0     H26295   5.849  10.525   3.628  1.3664  1.8831  0.8634
  195MOL0     H26296   5.931  10.360   3.647 -0.6181 -0.3644 -2.0573
  195MOL0     H26297   6.060  10.612   3.539  0.6493 -0.4890  0.1338
  195MOL0     H26298   6.130  10.454   3.542 -0.8220  0.3122  1.1375
  195MOL0     H26299   6.044  10.519   3.315  3.2043 -0.4723  3.2170
  195MOL0     H26300   5.879  10.513   3.380  0.3680  0.1796 -1.9709
  195MOL0     H26301   6.034  10.299   3.261  0.9877  0.5684  0.8793
  195MOL0     H26302   6.054  10.261   3.433  0.9906  1.9571  0.7374
  195MOL0     H26303   5.794  10.320   3.293 -0.7648  1.3992  2.3702
  195MOL0     H26304   5.793  10.283   3.457 -0.4526  1.4804 -0.2321
  195MOL0     H26305   5.868  10.100   3.223  0.6393  0.4968  0.0843
  195MOL0     H26306   5.712  10.113   3.299  0.5642  2.4443 -2.3426
  195MOL0     H26307   6.231  10.754   3.796 -2.8710 -0.0091 -0.7666
  195MOL0     H26308   6.426  10.889   3.924  0.2616 -4.4978  0.0995
  195MOL0     H26309   6.605  11.105   4.252  0.8832  1.0040  3.0233
  195MOL0     H26310   6.804  11.210   4.325 -1.4079 -0.7979  0.6239
  195MOL0     H26311   7.305  10.657   2.862 -1.0770  1.0067 -0.0091
  195MOL0     H26312   7.460  10.486   2.947 -2.1561  1.0995 -2.4867
  195MOL0     H26313   7.673  10.152   3.195  0.8894 -3.5737  2.2368
  195MOL0     H26314   7.866  10.034   3.344 -1.0704 -0.1472 -0.7036
  195MOL0     H26315   8.214  10.213   3.287 -1.8754 -0.0040 -0.0975
  195MOL0     H26316   8.220  10.304   3.436 -2.0959  1.6778 -0.2694
  195MOL0     H26317   8.394  10.130   3.421 -1.1480  2.0941 -0.5478
  195MOL0     H26318   8.271   9.993   3.424  0.5742  0.0992 -0.6380
  195MOL0     H26319   8.214  10.057   3.638  0.1342  0.5912 -0.8944
  195MOL0     H26320   8.301  10.203   3.644 -0.3202 -0.1393 -2.2108
  195MOL0     H26321   8.419   9.921   3.608 -1.3510  1.2111 -4.3823
  195MOL0     H26322   8.368   9.989   3.766 -0.0378  2.2841 -0.2880
  195MOL0     H26323   8.762  10.139   3.730  0.4976  0.0068  1.5824
  195MOL0     H26324   8.059  10.413   3.362  0.9981 -1.3146 -0.6641
  195MOL0     H26325   7.876  10.517   3.253  2.8767  0.6860  2.8779
  196MOL0     O26326   3.559   2.661   3.208  0.5075  0.5214  0.3668
  196MOL0     C26327   3.662   2.600   3.255  0.7701  0.8862  0.3591
  196MOL0     O26328   3.792   2.648   3.266 -0.0302 -0.2673 -0.3745
  196MOL0     C26329   3.824   2.776   3.228 -0.2132 -0.2985  0.5072
  196MOL0     C26330   3.938   2.844   3.293  0.6935  0.4006  0.1700
  196MOL0     C26331   3.983   2.972   3.268 -0.0203  0.1109 -0.7119
  196MOL0     C26332   3.915   3.044   3.169  0.1436  0.4657 -0.2479
  196MOL0     O26333   3.981   3.163   3.145 -0.0982 -0.7103  0.5944
  196MOL0     C26334   3.906   3.252   3.071 -0.6055 -0.1740 -0.1746
  196MOL0     C26335   3.978   3.384   3.049 -0.8654 -0.2894 -0.5476
  196MOL0     C26336   3.916   3.470   2.936 -0.0014  0.0321  0.6055
  196MOL0     C26337   4.018   3.589   2.919 -0.4437  0.0703 -0.5929
  196MOL0     C26338   3.959   3.693   2.822 -0.0738 -0.2521  0.4055
  196MOL0     C26339   3.945   3.645   2.670 -0.7240 -0.5063 -0.5523
  196MOL0     C26340   3.861   3.732   2.567 -0.0918 -0.6044 -0.5545
  196MOL0     C26341   3.709   3.738   2.593 -0.4151 -0.0000 -0.4252
  196MOL0     N26342   3.647   3.842   2.504  0.0296 -0.9413 -0.1826
  196MOL0     C26343   3.619   3.819   2.382  0.4364  0.3968 -0.4289
  196MOL0     C26344   3.573   3.937   2.332 -0.0045 -0.2464 -0.5607
  196MOL0     C26345   3.523   3.989   2.206  0.1893 -0.1515 -0.7646
  196MOL0     C26346   3.371   3.980   2.162 -0.2146 -0.2468  0.5724
  196MOL0     C26347   3.268   4.039   2.261  0.1511 -0.4587  0.1832
  196MOL0     C26348   3.284   4.187   2.291  0.2410 -0.7332  0.9918
  196MOL0     O26349   3.248   4.252   2.169  0.2599  0.2871  0.5152
  196MOL0     C26350   3.207   4.384   2.177 -0.6124 -0.5296  0.1417
  196MOL0     C26351   3.231   4.459   2.296  0.3417  0.1245  0.8097
  196MOL0     C26352   3.173   4.587   2.310 -0.6979  0.6427  0.5520
  196MOL0     C26353   3.201   4.662   2.446 -0.5507  0.7759  0.7296
  196MOL0     C26354   3.089   4.634   2.204  0.1287 -0.4065  0.3270
  196MOL0     C26355   3.014   4.760   2.190  0.6547  0.4418  0.2824
  196MOL0     O26356   2.887   4.758   2.136 -0.2715  0.5519  0.0456
  196MOL0     C26357   2.796   4.859   2.160  0.2318  0.1088 -0.7487
  196MOL0     C26358   2.736   4.922   2.055  0.6900 -1.1263 -0.0552
  196MOL0     C26359   2.662   5.043   2.061 -0.3646  0.2034  1.2512
  196MOL0     C26360   2.660   5.103   2.192 -0.6458 -0.8327  0.1714
  196MOL0     O26361   2.604   5.227   2.211  1.0604 -0.0460 -0.5024
  196MOL0     C26362   2.557   5.306   2.100 -0.4802  0.1808 -0.4368
  196MOL0     C26363   2.480   5.438   2.145 -0.8129  0.4332 -0.5686
  196MOL0     C26364   2.395   5.496   2.028 -0.2829 -0.5306 -0.8815
  196MOL0     C26365   2.466   5.524   1.897 -0.7791  0.0214  0.2775
  196MOL0     C26366   2.371   5.588   1.799 -0.5087  0.3464 -0.2242
  196MOL0     C26367   2.439   5.676   1.693 -0.1514 -0.0124  1.0618
  196MOL0     C26368   2.506   5.800   1.750 -1.1510 -0.9756  0.1554
  196MOL0     C26369   2.411   5.911   1.797  1.3154 -0.2030  0.4450
  196MOL0    Cl26370   2.509   6.059   1.835 -0.4730 -0.2611  0.1910
  196MOL0     C26371   2.716   5.032   2.301 -0.1957  0.2461 -0.4160
  196MOL0     C26372   2.785   4.915   2.288  0.1828  0.2260 -0.4287
  196MOL0     O26373   3.072   4.865   2.224  0.3058  0.2999 -1.0889
  196MOL0     C26374   3.071   4.545   2.088  0.1240 -0.5316 -0.5570
  196MOL0     C26375   3.124   4.431   2.072 -1.1290 -0.7522  0.1800
  196MOL0     N26376   3.573   4.033   2.437  0.9786 -0.5143 -0.0336
  196MOL0     N26377   3.608   3.971   2.543 -0.5418  0.0912  0.5573
  196MOL0     C26378   3.813   2.977   3.093 -0.2347  1.0421  0.5113
  196MOL0     C26379   3.765   2.847   3.126 -0.4675  0.3711  0.7150
  196MOL0     C26380   3.636   2.464   3.309  0.5959 -0.7567 -0.3263
  196MOL0     C26381   3.734   2.403   3.396 -0.3266  0.0671  0.8892
  196MOL0     C26382   3.712   2.280   3.454 -0.0890  0.4895  0.0637
  196MOL0     C26383   3.599   2.202   3.432 -0.8879  0.2224 -0.6883
  196MOL0     O26384   3.576   2.100   3.516 -1.0894  0.2196  0.7722
  196MOL0     C26385   3.452   2.041   3.523 -0.5029 -0.3281  0.1253
  196MOL0     C26386   3.460   1.926   3.622 -0.0852 -0.1087 -0.5657
  196MOL0     C26387   3.518   1.788   3.568  0.4663 -0.0290  0.1677
  196MOL0     C26388   3.448   1.703   3.458  0.9787  0.7771  0.8978
  196MOL0     C26389   3.303   1.726   3.463  0.9544  0.5085 -0.7843
  196MOL0     C26390   3.181   1.744   3.459  0.1807  0.5724  0.5718
  196MOL0     C26391   3.507   2.258   3.334  0.2900  1.1754 -0.4386
  196MOL0     C26392   3.516   2.389   3.285 -0.0476 -0.7340  0.6399
  196MOL0     H26393   3.985   2.787   3.373  1.5913 -3.5536 -2.8567
  196MOL0     H26394   4.070   3.011   3.320 -1.3484 -0.3563  2.0374
  196MOL0     H26395   3.882   3.215   2.971 -2.3366  3.0733 -1.0827
  196MOL0     H26396   3.814   3.275   3.124  0.4452 -2.6302  3.0416
  196MOL0     H26397   3.986   3.438   3.144  0.6249  0.5502 -1.1250
  196MOL0     H26398   4.071   3.347   3.006  0.0355  0.9776  0.2794
  196MOL0     H26399   3.910   3.408   2.846  3.1069 -1.7990  1.4952
  196MOL0     H26400   3.824   3.517   2.970  0.7308  1.1850  1.0563
  196MOL0     H26401   4.038   3.645   3.011  0.4376 -2.3531  0.7945
  196MOL0     H26402   4.115   3.555   2.883  0.9743 -0.5701  3.3143
  196MOL0     H26403   3.861   3.728   2.855 -1.1961 -3.5624  0.9661
  196MOL0     H26404   4.028   3.778   2.819  0.6504 -0.8611 -0.6817
  196MOL0     H26405   4.048   3.648   2.631 -0.5272  2.8213 -0.0693
  196MOL0     H26406   3.916   3.540   2.662 -1.4897 -0.3168 -0.2641
  196MOL0     H26407   3.913   3.827   2.554  0.9070 -0.7650  1.8885
  196MOL0     H26408   3.865   3.706   2.460 -1.6846  1.1375 -1.0995
  196MOL0     H26409   3.667   3.759   2.692 -3.5004 -2.3817 -1.0648
  196MOL0     H26410   3.676   3.634   2.583  1.6977 -0.8323  0.5869
  196MOL0     H26411   3.636   3.727   2.328 -1.8299 -0.1362 -0.3373
  196MOL0     H26412   3.539   4.097   2.205 -2.1512  0.2541 -0.7049
  196MOL0     H26413   3.581   3.929   2.135 -1.3092 -1.2481 -1.0973
  196MOL0     H26414   3.359   3.873   2.141  2.4541 -0.2308 -1.6048
  196MOL0     H26415   3.361   4.017   2.060 -2.5205  0.5363  1.0320
  196MOL0     H26416   3.285   3.985   2.355  1.8807  0.5577  0.4834
  196MOL0     H26417   3.163   4.020   2.234  0.3639  0.1250 -1.1375
  196MOL0     H26418   3.387   4.218   2.309  1.3665 -1.0473 -3.6703
  196MOL0     H26419   3.217   4.204   2.376 -3.2484  2.1427 -1.9764
  196MOL0     H26420   3.285   4.417   2.380  1.5922  0.2926  0.1217
  196MOL0     H26421   3.180   4.769   2.439 -0.3347  0.8231  0.7995
  196MOL0     H26422   3.161   4.610   2.533 -1.4241 -1.1525 -0.7467
  196MOL0     H26423   3.310   4.660   2.449 -0.4195 -1.4857 -1.5626
  196MOL0     H26424   2.762   4.890   1.955  1.8327 -1.8559  0.4638
  196MOL0     H26425   2.631   5.103   1.976 -4.5934  3.5269  4.6702
  196MOL0     H26426   2.637   5.350   2.039 -1.5285 -1.3462 -3.0820
  196MOL0     H26427   2.485   5.246   2.043 -1.1579 -1.5642  2.0973
  196MOL0     H26428   2.396   5.412   2.211 -2.1560  0.1168 -2.3313
  196MOL0     H26429   2.548   5.512   2.189 -1.0621  0.7963 -0.7938
  196MOL0     H26430   2.349   5.586   2.069  4.6543  0.8846  2.3469
  196MOL0     H26431   2.315   5.421   2.018 -0.8321 -0.3569  1.5778
  196MOL0     H26432   2.535   5.604   1.926 -2.4685  1.2863  0.9583
  196MOL0     H26433   2.519   5.439   1.852  1.0208  1.3831 -0.2704
  196MOL0     H26434   2.289   5.643   1.848 -0.6613 -1.1909  1.3100
  196MOL0     H26435   2.319   5.505   1.750 -0.2269 -0.6029  1.0575
  196MOL0     H26436   2.510   5.611   1.642  0.0071  1.3547 -0.5747
  196MOL0     H26437   2.364   5.711   1.621  2.3611 -3.8990 -4.1384
  196MOL0     H26438   2.561   5.850   1.670 -0.0709  0.7798  1.9111
  196MOL0     H26439   2.571   5.787   1.836 -0.7049  1.3628  0.2420
  196MOL0     H26440   2.355   5.894   1.889  1.2532  1.4805  0.7589
  196MOL0     H26441   2.349   5.941   1.712  1.8880  0.0791  0.1243
  196MOL0     H26442   2.717   5.073   2.401  1.1703 -1.3673  0.2826
  196MOL0     H26443   2.838   4.855   2.361  3.3772  1.5999 -1.4546
  196MOL0     H26444   3.016   4.587   2.005 -0.0552 -2.8757 -1.7232
  196MOL0     H26445   3.120   4.385   1.974 -4.1695  2.7537 -1.5858
  196MOL0     H26446   3.785   3.031   3.003  1.6360  1.4435  0.1282
  196MOL0     H26447   3.684   2.810   3.063 -2.7285  0.5378  3.3375
  196MOL0     H26448   3.820   2.460   3.430 -1.0507  0.1720  2.6349
  196MOL0     H26449   3.791   2.251   3.523 -0.9765 -0.8986  0.5328
  196MOL0     H26450   3.377   2.108   3.566 -0.3374 -1.0164  1.5545
  196MOL0     H26451   3.423   2.013   3.421  0.7713 -0.0553 -0.3269
  196MOL0     H26452   3.359   1.921   3.665  0.2373  0.3061  0.2492
  196MOL0     H26453   3.527   1.963   3.700 -0.3266 -1.8341  0.5358
  196MOL0     H26454   3.511   1.719   3.654  1.0278 -0.5263 -0.1727
  196MOL0     H26455   3.627   1.798   3.557  0.2998  2.3786  0.2290
  196MOL0     H26456   3.458   1.594   3.466 -0.9206  0.6376  1.9173
  196MOL0     H26457   3.476   1.735   3.357 -1.1979 -0.2954 -0.1409
  196MOL0     H26458   3.081   1.784   3.453 -0.1751 -0.2811  0.7576
  196MOL0     H26459   3.418   2.203   3.309  0.3171  2.5270 -4.1906
  196MOL0     H26460   3.430   2.420   3.226 -0.7275  1.7290  2.7142
  197MOL0     O26461   7.907   4.593   1.755  0.0867  0.2897  0.4203
  197MOL0     C26462   7.834   4.675   1.701 -0.2334  0.2975 -0.1402
  197MOL0     O26463   7.759   4.658   1.590  0.2379  0.0116 -0.1501
  197MOL0     C26464   7.821   4.601   1.484  1.5340 -0.3888 -0.1130
  197MOL0     C26465   7.948   4.543   1.461 -0.0175  0.5755  0.0626
  197MOL0     C26466   7.978   4.479   1.344 -0.0030 -0.1684 -0.0810
  197MOL0     C26467   7.895   4.477   1.233  0.8711 -0.2217 -0.8801
  197MOL0     O26468   7.917   4.416   1.108  0.2984 -0.9653 -0.0648
  197MOL0     C26469   7.977   4.285   1.102  0.0324 -0.1417  0.2080
  197MOL0     C26470   7.953   4.218   0.965 -0.0199  0.0999 -0.3450
  197MOL0     C26471   7.814   4.161   0.951 -0.1982 -0.6788 -0.3554
  197MOL0     C26472   7.804   4.055   0.840 -0.2035  0.5484  0.3907
  197MOL0     C26473   7.659   3.995   0.813 -0.1396  0.2118  0.0849
  197MOL0     C26474   7.569   4.118   0.786 -0.9735  1.2638 -0.0858
  197MOL0     C26475   7.460   4.083   0.693 -0.1428  0.2375  0.2711
  197MOL0     C26476   7.387   4.197   0.622  0.1944  0.3849  0.3693
  197MOL0     N26477   7.285   4.144   0.534 -1.2430 -0.2626 -0.5216
  197MOL0     C26478   7.283   4.039   0.447  0.1272 -1.3006 -0.3478
  197MOL0     C26479   7.164   4.030   0.392 -0.1971  0.6723  0.3752
  197MOL0     C26480   7.127   3.931   0.290  0.0927  0.5395  0.1813
  197MOL0     C26481   7.139   3.998   0.150 -0.0323 -0.7698  0.5669
  197MOL0     C26482   7.272   4.008   0.086 -1.3165 -0.4830  0.0901
  197MOL0     C26483   7.326   3.872   0.024 -0.3906 -0.2448 -0.7311
  197MOL0     O26484   7.381   3.779   0.120 -0.1304  0.1964 -0.4165
  197MOL0     C26485   7.499   3.801   0.190 -0.2064 -0.1624 -0.2478
  197MOL0     C26486   7.580   3.910   0.164 -0.0904  0.5597 -0.4514
  197MOL0     C26487   7.698   3.924   0.241 -0.2964 -0.8257 -0.1683
  197MOL0     C26488   7.778   4.062   0.232  0.0802 -0.0310 -0.7657
  197MOL0     C26489   7.739   3.818   0.335 -0.4904  0.1909  0.0397
  197MOL0     C26490   7.863   3.820   0.417 -0.5637  0.5805 -1.0863
  197MOL0     O26491   7.973   3.844   0.351  0.2800 -1.1273  0.5429
  197MOL0     C26492   8.094   3.814   0.419  0.3207 -0.8876  0.5543
  197MOL0     C26493   8.186   3.733   0.350 -0.4510  1.1664 -0.4573
  197MOL0     C26494   8.306   3.696   0.407 -0.5365 -0.1007 -0.2934
  197MOL0     C26495   8.340   3.735   0.534  0.1513  0.2936 -0.8943
  197MOL0     O26496   8.456   3.701   0.599 -0.2892  0.5674  0.0662
  197MOL0     C26497   8.576   3.675   0.524 -0.8003  0.6022  0.3855
  197MOL0     C26498   8.675   3.610   0.627  0.7994  1.0585  0.0375
  197MOL0     C26499   8.609   3.495   0.698  1.4996 -0.2468  0.1956
  197MOL0     C26500   8.711   3.393   0.752 -0.3622 -0.5500  0.1222
  197MOL0     C26501   8.655   3.264   0.808 -0.0604  0.6029  0.5469
  197MOL0     C26502   8.714   3.232   0.945 -0.0079 -0.3111  1.0328
  197MOL0     C26503   8.858   3.230   0.941 -0.7446  0.4660  0.6837
  197MOL0     C26504   8.914   3.280   1.078 -0.7083 -0.4632  0.0971
  197MOL0    Cl26505   8.854   3.166   1.208 -0.2688  0.4731 -0.0023
  197MOL0     C26506   8.259   3.830   0.601 -0.9007  0.0615  0.1211
  197MOL0     C26507   8.131   3.869   0.547 -0.9304 -0.1794  0.0865
  197MOL0     O26508   7.860   3.781   0.532 -0.4830 -0.1486 -0.1117
  197MOL0     C26509   7.662   3.705   0.348 -0.5314 -0.1138 -0.2097
  197MOL0     C26510   7.544   3.699   0.274  0.2451  0.1034 -0.2277
  197MOL0     N26511   7.103   4.148   0.424  0.1324 -0.2110  0.2385
  197MOL0     N26512   7.174   4.213   0.513 -0.0485 -0.3762  1.0694
  197MOL0     C26513   7.775   4.550   1.256  0.7522 -0.2057  0.5687
  197MOL0     C26514   7.741   4.603   1.373  0.0967 -0.9023  0.2510
  197MOL0     C26515   7.797   4.792   1.785 -0.9915  0.2329 -0.0779
  197MOL0     C26516   7.792   4.788   1.921 -0.3071  0.5976  0.0957
  197MOL0     C26517   7.763   4.887   2.011 -0.5750 -0.2192 -0.1944
  197MOL0     C26518   7.718   5.013   1.965  0.5346  1.1679  0.4736
  197MOL0     O26519   7.671   5.108   2.049  0.5847  0.2153  0.0115
  197MOL0     C26520   7.566   5.196   1.994 -0.3673 -0.1651  0.3134
  197MOL0     C26521   7.447   5.205   2.086  1.0683 -0.2471  0.2311
  197MOL0     C26522   7.362   5.072   2.084 -0.0421  0.4582  1.6409
  197MOL0     C26523   7.280   5.062   2.214  0.1251 -0.3734 -0.5495
  197MOL0     C26524   7.216   4.932   2.214 -0.5374 -0.6475 -0.7269
  197MOL0     C26525   7.139   4.834   2.198 -0.4455 -0.5531 -0.4405
  197MOL0     C26526   7.730   5.021   1.822 -0.3045  0.8431  0.0216
  197MOL0     C26527   7.758   4.918   1.731 -0.2825  0.0151  0.9251
  197MOL0     H26528   8.038   4.547   1.521  1.0514  1.1097 -1.5014
  197MOL0     H26529   8.075   4.434   1.327  0.8884  1.3267  0.8301
  197MOL0     H26530   8.085   4.299   1.118 -0.4132  0.0588  3.9030
  197MOL0     H26531   7.944   4.233   1.193 -1.1750  1.3404  0.6600
  197MOL0     H26532   7.974   4.288   0.884 -0.7441  0.2783 -0.3867
  197MOL0     H26533   8.034   4.145   0.968 -1.0486 -1.1220  3.6728
  197MOL0     H26534   7.794   4.112   1.047  2.3498 -0.5857  0.2899
  197MOL0     H26535   7.750   4.249   0.935 -0.3611 -0.9252 -1.0901
  197MOL0     H26536   7.851   4.082   0.745  4.1475  0.7693  2.3594
  197MOL0     H26537   7.878   3.977   0.859 -1.6235 -0.7385  0.9103
  197MOL0     H26538   7.657   3.923   0.732  0.1869  1.5061 -1.1163
  197MOL0     H26539   7.623   3.941   0.901 -3.2916 -2.7200 -2.6986
  197MOL0     H26540   7.532   4.153   0.883 -1.1080  1.6458 -0.2733
  197MOL0     H26541   7.633   4.195   0.741 -0.0039  0.7295  0.3509
  197MOL0     H26542   7.508   4.017   0.621 -0.1829  1.3056 -0.7674
  197MOL0     H26543   7.382   4.020   0.737 -0.7048  0.2392 -0.7139
  197MOL0     H26544   7.456   4.253   0.558 -0.1491 -1.7087 -1.9850
  197MOL0     H26545   7.343   4.261   0.699 -1.3239 -0.7008  0.4283
  197MOL0     H26546   7.367   3.973   0.429  2.7904  1.1115  2.1902
  197MOL0     H26547   7.188   3.841   0.299  0.3750  0.9228  3.4891
  197MOL0     H26548   7.020   3.908   0.295  0.1742  0.4012  1.8099
  197MOL0     H26549   7.114   4.104   0.167 -0.3729 -0.7057 -0.2891
  197MOL0     H26550   7.062   3.963   0.080 -2.3594 -1.1336  3.1226
  197MOL0     H26551   7.340   4.045   0.163 -0.7362 -2.2895  0.4947
  197MOL0     H26552   7.271   4.079   0.003  0.5445  0.7084  1.0062
  197MOL0     H26553   7.405   3.911  -0.041  0.2497  0.8198  0.6403
  197MOL0     H26554   7.247   3.824  -0.034 -2.0667  2.7903 -1.1477
  197MOL0     H26555   7.563   3.985   0.088  1.2006  1.1806 -0.1754
  197MOL0     H26556   7.708   4.143   0.208 -0.3902 -0.3386 -0.4270
  197MOL0     H26557   7.817   4.095   0.329 -1.4929  0.9672 -0.4392
  197MOL0     H26558   7.862   4.059   0.162  1.5867 -1.1543  0.9938
  197MOL0     H26559   8.168   3.703   0.247  3.0050  1.0963 -1.1432
  197MOL0     H26560   8.369   3.621   0.359 -0.0864 -0.0955  0.2870
  197MOL0     H26561   8.557   3.604   0.443  0.5320 -0.8102  1.2745
  197MOL0     H26562   8.602   3.770   0.477  0.8359  0.2974  0.6306
  197MOL0     H26563   8.751   3.565   0.563 -0.0163 -0.2442 -0.0479
  197MOL0     H26564   8.724   3.683   0.693  0.7354  0.5978  0.6116
  197MOL0     H26565   8.540   3.439   0.634  1.2891  1.8865 -1.5553
  197MOL0     H26566   8.546   3.521   0.783 -0.3165  1.2192 -1.4919
  197MOL0     H26567   8.780   3.365   0.673  0.1162  0.8497  0.0133
  197MOL0     H26568   8.754   3.464   0.824 -2.3942  1.8284 -0.8571
  197MOL0     H26569   8.661   3.181   0.737  1.8251  1.6474 -0.6177
  197MOL0     H26570   8.548   3.274   0.823 -0.1455  0.1401  0.2739
  197MOL0     H26571   8.664   3.296   1.017 -2.1292  1.2875 -1.6621
  197MOL0     H26572   8.680   3.129   0.963 -0.9106  0.0603  1.5218
  197MOL0     H26573   8.890   3.309   0.873 -0.4347  1.8842  2.4072
  197MOL0     H26574   8.899   3.132   0.915  1.4524  0.4923  3.6114
  197MOL0     H26575   8.894   3.383   1.109  3.0420 -0.0853  1.7458
  197MOL0     H26576   9.023   3.265   1.078 -0.2869  2.1020  1.7256
  197MOL0     H26577   8.289   3.863   0.700  0.5243 -1.3446  0.1954
  197MOL0     H26578   8.059   3.924   0.606  0.1592  0.2642  1.0240
  197MOL0     H26579   7.693   3.629   0.419  1.3865  2.5526  2.0261
  197MOL0     H26580   7.486   3.608   0.265  2.1573 -1.2172  0.0974
  197MOL0     H26581   7.698   4.557   1.179  0.9352 -0.4478  0.3603
  197MOL0     H26582   7.643   4.641   1.399  0.6521 -0.1225  1.2440
  197MOL0     H26583   7.820   4.694   1.968 -0.1513  0.6155  0.0387
  197MOL0     H26584   7.756   4.861   2.116 -0.5120  1.0506  0.1497
  197MOL0     H26585   7.620   5.291   1.999 -0.4991 -0.1255  3.7035
  197MOL0     H26586   7.536   5.173   1.892  0.0882 -0.8818  0.3373
  197MOL0     H26587   7.375   5.282   2.058 -0.0712 -1.9267 -1.7152
  197MOL0     H26588   7.477   5.219   2.190  3.5086  1.1365 -0.6044
  197MOL0     H26589   7.429   4.987   2.074 -0.4099  0.5027 -3.5559
  197MOL0     H26590   7.290   5.070   2.002 -1.3126 -0.0148  2.7185
  197MOL0     H26591   7.201   5.137   2.203 -1.5548 -2.1825 -1.4275
  197MOL0     H26592   7.334   5.075   2.308  3.3324 -3.5973 -1.7375
  197MOL0     H26593   7.066   4.756   2.190 -2.8590  1.3497  1.1711
  197MOL0     H26594   7.730   5.125   1.793  2.2702  1.2045  1.0219
  197MOL0     H26595   7.744   4.942   1.626  0.8157 -1.6154  0.3654
  198MOL0     O26596   7.310   9.701   2.531 -0.1556  0.0687 -0.7306
  198MOL0     C26597   7.253   9.791   2.472  0.4153 -0.1577  0.2070
  198MOL0     O26598   7.120   9.811   2.472  0.6086  0.1684 -0.3415
  198MOL0     C26599   7.041   9.728   2.547 -1.3528 -0.3154 -0.2836
  198MOL0     C26600   7.039   9.747   2.683  0.9442  0.6553 -0.3100
  198MOL0     C26601   6.942   9.677   2.750  0.5336  0.9038 -0.6312
  198MOL0     C26602   6.855   9.585   2.697 -1.2192  0.6378  0.0317
  198MOL0     O26603   6.773   9.516   2.779 -0.0437  0.6983 -0.2301
  198MOL0     C26604   6.653   9.453   2.725 -0.4922 -0.2613 -0.2529
  198MOL0     C26605   6.550   9.437   2.840  0.8713 -0.1361 -0.7284
  198MOL0     C26606   6.552   9.304   2.937  0.4168 -0.5418  0.5942
  198MOL0     C26607   6.427   9.228   2.909  1.0896  1.0119 -0.2264
  198MOL0     C26608   6.444   9.087   2.968 -0.1824 -0.7362  0.5279
  198MOL0     C26609   6.304   9.020   2.990 -0.3255  0.5065  0.4928
  198MOL0     C26610   6.329   8.894   3.079  0.3211 -0.5588 -0.0231
  198MOL0     C26611   6.440   8.789   3.031  0.0384 -0.4159  0.3068
  198MOL0     N26612   6.452   8.661   3.107  0.0245 -0.2117  0.3179
  198MOL0     C26613   6.558   8.644   3.188  0.4006 -0.3651  0.4321
  198MOL0     C26614   6.600   8.519   3.160  0.7461  0.1910 -0.2188
  198MOL0     C26615   6.737   8.460   3.204  0.2203  0.1623 -0.1672
  198MOL0     C26616   6.702   8.327   3.269  0.1471  1.5080 -0.0864
  198MOL0     C26617   6.637   8.336   3.410  0.5615 -0.4397  0.1701
  198MOL0     C26618   6.661   8.225   3.506 -0.8521 -0.1793  0.2356
  198MOL0     O26619   6.614   8.257   3.635  0.1226 -0.4068 -0.4564
  198MOL0     C26620   6.659   8.202   3.754  0.5451  0.5111 -0.2230
  198MOL0     C26621   6.753   8.105   3.761 -0.4239 -0.4521  0.0016
  198MOL0     C26622   6.798   8.055   3.882  0.1444  0.5096 -0.6994
  198MOL0     C26623   6.922   7.963   3.878 -0.6514  0.1045  0.0168
  198MOL0     C26624   6.734   8.096   4.004 -0.0456 -0.3117 -0.4608
  198MOL0     C26625   6.776   8.049   4.142  0.5324 -0.1256  0.1225
  198MOL0     O26626   6.730   8.135   4.248  0.1609 -0.1418 -0.2657
  198MOL0     C26627   6.742   8.115   4.380  0.3850  0.0182  0.4569
  198MOL0     C26628   6.864   8.127   4.446  0.5489  0.1251 -0.4139
  198MOL0     C26629   6.858   8.125   4.592 -0.0460 -0.0315  0.6544
  198MOL0     C26630   6.746   8.081   4.663  0.2455  0.1472 -0.7973
  198MOL0     O26631   6.739   8.064   4.802 -0.1584 -0.6612 -0.0207
  198MOL0     C26632   6.857   8.081   4.888 -0.7054  0.1321 -0.2697
  198MOL0     C26633   6.890   8.232   4.920 -0.0572  0.6761  0.0382
  198MOL0     C26634   6.785   8.337   4.964  0.7873  0.5912  0.4127
  198MOL0     C26635   6.715   8.290   5.088  0.1305  0.2935  0.1072
  198MOL0     C26636   6.589   8.372   5.123 -0.1565 -0.5757 -0.6617
  198MOL0     C26637   6.610   8.516   5.153 -0.8172  0.4106  0.1365
  198MOL0     C26638   6.510   8.609   5.101 -0.3821 -0.0133  0.6178
  198MOL0     C26639   6.552   8.751   5.117 -0.7123 -0.8252 -0.4476
  198MOL0    Cl26640   6.673   8.793   4.994  0.7377  0.3561 -0.4424
  198MOL0     C26641   6.633   8.043   4.591  0.4804 -0.0059 -0.0824
  198MOL0     C26642   6.632   8.064   4.457 -1.0924  1.1528 -0.5457
  198MOL0     O26643   6.841   7.946   4.162  0.5512 -0.2512 -0.6982
  198MOL0     C26644   6.641   8.197   4.001 -0.8620 -1.3143  0.7109
  198MOL0     C26645   6.606   8.253   3.877 -0.6737 -0.6537  0.3335
  198MOL0     N26646   6.504   8.458   3.081  0.0133 -0.2856  0.3956
  198MOL0     N26647   6.418   8.548   3.051  0.2346 -0.1535  0.9668
  198MOL0     C26648   6.874   9.559   2.558  1.3882  0.0936 -0.1361
  198MOL0     C26649   6.968   9.621   2.485  0.2187  0.8274  0.3664
  198MOL0     C26650   7.331   9.884   2.384  0.2160  0.0535  0.4872
  198MOL0     C26651   7.268   9.965   2.287 -0.0790 -0.5002 -0.2941
  198MOL0     C26652   7.341  10.050   2.210 -0.7685  0.1772 -0.6532
  198MOL0     C26653   7.482  10.055   2.209 -0.2909 -0.3321 -0.0270
  198MOL0     O26654   7.554  10.142   2.129 -0.5844 -0.3790 -0.0460
  198MOL0     C26655   7.488  10.264   2.103  0.7333  0.0539  0.0246
  198MOL0     C26656   7.592  10.356   2.033  0.5441  0.2315 -0.0094
  198MOL0     C26657   7.565  10.508   2.039  0.4050  0.2782  0.1398
  198MOL0     C26658   7.628  10.592   1.929  0.8216  0.3240 -0.6449
  198MOL0     C26659   7.778  10.597   1.922  0.3317 -0.2884  0.0991
  198MOL0     C26660   7.895  10.597   1.904 -0.3919 -0.5986 -0.6174
  198MOL0     C26661   7.547   9.967   2.295  0.1218 -0.3673 -0.4871
  198MOL0     C26662   7.471   9.889   2.389  0.2356  0.8804 -0.9471
  198MOL0     H26663   7.099   9.824   2.731  0.5313 -0.3529  1.9258
  198MOL0     H26664   6.946   9.700   2.856  0.0733  3.7464 -1.1389
  198MOL0     H26665   6.622   9.522   2.646  0.4696  1.4395  0.7970
  198MOL0     H26666   6.677   9.359   2.674 -0.7560  0.1068 -1.0690
  198MOL0     H26667   6.581   9.518   2.907  0.2864 -0.6870  0.2196
  198MOL0     H26668   6.450   9.464   2.805  0.7773  1.9021  0.9193
  198MOL0     H26669   6.640   9.246   2.907 -1.3226 -1.9720 -2.2044
  198MOL0     H26670   6.552   9.339   3.041  2.4822 -3.5013  1.7321
  198MOL0     H26671   6.334   9.274   2.945 -0.2351 -0.9468 -0.9888
  198MOL0     H26672   6.410   9.215   2.802 -1.1839 -0.8305  0.2787
  198MOL0     H26673   6.515   9.040   2.900  0.7661  0.3488  0.7353
  198MOL0     H26674   6.490   9.088   3.068 -0.0494 -0.7693  0.4670
  198MOL0     H26675   6.228   9.087   3.031 -0.4336 -0.5279  2.0955
  198MOL0     H26676   6.262   8.976   2.900  0.7021  0.7960 -0.1421
  198MOL0     H26677   6.351   8.939   3.177 -2.8683  0.8648  0.1715
  198MOL0     H26678   6.228   8.851   3.078 -0.4136 -0.0451  6.6808
  198MOL0     H26679   6.542   8.831   3.029 -0.2390  0.2580 -1.5534
  198MOL0     H26680   6.431   8.761   2.926  1.0226  1.2507 -0.2710
  198MOL0     H26681   6.623   8.712   3.242  2.6141  0.1843 -2.6560
  198MOL0     H26682   6.798   8.445   3.115 -2.3091  1.8635 -2.3644
  198MOL0     H26683   6.783   8.528   3.277  1.7079 -0.2756 -0.6725
  198MOL0     H26684   6.793   8.266   3.274 -0.7334  0.2164  0.7943
  198MOL0     H26685   6.642   8.258   3.210  2.9451 -1.6570  0.4470
  198MOL0     H26686   6.528   8.337   3.394  0.7828  1.8329 -1.8405
  198MOL0     H26687   6.677   8.427   3.455  2.3972  0.2319 -2.5869
  198MOL0     H26688   6.765   8.194   3.488 -1.0085 -0.1849 -0.7066
  198MOL0     H26689   6.594   8.149   3.466 -0.7977  0.8812 -1.9694
  198MOL0     H26690   6.797   8.054   3.675 -2.1766 -0.2548 -1.0649
  198MOL0     H26691   6.972   7.946   3.783  1.9645 -2.3062  1.6718
  198MOL0     H26692   6.989   8.011   3.950 -0.4985  0.0192 -0.0686
  198MOL0     H26693   6.902   7.860   3.911  1.9605  0.5246  3.4413
  198MOL0     H26694   6.944   8.168   4.386  1.5198 -0.2250  0.5975
  198MOL0     H26695   6.953   8.125   4.643  1.5491 -2.6592 -1.9997
  198MOL0     H26696   6.828   8.041   4.985  2.6356  0.2603  0.8800
  198MOL0     H26697   6.943   8.023   4.852 -1.2133 -1.2070  0.5817
  198MOL0     H26698   6.971   8.223   4.992  1.6240  0.1662 -1.8176
  198MOL0     H26699   6.934   8.277   4.831 -1.3305  1.1414 -0.3879
  198MOL0     H26700   6.717   8.349   4.879  1.9795 -1.6960 -0.9568
  198MOL0     H26701   6.837   8.428   4.995  2.4639 -0.9451  2.3859
  198MOL0     H26702   6.674   8.188   5.086  0.2618  0.2553 -0.7566
  198MOL0     H26703   6.776   8.294   5.179 -0.3000 -1.8049  0.5599
  198MOL0     H26704   6.549   8.324   5.213  2.4031  4.7476  3.9245
  198MOL0     H26705   6.519   8.365   5.039  1.6046  0.1278 -2.2769
  198MOL0     H26706   6.604   8.516   5.262  0.5057 -3.1019  0.3384
  198MOL0     H26707   6.716   8.532   5.130  0.0783 -0.7392  3.0263
  198MOL0     H26708   6.410   8.588   5.140  0.1118 -0.9618  1.4153
  198MOL0     H26709   6.500   8.588   4.994 -2.2530 -3.0853  1.2680
  198MOL0     H26710   6.596   8.763   5.216  1.5565 -1.3142 -1.3322
  198MOL0     H26711   6.468   8.821   5.105  0.9795  1.6563  1.2303
  198MOL0     H26712   6.556   7.987   4.643 -0.2680 -1.0647 -2.2020
  198MOL0     H26713   6.543   8.039   4.401 -0.2225 -1.0869 -1.0748
  198MOL0     H26714   6.581   8.228   4.086 -4.0387 -1.8738 -1.1808
  198MOL0     H26715   6.532   8.329   3.854  2.0055  1.3206 -2.4934
  198MOL0     H26716   6.828   9.479   2.500  2.1567  0.0213 -0.6593
  198MOL0     H26717   6.983   9.592   2.382  0.9096  2.0793  0.0896
  198MOL0     H26718   7.160   9.960   2.284 -0.1192 -0.0950 -3.2887
  198MOL0     H26719   7.277  10.099   2.137 -1.1798  2.2386  1.0077
  198MOL0     H26720   7.405  10.247   2.033 -1.0251 -0.0341  2.0318
  198MOL0     H26721   7.442  10.308   2.191 -0.0802  1.1588 -0.9241
  198MOL0     H26722   7.600  10.315   1.931 -1.8591  0.1397 -0.2048
  198MOL0     H26723   7.688  10.343   2.085  0.9786  1.2459 -0.5386
  198MOL0     H26724   7.619  10.530   2.131 -1.3280  0.1007  1.2574
  198MOL0     H26725   7.458  10.533   2.049  0.5958  0.6139  1.6731
  198MOL0     H26726   7.585  10.689   1.956 -0.3034 -0.9563  2.6542
  198MOL0     H26727   7.584  10.557   1.835 -1.8766  1.3392  0.1441
  198MOL0     H26728   8.000  10.613   1.897 -0.0182 -0.8410  2.8603
  198MOL0     H26729   7.656   9.958   2.299  0.0508 -2.0088  4.5003
  198MOL0     H26730   7.537   9.822   2.443 -2.0788 -0.8743 -0.1127
  199MOL0     O26731   7.611   2.696   7.597  0.3758 -0.0751 -0.0424
  199MOL0     C26732   7.692   2.758   7.533  1.1666 -0.1541 -0.3437
  199MOL0     O26733   7.680   2.788   7.401 -0.3425  0.0955 -0.7615
  199MOL0     C26734   7.571   2.734   7.333 -0.4416 -0.5190 -0.4316
  199MOL0     C26735   7.442   2.760   7.367  1.0097  0.5708 -0.7911
  199MOL0     C26736   7.334   2.696   7.294 -0.7423 -0.4542  0.2918
  199MOL0     C26737   7.361   2.625   7.180  0.3542 -0.2292  0.2621
  199MOL0     O26738   7.261   2.572   7.096  0.5885 -0.0704  0.2743
  199MOL0     C26739   7.286   2.462   7.008  0.3644  0.2032 -0.4317
  199MOL0     C26740   7.155   2.408   6.956 -0.2142  0.2890 -0.6603
  199MOL0     C26741   7.157   2.302   6.847  0.0189  0.6803  0.2007
  199MOL0     C26742   7.139   2.151   6.881 -0.2683 -0.8179 -0.3160
  199MOL0     C26743   7.209   2.069   6.772  1.3340  0.2396 -0.1124
  199MOL0     C26744   7.205   1.925   6.799  0.0276  0.6000 -0.5724
  199MOL0     C26745   7.056   1.874   6.799 -0.1887 -0.5195  0.1473
  199MOL0     C26746   7.040   1.762   6.697  1.5955  0.4103 -1.0627
  199MOL0     N26747   6.901   1.716   6.695 -0.6908  0.5035 -0.6885
  199MOL0     C26748   6.836   1.659   6.800 -0.1939 -0.0402  0.1903
  199MOL0     C26749   6.722   1.617   6.755  0.2592 -0.3567 -0.1632
  199MOL0     C26750   6.605   1.544   6.821 -1.1924 -0.1116  0.0458
  199MOL0     C26751   6.568   1.405   6.758 -0.5202  0.1332  0.0531
  199MOL0     C26752   6.446   1.332   6.812 -0.3334 -0.7246 -0.3746
  199MOL0     C26753   6.393   1.224   6.707  0.3822 -0.3186 -0.2792
  199MOL0     O26754   6.301   1.126   6.749  0.5636 -0.1656  0.3083
  199MOL0     C26755   6.338   1.042   6.849  0.1302  0.0047 -0.1606
  199MOL0     C26756   6.242   1.010   6.947 -0.1637 -0.4210  0.6483
  199MOL0     C26757   6.262   0.916   7.048 -0.7329 -0.2921  0.8449
  199MOL0     C26758   6.142   0.897   7.138  0.9003  0.3814  0.0717
  199MOL0     C26759   6.387   0.844   7.054  1.0510 -0.7708  0.3385
  199MOL0     C26760   6.423   0.737   7.156 -0.5431 -0.0267  0.5142
  199MOL0     O26761   6.560   0.713   7.172 -0.1479 -0.2194 -0.0832
  199MOL0     C26762   6.600   0.581   7.206 -0.4264 -0.4634  0.1196
  199MOL0     C26763   6.699   0.575   7.305 -1.0125 -0.5610  0.2600
  199MOL0     C26764   6.749   0.450   7.346  0.2137  0.3653  1.0202
  199MOL0     C26765   6.693   0.337   7.277  0.8607 -0.2001  0.7866
  199MOL0     O26766   6.741   0.223   7.311  0.2120  0.8570  0.1631
  199MOL0     C26767   6.764   0.123   7.201 -0.1666  0.1570 -0.8325
  199MOL0     C26768   6.900   0.053   7.204 -0.8581  0.7748 -0.4521
  199MOL0     C26769   6.931  -0.008   7.345  0.1272 -0.0956  0.7899
  199MOL0     C26770   7.058  -0.099   7.329 -0.1516  0.8152  0.8543
  199MOL0     C26771   7.093  -0.150   7.471 -0.1064 -0.1459  0.6291
  199MOL0     C26772   7.203  -0.256   7.462 -0.3230 -0.6693 -0.2045
  199MOL0     C26773   7.341  -0.205   7.419  0.3349  0.2078 -0.4365
  199MOL0     C26774   7.388  -0.083   7.490 -0.0469 -0.4479 -0.6530
  199MOL0    Cl26775   7.554  -0.033   7.427  0.2622  0.2066 -0.1656
  199MOL0     C26776   6.582   0.344   7.191  0.1359  0.8321 -0.1779
  199MOL0     C26777   6.536   0.462   7.158 -0.3647  0.0731  0.4134
  199MOL0     O26778   6.330   0.673   7.204  0.2697 -0.6472  0.0084
  199MOL0     C26779   6.481   0.884   6.961  0.1426  0.7303  0.9969
  199MOL0     C26780   6.461   0.979   6.871  0.1338 -2.0079  1.0428
  199MOL0     N26781   6.695   1.664   6.626 -0.9737  0.3985  0.5647
  199MOL0     N26782   6.807   1.721   6.594  0.5849  0.4326 -0.7256
  199MOL0     C26783   7.496   2.622   7.144  0.1101  1.6715  0.2395
  199MOL0     C26784   7.602   2.669   7.215 -0.0341 -0.7264 -0.1830
  199MOL0     C26785   7.815   2.792   7.618 -0.0640  0.2494  0.3639
  199MOL0     C26786   7.807   2.765   7.754  0.8223 -0.0309  0.0608
  199MOL0     C26787   7.921   2.764   7.832 -0.6950  1.0448 -0.0055
  199MOL0     C26788   8.034   2.810   7.776 -0.2707  0.5341  0.7349
  199MOL0     O26789   8.144   2.826   7.851  0.1452 -0.0011 -0.3211
  199MOL0     C26790   8.144   2.804   7.994  0.3133 -0.5519 -0.2358
  199MOL0     C26791   8.273   2.861   8.048  0.3831 -0.4822  0.2108
  199MOL0     C26792   8.292   2.872   8.202 -0.2071 -0.1773 -0.3412
  199MOL0     C26793   8.304   2.745   8.281  0.0150  0.4952  0.6807
  199MOL0     C26794   8.262   2.771   8.420 -0.0889  0.4497  0.1286
  199MOL0     C26795   8.238   2.818   8.531 -0.2175  1.1713  0.5747
  199MOL0     C26796   8.042   2.846   7.643  0.3306 -0.8603 -0.3519
  199MOL0     C26797   7.925   2.836   7.562 -0.5875  0.4831  0.6367
  199MOL0     H26798   7.418   2.812   7.459  0.9829  0.7756 -0.9112
  199MOL0     H26799   7.236   2.702   7.340 -2.0141 -0.1996 -2.3147
  199MOL0     H26800   7.337   2.488   6.915 -3.2393 -2.9022 -3.5989
  199MOL0     H26801   7.349   2.386   7.057 -2.6215 -1.6693  0.8046
  199MOL0     H26802   7.104   2.371   7.045  2.4335  0.7622  1.1554
  199MOL0     H26803   7.098   2.482   6.899 -3.2508 -0.9130  0.5981
  199MOL0     H26804   7.080   2.319   6.771 -0.3343 -1.6792 -0.0547
  199MOL0     H26805   7.254   2.320   6.799  0.1800 -0.6176  0.0060
  199MOL0     H26806   7.191   2.129   6.976 -0.6472 -0.9771 -0.1447
  199MOL0     H26807   7.032   2.131   6.894 -1.2972  2.7398 -2.0685
  199MOL0     H26808   7.164   2.090   6.674  1.9715  1.6525 -0.1207
  199MOL0     H26809   7.313   2.102   6.771  1.5474 -0.1192  2.9476
  199MOL0     H26810   7.252   1.878   6.712 -0.4588  0.2798 -0.6653
  199MOL0     H26811   7.269   1.890   6.881 -0.0225  1.4142 -0.1786
  199MOL0     H26812   7.022   1.860   6.902 -0.7690  0.7217  0.1391
  199MOL0     H26813   6.989   1.948   6.754 -1.5604 -0.5782  1.9945
  199MOL0     H26814   7.108   1.677   6.714 -1.7091 -2.3099 -0.3842
  199MOL0     H26815   7.067   1.797   6.597  1.7218 -0.5401 -1.3774
  199MOL0     H26816   6.888   1.636   6.893  5.2494 -2.8214 -3.0822
  199MOL0     H26817   6.635   1.531   6.926 -0.3842 -0.4946 -0.2228
  199MOL0     H26818   6.517   1.607   6.807 -1.2179 -0.6327 -2.4918
  199MOL0     H26819   6.654   1.338   6.770 -0.8154  0.1032  2.4335
  199MOL0     H26820   6.549   1.413   6.650  0.4278 -0.7712 -0.1964
  199MOL0     H26821   6.363   1.402   6.819 -0.2098  0.0544 -4.2372
  199MOL0     H26822   6.475   1.289   6.908  2.2290  3.9309  1.2238
  199MOL0     H26823   6.477   1.164   6.671  0.1081  0.5797 -2.5861
  199MOL0     H26824   6.343   1.281   6.628  0.0647 -2.0327 -1.3420
  199MOL0     H26825   6.144   1.056   6.941 -0.8047 -1.8649 -0.7359
  199MOL0     H26826   6.183   0.930   7.234  0.6713  0.5754  0.1044
  199MOL0     H26827   6.055   0.958   7.111  1.8315  1.4070 -0.7016
  199MOL0     H26828   6.106   0.794   7.138  0.2416  0.6002  0.9138
  199MOL0     H26829   6.751   0.658   7.351 -0.1314 -0.6287 -0.5856
  199MOL0     H26830   6.812   0.434   7.433 -2.5631 -1.6335  2.8616
  199MOL0     H26831   6.684   0.048   7.211 -1.6797  1.4699 -2.3316
  199MOL0     H26832   6.755   0.164   7.100 -1.5823 -1.8068 -1.5702
  199MOL0     H26833   6.899  -0.035   7.139 -1.6281 -0.1853  0.7947
  199MOL0     H26834   6.977   0.127   7.180  2.1297 -2.0558 -0.2485
  199MOL0     H26835   6.844  -0.065   7.378 -0.7340 -0.8127 -2.3796
  199MOL0     H26836   6.956   0.076   7.411 -0.7076  0.4475  0.4322
  199MOL0     H26837   7.040  -0.184   7.262 -1.8899  2.5562 -1.0264
  199MOL0     H26838   7.141  -0.050   7.280  2.9625 -1.6995  3.1652
  199MOL0     H26839   7.002  -0.193   7.514  0.2966 -1.6950  0.0087
  199MOL0     H26840   7.131  -0.074   7.540  2.5163 -0.4624 -0.3368
  199MOL0     H26841   7.224  -0.295   7.562  3.0088  0.2649 -0.4013
  199MOL0     H26842   7.175  -0.339   7.397 -1.6762  0.1230 -0.6541
  199MOL0     H26843   7.334  -0.194   7.311 -3.0296 -2.8090 -0.7370
  199MOL0     H26844   7.419  -0.281   7.434  1.0892  1.1843  0.8229
  199MOL0     H26845   7.403  -0.103   7.596 -4.2358  1.7304  0.5312
  199MOL0     H26846   7.323   0.005   7.483  1.8262  0.8706 -4.5007
  199MOL0     H26847   6.538   0.255   7.147  0.8881  0.9027 -1.1118
  199MOL0     H26848   6.452   0.463   7.089  0.5738 -0.5946 -0.7777
  199MOL0     H26849   6.579   0.838   6.949 -0.8178 -1.3268  0.5764
  199MOL0     H26850   6.544   1.002   6.805  2.2311  2.4959  4.6320
  199MOL0     H26851   7.527   2.582   7.049 -0.7733 -0.4355  0.7856
  199MOL0     H26852   7.702   2.655   7.176  0.5370 -1.0100  1.3108
  199MOL0     H26853   7.712   2.755   7.805 -0.1901 -0.6593 -1.8458
  199MOL0     H26854   7.913   2.723   7.932 -0.9534 -1.5728 -1.0312
  199MOL0     H26855   8.061   2.853   8.046 -0.1824 -0.5670 -0.9966
  199MOL0     H26856   8.150   2.696   8.012 -4.1034 -0.7367  1.4648
  199MOL0     H26857   8.278   2.961   8.006  3.1882  0.1199  1.7458
  199MOL0     H26858   8.359   2.804   8.010 -0.0411 -0.3071 -1.0338
  199MOL0     H26859   8.203   2.925   8.236  2.0949  2.4359  2.1504
  199MOL0     H26860   8.367   2.946   8.229  1.2963 -0.0733 -4.2234
  199MOL0     H26861   8.410   2.719   8.276 -0.5632 -2.0217 -1.9892
  199MOL0     H26862   8.258   2.660   8.228  1.3463  1.0494 -1.5259
  199MOL0     H26863   8.224   2.854   8.631  0.3423  1.7625  0.4429
  199MOL0     H26864   8.127   2.886   7.588 -1.7590  2.0285 -1.8058
  199MOL0     H26865   7.918   2.873   7.460 -1.6392  3.6859  1.7749
  200MOL0     O26866   5.763  11.261  10.408  0.0875  0.3190 -0.4035
  200MOL0     C26867   5.704  11.284  10.305 -0.0869 -0.7156 -0.1039
  200MOL0     O26868   5.736  11.256  10.179 -1.1271 -0.6692  0.9510
  200MOL0     C26869   5.853  11.197  10.125 -1.1650  0.5054  0.4294
  200MOL0     C26870   5.863  11.186   9.982 -0.4495  0.6370 -0.4533
  200MOL0     C26871   5.978  11.130   9.927 -1.2400 -0.5122 -0.0224
  200MOL0     C26872   6.076  11.072  10.005 -0.2177 -0.8024 -0.7872
  200MOL0     O26873   6.181  11.014   9.943  0.1065 -0.1982 -0.3428
  200MOL0     C26874   6.156  10.928   9.828  0.1394 -1.2175  0.3145
  200MOL0     C26875   6.267  10.824   9.841  1.3319  0.2609  0.0721
  200MOL0     C26876   6.253  10.725   9.727  0.0237  0.9949  0.6357
  200MOL0     C26877   6.254  10.772   9.576 -0.2398 -1.0276 -0.0455
  200MOL0     C26878   6.372  10.855   9.533  0.7856 -0.7279 -0.0510
  200MOL0     C26879   6.370  10.933   9.397 -0.3319  0.0310 -0.4577
  200MOL0     C26880   6.343  10.843   9.276  0.4132 -0.6943 -0.3358
  200MOL0     C26881   6.322  10.918   9.146  0.0331 -0.5152 -0.2165
  200MOL0     N26882   6.435  10.992   9.108 -0.2293 -0.5721  0.6367
  200MOL0     C26883   6.567  10.948   9.099  0.2763 -1.1033  0.2320
  200MOL0     C26884   6.628  11.069   9.074  0.3908  0.5036 -0.1468
  200MOL0     C26885   6.770  11.098   9.026 -0.5657 -0.6180  0.5153
  200MOL0     C26886   6.840  11.200   9.127 -0.4396 -0.1200 -0.2014
  200MOL0     C26887   6.996  11.207   9.099 -0.4559 -1.0645  0.3200
  200MOL0     C26888   7.064  11.342   9.128 -0.0764 -0.9490 -0.3256
  200MOL0     O26889   7.018  11.450   9.046 -0.2782  0.3722 -0.8211
  200MOL0     C26890   7.099  11.561   9.042  0.6083 -0.1722  0.5015
  200MOL0     C26891   7.169  11.623   9.152 -0.2449 -0.3376 -0.6867
  200MOL0     C26892   7.241  11.754   9.138  0.0019  0.4276 -0.0664
  200MOL0     C26893   7.289  11.798   9.277 -0.5926 -0.2042 -0.7478
  200MOL0     C26894   7.254  11.804   9.006  0.2350  0.1616  0.5613
  200MOL0     C26895   7.336  11.921   8.963  0.5991 -1.0358  0.0060
  200MOL0     O26896   7.389  11.908   8.842 -0.1363 -0.7350  0.5888
  200MOL0     C26897   7.481  12.001   8.809  0.4215  0.4801 -0.0610
  200MOL0     C26898   7.464  12.081   8.701 -0.4534  0.1452  0.1012
  200MOL0     C26899   7.568  12.171   8.668  0.0394 -0.6007  1.0809
  200MOL0     C26900   7.678  12.191   8.739  0.3002 -0.9261 -0.2498
  200MOL0     O26901   7.757  12.302   8.746  0.1545 -0.6014  0.2888
  200MOL0     C26902   7.797  12.360   8.620  0.4678 -0.2323 -0.3768
  200MOL0     C26903   7.895  12.279   8.535 -0.4622 -0.7440  0.2895
  200MOL0     C26904   8.041  12.254   8.595  0.4793 -0.6331  0.0282
  200MOL0     C26905   8.041  12.148   8.704 -0.1481  0.6643 -0.3905
  200MOL0     C26906   8.174  12.141   8.770  0.2598  0.0346  0.3745
  200MOL0     C26907   8.180  12.023   8.880  0.1082  0.3868  0.4066
  200MOL0     C26908   8.301  12.038   8.975 -0.4685  0.3839  0.3527
  200MOL0     C26909   8.283  12.156   9.079  0.1942  0.5447 -0.2475
  200MOL0    Cl26910   8.151  12.121   9.200 -0.1842 -0.1231  0.3758
  200MOL0     C26911   7.707  12.094   8.837  0.2469  0.1626  0.0537
  200MOL0     C26912   7.603  12.006   8.879  1.0215  0.0745  0.2067
  200MOL0     O26913   7.362  12.015   9.044  0.2264 -0.3231  0.6919
  200MOL0     C26914   7.188  11.737   8.905  1.4266  0.6228  0.2286
  200MOL0     C26915   7.100  11.628   8.923  0.5554 -0.3890  1.0607
  200MOL0     N26916   6.542  11.171   9.086 -0.1323  0.2064 -0.1816
  200MOL0     N26917   6.427  11.129   9.114  0.6473  0.2469  0.5881
  200MOL0     C26918   6.066  11.079  10.145 -1.4046  0.0969 -0.2417
  200MOL0     C26919   5.959  11.148  10.203  0.5407  0.4189 -0.8380
  200MOL0     C26920   5.578  11.359  10.331 -0.4762 -1.0122 -1.3626
  200MOL0     C26921   5.524  11.431  10.231 -0.5221 -0.6679  0.5673
  200MOL0     C26922   5.408  11.506  10.257  0.6275 -0.0982 -0.2996
  200MOL0     C26923   5.353  11.520  10.387  0.1736  0.1258  0.1027
  200MOL0     O26924   5.240  11.593  10.395 -0.4869 -0.1187  0.1848
  200MOL0     C26925   5.164  11.614  10.511  0.3300  0.4334 -0.2389
  200MOL0     C26926   5.041  11.530  10.501 -0.1292  0.2534 -0.4813
  200MOL0     C26927   5.067  11.394  10.509 -0.2708  0.0912  0.0873
  200MOL0     C26928   4.954  11.296  10.526  0.5697 -0.3888 -0.9089
  200MOL0     C26929   4.869  11.320  10.646  0.2847  0.2161 -0.4440
  200MOL0     C26930   4.816  11.301  10.753 -0.6040  0.7042 -0.7031
  200MOL0     C26931   5.420  11.451  10.485  0.9444  0.2417 -0.9089
  200MOL0     C26932   5.524  11.363  10.461 -0.2765  0.5897  0.6976
  200MOL0     H26933   5.793  11.240   9.919  1.4254  2.3677 -1.1699
  200MOL0     H26934   5.992  11.123   9.820 -0.0038 -1.4013  0.1760
  200MOL0     H26935   6.058  10.882   9.838 -0.5165 -0.0264 -0.3871
  200MOL0     H26936   6.165  10.980   9.732 -2.0493 -0.9426  0.2233
  200MOL0     H26937   6.369  10.864   9.846  1.4304 -0.1298  2.8570
  200MOL0     H26938   6.250  10.763   9.931 -0.4158  1.6948  0.7803
  200MOL0     H26939   6.321  10.640   9.733  0.3126  1.0465 -1.2333
  200MOL0     H26940   6.157  10.676   9.747  0.5582 -1.7450 -2.6188
  200MOL0     H26941   6.243  10.681   9.516 -0.8299 -1.1969  0.3061
  200MOL0     H26942   6.159  10.825   9.561  1.2333  1.5950 -0.6749
  200MOL0     H26943   6.389  10.931   9.609  0.7901 -1.0476  0.2701
  200MOL0     H26944   6.464  10.796   9.541  0.6120 -0.7974  1.8772
  200MOL0     H26945   6.301  11.018   9.395 -0.3718  0.0043 -2.3785
  200MOL0     H26946   6.465  10.987   9.385 -1.1005  1.4291 -0.4985
  200MOL0     H26947   6.431  10.780   9.267  0.2111 -0.9075 -0.8824
  200MOL0     H26948   6.267  10.770   9.305 -1.4025  0.5206 -1.7977
  200MOL0     H26949   6.241  10.990   9.163 -0.7036 -1.3692 -0.0207
  200MOL0     H26950   6.290  10.851   9.066 -0.1469 -1.3369  0.5246
  200MOL0     H26951   6.606  10.847   9.101  0.9225 -0.8466  1.7955
  200MOL0     H26952   6.828  11.006   9.017 -1.3710 -1.5760  3.6988
  200MOL0     H26953   6.780  11.154   8.933 -1.0805  0.7053  1.2250
  200MOL0     H26954   6.818  11.147   9.221 -2.4480 -1.9226 -1.5789
  200MOL0     H26955   6.804  11.303   9.131  1.0625  0.6754 -3.4760
  200MOL0     H26956   7.018  11.192   8.993  0.2122  0.4910  0.2094
  200MOL0     H26957   7.039  11.121   9.151  4.1941  0.6806 -0.1865
  200MOL0     H26958   7.172  11.330   9.112 -0.1256 -4.2380  1.1901
  200MOL0     H26959   7.046  11.365   9.234 -1.1482 -0.5343 -0.5841
  200MOL0     H26960   7.168  11.579   9.251  3.7653  0.1009 -0.2689
  200MOL0     H26961   7.396  11.781   9.290 -1.0451 -3.5891 -0.5409
  200MOL0     H26962   7.252  11.898   9.302  0.2039 -0.0568 -0.1224
  200MOL0     H26963   7.263  11.729   9.358  2.5968  1.5798  2.0549
  200MOL0     H26964   7.376  12.078   8.638  2.0980 -2.0903 -3.7368
  200MOL0     H26965   7.549  12.245   8.591  3.2603 -2.1146 -1.3989
  200MOL0     H26966   7.701  12.381   8.573  0.8565  1.3019 -0.5355
  200MOL0     H26967   7.836  12.459   8.646 -0.8767  0.2849 -0.2565
  200MOL0     H26968   7.849  12.180   8.528 -0.6487 -0.5585 -1.9989
  200MOL0     H26969   7.895  12.313   8.431 -2.0306  0.2976  0.5942
  200MOL0     H26970   8.085  12.346   8.636  1.3280 -1.0523  0.0757
  200MOL0     H26971   8.105  12.209   8.519  0.5777 -4.0300  1.9497
  200MOL0     H26972   7.969  12.181   8.780 -1.2236  2.3141 -2.0382
  200MOL0     H26973   8.012  12.046   8.677 -2.3773  1.0414  0.3947
  200MOL0     H26974   8.187  12.242   8.811  1.7499  0.3988 -0.9060
  200MOL0     H26975   8.247  12.109   8.696  1.1483 -1.0720  1.6777
  200MOL0     H26976   8.087  12.025   8.937 -0.7366  1.7287 -0.9387
  200MOL0     H26977   8.189  11.930   8.825  1.0141  1.0351 -0.5863
  200MOL0     H26978   8.393  12.050   8.916 -1.1584  0.1761 -0.7993
  200MOL0     H26979   8.313  11.945   9.031 -0.8622 -0.0018 -0.1875
  200MOL0     H26980   8.248  12.244   9.024 -2.1334  1.2417  2.1344
  200MOL0     H26981   8.379  12.172   9.129 -0.2042 -2.6521  1.8346
  200MOL0     H26982   7.788  12.090   8.910 -2.7840 -3.9522  3.7420
  200MOL0     H26983   7.613  11.932   8.958  1.3965 -3.7596 -3.1007
  200MOL0     H26984   7.179  11.773   8.804 -0.9933  1.2753  0.6158
  200MOL0     H26985   7.057  11.578   8.837  0.4312  0.1996  0.7743
  200MOL0     H26986   6.158  11.043  10.189 -2.0725  1.0380  2.1040
  200MOL0     H26987   5.980  11.152  10.309  1.8822  0.8394 -1.1035
  200MOL0     H26988   5.573  11.437  10.135  3.1240 -1.0298  2.2240
  200MOL0     H26989   5.355  11.559  10.179  2.0550  1.4176 -0.2851
  200MOL0     H26990   5.214  11.588  10.604 -0.8413  1.8686  0.8407
  200MOL0     H26991   5.123  11.714  10.530  1.6802  0.9173  0.2290
  200MOL0     H26992   4.981  11.554  10.413  1.5934  0.4279 -1.6526
  200MOL0     H26993   4.979  11.530  10.591  1.9177 -0.9582  1.0139
  200MOL0     H26994   5.124  11.375  10.601  3.3448 -1.6161 -2.2788
  200MOL0     H26995   5.134  11.374  10.425  0.0103 -1.0688  0.5702
  200MOL0     H26996   5.003  11.199  10.538  0.5176 -0.3917 -0.7285
  200MOL0     H26997   4.888  11.296  10.439 -1.6092 -0.4373  0.6727
  200MOL0     H26998   4.783  11.296  10.855 -0.3172 -0.2996 -0.6473
  200MOL0     H26999   5.389  11.453  10.589 -1.2289  0.8045 -1.5243
  200MOL0     H27000   5.568  11.312  10.546 -0.6391 -2.6886 -0.9046
  201MOL0     O27001   3.939   4.053   0.455 -0.8616 -0.5340 -0.1647
  201MOL0     C27002   3.994   3.961   0.389 -0.8743 -0.5048  0.3027
  201MOL0     O27003   3.954   3.832   0.397 -0.4648  0.0009 -0.2072
  201MOL0     C27004   3.853   3.808   0.478  0.4921  0.0530  0.3145
  201MOL0     C27005   3.720   3.813   0.432 -0.3558  0.2529  0.4131
  201MOL0     C27006   3.609   3.785   0.506  0.2211 -0.2126  0.2973
  201MOL0     C27007   3.623   3.743   0.637  0.2768  0.2164 -0.9000
  201MOL0     O27008   3.515   3.723   0.724  0.1587  0.5984 -0.2696
  201MOL0     C27009   3.380   3.727   0.696 -0.6690  0.3514  0.9301
  201MOL0     C27010   3.359   3.878   0.687  0.4638 -0.8637  0.5822
  201MOL0     C27011   3.214   3.904   0.625 -0.0195  0.2590 -0.1805
  201MOL0     C27012   3.181   4.048   0.635  0.7015  0.3592  0.1318
  201MOL0     C27013   3.036   4.087   0.585  0.1955 -0.1829 -0.5616
  201MOL0     C27014   3.021   4.244   0.583  0.3688 -0.0136  0.3856
  201MOL0     C27015   2.873   4.274   0.586 -0.0522 -0.1553  0.2533
  201MOL0     C27016   2.815   4.407   0.536 -0.1333  1.1840 -0.6007
  201MOL0     N27017   2.753   4.405   0.398 -1.0199 -0.7805 -0.0537
  201MOL0     C27018   2.631   4.388   0.363  0.6115 -0.0672  0.1977
  201MOL0     C27019   2.628   4.395   0.224 -0.3390 -0.6922 -0.3858
  201MOL0     C27020   2.516   4.371   0.126 -0.0357 -0.1915 -0.1834
  201MOL0     C27021   2.403   4.480   0.137  0.0062 -0.3642 -0.1899
  201MOL0     C27022   2.263   4.444   0.093 -0.5375 -0.6670  0.0079
  201MOL0     C27023   2.262   4.399  -0.056  0.4220 -0.2374  0.1072
  201MOL0     O27024   2.132   4.416  -0.106  0.7738  0.5016 -0.1108
  201MOL0     C27025   2.102   4.338  -0.219  1.1967 -0.6469  0.2898
  201MOL0     C27026   2.181   4.288  -0.320 -0.3858 -1.2207  0.6385
  201MOL0     C27027   2.133   4.227  -0.433 -0.6014  0.9381  1.2646
  201MOL0     C27028   2.231   4.189  -0.544  0.1416 -0.0482  0.0733
  201MOL0     C27029   1.996   4.196  -0.439 -0.7824  0.6275  0.4962
  201MOL0     C27030   1.930   4.147  -0.556 -0.3680  0.5161 -0.3049
  201MOL0     O27031   1.818   4.062  -0.544 -0.0336 -0.5921 -0.2838
  201MOL0     C27032   1.758   4.027  -0.655 -0.6412  0.4828 -0.4347
  201MOL0     C27033   1.794   3.900  -0.699  0.1140 -0.8392 -0.2657
  201MOL0     C27034   1.736   3.847  -0.813  0.0956 -0.4478 -0.5599
  201MOL0     C27035   1.634   3.922  -0.871  0.1271 -0.7198  1.1667
  201MOL0     O27036   1.584   3.859  -0.982 -0.4726  0.0301 -0.0265
  201MOL0     C27037   1.442   3.880  -1.000  0.4804 -0.7289  0.1606
  201MOL0     C27038   1.365   3.839  -0.873  0.1728 -0.1625  0.5871
  201MOL0     C27039   1.244   3.752  -0.898  0.3194 -0.6528 -0.5414
  201MOL0     C27040   1.220   3.665  -0.777  0.2510 -0.6491  0.0456
  201MOL0     C27041   1.088   3.592  -0.757  0.5068  0.8177 -0.5378
  201MOL0     C27042   1.037   3.520  -0.880  0.1402  0.4417  0.1913
  201MOL0     C27043   0.897   3.460  -0.866  0.2796  0.0299 -1.1754
  201MOL0     C27044   0.902   3.320  -0.794  0.1961 -0.5594  0.6909
  201MOL0    Cl27045   0.733   3.283  -0.802  0.0885  0.0255  0.2214
  201MOL0     C27046   1.595   4.045  -0.820 -0.5877 -0.1570 -0.5502
  201MOL0     C27047   1.654   4.099  -0.715 -0.7457  0.1982 -0.2118
  201MOL0     O27048   1.981   4.176  -0.660 -0.3404  0.1296 -0.0626
  201MOL0     C27049   1.916   4.243  -0.334 -0.4213  0.4462  0.0500
  201MOL0     C27050   1.965   4.305  -0.224 -0.1059 -0.8139 -0.9799
  201MOL0     N27051   2.760   4.403   0.179 -0.1225  0.1987 -0.3862
  201MOL0     N27052   2.832   4.423   0.284 -0.3362 -0.0041  0.2881
  201MOL0     C27053   3.747   3.739   0.688  0.1109 -1.1962  1.1710
  201MOL0     C27054   3.863   3.777   0.614 -0.3934 -0.5003  0.3421
  201MOL0     C27055   4.112   3.993   0.298  0.4996  0.2712 -0.0218
  201MOL0     C27056   4.209   3.891   0.268 -1.4377 -0.3848  0.7246
  201MOL0     C27057   4.328   3.930   0.197 -0.4098 -0.4719 -0.6727
  201MOL0     C27058   4.347   4.062   0.165  0.8807 -0.1118  0.0377
  201MOL0     O27059   4.459   4.095   0.096 -0.3297  0.1997  1.1589
  201MOL0     C27060   4.434   4.192  -0.019  0.4123  0.4929  0.7544
  201MOL0     C27061   4.324   4.162  -0.127  0.4071 -0.1145  0.2293
  201MOL0     C27062   4.347   4.034  -0.200  0.2281  0.0015 -0.1955
  201MOL0     C27063   4.257   4.038  -0.316  0.9127  0.4209  0.5577
  201MOL0     C27064   4.243   3.908  -0.372 -0.2728 -0.6822  0.3050
  201MOL0     C27065   4.230   3.806  -0.433  0.4726  0.3212  0.3646
  201MOL0     C27066   4.254   4.160   0.201 -0.3778  0.4508 -0.2548
  201MOL0     C27067   4.137   4.116   0.256  0.3271 -0.9085 -0.5145
  201MOL0     H27068   3.691   3.853   0.336 -2.7307  1.1844  1.4542
  201MOL0     H27069   3.509   3.799   0.468  1.0091 -1.7918 -2.5788
  201MOL0     H27070   3.362   3.673   0.603  0.7762 -0.2942  1.0032
  201MOL0     H27071   3.312   3.681   0.768  1.4624 -3.0561  1.0055
  201MOL0     H27072   3.366   3.927   0.785 -1.3912  1.1404 -0.1924
  201MOL0     H27073   3.425   3.936   0.622 -0.7339 -1.1987 -0.9948
  201MOL0     H27074   3.201   3.876   0.520 -3.6698  0.2304  0.1419
  201MOL0     H27075   3.145   3.835   0.674 -0.8256 -0.2974 -2.0127
  201MOL0     H27076   3.186   4.073   0.741  0.9053 -3.2486  1.1136
  201MOL0     H27077   3.246   4.110   0.571 -0.1606  1.3429  0.1786
  201MOL0     H27078   3.018   4.046   0.485 -0.0977 -1.8490  0.1408
  201MOL0     H27079   2.966   4.034   0.650  2.9024 -0.8568  2.0059
  201MOL0     H27080   3.073   4.294   0.665  1.4636  1.0140 -0.8908
  201MOL0     H27081   3.056   4.294   0.493 -0.6767  3.2746  1.6440
  201MOL0     H27082   2.816   4.202   0.528 -1.3795  0.7408  0.3948
  201MOL0     H27083   2.838   4.257   0.688  1.7202 -0.6685  0.8125
  201MOL0     H27084   2.894   4.483   0.537  0.1678  0.9401 -2.3756
  201MOL0     H27085   2.739   4.442   0.605 -1.3933 -3.9459  1.0429
  201MOL0     H27086   2.543   4.375   0.426  0.1221 -2.1915 -0.8314
  201MOL0     H27087   2.555   4.382   0.024  2.0747 -4.1090 -0.0088
  201MOL0     H27088   2.479   4.268   0.131  0.6438 -0.6630 -3.0667
  201MOL0     H27089   2.437   4.564   0.077  1.7345 -2.0058 -1.6356
  201MOL0     H27090   2.399   4.509   0.243  0.3303  1.3843 -0.6310
  201MOL0     H27091   2.202   4.530   0.119 -1.2941 -1.2669  0.2648
  201MOL0     H27092   2.228   4.360   0.155  2.6012 -0.3371  2.4959
  201MOL0     H27093   2.297   4.295  -0.060 -3.0679 -1.6019  1.1586
  201MOL0     H27094   2.326   4.467  -0.114 -1.2619 -1.4375 -3.4661
  201MOL0     H27095   2.287   4.309  -0.316 -0.2542 -1.8391  0.5054
  201MOL0     H27096   2.335   4.173  -0.515  1.4072  1.7534 -2.9538
  201MOL0     H27097   2.202   4.091  -0.583 -0.6468 -0.4009  1.4689
  201MOL0     H27098   2.220   4.274  -0.613 -0.0592 -1.5209 -1.7759
  201MOL0     H27099   1.883   3.855  -0.655 -0.0481 -0.4207  0.4930
  201MOL0     H27100   1.780   3.753  -0.844 -1.4859 -0.9380 -1.4710
  201MOL0     H27101   1.432   3.985  -1.031  2.8828 -0.1753  1.0525
  201MOL0     H27102   1.417   3.813  -1.083  1.0088 -2.3629  1.2793
  201MOL0     H27103   1.434   3.781  -0.810 -1.1190 -1.2754  1.0268
  201MOL0     H27104   1.336   3.931  -0.822  1.4519 -0.4647  1.9378
  201MOL0     H27105   1.269   3.686  -0.981  2.9435 -2.6730  1.6709
  201MOL0     H27106   1.156   3.810  -0.926  1.1286  1.5283  1.1475
  201MOL0     H27107   1.300   3.592  -0.758 -1.8296 -2.2573  3.6935
  201MOL0     H27108   1.241   3.728  -0.690  0.6087 -4.1344  2.7033
  201MOL0     H27109   1.015   3.663  -0.717 -2.2147 -2.4413  0.8434
  201MOL0     H27110   1.094   3.511  -0.684 -0.2056  0.3276 -0.9999
  201MOL0     H27111   1.045   3.581  -0.970  0.8074 -1.5819 -1.1647
  201MOL0     H27112   1.104   3.436  -0.898 -1.3087 -0.5861 -0.5898
  201MOL0     H27113   0.853   3.444  -0.965  2.5351 -0.1443 -2.2126
  201MOL0     H27114   0.841   3.532  -0.807 -1.9194  0.0357 -3.1304
  201MOL0     H27115   0.937   3.328  -0.691 -1.2596  0.4048  1.1413
  201MOL0     H27116   0.967   3.250  -0.848  2.4228  0.3696  2.0125
  201MOL0     H27117   1.528   4.110  -0.874  0.0522  2.6959  1.8132
  201MOL0     H27118   1.643   4.201  -0.679 -3.1496 -0.5717  1.4919
  201MOL0     H27119   1.811   4.221  -0.316  0.5620 -2.2476  3.7756
  201MOL0     H27120   1.909   4.347  -0.141  1.7696  0.6933 -0.4020
  201MOL0     H27121   3.746   3.722   0.795 -1.1832 -2.2711  1.0093
  201MOL0     H27122   3.952   3.785   0.675 -1.2466  1.9082  1.3999
  201MOL0     H27123   4.208   3.784   0.288 -3.2121 -0.4680  0.4194
  201MOL0     H27124   4.392   3.847   0.169 -0.8046 -0.6042 -1.2015
  201MOL0     H27125   4.420   4.293   0.022  2.8044  1.0467  0.3758
  201MOL0     H27126   4.530   4.182  -0.071  0.5870 -4.8869  1.5780
  201MOL0     H27127   4.333   4.253  -0.188  3.5151 -0.4618  0.0251
  201MOL0     H27128   4.228   4.161  -0.075  0.4688 -2.5017  0.3929
  201MOL0     H27129   4.330   3.949  -0.134 -0.0984 -0.0173 -0.3068
  201MOL0     H27130   4.452   4.026  -0.230 -0.4712 -1.5416 -2.5225
  201MOL0     H27131   4.298   4.110  -0.388 -0.6134  1.7090  0.9465
  201MOL0     H27132   4.153   4.066  -0.298  2.2173  4.8015  2.4140
  201MOL0     H27133   4.208   3.726  -0.501  1.9639 -0.6306  0.9503
  201MOL0     H27134   4.277   4.264   0.180  2.6528 -0.0290  0.2848
  201MOL0     H27135   4.074   4.204   0.269 -0.5954 -1.5063 -0.7872
  202MOL0     O27136   5.076   1.745   1.804 -0.1604 -0.2437 -0.0037
  202MOL0     C27137   5.161   1.695   1.878  0.2660 -0.5739 -0.3172
  202MOL0     O27138   5.155   1.580   1.944 -0.0774  0.4347  0.8832
  202MOL0     C27139   5.058   1.493   1.902 -0.3912  0.1362 -0.0465
  202MOL0     C27140   4.963   1.442   1.991 -1.4226 -0.4160 -0.6827
  202MOL0     C27141   4.861   1.357   1.953  0.2824 -0.1823  0.3532
  202MOL0     C27142   4.852   1.314   1.818  0.0471  0.1512  0.2343
  202MOL0     O27143   4.762   1.235   1.768 -0.0541 -0.5255  0.2764
  202MOL0     C27144   4.628   1.281   1.794  0.2492  0.9322  0.0849
  202MOL0     C27145   4.531   1.162   1.751 -0.4305 -1.0389  0.3850
  202MOL0     C27146   4.558   1.031   1.819 -0.0404  0.6034 -0.8351
  202MOL0     C27147   4.450   0.922   1.772  0.0474  0.4531  0.1764
  202MOL0     C27148   4.450   0.795   1.855  0.5483 -0.2459  0.7080
  202MOL0     C27149   4.349   0.687   1.804 -0.3632  0.6835 -0.5341
  202MOL0     C27150   4.205   0.701   1.869 -1.7674 -0.7196  0.4623
  202MOL0     C27151   4.101   0.609   1.812  0.8472  0.0836 -1.0240
  202MOL0     N27152   4.088   0.484   1.889 -0.4237 -0.1485 -0.6872
  202MOL0     C27153   4.195   0.397   1.927  0.5134 -1.3893  0.6588
  202MOL0     C27154   4.129   0.283   1.969 -0.2535 -1.9843  0.7247
  202MOL0     C27155   4.182   0.154   2.011  1.1113 -1.4101  0.2959
  202MOL0     C27156   4.295   0.179   2.110  0.4844 -0.8239 -0.7721
  202MOL0     C27157   4.402   0.066   2.123  0.1356  0.7969 -0.3383
  202MOL0     C27158   4.475   0.018   2.000  0.0133 -0.1601  0.5011
  202MOL0     O27159   4.546   0.131   1.953 -0.6606 -0.0198 -0.1325
  202MOL0     C27160   4.664   0.109   1.876 -0.3718 -0.3206  0.0875
  202MOL0     C27161   4.709  -0.017   1.835 -0.0563  0.0276 -0.5470
  202MOL0     C27162   4.838  -0.027   1.764 -0.3966  0.1927 -0.1235
  202MOL0     C27163   4.881  -0.170   1.710 -0.0889 -0.9516 -0.0271
  202MOL0     C27164   4.914   0.094   1.729  1.2545  0.0729  0.5466
  202MOL0     C27165   5.043   0.095   1.664 -0.9641 -0.0082  1.0211
  202MOL0     O27166   5.068  -0.001   1.567 -0.6550  0.5923 -0.0485
  202MOL0     C27167   5.199   0.000   1.531  0.6075  0.2223 -0.0061
  202MOL0     C27168   5.291  -0.078   1.597  0.6607 -0.2097 -0.3235
  202MOL0     C27169   5.426  -0.055   1.575 -0.8404  0.8403  0.4727
  202MOL0     C27170   5.477   0.039   1.478 -0.2495 -0.1295 -0.4987
  202MOL0     O27171   5.610   0.062   1.460 -0.4119  0.0504  0.2224
  202MOL0     C27172   5.677   0.121   1.572  0.0106  0.2040  0.1033
  202MOL0     C27173   5.828   0.116   1.549 -0.1242 -0.1394  0.2833
  202MOL0     C27174   5.903  -0.007   1.601 -0.1743 -0.2308 -0.1550
  202MOL0     C27175   5.907  -0.022   1.759 -0.4329 -0.7145 -0.1682
  202MOL0     C27176   5.957  -0.168   1.785 -0.7748  0.0461  0.4242
  202MOL0     C27177   6.109  -0.186   1.753 -0.2728 -1.2287 -0.1960
  202MOL0     C27178   6.178  -0.277   1.865 -0.5326 -1.8564  0.6254
  202MOL0     C27179   6.177  -0.252   2.013 -0.1751 -0.5065  0.5582
  202MOL0    Cl27180   6.213  -0.091   2.064  0.3549 -0.0996  0.2488
  202MOL0     C27181   5.377   0.098   1.400 -0.4362  0.6117  1.2027
  202MOL0     C27182   5.241   0.084   1.425  0.6899  0.6062 -0.6704
  202MOL0     O27183   5.132   0.177   1.701  0.1014 -0.6171 -0.1806
  202MOL0     C27184   4.853   0.212   1.765  0.1201  0.3187  0.0504
  202MOL0     C27185   4.740   0.219   1.846 -0.2181 -0.0161 -0.1403
  202MOL0     N27186   3.996   0.304   1.950  0.2876 -0.2923  0.2292
  202MOL0     N27187   3.976   0.412   1.880 -0.0464  0.3070  0.9430
  202MOL0     C27188   4.958   1.352   1.731  0.8127 -0.2700  0.3479
  202MOL0     C27189   5.057   1.446   1.773 -0.0557  1.1962  0.2805
  202MOL0     C27190   5.266   1.788   1.921  0.1258 -0.3410  0.0884
  202MOL0     C27191   5.327   1.777   2.043  0.7924  0.5784  0.1508
  202MOL0     C27192   5.439   1.856   2.089  1.2909  0.3467 -0.1988
  202MOL0     C27193   5.494   1.948   1.995  0.9410 -0.3680  0.2422
  202MOL0     O27194   5.605   2.022   2.039 -0.7906 -0.0806 -0.2737
  202MOL0     C27195   5.677   2.105   1.940 -0.0808 -0.2705  1.2812
  202MOL0     C27196   5.783   2.198   1.997  0.1065  0.2215 -0.9402
  202MOL0     C27197   5.744   2.274   2.119 -0.3654  0.1050  0.6311
  202MOL0     C27198   5.612   2.354   2.105  0.1054  0.3778 -0.1565
  202MOL0     C27199   5.610   2.491   2.160  0.8796  0.6497 -0.7716
  202MOL0     C27200   5.596   2.590   2.230  0.7056  1.1474  0.3409
  202MOL0     C27201   5.433   1.963   1.867  0.0318  0.6213  0.7180
  202MOL0     C27202   5.321   1.890   1.836  0.0554  0.8973 -0.0560
  202MOL0     H27203   4.968   1.446   2.099 -0.4285  1.1718 -0.7561
  202MOL0     H27204   4.786   1.324   2.024 -0.5663  2.3526  0.7347
  202MOL0     H27205   4.608   1.305   1.898  1.9163  1.8534  0.2203
  202MOL0     H27206   4.595   1.373   1.745  0.7002  0.3859 -1.2975
  202MOL0     H27207   4.428   1.194   1.769 -0.1072  1.5010 -1.6410
  202MOL0     H27208   4.545   1.145   1.644 -0.0105  2.2264 -0.1858
  202MOL0     H27209   4.655   0.986   1.796  0.5058 -1.2511  4.0164
  202MOL0     H27210   4.548   1.046   1.927 -0.3896 -0.5198 -0.6972
  202MOL0     H27211   4.348   0.961   1.773  0.0090  0.5154 -2.2692
  202MOL0     H27212   4.469   0.899   1.667 -0.0460 -0.7984  0.4191
  202MOL0     H27213   4.547   0.743   1.848 -1.8805 -5.2169 -1.2006
  202MOL0     H27214   4.428   0.819   1.959 -4.0482  0.9693 -0.3148
  202MOL0     H27215   4.344   0.688   1.694  1.1931 -0.9576 -0.6661
  202MOL0     H27216   4.392   0.589   1.827 -0.3530  0.9270  0.5268
  202MOL0     H27217   4.227   0.688   1.976 -1.8999 -0.4287  0.5269
  202MOL0     H27218   4.167   0.803   1.864 -1.2974 -0.1140  5.0565
  202MOL0     H27219   4.124   0.577   1.710 -1.3697 -0.3645 -1.4414
  202MOL0     H27220   4.003   0.658   1.813  1.0715  0.5355  0.2187
  202MOL0     H27221   4.301   0.417   1.919  0.2898  0.4696  1.7380
  202MOL0     H27222   4.106   0.088   2.053 -0.5486 -1.2514 -2.2040
  202MOL0     H27223   4.199   0.111   1.912 -2.7462 -4.0438  0.5513
  202MOL0     H27224   4.245   0.208   2.202  0.1886 -1.7312 -0.6404
  202MOL0     H27225   4.347   0.271   2.083 -1.1568  0.4682  0.2942
  202MOL0     H27226   4.354  -0.026   2.157 -1.9959  1.3844 -1.5551
  202MOL0     H27227   4.473   0.098   2.200  1.0128  1.0942 -1.2338
  202MOL0     H27228   4.409  -0.028   1.926 -1.1551  2.3415 -0.1090
  202MOL0     H27229   4.543  -0.062   2.029 -1.5286 -2.1351 -1.0401
  202MOL0     H27230   4.669  -0.108   1.880  2.8166 -0.5042  1.1555
  202MOL0     H27231   4.846  -0.195   1.610  0.5850  0.4930 -0.6438
  202MOL0     H27232   4.989  -0.181   1.700 -0.1820 -1.0443 -1.0024
  202MOL0     H27233   4.842  -0.245   1.781  0.7166 -2.4346 -1.0982
  202MOL0     H27234   5.267  -0.149   1.675  0.1174 -1.0184 -1.2050
  202MOL0     H27235   5.496  -0.103   1.643 -3.6737 -0.9429  2.3579
  202MOL0     H27236   5.650   0.226   1.571  1.8210  0.7800 -3.3487
  202MOL0     H27237   5.659   0.083   1.674 -1.5864  4.4885  1.6580
  202MOL0     H27238   5.843   0.119   1.441 -1.1219 -2.3796  0.0170
  202MOL0     H27239   5.874   0.200   1.602  1.9583 -0.0380 -1.5699
  202MOL0     H27240   6.004  -0.003   1.560 -0.4763 -0.1881 -0.9057
  202MOL0     H27241   5.853  -0.096   1.562  0.5166 -1.1121  0.9201
  202MOL0     H27242   5.979   0.045   1.807 -0.2753 -2.9173  3.0157
  202MOL0     H27243   5.809  -0.000   1.801 -0.8075  0.5961 -1.6439
  202MOL0     H27244   5.894  -0.223   1.714 -1.3941  2.0836 -0.7027
  202MOL0     H27245   5.941  -0.187   1.891 -3.0618 -0.3418  0.0626
  202MOL0     H27246   6.125  -0.247   1.663  1.8726 -2.0016  0.6327
  202MOL0     H27247   6.149  -0.085   1.739  0.1227 -0.5882  4.2183
  202MOL0     H27248   6.279  -0.300   1.829 -0.0536 -0.9018  1.2878
  202MOL0     H27249   6.128  -0.374   1.863 -3.3590 -0.4738  0.1258
  202MOL0     H27250   6.254  -0.320   2.049  1.2656 -0.3881 -2.0359
  202MOL0     H27251   6.082  -0.286   2.055 -0.6397 -0.1239 -0.1594
  202MOL0     H27252   5.401   0.164   1.317 -0.6681  1.7076  1.9815
  202MOL0     H27253   5.165   0.145   1.377 -1.8057 -0.1779  1.9770
  202MOL0     H27254   4.887   0.303   1.716  2.5534 -0.1259  0.7684
  202MOL0     H27255   4.698   0.319   1.851  3.6654  1.7724  1.1863
  202MOL0     H27256   4.956   1.309   1.631 -1.2586 -2.5190  1.2301
  202MOL0     H27257   5.125   1.494   1.704 -0.0626  2.7977  1.3255
  202MOL0     H27258   5.299   1.695   2.108 -1.9577  1.2813 -0.0561
  202MOL0     H27259   5.485   1.836   2.185 -0.3029 -3.6188 -0.0742
  202MOL0     H27260   5.720   2.034   1.868  1.1494  2.7091 -1.1530
  202MOL0     H27261   5.607   2.173   1.892  1.1097  0.8825  1.1028
  202MOL0     H27262   5.805   2.278   1.925 -1.0959 -0.2505 -1.8725
  202MOL0     H27263   5.877   2.143   1.997  1.6274  2.5042 -4.1829
  202MOL0     H27264   5.831   2.336   2.144  0.0930  0.6727 -2.0553
  202MOL0     H27265   5.735   2.201   2.200 -0.7267  0.2916  0.7621
  202MOL0     H27266   5.529   2.302   2.153 -0.3869  0.8242 -0.5034
  202MOL0     H27267   5.590   2.367   1.998 -0.2302  1.6042  0.0419
  202MOL0     H27268   5.588   2.682   2.284  1.6724  0.5417  1.5867
  202MOL0     H27269   5.472   2.033   1.793  1.9625 -1.2774 -0.2072
  202MOL0     H27270   5.285   1.901   1.735 -0.7916  1.0227  0.2564
  203MOL0     O27271   1.731   0.671  10.386 -0.4457  0.2148  0.3800
  203MOL0     C27272   1.622   0.653  10.335  0.2551 -0.1464 -0.4333
  203MOL0     O27273   1.511   0.598  10.406  0.1897 -0.2331 -1.1314
  203MOL0     C27274   1.543   0.534  10.517  0.4115 -1.8396 -0.6443
  203MOL0     C27275   1.619   0.420  10.511 -0.3046  0.3730  0.0661
  203MOL0     C27276   1.663   0.359  10.623 -0.2697  0.7578  0.7780
  203MOL0     C27277   1.617   0.404  10.753  0.7863 -0.4833  0.2853
  203MOL0     O27278   1.647   0.341  10.869  0.2497 -0.5942  0.3436
  203MOL0     C27279   1.653   0.192  10.877 -0.4687  0.3324  0.2455
  203MOL0     C27280   1.804   0.147  10.860  0.1509  0.0524 -0.2015
  203MOL0     C27281   1.873   0.166  10.991  0.9500 -0.7192 -0.4544
  203MOL0     C27282   1.968   0.287  10.997 -0.3169 -0.3559  0.4884
  203MOL0     C27283   2.088   0.266  11.102 -0.0637  0.4340 -0.1727
  203MOL0     C27284   2.025   0.225  11.247 -0.3105  0.4006  1.0485
  203MOL0     C27285   2.158   0.206  11.324 -0.3277 -0.4261 -0.3952
  203MOL0     C27286   2.124   0.216  11.471 -0.4095 -1.1101 -0.4930
  203MOL0     N27287   2.084   0.093  11.544  1.0373 -0.4336 -1.0919
  203MOL0     C27288   2.151  -0.025  11.525 -0.4957  0.4404  0.0609
  203MOL0     C27289   2.091  -0.109  11.617  0.1066  0.1866  0.2395
  203MOL0     C27290   2.136  -0.254  11.643  1.3321  0.3864  0.5719
  203MOL0     C27291   2.114  -0.296  11.786  0.2492 -0.2210 -0.0183
  203MOL0     C27292   2.193  -0.430  11.817  0.9031  0.1841  0.2892
  203MOL0     C27293   2.150  -0.480  11.959  0.6850  0.3570  0.4100
  203MOL0     O27294   2.022  -0.541  11.946  0.5169  0.4822 -0.3900
  203MOL0     C27295   1.952  -0.570  12.055 -0.1402  0.0334 -0.5088
  203MOL0     C27296   2.011  -0.609  12.178  0.2491  1.3952 -0.3845
  203MOL0     C27297   1.931  -0.637  12.288  0.6117 -0.0974  0.5669
  203MOL0     C27298   2.002  -0.676  12.415  0.1428  0.3177  0.5407
  203MOL0     C27299   1.787  -0.631  12.273 -0.2135 -0.3261 -0.4235
  203MOL0     C27300   1.702  -0.670  12.383 -0.6518 -0.7419 -0.1805
  203MOL0     O27301   1.747  -0.636  12.512  0.1008 -0.4376  0.3109
  203MOL0     C27302   1.696  -0.674  12.633  0.7952  0.0879 -0.0141
  203MOL0     C27303   1.591  -0.769  12.656  0.1829  0.4467 -0.4477
  203MOL0     C27304   1.551  -0.804  12.791 -0.1368 -0.0820  0.9017
  203MOL0     C27305   1.608  -0.743  12.898 -1.4107 -0.4936 -0.0584
  203MOL0     O27306   1.582  -0.774  13.031 -0.1892  0.2791 -0.1466
  203MOL0     C27307   1.470  -0.861  13.066  0.5672  0.8184 -0.0860
  203MOL0     C27308   1.422  -0.826  13.214 -0.7979  0.2287  0.4392
  203MOL0     C27309   1.536  -0.790  13.308  0.2655  0.4404 -0.8559
  203MOL0     C27310   1.513  -0.809  13.456 -0.0022  0.8427 -0.0397
  203MOL0     C27311   1.588  -0.705  13.531  0.8794  0.0088  0.7770
  203MOL0     C27312   1.713  -0.763  13.600  0.3178 -0.6475 -0.2968
  203MOL0     C27313   1.784  -0.649  13.672  0.1990  0.4839 -0.8585
  203MOL0     C27314   1.715  -0.612  13.803 -0.3487 -0.1138 -0.3278
  203MOL0    Cl27315   1.727  -0.736  13.928 -0.0773  0.0170 -0.1777
  203MOL0     C27316   1.703  -0.645  12.872  0.1484  0.2399  0.4878
  203MOL0     C27317   1.748  -0.611  12.742 -0.2148 -0.6208 -0.2794
  203MOL0     O27318   1.592  -0.722  12.363 -0.2182 -0.7385 -0.9407
  203MOL0     C27319   1.736  -0.595  12.148  0.6970  0.4925  0.1525
  203MOL0     C27320   1.814  -0.567  12.039  0.6801 -0.3813  0.1468
  203MOL0     N27321   1.983  -0.051  11.681  0.5108 -0.1680 -0.0608
  203MOL0     N27322   1.985   0.073  11.637  1.1354  0.0718  0.1360
  203MOL0     C27323   1.539   0.516  10.761 -0.5221  0.7254 -0.3311
  203MOL0     C27324   1.503   0.579  10.648  0.7200 -0.2094  0.8261
  203MOL0     C27325   1.598   0.717  10.213  0.3198  0.0217 -0.5193
  203MOL0     C27326   1.471   0.717  10.156 -1.0224  0.1629 -0.1709
  203MOL0     C27327   1.447   0.801  10.044  1.1073  0.1201  0.5638
  203MOL0     C27328   1.540   0.896   9.994  0.0836  0.2009  0.6384
  203MOL0     O27329   1.503   0.976   9.885 -0.4174 -0.0145 -0.5271
  203MOL0     C27330   1.603   1.054   9.814 -0.9451 -0.2371 -1.0320
  203MOL0     C27331   1.527   1.108   9.694  0.5639 -0.3865  0.7964
  203MOL0     C27332   1.458   1.242   9.728 -0.5442  0.0702  0.1675
  203MOL0     C27333   1.382   1.294   9.619 -0.3733  0.7078  0.7504
  203MOL0     C27334   1.456   1.308   9.493  0.1034  0.5927  0.0069
  203MOL0     C27335   1.516   1.326   9.385  0.2258  0.5398  0.2262
  203MOL0     C27336   1.662   0.895  10.052  0.6931  0.4475  0.7108
  203MOL0     C27337   1.691   0.807  10.156 -0.6354  0.1946 -0.2797
  203MOL0     H27338   1.639   0.385  10.411  2.2110  1.7608  0.0109
  203MOL0     H27339   1.719   0.266  10.616 -3.9951 -1.5780 -3.0161
  203MOL0     H27340   1.605   0.165  10.972  1.8031  0.1773  1.4174
  203MOL0     H27341   1.601   0.143  10.794  2.2168  2.2093 -2.8062
  203MOL0     H27342   1.794   0.039  10.849  0.0057 -0.1338  1.4196
  203MOL0     H27343   1.866   0.182  10.778 -1.6268  0.4658 -1.4323
  203MOL0     H27344   1.796   0.177  11.068  0.3521 -3.7903 -0.4810
  203MOL0     H27345   1.927   0.071  11.000 -0.0815 -1.2988 -0.2241
  203MOL0     H27346   2.006   0.305  10.896 -3.4428 -0.9764 -0.9026
  203MOL0     H27347   1.908   0.376  11.017  0.3270  0.0468  0.6895
  203MOL0     H27348   2.164   0.195  11.069  0.0723  0.6455 -0.3171
  203MOL0     H27349   2.138   0.363  11.098  0.3486  0.1873 -1.4670
  203MOL0     H27350   1.954   0.299  11.284 -1.7503  0.3432 -1.3870
  203MOL0     H27351   1.976   0.128  11.240 -0.4365  0.4451  1.3110
  203MOL0     H27352   2.194   0.105  11.302 -0.9212 -0.5210 -0.9875
  203MOL0     H27353   2.228   0.287  11.301 -2.5666  1.4419 -1.0000
  203MOL0     H27354   2.049   0.293  11.492  2.7531  1.5525  2.0692
  203MOL0     H27355   2.218   0.239  11.521  0.1904  0.3441 -2.1995
  203MOL0     H27356   2.232  -0.042  11.455  0.0800 -0.7836  0.9872
  203MOL0     H27357   2.071  -0.320  11.586  1.3714  1.7190 -1.1047
  203MOL0     H27358   2.238  -0.275  11.608  1.8073 -0.8471  2.5053
  203MOL0     H27359   2.006  -0.309  11.788  0.2325  0.0431  1.3205
  203MOL0     H27360   2.151  -0.221  11.856 -3.9444  2.2302 -0.1203
  203MOL0     H27361   2.299  -0.402  11.822  0.9258 -0.1121  1.7313
  203MOL0     H27362   2.177  -0.512  11.746  3.8966 -0.5508  0.3236
  203MOL0     H27363   2.155  -0.406  12.039  0.6163  0.2683  0.4978
  203MOL0     H27364   2.231  -0.547  11.992  0.1661  0.8768  2.9826
  203MOL0     H27365   2.119  -0.621  12.184  0.2885  2.1603  0.7863
  203MOL0     H27366   2.111  -0.681  12.404  0.1076 -3.6353  0.6909
  203MOL0     H27367   1.984  -0.593  12.484 -0.9595 -0.2602  0.9705
  203MOL0     H27368   1.975  -0.773  12.457 -0.7215 -0.0024 -0.7122
  203MOL0     H27369   1.547  -0.825  12.574  3.0144 -1.8435 -0.5662
  203MOL0     H27370   1.472  -0.875  12.811  0.0591 -0.9027 -1.0656
  203MOL0     H27371   1.382  -0.846  13.004  1.1825  3.6113 -0.4579
  203MOL0     H27372   1.503  -0.965  13.057  1.7565  1.2536 -1.0010
  203MOL0     H27373   1.347  -0.748  13.204  0.4490  1.5363  0.9982
  203MOL0     H27374   1.373  -0.914  13.257 -0.8109  0.4834  0.9546
  203MOL0     H27375   1.563  -0.687  13.281 -0.1544  0.5028 -1.0437
  203MOL0     H27376   1.619  -0.855  13.279  0.0258 -1.5905  2.5016
  203MOL0     H27377   1.406  -0.806  13.478 -0.5278 -0.7411 -2.0484
  203MOL0     H27378   1.539  -0.913  13.481 -1.2837  0.4911 -0.0798
  203MOL0     H27379   1.523  -0.676  13.613 -1.1529 -0.0414 -0.7440
  203MOL0     H27380   1.610  -0.613  13.475  2.1033  0.7728  2.4221
  203MOL0     H27381   1.700  -0.851  13.664  0.3750 -1.0810 -0.8718
  203MOL0     H27382   1.778  -0.782  13.514 -0.5412  2.8795 -1.9069
  203MOL0     H27383   1.805  -0.571  13.599 -0.1158 -0.9154 -2.5301
  203MOL0     H27384   1.881  -0.696  13.688 -1.0218 -1.0399  3.4957
  203MOL0     H27385   1.613  -0.581  13.779 -0.7924  0.3201  1.8828
  203MOL0     H27386   1.768  -0.524  13.839 -0.7314  0.4720 -1.1553
  203MOL0     H27387   1.750  -0.581  12.945  2.0734  0.3581 -0.7866
  203MOL0     H27388   1.840  -0.557  12.723 -0.0845 -0.5531  0.5242
  203MOL0     H27389   1.628  -0.603  12.140  0.9193 -3.4528 -1.5649
  203MOL0     H27390   1.778  -0.537  11.941  1.4424  2.4525  0.6378
  203MOL0     H27391   1.518   0.569  10.853 -0.4846  0.2029 -0.0158
  203MOL0     H27392   1.455   0.675  10.665  0.6161  0.1237 -1.1133
  203MOL0     H27393   1.393   0.651  10.194 -2.4501  2.1066  0.4496
  203MOL0     H27394   1.351   0.808   9.995  1.2043 -0.9463  0.2032
  203MOL0     H27395   1.630   1.122   9.895 -1.2736  0.5257 -1.5587
  203MOL0     H27396   1.692   1.004   9.775  0.3180 -0.5951  1.9910
  203MOL0     H27397   1.446   1.043   9.659 -0.0029  0.1790  1.0417
  203MOL0     H27398   1.592   1.126   9.608  0.8553 -3.4297  0.2551
  203MOL0     H27399   1.527   1.313   9.774  1.3035 -1.8297  0.5145
  203MOL0     H27400   1.381   1.222   9.803 -0.4856  0.6262  0.3809
  203MOL0     H27401   1.364   1.397   9.650  1.2077  2.0338 -2.2702
  203MOL0     H27402   1.295   1.233   9.591  2.1102 -2.2754 -1.2077
  203MOL0     H27403   1.564   1.337   9.290  2.7565  2.1016  1.5510
  203MOL0     H27404   1.737   0.963  10.011  0.6166  0.1665  0.0933
  203MOL0     H27405   1.794   0.818  10.191  0.0227 -0.1947 -1.9744
  204MOL0     O27406   5.707   7.159   6.430  0.0475 -0.4618  1.0806
  204MOL0     C27407   5.589   7.196   6.430  1.0511  0.4976  0.8680
  204MOL0     O27408   5.520   7.231   6.538  0.1864  0.0177 -0.0926
  204MOL0     C27409   5.555   7.209   6.670  0.1738 -0.0773  0.3138
  204MOL0     C27410   5.459   7.238   6.775 -0.5083 -0.0804  0.0944
  204MOL0     C27411   5.481   7.201   6.907  0.1272 -0.9834  0.5086
  204MOL0     C27412   5.598   7.135   6.935 -0.5112  0.4194  0.1660
  204MOL0     O27413   5.624   7.080   7.064  0.1320  0.5403 -0.5974
  204MOL0     C27414   5.650   7.172   7.164  0.9108  0.3487 -0.1864
  204MOL0     C27415   5.531   7.168   7.264  0.1075 -0.1730  0.4001
  204MOL0     C27416   5.500   7.031   7.333 -0.2766  0.3479  0.1039
  204MOL0     C27417   5.614   6.998   7.434  0.8137  0.3086 -0.6119
  204MOL0     C27418   5.601   6.872   7.518  0.3640  1.6304  0.6924
  204MOL0     C27419   5.636   6.739   7.440 -0.5581 -0.7753  0.3766
  204MOL0     C27420   5.790   6.726   7.404  0.2146 -0.0728  0.0130
  204MOL0     C27421   5.874   6.628   7.485 -0.5029  0.0268 -0.9909
  204MOL0     N27422   5.831   6.494   7.447  0.3703  1.2264 -0.0426
  204MOL0     C27423   5.865   6.434   7.326  0.5483  0.5532 -0.1704
  204MOL0     C27424   5.810   6.313   7.332  0.2707 -0.0812 -0.2008
  204MOL0     C27425   5.800   6.205   7.226  1.0093 -0.3612 -0.0956
  204MOL0     C27426   5.924   6.127   7.206  0.4802  0.6227 -0.3260
  204MOL0     C27427   6.040   6.214   7.160 -0.6332  1.2290  0.4347
  204MOL0     C27428   6.146   6.118   7.112 -0.9463  0.2374  0.2621
  204MOL0     O27429   6.275   6.182   7.113  0.3119  0.0872 -0.6000
  204MOL0     C27430   6.389   6.100   7.131 -0.3984 -0.1267  0.0250
  204MOL0     C27431   6.454   6.114   7.257  0.2858  0.6244 -0.6038
  204MOL0     C27432   6.560   6.025   7.294 -0.8967 -0.3037  1.0448
  204MOL0     C27433   6.629   6.052   7.429  0.3767  0.5071 -1.0175
  204MOL0     C27434   6.599   5.926   7.202  0.3290  0.9274  0.3515
  204MOL0     C27435   6.716   5.841   7.217  0.0324  1.2742  0.1226
  204MOL0     O27436   6.768   5.802   7.097 -0.7294 -0.2321 -0.9632
  204MOL0     C27437   6.893   5.741   7.111 -0.3988 -0.0559 -0.1915
  204MOL0     C27438   6.905   5.603   7.111 -1.5030 -0.1087  0.3355
  204MOL0     C27439   7.025   5.539   7.151 -0.4893 -0.9878 -0.1869
  204MOL0     C27440   7.140   5.613   7.173 -0.0937  0.1436  0.1954
  204MOL0     O27441   7.251   5.553   7.214 -0.1226  0.3842 -0.4065
  204MOL0     C27442   7.266   5.439   7.297  0.7055  0.3000  0.4238
  204MOL0     C27443   7.250   5.471   7.444 -0.5897  0.5090  0.4498
  204MOL0     C27444   7.112   5.523   7.485 -0.8425  0.0274  0.7872
  204MOL0     C27445   7.086   5.497   7.632 -0.1766 -1.0706 -0.2025
  204MOL0     C27446   6.948   5.465   7.679 -0.4126  1.1636  0.5268
  204MOL0     C27447   6.841   5.574   7.648 -0.0073 -0.3633 -0.4056
  204MOL0     C27448   6.853   5.713   7.720 -1.2630 -0.2344  0.7337
  204MOL0     C27449   6.830   5.723   7.875  0.8577 -0.5076  0.4950
  204MOL0    Cl27450   6.670   5.662   7.933 -0.0064 -0.0211 -0.0162
  204MOL0     C27451   7.133   5.751   7.175 -0.4161  0.0261  0.6245
  204MOL0     C27452   7.010   5.823   7.138  0.2634 -0.5487  0.8221
  204MOL0     O27453   6.754   5.811   7.335 -0.0863 -0.7841  0.0267
  204MOL0     C27454   6.529   5.917   7.077  0.9153  0.4567 -0.1124
  204MOL0     C27455   6.431   6.006   7.037 -0.4249  0.3594 -0.0875
  204MOL0     N27456   5.759   6.305   7.464  0.7299  0.8406 -0.5828
  204MOL0     N27457   5.747   6.422   7.514  0.1820  1.0954 -0.6645
  204MOL0     C27458   5.699   7.100   6.845  0.2746 -0.3940  0.1551
  204MOL0     C27459   5.680   7.136   6.715 -0.8906  0.4277 -1.0360
  204MOL0     C27460   5.523   7.206   6.289 -1.0421  0.3924 -0.8400
  204MOL0     C27461   5.384   7.227   6.282  0.0776  0.0414 -0.5740
  204MOL0     C27462   5.324   7.249   6.163 -0.2057  0.6195  0.5955
  204MOL0     C27463   5.391   7.238   6.042 -0.3787  0.1105  0.3136
  204MOL0     O27464   5.310   7.257   5.926 -0.1838  0.3663 -0.0077
  204MOL0     C27465   5.378   7.311   5.819 -0.9465 -0.1176  0.2546
  204MOL0     C27466   5.284   7.407   5.741  0.6243 -0.2420  0.0449
  204MOL0     C27467   5.154   7.341   5.693 -0.2899  0.4775 -0.4096
  204MOL0     C27468   5.052   7.447   5.655  0.2326  0.4280 -0.0618
  204MOL0     C27469   5.110   7.527   5.540  0.2961 -0.5944 -0.7332
  204MOL0     C27470   5.182   7.587   5.459  0.3245  0.5985  0.0473
  204MOL0     C27471   5.532   7.208   6.043 -0.1922 -0.6261  0.7922
  204MOL0     C27472   5.601   7.198   6.167 -0.2562  0.3137  1.4912
  204MOL0     H27473   5.366   7.290   6.753 -1.0701 -0.3667  1.6678
  204MOL0     H27474   5.406   7.229   6.981  1.8047  2.3891  1.1499
  204MOL0     H27475   5.747   7.157   7.213  0.6533  0.9787  0.5367
  204MOL0     H27476   5.651   7.273   7.122  3.1723  0.4193 -0.1145
  204MOL0     H27477   5.542   7.247   7.339 -0.6416 -0.2526  0.6078
  204MOL0     H27478   5.442   7.188   7.203  0.7212  2.1997  0.1895
  204MOL0     H27479   5.403   7.043   7.381  0.4354  3.9567  0.9056
  204MOL0     H27480   5.491   6.947   7.262  0.8754  1.0648 -0.9288
  204MOL0     H27481   5.712   6.993   7.386  0.7739  1.1376 -0.8098
  204MOL0     H27482   5.618   7.084   7.502 -2.3213  0.4965 -0.5349
  204MOL0     H27483   5.657   6.889   7.610 -1.2425  0.7656  1.8889
  204MOL0     H27484   5.499   6.850   7.551  0.9598 -0.6520  1.1815
  204MOL0     H27485   5.609   6.661   7.512 -1.8050 -0.4723  0.2579
  204MOL0     H27486   5.577   6.740   7.348  1.3832 -1.7605 -0.9633
  204MOL0     H27487   5.804   6.704   7.298  0.3923 -0.6664  0.1553
  204MOL0     H27488   5.839   6.822   7.419 -0.5129 -0.0098  2.4182
  204MOL0     H27489   5.859   6.642   7.593  0.7746  1.1200 -0.9326
  204MOL0     H27490   5.981   6.641   7.468  0.0644  0.1855  2.1006
  204MOL0     H27491   5.912   6.481   7.240  3.3428 -1.6314  0.0068
  204MOL0     H27492   5.727   6.131   7.259  1.9243  0.0816  3.3348
  204MOL0     H27493   5.772   6.254   7.133 -1.0037  0.3609  0.8291
  204MOL0     H27494   5.906   6.044   7.137 -0.1138  1.2747 -0.9684
  204MOL0     H27495   5.951   6.084   7.302  1.5704  1.0531 -0.4232
  204MOL0     H27496   6.086   6.273   7.240  1.6983 -0.2009  0.2502
  204MOL0     H27497   6.016   6.287   7.082  4.0094  2.7468  0.1016
  204MOL0     H27498   6.116   6.069   7.019  0.7258  0.2179 -0.3001
  204MOL0     H27499   6.159   6.043   7.192 -0.8122  3.5583  3.6462
  204MOL0     H27500   6.406   6.171   7.335  2.0987  0.1290  0.9611
  204MOL0     H27501   6.620   5.963   7.491  3.8363  1.1380  0.6099
  204MOL0     H27502   6.732   6.086   7.418  0.2560  0.3846 -2.9410
  204MOL0     H27503   6.584   6.128   7.494  2.5166 -0.3517  1.6649
  204MOL0     H27504   6.813   5.554   7.079 -2.2320  2.2161 -1.4300
  204MOL0     H27505   7.026   5.430   7.154  1.2944 -0.9774  0.9808
  204MOL0     H27506   7.186   5.367   7.281  0.5227  0.2123  1.6184
  204MOL0     H27507   7.362   5.388   7.280 -0.4854 -2.3497  1.0427
  204MOL0     H27508   7.275   5.378   7.496  1.5535  1.9120  2.1379
  204MOL0     H27509   7.323   5.541   7.488 -0.8824  0.9096  0.2994
  204MOL0     H27510   7.049   5.456   7.425  1.0428 -0.8042 -0.3576
  204MOL0     H27511   7.101   5.630   7.466 -0.4944 -0.1303 -0.3962
  204MOL0     H27512   7.147   5.414   7.670  0.9773  0.9644  2.8722
  204MOL0     H27513   7.120   5.582   7.692  2.4656 -2.9926  1.2446
  204MOL0     H27514   6.954   5.462   7.788  1.5600  0.3298  0.4370
  204MOL0     H27515   6.910   5.372   7.638 -0.0156  0.9647  0.6079
  204MOL0     H27516   6.842   5.597   7.541 -1.8038 -0.0735 -0.3894
  204MOL0     H27517   6.740   5.543   7.674 -0.1797  0.1902 -0.4056
  204MOL0     H27518   6.788   5.782   7.665  0.4919  1.6819  0.9019
  204MOL0     H27519   6.949   5.765   7.707 -1.8626  1.2425  1.8687
  204MOL0     H27520   6.820   5.829   7.898  1.4441  0.1291 -1.9163
  204MOL0     H27521   6.907   5.668   7.931  2.4393 -2.3965 -3.1495
  204MOL0     H27522   7.226   5.800   7.201 -0.3168 -0.2896  0.8786
  204MOL0     H27523   7.013   5.930   7.123  0.0312 -0.8272 -1.4440
  204MOL0     H27524   6.552   5.842   7.003  2.1613  2.5206 -1.9472
  204MOL0     H27525   6.365   6.005   6.951  0.3941 -2.5184 -0.7963
  204MOL0     H27526   5.793   7.049   6.862  2.1110  2.4174 -0.6971
  204MOL0     H27527   5.760   7.096   6.654 -1.4904 -0.0970 -1.4853
  204MOL0     H27528   5.326   7.226   6.374 -0.9147 -0.5277 -1.1955
  204MOL0     H27529   5.217   7.270   6.160 -0.2380  0.6313  1.4705
  204MOL0     H27530   5.468   7.369   5.842  0.8881 -2.7563  0.2021
  204MOL0     H27531   5.406   7.222   5.762 -3.7823 -0.3533 -0.8936
  204MOL0     H27532   5.339   7.442   5.653 -1.1525  1.9536 -0.2790
  204MOL0     H27533   5.269   7.497   5.801  1.8607  1.2100 -1.6932
  204MOL0     H27534   5.104   7.279   5.768 -2.1853  0.9654 -1.2284
  204MOL0     H27535   5.178   7.282   5.604 -0.2112  1.9400 -1.3900
  204MOL0     H27536   5.033   7.513   5.740 -0.5292 -1.0839  1.0042
  204MOL0     H27537   4.967   7.391   5.614  1.1792 -0.4772 -0.8212
  204MOL0     H27538   5.248   7.642   5.395 -3.0101  4.5581 -0.4073
  204MOL0     H27539   5.590   7.184   5.955 -0.2468 -3.0133  1.3578
  204MOL0     H27540   5.706   7.172   6.172 -0.9405 -2.7410  2.5691
  205MOL0     O27541   1.006   7.653  10.504  0.9638  0.1887 -1.1910
  205MOL0     C27542   0.945   7.589  10.596 -0.5161 -0.1514  0.1370
  205MOL0     O27543   0.971   7.608  10.729 -0.7525  0.1215 -0.1877
  205MOL0     C27544   1.055   7.708  10.769 -0.2291  0.4466  0.7939
  205MOL0     C27545   1.194   7.708  10.736 -0.0265 -0.6243  0.6187
  205MOL0     C27546   1.270   7.825  10.758  0.0063 -0.3447  0.0248
  205MOL0     C27547   1.220   7.941  10.822  0.5284  1.0543  0.6516
  205MOL0     O27548   1.297   8.050  10.824 -0.0819  0.0149  0.0025
  205MOL0     C27549   1.259   8.155  10.912 -0.2203  1.5119  0.5367
  205MOL0     C27550   1.364   8.267  10.902  0.3728 -0.5119 -0.7236
  205MOL0     C27551   1.314   8.405  10.954  0.8195  0.2049 -0.6074
  205MOL0     C27552   1.420   8.507  10.926 -0.6100 -0.8319 -0.6461
  205MOL0     C27553   1.383   8.644  10.989 -0.2044  0.1854 -1.0124
  205MOL0     C27554   1.478   8.754  10.941 -0.5600  0.3227 -0.5458
  205MOL0     C27555   1.449   8.803  10.805 -1.2377  0.3456 -0.0452
  205MOL0     C27556   1.564   8.878  10.736  0.4795 -0.4679 -0.3999
  205MOL0     N27557   1.573   9.018  10.783  0.2781  0.3734 -0.0029
  205MOL0     C27558   1.505   9.126  10.723 -0.6672 -0.4689 -0.4139
  205MOL0     C27559   1.575   9.237  10.759  0.9288  1.1946 -0.3696
  205MOL0     C27560   1.525   9.373  10.726  0.4252  0.8030 -0.0515
  205MOL0     C27561   1.526   9.424  10.575 -0.1656 -0.1568 -0.8152
  205MOL0     C27562   1.628   9.535  10.545  0.8533 -0.5871 -0.1918
  205MOL0     C27563   1.599   9.668  10.612 -0.3323 -1.4190  0.7868
  205MOL0     O27564   1.459   9.701  10.595  0.5249  0.1118 -0.1316
  205MOL0     C27565   1.424   9.841  10.586  0.8877 -0.5422 -0.0855
  205MOL0     C27566   1.505   9.944  10.633 -0.2484 -0.5580 -0.2565
  205MOL0     C27567   1.485  10.084  10.620  0.2407 -0.7120 -0.5832
  205MOL0     C27568   1.585  10.173  10.674 -0.7130  0.3216  0.6624
  205MOL0     C27569   1.369  10.125  10.553 -0.3305  0.2863 -0.3201
  205MOL0     C27570   1.330  10.261  10.517  0.0927 -0.1296 -0.2736
  205MOL0     O27571   1.190  10.277  10.494 -0.8043 -1.2037 -0.3430
  205MOL0     C27572   1.136  10.404  10.485 -0.1798  0.0695 -0.0640
  205MOL0     C27573   1.017  10.414  10.422  0.5795  0.3964  1.7601
  205MOL0     C27574   0.963  10.537  10.398  0.6252 -0.8565 -0.1653
  205MOL0     C27575   1.019  10.659  10.461  0.1797  0.2225  0.2473
  205MOL0     O27576   0.969  10.780  10.432  0.1845  0.4495 -0.3134
  205MOL0     C27577   0.830  10.814  10.440  0.3682  0.9979  0.0562
  205MOL0     C27578   0.814  10.948  10.368  0.1656  0.5315  0.3805
  205MOL0     C27579   0.684  11.023  10.395 -0.4040  0.2352 -0.4342
  205MOL0     C27580   0.700  11.176  10.420 -0.2830 -0.1152  0.2800
  205MOL0     C27581   0.574  11.246  10.364  0.0351 -0.5384 -0.9926
  205MOL0     C27582   0.584  11.393  10.424 -0.2442  0.5974  0.3837
  205MOL0     C27583   0.471  11.481  10.374  0.3841  0.2563  1.4151
  205MOL0     C27584   0.484  11.624  10.438 -0.1202 -0.1646 -0.2916
  205MOL0    Cl27585   0.318  11.706  10.454 -0.3035  0.4537 -0.1715
  205MOL0     C27586   1.127  10.641  10.535  0.2014 -0.1236 -0.3191
  205MOL0     C27587   1.191  10.514  10.544  0.2382  1.1989  0.6837
  205MOL0     O27588   1.419  10.344  10.490 -0.2573 -0.2235 -0.7492
  205MOL0     C27589   1.279  10.019  10.519  0.1867  0.3183  0.7885
  205MOL0     C27590   1.301   9.882  10.535 -0.2761  0.6453  0.3631
  205MOL0     N27591   1.680   9.188  10.841 -0.3449 -0.3863  0.8841
  205MOL0     N27592   1.683   9.061  10.842 -0.8299  0.2449 -0.5970
  205MOL0     C27593   1.079   7.948  10.843  0.5369  0.8200  0.5381
  205MOL0     C27594   1.004   7.834  10.817  0.0554 -0.2027 -0.5383
  205MOL0     C27595   0.854   7.483  10.560 -0.2051 -0.1994 -0.8816
  205MOL0     C27596   0.838   7.367  10.639 -0.3865 -0.4566 -0.0789
  205MOL0     C27597   0.760   7.261  10.592  0.3340 -0.1963 -0.2993
  205MOL0     C27598   0.686   7.273  10.481 -0.2079  0.1768  0.3956
  205MOL0     O27599   0.612   7.171  10.440  0.3196  0.0892  0.2366
  205MOL0     C27600   0.550   7.154  10.309  0.1868  0.6217  0.7478
  205MOL0     C27601   0.403   7.188  10.302  0.6157 -0.7345  1.1117
  205MOL0     C27602   0.358   7.187  10.150 -1.0269  0.1534  0.1625
  205MOL0     C27603   0.287   7.322  10.120 -0.3139 -1.0447 -0.3432
  205MOL0     C27604   0.399   7.417  10.109  0.3389 -0.1364 -0.4496
  205MOL0     C27605   0.492   7.495  10.084  0.8203  0.5320 -0.3217
  205MOL0     C27606   0.684   7.397  10.409  0.1144  0.2648 -0.4921
  205MOL0     C27607   0.767   7.501  10.444 -1.1749  0.0144  0.3731
  205MOL0     H27608   1.250   7.620  10.707 -0.3927 -1.0695  1.2288
  205MOL0     H27609   1.370   7.806  10.721 -0.6157 -3.2888 -0.4112
  205MOL0     H27610   1.163   8.198  10.883 -0.3839  0.0197 -1.2910
  205MOL0     H27611   1.263   8.125  11.017  2.4244  5.3528  1.7771
  205MOL0     H27612   1.454   8.240  10.957  0.4855  1.2609  0.0208
  205MOL0     H27613   1.392   8.282  10.798 -0.3744  0.3968 -0.8055
  205MOL0     H27614   1.231   8.446  10.896  1.7500  0.0938 -2.0597
  205MOL0     H27615   1.294   8.388  11.061 -1.3540  1.0448 -0.8196
  205MOL0     H27616   1.510   8.462  10.969 -1.4268 -0.6098  1.4148
  205MOL0     H27617   1.425   8.503  10.817 -1.2380 -3.4109 -0.6310
  205MOL0     H27618   1.280   8.674  10.964 -0.1870 -0.9849 -2.6817
  205MOL0     H27619   1.390   8.640  11.098 -1.2948 -0.9331 -0.9450
  205MOL0     H27620   1.467   8.843  11.004  1.6565  0.8828 -0.8829
  205MOL0     H27621   1.581   8.727  10.968 -0.9380  0.4098  1.0772
  205MOL0     H27622   1.427   8.719  10.738  0.9776  0.3381 -0.8317
  205MOL0     H27623   1.362   8.869  10.811 -0.2527  1.5517  1.4634
  205MOL0     H27624   1.544   8.891  10.630 -1.4301  1.9725  0.1704
  205MOL0     H27625   1.653   8.817  10.751 -0.1493 -1.5285 -0.8942
  205MOL0     H27626   1.422   9.134  10.655 -0.7903 -1.0683 -0.3394
  205MOL0     H27627   1.423   9.402  10.753 -0.6891 -0.2671 -2.7919
  205MOL0     H27628   1.590   9.433  10.790 -0.8930  0.6368  1.5159
  205MOL0     H27629   1.423   9.455  10.555  0.2626  3.1779  1.2986
  205MOL0     H27630   1.555   9.342  10.509  1.0082 -0.9909  0.6751
  205MOL0     H27631   1.627   9.552  10.437  0.5755  0.6933 -0.0092
  205MOL0     H27632   1.730   9.503  10.564  0.4843 -1.5284  0.2637
  205MOL0     H27633   1.656   9.741  10.553 -0.5930  0.1662  2.4109
  205MOL0     H27634   1.624   9.675  10.718  1.2251 -3.0419  0.5616
  205MOL0     H27635   1.601   9.910  10.668  0.5102 -0.1158 -1.8119
  205MOL0     H27636   1.645  10.221  10.597  0.0916 -4.5104 -2.0971
  205MOL0     H27637   1.527  10.248  10.729 -0.1580 -0.6454  2.6661
  205MOL0     H27638   1.653  10.136  10.752 -1.9689 -2.2868  0.6097
  205MOL0     H27639   0.969  10.327  10.379 -1.9642  2.4503  0.1484
  205MOL0     H27640   0.885  10.548  10.324  0.1770 -0.7662  0.3114
  205MOL0     H27641   0.776  10.732  10.390  0.3924 -0.8729  2.8494
  205MOL0     H27642   0.805  10.822  10.546 -0.9565  1.7653 -0.3057
  205MOL0     H27643   0.896  11.014  10.398 -1.6030  3.2354 -0.3892
  205MOL0     H27644   0.836  10.923  10.264  1.3617 -2.2389  1.2089
  205MOL0     H27645   0.640  10.990  10.490 -1.3695 -1.7073 -1.5100
  205MOL0     H27646   0.617  11.000  10.312  1.4571 -1.3676 -1.5928
  205MOL0     H27647   0.719  11.195  10.526 -0.4110 -0.5002  0.3717
  205MOL0     H27648   0.786  11.218  10.366 -1.2591  3.3686  1.1310
  205MOL0     H27649   0.477  11.200  10.384  0.2246 -0.3757  0.4586
  205MOL0     H27650   0.592  11.253  10.257  0.1755  3.0060 -0.8807
  205MOL0     H27651   0.586  11.388  10.533 -0.6107  1.6678  0.4544
  205MOL0     H27652   0.680  11.437  10.397 -0.5192  3.3122  3.1891
  205MOL0     H27653   0.381  11.431  10.409  0.1296 -0.8531 -0.6308
  205MOL0     H27654   0.466  11.492  10.265  0.2938  1.4070  1.5222
  205MOL0     H27655   0.551  11.691  10.383  0.4471  0.9522  1.6574
  205MOL0     H27656   0.524  11.618  10.539 -0.7579 -1.0595 -0.0754
  205MOL0     H27657   1.179  10.718  10.591  0.5656 -0.1893 -0.5598
  205MOL0     H27658   1.274  10.512  10.614 -0.1449 -0.4270  1.1218
  205MOL0     H27659   1.182  10.032  10.472  1.6089 -1.4562 -3.0976
  205MOL0     H27660   1.230   9.808  10.500  3.1456 -1.3490 -3.1165
  205MOL0     H27661   1.034   8.038  10.883  0.2004  0.9947 -0.2108
  205MOL0     H27662   0.896   7.840  10.828  0.2485 -0.2965  1.9756
  205MOL0     H27663   0.892   7.343  10.730  0.2419  0.2541 -0.2490
  205MOL0     H27664   0.737   7.178  10.657 -3.6897  0.7054 -0.3326
  205MOL0     H27665   0.611   7.202  10.232  1.3001 -0.5942  0.8475
  205MOL0     H27666   0.562   7.047  10.290  0.7513  0.8809 -0.4179
  205MOL0     H27667   0.374   7.281  10.352 -1.8750 -1.3118  0.8967
  205MOL0     H27668   0.353   7.107  10.356 -2.1154  1.2022  1.6915
  205MOL0     H27669   0.291   7.103  10.127  0.6198 -0.6843 -1.8504
  205MOL0     H27670   0.443   7.163  10.086 -0.3385 -0.4122  1.2588
  205MOL0     H27671   0.217   7.345  10.201  0.0459  0.3771 -0.4109
  205MOL0     H27672   0.221   7.310  10.034 -1.5420  0.5979  0.3160
  205MOL0     H27673   0.562   7.575  10.075  0.0276  1.2884  0.0715
  205MOL0     H27674   0.617   7.419  10.326  0.6278  1.2203 -0.6617
  205MOL0     H27675   0.785   7.598  10.398  2.7365  0.4854  2.4354
  206MOL0     O27676   4.685   5.976   6.031  0.7207 -0.1327 -0.2107
  206MOL0     C27677   4.771   6.021   5.955  0.5826 -0.9014 -0.2820
  206MOL0     O27678   4.909   5.984   5.964 -0.0018 -0.1699  1.3526
  206MOL0     C27679   4.959   5.899   6.066 -0.2367  0.9212  1.4005
  206MOL0     C27680   5.037   5.787   6.038  0.2332 -0.0713  0.1171
  206MOL0     C27681   5.078   5.700   6.142  0.6959 -0.6147 -0.1927
  206MOL0     C27682   5.039   5.734   6.270 -1.5032  0.0171 -0.8722
  206MOL0     O27683   5.079   5.653   6.375  0.7107 -0.3094 -0.1416
  206MOL0     C27684   5.135   5.520   6.346 -0.0899 -0.8849  0.3490
  206MOL0     C27685   5.158   5.462   6.475  0.4336  0.3605  0.0568
  206MOL0     C27686   5.030   5.395   6.533 -0.2776 -0.1145 -0.0353
  206MOL0     C27687   5.002   5.248   6.507  1.0088  0.1321 -0.2022
  206MOL0     C27688   4.859   5.198   6.531 -0.9223 -1.6371 -0.7244
  206MOL0     C27689   4.760   5.225   6.412 -0.1718 -0.1121 -0.3999
  206MOL0     C27690   4.735   5.101   6.338  0.1459 -0.3714 -0.6070
  206MOL0     C27691   4.592   5.048   6.354  0.2910  0.0239 -0.1963
  206MOL0     N27692   4.552   5.001   6.490 -0.2787 -0.2504 -0.7917
  206MOL0     C27693   4.435   5.032   6.547 -0.6478 -0.4844  0.0071
  206MOL0     C27694   4.424   4.960   6.659  0.3609  0.3739  1.1481
  206MOL0     C27695   4.309   4.946   6.748 -0.3271 -0.7566 -0.1461
  206MOL0     C27696   4.231   4.824   6.758  0.2692  0.3494  0.3899
  206MOL0     C27697   4.159   4.762   6.639  1.1111 -0.7385 -0.4920
  206MOL0     C27698   4.059   4.859   6.579 -0.2467 -0.0677 -0.6980
  206MOL0     O27699   3.975   4.791   6.478 -0.0108 -0.3021  0.5204
  206MOL0     C27700   3.885   4.687   6.519  0.0120  0.3161  0.5324
  206MOL0     C27701   3.814   4.628   6.418  0.9885  0.2125 -0.2710
  206MOL0     C27702   3.716   4.525   6.449 -0.2614  0.1398 -0.3713
  206MOL0     C27703   3.639   4.468   6.338 -0.0184  0.1896 -0.9274
  206MOL0     C27704   3.694   4.484   6.589 -0.8961 -0.3113  0.1343
  206MOL0     C27705   3.620   4.366   6.627  0.2609  0.4540 -1.0525
  206MOL0     O27706   3.615   4.330   6.763 -1.1982 -0.1092  0.2773
  206MOL0     C27707   3.586   4.199   6.796 -0.3208  0.3873 -0.8097
  206MOL0     C27708   3.613   4.084   6.724  0.7099  0.7641 -0.1272
  206MOL0     C27709   3.562   3.956   6.768  0.3817  0.2618 -0.7673
  206MOL0     C27710   3.485   3.945   6.886 -0.9707 -0.3925  0.4470
  206MOL0     O27711   3.425   3.820   6.914 -0.4215 -0.1088  0.3559
  206MOL0     C27712   3.389   3.788   7.050 -0.0897 -0.2753 -0.2991
  206MOL0     C27713   3.346   3.647   7.067  0.1268 -0.2624 -0.3456
  206MOL0     C27714   3.228   3.602   6.981 -0.0473 -0.2701 -0.1449
  206MOL0     C27715   3.265   3.476   6.901 -0.0036 -0.1250  0.5132
  206MOL0     C27716   3.152   3.440   6.798  0.1265  0.4649 -0.6573
  206MOL0     C27717   3.181   3.487   6.650  0.3658  0.7502 -1.7879
  206MOL0     C27718   3.054   3.466   6.566  0.2476 -0.5351 -0.0463
  206MOL0     C27719   3.004   3.599   6.496 -0.4686  0.0446  0.3198
  206MOL0    Cl27720   2.846   3.589   6.399  0.4913  0.0824 -0.0245
  206MOL0     C27721   3.473   4.057   6.972 -0.0823 -0.4821 -0.3922
  206MOL0     C27722   3.516   4.181   6.924  0.2137  0.2220 -0.3620
  206MOL0     O27723   3.569   4.298   6.542  0.1306  0.0479  0.0901
  206MOL0     C27724   3.772   4.552   6.682  1.0985 -0.9663 -0.4707
  206MOL0     C27725   3.848   4.657   6.649 -1.3435 -0.1127 -0.6629
  206MOL0     N27726   4.528   4.875   6.655  0.0741 -0.0610 -0.3712
  206MOL0     N27727   4.594   4.894   6.548 -0.9728 -0.1803 -0.2250
  206MOL0     C27728   4.964   5.838   6.299  0.3978 -0.6562 -0.9786
  206MOL0     C27729   4.925   5.926   6.196 -0.3314  0.6288 -0.7297
  206MOL0     C27730   4.724   6.112   5.845  0.0204  0.4580 -0.5326
  206MOL0     C27731   4.826   6.161   5.760  0.1035 -0.6172 -0.0864
  206MOL0     C27732   4.798   6.250   5.652  0.4065 -0.5415  0.4142
  206MOL0     C27733   4.668   6.289   5.632 -0.0022  0.0227 -0.8418
  206MOL0     O27734   4.634   6.364   5.530 -0.1916  0.3909 -0.9885
  206MOL0     C27735   4.530   6.466   5.545 -0.7311  0.1276 -0.8771
  206MOL0     C27736   4.555   6.562   5.672 -0.4234 -0.5467  0.1809
  206MOL0     C27737   4.443   6.673   5.697 -0.5877  0.2278 -0.1160
  206MOL0     C27738   4.302   6.619   5.663 -0.0124  0.5003 -0.3716
  206MOL0     C27739   4.271   6.499   5.748  0.6889 -0.7018 -0.9860
  206MOL0     C27740   4.260   6.404   5.821  0.3124  0.0630  0.1628
  206MOL0     C27741   4.564   6.230   5.713 -0.6447 -0.1451  1.0194
  206MOL0     C27742   4.590   6.140   5.818  0.5318 -0.2941 -1.5624
  206MOL0     H27743   5.065   5.790   5.933 -1.3904  2.2102 -0.3115
  206MOL0     H27744   5.161   5.634   6.118  1.9394  2.0040 -3.9982
  206MOL0     H27745   5.068   5.466   6.279  0.2116  1.4836 -2.0378
  206MOL0     H27746   5.229   5.518   6.291  0.6433 -0.9502  1.5716
  206MOL0     H27747   5.238   5.389   6.464  0.9563  0.6843  1.5637
  206MOL0     H27748   5.176   5.544   6.545  0.4819  3.3302 -3.1672
  206MOL0     H27749   5.047   5.405   6.641  2.5018 -0.2287 -0.4076
  206MOL0     H27750   4.944   5.457   6.507  0.2463  0.3470 -0.6882
  206MOL0     H27751   5.020   5.217   6.404 -1.7092 -2.7868  0.0476
  206MOL0     H27752   5.073   5.197   6.573 -0.8988  0.5848  2.3582
  206MOL0     H27753   4.874   5.094   6.562  0.4480 -1.6725 -1.4361
  206MOL0     H27754   4.818   5.240   6.623  2.7859  0.1178  0.3308
  206MOL0     H27755   4.665   5.262   6.449  0.1590  1.1179 -0.7483
  206MOL0     H27756   4.800   5.312   6.359  0.4685  0.7514  1.4276
  206MOL0     H27757   4.751   5.112   6.230  2.0733 -0.6024 -0.3854
  206MOL0     H27758   4.802   5.019   6.366  1.8729  0.9647 -0.6818
  206MOL0     H27759   4.580   4.956   6.296 -1.4710 -0.4656  0.8687
  206MOL0     H27760   4.519   5.122   6.320  0.2001  0.6136  1.2127
  206MOL0     H27761   4.367   5.104   6.503  1.2010  1.0974 -0.4309
  206MOL0     H27762   4.339   4.966   6.851 -2.2264  0.7166  0.1754
  206MOL0     H27763   4.250   5.025   6.701  3.3028  1.4557 -1.4062
  206MOL0     H27764   4.172   4.834   6.849 -0.2580  0.0148  0.0935
  206MOL0     H27765   4.303   4.749   6.794  0.2638  1.1031  2.0589
  206MOL0     H27766   4.106   4.672   6.673 -1.1045 -0.9669 -4.0198
  206MOL0     H27767   4.227   4.726   6.562 -1.1199 -1.0400 -2.4486
  206MOL0     H27768   4.100   4.956   6.550 -3.9044  1.8344 -0.2006
  206MOL0     H27769   3.993   4.900   6.657  0.6042 -0.8816  0.4976
  206MOL0     H27770   3.841   4.657   6.316 -0.5886  2.1406 -0.2118
  206MOL0     H27771   3.533   4.482   6.360 -0.0221  4.2982 -2.6626
  206MOL0     H27772   3.644   4.506   6.236  1.2510 -1.9395 -1.7144
  206MOL0     H27773   3.671   4.365   6.318  0.5988 -0.0452  1.0034
  206MOL0     H27774   3.660   4.092   6.626  1.5039 -1.3112  0.0315
  206MOL0     H27775   3.565   3.860   6.718 -2.0667 -0.0491 -0.4261
  206MOL0     H27776   3.468   3.813   7.121  0.4568 -1.6001 -0.4072
  206MOL0     H27777   3.309   3.860   7.068  1.1435  1.1150 -0.2396
  206MOL0     H27778   3.420   3.568   7.052 -0.9073 -1.5300  0.9612
  206MOL0     H27779   3.328   3.632   7.173  2.5617 -0.6118  0.0648
  206MOL0     H27780   3.205   3.683   6.912 -0.7591 -0.0920  0.2834
  206MOL0     H27781   3.140   3.590   7.046  0.3952  1.1222  0.7519
  206MOL0     H27782   3.357   3.488   6.843 -1.0527 -0.5995 -1.3132
  206MOL0     H27783   3.296   3.389   6.960  1.1159 -0.6714 -0.8104
  206MOL0     H27784   3.066   3.494   6.838 -1.5965 -0.3645 -2.9909
  206MOL0     H27785   3.137   3.332   6.801  0.2340  0.4224 -1.3708
  206MOL0     H27786   3.201   3.595   6.651 -0.1903  0.9475  2.2051
  206MOL0     H27787   3.274   3.443   6.614  0.2285 -1.2752  0.1426
  206MOL0     H27788   2.980   3.421   6.632 -0.4611  0.4457 -0.1523
  206MOL0     H27789   3.084   3.387   6.496  1.6789 -0.8364  0.8650
  206MOL0     H27790   3.085   3.632   6.430  0.3030 -1.8059  0.2933
  206MOL0     H27791   2.977   3.668   6.577  0.1317  1.3809 -0.5828
  206MOL0     H27792   3.421   4.057   7.068  1.5983 -1.0501  0.5631
  206MOL0     H27793   3.507   4.276   6.977 -0.6490  1.4142 -2.4974
  206MOL0     H27794   3.758   4.528   6.787 -1.2773 -0.5517 -0.6419
  206MOL0     H27795   3.891   4.711   6.733 -0.1956 -0.3367 -1.0848
  206MOL0     H27796   4.960   5.844   6.408  2.4942  3.2436 -0.9473
  206MOL0     H27797   4.879   6.023   6.214  1.6505  1.4328  0.3931
  206MOL0     H27798   4.930   6.145   5.783  0.4712  1.5515 -0.0158
  206MOL0     H27799   4.891   6.284   5.606  2.6716 -0.9005  4.2533
  206MOL0     H27800   4.511   6.523   5.454  2.3981 -0.4290 -1.9867
  206MOL0     H27801   4.438   6.411   5.566  1.1957 -2.8371  0.4220
  206MOL0     H27802   4.659   6.595   5.680 -0.8029  0.6484  0.2578
  206MOL0     H27803   4.552   6.495   5.759  1.0865 -0.2308  0.5113
  206MOL0     H27804   4.460   6.743   5.615 -0.3042  1.5198  1.0047
  206MOL0     H27805   4.446   6.723   5.795  1.9872  0.8564 -0.4548
  206MOL0     H27806   4.289   6.601   5.556 -0.5804  0.3267 -0.2755
  206MOL0     H27807   4.216   6.686   5.670 -1.8509 -1.3496 -3.2801
  206MOL0     H27808   4.239   6.310   5.868 -3.0960  0.4086 -0.4077
  206MOL0     H27809   4.460   6.258   5.699 -0.0637  2.4953  1.2760
  206MOL0     H27810   4.506   6.105   5.878 -0.5471  1.4848 -1.9491
  207MOL0     O27811   2.986   0.603   7.667 -0.5338  0.7436  0.4534
  207MOL0     C27812   2.953   0.714   7.672  0.0509 -0.4296  0.3373
  207MOL0     O27813   2.831   0.765   7.703  0.0677  0.2934 -0.1807
  207MOL0     C27814   2.709   0.694   7.695  1.1921 -0.1627 -0.3078
  207MOL0     C27815   2.605   0.785   7.687  0.4142  0.3176  0.4966
  207MOL0     C27816   2.479   0.731   7.644  0.7423 -1.0681  0.0338
  207MOL0     C27817   2.466   0.597   7.609 -0.3954 -0.1859  0.8735
  207MOL0     O27818   2.350   0.545   7.561  0.4186 -0.9131  0.4117
  207MOL0     C27819   2.277   0.639   7.479  0.9313  0.4274 -0.7040
  207MOL0     C27820   2.154   0.557   7.429 -0.9175  0.8770 -1.4818
  207MOL0     C27821   2.042   0.509   7.521  0.0307  0.1433 -0.3049
  207MOL0     C27822   1.921   0.458   7.445 -0.2337  0.0954 -0.4029
  207MOL0     C27823   1.790   0.513   7.492 -0.3880  0.8719 -0.8831
  207MOL0     C27824   1.785   0.510   7.641  1.0563  0.2391  0.3689
  207MOL0     C27825   1.645   0.515   7.705  0.6686  0.0708 -0.5351
  207MOL0     C27826   1.585   0.652   7.717 -0.1752 -0.6718  0.8327
  207MOL0     N27827   1.455   0.635   7.773  1.2827  0.7399  0.0654
  207MOL0     C27828   1.340   0.601   7.703  0.2440  0.0789 -0.1457
  207MOL0     C27829   1.245   0.603   7.804 -1.1705 -0.5289  0.7162
  207MOL0     C27830   1.102   0.561   7.797 -0.3394  0.2980  0.6792
  207MOL0     C27831   1.011   0.684   7.806 -0.4601 -0.0267 -0.1690
  207MOL0     C27832   0.869   0.644   7.789  0.0026 -0.0837  0.5417
  207MOL0     C27833   0.766   0.753   7.791  0.4429 -0.0994  0.4472
  207MOL0     O27834   0.760   0.833   7.671  0.2264 -0.1948 -0.8530
  207MOL0     C27835   0.645   0.845   7.591  0.0198  0.3415 -0.0184
  207MOL0     C27836   0.516   0.832   7.658  0.2193  0.0650 -0.3840
  207MOL0     C27837   0.400   0.834   7.574  0.4250  0.1255 -0.2776
  207MOL0     C27838   0.269   0.809   7.641 -0.2694 -0.3122  0.0339
  207MOL0     C27839   0.405   0.864   7.438  0.4337 -0.4976 -0.1002
  207MOL0     C27840   0.286   0.868   7.343  0.5513 -1.0112 -0.2731
  207MOL0     O27841   0.161   0.830   7.381 -0.7224  0.2807  0.4172
  207MOL0     C27842   0.058   0.797   7.301  0.4389 -0.5085 -0.4697
  207MOL0     C27843   0.060   0.779   7.159  0.1968  0.1312 -0.5205
  207MOL0     C27844  -0.058   0.737   7.102 -0.2201  0.9419  0.5289
  207MOL0     C27845  -0.179   0.718   7.167  0.5362  0.4037 -1.0892
  207MOL0     O27846  -0.298   0.676   7.104 -1.0137 -0.6240  0.2281
  207MOL0     C27847  -0.311   0.632   6.972 -0.9215 -0.6370 -1.1757
  207MOL0     C27848  -0.458   0.607   6.961 -0.2223  0.1316  0.1277
  207MOL0     C27849  -0.542   0.728   6.961 -0.0531 -0.1587  0.1136
  207MOL0     C27850  -0.678   0.710   7.032  0.4352  1.0268  0.2882
  207MOL0     C27851  -0.785   0.817   7.001  1.0284 -0.1121 -0.6907
  207MOL0     C27852  -0.824   0.816   6.857 -0.0444  0.3389 -0.9318
  207MOL0     C27853  -0.907   0.929   6.795 -0.6082  0.6200  0.4311
  207MOL0     C27854  -0.900   0.930   6.642 -0.7596 -0.0549 -0.8493
  207MOL0    Cl27855  -0.920   0.775   6.569  0.5191  0.0582 -0.0754
  207MOL0     C27856  -0.187   0.751   7.306 -0.0564  0.7767  0.5629
  207MOL0     C27857  -0.066   0.790   7.366 -0.8669 -0.3192  0.3173
  207MOL0     O27858   0.309   0.927   7.239  0.6811 -0.1868 -0.1847
  207MOL0     C27859   0.533   0.890   7.391 -0.1521  0.4779  0.3974
  207MOL0     C27860   0.651   0.868   7.466  0.1026 -0.5428  0.1948
  207MOL0     N27861   1.297   0.666   7.917 -0.5151  0.3323 -0.2440
  207MOL0     N27862   1.425   0.694   7.892 -0.1054 -0.4944  1.0941
  207MOL0     C27863   2.569   0.509   7.631 -0.4749 -1.0173  0.5211
  207MOL0     C27864   2.697   0.560   7.664  0.3372  0.0886 -0.7953
  207MOL0     C27865   3.068   0.818   7.675 -0.2336  0.0208 -0.2829
  207MOL0     C27866   3.031   0.949   7.690 -0.0394 -0.1357  0.2610
  207MOL0     C27867   3.129   1.048   7.706  0.9760 -0.8985 -0.4011
  207MOL0     C27868   3.263   1.016   7.692  0.4954  0.5375 -0.5195
  207MOL0     O27869   3.368   1.104   7.712 -0.4887 -0.2347 -0.2513
  207MOL0     C27870   3.345   1.246   7.734 -0.3367  0.8200  0.1050
  207MOL0     C27871   3.463   1.332   7.694  0.7625 -0.0917 -0.2443
  207MOL0     C27872   3.573   1.302   7.803 -0.1109  0.8400  0.2868
  207MOL0     C27873   3.708   1.375   7.785  0.1812 -0.9361 -0.6001
  207MOL0     C27874   3.797   1.276   7.721  0.2669 -1.1679  0.3272
  207MOL0     C27875   3.863   1.196   7.661 -0.0857 -0.2724 -0.4074
  207MOL0     C27876   3.303   0.885   7.659  0.5071  0.3432  0.6141
  207MOL0     C27877   3.202   0.781   7.658 -0.3909 -0.6157 -0.1138
  207MOL0     H27878   2.612   0.892   7.705 -2.6873  0.1773  3.5455
  207MOL0     H27879   2.400   0.803   7.626  1.3409 -0.9762 -2.4937
  207MOL0     H27880   2.231   0.724   7.530 -1.5369 -2.8218  3.1165
  207MOL0     H27881   2.337   0.674   7.395 -0.2030  0.7382 -1.3943
  207MOL0     H27882   2.104   0.633   7.368  1.4105  3.2386 -0.6414
  207MOL0     H27883   2.188   0.468   7.376  1.0372 -0.3200  1.5217
  207MOL0     H27884   2.080   0.428   7.584 -1.3958 -1.9025 -1.9081
  207MOL0     H27885   2.017   0.589   7.591  0.2412 -1.2976  1.5098
  207MOL0     H27886   1.936   0.474   7.338  4.7027 -2.5239 -0.3917
  207MOL0     H27887   1.926   0.350   7.456  1.1481 -0.4268 -4.5657
  207MOL0     H27888   1.776   0.617   7.461  2.6236  2.1935  1.7123
  207MOL0     H27889   1.701   0.458   7.459 -1.2314  0.9948  1.0270
  207MOL0     H27890   1.819   0.413   7.679 -3.3446 -0.3225  3.6456
  207MOL0     H27891   1.845   0.588   7.689 -0.5671  1.5938  0.2910
  207MOL0     H27892   1.572   0.460   7.645  2.6530 -0.7547 -2.3419
  207MOL0     H27893   1.656   0.478   7.808  0.7569 -1.3417 -1.0228
  207MOL0     H27894   1.590   0.700   7.619  0.0852  1.5670  1.8759
  207MOL0     H27895   1.648   0.712   7.783  2.3512 -0.4202 -1.6563
  207MOL0     H27896   1.333   0.566   7.601  1.4991 -1.2840  0.1832
  207MOL0     H27897   1.079   0.512   7.702  1.4046  2.0870 -0.7626
  207MOL0     H27898   1.088   0.487   7.877 -1.1597 -1.0279 -0.6464
  207MOL0     H27899   1.043   0.758   7.731 -4.1882  0.6118 -1.3049
  207MOL0     H27900   1.021   0.727   7.906 -0.0942 -0.0341 -0.1997
  207MOL0     H27901   0.839   0.582   7.874  0.6739 -0.5642  0.4337
  207MOL0     H27902   0.855   0.581   7.701  1.8248 -0.9917  0.8585
  207MOL0     H27903   0.787   0.816   7.878  0.3701  1.8071 -0.8314
  207MOL0     H27904   0.671   0.700   7.801 -1.1338  2.2486 -1.0792
  207MOL0     H27905   0.515   0.842   7.766  2.7401  2.2994 -0.4724
  207MOL0     H27906   0.276   0.808   7.751 -0.3680  1.3101  0.0788
  207MOL0     H27907   0.211   0.898   7.613 -1.0737  0.2018  2.9587
  207MOL0     H27908   0.241   0.707   7.613  2.9619 -1.3045  0.0298
  207MOL0     H27909   0.151   0.780   7.100  1.1570 -3.7234  0.5653
  207MOL0     H27910  -0.038   0.688   7.007  2.5412 -0.2949  1.6224
  207MOL0     H27911  -0.272   0.718   6.918  2.4629  1.0010  3.2626
  207MOL0     H27912  -0.259   0.537   6.954  0.3878 -0.3978  1.0319
  207MOL0     H27913  -0.471   0.550   6.869  0.5200  0.4143 -0.1534
  207MOL0     H27914  -0.493   0.538   7.040 -1.0081  2.0023  1.4901
  207MOL0     H27915  -0.535   0.758   6.856  0.7263 -0.2183  0.1427
  207MOL0     H27916  -0.491   0.809   7.014  3.2670 -1.5943 -0.6455
  207MOL0     H27917  -0.713   0.612   6.998  1.0397  1.1963 -0.8841
  207MOL0     H27918  -0.679   0.689   7.140 -2.8231 -2.4341 -0.1939
  207MOL0     H27919  -0.745   0.916   7.024  1.7378 -1.1408  3.3016
  207MOL0     H27920  -0.873   0.799   7.063  0.7785 -0.2402 -1.0842
  207MOL0     H27921  -0.727   0.817   6.807  3.2551 -2.3931  4.5017
  207MOL0     H27922  -0.865   0.716   6.841  1.7747 -0.4049 -1.1730
  207MOL0     H27923  -0.871   1.027   6.830  4.2067 -0.9015  0.4654
  207MOL0     H27924  -1.012   0.919   6.822  0.1608 -2.0169  2.8432
  207MOL0     H27925  -0.802   0.969   6.611 -0.5110 -0.4130 -0.5101
  207MOL0     H27926  -0.977   1.001   6.610 -0.0328 -0.3838 -3.5818
  207MOL0     H27927  -0.278   0.740   7.364 -0.2422  0.8365  0.2798
  207MOL0     H27928  -0.070   0.799   7.474  0.8603  1.4655  0.2750
  207MOL0     H27929   0.564   0.926   7.294  1.1287  1.1539  1.0253
  207MOL0     H27930   0.750   0.888   7.425 -1.6188  1.1996 -3.6585
  207MOL0     H27931   2.549   0.402   7.629  2.1641 -1.6124  1.4234
  207MOL0     H27932   2.789   0.503   7.665  2.3708  3.0824  1.7686
  207MOL0     H27933   2.928   0.981   7.699  0.3716  1.3566 -0.0581
  207MOL0     H27934   3.091   1.142   7.744  1.1030 -0.3212 -1.6411
  207MOL0     H27935   3.266   1.277   7.665  0.3629  1.4399 -0.4280
  207MOL0     H27936   3.311   1.256   7.838 -1.6796 -2.7440  0.1478
  207MOL0     H27937   3.446   1.440   7.697 -0.4775 -0.2905  0.2171
  207MOL0     H27938   3.494   1.311   7.591  0.3899 -1.1095 -0.1586
  207MOL0     H27939   3.593   1.195   7.799  0.3453  0.9613 -0.7603
  207MOL0     H27940   3.525   1.330   7.898 -2.2834  3.1481 -1.3672
  207MOL0     H27941   3.750   1.407   7.881 -0.5163  1.3489 -1.0094
  207MOL0     H27942   3.698   1.466   7.725 -1.2773  0.2181  1.2666
  207MOL0     H27943   3.914   1.122   7.603 -2.0678 -0.4072 -2.0854
  207MOL0     H27944   3.406   0.857   7.641 -0.1730 -1.0821 -1.3783
  207MOL0     H27945   3.221   0.677   7.636  2.4107 -0.4694  1.2025
  208MOL0     O27946   5.329   1.522   1.434  0.2544 -0.4423  0.5752
  208MOL0     C27947   5.385   1.591   1.525  0.4868 -0.2522  0.1366
  208MOL0     O27948   5.399   1.720   1.519 -0.3157  0.6132  0.0837
  208MOL0     C27949   5.337   1.795   1.415 -0.5131  0.3500 -0.9585
  208MOL0     C27950   5.402   1.819   1.296 -0.5352  0.1494 -0.5838
  208MOL0     C27951   5.331   1.893   1.193 -0.0391 -0.2050  0.2571
  208MOL0     C27952   5.210   1.951   1.225 -0.5814  0.2203  0.1320
  208MOL0     O27953   5.157   2.044   1.145  0.0309 -0.7592  0.0271
  208MOL0     C27954   5.208   2.071   1.015  0.7066  0.5353  0.1099
  208MOL0     C27955   5.146   2.196   0.944 -0.1421 -0.1037 -0.7017
  208MOL0     C27956   4.994   2.196   0.947  0.1228 -0.4374  0.1116
  208MOL0     C27957   4.927   2.269   0.839 -0.0362  0.8891  0.5051
  208MOL0     C27958   4.774   2.247   0.826  0.1489 -0.5705 -0.7880
  208MOL0     C27959   4.716   2.295   0.694  0.3502 -0.5773  0.1222
  208MOL0     C27960   4.561   2.268   0.683  0.5261  1.8525 -1.0639
  208MOL0     C27961   4.503   2.364   0.575 -0.5538  0.2031 -0.5121
  208MOL0     N27962   4.374   2.315   0.530  0.7813  0.2332 -0.2007
  208MOL0     C27963   4.258   2.285   0.590 -0.0164  0.3707  0.5048
  208MOL0     C27964   4.186   2.223   0.485 -0.4949 -0.2653 -1.4916
  208MOL0     C27965   4.059   2.145   0.496  0.0848 -0.6847  0.2484
  208MOL0     C27966   4.082   2.023   0.582  0.3550  0.0533  0.2417
  208MOL0     C27967   4.170   1.914   0.521 -0.4824 -1.2945  1.3962
  208MOL0     C27968   4.206   1.807   0.619  0.6176  0.4518  0.5350
  208MOL0     O27969   4.300   1.716   0.568 -0.0975 -0.3515  0.5175
  208MOL0     C27970   4.354   1.617   0.653  0.5060 -0.2344 -0.7014
  208MOL0     C27971   4.434   1.517   0.602 -0.5278 -0.0373  0.2979
  208MOL0     C27972   4.511   1.426   0.679 -0.1379 -0.5862  0.6755
  208MOL0     C27973   4.578   1.317   0.608  0.3747 -0.0050 -0.1467
  208MOL0     C27974   4.514   1.440   0.818  0.0826 -0.1676  0.3722
  208MOL0     C27975   4.594   1.349   0.910 -0.5356 -0.9255  0.3964
  208MOL0     O27976   4.649   1.239   0.864  0.6485 -0.2703  0.9953
  208MOL0     C27977   4.697   1.143   0.948  0.4742  0.2736  0.4792
  208MOL0     C27978   4.631   1.086   1.064  0.3359 -0.2333  0.8609
  208MOL0     C27979   4.691   0.997   1.151  0.6072  0.1496  0.6519
  208MOL0     C27980   4.829   0.955   1.125  0.1236 -0.4577 -0.3088
  208MOL0     O27981   4.904   0.861   1.194  0.3668 -0.1734  0.9536
  208MOL0     C27982   4.838   0.804   1.316 -0.7455 -0.9847  0.2333
  208MOL0     C27983   4.930   0.702   1.360 -0.1345  0.0317  0.0098
  208MOL0     C27984   4.868   0.637   1.483 -0.1822  0.3093  1.0296
  208MOL0     C27985   4.768   0.523   1.466 -0.1270  0.5624  0.0609
  208MOL0     C27986   4.832   0.391   1.416  0.9041  0.2540  0.2147
  208MOL0     C27987   4.734   0.274   1.407 -0.2502 -0.1753  0.2447
  208MOL0     C27988   4.805   0.150   1.352 -0.4884  0.2990 -0.3513
  208MOL0     C27989   4.719   0.025   1.328 -0.2516 -0.7031 -0.3295
  208MOL0    Cl27990   4.656  -0.042   1.480 -0.1998 -0.2997  0.3397
  208MOL0     C27991   4.894   1.005   1.011  0.2861 -0.0743  0.2962
  208MOL0     C27992   4.832   1.101   0.922  0.4438  0.2680 -1.7416
  208MOL0     O27993   4.601   1.392   1.024 -0.5705  0.4597 -0.5063
  208MOL0     C27994   4.442   1.549   0.873  0.1934  0.1471 -0.6545
  208MOL0     C27995   4.347   1.620   0.795 -0.2484  0.8030 -0.2024
  208MOL0     N27996   4.264   2.219   0.372  0.4469  0.5484 -0.2783
  208MOL0     N27997   4.372   2.271   0.402 -0.0093  0.5061 -0.1459
  208MOL0     C27998   5.153   1.933   1.350  0.9492  0.0979 -0.2019
  208MOL0     C27999   5.214   1.845   1.449 -0.4170 -0.1264 -0.6596
  208MOL0     C28000   5.445   1.520   1.638  0.7173  0.1976 -0.2712
  208MOL0     C28001   5.498   1.587   1.746 -0.1175  0.4764 -0.5967
  208MOL0     C28002   5.570   1.513   1.843 -0.0294  0.1545 -0.6524
  208MOL0     C28003   5.604   1.377   1.834  0.4822 -0.3839  0.3737
  208MOL0     O28004   5.671   1.305   1.924 -0.0611  1.0641  1.0588
  208MOL0     C28005   5.771   1.374   1.996  0.0512  0.5573  0.0998
  208MOL0     C28006   5.711   1.437   2.123  0.0956 -0.2460 -0.4098
  208MOL0     C28007   5.818   1.491   2.219 -0.6460  0.9555 -0.1925
  208MOL0     C28008   5.767   1.538   2.362 -0.2053  0.1272  0.2864
  208MOL0     C28009   5.884   1.510   2.449 -0.1998 -0.8206  0.0194
  208MOL0     C28010   5.979   1.476   2.516 -0.4532 -0.1115  0.1134
  208MOL0     C28011   5.531   1.310   1.737  0.7048 -0.3144 -0.0477
  208MOL0     C28012   5.459   1.382   1.638  0.2179 -0.2339 -0.1180
  208MOL0     H28013   5.490   1.764   1.265 -0.6321  0.3389 -1.2128
  208MOL0     H28014   5.365   1.891   1.089 -3.6555  2.5972 -1.1789
  208MOL0     H28015   5.316   2.088   1.027  0.6705  1.5550 -0.8743
  208MOL0     H28016   5.190   1.984   0.952  2.6314  0.8290 -0.9280
  208MOL0     H28017   5.188   2.278   1.003 -1.4852  0.1451 -0.0421
  208MOL0     H28018   5.194   2.204   0.846 -0.8802  0.2059 -1.0508
  208MOL0     H28019   4.954   2.094   0.950 -2.5492  0.4767 -0.7609
  208MOL0     H28020   4.968   2.246   1.041 -0.4433 -0.5914  0.0439
  208MOL0     H28021   4.958   2.373   0.847 -0.5393  0.9943  1.2450
  208MOL0     H28022   4.970   2.233   0.745 -2.0316  3.5737 -1.5986
  208MOL0     H28023   4.761   2.139   0.832  1.5898 -0.9020 -2.6054
  208MOL0     H28024   4.723   2.293   0.910  1.4276 -3.2867  1.6436
  208MOL0     H28025   4.745   2.400   0.693  0.2749 -0.5417 -1.7392
  208MOL0     H28026   4.764   2.245   0.608 -0.1202  1.3497 -1.3371
  208MOL0     H28027   4.536   2.162   0.668 -1.4608  1.5509  3.0378
  208MOL0     H28028   4.518   2.293   0.781  1.5205  1.9326 -0.6403
  208MOL0     H28029   4.572   2.361   0.490  1.0935 -2.6189  0.7845
  208MOL0     H28030   4.494   2.465   0.616 -0.5074 -0.2665  0.6868
  208MOL0     H28031   4.220   2.289   0.691  1.5065 -0.6873  1.1583
  208MOL0     H28032   3.982   2.213   0.535 -0.6159 -0.7648 -0.9580
  208MOL0     H28033   4.021   2.109   0.400 -1.3950  2.6269 -0.5868
  208MOL0     H28034   3.983   1.976   0.586 -1.7627  4.1054  0.3705
  208MOL0     H28035   4.113   2.043   0.685 -0.1204 -1.8449  0.7838
  208MOL0     H28036   4.260   1.966   0.488 -1.5448 -0.8366 -1.0223
  208MOL0     H28037   4.118   1.880   0.431 -0.7003  0.5614  0.7799
  208MOL0     H28038   4.110   1.758   0.639  0.0116  1.5338  0.3235
  208MOL0     H28039   4.236   1.855   0.713 -2.2103 -0.6846  2.1739
  208MOL0     H28040   4.441   1.515   0.494 -1.5689 -1.0926  0.2271
  208MOL0     H28041   4.519   1.225   0.614  2.9788 -1.7848 -0.1472
  208MOL0     H28042   4.588   1.343   0.502  0.4821  0.1958 -0.0869
  208MOL0     H28043   4.683   1.305   0.634  0.9095  3.4704 -0.1624
  208MOL0     H28044   4.530   1.122   1.079  0.5264  1.3378 -1.0290
  208MOL0     H28045   4.633   0.952   1.231 -2.9170 -0.2248 -1.8544
  208MOL0     H28046   4.818   0.873   1.398 -0.6897 -0.2685 -0.3415
  208MOL0     H28047   4.745   0.748   1.299 -0.4661 -1.1891 -0.7252
  208MOL0     H28048   4.944   0.627   1.281 -1.3653  0.9566 -1.1174
  208MOL0     H28049   5.028   0.747   1.376 -0.9275  2.8341 -2.3115
  208MOL0     H28050   4.827   0.714   1.549  2.9809 -0.1192  3.7426
  208MOL0     H28051   4.956   0.597   1.533  1.1366  1.5305 -0.2094
  208MOL0     H28052   4.726   0.519   1.567 -0.0442  0.5252  0.0943
  208MOL0     H28053   4.688   0.536   1.393  0.1017 -5.0045 -1.6038
  208MOL0     H28054   4.903   0.368   1.495 -0.4977  1.4557  1.9106
  208MOL0     H28055   4.864   0.413   1.314  0.2480  2.6906  0.4570
  208MOL0     H28056   4.686   0.249   1.502  0.7045  0.1991  0.8342
  208MOL0     H28057   4.679   0.300   1.316 -0.0394 -1.4622 -0.2741
  208MOL0     H28058   4.899   0.134   1.407 -1.7169 -3.6100  0.9514
  208MOL0     H28059   4.833   0.173   1.249  1.3636 -0.1860 -0.0022
  208MOL0     H28060   4.769  -0.048   1.263  1.2230 -0.4836  0.5031
  208MOL0     H28061   4.627   0.051   1.275 -0.5708 -1.1415  0.0129
  208MOL0     H28062   4.995   0.972   0.989  0.4578 -0.3136  1.4033
  208MOL0     H28063   4.899   1.145   0.850  1.7153  0.2178 -0.6314
  208MOL0     H28064   4.453   1.579   0.976  0.8238 -0.9222 -0.3930
  208MOL0     H28065   4.277   1.682   0.849 -1.5226 -0.9703  0.2859
  208MOL0     H28066   5.063   1.981   1.386 -0.2807 -1.6316 -0.8525
  208MOL0     H28067   5.168   1.831   1.546  1.2551  3.0660  0.7317
  208MOL0     H28068   5.502   1.695   1.746 -5.2239  1.0215  3.2509
  208MOL0     H28069   5.611   1.577   1.921  0.3268 -0.6068 -0.2054
  208MOL0     H28070   5.844   1.300   2.031 -0.0829  0.1924 -0.3915
  208MOL0     H28071   5.818   1.442   1.925  1.3765 -1.2948 -0.8738
  208MOL0     H28072   5.670   1.350   2.177 -2.0967  0.7439 -0.3574
  208MOL0     H28073   5.624   1.503   2.114  1.1900  1.5070  1.1743
  208MOL0     H28074   5.858   1.579   2.168  0.2038  0.6208 -0.1090
  208MOL0     H28075   5.895   1.415   2.232 -1.6745  0.0313  0.7785
  208MOL0     H28076   5.681   1.481   2.396  0.3241 -0.5126  0.5829
  208MOL0     H28077   5.748   1.646   2.367  0.5127  0.2263  1.3729
  208MOL0     H28078   6.052   1.437   2.584 -1.0646  2.5235  2.5054
  208MOL0     H28079   5.549   1.203   1.735 -4.7712 -1.5500  0.0656
  208MOL0     H28080   5.426   1.327   1.550  2.0278  0.2717 -1.1514
  209MOL0     O28081   1.280   4.171   4.974  0.1946  0.0033 -0.1258
  209MOL0     C28082   1.319   4.180   4.856 -0.1369 -0.4415  0.9467
  209MOL0     O28083   1.328   4.298   4.788 -0.3863 -0.1162 -0.2528
  209MOL0     C28084   1.307   4.422   4.846  0.6112  0.1835  1.3809
  209MOL0     C28085   1.191   4.492   4.799  0.3476 -0.2926  0.2682
  209MOL0     C28086   1.155   4.619   4.841  0.4037 -0.1997 -0.2086
  209MOL0     C28087   1.240   4.674   4.951  0.2632 -0.0123  1.2801
  209MOL0     O28088   1.201   4.792   5.006 -1.3843  0.1120 -0.4671
  209MOL0     C28089   1.073   4.840   5.007  0.0140  0.7596 -0.9050
  209MOL0     C28090   1.064   4.963   5.097 -0.4815 -0.6002  0.1927
  209MOL0     C28091   1.059   4.926   5.253  0.6375 -0.7535 -0.1927
  209MOL0     C28092   1.132   5.020   5.346  0.1290 -0.3973 -0.2695
  209MOL0     C28093   1.099   4.969   5.485  0.2785  0.3338 -0.5205
  209MOL0     C28094   1.168   5.076   5.581 -0.4876  0.1765  0.5608
  209MOL0     C28095   1.166   5.047   5.728  0.1933  0.6237  0.2884
  209MOL0     C28096   1.026   4.999   5.783  0.3056  0.2118 -0.4379
  209MOL0     N28097   0.918   5.105   5.766 -0.9716  0.7710  0.0714
  209MOL0     C28098   0.922   5.242   5.796 -0.5329 -0.3363 -0.7209
  209MOL0     C28099   0.813   5.293   5.736 -0.1860  0.0447  0.7818
  209MOL0     C28100   0.788   5.439   5.753  1.0196  0.9129  0.0497
  209MOL0     C28101   0.673   5.452   5.858 -0.2021 -0.5085 -0.4701
  209MOL0     C28102   0.623   5.596   5.886  0.1451 -0.2947 -0.1212
  209MOL0     C28103   0.721   5.703   5.928 -0.5594  0.9875  1.0919
  209MOL0     O28104   0.780   5.662   6.049  0.2948 -0.2717 -0.5674
  209MOL0     C28105   0.887   5.732   6.091 -0.5440 -0.0670 -0.1869
  209MOL0     C28106   0.944   5.852   6.046  1.4465 -0.5653 -0.0034
  209MOL0     C28107   1.065   5.897   6.091 -0.5090  0.2871  0.3497
  209MOL0     C28108   1.124   6.026   6.023  1.0246  0.7130  0.4899
  209MOL0     C28109   1.139   5.812   6.176  0.1688  0.4366 -0.7972
  209MOL0     C28110   1.280   5.830   6.212 -1.1584 -0.8507  0.0224
  209MOL0     O28111   1.367   5.860   6.099  0.7646  0.1954  0.4826
  209MOL0     C28112   1.503   5.866   6.120  0.2334 -0.0627 -0.5389
  209MOL0     C28113   1.581   5.783   6.208  0.3010 -0.7008 -0.2404
  209MOL0     C28114   1.711   5.825   6.243  0.0030 -0.2970  0.1163
  209MOL0     C28115   1.769   5.946   6.198 -0.1268  0.6036 -0.3077
  209MOL0     O28116   1.897   5.975   6.232  0.0502 -0.0039 -0.1137
  209MOL0     C28117   1.909   6.063   6.345  0.0273 -0.0096 -0.3178
  209MOL0     C28118   2.013   6.173   6.320  0.7016 -0.9799 -1.1039
  209MOL0     C28119   2.145   6.110   6.317  0.3843  0.0281  0.5035
  209MOL0     C28120   2.258   6.199   6.276  0.6322 -0.3257 -0.1796
  209MOL0     C28121   2.368   6.203   6.384  0.5352  0.5821 -0.2171
  209MOL0     C28122   2.491   6.284   6.333  0.1557 -0.3151 -1.0349
  209MOL0     C28123   2.608   6.279   6.428  0.2837 -0.4414 -0.6350
  209MOL0     C28124   2.595   6.318   6.574  0.2480 -1.1122  0.3857
  209MOL0    Cl28125   2.759   6.332   6.650 -0.0418  0.0336 -0.1280
  209MOL0     C28126   1.695   6.019   6.103 -0.4976  0.2581  0.5208
  209MOL0     C28127   1.565   5.972   6.054  0.0201 -0.9758  0.5164
  209MOL0     O28128   1.315   5.792   6.322 -0.4206  0.3086 -0.5970
  209MOL0     C28129   1.082   5.689   6.228  1.6881 -0.5776 -0.1549
  209MOL0     C28130   0.953   5.656   6.190  0.0164  0.2424 -0.6151
  209MOL0     N28131   0.744   5.194   5.661  0.2803 -0.3700  0.4481
  209MOL0     N28132   0.814   5.081   5.671 -0.2462 -0.3191 -0.4750
  209MOL0     C28133   1.357   4.598   4.991  0.2870 -0.4244  0.1784
  209MOL0     C28134   1.384   4.472   4.941 -0.3096 -0.0439 -0.2781
  209MOL0     C28135   1.332   4.055   4.769 -0.7449 -0.3328  0.1697
  209MOL0     C28136   1.368   3.930   4.820  0.1035  0.0171  0.3943
  209MOL0     C28137   1.402   3.825   4.729  0.2877  1.1595  0.3182
  209MOL0     C28138   1.406   3.847   4.583 -0.5868  0.5114 -0.1911
  209MOL0     O28139   1.426   3.752   4.485 -0.2039 -0.1144 -0.3920
  209MOL0     C28140   1.372   3.620   4.515 -0.0226 -0.2893 -0.6934
  209MOL0     C28141   1.367   3.544   4.391 -0.3205  0.6644  0.0208
  209MOL0     C28142   1.261   3.573   4.290 -0.0220 -0.1059  0.0012
  209MOL0     C28143   1.158   3.460   4.294  0.8493 -0.4611  0.5079
  209MOL0     C28144   1.207   3.321   4.274  0.9298 -0.5532  1.0544
  209MOL0     C28145   1.258   3.209   4.265  0.0315 -0.6200  0.3488
  209MOL0     C28146   1.377   3.975   4.547  0.1763  0.1128 -0.9618
  209MOL0     C28147   1.342   4.077   4.637  0.0226  1.1085 -1.0247
  209MOL0     H28148   1.118   4.447   4.732 -3.3726  2.1120  2.3440
  209MOL0     H28149   1.056   4.655   4.814 -2.6858 -5.7077  2.0759
  209MOL0     H28150   1.046   4.863   4.903 -4.1702 -3.2823 -1.0561
  209MOL0     H28151   1.000   4.764   5.034  1.4693 -0.5087 -0.4448
  209MOL0     H28152   1.151   5.027   5.081 -0.7565  0.5150  2.7099
  209MOL0     H28153   0.967   5.013   5.083 -1.2311 -0.9228  3.4726
  209MOL0     H28154   0.955   4.911   5.285 -0.9852  4.7179 -1.7597
  209MOL0     H28155   1.105   4.827   5.253  2.0685 -0.1157  0.8129
  209MOL0     H28156   1.238   5.011   5.320  0.7584 -0.0456  1.9591
  209MOL0     H28157   1.095   5.123   5.344 -1.5555 -0.9744 -2.2821
  209MOL0     H28158   0.995   4.957   5.516 -0.1148  0.9348 -1.5349
  209MOL0     H28159   1.132   4.865   5.486 -1.7424 -0.3915 -2.2128
  209MOL0     H28160   1.273   5.085   5.552 -0.5481  2.9795  0.9776
  209MOL0     H28161   1.128   5.177   5.571  2.4568  1.7028  2.5339
  209MOL0     H28162   1.244   4.974   5.748  3.4651  3.2741 -1.6075
  209MOL0     H28163   1.206   5.138   5.773  1.8654  1.6930 -3.0271
  209MOL0     H28164   1.034   4.969   5.888  3.8084 -2.1689 -1.1901
  209MOL0     H28165   0.997   4.914   5.721 -0.4256 -0.2356  0.4844
  209MOL0     H28166   0.998   5.296   5.852  1.6183 -0.0948 -3.6167
  209MOL0     H28167   0.878   5.496   5.779 -0.9911  3.4299  2.0560
  209MOL0     H28168   0.753   5.479   5.657 -4.2254 -1.4393  0.6506
  209MOL0     H28169   0.713   5.412   5.952  1.2312 -1.5092 -1.4668
  209MOL0     H28170   0.599   5.383   5.817  1.4064 -2.4639 -0.2428
  209MOL0     H28171   0.542   5.589   5.960 -0.1400  3.8540  0.1501
  209MOL0     H28172   0.581   5.623   5.789  1.3428  2.7164  0.0979
  209MOL0     H28173   0.667   5.796   5.945 -2.1205  0.2930  0.1905
  209MOL0     H28174   0.800   5.724   5.855 -1.3512  0.5121  0.0630
  209MOL0     H28175   0.887   5.907   5.971 -1.5290  0.4012  2.7497
  209MOL0     H28176   1.165   6.091   6.101 -0.0903  2.0108  0.0200
  209MOL0     H28177   1.195   5.985   5.951  0.4009 -1.3617  0.9973
  209MOL0     H28178   1.045   6.090   5.984  0.7658 -0.0393 -0.2300
  209MOL0     H28179   1.534   5.702   6.263  2.2231 -0.4553  1.9181
  209MOL0     H28180   1.780   5.780   6.313  0.3009 -1.5016 -0.9334
  209MOL0     H28181   1.808   6.101   6.360 -0.2217 -0.2090 -1.4384
  209MOL0     H28182   1.946   6.006   6.431  2.6521  1.7947 -0.1096
  209MOL0     H28183   1.984   6.222   6.227 -0.2084 -0.7705 -0.7240
  209MOL0     H28184   2.008   6.255   6.392 -0.1144  0.0148 -2.2507
  209MOL0     H28185   2.155   6.032   6.241  2.6032  1.6866 -1.0394
  209MOL0     H28186   2.162   6.055   6.410  0.6665  0.4110  0.6792
  209MOL0     H28187   2.311   6.147   6.195  1.8591  1.8262 -0.8625
  209MOL0     H28188   2.230   6.300   6.245 -1.5908 -0.4944  1.1039
  209MOL0     H28189   2.399   6.100   6.401  3.3405  1.1019 -1.6348
  209MOL0     H28190   2.329   6.245   6.477 -0.0621  0.3175 -0.3451
  209MOL0     H28191   2.525   6.236   6.241  0.8110 -0.8619 -0.5178
  209MOL0     H28192   2.452   6.383   6.307  0.4141 -0.2118 -1.0325
  209MOL0     H28193   2.693   6.335   6.387  2.3492 -2.3449  0.8119
  209MOL0     H28194   2.643   6.175   6.431 -1.4190 -1.2360 -3.7462
  209MOL0     H28195   2.525   6.264   6.638 -0.2433  0.1416  0.9372
  209MOL0     H28196   2.555   6.420   6.573 -0.9395 -1.5176 -2.0494
  209MOL0     H28197   1.756   6.092   6.052  0.9651 -2.0726 -1.2697
  209MOL0     H28198   1.511   6.040   5.989 -0.5845 -0.2793  1.7133
  209MOL0     H28199   1.143   5.622   6.288  2.1657 -0.4759 -0.5141
  209MOL0     H28200   0.907   5.568   6.234 -0.6037  2.1375  2.8934
  209MOL0     H28201   1.424   4.639   5.065  0.2230 -1.4991  0.8424
  209MOL0     H28202   1.471   4.414   4.972  1.9008  1.3909 -3.2296
  209MOL0     H28203   1.370   3.924   4.929 -0.0389  1.4452  0.4944
  209MOL0     H28204   1.439   3.731   4.768  2.1264  1.3545 -0.7969
  209MOL0     H28205   1.435   3.569   4.589  1.4642  3.5862  0.9759
  209MOL0     H28206   1.267   3.633   4.543 -0.2141 -0.8719 -1.1360
  209MOL0     H28207   1.369   3.441   4.428 -0.1605  0.2809 -1.0143
  209MOL0     H28208   1.469   3.566   4.358 -0.8319  2.4988 -0.4596
  209MOL0     H28209   1.307   3.578   4.191  0.8907  2.2690  0.4690
  209MOL0     H28210   1.220   3.671   4.317  1.1906 -0.0393  1.7435
  209MOL0     H28211   1.075   3.488   4.229 -1.5444  0.3153  3.6143
  209MOL0     H28212   1.116   3.455   4.395 -3.2456  0.0810 -1.0013
  209MOL0     H28213   1.284   3.105   4.264 -1.1148 -0.9560  2.0643
  209MOL0     H28214   1.405   4.017   4.451  0.8826  2.8457  0.3349
  209MOL0     H28215   1.330   4.177   4.596 -0.2303  1.8620  0.7701
  210MOL0     O28216   8.854   1.024   6.507 -0.4148  0.9481  0.1219
  210MOL0     C28217   8.965   1.076   6.486 -0.6392 -0.1836 -0.7189
  210MOL0     O28218   8.992   1.207   6.470  0.1300  0.1641  0.5572
  210MOL0     C28219   8.880   1.286   6.507 -0.1439  0.3388 -0.7229
  210MOL0     C28220   8.773   1.289   6.420 -0.6922  0.4726 -0.4258
  210MOL0     C28221   8.681   1.392   6.438 -0.0717 -0.2061 -0.4598
  210MOL0     C28222   8.663   1.469   6.559 -0.3191 -1.0064  0.5950
  210MOL0     O28223   8.559   1.564   6.565 -0.6164  0.4370 -0.3013
  210MOL0     C28224   8.592   1.702   6.563 -1.1807 -0.7716 -0.0523
  210MOL0     C28225   8.534   1.780   6.682 -0.0963  0.1362 -0.7633
  210MOL0     C28226   8.607   1.795   6.820  0.3497 -0.0971  0.2715
  210MOL0     C28227   8.721   1.907   6.806 -0.5641  0.5086 -0.6203
  210MOL0     C28228   8.822   1.915   6.931  0.0604 -0.4677  0.4805
  210MOL0     C28229   8.905   1.795   6.934 -0.5564 -0.5037 -0.5655
  210MOL0     C28230   9.022   1.808   7.036 -0.2366  0.1385  0.8852
  210MOL0     C28231   9.092   1.682   7.036  0.6115  1.7898 -0.2809
  210MOL0     N28232   9.221   1.682   6.975 -0.7047 -0.1731  0.1903
  210MOL0     C28233   9.354   1.710   7.024  0.6083 -0.9739 -0.0092
  210MOL0     C28234   9.439   1.698   6.918 -0.2933  0.1426 -0.1785
  210MOL0     C28235   9.590   1.722   6.910 -0.2307 -1.0274  0.6794
  210MOL0     C28236   9.667   1.590   6.924  0.0379 -0.2798  0.6541
  210MOL0     C28237   9.723   1.552   6.778 -0.1236  0.0144  0.1732
  210MOL0     C28238   9.761   1.405   6.785 -0.2932 -0.6165  0.4069
  210MOL0     O28239   9.646   1.314   6.781  0.8492  0.0556  0.2592
  210MOL0     C28240   9.677   1.192   6.842 -0.2782 -0.5968  0.1538
  210MOL0     C28241   9.683   1.076   6.766 -0.2815 -0.2297  0.2669
  210MOL0     C28242   9.706   0.949   6.829 -0.0585  0.3081 -0.6088
  210MOL0     C28243   9.721   0.825   6.745 -0.4228 -0.2633 -0.2137
  210MOL0     C28244   9.740   0.956   6.971 -1.2641 -0.7281 -0.5884
  210MOL0     C28245   9.760   0.829   7.049 -0.3049 -0.0123  0.0735
  210MOL0     O28246   9.839   0.834   7.159 -0.6489 -0.2314  0.7656
  210MOL0     C28247   9.861   0.719   7.232 -0.1485  0.2075 -0.0848
  210MOL0     C28248   9.994   0.684   7.265  0.6319  0.4429  0.4186
  210MOL0     C28249  10.024   0.555   7.328 -0.2399  0.1319 -0.0985
  210MOL0     C28250   9.922   0.466   7.370 -0.1941  0.1113  0.2732
  210MOL0     O28251   9.948   0.343   7.427 -0.1791 -0.2332 -0.1368
  210MOL0     C28252   9.854   0.308   7.537 -0.6928  0.3898  0.1174
  210MOL0     C28253   9.945   0.262   7.647  0.1088  0.2024 -0.2723
  210MOL0     C28254   9.873   0.233   7.769  0.3574 -0.6886  0.4639
  210MOL0     C28255   9.970   0.182   7.878 -0.6568  0.6472 -0.5400
  210MOL0     C28256   9.907   0.134   8.012  0.0977  0.3448 -0.5875
  210MOL0     C28257   9.801   0.222   8.070  0.1360  0.4364  0.4784
  210MOL0     C28258   9.857   0.366   8.080 -0.3714 -0.3606  0.2422
  210MOL0     C28259   9.755   0.461   8.133  0.9275 -0.1267  0.1565
  210MOL0    Cl28260   9.820   0.603   8.234 -0.1349 -0.3246  0.5498
  210MOL0     C28261   9.790   0.500   7.333  0.3451 -0.1129 -0.4343
  210MOL0     C28262   9.763   0.621   7.272  0.4986  0.6631 -0.5352
  210MOL0     O28263   9.708   0.722   7.004 -0.3328 -0.9748  0.4653
  210MOL0     C28264   9.743   1.077   7.040 -0.6734  1.0050  0.1997
  210MOL0     C28265   9.698   1.194   6.980  0.8387  0.4426 -0.0396
  210MOL0     N28266   9.361   1.672   6.811  0.6880  0.4403  0.7097
  210MOL0     N28267   9.235   1.668   6.837  0.6363 -1.1650 -0.3190
  210MOL0     C28268   8.751   1.432   6.664  0.4917 -0.1365 -0.1965
  210MOL0     C28269   8.858   1.347   6.635 -0.3797 -1.4132  0.7548
  210MOL0     C28270   9.087   0.999   6.492 -0.8615 -0.7197 -0.0809
  210MOL0     C28271   9.093   0.866   6.449 -0.1652  0.2836  0.0597
  210MOL0     C28272   9.207   0.791   6.466 -0.6842  0.3134  0.2897
  210MOL0     C28273   9.322   0.849   6.519 -0.5896  0.2735 -1.0970
  210MOL0     O28274   9.451   0.791   6.541  0.1818  0.3661  0.2384
  210MOL0     C28275   9.460   0.645   6.522  0.4903 -0.0236  0.4414
  210MOL0     C28276   9.486   0.608   6.372  0.1274 -0.5791 -0.5333
  210MOL0     C28277   9.631   0.629   6.344 -0.6131  0.9933 -1.3748
  210MOL0     C28278   9.716   0.502   6.336 -1.2220 -0.0630  1.0429
  210MOL0     C28279   9.726   0.402   6.451  0.1412 -0.4405 -0.0693
  210MOL0     C28280   9.750   0.318   6.530  0.6281 -0.0677 -0.7910
  210MOL0     C28281   9.324   0.983   6.555  0.3637 -0.1279  0.4382
  210MOL0     C28282   9.200   1.057   6.546 -0.3350 -0.0101  0.2802
  210MOL0     H28283   8.786   1.229   6.330  1.4568  0.2098 -0.0116
  210MOL0     H28284   8.588   1.402   6.382 -1.4303 -0.6608  1.5856
  210MOL0     H28285   8.701   1.719   6.564 -1.4238  1.0560  1.5632
  210MOL0     H28286   8.551   1.757   6.478  1.6526 -3.3969 -3.4168
  210MOL0     H28287   8.505   1.882   6.655  1.7019  0.3363 -2.0871
  210MOL0     H28288   8.445   1.719   6.697  1.7259 -2.4184  0.4062
  210MOL0     H28289   8.531   1.832   6.889 -1.2842 -3.8602  0.7938
  210MOL0     H28290   8.651   1.697   6.841  0.3809 -0.0979  0.2023
  210MOL0     H28291   8.788   1.907   6.719  1.6534  0.9125  1.0116
  210MOL0     H28292   8.663   1.998   6.793  2.3578  2.4673 -0.8150
  210MOL0     H28293   8.888   2.001   6.919 -3.9823  2.7959 -0.4655
  210MOL0     H28294   8.778   1.927   7.030  2.4551  1.0250  1.4508
  210MOL0     H28295   8.846   1.707   6.962  0.2347 -0.4228  1.5162
  210MOL0     H28296   8.958   1.771   6.841 -2.0278 -3.2046 -0.8166
  210MOL0     H28297   9.093   1.888   7.012  2.0830 -2.3637 -1.2470
  210MOL0     H28298   8.983   1.817   7.138 -4.3501  2.2459 -0.6451
  210MOL0     H28299   9.038   1.606   6.981  3.3433 -1.9715  1.7655
  210MOL0     H28300   9.098   1.644   7.139 -0.5471  1.5007 -0.3065
  210MOL0     H28301   9.391   1.741   7.121  3.3528 -0.8601 -1.0204
  210MOL0     H28302   9.615   1.774   6.816  2.5185 -0.0416  1.8472
  210MOL0     H28303   9.615   1.790   6.992 -1.1716 -0.3116  0.3892
  210MOL0     H28304   9.599   1.513   6.961  1.4226 -1.6648  0.3974
  210MOL0     H28305   9.753   1.596   6.990  0.4516 -2.6845  0.4319
  210MOL0     H28306   9.815   1.600   6.745 -0.2170 -2.2355 -4.2399
  210MOL0     H28307   9.652   1.562   6.694  0.7824  1.9986 -0.4096
  210MOL0     H28308   9.826   1.388   6.871  0.8720  0.6159 -0.1904
  210MOL0     H28309   9.814   1.384   6.692  3.1799  0.7739  1.9080
  210MOL0     H28310   9.677   1.088   6.659  2.5341  2.7293  0.2937
  210MOL0     H28311   9.755   0.849   6.644 -0.4735 -2.7507 -0.8962
  210MOL0     H28312   9.798   0.761   6.789  0.1901  1.1717  0.8690
  210MOL0     H28313   9.627   0.769   6.749 -0.7051  0.2586  0.8135
  210MOL0     H28314  10.072   0.752   7.231  1.5530 -0.5136  0.5596
  210MOL0     H28315  10.127   0.540   7.359 -0.4401  1.7514  1.5845
  210MOL0     H28316   9.812   0.400   7.577 -0.5456  1.1784 -1.4555
  210MOL0     H28317   9.767   0.246   7.513  0.7482 -2.4135  1.5668
  210MOL0     H28318   9.990   0.168   7.613  0.0506  0.6748 -1.7551
  210MOL0     H28319  10.018   0.339   7.672 -0.9009  1.0852 -0.0088
  210MOL0     H28320   9.805   0.150   7.746  1.9959 -2.6015  2.1470
  210MOL0     H28321   9.816   0.320   7.803 -0.1531 -1.9793  3.1190
  210MOL0     H28322  10.026   0.095   7.841 -1.1815 -0.2743  0.7638
  210MOL0     H28323  10.035   0.266   7.902 -1.8663  1.4963 -0.1220
  210MOL0     H28324   9.986   0.121   8.087 -1.7577 -2.5977  1.0517
  210MOL0     H28325   9.854   0.040   7.994 -3.2255  2.0297 -0.3444
  210MOL0     H28326   9.707   0.210   8.015  0.5773  2.4202 -0.8026
  210MOL0     H28327   9.788   0.185   8.172 -0.3632 -0.7406  0.0159
  210MOL0     H28328   9.903   0.407   7.989  1.0498 -1.0216  0.6337
  210MOL0     H28329   9.942   0.376   8.148  1.0929  0.6404 -1.6297
  210MOL0     H28330   9.677   0.403   8.184  0.5502  0.0185 -0.2502
  210MOL0     H28331   9.710   0.508   8.045 -0.4842  1.0153  1.4352
  210MOL0     H28332   9.702   0.438   7.343 -0.3899  0.2917 -3.3927
  210MOL0     H28333   9.662   0.641   7.237 -0.1031  1.7357  1.5752
  210MOL0     H28334   9.756   1.071   7.148 -0.9132 -4.4144  0.2157
  210MOL0     H28335   9.684   1.283   7.040 -1.2237 -0.0296  0.2851
  210MOL0     H28336   8.728   1.472   6.763 -2.1813 -2.0664  0.0833
  210MOL0     H28337   8.947   1.341   6.697  1.1955 -4.2426 -1.4844
  210MOL0     H28338   9.012   0.815   6.398 -3.1326  0.9068  3.6878
  210MOL0     H28339   9.208   0.686   6.438  2.6118  0.2074  0.4216
  210MOL0     H28340   9.542   0.607   6.583 -1.2251  1.8857  4.2518
  210MOL0     H28341   9.373   0.601   6.572 -0.1860  2.6190  1.7457
  210MOL0     H28342   9.424   0.680   6.317  1.3285  1.4624  0.6624
  210MOL0     H28343   9.449   0.508   6.347 -4.3023  0.6061  0.4128
  210MOL0     H28344   9.659   0.690   6.431 -1.3512 -1.1099  0.4188
  210MOL0     H28345   9.648   0.689   6.254  2.9369 -1.0906 -2.2950
  210MOL0     H28346   9.814   0.550   6.322 -0.7999 -1.4824 -1.3429
  210MOL0     H28347   9.703   0.448   6.242 -0.4916  0.3773  0.6771
  210MOL0     H28348   9.758   0.250   6.613 -1.4151 -0.2576 -0.7041
  210MOL0     H28349   9.411   1.022   6.606 -0.1399  2.3871 -0.5045
  210MOL0     H28350   9.209   1.162   6.572 -2.2668  0.7146 -1.6458
  211MOL0     O28351   7.052   0.176  10.460 -0.8232 -0.4001  0.0940
  211MOL0     C28352   6.948   0.141  10.498  1.1599  0.4353 -0.0163
  211MOL0     O28353   6.861   0.220  10.563  0.4672 -0.0759 -0.0353
  211MOL0     C28354   6.910   0.335  10.628 -0.6766  0.6034 -0.5364
  211MOL0     C28355   6.844   0.450  10.615  0.7615  0.6634 -0.2309
  211MOL0     C28356   6.879   0.577  10.653  0.2478 -0.2562 -0.4763
  211MOL0     C28357   6.988   0.586  10.729 -0.7639  0.0770  0.3390
  211MOL0     O28358   7.014   0.708  10.790 -0.3372 -0.1526 -0.5722
  211MOL0     C28359   7.141   0.725  10.858 -0.3226 -0.1785 -0.3784
  211MOL0     C28360   7.137   0.865  10.927  0.3837  0.2856  0.5965
  211MOL0     C28361   7.272   0.906  10.989  0.3999  0.9733 -0.0564
  211MOL0     C28362   7.281   1.027  11.076 -0.4578 -0.7329 -0.0778
  211MOL0     C28363   7.426   1.032  11.106  0.2276 -0.0794 -0.0028
  211MOL0     C28364   7.467   1.136  11.210 -0.3791 -0.7829  0.2293
  211MOL0     C28365   7.600   1.184  11.172 -0.0681 -0.4683  0.2201
  211MOL0     C28366   7.675   1.266  11.284 -0.3236 -0.0531  0.8359
  211MOL0     N28367   7.749   1.166  11.366  0.6409  0.3547  0.8150
  211MOL0     C28368   7.722   1.139  11.491 -0.5954 -0.8411 -0.1448
  211MOL0     C28369   7.827   1.074  11.548 -0.5676  0.2038 -0.3612
  211MOL0     C28370   7.852   1.035  11.688 -0.3357  1.3077  0.4002
  211MOL0     C28371   7.854   1.163  11.779 -0.3504 -0.2094 -0.2161
  211MOL0     C28372   7.809   1.137  11.923 -0.1626 -0.6175 -0.1465
  211MOL0     C28373   7.733   1.259  11.980  1.5301  0.1674  0.2113
  211MOL0     O28374   7.809   1.355  12.040  0.0320  0.2403 -0.5962
  211MOL0     C28375   7.796   1.373  12.173 -0.1879  1.0794  0.2854
  211MOL0     C28376   7.698   1.439  12.234 -0.3663 -0.1997  0.0701
  211MOL0     C28377   7.695   1.458  12.377  0.1563 -0.0066  0.3914
  211MOL0     C28378   7.596   1.543  12.453  0.4506  0.5975  0.3985
  211MOL0     C28379   7.793   1.383  12.455 -0.1560 -1.0478  0.1824
  211MOL0     C28380   7.810   1.394  12.600 -0.2381  1.2726 -0.5626
  211MOL0     O28381   7.760   1.497  12.674  0.1410 -0.4395  0.1944
  211MOL0     C28382   7.757   1.476  12.805  0.5618  0.6572 -0.5098
  211MOL0     C28383   7.865   1.530  12.874 -0.2418 -0.1790  0.1575
  211MOL0     C28384   7.866   1.518  13.010 -0.1394  0.1817  0.9182
  211MOL0     C28385   7.766   1.447  13.083 -0.3457  0.1753 -0.2337
  211MOL0     O28386   7.790   1.426  13.214 -0.2620 -1.0708 -0.2476
  211MOL0     C28387   7.691   1.418  13.314 -1.1553 -0.7167 -0.1750
  211MOL0     C28388   7.753   1.471  13.449  0.8527  0.6356 -0.2830
  211MOL0     C28389   7.662   1.453  13.577  0.0666  0.7526  0.8690
  211MOL0     C28390   7.541   1.551  13.585  0.8236 -0.2009 -0.0031
  211MOL0     C28391   7.448   1.524  13.704 -0.1516  0.3576 -0.1060
  211MOL0     C28392   7.356   1.636  13.713  0.8585 -1.0409 -0.3160
  211MOL0     C28393   7.277   1.677  13.587  0.2910  0.4250  0.1849
  211MOL0     C28394   7.196   1.556  13.532  0.2676 -0.5635  0.2691
  211MOL0    Cl28395   7.065   1.495  13.648 -0.3332 -0.5029 -0.3626
  211MOL0     C28396   7.653   1.401  13.013  0.2187  0.5800  0.0224
  211MOL0     C28397   7.651   1.409  12.873 -0.3289  0.1439  0.9340
  211MOL0     O28398   7.856   1.289  12.643 -0.3566  0.7033  0.3419
  211MOL0     C28399   7.887   1.305  12.383  0.0310 -0.0589  0.1901
  211MOL0     C28400   7.882   1.291  12.249  0.2529 -0.3224  0.1393
  211MOL0     N28401   7.914   1.049  11.442 -0.2150  0.4861 -1.2223
  211MOL0     N28402   7.868   1.108  11.335  0.7460 -0.4101 -0.3164
  211MOL0     C28403   7.075   0.472  10.754  0.9867 -0.0562 -0.6107
  211MOL0     C28404   7.043   0.350  10.691  0.0174 -0.1916  0.2382
  211MOL0     C28405   6.909  -0.004  10.450  0.5112  0.6967  0.4331
  211MOL0     C28406   6.991  -0.076  10.356 -0.5055 -0.2518  0.2432
  211MOL0     C28407   6.973  -0.210  10.331  1.3610  0.8873 -0.8670
  211MOL0     C28408   6.881  -0.283  10.399 -0.4234  0.2632  0.0901
  211MOL0     O28409   6.886  -0.419  10.376 -0.4239  0.0493 -0.0682
  211MOL0     C28410   6.765  -0.488  10.352  0.0653 -0.1963 -0.3680
  211MOL0     C28411   6.710  -0.583  10.462 -0.9420  0.0828 -0.6001
  211MOL0     C28412   6.827  -0.673  10.518  1.0016 -0.0398 -0.3603
  211MOL0     C28413   6.762  -0.798  10.570 -0.5514  0.1499  0.9292
  211MOL0     C28414   6.724  -0.789  10.702  1.0459 -0.7333 -0.3180
  211MOL0     C28415   6.693  -0.786  10.819 -1.1139  1.2219  0.2077
  211MOL0     C28416   6.786  -0.218  10.484  0.2092 -0.2209 -0.4025
  211MOL0     C28417   6.800  -0.077  10.502 -0.2040  0.0664  0.2728
  211MOL0     H28418   6.741   0.444  10.582  0.6569 -1.1599  0.3302
  211MOL0     H28419   6.818   0.666  10.642  2.1295  0.9796 -1.7241
  211MOL0     H28420   7.144   0.652  10.940 -2.0325 -0.5413 -0.5967
  211MOL0     H28421   7.224   0.715  10.788  0.3588 -0.8071  0.5002
  211MOL0     H28422   7.105   0.951  10.866 -4.4903  0.8587  3.4412
  211MOL0     H28423   7.057   0.869  11.001 -1.1245  3.5264 -0.9869
  211MOL0     H28424   7.307   0.821  11.048  0.6265  1.0129 -0.1341
  211MOL0     H28425   7.337   0.918  10.902 -0.9395  1.4646 -1.0295
  211MOL0     H28426   7.242   1.118  11.031 -1.6088 -1.6357 -0.9942
  211MOL0     H28427   7.227   1.017  11.171  0.2314 -0.2069  0.3781
  211MOL0     H28428   7.462   0.935  11.144  0.2526  0.4056  1.2735
  211MOL0     H28429   7.476   1.044  11.010  1.4222 -3.9931 -0.0740
  211MOL0     H28430   7.390   1.212  11.225 -2.3339 -2.4206 -0.7934
  211MOL0     H28431   7.486   1.091  11.308  1.7116 -1.8705 -0.6168
  211MOL0     H28432   7.663   1.101  11.140 -0.0988  0.0269 -1.1615
  211MOL0     H28433   7.600   1.256  11.090  4.1308  1.6153  1.7546
  211MOL0     H28434   7.600   1.317  11.345 -1.4049 -0.7244  0.1222
  211MOL0     H28435   7.744   1.341  11.246  1.8208 -1.3008  2.0726
  211MOL0     H28436   7.642   1.178  11.553  0.5985 -1.0437  1.5729
  211MOL0     H28437   7.771   0.970  11.723 -2.5101  3.3009 -0.6278
  211MOL0     H28438   7.944   0.977  11.694 -1.5826 -1.0824 -1.7749
  211MOL0     H28439   7.775   1.226  11.737  0.6987  0.6345 -0.9555
  211MOL0     H28440   7.955   1.203  11.779 -1.0092  1.5596  1.1612
  211MOL0     H28441   7.900   1.108  11.976  1.4954  1.1773 -1.8429
  211MOL0     H28442   7.746   1.047  11.923  0.4233 -1.0361 -0.6933
  211MOL0     H28443   7.663   1.218  12.053  1.3118 -0.1309 -0.1683
  211MOL0     H28444   7.674   1.310  11.903  0.4854 -1.4798 -0.1201
  211MOL0     H28445   7.621   1.492  12.178  0.3505  2.9723  1.8545
  211MOL0     H28446   7.638   1.638  12.484  0.1998 -0.0966  3.1387
  211MOL0     H28447   7.511   1.556  12.385 -0.0172  0.2680  0.9127
  211MOL0     H28448   7.561   1.490  12.542  1.9555 -2.9728 -0.9235
  211MOL0     H28449   7.935   1.592  12.819  0.6842  0.7306  2.2360
  211MOL0     H28450   7.949   1.561  13.065  0.3095  1.3010 -0.5452
  211MOL0     H28451   7.610   1.490  13.297  1.5092  3.1113  1.8934
  211MOL0     H28452   7.648   1.318  13.330 -1.5576 -0.1201  3.3957
  211MOL0     H28453   7.840   1.409  13.473  2.1510  1.5345 -2.4241
  211MOL0     H28454   7.779   1.576  13.437  2.8196  0.9493  4.4866
  211MOL0     H28455   7.726   1.463  13.665  1.0248 -1.8066  0.5560
  211MOL0     H28456   7.614   1.356  13.568  0.4935  0.6176 -0.0865
  211MOL0     H28457   7.587   1.651  13.591  1.2996 -0.3043 -1.3697
  211MOL0     H28458   7.496   1.532  13.487 -1.8144  0.2992  1.0198
  211MOL0     H28459   7.499   1.522  13.801 -0.6877  0.2425  0.1796
  211MOL0     H28460   7.409   1.424  13.683  3.0132 -1.3367  1.3387
  211MOL0     H28461   7.286   1.627  13.798  0.3346  1.6383 -0.3468
  211MOL0     H28462   7.414   1.724  13.742 -1.8978  0.8088  0.0369
  211MOL0     H28463   7.347   1.702  13.508  0.6909 -0.9826  0.0648
  211MOL0     H28464   7.210   1.760  13.614 -1.7935  0.4258 -4.1953
  211MOL0     H28465   7.255   1.469  13.503  2.7225  0.4552  1.8365
  211MOL0     H28466   7.136   1.599  13.451 -1.1342 -0.5110  1.3154
  211MOL0     H28467   7.567   1.358  13.063  0.9908  1.0826  1.8559
  211MOL0     H28468   7.561   1.376  12.822 -0.2784 -1.2578  1.7033
  211MOL0     H28469   7.972   1.255  12.427  2.1892  1.3627 -2.0884
  211MOL0     H28470   7.953   1.228  12.197 -1.1943 -2.2960  0.4159
  211MOL0     H28471   7.169   0.474  10.809 -1.2763  1.9266  3.6511
  211MOL0     H28472   7.119   0.273  10.695  0.6891  0.4052 -0.7052
  211MOL0     H28473   7.079  -0.030  10.313 -0.3488 -1.0955 -0.3446
  211MOL0     H28474   7.030  -0.256  10.251  0.7754 -0.0228 -0.7702
  211MOL0     H28475   6.690  -0.413  10.327 -0.2102 -0.4493 -0.3014
  211MOL0     H28476   6.784  -0.540  10.258  1.1182  0.9699 -0.8327
  211MOL0     H28477   6.625  -0.638  10.421 -1.9642  1.2471 -0.0996
  211MOL0     H28478   6.679  -0.532  10.553  0.9881 -1.7628  1.2038
  211MOL0     H28479   6.855  -0.618  10.608 -5.2841 -3.2730  4.3963
  211MOL0     H28480   6.914  -0.703  10.459 -0.7669 -3.2573 -1.6062
  211MOL0     H28481   6.845  -0.868  10.557 -0.2080  0.6737  0.2560
  211MOL0     H28482   6.684  -0.837  10.505  0.1906  1.1304 -0.5991
  211MOL0     H28483   6.662  -0.781  10.922 -3.3713 -3.4245 -0.0111
  211MOL0     H28484   6.711  -0.274  10.540 -0.0494 -1.0078 -1.4837
  211MOL0     H28485   6.734  -0.021  10.567  2.7238  1.2197  2.4528
  212MOL0     O28486   8.631   1.637   3.216  0.3538 -0.0534  0.9023
  212MOL0     C28487   8.739   1.588   3.188 -0.8658 -1.2492  0.5799
  212MOL0     O28488   8.752   1.458   3.179  0.6465 -0.2547 -0.0813
  212MOL0     C28489   8.640   1.384   3.215 -0.1459  0.5528 -0.3660
  212MOL0     C28490   8.616   1.370   3.351 -0.4288 -0.3420 -0.1076
  212MOL0     C28491   8.517   1.289   3.395 -0.0345 -0.2538 -0.0193
  212MOL0     C28492   8.438   1.221   3.309  0.4320 -0.2972  0.2734
  212MOL0     O28493   8.331   1.148   3.346 -0.2740  0.4181 -0.1951
  212MOL0     C28494   8.223   1.213   3.405 -0.3437 -0.1618  0.2987
  212MOL0     C28495   8.106   1.211   3.295 -0.1839 -0.0032 -0.2053
  212MOL0     C28496   7.975   1.260   3.344 -0.5180  0.4881  0.4499
  212MOL0     C28497   7.987   1.408   3.376 -0.5344  0.5387 -0.5486
  212MOL0     C28498   8.006   1.492   3.246 -0.2323 -0.1913 -0.1844
  212MOL0     C28499   8.000   1.639   3.283 -0.4013  0.1672  0.6622
  212MOL0     C28500   8.028   1.724   3.154 -0.4467 -0.7872 -0.1595
  212MOL0     C28501   8.173   1.763   3.123 -0.3776  0.2963  0.8240
  212MOL0     N28502   8.189   1.773   2.974  0.0882  0.0077 -0.7245
  212MOL0     C28503   8.163   1.686   2.877  0.3749  0.7308  0.0554
  212MOL0     C28504   8.241   1.716   2.773 -0.8079 -0.2426  0.3958
  212MOL0     C28505   8.272   1.633   2.649 -0.1875  0.5018 -0.8399
  212MOL0     C28506   8.360   1.510   2.663 -0.1465 -0.7072 -0.2621
  212MOL0     C28507   8.350   1.410   2.547 -0.5382  1.6101  0.3930
  212MOL0     C28508   8.424   1.280   2.564 -0.0428  0.2578 -0.4799
  212MOL0     O28509   8.373   1.187   2.672  0.5660 -0.8405 -0.1032
  212MOL0     C28510   8.455   1.082   2.698  0.1514  0.5045  0.1361
  212MOL0     C28511   8.588   1.062   2.658  0.1336 -0.2589 -0.5914
  212MOL0     C28512   8.685   0.970   2.695  0.7424  0.9206 -0.1351
  212MOL0     C28513   8.828   0.992   2.665  0.0899 -0.3031 -0.7963
  212MOL0     C28514   8.643   0.867   2.777  0.0696  0.1109  0.2191
  212MOL0     C28515   8.725   0.766   2.820 -0.4460 -0.0383  0.0653
  212MOL0     O28516   8.793   0.709   2.714  1.0396  1.3477  0.6668
  212MOL0     C28517   8.841   0.584   2.733 -1.3447 -0.0324  0.1095
  212MOL0     C28518   8.948   0.558   2.650  0.7852  0.0796  0.7541
  212MOL0     C28519   9.022   0.436   2.655 -0.0452 -0.0476 -0.1130
  212MOL0     C28520   8.974   0.335   2.741 -0.0881 -0.4077  1.0912
  212MOL0     O28521   9.043   0.221   2.740 -0.7519 -0.9457 -0.1188
  212MOL0     C28522   8.973   0.097   2.746 -1.0051  0.6011 -0.0764
  212MOL0     C28523   9.052  -0.021   2.693  0.2673 -0.8713  0.6699
  212MOL0     C28524   8.961  -0.150   2.694 -0.9735  0.1645  0.1680
  212MOL0     C28525   8.850  -0.139   2.599  0.6613 -0.4807 -0.5239
  212MOL0     C28526   8.787  -0.273   2.562 -0.2147 -0.1028 -1.0584
  212MOL0     C28527   8.663  -0.251   2.472  0.7225 -0.7807 -0.6708
  212MOL0     C28528   8.594  -0.379   2.426  0.0060  0.4732  0.3404
  212MOL0     C28529   8.519  -0.355   2.302 -0.1809  0.5953  1.5768
  212MOL0    Cl28530   8.416  -0.495   2.250 -0.3059  0.5200  0.0543
  212MOL0     C28531   8.856   0.348   2.815 -0.5212  0.3444 -0.5352
  212MOL0     C28532   8.795   0.476   2.810  0.4225 -0.7387 -0.3387
  212MOL0     O28533   8.746   0.735   2.938  0.3130 -0.0448  0.7498
  212MOL0     C28534   8.510   0.873   2.825  0.6308 -0.1062 -0.4985
  212MOL0     C28535   8.417   0.982   2.794 -0.5294  0.0452  0.6430
  212MOL0     N28536   8.302   1.840   2.800 -0.9819  0.4746  0.8004
  212MOL0     N28537   8.264   1.875   2.912  0.6370  0.0814 -0.2666
  212MOL0     C28538   8.462   1.240   3.162  0.3185  1.0541 -0.0697
  212MOL0     C28539   8.560   1.326   3.117  0.7259  0.4566  0.2935
  212MOL0     C28540   8.857   1.666   3.195 -1.2695  0.0711  0.4742
  212MOL0     C28541   8.962   1.623   3.273 -0.2856  0.5225 -0.5657
  212MOL0     C28542   9.079   1.705   3.294  0.4653  0.8012  0.4037
  212MOL0     C28543   9.087   1.833   3.237  0.4549  0.3402  0.3135
  212MOL0     O28544   9.180   1.934   3.244 -0.5181 -0.4341  0.1618
  212MOL0     C28545   9.306   1.909   3.304  0.0646 -0.3530 -0.5030
  212MOL0     C28546   9.434   1.938   3.217 -0.7727 -0.0247  0.4629
  212MOL0     C28547   9.444   2.083   3.168 -0.2970  0.5909  0.1174
  212MOL0     C28548   9.543   2.171   3.249  0.1113 -0.4618  0.6498
  212MOL0     C28549   9.510   2.161   3.394  0.2284 -0.0452 -0.1394
  212MOL0     C28550   9.478   2.145   3.507  0.1437 -0.5176  0.1154
  212MOL0     C28551   8.975   1.873   3.158  0.8822  0.7740 -0.3851
  212MOL0     C28552   8.863   1.790   3.135 -0.5553  0.4608 -0.0575
  212MOL0     H28553   8.686   1.410   3.423 -0.0038 -4.3298  2.0154
  212MOL0     H28554   8.507   1.263   3.500  1.3725  1.1596  0.5157
  212MOL0     H28555   8.189   1.190   3.506 -0.5726  0.0589  0.2707
  212MOL0     H28556   8.248   1.318   3.423 -0.8274 -0.4897  3.2525
  212MOL0     H28557   8.139   1.265   3.206 -0.9298  2.1932  0.7986
  212MOL0     H28558   8.101   1.104   3.269  3.6777 -0.5319  0.6274
  212MOL0     H28559   7.896   1.251   3.269 -1.4868  3.2059  1.0208
  212MOL0     H28560   7.935   1.208   3.431 -2.2572 -0.2106 -0.7097
  212MOL0     H28561   7.898   1.440   3.431  0.6107  0.1861  1.6176
  212MOL0     H28562   8.074   1.432   3.437  0.6665  1.3584 -2.4779
  212MOL0     H28563   8.096   1.454   3.197 -0.4204 -1.0146  0.0767
  212MOL0     H28564   7.920   1.457   3.188 -0.4294 -4.7722  2.3744
  212MOL0     H28565   7.895   1.652   3.311 -1.9362 -3.9705 -2.1862
  212MOL0     H28566   8.067   1.669   3.364  0.6082 -1.6405  0.5622
  212MOL0     H28567   7.977   1.679   3.068 -0.9484  0.5881 -0.6073
  212MOL0     H28568   7.979   1.821   3.165  0.3312 -0.0692 -2.5198
  212MOL0     H28569   8.230   1.676   3.157  0.7661 -0.0026 -1.6466
  212MOL0     H28570   8.201   1.854   3.176  4.3839  0.8439 -2.0474
  212MOL0     H28571   8.113   1.593   2.900 -0.3440  1.7348  3.0223
  212MOL0     H28572   8.174   1.610   2.605 -1.9689  2.5961  1.6880
  212MOL0     H28573   8.325   1.701   2.582  3.1885  0.0330  1.1552
  212MOL0     H28574   8.325   1.467   2.757 -2.3073 -2.4904 -1.7547
  212MOL0     H28575   8.462   1.549   2.658 -0.6833  0.6760 -0.9402
  212MOL0     H28576   8.381   1.465   2.458 -2.7956  2.6206  0.1718
  212MOL0     H28577   8.247   1.379   2.528  0.8354 -3.7551 -0.0382
  212MOL0     H28578   8.530   1.307   2.566  0.1265 -0.4410  0.1811
  212MOL0     H28579   8.408   1.217   2.476  0.6841 -0.5368 -0.0573
  212MOL0     H28580   8.634   1.128   2.584 -1.1056 -0.2458 -1.3707
  212MOL0     H28581   8.843   1.098   2.643 -2.8919 -0.3043 -3.7265
  212MOL0     H28582   8.883   0.950   2.750 -1.3061 -2.6829 -0.9777
  212MOL0     H28583   8.868   0.931   2.583  0.3650 -2.7549  1.0474
  212MOL0     H28584   8.986   0.631   2.579 -0.3219  2.2621  2.2834
  212MOL0     H28585   9.105   0.408   2.591  0.0986  2.9344 -1.4128
  212MOL0     H28586   8.957   0.070   2.850  1.9754 -0.4770  0.2127
  212MOL0     H28587   8.879   0.104   2.690 -0.2090  0.4269 -1.4997
  212MOL0     H28588   9.094   0.004   2.595  2.0422  0.0843  1.6055
  212MOL0     H28589   9.136  -0.042   2.760 -0.8475 -0.6302  2.1955
  212MOL0     H28590   8.931  -0.165   2.798  1.6313  0.2289  0.9817
  212MOL0     H28591   9.021  -0.235   2.661 -2.4045 -0.2881 -1.4096
  212MOL0     H28592   8.775  -0.077   2.648  1.4377  0.4737 -0.4995
  212MOL0     H28593   8.884  -0.080   2.513  1.3493  1.2889  0.8936
  212MOL0     H28594   8.752  -0.336   2.644 -1.3040  2.8189  0.8967
  212MOL0     H28595   8.863  -0.327   2.505 -0.4549 -1.3555 -0.2243
  212MOL0     H28596   8.592  -0.184   2.522  0.3076 -0.5421 -1.5523
  212MOL0     H28597   8.691  -0.196   2.382 -1.6462 -0.4877 -1.3096
  212MOL0     H28598   8.522  -0.409   2.503 -2.7530  1.5009 -1.6401
  212MOL0     H28599   8.664  -0.461   2.408 -0.5230  0.7422 -4.2884
  212MOL0     H28600   8.594  -0.340   2.224  0.9820  2.0018  2.8984
  212MOL0     H28601   8.459  -0.265   2.313 -0.0132  1.7418 -3.9397
  212MOL0     H28602   8.822   0.271   2.883  2.2904  0.4738  1.1783
  212MOL0     H28603   8.713   0.499   2.877 -0.7000 -1.6937 -1.3444
  212MOL0     H28604   8.462   0.797   2.886 -2.1954  1.1290 -1.0233
  212MOL0     H28605   8.319   0.980   2.841  0.4317 -0.0170  2.7525
  212MOL0     H28606   8.404   1.189   3.085 -0.2471  0.6349  0.6248
  212MOL0     H28607   8.573   1.352   3.012 -0.1244  2.5873  0.6589
  212MOL0     H28608   8.958   1.524   3.317 -2.8324  1.3481  1.3060
  212MOL0     H28609   9.163   1.652   3.338  2.9108  0.5001 -4.1039
  212MOL0     H28610   9.298   1.967   3.396 -4.2373 -0.0260 -0.8680
  212MOL0     H28611   9.309   1.806   3.339 -0.4189 -0.3963 -0.5816
  212MOL0     H28612   9.429   1.868   3.134 -1.5752 -0.4653  0.8636
  212MOL0     H28613   9.527   1.916   3.270 -0.6770  0.6027  0.5693
  212MOL0     H28614   9.341   2.120   3.178  0.7591  3.3446  1.9581
  212MOL0     H28615   9.474   2.091   3.063  2.9366 -0.3228  0.8478
  212MOL0     H28616   9.520   2.276   3.228  3.0935  0.2063  0.2212
  212MOL0     H28617   9.649   2.171   3.223 -0.0543  1.8914 -0.3092
  212MOL0     H28618   9.450   2.120   3.607  3.0718 -0.4500  1.0564
  212MOL0     H28619   8.982   1.975   3.122 -0.9649  0.8319 -0.6815
  212MOL0     H28620   8.776   1.816   3.077 -0.5001 -1.7627 -1.2514
  213MOL0     O28621   9.872   7.902   7.547  0.0586 -0.3174 -0.7523
  213MOL0     C28622   9.960   7.852   7.482  0.0760  0.5767  0.5310
  213MOL0     O28623   9.948   7.818   7.357 -0.5040 -0.2116 -0.6908
  213MOL0     C28624   9.831   7.767   7.306  0.7337 -0.0021 -0.9617
  213MOL0     C28625   9.726   7.719   7.381  0.8900  0.1272 -0.0959
  213MOL0     C28626   9.608   7.670   7.326  0.2963  0.8371  0.0492
  213MOL0     C28627   9.589   7.664   7.186 -0.5396 -0.6097 -0.4679
  213MOL0     O28628   9.466   7.621   7.137  0.0797 -0.0754 -0.1410
  213MOL0     C28629   9.415   7.652   6.999 -0.1547 -0.4260 -0.2323
  213MOL0     C28630   9.332   7.776   7.004  0.7010  0.0367 -0.5254
  213MOL0     C28631   9.198   7.761   7.092 -0.2765 -0.4408  0.1917
  213MOL0     C28632   9.201   7.845   7.225  0.5101 -0.0675  0.5106
  213MOL0     C28633   9.093   7.801   7.323  0.6857  0.2361  0.0774
  213MOL0     C28634   9.138   7.838   7.470  0.4957  0.4469 -0.0862
  213MOL0     C28635   9.031   7.774   7.558 -0.5436 -0.5524  0.1352
  213MOL0     C28636   9.029   7.826   7.706  0.1106  0.6666 -0.0506
  213MOL0     N28637   8.934   7.758   7.789  0.6332 -0.7660 -0.1026
  213MOL0     C28638   8.910   7.626   7.789 -0.1410 -0.0308 -0.2226
  213MOL0     C28639   8.812   7.622   7.893  0.9888 -0.9964 -0.3059
  213MOL0     C28640   8.741   7.499   7.949 -0.1275  0.0833  0.5597
  213MOL0     C28641   8.655   7.437   7.841 -0.3743  0.2719 -0.2890
  213MOL0     C28642   8.562   7.536   7.763 -0.1062  0.2933 -0.4296
  213MOL0     C28643   8.466   7.607   7.851 -0.8619 -0.8248 -0.3832
  213MOL0     O28644   8.383   7.527   7.926 -0.0666  0.3382  0.2677
  213MOL0     C28645   8.255   7.563   7.961  0.2801  0.0532  0.8237
  213MOL0     C28646   8.217   7.694   7.976  0.8933  0.2482  0.0282
  213MOL0     C28647   8.081   7.722   8.006 -0.2830  0.8581 -0.5239
  213MOL0     C28648   8.051   7.867   8.029  0.0967  0.3373  0.6198
  213MOL0     C28649   7.991   7.618   8.036  0.3326 -0.1625 -0.0820
  213MOL0     C28650   7.852   7.643   8.076 -0.1362 -0.0403  0.1664
  213MOL0     O28651   7.754   7.569   8.009 -0.0206  0.1961  0.1351
  213MOL0     C28652   7.621   7.577   8.058  0.3261 -0.9130 -1.2191
  213MOL0     C28653   7.523   7.633   7.978  0.3310  0.2987  0.2181
  213MOL0     C28654   7.391   7.639   8.027  0.1583 -0.5287 -0.1528
  213MOL0     C28655   7.354   7.592   8.153 -0.4917 -0.4631  0.0572
  213MOL0     O28656   7.227   7.609   8.199  0.5142 -0.5149  0.5129
  213MOL0     C28657   7.196   7.609   8.338 -0.0130  0.3534 -0.0203
  213MOL0     C28658   7.041   7.623   8.345 -0.6063 -0.4345  0.3515
  213MOL0     C28659   6.994   7.637   8.489 -0.3572  0.7431 -0.5308
  213MOL0     C28660   6.999   7.500   8.562 -0.4500  0.8992  0.3512
  213MOL0     C28661   6.969   7.506   8.715  0.9478  0.0156  0.3560
  213MOL0     C28662   6.842   7.605   8.737 -0.1708 -0.5511 -1.0415
  213MOL0     C28663   6.783   7.589   8.879 -0.2633 -0.0811 -0.2529
  213MOL0     C28664   6.624   7.591   8.875  0.2778 -0.5364 -1.0140
  213MOL0    Cl28665   6.556   7.664   9.020  0.0839  0.1035  0.3734
  213MOL0     C28666   7.450   7.523   8.228 -0.2551 -0.8215  0.1252
  213MOL0     C28667   7.582   7.518   8.182  0.4713  0.2056  1.2127
  213MOL0     O28668   7.825   7.730   8.162  1.1520  0.3714 -0.4579
  213MOL0     C28669   8.030   7.482   8.012  0.1561  0.1384  0.8994
  213MOL0     C28670   8.161   7.457   7.971 -0.5819  0.6681 -0.1774
  213MOL0     N28671   8.780   7.745   7.942 -0.1600  0.0127 -0.9195
  213MOL0     N28672   8.859   7.833   7.880 -0.3517  0.7695  0.3022
  213MOL0     C28673   9.692   7.700   7.106 -0.1939 -0.5705  0.1360
  213MOL0     C28674   9.810   7.743   7.166  0.4314 -1.0195  0.1596
  213MOL0     C28675  10.094   7.860   7.541 -1.6702 -0.5656  0.1980
  213MOL0     C28676  10.192   7.773   7.490 -1.2983 -0.9296  0.6513
  213MOL0     C28677  10.317   7.768   7.546  0.4954 -1.1761 -0.0889
  213MOL0     C28678  10.350   7.824   7.665 -0.0714  0.0109  0.6635
  213MOL0     O28679  10.483   7.799   7.708 -0.7367 -0.2459 -0.2135
  213MOL0     C28680  10.532   7.841   7.844  0.5929 -0.0327  0.0696
  213MOL0     C28681  10.587   7.984   7.854  0.3804  0.0899  0.1299
  213MOL0     C28682  10.707   7.998   7.766 -0.3304 -0.4786  0.0301
  213MOL0     C28683  10.774   8.138   7.776  0.1916  0.2956  0.1180
  213MOL0     C28684  10.817   8.166   7.914  0.0689 -0.4851  0.0461
  213MOL0     C28685  10.840   8.234   8.007 -0.3519  0.3240 -0.3852
  213MOL0     C28686  10.258   7.916   7.719 -0.3038 -0.6972 -0.3646
  213MOL0     C28687  10.127   7.935   7.659  0.3894 -0.5664 -0.3333
  213MOL0     H28688   9.710   7.724   7.489  0.2947 -0.0748 -0.1712
  213MOL0     H28689   9.545   7.624   7.402  1.1278 -0.3375  0.0627
  213MOL0     H28690   9.495   7.682   6.930 -1.2571  1.2956 -0.8376
  213MOL0     H28691   9.371   7.567   6.945 -2.6719 -0.4198  1.6674
  213MOL0     H28692   9.385   7.867   7.033 -1.6646  1.5595 -0.6050
  213MOL0     H28693   9.290   7.790   6.903 -4.0079 -1.5099  0.9565
  213MOL0     H28694   9.121   7.812   7.033 -0.4660  0.0466  0.8390
  213MOL0     H28695   9.177   7.654   7.097  2.3793 -1.2284 -2.7348
  213MOL0     H28696   9.299   7.821   7.266 -0.4738 -2.1365  1.8148
  213MOL0     H28697   9.195   7.951   7.197 -2.7672  0.1972  1.7760
  213MOL0     H28698   8.995   7.839   7.294  0.7548  0.6050  0.3202
  213MOL0     H28699   9.092   7.692   7.314  2.7774 -0.0150  1.9223
  213MOL0     H28700   9.239   7.799   7.488  0.8196 -0.9394 -3.9874
  213MOL0     H28701   9.129   7.947   7.469  0.4003  0.4341 -0.4017
  213MOL0     H28702   8.931   7.800   7.520 -1.1969 -2.3484  0.5481
  213MOL0     H28703   9.041   7.666   7.553  5.3170 -0.3131  0.3149
  213MOL0     H28704   9.006   7.933   7.702  2.9568  1.3185 -0.7836
  213MOL0     H28705   9.129   7.819   7.748  0.2160  0.0277 -0.4105
  213MOL0     H28706   8.954   7.544   7.733  0.5831  0.1962 -0.0022
  213MOL0     H28707   8.827   7.437   7.975 -0.2750  0.1591  1.2520
  213MOL0     H28708   8.673   7.519   8.032  0.6482 -1.7632  1.7098
  213MOL0     H28709   8.593   7.361   7.889 -1.8992  0.5563 -1.7145
  213MOL0     H28710   8.719   7.389   7.767 -0.3136 -1.6907  0.9736
  213MOL0     H28711   8.503   7.466   7.702  0.5345 -4.2125  3.5493
  213MOL0     H28712   8.625   7.611   7.713  3.2295 -0.8361  1.7986
  213MOL0     H28713   8.404   7.676   7.793 -2.7182 -0.7255  1.5955
  213MOL0     H28714   8.528   7.667   7.920  0.0601 -0.9925 -1.0471
  213MOL0     H28715   8.290   7.773   7.964  2.0345 -0.4050  2.1243
  213MOL0     H28716   8.063   7.896   8.134 -2.0518 -0.4554  1.1189
  213MOL0     H28717   8.122   7.927   7.971 -2.2562  2.7091 -0.0041
  213MOL0     H28718   7.946   7.891   8.010 -0.2825 -1.4076  0.3929
  213MOL0     H28719   7.552   7.696   7.894  1.8985  1.8373  1.8468
  213MOL0     H28720   7.320   7.690   7.963  0.9680 -0.6495 -1.1577
  213MOL0     H28721   7.223   7.517   8.391 -1.2681 -0.6869 -1.1211
  213MOL0     H28722   7.240   7.696   8.386  0.1228 -0.6620  1.7894
  213MOL0     H28723   7.019   7.719   8.299  0.8020  0.0012  0.5463
  213MOL0     H28724   6.975   7.552   8.295  0.3498 -1.3244  0.3280
  213MOL0     H28725   6.886   7.658   8.494 -0.9286 -2.0204  0.9464
  213MOL0     H28726   7.047   7.718   8.539  1.4592  0.3132 -1.6529
  213MOL0     H28727   6.923   7.436   8.516 -1.0690  2.3217 -0.6868
  213MOL0     H28728   7.102   7.464   8.558 -0.2012  1.6073  0.4201
  213MOL0     H28729   7.050   7.546   8.777  0.2261 -4.8936  5.2355
  213MOL0     H28730   6.949   7.405   8.751  2.2820 -0.9698 -1.5443
  213MOL0     H28731   6.880   7.706   8.718  2.1974 -1.1626  0.0745
  213MOL0     H28732   6.765   7.571   8.667  1.3312 -2.8601 -1.7171
  213MOL0     H28733   6.816   7.683   8.923 -0.6561 -0.3721  0.6790
  213MOL0     H28734   6.831   7.508   8.935 -0.5924  1.4212  2.3636
  213MOL0     H28735   6.575   7.499   8.845 -0.4241 -0.3461 -0.4727
  213MOL0     H28736   6.598   7.671   8.804 -0.0478  0.8667  0.6092
  213MOL0     H28737   7.437   7.477   8.326 -2.2591 -0.8454 -0.1085
  213MOL0     H28738   7.658   7.472   8.243 -1.0172 -2.1359  1.4132
  213MOL0     H28739   7.959   7.399   8.018  0.8496 -0.5090  0.3596
  213MOL0     H28740   8.187   7.354   7.951 -0.0877  0.8843 -0.6607
  213MOL0     H28741   9.690   7.695   6.997 -3.3266  0.3121  0.0537
  213MOL0     H28742   9.896   7.765   7.103  0.4060  1.8752  0.9793
  213MOL0     H28743  10.192   7.728   7.391  3.4976 -0.9553  0.4624
  213MOL0     H28744  10.397   7.719   7.491  3.3927 -1.4517  3.9571
  213MOL0     H28745  10.454   7.827   7.920  0.6206 -0.3135  0.0470
  213MOL0     H28746  10.610   7.766   7.863 -0.2893 -1.6813 -2.3757
  213MOL0     H28747  10.616   8.003   7.958 -0.1228 -0.9361  0.4690
  213MOL0     H28748  10.509   8.056   7.828 -0.4302 -0.9121 -0.2761
  213MOL0     H28749  10.674   7.982   7.662  0.6895  3.9426 -1.1951
  213MOL0     H28750  10.790   7.929   7.787  1.3323  1.3283 -0.2983
  213MOL0     H28751  10.703   8.215   7.747  0.0815  0.5117  0.9306
  213MOL0     H28752  10.853   8.150   7.701 -0.0046  0.7206 -0.0216
  213MOL0     H28753  10.856   8.306   8.085  1.7085  0.7678 -1.1852
  213MOL0     H28754  10.278   7.959   7.817  2.1393 -2.5953  0.0877
  213MOL0     H28755  10.049   7.994   7.705 -3.0012 -2.3546 -3.2754
  214MOL0     O28756   9.030   4.530   4.165  0.0449 -0.3263  1.0859
  214MOL0     C28757   8.956   4.627   4.158  0.4923  0.2359 -0.3878
  214MOL0     O28758   8.833   4.646   4.229  0.0109  0.4571  0.0955
  214MOL0     C28759   8.802   4.560   4.333 -0.2303  0.4681  0.9869
  214MOL0     C28760   8.801   4.418   4.325 -1.4463 -0.8777 -0.3073
  214MOL0     C28761   8.781   4.345   4.440  0.0064  1.7191  0.1321
  214MOL0     C28762   8.737   4.400   4.563 -0.0491 -0.0764  0.6906
  214MOL0     O28763   8.696   4.302   4.656 -0.3927 -0.1779 -0.1908
  214MOL0     C28764   8.561   4.296   4.700  0.0677  0.4871  1.0131
  214MOL0     C28765   8.497   4.159   4.727 -0.8968  0.7204  0.5342
  214MOL0     C28766   8.534   4.065   4.611  0.0518  0.7614  1.1170
  214MOL0     C28767   8.650   3.960   4.639 -0.1916  1.4331 -0.4592
  214MOL0     C28768   8.692   3.891   4.513 -1.1890 -0.8169  0.1385
  214MOL0     C28769   8.794   3.783   4.553 -0.4139  0.1945 -1.2599
  214MOL0     C28770   8.877   3.734   4.435 -0.7217 -0.1110 -0.3182
  214MOL0     C28771   9.001   3.649   4.482 -0.3686 -0.7317 -0.1413
  214MOL0     N28772   9.045   3.565   4.372  0.7500 -0.0694  0.0458
  214MOL0     C28773   9.095   3.616   4.262  0.4904  0.7987 -0.6792
  214MOL0     C28774   9.149   3.512   4.195 -0.9063  0.9251 -0.0352
  214MOL0     C28775   9.233   3.524   4.069 -0.1010  0.3819 -0.3397
  214MOL0     C28776   9.224   3.387   3.983  0.4417 -0.9544  0.3401
  214MOL0     C28777   9.082   3.364   3.935 -0.2404  0.5878  0.5110
  214MOL0     C28778   9.078   3.215   3.886  0.0699  0.1352  0.4969
  214MOL0     O28779   9.069   3.124   3.993 -0.0746 -0.0736  0.2559
  214MOL0     C28780   8.951   3.051   4.008  0.2499  0.2574  0.6814
  214MOL0     C28781   8.831   3.107   4.046 -0.5413 -0.0315 -0.3452
  214MOL0     C28782   8.717   3.031   4.041 -0.4552  0.3417 -0.4961
  214MOL0     C28783   8.592   3.095   4.095  0.2595  0.8000 -0.1739
  214MOL0     C28784   8.720   2.897   3.980  0.3008  0.1732  0.8376
  214MOL0     C28785   8.595   2.810   3.969 -0.4976  0.3389  0.4434
  214MOL0     O28786   8.531   2.749   4.077 -0.1649  0.2006  0.7498
  214MOL0     C28787   8.418   2.669   4.066  0.9821 -0.1814  0.0062
  214MOL0     C28788   8.337   2.664   4.183 -0.5290 -0.0670  0.1242
  214MOL0     C28789   8.220   2.581   4.182  0.8565 -0.2159  0.5284
  214MOL0     C28790   8.180   2.511   4.066 -0.1043  0.4953  0.3829
  214MOL0     O28791   8.072   2.434   4.043  0.2117  0.2618 -0.2398
  214MOL0     C28792   7.977   2.433   4.155 -0.8027  0.1806  0.3601
  214MOL0     C28793   7.845   2.370   4.108  0.5901  0.1542  0.3165
  214MOL0     C28794   7.736   2.379   4.212  0.0865 -0.0873 -0.4660
  214MOL0     C28795   7.604   2.320   4.160  0.0481  0.1304 -0.3028
  214MOL0     C28796   7.492   2.364   4.260  0.0951  0.1021 -0.7562
  214MOL0     C28797   7.354   2.345   4.197  0.9700 -0.2488  0.4858
  214MOL0     C28798   7.300   2.191   4.215  0.0530 -0.3219  0.0155
  214MOL0     C28799   7.161   2.169   4.160  0.0729  0.2057  0.1581
  214MOL0    Cl28800   7.131   1.998   4.183  0.0530  0.4037  0.1816
  214MOL0     C28801   8.259   2.520   3.949  0.0335 -0.2602  0.1354
  214MOL0     C28802   8.370   2.597   3.948  0.3107  0.1780  0.1095
  214MOL0     O28803   8.567   2.784   3.850 -0.2891 -0.4293 -0.3297
  214MOL0     C28804   8.841   2.848   3.938  0.4094 -0.0468  0.1421
  214MOL0     C28805   8.956   2.921   3.957 -0.8608 -0.2148 -0.0635
  214MOL0     N28806   9.126   3.393   4.264  0.5483  0.5593 -0.1770
  214MOL0     N28807   9.070   3.434   4.378 -0.9755  0.1577  0.3689
  214MOL0     C28808   8.710   4.541   4.563  0.7389  0.7749 -0.0538
  214MOL0     C28809   8.746   4.614   4.451 -0.3601 -0.1363  0.8282
  214MOL0     C28810   9.010   4.746   4.085  1.2137  0.3396  1.4188
  214MOL0     C28811   8.984   4.873   4.133 -0.5043  0.9159  0.8523
  214MOL0     C28812   9.027   4.981   4.057 -0.5044 -0.3835  0.0881
  214MOL0     C28813   9.090   4.981   3.938  0.5867  0.3759  0.1719
  214MOL0     O28814   9.122   5.095   3.876  0.2190  0.0158 -0.0165
  214MOL0     C28815   9.215   5.090   3.769 -0.2773 -0.4606  0.2820
  214MOL0     C28816   9.270   5.216   3.727  0.8287  0.0322 -0.2533
  214MOL0     C28817   9.197   5.309   3.639  0.8309 -0.4254 -1.0768
  214MOL0     C28818   9.123   5.423   3.718  0.1849  0.2474 -0.3099
  214MOL0     C28819   9.026   5.501   3.631 -0.1567  0.1257 -0.4448
  214MOL0     C28820   8.944   5.544   3.559  0.5887 -0.2091  0.4472
  214MOL0     C28821   9.107   4.846   3.878 -0.8388 -0.1662 -0.0352
  214MOL0     C28822   9.076   4.733   3.954  0.6270  0.2253 -0.2059
  214MOL0     H28823   8.853   4.373   4.240  2.7101  1.7015  0.5540
  214MOL0     H28824   8.772   4.240   4.412  1.2136  1.9354 -1.1995
  214MOL0     H28825   8.571   4.343   4.798  0.6611  4.4927 -0.7692
  214MOL0     H28826   8.498   4.362   4.639 -0.7099 -0.5571  0.6528
  214MOL0     H28827   8.525   4.118   4.825 -1.5103 -0.4224  0.2505
  214MOL0     H28828   8.388   4.163   4.738 -0.7592  0.9167  2.1441
  214MOL0     H28829   8.447   4.009   4.575  1.7668 -0.0271 -2.1167
  214MOL0     H28830   8.571   4.116   4.521  0.7638 -4.5323 -1.9816
  214MOL0     H28831   8.741   4.013   4.667 -0.7866  1.2983  1.9452
  214MOL0     H28832   8.628   3.881   4.712 -0.4066  1.1438 -0.8294
  214MOL0     H28833   8.598   3.854   4.471 -2.3579  1.4150  0.6172
  214MOL0     H28834   8.744   3.973   4.462 -1.4200  0.1219  1.3581
  214MOL0     H28835   8.856   3.809   4.640 -1.9414 -0.7464  0.1532
  214MOL0     H28836   8.734   3.700   4.589 -0.0132 -0.7311 -2.6311
  214MOL0     H28837   8.811   3.674   4.372 -1.9434  0.8883 -0.0462
  214MOL0     H28838   8.914   3.819   4.376  3.4794 -3.3511 -2.8736
  214MOL0     H28839   8.976   3.591   4.571 -0.8985  0.2952  0.3962
  214MOL0     H28840   9.075   3.730   4.488 -0.4729 -0.0911 -4.3660
  214MOL0     H28841   9.091   3.722   4.238  0.1279  0.7403 -0.8843
  214MOL0     H28842   9.203   3.612   4.010 -0.5897  1.5018  1.4938
  214MOL0     H28843   9.335   3.550   4.099  0.4317  1.6442 -2.9337
  214MOL0     H28844   9.248   3.306   4.053  0.6531  1.2354  2.9676
  214MOL0     H28845   9.294   3.383   3.899  1.7018  1.6410  1.1605
  214MOL0     H28846   9.057   3.429   3.851  0.4442  1.4909  0.9798
  214MOL0     H28847   9.000   3.392   4.003  0.4301  0.2520  1.4889
  214MOL0     H28848   9.167   3.201   3.824  0.1884 -1.4112  0.9740
  214MOL0     H28849   8.990   3.207   3.823  0.6560 -1.9314 -0.1558
  214MOL0     H28850   8.829   3.213   4.072 -0.9062 -0.1107 -0.0433
  214MOL0     H28851   8.537   3.021   4.153 -0.7640  1.3279 -0.4505
  214MOL0     H28852   8.619   3.185   4.152 -0.3686  0.5534  0.5273
  214MOL0     H28853   8.527   3.123   4.012 -0.4028 -1.0867 -0.3351
  214MOL0     H28854   8.353   2.731   4.266 -1.9010  0.1964  0.2024
  214MOL0     H28855   8.183   2.568   4.284 -1.0980  0.9700  0.0231
  214MOL0     H28856   8.011   2.373   4.240 -1.4237  0.3427  0.7248
  214MOL0     H28857   7.960   2.532   4.196  2.0025  0.9114 -0.0210
  214MOL0     H28858   7.802   2.428   4.026 -0.8298  0.4067  1.2204
  214MOL0     H28859   7.851   2.262   4.088  0.0100  0.0077  0.9104
  214MOL0     H28860   7.713   2.486   4.215  1.5314  0.2234  2.5041
  214MOL0     H28861   7.751   2.361   4.319 -2.3590 -0.4734 -0.1095
  214MOL0     H28862   7.592   2.376   4.067 -2.1154  0.3410  0.0519
  214MOL0     H28863   7.608   2.213   4.134 -0.5988  0.0637 -0.1416
  214MOL0     H28864   7.489   2.469   4.291 -0.5254 -0.6241  1.9094
  214MOL0     H28865   7.504   2.300   4.348  0.1254  0.3929 -0.5474
  214MOL0     H28866   7.275   2.406   4.242  0.5453  1.6409 -2.5274
  214MOL0     H28867   7.360   2.364   4.090  0.6136  0.7813  0.6384
  214MOL0     H28868   7.278   2.171   4.320  0.9852 -0.5014  0.1855
  214MOL0     H28869   7.375   2.127   4.167 -2.0363 -1.5686 -1.7884
  214MOL0     H28870   7.154   2.173   4.051 -0.3461 -3.4766 -0.0539
  214MOL0     H28871   7.091   2.242   4.203  0.2221 -0.2640  1.2223
  214MOL0     H28872   8.239   2.443   3.875 -3.3864  0.6108 -0.0157
  214MOL0     H28873   8.434   2.602   3.861 -0.0506 -1.7174 -0.3149
  214MOL0     H28874   8.843   2.750   3.891 -0.4168 -0.9406  1.9027
  214MOL0     H28875   9.057   2.888   3.934 -0.2889  1.5009 -0.1825
  214MOL0     H28876   8.660   4.585   4.649  1.4623  3.5044 -0.9116
  214MOL0     H28877   8.731   4.722   4.451 -0.6435 -0.1183 -1.5470
  214MOL0     H28878   8.933   4.886   4.227 -0.0539  1.1879  1.0655
  214MOL0     H28879   9.031   5.083   4.095 -0.2008  0.1743 -1.3773
  214MOL0     H28880   9.306   5.037   3.800  0.7880  1.5066  0.7064
  214MOL0     H28881   9.173   5.040   3.681 -0.5598  2.2940 -1.2957
  214MOL0     H28882   9.358   5.200   3.664 -1.1030 -0.7860 -2.9260
  214MOL0     H28883   9.297   5.270   3.819  0.6825  0.9026 -0.7175
  214MOL0     H28884   9.115   5.256   3.588 -0.0147  2.0630 -2.4832
  214MOL0     H28885   9.253   5.354   3.557 -0.7545  0.5066 -1.7081
  214MOL0     H28886   9.193   5.495   3.761  1.8615  0.0362 -2.5196
  214MOL0     H28887   9.067   5.375   3.798  1.3962 -3.1358 -1.2778
  214MOL0     H28888   8.882   5.598   3.490 -1.4198 -0.8595  1.6526
  214MOL0     H28889   9.151   4.830   3.780 -1.2248 -1.5706  0.0054
  214MOL0     H28890   9.090   4.629   3.928 -0.3143  0.1712 -0.5362
  215MOL0     O28891   6.422  10.587   1.606  0.6245  0.6379 -0.7424
  215MOL0     C28892   6.385  10.578   1.724  0.7459  0.4499 -0.3431
  215MOL0     O28893   6.273  10.642   1.776  0.4961 -0.6135 -0.4559
  215MOL0     C28894   6.196  10.720   1.689 -0.6532  0.3098 -0.5797
  215MOL0     C28895   6.233  10.855   1.666  1.0020  0.6614 -0.6500
  215MOL0     C28896   6.169  10.920   1.568 -0.7089  0.6742 -0.2291
  215MOL0     C28897   6.058  10.870   1.495  0.0712  0.1052  0.0915
  215MOL0     O28898   5.981  10.935   1.399 -0.2654  0.1163  0.1393
  215MOL0     C28899   5.949  11.074   1.429 -0.1226  1.0082 -0.3508
  215MOL0     C28900   5.810  11.123   1.384  0.5771 -0.4858  0.0659
  215MOL0     C28901   5.705  11.020   1.439  0.9261  0.5015  1.2258
  215MOL0     C28902   5.689  11.000   1.584  0.2440 -0.8083  0.2701
  215MOL0     C28903   5.626  11.124   1.651 -0.4213 -0.4721  0.5787
  215MOL0     C28904   5.637  11.113   1.803  0.6264  0.3584  0.1479
  215MOL0     C28905   5.552  11.221   1.873  0.4918  0.0788 -0.0760
  215MOL0     C28906   5.531  11.205   2.021  0.3794  0.2446  0.0830
  215MOL0     N28907   5.644  11.257   2.100 -0.0651 -0.3611 -0.2120
  215MOL0     C28908   5.653  11.389   2.118  0.2473 -0.4697 -0.1491
  215MOL0     C28909   5.776  11.394   2.187 -0.3770  0.4039 -0.0177
  215MOL0     C28910   5.868  11.521   2.219 -0.7089 -0.4552 -1.2087
  215MOL0     C28911   5.787  11.649   2.239 -0.4545  0.7526  0.4235
  215MOL0     C28912   5.684  11.625   2.356  0.0718 -0.7201  0.0670
  215MOL0     C28913   5.538  11.644   2.306  0.0946  0.0781 -0.2361
  215MOL0     O28914   5.450  11.685   2.419  0.0011  1.3516  0.5239
  215MOL0     C28915   5.437  11.812   2.456  0.4529  0.1103  0.3616
  215MOL0     C28916   5.482  11.922   2.383 -0.4544  0.3983  0.6070
  215MOL0     C28917   5.458  12.052   2.425  0.0361  0.4566  0.6111
  215MOL0     C28918   5.531  12.150   2.338  0.2109 -0.4937 -0.2714
  215MOL0     C28919   5.392  12.080   2.545  1.0096  1.2714 -0.5913
  215MOL0     C28920   5.350  12.208   2.589  0.3525 -0.5768 -0.1571
  215MOL0     O28921   5.292  12.214   2.719  0.4318 -0.1372 -0.6133
  215MOL0     C28922   5.233  12.326   2.775  0.5139  0.5013 -0.3996
  215MOL0     C28923   5.160  12.297   2.896  0.0778 -0.7139  0.3140
  215MOL0     C28924   5.094  12.399   2.974 -0.4506 -0.2726 -0.3732
  215MOL0     C28925   5.084  12.525   2.920 -0.2414  0.1536 -0.1542
  215MOL0     O28926   5.018  12.631   2.986  0.5130  0.0459 -0.0148
  215MOL0     C28927   4.945  12.601   3.105  0.8958 -0.2683  0.3419
  215MOL0     C28928   4.897  12.732   3.162  0.1071 -0.5884 -0.4343
  215MOL0     C28929   4.837  12.726   3.313 -0.5254  0.8345 -0.3821
  215MOL0     C28930   4.928  12.796   3.413 -0.4903  1.6282 -0.4782
  215MOL0     C28931   4.861  12.811   3.551 -1.0946 -0.9635 -0.2038
  215MOL0     C28932   4.964  12.875   3.643 -0.0322  0.1880 -0.1789
  215MOL0     C28933   4.914  12.907   3.782  0.0944 -1.1409  0.5414
  215MOL0     C28934   4.998  13.017   3.847 -0.4892  0.9158 -0.3109
  215MOL0    Cl28935   5.163  12.941   3.867 -0.3755  0.1171  0.3356
  215MOL0     C28936   5.156  12.560   2.807 -0.4402 -0.4266  1.0931
  215MOL0     C28937   5.237  12.466   2.734  0.3532 -0.0610 -0.4933
  215MOL0     O28938   5.380  12.309   2.527 -0.5213 -0.3515 -0.4527
  215MOL0     C28939   5.346  11.970   2.611  0.2914  0.0040  1.0141
  215MOL0     C28940   5.376  11.838   2.573 -0.5543  0.8212  0.1712
  215MOL0     N28941   5.824  11.271   2.217  0.3658  0.1363  0.8616
  215MOL0     N28942   5.738  11.184   2.167  0.4083 -0.0937  0.2702
  215MOL0     C28943   6.013  10.748   1.536  0.5063  0.2608  0.1449
  215MOL0     C28944   6.085  10.672   1.626  0.2448 -0.8110 -0.0494
  215MOL0     C28945   6.467  10.504   1.818 -0.0914 -0.5414 -0.7400
  215MOL0     C28946   6.423  10.488   1.950  0.1651 -0.0381  0.4574
  215MOL0     C28947   6.511  10.421   2.043  1.0289 -0.1080  0.1684
  215MOL0     C28948   6.637  10.374   2.006  0.9017 -0.2523 -0.8085
  215MOL0     O28949   6.708  10.300   2.089  0.0481 -0.5897  0.4027
  215MOL0     C28950   6.689  10.288   2.228  0.6710 -0.3827  0.0803
  215MOL0     C28951   6.782  10.370   2.318  0.1134  1.2271 -1.5344
  215MOL0     C28952   6.922  10.332   2.291 -0.5593 -0.3408 -0.0169
  215MOL0     C28953   6.959  10.186   2.325 -0.2408 -0.1027  0.1953
  215MOL0     C28954   6.950  10.160   2.471 -0.4181  0.1041 -0.1283
  215MOL0     C28955   6.943  10.129   2.591 -0.0893  0.2863  0.0314
  215MOL0     C28956   6.678  10.389   1.874  0.0206  0.4026  0.1509
  215MOL0     C28957   6.588  10.446   1.793  0.6561 -0.8163  0.9197
  215MOL0     H28958   6.307  10.903   1.730 -2.3252 -0.1532  4.3737
  215MOL0     H28959   6.196  11.020   1.536  0.9549 -0.7368 -3.7770
  215MOL0     H28960   5.950  11.094   1.536 -2.3417 -0.0394 -0.0825
  215MOL0     H28961   6.028  11.137   1.387  1.5178 -0.4096  0.4231
  215MOL0     H28962   5.783  11.225   1.411 -2.9497 -0.4991 -2.6680
  215MOL0     H28963   5.806  11.122   1.275 -1.4345 -1.9853  0.0850
  215MOL0     H28964   5.611  11.040   1.386 -0.4534 -1.7587  2.6339
  215MOL0     H28965   5.723  10.919   1.402  0.4056  0.9240 -0.2675
  215MOL0     H28966   5.619  10.916   1.590 -0.7732  0.0153  0.0438
  215MOL0     H28967   5.785  10.981   1.634  2.0985  0.3458 -2.6223
  215MOL0     H28968   5.668  11.220   1.617 -1.4275  0.8718  2.8577
  215MOL0     H28969   5.523  11.137   1.617  0.7165  3.3809 -2.0975
  215MOL0     H28970   5.595  11.015   1.827  1.3784 -0.0728 -0.2724
  215MOL0     H28971   5.739  11.123   1.840  1.0513  2.2590 -1.3576
  215MOL0     H28972   5.622  11.304   1.859 -3.0396  3.1074 -1.5735
  215MOL0     H28973   5.454  11.244   1.832  1.2193  0.1590 -1.8387
  215MOL0     H28974   5.534  11.097   2.037 -2.6406 -0.4096 -2.7042
  215MOL0     H28975   5.432  11.244   2.047 -0.7121 -0.2631 -2.9067
  215MOL0     H28976   5.605  11.479   2.080  2.1446  2.8071  4.2516
  215MOL0     H28977   5.921  11.505   2.313 -2.5503  1.0884  0.1703
  215MOL0     H28978   5.928  11.544   2.130  0.2756  1.7256 -0.0611
  215MOL0     H28979   5.746  11.689   2.146 -2.9271 -1.2137  0.5782
  215MOL0     H28980   5.856  11.720   2.287  0.3543 -1.3791  2.6233
  215MOL0     H28981   5.700  11.698   2.437 -2.4077  0.5653 -0.5151
  215MOL0     H28982   5.700  11.525   2.397  3.6081 -0.0842  0.5664
  215MOL0     H28983   5.525  11.550   2.252  4.0955 -1.0236  0.3583
  215MOL0     H28984   5.533  11.722   2.229 -2.9324  0.1253 -0.0931
  215MOL0     H28985   5.529  11.908   2.286 -2.4925 -2.2218 -0.1502
  215MOL0     H28986   5.457  12.200   2.273  0.0555 -2.8491 -2.0644
  215MOL0     H28987   5.591  12.222   2.393  1.9223 -0.9370 -1.4788
  215MOL0     H28988   5.604  12.107   2.269 -0.2384 -0.6548 -0.6531
  215MOL0     H28989   5.178  12.199   2.938 -0.4895 -1.0176 -0.1163
  215MOL0     H28990   5.070  12.381   3.078  2.0529  0.2650  0.3692
  215MOL0     H28991   4.863  12.530   3.092  1.4924 -1.0394  0.6573
  215MOL0     H28992   4.999  12.545   3.182 -0.1487 -1.8377 -0.0042
  215MOL0     H28993   4.983  12.799   3.164 -0.1506  0.0644 -4.2675
  215MOL0     H28994   4.824  12.764   3.087 -0.9862  2.0961  1.6010
  215MOL0     H28995   4.816  12.622   3.341 -1.9809  0.6931 -1.8437
  215MOL0     H28996   4.738  12.771   3.304 -1.7407 -1.0521  2.2917
  215MOL0     H28997   5.016  12.732   3.412 -0.9277  0.9548  1.2993
  215MOL0     H28998   4.964  12.893   3.375 -1.7635  1.9333 -0.9643
  215MOL0     H28999   4.831  12.716   3.595 -1.2108 -2.1220 -2.6433
  215MOL0     H29000   4.773  12.876   3.549 -3.6830 -4.2009  1.0452
  215MOL0     H29001   5.057  12.818   3.659  1.4681  2.7138  0.6739
  215MOL0     H29002   4.993  12.974   3.607 -0.0597  1.4297  2.9402
  215MOL0     H29003   4.913  12.820   3.848  2.2320 -1.3905  0.3003
  215MOL0     H29004   4.814  12.952   3.786  0.6326  0.0412  1.7905
  215MOL0     H29005   4.958  13.035   3.947 -0.5010  0.6440 -0.2664
  215MOL0     H29006   4.993  13.110   3.790  0.8311  0.3739 -1.3460
  215MOL0     H29007   5.149  12.660   2.765  1.0580 -0.0910  1.6030
  215MOL0     H29008   5.278  12.489   2.636  1.2583 -0.5284 -0.2332
  215MOL0     H29009   5.290  11.977   2.703 -1.5886 -2.0885  0.1045
  215MOL0     H29010   5.357  11.752   2.637  1.9014  2.0644  2.7774
  215MOL0     H29011   5.921  10.705   1.499  1.7168 -1.8363 -0.5665
  215MOL0     H29012   6.040  10.579   1.661  0.0452 -0.9515 -0.6698
  215MOL0     H29013   6.321  10.521   1.967 -0.1373  2.4866 -4.3179
  215MOL0     H29014   6.479  10.418   2.147 -0.0389  2.3941 -0.0146
  215MOL0     H29015   6.584  10.304   2.255  1.0088  0.0036  1.2354
  215MOL0     H29016   6.704  10.186   2.263 -1.6729 -1.7574 -2.5654
  215MOL0     H29017   6.755  10.348   2.422  1.3073 -0.5291 -1.5500
  215MOL0     H29018   6.765  10.478   2.308  1.6312  1.8175  1.3114
  215MOL0     H29019   6.995  10.402   2.335 -3.1843  2.9590 -0.4800
  215MOL0     H29020   6.953  10.340   2.187  0.0772  2.1938  0.2848
  215MOL0     H29021   7.066  10.168   2.312 -0.3502 -1.2046  0.6732
  215MOL0     H29022   6.895  10.116   2.271 -1.5680  1.4890 -0.3914
  215MOL0     H29023   6.922  10.129   2.696 -1.1839 -1.9975 -0.1218
  215MOL0     H29024   6.768  10.342   1.835  1.0047  0.1557  2.5823
  215MOL0     H29025   6.616  10.437   1.688 -1.5153 -3.0881  0.4126
  216MOL0     O29026   2.951   6.899   6.833 -0.4605  0.7880  0.3776
  216MOL0     C29027   3.013   6.853   6.934  0.4424 -0.1596  0.4331
  216MOL0     O29028   2.953   6.819   7.053 -0.2790 -0.3930 -0.4002
  216MOL0     C29029   2.819   6.790   7.053  0.2063  0.7275  0.5760
  216MOL0     C29030   2.793   6.700   7.156  0.5889 -0.1538  0.3481
  216MOL0     C29031   2.662   6.664   7.188 -0.3812 -0.6242  0.1007
  216MOL0     C29032   2.556   6.720   7.110  0.2823 -0.7633  0.9204
  216MOL0     O29033   2.421   6.690   7.130 -0.0588 -1.2475  0.0779
  216MOL0     C29034   2.368   6.757   7.245 -0.0253 -0.0451 -0.1089
  216MOL0     C29035   2.220   6.752   7.249 -0.3552 -0.1052  1.1977
  216MOL0     C29036   2.170   6.854   7.347 -0.2569  0.5429 -0.2992
  216MOL0     C29037   2.020   6.860   7.353 -0.2873  0.4986  0.0519
  216MOL0     C29038   1.982   6.981   7.441  0.5618 -0.5643  0.4090
  216MOL0     C29039   1.829   6.961   7.464  0.1377  0.5113 -1.2597
  216MOL0     C29040   1.783   7.066   7.555  1.0250  0.0598 -0.2077
  216MOL0     C29041   1.629   7.064   7.566 -0.3437  0.7750 -0.4277
  216MOL0     N29042   1.590   7.154   7.675  0.8476 -0.3021  0.3843
  216MOL0     C29043   1.514   7.114   7.779  0.2653  0.1152  0.1834
  216MOL0     C29044   1.465   7.234   7.825  0.1026 -0.3143 -0.5111
  216MOL0     C29045   1.351   7.263   7.922 -0.0639  0.4702 -0.6469
  216MOL0     C29046   1.284   7.398   7.908  0.0109 -0.6852 -0.5663
  216MOL0     C29047   1.168   7.408   8.007  0.4023 -0.2484 -0.2836
  216MOL0     C29048   1.049   7.318   7.984  0.3884 -0.5655  0.6116
  216MOL0     O29049   0.956   7.391   7.897 -0.4916  0.1923  0.6277
  216MOL0     C29050   0.896   7.502   7.952  0.4194  1.0872 -0.2550
  216MOL0     C29051   0.828   7.501   8.078  0.0438  0.8818  1.0423
  216MOL0     C29052   0.755   7.611   8.121 -0.4691 -0.3736 -0.4176
  216MOL0     C29053   0.693   7.603   8.267 -0.2939 -0.2657  1.2755
  216MOL0     C29054   0.750   7.731   8.048 -0.5121  0.1406 -0.9457
  216MOL0     C29055   0.679   7.854   8.087  0.1973  0.0357 -0.7249
  216MOL0     O29056   0.665   7.951   7.997 -0.2396 -0.7321  0.1893
  216MOL0     C29057   0.575   8.057   8.013  0.0224 -0.7341  0.2011
  216MOL0     C29058   0.634   8.183   8.014  0.0200 -0.0218  0.4880
  216MOL0     C29059   0.556   8.292   8.050 -1.3189  0.1003 -0.6843
  216MOL0     C29060   0.420   8.277   8.073 -0.5062 -0.1880  0.4552
  216MOL0     O29061   0.341   8.391   8.101  0.1580  0.4403 -0.0379
  216MOL0     C29062   0.300   8.401   8.238 -0.6253 -0.3553 -0.3324
  216MOL0     C29063   0.162   8.355   8.239 -0.2831 -0.2666  0.0718
  216MOL0     C29064   0.069   8.400   8.122  0.4952 -0.1159  0.8256
  216MOL0     C29065  -0.065   8.347   8.155 -0.3078  0.4159  0.0425
  216MOL0     C29066  -0.152   8.306   8.030 -0.2116 -0.7931 -0.1080
  216MOL0     C29067  -0.119   8.158   7.986  0.0743 -0.0617 -0.0594
  216MOL0     C29068  -0.182   8.119   7.850 -0.5238 -0.3407 -0.0700
  216MOL0     C29069  -0.339   8.150   7.835 -0.9305  0.3322  0.5337
  216MOL0    Cl29070  -0.433   8.011   7.900 -0.4031  0.0154 -0.8944
  216MOL0     C29071   0.356   8.157   8.063 -0.0099  1.1256 -0.0807
  216MOL0     C29072   0.443   8.041   8.038  0.3328 -0.2196 -0.2586
  216MOL0     O29073   0.655   7.871   8.216 -0.2005  0.8728 -0.6962
  216MOL0     C29074   0.808   7.724   7.924 -0.6132  0.2672  0.8036
  216MOL0     C29075   0.882   7.617   7.874 -0.0136 -0.3962 -1.0626
  216MOL0     N29076   1.521   7.337   7.749 -0.6371 -0.1025  0.0856
  216MOL0     N29077   1.596   7.289   7.655  0.3400 -0.1432  0.6817
  216MOL0     C29078   2.580   6.812   7.009 -0.8348 -0.9721  0.2220
  216MOL0     C29079   2.711   6.851   6.980  0.3713 -0.3874  1.3499
  216MOL0     C29080   3.163   6.841   6.931  0.4639  0.2005  0.7395
  216MOL0     C29081   3.233   6.901   6.819 -0.2515  0.4771  0.6730
  216MOL0     C29082   3.371   6.900   6.818 -0.2920 -0.5290  0.1674
  216MOL0     C29083   3.447   6.843   6.917 -0.3591 -0.4984 -0.4863
  216MOL0     O29084   3.584   6.853   6.930  0.0932 -0.6293 -0.1950
  216MOL0     C29085   3.651   6.955   6.853 -0.0139 -0.4498  0.1175
  216MOL0     C29086   3.803   6.936   6.863 -0.3179  0.4314 -0.2927
  216MOL0     C29087   3.841   6.795   6.825  0.4873 -0.1392  0.6986
  216MOL0     C29088   3.991   6.780   6.784  0.5972  0.5285  0.4678
  216MOL0     C29089   4.081   6.826   6.886  0.5690  0.9682  0.8916
  216MOL0     C29090   4.166   6.853   6.963  0.0406 -1.2417  0.7003
  216MOL0     C29091   3.380   6.783   7.016  0.8012  0.5235  0.5616
  216MOL0     C29092   3.241   6.783   7.034  1.0614  0.2277  0.6318
  216MOL0     H29093   2.880   6.660   7.208  1.0811  2.3723  1.6128
  216MOL0     H29094   2.642   6.600   7.273 -0.3770 -0.0800  0.5158
  216MOL0     H29095   2.403   6.704   7.334 -0.4819  1.4810  1.0306
  216MOL0     H29096   2.403   6.859   7.263 -0.9819  0.0302  1.6025
  216MOL0     H29097   2.181   6.782   7.151  1.3220  4.3949  1.6933
  216MOL0     H29098   2.177   6.655   7.277  0.2072 -0.7929 -0.2069
  216MOL0     H29099   2.208   6.832   7.448 -0.8438  0.6442 -0.0541
  216MOL0     H29100   2.211   6.951   7.319 -2.8658  0.9531 -3.1770
  216MOL0     H29101   1.984   6.864   7.250 -0.3513 -2.6254 -0.1435
  216MOL0     H29102   1.979   6.769   7.397  0.0278  0.2526 -0.1554
  216MOL0     H29103   2.035   6.972   7.536  0.0250  2.6206  1.1055
  216MOL0     H29104   1.999   7.076   7.391  3.3841 -0.6842  0.9691
  216MOL0     H29105   1.773   6.957   7.370 -0.6318 -1.4540 -0.7698
  216MOL0     H29106   1.814   6.865   7.514  1.0900  1.4527  0.9734
  216MOL0     H29107   1.819   7.042   7.656  1.3982 -0.8682 -0.5507
  216MOL0     H29108   1.808   7.169   7.529 -0.3263  0.6820  0.7743
  216MOL0     H29109   1.592   6.961   7.574  2.9893 -0.7063 -2.1066
  216MOL0     H29110   1.583   7.099   7.473 -2.9340  0.3622  0.6065
  216MOL0     H29111   1.494   7.008   7.789  0.7303 -0.6055 -4.5446
  216MOL0     H29112   1.272   7.189   7.901  0.3865 -0.9751  2.2406
  216MOL0     H29113   1.390   7.239   8.021  1.1738  3.0096 -0.4512
  216MOL0     H29114   1.253   7.420   7.805 -4.2404  1.2440  0.8848
  216MOL0     H29115   1.368   7.464   7.928  0.5473 -1.2273 -0.9915
  216MOL0     H29116   1.139   7.512   8.028 -0.5528 -0.5628 -0.0023
  216MOL0     H29117   1.215   7.378   8.101  2.1368  2.7329 -0.0779
  216MOL0     H29118   0.999   7.303   8.081 -1.1709 -2.5968 -0.4110
  216MOL0     H29119   1.070   7.220   7.940 -1.1263 -0.2583 -0.9039
  216MOL0     H29120   0.831   7.404   8.127  0.4514 -0.6000 -1.6886
  216MOL0     H29121   0.733   7.675   8.338  0.1842 -0.9846  1.7381
  216MOL0     H29122   0.586   7.627   8.266 -0.2602  0.0785  2.9282
  216MOL0     H29123   0.711   7.505   8.311  0.8731 -1.1633 -1.0093
  216MOL0     H29124   0.739   8.182   7.989 -0.4691 -0.3738 -1.7410
  216MOL0     H29125   0.595   8.391   8.070 -2.3586  0.2945  0.4450
  216MOL0     H29126   0.366   8.343   8.304 -0.8137  0.5746  0.6916
  216MOL0     H29127   0.315   8.505   8.267 -0.2417  0.5938 -3.5571
  216MOL0     H29128   0.180   8.248   8.243 -2.1364 -0.6132  0.0246
  216MOL0     H29129   0.104   8.383   8.328 -2.7957  2.6987 -2.2798
  216MOL0     H29130   0.101   8.360   8.025  0.5362 -1.8929  1.5402
  216MOL0     H29131   0.071   8.509   8.111 -0.0365 -0.1650  0.2127
  216MOL0     H29132  -0.060   8.263   8.225 -4.7929 -3.6808 -3.8697
  216MOL0     H29133  -0.126   8.426   8.201  0.6824  1.6019 -0.6076
  216MOL0     H29134  -0.132   8.381   7.953 -0.6231 -0.9721 -0.3937
  216MOL0     H29135  -0.256   8.322   8.058 -0.1768  0.3067 -0.5672
  216MOL0     H29136  -0.010   8.154   7.976 -0.1086 -0.8642 -2.4023
  216MOL0     H29137  -0.157   8.091   8.064  0.8529 -0.6548 -0.1725
  216MOL0     H29138  -0.163   8.013   7.834  0.4646 -0.2608  0.5044
  216MOL0     H29139  -0.142   8.180   7.768  2.2857  0.6731  1.8897
  216MOL0     H29140  -0.361   8.166   7.729  1.1815  1.0088  0.1416
  216MOL0     H29141  -0.351   8.244   7.890  0.5047  2.1182 -1.9918
  216MOL0     H29142   0.249   8.141   8.068 -0.1732  2.2063  4.6976
  216MOL0     H29143   0.417   7.937   8.024  4.3801 -1.1027 -3.2497
  216MOL0     H29144   0.808   7.811   7.859 -1.7820 -0.1672  0.1919
  216MOL0     H29145   0.904   7.627   7.768 -2.0506  0.9605 -1.4190
  216MOL0     H29146   2.497   6.847   6.948  0.8691 -0.3611 -1.8766
  216MOL0     H29147   2.733   6.918   6.898  0.5696  1.2035  2.6609
  216MOL0     H29148   3.175   6.947   6.741 -0.3541  3.1308  2.2187
  216MOL0     H29149   3.427   6.969   6.756 -1.5279  0.6547  0.3331
  216MOL0     H29150   3.626   6.930   6.750  1.2428 -0.0702 -0.3034
  216MOL0     H29151   3.633   7.057   6.889 -3.7405 -0.7642 -0.4673
  216MOL0     H29152   3.829   6.948   6.969 -0.1534 -0.7531 -0.1911
  216MOL0     H29153   3.854   7.012   6.803  0.8528  0.4088  0.6356
  216MOL0     H29154   3.782   6.760   6.740  2.8891  0.1476 -1.1916
  216MOL0     H29155   3.810   6.731   6.909  0.0987 -2.4289 -1.0867
  216MOL0     H29156   3.993   6.849   6.699 -0.7548 -0.3576 -0.3192
  216MOL0     H29157   4.004   6.679   6.744 -4.3373 -0.1798  0.0195
  216MOL0     H29158   4.249   6.865   7.029 -0.8411 -0.8697  1.7819
  216MOL0     H29159   3.435   6.734   7.096  2.8538  1.7267 -0.0487
  216MOL0     H29160   3.197   6.746   7.126  2.0591 -0.3386  0.8983
  217MOL0     O29161   1.439   4.576  10.792 -0.2787  0.5773  0.3335
  217MOL0     C29162   1.427   4.666  10.707 -0.5559  0.5492 -0.5628
  217MOL0     O29163   1.364   4.661  10.585  0.2838  0.7041  0.0482
  217MOL0     C29164   1.306   4.541  10.543 -0.6235 -0.4561  0.5880
  217MOL0     C29165   1.252   4.432  10.611 -0.1232  0.3534 -0.2238
  217MOL0     C29166   1.209   4.321  10.541 -0.4560  0.3198 -0.2776
  217MOL0     C29167   1.215   4.315  10.402 -0.2792  0.7247  0.3654
  217MOL0     O29168   1.179   4.207  10.328  0.4030 -1.3476  0.3791
  217MOL0     C29169   1.077   4.118  10.369 -1.2576  0.2036 -0.2092
  217MOL0     C29170   1.007   4.062  10.243  0.4573  0.7725 -0.5932
  217MOL0     C29171   1.093   3.956  10.160 -1.1555  0.1123 -0.0434
  217MOL0     C29172   1.072   3.805  10.197  0.5681  0.0530  0.6260
  217MOL0     C29173   1.194   3.719  10.161 -0.0472 -0.2968  0.0767
  217MOL0     C29174   1.191   3.569  10.212  0.0896 -0.2913 -0.0815
  217MOL0     C29175   1.106   3.475  10.106 -0.3840  0.6877  0.1115
  217MOL0     C29176   1.182   3.408   9.991 -0.5921 -0.4708 -0.3567
  217MOL0     N29177   1.284   3.305  10.039 -0.1233  0.6245 -0.3269
  217MOL0     C29178   1.407   3.306   9.982 -0.1790  0.0969 -1.1338
  217MOL0     C29179   1.477   3.216  10.052 -1.2383 -0.9392 -0.1030
  217MOL0     C29180   1.632   3.192  10.035  0.1559  0.4501  0.4706
  217MOL0     C29181   1.718   3.304  10.099 -0.0359  0.3766  0.5164
  217MOL0     C29182   1.708   3.324  10.255  0.8756  0.5193  0.5751
  217MOL0     C29183   1.703   3.467  10.306  0.0002 -0.1989 -0.2717
  217MOL0     O29184   1.559   3.505  10.329 -0.2596  0.1499  0.2949
  217MOL0     C29185   1.518   3.453  10.453 -1.3272 -0.6065  0.1073
  217MOL0     C29186   1.575   3.473  10.579 -0.0478 -0.4208 -0.5615
  217MOL0     C29187   1.524   3.423  10.703  0.3401  0.2400 -0.6280
  217MOL0     C29188   1.607   3.448  10.825  0.0822  0.4389 -0.2798
  217MOL0     C29189   1.403   3.343  10.693 -0.3721 -0.7982  0.0730
  217MOL0     C29190   1.343   3.285  10.816 -0.1575 -0.1199 -1.1181
  217MOL0     O29191   1.219   3.232  10.802 -0.0545  0.7116  0.6440
  217MOL0     C29192   1.181   3.133  10.891  0.3311 -0.1420  0.3053
  217MOL0     C29193   1.206   3.117  11.028 -0.2436 -0.0663 -0.2403
  217MOL0     C29194   1.155   3.015  11.104  0.1223  0.1955 -0.1510
  217MOL0     C29195   1.070   2.917  11.047  0.4394  0.8282  0.6770
  217MOL0     O29196   1.024   2.819  11.127 -0.0949  0.4727 -0.5962
  217MOL0     C29197   0.899   2.760  11.080 -0.6828  0.2100 -0.8384
  217MOL0     C29198   0.831   2.688  11.210 -0.1475 -0.5731  1.0924
  217MOL0     C29199   0.928   2.616  11.298 -0.8458 -0.8643  0.2820
  217MOL0     C29200   0.863   2.545  11.409  0.8129  0.2178 -0.0249
  217MOL0     C29201   0.969   2.497  11.531 -0.4040 -0.1673  1.3111
  217MOL0     C29202   0.889   2.481  11.656  0.0818  1.1062 -0.8083
  217MOL0     C29203   0.793   2.361  11.641  0.3377 -0.4311 -0.2919
  217MOL0     C29204   0.696   2.376  11.751  0.9673  0.1588 -0.6233
  217MOL0    Cl29205   0.571   2.245  11.737  0.2411 -0.2039 -0.2227
  217MOL0     C29206   1.040   2.947  10.909  0.7005  0.3695  0.3371
  217MOL0     C29207   1.100   3.044  10.835 -0.4361 -1.1700  0.1637
  217MOL0     O29208   1.408   3.281  10.918 -0.2000  0.6664 -0.0974
  217MOL0     C29209   1.342   3.333  10.568  0.3666  0.9181  0.2781
  217MOL0     C29210   1.399   3.379  10.449  0.1284  0.2165 -0.0396
  217MOL0     N29211   1.396   3.161  10.149  0.2271 -0.9225  0.8742
  217MOL0     N29212   1.279   3.218  10.141  0.0651 -0.6927  0.3904
  217MOL0     C29213   1.283   4.417  10.328 -0.3250 -0.3968  0.0183
  217MOL0     C29214   1.328   4.526  10.403  0.4011 -0.7023  0.7287
  217MOL0     C29215   1.475   4.796  10.760  0.3225 -0.2428  0.4066
  217MOL0     C29216   1.557   4.800  10.877 -0.7977 -0.5245  0.0899
  217MOL0     C29217   1.626   4.912  10.922  0.3836 -0.4083 -0.1226
  217MOL0     C29218   1.609   5.033  10.849  0.5828  0.0563  0.1835
  217MOL0     O29219   1.681   5.134  10.888  0.6761  0.3322 -0.2547
  217MOL0     C29220   1.755   5.210  10.795 -0.1009  0.3642  0.1148
  217MOL0     C29221   1.837   5.128  10.690 -0.2347 -0.4094  0.0299
  217MOL0     C29222   1.914   5.215  10.587  0.5615 -0.1714 -0.3041
  217MOL0     C29223   1.831   5.289  10.486 -0.0017 -0.2791  0.0874
  217MOL0     C29224   1.755   5.186  10.413 -0.0220 -0.1322  0.2906
  217MOL0     C29225   1.695   5.103  10.350 -0.0353 -0.1883  0.1285
  217MOL0     C29226   1.517   5.035  10.747 -0.0892  0.1148 -1.1741
  217MOL0     C29227   1.456   4.918  10.698  0.2055 -0.7305 -0.2121
  217MOL0     H29228   1.238   4.411  10.716  0.4854 -0.9870 -0.3888
  217MOL0     H29229   1.167   4.237  10.596 -1.3940 -1.1700 -3.0372
  217MOL0     H29230   1.125   4.038  10.425 -2.1834  0.8138  1.5460
  217MOL0     H29231   1.004   4.169  10.433  1.8812  2.7748  1.5996
  217MOL0     H29232   0.920   4.005  10.274  0.9906 -0.7643 -1.8035
  217MOL0     H29233   0.971   4.139  10.174  1.5729  2.1667  0.3234
  217MOL0     H29234   1.096   3.964  10.051  0.2688 -3.2848 -0.3835
  217MOL0     H29235   1.196   3.985  10.180 -0.2291 -0.6063 -3.2018
  217MOL0     H29236   1.054   3.789  10.304  0.6286 -1.0430  0.4881
  217MOL0     H29237   0.992   3.757  10.140 -0.3500  0.0775  1.8379
  217MOL0     H29238   1.221   3.723  10.056  1.1111 -0.8021  0.3409
  217MOL0     H29239   1.277   3.774  10.206 -1.0379  0.2055  1.3803
  217MOL0     H29240   1.292   3.530  10.225  0.7520  0.7557 -1.8124
  217MOL0     H29241   1.134   3.565  10.306 -3.6066 -2.7193 -2.1456
  217MOL0     H29242   1.054   3.400  10.167 -1.5041  1.0714 -0.3507
  217MOL0     H29243   1.028   3.542  10.069 -0.0760  1.6551  1.1627
  217MOL0     H29244   1.218   3.484   9.920 -0.8233 -0.8104 -0.8489
  217MOL0     H29245   1.115   3.339   9.938 -0.1816 -1.7695  0.7571
  217MOL0     H29246   1.447   3.380   9.914  0.6177  1.6363  0.9573
  217MOL0     H29247   1.648   3.091  10.076  1.1937 -0.1650 -1.3604
  217MOL0     H29248   1.648   3.191   9.927 -0.4755  0.3006  0.3730
  217MOL0     H29249   1.693   3.395  10.045 -1.3396 -0.5655 -0.5446
  217MOL0     H29250   1.821   3.278  10.075 -0.8166  0.0247 -3.0839
  217MOL0     H29251   1.797   3.277  10.297 -0.0360 -1.2645  0.5771
  217MOL0     H29252   1.630   3.261  10.296  0.6058  0.6090  0.2094
  217MOL0     H29253   1.747   3.530  10.228 -1.7874  0.6819 -0.6329
  217MOL0     H29254   1.761   3.474  10.398 -2.3998  0.9595  1.2760
  217MOL0     H29255   1.670   3.526  10.579 -0.4570  0.3354 -0.2251
  217MOL0     H29256   1.652   3.363  10.877 -2.0939 -0.9692 -0.6101
  217MOL0     H29257   1.684   3.520  10.794 -2.9316  2.9286 -2.5930
  217MOL0     H29258   1.549   3.495  10.905  2.9820 -1.4858  3.2770
  217MOL0     H29259   1.256   3.194  11.087  0.0355 -1.0229  0.7978
  217MOL0     H29260   1.161   3.013  11.212  0.7017 -0.0682 -0.1834
  217MOL0     H29261   0.830   2.836  11.043 -0.1353  0.2293 -1.8908
  217MOL0     H29262   0.920   2.692  10.996  1.4354 -1.5672  1.0012
  217MOL0     H29263   0.783   2.764  11.273 -0.6564 -0.6577  0.8148
  217MOL0     H29264   0.751   2.621  11.176  2.3569 -3.7775  1.0377
  217MOL0     H29265   1.003   2.683  11.341 -1.2296  1.0548 -1.8510
  217MOL0     H29266   0.988   2.548  11.236  3.3929  0.8398  2.1192
  217MOL0     H29267   0.794   2.620  11.449  1.9305  1.4959 -0.4409
  217MOL0     H29268   0.814   2.451  11.380  1.6137  0.1775 -1.3119
  217MOL0     H29269   1.045   2.570  11.560 -1.3351  1.4646 -0.1968
  217MOL0     H29270   1.015   2.401  11.506  1.4560  0.9385  0.2370
  217MOL0     H29271   0.952   2.464  11.744  0.3218  3.0842 -0.5609
  217MOL0     H29272   0.842   2.572  11.693 -2.0165  0.5561 -1.9726
  217MOL0     H29273   0.853   2.272  11.660  3.1722  1.4726  0.3855
  217MOL0     H29274   0.744   2.354  11.543 -0.8791  0.6896  0.2036
  217MOL0     H29275   0.645   2.472  11.739 -1.0695 -0.8631 -0.4106
  217MOL0     H29276   0.734   2.384  11.853 -5.4324  1.5152  2.1279
  217MOL0     H29277   0.956   2.892  10.867  2.0417 -0.9448 -0.7627
  217MOL0     H29278   1.065   3.063  10.734 -1.6333  1.6211  0.9942
  217MOL0     H29279   1.247   3.283  10.557  0.0710  0.3525  4.0947
  217MOL0     H29280   1.352   3.377  10.351  1.0226  2.0928 -0.5600
  217MOL0     H29281   1.293   4.412  10.220  1.3786  1.7274  0.0031
  217MOL0     H29282   1.379   4.609  10.357  0.6565 -0.3046  1.6991
  217MOL0     H29283   1.570   4.702  10.923 -3.3966 -2.0134 -2.0375
  217MOL0     H29284   1.685   4.914  11.013 -0.4292  2.4685  0.4522
  217MOL0     H29285   1.692   5.290  10.755  0.7822  1.1659  0.2893
  217MOL0     H29286   1.828   5.259  10.860  1.3490 -0.0688 -1.1354
  217MOL0     H29287   1.771   5.063  10.631 -1.0858 -0.0694  0.5899
  217MOL0     H29288   1.909   5.066  10.744  2.5351  0.7783 -2.0702
  217MOL0     H29289   1.972   5.140  10.533 -2.6578 -3.0745 -0.0980
  217MOL0     H29290   1.976   5.288  10.640  0.6460 -0.1971 -0.3672
  217MOL0     H29291   1.879   5.361  10.419 -2.2063  1.4269  0.1868
  217MOL0     H29292   1.764   5.360  10.536  2.7344  4.9972 -2.8489
  217MOL0     H29293   1.649   5.028  10.290  1.1328 -0.5299 -0.3820
  217MOL0     H29294   1.503   5.129  10.695 -0.7845  0.9823  0.5128
  217MOL0     H29295   1.378   4.934  10.625  0.4443  1.0209 -0.1139
  218MOL0     O29296   9.954   3.161   4.017  0.2018  0.2660  0.1425
  218MOL0     C29297  10.072   3.170   4.030  0.4868  0.0008 -0.0573
  218MOL0     O29298  10.160   3.076   4.004 -1.1665  0.3776  0.7309
  218MOL0     C29299  10.136   2.950   3.953  0.4016  0.3219 -0.2896
  218MOL0     C29300  10.237   2.864   3.968 -0.6543  0.0791  0.1228
  218MOL0     C29301  10.210   2.736   3.917  0.9808 -0.2358  0.5189
  218MOL0     C29302  10.101   2.700   3.842  1.5740 -0.8146 -0.4460
  218MOL0     O29303  10.086   2.579   3.787 -0.7733 -0.5126 -0.0630
  218MOL0     C29304  10.191   2.485   3.791  0.3919  0.0896  0.3332
  218MOL0     C29305  10.145   2.353   3.726  0.5564 -1.3776  0.4418
  218MOL0     C29306  10.261   2.254   3.722  0.7999 -1.2564 -0.0106
  218MOL0     C29307  10.395   2.284   3.648 -0.2283 -0.0192  0.2854
  218MOL0     C29308  10.516   2.207   3.698  0.4470  0.3603 -0.1680
  218MOL0     C29309  10.522   2.067   3.647 -0.7651 -0.4241 -0.6700
  218MOL0     C29310  10.650   1.987   3.685  0.3698 -0.0084  0.0366
  218MOL0     C29311  10.628   1.844   3.644  0.5680  0.3516 -0.3810
  218MOL0     N29312  10.638   1.833   3.497  0.8975  0.2138  0.2926
  218MOL0     C29313  10.753   1.805   3.425  0.7267  0.2559  0.2245
  218MOL0     C29314  10.707   1.774   3.304  0.4984  0.3797  1.3327
  218MOL0     C29315  10.775   1.751   3.179 -0.4049  0.3734 -0.8902
  218MOL0     C29316  10.873   1.853   3.151 -0.6801 -0.0392  0.7967
  218MOL0     C29317  10.818   2.001   3.144 -0.0290 -0.0021 -0.1427
  218MOL0     C29318  10.749   2.021   3.012  0.7243 -0.1115  0.0038
  218MOL0     O29319  10.686   2.158   3.000 -0.3074  0.9770 -0.0343
  218MOL0     C29320  10.563   2.180   3.058 -0.5064 -0.6627  0.3755
  218MOL0     C29321  10.480   2.081   3.124  0.0176  0.5854  0.2008
  218MOL0     C29322  10.357   2.099   3.166  0.3540  0.4797 -1.0505
  218MOL0     C29323  10.278   1.976   3.200 -1.1374  0.7035  0.4071
  218MOL0     C29324  10.318   2.236   3.187  0.1612 -0.3575 -0.6844
  218MOL0     C29325  10.198   2.281   3.256  0.6129  0.5151  0.4906
  218MOL0     O29326  10.151   2.404   3.217  0.5731  0.7780 -0.1538
  218MOL0     C29327  10.038   2.451   3.294 -0.1989 -1.1859 -0.9911
  218MOL0     C29328   9.906   2.412   3.273 -0.6985  0.0794 -0.3994
  218MOL0     C29329   9.798   2.458   3.351 -0.0901 -0.1159  0.3398
  218MOL0     C29330   9.821   2.542   3.460  1.0002  0.4746  1.0822
  218MOL0     O29331   9.700   2.574   3.522 -0.6588  0.2107  0.3956
  218MOL0     C29332   9.706   2.668   3.625  0.4811 -1.5398 -0.4597
  218MOL0     C29333   9.581   2.664   3.703  0.6359  1.0927  0.3150
  218MOL0     C29334   9.589   2.742   3.831  0.6689  0.5671  0.2852
  218MOL0     C29335   9.561   2.900   3.799 -0.6700  0.0603 -0.0762
  218MOL0     C29336   9.549   2.970   3.937  0.9848  0.1778  0.3100
  218MOL0     C29337   9.592   3.116   3.913 -0.2209  1.4585  0.1436
  218MOL0     C29338   9.601   3.191   4.044  0.3636 -0.1251 -1.2251
  218MOL0     C29339   9.618   3.339   4.028 -0.1102  0.6007  0.0830
  218MOL0    Cl29340   9.616   3.435   4.175  0.0926  0.1808  0.1451
  218MOL0     C29341   9.952   2.584   3.486 -1.0463  0.2770 -0.5707
  218MOL0     C29342  10.060   2.530   3.411  0.4259  0.1323 -0.5613
  218MOL0     O29343  10.136   2.199   3.323 -0.1039  0.2021 -0.2368
  218MOL0     C29344  10.404   2.336   3.133 -0.3523 -0.4380  0.3146
  218MOL0     C29345  10.512   2.307   3.054  0.3233 -0.2029  0.0475
  218MOL0     N29346  10.565   1.793   3.302 -0.8937 -0.0716 -0.3802
  218MOL0     N29347  10.536   1.828   3.415  0.7408  0.4424 -0.9066
  218MOL0     C29348  10.010   2.806   3.810 -0.4196  0.2605  0.2326
  218MOL0     C29349  10.025   2.925   3.871 -0.4025  0.0253  0.4994
  218MOL0     C29350  10.121   3.299   4.082 -0.3054  0.2357 -0.1169
  218MOL0     C29351  10.038   3.399   4.140  0.2000  1.0528 -0.6217
  218MOL0     C29352  10.083   3.511   4.194 -0.0974 -0.9013  0.1751
  218MOL0     C29353  10.217   3.546   4.175 -0.0700 -0.2936  0.0549
  218MOL0     O29354  10.276   3.662   4.233  0.1998 -0.1801 -0.4139
  218MOL0     C29355  10.197   3.743   4.319 -0.9820  0.0899  0.4463
  218MOL0     C29356  10.173   3.681   4.451  0.6902 -0.5270  0.3402
  218MOL0     C29357  10.286   3.701   4.545 -0.1378 -0.4926  0.6855
  218MOL0     C29358  10.259   3.660   4.690  0.7139 -0.1576  0.5491
  218MOL0     C29359  10.170   3.757   4.757  0.0701 -0.2140 -0.5004
  218MOL0     C29360  10.106   3.836   4.825 -0.4043  0.2769  0.7287
  218MOL0     C29361  10.306   3.457   4.117 -0.7780  0.2251  0.1103
  218MOL0     C29362  10.255   3.331   4.071 -0.8452  0.0183 -0.2741
  218MOL0     H29363  10.319   2.879   4.037  1.0479  0.7238 -1.9402
  218MOL0     H29364  10.284   2.661   3.946  0.2084 -0.7855  1.0950
  218MOL0     H29365  10.279   2.539   3.756 -1.1438 -0.8109 -6.2245
  218MOL0     H29366  10.203   2.450   3.894 -2.3191 -1.8856  0.1105
  218MOL0     H29367  10.064   2.304   3.782  1.0359 -1.3455  1.1769
  218MOL0     H29368  10.105   2.362   3.625 -1.5738 -1.8406  1.1802
  218MOL0     H29369  10.288   2.237   3.826  2.5072 -2.9221 -0.6747
  218MOL0     H29370  10.218   2.159   3.688 -0.5338 -0.8738  0.5073
  218MOL0     H29371  10.389   2.258   3.542  0.7126  0.9298 -0.0102
  218MOL0     H29372  10.434   2.385   3.662  1.4759 -0.4905 -0.8011
  218MOL0     H29373  10.602   2.272   3.678 -0.7166  2.7091  1.8954
  218MOL0     H29374  10.509   2.217   3.806  0.3332  2.0694 -0.3108
  218MOL0     H29375  10.435   2.011   3.683  0.8932 -0.2636  4.4519
  218MOL0     H29376  10.512   2.066   3.538  1.4724 -0.8961 -0.9322
  218MOL0     H29377  10.740   2.024   3.634  0.1784 -2.0908 -1.9815
  218MOL0     H29378  10.664   2.000   3.793  0.7229  3.0372 -0.2968
  218MOL0     H29379  10.526   1.826   3.678  0.0984  2.8612 -0.2863
  218MOL0     H29380  10.703   1.774   3.685 -0.0406 -2.0385 -3.0114
  218MOL0     H29381  10.859   1.796   3.447  1.6250  1.0436 -3.1534
  218MOL0     H29382  10.821   1.652   3.187 -0.9241  0.2583  1.4838
  218MOL0     H29383  10.697   1.738   3.103 -3.0966 -2.5465  2.0152
  218MOL0     H29384  10.930   1.827   3.061 -2.1680  0.3526 -0.2941
  218MOL0     H29385  10.956   1.863   3.222 -1.6722  1.0779  1.8453
  218MOL0     H29386  10.906   2.067   3.140 -0.6417  0.8631  0.4756
  218MOL0     H29387  10.764   2.028   3.235 -1.0598 -2.5845  0.0806
  218MOL0     H29388  10.673   1.944   2.994  0.7060 -0.1380  0.1946
  218MOL0     H29389  10.827   2.006   2.937 -2.8903 -2.0181 -3.7344
  218MOL0     H29390  10.508   1.976   3.122  3.2452  1.3225  0.1178
  218MOL0     H29391  10.308   1.944   3.300  0.7052 -1.2354 -0.6979
  218MOL0     H29392  10.169   1.987   3.200 -1.1559  0.7287  1.9337
  218MOL0     H29393  10.299   1.891   3.134 -1.8346 -0.3411  1.4803
  218MOL0     H29394   9.882   2.341   3.195 -0.4343  0.7268 -1.0872
  218MOL0     H29395   9.698   2.422   3.328  0.1013 -0.4079 -0.0519
  218MOL0     H29396   9.787   2.642   3.694 -0.0423 -3.4191 -0.5165
  218MOL0     H29397   9.714   2.770   3.587 -1.3847 -0.8019  0.9393
  218MOL0     H29398   9.489   2.678   3.645  1.1612  0.5770 -0.6755
  218MOL0     H29399   9.570   2.557   3.722  1.9609  0.4895 -1.9263
  218MOL0     H29400   9.686   2.731   3.882 -0.0297 -0.3036  1.4888
  218MOL0     H29401   9.520   2.698   3.903  0.6301  1.6476  0.9206
  218MOL0     H29402   9.658   2.930   3.758 -1.5737  1.7460 -1.1038
  218MOL0     H29403   9.480   2.931   3.732  0.8415  1.5148 -1.3310
  218MOL0     H29404   9.631   2.939   4.003  0.8940  0.0304  0.3541
  218MOL0     H29405   9.454   2.963   3.990  0.7159 -0.9949 -0.2950
  218MOL0     H29406   9.691   3.118   3.869 -0.0031 -1.7034  0.2917
  218MOL0     H29407   9.520   3.164   3.846  0.5622 -0.8081 -2.4876
  218MOL0     H29408   9.682   3.158   4.110  0.0177  2.1488  0.4698
  218MOL0     H29409   9.500   3.168   4.078 -0.4926  1.6343 -2.4318
  218MOL0     H29410   9.546   3.364   3.950 -1.7754 -0.3841  1.2512
  218MOL0     H29411   9.724   3.344   4.002  0.2110  0.0950  1.2157
  218MOL0     H29412   9.974   2.654   3.566 -0.8684  0.1265 -0.4860
  218MOL0     H29413  10.157   2.552   3.454 -1.2751  0.6568  3.3569
  218MOL0     H29414  10.379   2.441   3.145 -0.1348 -0.2361 -0.9280
  218MOL0     H29415  10.570   2.387   3.007  2.2886 -0.9382  1.1045
  218MOL0     H29416   9.930   2.789   3.739 -1.3451 -2.1105  1.6966
  218MOL0     H29417   9.953   3.002   3.844 -0.3969 -0.0502  0.2746
  218MOL0     H29418   9.937   3.365   4.162  1.9384 -2.3976  3.3094
  218MOL0     H29419  10.009   3.571   4.246  0.7855  0.8953 -0.5730
  218MOL0     H29420  10.244   3.838   4.343 -1.1001  0.1930  0.2733
  218MOL0     H29421  10.096   3.758   4.279 -1.6836 -0.1280  2.0715
  218MOL0     H29422  10.150   3.575   4.438  0.0412 -0.5263  1.3430
  218MOL0     H29423  10.078   3.716   4.493 -0.3887 -3.8825  1.0591
  218MOL0     H29424  10.329   3.802   4.544 -2.8677  0.7744 -0.9234
  218MOL0     H29425  10.363   3.635   4.504 -0.3002  0.6634 -1.6418
  218MOL0     H29426  10.351   3.671   4.750 -0.6449  2.6411  2.3466
  218MOL0     H29427  10.211   3.564   4.709 -1.3318  1.0234  1.7072
  218MOL0     H29428  10.058   3.902   4.894 -0.3928  0.5376  0.4871
  218MOL0     H29429  10.413   3.475   4.112 -0.0900 -3.0531  0.6822
  218MOL0     H29430  10.324   3.251   4.048 -2.5619 -1.1725 -1.6400
  219MOL0     O29431   8.896   4.352   7.979  0.3215 -0.1076 -0.2868
  219MOL0     C29432   8.971   4.440   8.030  0.5819 -0.3004  0.3693
  219MOL0     O29433   9.001   4.451   8.167  0.0604 -0.4564 -0.9894
  219MOL0     C29434   8.948   4.359   8.246  0.6771  1.2756 -0.0380
  219MOL0     C29435   9.032   4.263   8.319  0.1971 -0.4557  0.9303
  219MOL0     C29436   8.981   4.159   8.403 -0.1256  0.1822  0.5971
  219MOL0     C29437   8.849   4.154   8.428 -0.4403  0.8897 -0.4108
  219MOL0     O29438   8.811   4.060   8.521  1.1045  0.1050 -0.4388
  219MOL0     C29439   8.671   4.028   8.541 -0.8251  0.5165  0.5205
  219MOL0     C29440   8.598   3.926   8.450 -0.6406  1.0653  0.2617
  219MOL0     C29441   8.662   3.781   8.464  0.6141  0.5609 -0.2830
  219MOL0     C29442   8.597   3.661   8.395  0.1994 -0.7304  0.3087
  219MOL0     C29443   8.635   3.529   8.460  0.2729 -0.6665 -0.2423
  219MOL0     C29444   8.577   3.410   8.379  1.2556 -0.1452 -0.5030
  219MOL0     C29445   8.426   3.377   8.415 -0.4741  0.0299 -0.6079
  219MOL0     C29446   8.364   3.279   8.313  0.1403  0.4610  0.0455
  219MOL0     N29447   8.224   3.266   8.342  0.3251 -0.1503  0.4349
  219MOL0     C29448   8.118   3.339   8.288 -0.7598  0.3999  0.5916
  219MOL0     C29449   8.006   3.313   8.348  0.3868 -0.4887 -0.4746
  219MOL0     C29450   7.873   3.379   8.329  0.6065 -1.2188 -0.5526
  219MOL0     C29451   7.778   3.265   8.308 -0.9882  0.1564  0.5151
  219MOL0     C29452   7.646   3.320   8.270 -0.5727 -0.0409  0.0235
  219MOL0     C29453   7.540   3.212   8.255  0.4968  0.1778  0.3292
  219MOL0     O29454   7.562   3.130   8.132 -0.1794  0.3046 -0.1993
  219MOL0     C29455   7.479   3.035   8.104  0.4116  0.2000 -0.0133
  219MOL0     C29456   7.359   3.006   8.176  0.3517 -0.3255  0.1590
  219MOL0     C29457   7.261   2.912   8.134  0.2257  0.5656 -0.7505
  219MOL0     C29458   7.137   2.917   8.221  0.0391  0.0904  0.8990
  219MOL0     C29459   7.297   2.823   8.026  0.6672 -0.3453 -0.2866
  219MOL0     C29460   7.216   2.699   7.974 -1.1693 -0.9436 -0.3399
  219MOL0     O29461   7.277   2.618   7.876 -0.0420  0.3056  0.4994
  219MOL0     C29462   7.213   2.502   7.834 -0.3139  0.6490  0.5463
  219MOL0     C29463   7.098   2.506   7.769  0.3513 -0.0648 -0.0128
  219MOL0     C29464   7.027   2.389   7.725  0.0632  0.0924 -0.3139
  219MOL0     C29465   7.078   2.256   7.757 -0.4138 -1.5441  0.9827
  219MOL0     O29466   7.026   2.142   7.709  0.4015 -0.1614  0.0040
  219MOL0     C29467   7.000   2.049   7.818 -0.7684 -0.2459  0.3874
  219MOL0     C29468   6.994   1.911   7.766 -0.6602 -0.0261 -0.5036
  219MOL0     C29469   7.131   1.867   7.703  0.3475 -0.0581  0.9437
  219MOL0     C29470   7.153   1.718   7.656 -0.3243  0.2739  1.2386
  219MOL0     C29471   7.072   1.697   7.527 -0.7435 -0.5471 -0.3812
  219MOL0     C29472   6.955   1.603   7.555 -0.3054 -0.9686  0.4578
  219MOL0     C29473   6.835   1.614   7.455  0.4070  0.2561 -0.2357
  219MOL0     C29474   6.853   1.539   7.320  0.0467 -0.4500  0.0066
  219MOL0    Cl29475   6.731   1.590   7.203  0.2760 -0.6745  0.2304
  219MOL0     C29476   7.200   2.262   7.831 -0.5004  0.1950  0.3753
  219MOL0     C29477   7.267   2.380   7.865  0.0315  0.7722  0.2352
  219MOL0     O29478   7.102   2.695   8.009 -0.0850  0.1069 -0.7978
  219MOL0     C29479   7.418   2.845   7.966 -0.2650  0.0790  0.0690
  219MOL0     C29480   7.509   2.946   8.005  0.2925  0.4346  1.1034
  219MOL0     N29481   8.037   3.223   8.450 -0.3763  0.7039  0.6483
  219MOL0     N29482   8.169   3.193   8.444  0.3733 -0.1595 -0.0612
  219MOL0     C29483   8.759   4.243   8.354 -0.3504  0.0053 -0.1154
  219MOL0     C29484   8.806   4.342   8.258 -0.6387  0.3827  0.1391
  219MOL0     C29485   9.037   4.533   7.942  0.5763  0.4764 -1.0869
  219MOL0     C29486   9.103   4.643   7.997  0.1077 -0.1868  0.4433
  219MOL0     C29487   9.161   4.729   7.905 -0.2577 -0.2603  0.4437
  219MOL0     C29488   9.153   4.717   7.762  0.4143  0.0895  0.4794
  219MOL0     O29489   9.224   4.806   7.685 -0.1768  0.2710  1.1364
  219MOL0     C29490   9.243   4.782   7.547  0.4114 -0.1726  0.0819
  219MOL0     C29491   9.341   4.876   7.488 -0.4685  0.2305  0.8726
  219MOL0     C29492   9.303   5.024   7.510  0.0802 -0.1686 -0.0153
  219MOL0     C29493   9.418   5.113   7.469 -0.5512  0.5974 -0.1387
  219MOL0     C29494   9.429   5.122   7.331 -0.6361  0.1819  0.2783
  219MOL0     C29495   9.436   5.150   7.214  0.5102  0.7126  1.0067
  219MOL0     C29496   9.077   4.610   7.719 -0.4593 -0.4994  0.4289
  219MOL0     C29497   9.021   4.518   7.801 -0.5184 -0.4167  0.1778
  219MOL0     H29498   9.138   4.267   8.297  0.0339  0.1317  0.2390
  219MOL0     H29499   9.046   4.098   8.465  1.7245  2.5154  1.0958
  219MOL0     H29500   8.672   4.001   8.647  1.4428  2.8144  1.1964
  219MOL0     H29501   8.609   4.118   8.534  1.0599  2.1870  3.4374
  219MOL0     H29502   8.490   3.924   8.469 -1.4823 -0.9898 -3.5572
  219MOL0     H29503   8.606   3.968   8.349 -1.4170  0.5545 -0.0302
  219MOL0     H29504   8.763   3.793   8.425  1.1028  1.4504  1.1729
  219MOL0     H29505   8.677   3.760   8.571  1.9346 -1.0471 -0.7484
  219MOL0     H29506   8.489   3.679   8.402  0.2351  0.4430 -1.6439
  219MOL0     H29507   8.618   3.657   8.288 -2.3590  0.9470 -0.3414
  219MOL0     H29508   8.744   3.527   8.471  0.3070  3.3423  2.1030
  219MOL0     H29509   8.596   3.521   8.562  0.1516  0.0773 -0.2219
  219MOL0     H29510   8.563   3.451   8.278  4.6026 -0.5386 -1.2363
  219MOL0     H29511   8.648   3.328   8.368  1.1123 -0.2840 -0.3905
  219MOL0     H29512   8.421   3.329   8.513  2.8555  1.4332  0.3673
  219MOL0     H29513   8.370   3.471   8.420  0.7326  0.9543 -2.9004
  219MOL0     H29514   8.422   3.187   8.309 -0.0888  0.2878  0.5817
  219MOL0     H29515   8.376   3.340   8.223  0.8205 -0.2142 -0.3329
  219MOL0     H29516   8.129   3.404   8.201  0.5344  2.9057  2.4801
  219MOL0     H29517   7.853   3.438   8.419  4.9505 -0.4210  0.0999
  219MOL0     H29518   7.863   3.448   8.245 -1.8710  1.3018  1.6327
  219MOL0     H29519   7.761   3.215   8.404  0.8154 -1.4558  0.0530
  219MOL0     H29520   7.815   3.192   8.235  0.8007  1.3184  0.2145
  219MOL0     H29521   7.646   3.378   8.177 -2.0607  4.9689  2.7449
  219MOL0     H29522   7.616   3.398   8.341  2.6466 -0.7306  2.3893
  219MOL0     H29523   7.449   3.270   8.241  0.1342  0.0869  2.0798
  219MOL0     H29524   7.534   3.157   8.349  1.2467  0.6406  0.6608
  219MOL0     H29525   7.335   3.061   8.266  0.4817 -1.7327  1.0993
  219MOL0     H29526   7.142   2.836   8.294  0.3893 -0.4289  0.3049
  219MOL0     H29527   7.136   3.015   8.270  2.2604  0.7273 -0.2149
  219MOL0     H29528   7.053   2.909   8.151  1.7949 -3.1973 -1.0315
  219MOL0     H29529   7.061   2.606   7.746  1.3554  0.1701 -0.6894
  219MOL0     H29530   6.927   2.387   7.682  0.0935 -2.2579 -0.3847
  219MOL0     H29531   7.078   2.062   7.893 -1.4493  0.8108  0.9407
  219MOL0     H29532   6.903   2.068   7.863 -3.2362 -3.3221 -2.9783
  219MOL0     H29533   6.979   1.845   7.852  0.3626 -0.8416 -0.9215
  219MOL0     H29534   6.916   1.903   7.689 -1.1342 -0.1197 -0.0183
  219MOL0     H29535   7.208   1.878   7.780  1.8808 -1.9640 -0.2262
  219MOL0     H29536   7.142   1.930   7.615  0.1486  0.0975  1.0281
  219MOL0     H29537   7.258   1.704   7.629 -1.0174 -1.6998 -0.7020
  219MOL0     H29538   7.112   1.654   7.734 -3.2442 -1.6046 -1.5459
  219MOL0     H29539   7.140   1.644   7.460  4.8569  1.8880  2.7265
  219MOL0     H29540   7.026   1.789   7.490 -1.6328  0.2515  2.4214
  219MOL0     H29541   6.998   1.504   7.572 -2.2872 -1.4996  2.8964
  219MOL0     H29542   6.919   1.621   7.656  0.0989  1.8083  0.1850
  219MOL0     H29543   6.811   1.720   7.443 -0.4945 -0.0018 -0.7461
  219MOL0     H29544   6.749   1.571   7.507  0.4533  0.9821  0.4613
  219MOL0     H29545   6.850   1.430   7.326  3.3014 -0.7056 -1.1204
  219MOL0     H29546   6.956   1.544   7.282  1.7813  1.8329  4.2850
  219MOL0     H29547   7.236   2.164   7.861 -4.2692 -1.7207 -0.7994
  219MOL0     H29548   7.363   2.373   7.913  1.0487 -2.4466 -1.9098
  219MOL0     H29549   7.453   2.777   7.888  2.7938  0.1433  1.2630
  219MOL0     H29550   7.600   2.961   7.948 -2.4832  3.6162 -3.1711
  219MOL0     H29551   8.652   4.250   8.370 -0.6420 -1.1396 -1.4404
  219MOL0     H29552   8.739   4.417   8.217 -0.2107  1.3468  1.1696
  219MOL0     H29553   9.129   4.662   8.101  2.6189 -1.0086  0.0369
  219MOL0     H29554   9.208   4.820   7.942 -2.0813  0.3953  1.2518
  219MOL0     H29555   9.286   4.685   7.519 -1.0279 -1.0279  0.7115
  219MOL0     H29556   9.149   4.792   7.493 -1.2087 -2.4753  2.2086
  219MOL0     H29557   9.347   4.861   7.380 -2.9685  3.7625  0.0575
  219MOL0     H29558   9.438   4.849   7.530 -0.7266 -4.9350 -1.1203
  219MOL0     H29559   9.304   5.041   7.619  5.0903  0.1080  0.1198
  219MOL0     H29560   9.215   5.054   7.452 -0.5821  0.5757  1.3206
  219MOL0     H29561   9.506   5.060   7.507 -0.3864  3.0886  3.4573
  219MOL0     H29562   9.412   5.213   7.513  3.8764  2.1780 -2.4619
  219MOL0     H29563   9.434   5.187   7.113 -1.0573 -0.9806  0.3709
  219MOL0     H29564   9.076   4.590   7.612  0.9205 -2.8998  0.7929
  219MOL0     H29565   8.983   4.421   7.772  1.5835 -2.0894  2.5882
  220MOL0     O29566   5.885   4.827  10.070  0.6644  0.3367 -0.0023
  220MOL0     C29567   5.934   4.916  10.136 -0.2022 -0.0386 -0.6085
  220MOL0     O29568   5.899   4.944  10.261 -0.2027 -0.4422  0.3269
  220MOL0     C29569   5.769   4.921  10.305 -0.3317 -0.0170 -1.0974
  220MOL0     C29570   5.654   4.973  10.247  1.0511 -0.6016 -0.4567
  220MOL0     C29571   5.529   4.941  10.308  0.5864  0.0442  0.1299
  220MOL0     C29572   5.524   4.843  10.409  0.4727  1.0316 -0.2206
  220MOL0     O29573   5.401   4.800  10.469 -0.1483  0.5776  0.4121
  220MOL0     C29574   5.275   4.864  10.425 -0.4413  0.5261  0.3007
  220MOL0     C29575   5.171   4.834  10.534 -0.4711  0.5480  0.4952
  220MOL0     C29576   5.109   4.702  10.514 -0.4841  0.1237  0.6751
  220MOL0     C29577   5.017   4.691  10.399 -0.1899 -0.1955 -0.7486
  220MOL0     C29578   4.998   4.548  10.361 -0.2907  0.1716 -0.3588
  220MOL0     C29579   5.125   4.485  10.290 -0.2836 -0.1598 -0.2930
  220MOL0     C29580   5.165   4.344  10.333 -0.3797 -0.7262  1.1298
  220MOL0     C29581   5.062   4.237  10.300 -0.7776  0.1624  0.4583
  220MOL0     N29582   5.008   4.242  10.160  0.0673  0.5667  0.1888
  220MOL0     C29583   4.887   4.285  10.128  0.2444 -0.7346  0.2131
  220MOL0     C29584   4.883   4.305   9.995 -0.1812 -0.2827 -0.0301
  220MOL0     C29585   4.775   4.372   9.915 -0.6904 -0.2926 -0.1297
  220MOL0     C29586   4.750   4.521   9.954  0.3514  0.4694  0.1636
  220MOL0     C29587   4.632   4.540  10.057  0.2638  0.5117 -0.0582
  220MOL0     C29588   4.613   4.700  10.066  0.3065 -0.6135  0.6372
  220MOL0     O29589   4.727   4.767  10.130 -0.1844  0.3284 -0.4350
  220MOL0     C29590   4.730   4.902  10.137  0.0564 -0.6724  0.2545
  220MOL0     C29591   4.845   4.966  10.176 -0.7558  0.1523  0.4459
  220MOL0     C29592   4.866   5.103  10.191  0.0980 -0.0402  0.8371
  220MOL0     C29593   4.989   5.138  10.250 -0.7054  0.6289  0.2866
  220MOL0     C29594   4.746   5.186  10.161 -0.6215  0.1278 -0.4065
  220MOL0     C29595   4.739   5.340  10.175  0.4545 -0.1939 -0.3733
  220MOL0     O29596   4.614   5.401  10.154  0.2402  0.0641  0.3163
  220MOL0     C29597   4.612   5.533  10.125 -1.1583 -0.7249  0.0286
  220MOL0     C29598   4.545   5.629  10.207  0.8381 -0.1889  0.6120
  220MOL0     C29599   4.557   5.765  10.182  0.1439 -0.2441  0.0559
  220MOL0     C29600   4.613   5.803  10.061 -0.6167  0.0977 -0.0165
  220MOL0     O29601   4.613   5.935  10.037 -0.0575  0.1890  0.1039
  220MOL0     C29602   4.650   5.969   9.907  0.0021  0.1393 -0.0547
  220MOL0     C29603   4.600   6.109   9.873 -0.0627 -0.9648 -0.3114
  220MOL0     C29604   4.645   6.218   9.973 -0.3463 -0.2064 -0.2334
  220MOL0     C29605   4.642   6.359   9.907  0.5500  0.6729 -0.5420
  220MOL0     C29606   4.707   6.464   9.996 -0.4007 -0.5641  0.1285
  220MOL0     C29607   4.641   6.599   9.955 -0.5049  0.2788 -0.2685
  220MOL0     C29608   4.716   6.711  10.020  0.7280  0.3158 -0.7636
  220MOL0     C29609   4.647   6.842   9.967  1.0697  0.5276  0.7495
  220MOL0    Cl29610   4.473   6.848  10.019  0.0738  0.1943 -0.0928
  220MOL0     C29611   4.683   5.704   9.977 -0.9010 -0.7017 -0.1124
  220MOL0     C29612   4.684   5.578  10.015 -0.1203 -0.0898  0.2762
  220MOL0     O29613   4.838   5.396  10.212 -0.8299 -0.8427 -0.1256
  220MOL0     C29614   4.627   5.126  10.117 -0.7130 -0.2889 -0.0930
  220MOL0     C29615   4.621   4.989  10.108  1.0974  0.8707 -0.7820
  220MOL0     N29616   5.002   4.261   9.948  0.0671  0.2206  0.1179
  220MOL0     N29617   5.076   4.206  10.045 -0.8452 -0.4727  0.0964
  220MOL0     C29618   5.638   4.787  10.465  0.4353  0.6541  0.2541
  220MOL0     C29619   5.758   4.828  10.409 -1.2444  0.4537 -0.1562
  220MOL0     C29620   6.058   4.979  10.084 -0.1935  0.3046  0.4100
  220MOL0     C29621   6.104   4.942   9.953 -0.2354  0.1521 -0.3253
  220MOL0     C29622   6.218   5.006   9.907 -0.5804  0.4528  1.5026
  220MOL0     C29623   6.290   5.113   9.970 -0.2465  0.3783 -0.0251
  220MOL0     O29624   6.385   5.194   9.921 -0.0873 -0.2035  0.6669
  220MOL0     C29625   6.429   5.158   9.788 -0.4503 -0.7044  0.3473
  220MOL0     C29626   6.527   5.274   9.751  0.5677 -0.3470  0.4923
  220MOL0     C29627   6.446   5.396   9.680  0.0313  0.4219 -0.1701
  220MOL0     C29628   6.530   5.527   9.657  0.7331 -0.2284  0.1008
  220MOL0     C29629   6.649   5.509   9.575 -0.0020 -0.4957 -0.0032
  220MOL0     C29630   6.757   5.482   9.524 -0.0184  0.4507 -0.7924
  220MOL0     C29631   6.238   5.139  10.097  0.1862 -0.7761 -0.7900
  220MOL0     C29632   6.127   5.077  10.156 -0.8574 -0.8162  0.6688
  220MOL0     H29633   5.659   5.031  10.156 -1.7198 -1.1115 -1.0065
  220MOL0     H29634   5.449   5.009  10.280  3.0311  2.5355 -1.3387
  220MOL0     H29635   5.290   4.972  10.425 -1.5913  0.7116 -1.0118
  220MOL0     H29636   5.248   4.831  10.324 -0.2179 -0.7533  0.6329
  220MOL0     H29637   5.225   4.818  10.628  1.1848 -3.8690 -0.9817
  220MOL0     H29638   5.114   4.927  10.542  0.8443  1.3998  0.2513
  220MOL0     H29639   5.192   4.631  10.509  1.2502  2.0877 -3.5222
  220MOL0     H29640   5.051   4.669  10.600  0.7319 -0.3026  1.3495
  220MOL0     H29641   4.919   4.731  10.428 -0.5175 -0.6925 -1.1677
  220MOL0     H29642   5.053   4.745  10.311 -0.6393 -0.9912 -1.4397
  220MOL0     H29643   4.967   4.496  10.452 -0.7037  1.4016  0.2135
  220MOL0     H29644   4.915   4.551  10.289 -1.4461 -1.5827  0.7993
  220MOL0     H29645   5.116   4.503  10.183 -0.5212 -2.0003 -0.6108
  220MOL0     H29646   5.211   4.551  10.308  1.5360 -2.4823  0.0418
  220MOL0     H29647   5.250   4.315  10.270 -2.6119 -0.2048 -2.3942
  220MOL0     H29648   5.209   4.354  10.433  0.7961  4.8152  0.3978
  220MOL0     H29649   4.982   4.231  10.374 -0.5154 -0.3823  0.7066
  220MOL0     H29650   5.120   4.146  10.320 -0.0668  0.5596  0.2508
  220MOL0     H29651   4.809   4.313  10.198  1.4629  2.0810  0.5960
  220MOL0     H29652   4.807   4.360   9.811 -1.5866 -3.0102 -0.1871
  220MOL0     H29653   4.674   4.329   9.919 -0.8213  0.0820  0.6561
  220MOL0     H29654   4.730   4.578   9.863 -2.1238  3.7448  2.5163
  220MOL0     H29655   4.844   4.566   9.986  0.9869  0.1551 -1.1859
  220MOL0     H29656   4.662   4.501  10.155 -0.2213 -2.0840 -0.8614
  220MOL0     H29657   4.541   4.493  10.020  0.8204  1.6531 -3.2031
  220MOL0     H29658   4.525   4.707  10.131  0.6528 -1.0767  1.1563
  220MOL0     H29659   4.585   4.746   9.970 -1.5162  1.0669  1.8869
  220MOL0     H29660   4.927   4.896  10.192 -0.6659  0.2083  0.2398
  220MOL0     H29661   4.994   5.244  10.276  2.6329  0.5916  0.3291
  220MOL0     H29662   5.002   5.071  10.335  1.2690 -1.0005 -1.2027
  220MOL0     H29663   5.072   5.117  10.182 -3.5703 -1.3757 -2.9196
  220MOL0     H29664   4.501   5.591  10.299 -1.6656  0.4004 -0.2612
  220MOL0     H29665   4.495   5.837  10.234  1.5195  1.2219 -0.2285
  220MOL0     H29666   4.758   5.963   9.890 -0.1616 -1.2379 -0.7909
  220MOL0     H29667   4.604   5.902   9.834 -1.6349 -0.8265  1.7859
  220MOL0     H29668   4.636   6.127   9.771  1.0421 -5.4166 -0.9142
  220MOL0     H29669   4.491   6.104   9.868 -0.0575 -0.0212 -2.6508
  220MOL0     H29670   4.745   6.183  10.002  0.0960  0.4761 -0.9193
  220MOL0     H29671   4.593   6.210  10.069 -0.0234 -0.6608 -0.0861
  220MOL0     H29672   4.684   6.357   9.806  0.6700 -3.2357 -0.5873
  220MOL0     H29673   4.536   6.387   9.904  0.8576  1.8611 -0.9185
  220MOL0     H29674   4.816   6.457   9.986 -0.1186 -2.1765  3.2474
  220MOL0     H29675   4.701   6.439  10.102 -1.4789 -3.0812 -0.4586
  220MOL0     H29676   4.646   6.615   9.847 -3.3452  3.7037 -0.0794
  220MOL0     H29677   4.535   6.600   9.983 -1.1804 -0.7962 -2.4731
  220MOL0     H29678   4.814   6.724   9.974 -0.3791 -0.3198 -3.5394
  220MOL0     H29679   4.721   6.706  10.129 -1.6824  2.8615 -0.4187
  220MOL0     H29680   4.646   6.830   9.858 -0.1458 -0.9170  0.8966
  220MOL0     H29681   4.714   6.924   9.995  2.0934 -0.5419  1.5448
  220MOL0     H29682   4.741   5.734   9.891  1.3003 -0.9530  1.2121
  220MOL0     H29683   4.741   5.512   9.951 -1.5735  0.4656 -1.6741
  220MOL0     H29684   4.563   5.194  10.062  0.8235 -1.2088 -3.2549
  220MOL0     H29685   4.532   4.948  10.060  2.4121 -0.0149 -2.5660
  220MOL0     H29686   5.639   4.709  10.541  0.3315 -0.6385 -1.0233
  220MOL0     H29687   5.848   4.785  10.451 -1.6521 -0.0578  0.2080
  220MOL0     H29688   6.068   4.857   9.896 -1.8562  1.5532 -1.4974
  220MOL0     H29689   6.264   4.974   9.813  1.9524 -0.4412  2.9286
  220MOL0     H29690   6.481   5.062   9.789  1.2056  0.0890 -1.9981
  220MOL0     H29691   6.343   5.151   9.721 -0.0570  2.9512 -0.7585
  220MOL0     H29692   6.596   5.243   9.673 -1.8428 -1.3174 -1.3843
  220MOL0     H29693   6.586   5.314   9.835  0.8857 -0.5504  0.3659
  220MOL0     H29694   6.367   5.424   9.751  1.0580  2.0729  0.3917
  220MOL0     H29695   6.408   5.369   9.581  2.2018  3.0361 -1.8518
  220MOL0     H29696   6.557   5.560   9.757  1.1666 -0.1192 -0.0507
  220MOL0     H29697   6.459   5.597   9.613  0.2339 -1.2260 -0.7512
  220MOL0     H29698   6.861   5.464   9.505  0.1479  1.1287 -0.5637
  220MOL0     H29699   6.293   5.218  10.148 -0.6712  1.6822 -3.3575
  220MOL0     H29700   6.103   5.104  10.258  3.1498  0.7204  1.3801
  221MOL0     O29701   1.080   0.626  10.920  0.8156  0.4604  0.6547
  221MOL0     C29702   1.029   0.728  10.964 -0.3178  0.9008 -0.6465
  221MOL0     O29703   0.953   0.731  11.068  0.5498  0.0301 -0.1697
  221MOL0     C29704   0.940   0.625  11.156 -0.4852  0.1531 -0.0313
  221MOL0     C29705   1.034   0.600  11.258  0.2707  0.0213  0.4708
  221MOL0     C29706   1.021   0.501  11.355 -0.6780  0.1258 -0.4041
  221MOL0     C29707   0.907   0.419  11.347 -0.0127  0.7173  0.7529
  221MOL0     O29708   0.860   0.324  11.442 -0.2667 -0.1448  0.1542
  221MOL0     C29709   0.953   0.242  11.511  0.0509  0.3706  0.0080
  221MOL0     C29710   0.977   0.311  11.641  0.6279  0.0206 -0.6474
  221MOL0     C29711   1.089   0.238  11.734  0.0463  1.1613 -0.9884
  221MOL0     C29712   1.053   0.091  11.769  1.0975  0.2161 -0.0139
  221MOL0     C29713   1.047   0.043  11.919  0.2436 -1.4766 -0.1766
  221MOL0     C29714   1.165  -0.038  11.963 -0.5687 -0.0237  1.7718
  221MOL0     C29715   1.169  -0.053  12.113  0.4229 -0.0401  0.2963
  221MOL0     C29716   1.200   0.080  12.188  0.5817  0.2155  0.4306
  221MOL0     N29717   1.218   0.052  12.330  0.1242 -0.2933 -0.4168
  221MOL0     C29718   1.339   0.023  12.392 -0.1531  0.3845  0.6555
  221MOL0     C29719   1.316  -0.006  12.517  0.4078 -0.0747  0.2271
  221MOL0     C29720   1.426  -0.042  12.625 -0.3632  0.8339  0.0589
  221MOL0     C29721   1.461   0.075  12.724  0.0380  0.2110  0.2612
  221MOL0     C29722   1.422   0.215  12.688 -0.8664  0.2041 -0.2594
  221MOL0     C29723   1.522   0.314  12.746  0.9671 -0.4117  0.1854
  221MOL0     O29724   1.502   0.317  12.895  0.5926 -0.4693  1.4935
  221MOL0     C29725   1.611   0.278  12.970  0.7620 -1.1519 -0.2142
  221MOL0     C29726   1.723   0.367  12.982 -0.8212  0.3259  0.1793
  221MOL0     C29727   1.840   0.326  13.053  1.2469  0.3296 -1.1583
  221MOL0     C29728   1.965   0.416  13.049  0.5540  0.3339 -0.9927
  221MOL0     C29729   1.842   0.200  13.118  0.1349 -0.3560 -0.5236
  221MOL0     C29730   1.963   0.149  13.186  0.3433  0.1243 -1.8759
  221MOL0     O29731   2.039   0.234  13.263  0.9059 -0.4448 -0.0411
  221MOL0     C29732   2.156   0.187  13.329 -0.3835  0.0892 -0.4239
  221MOL0     C29733   2.183   0.064  13.385 -0.0086  0.6375 -0.3850
  221MOL0     C29734   2.302   0.039  13.447 -0.3477 -0.0651 -0.5832
  221MOL0     C29735   2.408   0.139  13.448  0.3762 -0.7121  0.4580
  221MOL0     O29736   2.525   0.096  13.503 -0.1601 -0.0921  0.3641
  221MOL0     C29737   2.648   0.167  13.490  0.1184  0.1411  0.0858
  221MOL0     C29738   2.756   0.116  13.590 -0.3267  0.0175  0.0347
  221MOL0     C29739   2.883   0.212  13.589 -0.4480  0.1750  0.2038
  221MOL0     C29740   2.882   0.319  13.700 -0.1971 -0.1165  1.3714
  221MOL0     C29741   3.022   0.387  13.708  0.0563  0.4473  0.8989
  221MOL0     C29742   3.026   0.489  13.817  0.8090  0.4947 -1.7567
  221MOL0     C29743   3.158   0.568  13.830  0.4018 -0.2926 -0.2256
  221MOL0     C29744   3.145   0.676  13.933 -0.4796  0.3739 -0.0721
  221MOL0    Cl29745   3.311   0.763  13.912  0.1700  0.1799 -0.0732
  221MOL0     C29746   2.379   0.268  13.404  0.7002 -0.2098  0.1498
  221MOL0     C29747   2.253   0.294  13.340 -0.6081 -0.3743 -0.5206
  221MOL0     O29748   1.984   0.031  13.161 -0.8109 -0.0580  0.2342
  221MOL0     C29749   1.724   0.124  13.123  0.1686  0.5048  0.4541
  221MOL0     C29750   1.607   0.163  13.049  0.3911 -0.4749  0.1070
  221MOL0     N29751   1.181  -0.008  12.531  0.1420  0.1337  0.1009
  221MOL0     N29752   1.122   0.047  12.422 -0.6792 -0.0367  0.0867
  221MOL0     C29753   0.823   0.432  11.233 -0.1071 -0.1557  0.4653
  221MOL0     C29754   0.839   0.534  11.138  0.1594  0.2113 -0.3670
  221MOL0     C29755   1.048   0.853  10.888  0.2589 -0.4758  0.5137
  221MOL0     C29756   0.949   0.949  10.909 -0.3894 -0.7922  0.1898
  221MOL0     C29757   0.962   1.072  10.849 -0.4579 -0.3652 -0.7215
  221MOL0     C29758   1.077   1.101  10.764  0.6391 -0.5065 -0.0902
  221MOL0     O29759   1.077   1.217  10.698  0.4411 -0.1882 -0.2507
  221MOL0     C29760   1.001   1.226  10.574  0.5310 -0.2823  0.0175
  221MOL0     C29761   1.091   1.270  10.464  0.4893 -0.7789 -0.5735
  221MOL0     C29762   1.025   1.294  10.328 -0.2240 -0.2749  0.3524
  221MOL0     C29763   1.112   1.370  10.236 -0.1353 -0.0371  0.0237
  221MOL0     C29764   1.234   1.291  10.202 -0.3109  0.1182  0.0479
  221MOL0     C29765   1.342   1.234  10.189 -0.4913  0.1916 -0.0619
  221MOL0     C29766   1.176   1.007  10.747 -0.2018 -0.5160  1.1113
  221MOL0     C29767   1.164   0.884  10.811  0.0842  0.0115 -0.0739
  221MOL0     H29768   1.105   0.676  11.287  0.9644 -0.7747  0.9290
  221MOL0     H29769   1.084   0.497  11.443 -1.2896  1.2795  0.1121
  221MOL0     H29770   0.894   0.152  11.531  1.0324 -0.4373 -0.5837
  221MOL0     H29771   1.039   0.236  11.443 -0.3711  0.4138 -0.5398
  221MOL0     H29772   1.021   0.411  11.635  1.0568 -0.2257 -1.7958
  221MOL0     H29773   0.891   0.312  11.709  1.0662  2.3364 -0.0108
  221MOL0     H29774   1.175   0.254  11.668 -0.3889  0.5100 -1.7354
  221MOL0     H29775   1.102   0.299  11.824 -0.9569 -0.6616  0.4579
  221MOL0     H29776   0.950   0.081  11.732  0.1093  1.3434  2.2013
  221MOL0     H29777   1.111   0.016  11.715 -3.2798 -1.1554 -3.5308
  221MOL0     H29778   1.034   0.132  11.982 -2.5931 -0.4888 -1.9402
  221MOL0     H29779   0.952  -0.008  11.935 -0.2163 -0.2127  1.4977
  221MOL0     H29780   1.158  -0.131  11.906  0.4643 -0.3278  2.1212
  221MOL0     H29781   1.260   0.012  11.941  0.5568 -2.8728 -0.6167
  221MOL0     H29782   1.069  -0.081  12.148 -0.1394 -0.2344 -1.3986
  221MOL0     H29783   1.226  -0.138  12.152 -1.0603 -0.9377  0.5596
  221MOL0     H29784   1.117   0.152  12.181 -0.6197 -1.1416  0.2102
  221MOL0     H29785   1.289   0.122  12.141 -0.9618  1.1128 -1.9400
  221MOL0     H29786   1.442   0.042  12.363  0.3708  0.9693  2.6845
  221MOL0     H29787   1.399  -0.128  12.686  2.2511 -0.5267 -0.5307
  221MOL0     H29788   1.516  -0.067  12.567  1.4644  1.5462  2.4165
  221MOL0     H29789   1.569   0.071  12.741 -0.1701 -0.8803  1.4869
  221MOL0     H29790   1.417   0.046  12.820 -2.1255 -0.3665 -0.8445
  221MOL0     H29791   1.322   0.245  12.722 -1.4260 -2.1182  0.3530
  221MOL0     H29792   1.436   0.231  12.581 -0.2000  0.7129 -0.0996
  221MOL0     H29793   1.507   0.414  12.703 -1.3730 -0.9589 -0.3855
  221MOL0     H29794   1.623   0.292  12.709  0.9122  1.0172 -0.9245
  221MOL0     H29795   1.706   0.468  12.947 -0.0754  1.0160  1.7121
  221MOL0     H29796   1.967   0.473  13.142 -3.1753  1.3155 -1.3397
  221MOL0     H29797   2.058   0.359  13.050  0.4153  0.0444  1.5285
  221MOL0     H29798   1.961   0.485  12.964 -0.4602  2.3051  0.5539
  221MOL0     H29799   2.103  -0.001  13.419  2.0079  0.1567  4.2079
  221MOL0     H29800   2.313  -0.064  13.480  1.3937 -0.7005 -2.8209
  221MOL0     H29801   2.695   0.172  13.391 -0.4688  2.2341 -0.1363
  221MOL0     H29802   2.637   0.272  13.518 -0.1950  0.1499 -0.0695
  221MOL0     H29803   2.722   0.092  13.691 -0.5922 -1.1581 -0.3061
  221MOL0     H29804   2.812   0.029  13.553 -1.4692 -2.2183  3.1183
  221MOL0     H29805   2.905   0.253  13.490  1.6021 -2.8520 -0.7406
  221MOL0     H29806   2.978   0.162  13.609 -1.8243 -2.0108  1.7180
  221MOL0     H29807   2.803   0.393  13.682 -1.5131 -1.3062  1.9801
  221MOL0     H29808   2.862   0.272  13.797  0.6195  0.1238  1.6622
  221MOL0     H29809   3.050   0.429  13.612 -1.6418 -0.9317 -0.2583
  221MOL0     H29810   3.104   0.319  13.731  1.9578  2.6186  0.8699
  221MOL0     H29811   2.937   0.551  13.804 -1.3254 -2.0785 -0.5089
  221MOL0     H29812   3.026   0.438  13.914  1.6452  2.2623 -0.7922
  221MOL0     H29813   3.180   0.622  13.738  2.5085 -0.8743 -0.1194
  221MOL0     H29814   3.242   0.498  13.839 -1.0671 -1.9641  1.0979
  221MOL0     H29815   3.129   0.622  14.026  1.6080 -2.3783 -1.1595
  221MOL0     H29816   3.048   0.722  13.911 -1.7803 -2.2776 -0.2282
  221MOL0     H29817   2.441   0.353  13.428  0.8910 -1.1090  3.2916
  221MOL0     H29818   2.228   0.392  13.301  3.0017  0.2561 -1.5900
  221MOL0     H29819   1.725   0.033  13.183 -1.7968  0.8299  1.0663
  221MOL0     H29820   1.522   0.096  13.051  1.2824 -1.6686 -0.4999
  221MOL0     H29821   0.747   0.358  11.210  3.9463 -4.0073 -2.2382
  221MOL0     H29822   0.761   0.561  11.067 -2.4076  1.5883  2.7710
  221MOL0     H29823   0.856   0.918  10.955 -0.3150 -1.8219 -0.3286
  221MOL0     H29824   0.885   1.148  10.854  2.1479  2.4431 -0.4896
  221MOL0     H29825   0.954   1.128  10.570  1.0011 -0.6702  2.3744
  221MOL0     H29826   0.924   1.301  10.597  0.4094 -0.8199  1.5000
  221MOL0     H29827   1.174   1.200  10.456 -0.0931 -1.9158  2.2621
  221MOL0     H29828   1.135   1.362  10.503 -0.4957 -1.0332  1.2490
  221MOL0     H29829   0.931   1.347  10.350 -1.5428 -1.9332 -1.0025
  221MOL0     H29830   0.995   1.200  10.280 -0.2161  0.0386 -0.2770
  221MOL0     H29831   1.145   1.461  10.287  2.2479 -2.0697  2.3229
  221MOL0     H29832   1.061   1.408  10.147 -0.0392  0.3099  0.1152
  221MOL0     H29833   1.435   1.180  10.195 -1.6351 -2.4743 -3.1364
  221MOL0     H29834   1.256   1.040  10.682 -0.8836 -0.2422  0.3910
  221MOL0     H29835   1.239   0.806  10.797  0.9687  0.6168  1.0494
  222MOL0     O29836   9.443   7.541   0.891  0.6023 -0.1614  0.4063
  222MOL0     C29837   9.470   7.563   0.774 -0.8583  0.8234  0.8368
  222MOL0     O29838   9.581   7.515   0.713 -0.2392 -0.2836  0.2943
  222MOL0     C29839   9.682   7.460   0.780 -0.2336  0.6695 -0.1072
  222MOL0     C29840   9.762   7.530   0.864 -0.2751 -0.1301  0.1709
  222MOL0     C29841   9.855   7.470   0.954 -1.1953  0.3511  0.5821
  222MOL0     C29842   9.876   7.332   0.952  0.2146 -0.0311 -0.5522
  222MOL0     O29843   9.961   7.293   1.056  0.7502 -0.2167  0.0391
  222MOL0     C29844   9.979   7.152   1.082 -0.6479  0.5790 -1.0198
  222MOL0     C29845  10.084   7.137   1.206 -0.1442 -0.9798 -0.4612
  222MOL0     C29846  10.006   7.149   1.346 -0.2102  1.6973  0.4627
  222MOL0     C29847  10.072   7.069   1.461 -1.3794  0.3945 -0.5584
  222MOL0     C29848  10.059   6.916   1.437  0.3582  0.5597 -0.3555
  222MOL0     C29849  10.112   6.822   1.550 -0.5612 -0.1214 -0.2712
  222MOL0     C29850  10.029   6.693   1.558  0.6862  0.7104  0.1474
  222MOL0     C29851  10.082   6.615   1.687  0.3592 -1.3853  0.9204
  222MOL0     N29852   9.978   6.589   1.784 -0.3414 -0.3211  0.6738
  222MOL0     C29853   9.899   6.470   1.797 -0.0439 -0.8458 -0.4135
  222MOL0     C29854   9.823   6.480   1.907 -0.4876  0.5295 -0.3133
  222MOL0     C29855   9.727   6.378   1.965  0.1269  0.5957 -0.3540
  222MOL0     C29856   9.681   6.399   2.117 -1.1990  0.2466  0.3067
  222MOL0     C29857   9.801   6.368   2.199 -0.1604 -0.1233  0.9310
  222MOL0     C29858   9.760   6.378   2.341  0.1858 -1.4327  0.8041
  222MOL0     O29859   9.878   6.351   2.421  0.6406 -0.3416  0.7532
  222MOL0     C29860   9.931   6.229   2.453  0.2860 -0.3694  0.2528
  222MOL0     C29861   9.866   6.156   2.558  0.1247 -0.1724 -0.0203
  222MOL0     C29862   9.924   6.025   2.599 -0.9781 -0.4336 -0.3828
  222MOL0     C29863   9.870   5.953   2.726 -0.1558 -0.1560  0.1356
  222MOL0     C29864  10.035   5.971   2.523  0.8401  0.6301  0.2100
  222MOL0     C29865  10.102   5.835   2.546  1.2151 -0.5125 -0.3323
  222MOL0     O29866  10.231   5.831   2.502  0.4234  0.3491  0.1615
  222MOL0     C29867  10.327   5.738   2.537 -0.2566  0.1451 -0.0007
  222MOL0     C29868  10.361   5.637   2.447 -0.3603  0.0293 -0.2881
  222MOL0     C29869  10.467   5.554   2.480 -0.1320  0.1916  0.1369
  222MOL0     C29870  10.520   5.561   2.606 -0.1671 -0.0605  0.7827
  222MOL0     O29871  10.607   5.455   2.629  0.8828 -0.3996 -0.3563
  222MOL0     C29872  10.682   5.436   2.751 -0.4699 -0.2591  0.0079
  222MOL0     C29873  10.813   5.524   2.750 -0.9691  0.3036 -0.5592
  222MOL0     C29874  10.895   5.504   2.871 -0.6909 -0.3188 -0.3971
  222MOL0     C29875  10.839   5.580   2.997  0.4914  0.6541  0.4725
  222MOL0     C29876  10.913   5.566   3.124 -0.8046  0.2892  0.0810
  222MOL0     C29877  10.871   5.451   3.214 -0.2639 -0.3306  0.1805
  222MOL0     C29878  10.981   5.410   3.309 -0.6689  0.3565  0.4574
  222MOL0     C29879  11.003   5.498   3.425  0.3860  0.3747 -0.0727
  222MOL0    Cl29880  11.101   5.650   3.414  0.2373 -0.2577  0.3679
  222MOL0     C29881  10.482   5.658   2.694 -0.9902  0.5053  1.0555
  222MOL0     C29882  10.386   5.745   2.656  0.4290 -0.6626 -0.6883
  222MOL0     O29883  10.049   5.748   2.620 -0.5692 -0.4222  0.9348
  222MOL0     C29884  10.094   6.051   2.421  0.1491  1.0735  0.5650
  222MOL0     C29885  10.051   6.176   2.396 -0.6635 -0.5326  0.7256
  222MOL0     N29886   9.851   6.612   1.953  0.3945  0.5318 -0.0187
  222MOL0     N29887   9.950   6.664   1.893 -0.9413  0.8211  0.1051
  222MOL0     C29888   9.803   7.259   0.855  1.3190 -1.1153 -0.1042
  222MOL0     C29889   9.697   7.322   0.780  0.8139  0.4770  0.2524
  222MOL0     C29890   9.359   7.606   0.685 -0.4842  0.9407 -0.1397
  222MOL0     C29891   9.394   7.631   0.549  0.6757  0.1125 -0.1378
  222MOL0     C29892   9.290   7.680   0.464 -0.4247  0.3270  0.7120
  222MOL0     C29893   9.161   7.702   0.509 -0.4142 -0.6116  0.2230
  222MOL0     O29894   9.089   7.771   0.415  0.7940 -0.4522  0.1459
  222MOL0     C29895   8.961   7.822   0.460  0.0249 -0.5082 -0.0814
  222MOL0     C29896   8.978   7.948   0.550  0.1958 -0.0926 -0.3569
  222MOL0     C29897   8.841   7.977   0.616 -0.1158  0.0559 -0.0499
  222MOL0     C29898   8.844   8.110   0.682  0.0213 -0.3537 -0.4322
  222MOL0     C29899   8.708   8.155   0.726 -0.4061  0.3636  0.6755
  222MOL0     C29900   8.600   8.200   0.758  0.3006  1.2521 -0.2697
  222MOL0     C29901   9.125   7.669   0.644  0.8191 -0.0288 -0.3272
  222MOL0     C29902   9.227   7.618   0.727 -0.1451 -0.3902  0.5899
  222MOL0     H29903   9.751   7.636   0.883 -2.6539  0.0483 -1.6451
  222MOL0     H29904   9.918   7.532   1.017  0.9171 -1.8527  0.7657
  222MOL0     H29905   9.884   7.101   1.104 -0.0652 -0.9480 -1.8798
  222MOL0     H29906  10.026   7.088   1.007  0.4646 -1.5606  1.3450
  222MOL0     H29907  10.137   7.041   1.201 -1.2732 -1.9214  2.7822
  222MOL0     H29908  10.154   7.220   1.207 -3.0669  1.7216 -2.3454
  222MOL0     H29909   9.991   7.254   1.375 -2.2651  1.7762 -0.7201
  222MOL0     H29910   9.905   7.112   1.328  0.4286  0.5501 -1.0075
  222MOL0     H29911  10.180   7.085   1.469 -1.7029  1.8798  1.8254
  222MOL0     H29912  10.017   7.104   1.549 -0.5367 -0.0994  0.1853
  222MOL0     H29913   9.953   6.898   1.419  0.3063 -0.8217  1.0893
  222MOL0     H29914  10.120   6.889   1.350  1.3048 -0.5198  0.6032
  222MOL0     H29915  10.219   6.812   1.529 -0.2440  4.1436 -1.6088
  222MOL0     H29916  10.090   6.860   1.650 -3.1953 -0.7326 -0.5448
  222MOL0     H29917   9.921   6.710   1.557  0.7755  1.4187  1.1280
  222MOL0     H29918  10.060   6.632   1.472 -0.8788  3.6998 -2.7682
  222MOL0     H29919  10.169   6.661   1.734 -0.9248  1.7974  0.4716
  222MOL0     H29920  10.121   6.521   1.649  2.2709  0.1051 -1.0612
  222MOL0     H29921   9.904   6.384   1.730 -1.3592  0.2780 -2.0244
  222MOL0     H29922   9.640   6.389   1.900  0.7088  0.7165 -1.1269
  222MOL0     H29923   9.758   6.274   1.947 -0.4761  0.4212 -0.4075
  222MOL0     H29924   9.592   6.338   2.138 -3.0423  3.0288  1.2016
  222MOL0     H29925   9.645   6.501   2.130  0.7423  1.2190 -1.4497
  222MOL0     H29926   9.873   6.447   2.176 -2.3447  1.6773 -0.1072
  222MOL0     H29927   9.841   6.271   2.171 -0.1043  0.2969 -0.4907
  222MOL0     H29928   9.685   6.305   2.372 -3.5655  1.5030 -0.4440
  222MOL0     H29929   9.716   6.478   2.348 -0.0706 -1.2282 -2.1882
  222MOL0     H29930   9.778   6.190   2.611 -0.6460 -0.7942 -0.8793
  222MOL0     H29931   9.825   5.854   2.709 -2.3294  0.7947  0.0003
  222MOL0     H29932   9.953   5.935   2.795 -0.4454  0.3779  0.6283
  222MOL0     H29933   9.798   6.012   2.783 -1.4386 -0.0626 -1.4906
  222MOL0     H29934  10.299   5.619   2.360 -1.7191 -1.5121  0.9463
  222MOL0     H29935  10.492   5.469   2.417  2.4012 -0.0605  1.3502
  222MOL0     H29936  10.632   5.462   2.845  2.9442  0.0170  1.9037
  222MOL0     H29937  10.707   5.330   2.759  0.2640 -0.3001 -2.0928
  222MOL0     H29938  10.870   5.493   2.662  0.9911 -0.7186  0.9929
  222MOL0     H29939  10.786   5.629   2.740  1.8261  1.2416  0.6588
  222MOL0     H29940  11.001   5.524   2.853 -0.1501 -0.8248  1.8739
  222MOL0     H29941  10.903   5.396   2.887  4.7154 -0.4982 -2.2146
  222MOL0     H29942  10.861   5.683   2.965  2.0218  0.0181 -0.6463
  222MOL0     H29943  10.733   5.563   3.017  0.1473 -1.5064 -2.5134
  222MOL0     H29944  10.908   5.660   3.179 -4.5806  0.3574 -0.1009
  222MOL0     H29945  11.015   5.545   3.090 -1.3736 -0.9954 -0.9125
  222MOL0     H29946  10.785   5.477   3.275  0.6267  2.6393  0.3669
  222MOL0     H29947  10.861   5.359   3.156 -0.4559 -1.5683  2.0895
  222MOL0     H29948  11.069   5.392   3.246  0.3513 -0.6621  2.0831
  222MOL0     H29949  10.954   5.311   3.348  2.4313 -1.0272 -0.5657
  222MOL0     H29950  11.051   5.430   3.497 -1.8936 -0.9330  0.3205
  222MOL0     H29951  10.913   5.513   3.484  1.4809 -0.7187  1.9846
  222MOL0     H29952  10.519   5.647   2.795 -1.2676 -3.4169  0.9048
  222MOL0     H29953  10.356   5.805   2.741  1.1047 -1.4848  0.1569
  222MOL0     H29954  10.180   6.010   2.368 -1.2912 -0.1500 -0.9178
  222MOL0     H29955  10.101   6.237   2.321 -2.7370 -0.3360 -0.5724
  222MOL0     H29956   9.827   7.154   0.842  4.2633 -1.3167  4.6297
  222MOL0     H29957   9.626   7.260   0.725 -3.8736  3.8610  1.8585
  222MOL0     H29958   9.498   7.622   0.519  1.2772 -1.6052  2.1689
  222MOL0     H29959   9.321   7.706   0.364  1.3761 -2.2482  0.4777
  222MOL0     H29960   8.914   7.851   0.366  2.4188  3.0875 -0.3751
  222MOL0     H29961   8.892   7.748   0.503  1.3723 -1.0109  1.2835
  222MOL0     H29962   9.003   8.041   0.498  0.2509 -0.6961 -1.4355
  222MOL0     H29963   9.045   7.932   0.634  0.8466 -1.0552 -1.0394
  222MOL0     H29964   8.822   7.900   0.691  1.9244 -3.5788 -2.8873
  222MOL0     H29965   8.768   7.976   0.535  0.2270 -3.8501 -0.5046
  222MOL0     H29966   8.879   8.192   0.618 -0.9027 -0.0244 -0.5363
  222MOL0     H29967   8.906   8.105   0.772  1.6546  1.1773 -1.3977
  222MOL0     H29968   8.505   8.240   0.785  0.3911  1.6595 -0.5654
  222MOL0     H29969   9.029   7.689   0.691  2.0126 -4.3006  4.9749
  222MOL0     H29970   9.208   7.592   0.830 -1.6271  0.4785  0.5788
  223MOL0     O29971   5.279   7.498   9.265 -0.1456 -0.7521 -0.1122
  223MOL0     C29972   5.161   7.461   9.277 -0.4217 -0.3003  0.2307
  223MOL0     O29973   5.108   7.363   9.200  0.3143  0.6680  0.2821
  223MOL0     C29974   5.160   7.298   9.087 -0.6909  0.5275  0.2123
  223MOL0     C29975   5.070   7.212   9.029 -0.2919 -0.5380  0.0960
  223MOL0     C29976   5.092   7.147   8.913  0.0543  0.4226 -0.1891
  223MOL0     C29977   5.207   7.167   8.841  0.2117 -0.4610 -0.6347
  223MOL0     O29978   5.230   7.102   8.721 -0.8154  0.4684  0.6422
  223MOL0     C29979   5.265   7.186   8.616  0.0378  0.2797 -1.0279
  223MOL0     C29980   5.233   7.123   8.487  0.6720 -0.6783  0.0100
  223MOL0     C29981   5.082   7.108   8.463 -0.1888  0.5629  1.4736
  223MOL0     C29982   5.054   7.108   8.310  0.2315 -0.0079 -0.4335
  223MOL0     C29983   4.940   7.012   8.278  0.5900 -0.1275  0.2187
  223MOL0     C29984   4.909   7.019   8.127  0.6003 -0.0284 -0.3333
  223MOL0     C29985   4.788   6.930   8.087 -0.4685 -0.2740 -0.0070
  223MOL0     C29986   4.785   6.899   7.932  0.1496 -0.4216 -0.3028
  223MOL0     N29987   4.781   7.036   7.867  0.3398 -0.3045  0.5809
  223MOL0     C29988   4.672   7.106   7.847 -0.1184 -0.8167 -0.3956
  223MOL0     C29989   4.713   7.215   7.779 -0.4338  1.2624 -0.1194
  223MOL0     C29990   4.634   7.336   7.729  1.3625  0.0180 -0.5552
  223MOL0     C29991   4.697   7.400   7.603 -1.2592 -0.3631 -0.2801
  223MOL0     C29992   4.829   7.480   7.632 -0.0418  0.2836 -0.7452
  223MOL0     C29993   4.882   7.547   7.507  0.7945  0.2033  0.0085
  223MOL0     O29994   5.006   7.615   7.540 -0.1671  0.2242  0.6006
  223MOL0     C29995   5.054   7.695   7.438  0.9221 -0.3834  0.0031
  223MOL0     C29996   5.175   7.753   7.459 -0.1515 -0.0771  0.4599
  223MOL0     C29997   5.236   7.847   7.372  0.2423 -0.4457 -0.6642
  223MOL0     C29998   5.373   7.906   7.409  0.5909 -0.3113  0.9226
  223MOL0     C29999   5.175   7.877   7.250 -0.2745 -0.2505  0.3105
  223MOL0     C30000   5.242   7.960   7.150 -0.4820 -0.2780 -0.7179
  223MOL0     O30001   5.282   8.083   7.174 -0.6835 -0.4932 -0.3478
  223MOL0     C30002   5.383   8.123   7.096 -0.5018 -0.2690 -0.1361
  223MOL0     C30003   5.400   8.136   6.957  0.5767  0.1726  0.9569
  223MOL0     C30004   5.520   8.179   6.894 -1.0798 -1.3783  1.5714
  223MOL0     C30005   5.630   8.226   6.972 -0.4500 -0.8339 -0.2366
  223MOL0     O30006   5.739   8.280   6.905  0.5107 -0.0196 -0.0124
  223MOL0     C30007   5.869   8.285   6.964  0.3718 -0.4054 -0.2814
  223MOL0     C30008   5.990   8.350   6.896  0.4657  0.2834  0.2438
  223MOL0     C30009   6.132   8.295   6.923 -0.6675  0.1086  0.4034
  223MOL0     C30010   6.229   8.359   6.822 -0.6926  0.5155  0.1612
  223MOL0     C30011   6.376   8.324   6.852 -0.1782  0.0503 -0.0049
  223MOL0     C30012   6.475   8.389   6.751  0.1773  0.5512  0.3376
  223MOL0     C30013   6.489   8.310   6.628  0.6664  0.4797  0.3113
  223MOL0     C30014   6.594   8.367   6.528 -0.7830  0.6312  0.0077
  223MOL0    Cl30015   6.570   8.330   6.356  0.2182 -0.4832 -0.1484
  223MOL0     C30016   5.610   8.212   7.113 -0.1607  0.6457  1.1611
  223MOL0     C30017   5.491   8.162   7.170 -0.0405  0.2776 -0.0807
  223MOL0     O30018   5.259   7.907   7.040  0.3316  0.2794  1.0323
  223MOL0     C30019   5.053   7.812   7.223 -0.0900  0.0288 -0.2922
  223MOL0     C30020   4.991   7.724   7.314 -0.0114 -0.3795  0.5760
  223MOL0     N30021   4.854   7.202   7.760  0.0359 -0.5754 -0.3485
  223MOL0     N30022   4.883   7.086   7.797  0.0312 -0.2065 -0.4461
  223MOL0     C30023   5.304   7.254   8.896  0.1289  0.3030  0.7914
  223MOL0     C30024   5.279   7.321   9.011  0.1828  0.2531  0.8847
  223MOL0     C30025   5.081   7.539   9.374  0.2253  1.3531  0.0310
  223MOL0     C30026   5.146   7.641   9.453 -0.4194  0.3945  1.1692
  223MOL0     C30027   5.076   7.725   9.530  0.3643 -0.3826  0.3485
  223MOL0     C30028   4.940   7.698   9.560 -0.7323  0.1286  0.0179
  223MOL0     O30029   4.873   7.764   9.666  0.5180  0.1806  0.6636
  223MOL0     C30030   4.942   7.861   9.745  0.0782  0.5767 -0.7763
  223MOL0     C30031   4.939   7.992   9.666  0.2870  0.7294  0.1408
  223MOL0     C30032   4.794   8.055   9.680 -0.1331 -0.2981 -0.2846
  223MOL0     C30033   4.778   8.204   9.629  0.3081 -1.0559 -0.2154
  223MOL0     C30034   4.817   8.301   9.727 -0.2268  0.7889 -0.2438
  223MOL0     C30035   4.844   8.365   9.829 -0.9956  0.1927 -0.9763
  223MOL0     C30036   4.881   7.586   9.489 -0.2214 -0.4202  0.3710
  223MOL0     C30037   4.942   7.511   9.400  0.6723  0.0158 -0.1291
  223MOL0     H30038   4.974   7.197   9.078  0.5885 -0.7194  1.8539
  223MOL0     H30039   5.030   7.069   8.869  1.6450 -2.7448  2.7055
  223MOL0     H30040   5.218   7.283   8.635 -1.2165 -0.3894 -0.6264
  223MOL0     H30041   5.374   7.200   8.622  0.0457 -0.0516 -0.2668
  223MOL0     H30042   5.286   7.186   8.415  1.8920  1.6488  2.7463
  223MOL0     H30043   5.275   7.022   8.487 -0.6355 -1.2761  1.7984
  223MOL0     H30044   5.050   7.012   8.507  0.2855 -1.8300 -2.8458
  223MOL0     H30045   5.039   7.190   8.521 -0.3054  0.3862  1.6426
  223MOL0     H30046   5.037   7.208   8.270  2.1316 -0.0420 -1.4490
  223MOL0     H30047   5.142   7.067   8.259  1.0047  0.0436  0.8020
  223MOL0     H30048   4.966   6.909   8.305  4.9536  0.5352 -0.7008
  223MOL0     H30049   4.845   7.045   8.322  0.1769 -0.0531 -0.6946
  223MOL0     H30050   4.876   7.118   8.094  3.1078  0.6099 -1.1551
  223MOL0     H30051   4.994   6.991   8.064  1.0959  1.7102 -0.4840
  223MOL0     H30052   4.791   6.833   8.138  0.8759 -1.5235 -2.2899
  223MOL0     H30053   4.696   6.987   8.107  2.1037  4.5389 -0.5295
  223MOL0     H30054   4.700   6.837   7.902  0.4777 -2.0097  1.7782
  223MOL0     H30055   4.877   6.847   7.904  1.3862  0.5289  1.7562
  223MOL0     H30056   4.572   7.090   7.886 -0.2886 -0.1188 -0.5302
  223MOL0     H30057   4.529   7.312   7.710  0.1092  1.1825  3.7361
  223MOL0     H30058   4.621   7.402   7.815 -1.0892 -0.8197 -0.1934
  223MOL0     H30059   4.629   7.467   7.550 -1.0222 -0.6318 -0.9311
  223MOL0     H30060   4.711   7.314   7.538  0.0817  0.9617 -1.8300
  223MOL0     H30061   4.904   7.407   7.666 -2.3702 -1.4162  1.1248
  223MOL0     H30062   4.806   7.552   7.711  2.2078  0.8774 -0.5657
  223MOL0     H30063   4.808   7.623   7.479  1.0921 -0.3084 -2.3638
  223MOL0     H30064   4.888   7.486   7.417 -0.9234  1.2612 -0.8611
  223MOL0     H30065   5.234   7.727   7.546  2.3046  1.4420 -0.6189
  223MOL0     H30066   5.358   8.013   7.391  2.8107 -0.3791 -1.9611
  223MOL0     H30067   5.388   7.891   7.516 -2.0476 -1.6079  1.1821
  223MOL0     H30068   5.463   7.878   7.355  0.4965 -0.6689  0.9471
  223MOL0     H30069   5.315   8.115   6.893  0.4138  2.8070  0.2000
  223MOL0     H30070   5.511   8.199   6.787 -0.3364 -1.7316  1.4402
  223MOL0     H30071   5.858   8.332   7.063  1.6656  0.4814 -0.5336
  223MOL0     H30072   5.896   8.185   7.000 -0.2624 -0.2992  0.5237
  223MOL0     H30073   5.977   8.333   6.788 -3.9015  0.0091  0.6093
  223MOL0     H30074   5.974   8.458   6.900 -0.2590  0.1839  0.1724
  223MOL0     H30075   6.141   8.186   6.915  0.6706  0.1581  1.0535
  223MOL0     H30076   6.165   8.329   7.022 -0.0414 -0.7121  0.4829
  223MOL0     H30077   6.202   8.327   6.721  2.6419  1.0947 -1.0264
  223MOL0     H30078   6.230   8.467   6.834 -1.4533  0.2628  3.3354
  223MOL0     H30079   6.398   8.218   6.838 -3.0947 -0.5927 -0.1462
  223MOL0     H30080   6.397   8.336   6.958 -0.9254 -1.6825  0.3625
  223MOL0     H30081   6.445   8.490   6.721  2.3098  1.6909  1.7663
  223MOL0     H30082   6.577   8.397   6.791 -0.1976  1.3885  1.1762
  223MOL0     H30083   6.391   8.309   6.578  1.1714  2.2023 -0.7907
  223MOL0     H30084   6.508   8.204   6.648  0.7183  0.7048  1.5096
  223MOL0     H30085   6.690   8.324   6.559  0.3222 -1.1161 -4.8896
  223MOL0     H30086   6.606   8.475   6.540  1.8604  0.1835  2.3620
  223MOL0     H30087   5.694   8.246   7.173  1.6115  1.8162 -1.7994
  223MOL0     H30088   5.494   8.154   7.278  0.5922 -2.4186 -0.2178
  223MOL0     H30089   5.008   7.841   7.129 -0.4567 -1.0370 -0.4583
  223MOL0     H30090   4.893   7.691   7.283 -1.6709  1.1480  3.6674
  223MOL0     H30091   5.399   7.266   8.844  0.5135  3.7976  2.0155
  223MOL0     H30092   5.343   7.400   9.050 -2.2082  0.8722  3.8804
  223MOL0     H30093   5.254   7.650   9.451 -0.1870 -0.7337  3.9134
  223MOL0     H30094   5.134   7.805   9.574 -2.1601  0.7751  1.8237
  223MOL0     H30095   4.895   7.873   9.843  1.9068 -0.2468  0.2415
  223MOL0     H30096   5.045   7.833   9.768 -0.4004  0.6327  1.7625
  223MOL0     H30097   4.980   7.993   9.565  1.5021  1.5676  0.6194
  223MOL0     H30098   4.999   8.061   9.726 -1.2566  0.7929  1.7102
  223MOL0     H30099   4.754   8.041   9.780 -0.8005  0.4275 -0.4491
  223MOL0     H30100   4.728   8.001   9.611 -0.6897  0.7604 -0.6027
  223MOL0     H30101   4.671   8.215   9.610  0.3958 -1.6837 -1.0999
  223MOL0     H30102   4.820   8.228   9.531  1.1088 -0.7297  0.1964
  223MOL0     H30103   4.880   8.413   9.917 -2.7889  1.0606 -0.6640
  223MOL0     H30104   4.780   7.554   9.512  0.4138 -3.9697 -1.1941
  223MOL0     H30105   4.875   7.439   9.354  0.8048  0.4205 -0.9645
  224MOL0     O30106  10.044   9.837   0.079  0.4250 -0.5311 -0.6442
  224MOL0     C30107  10.030   9.835  -0.043  0.1238  1.1755  0.0525
  224MOL0     O30108   9.922   9.877  -0.114  0.8541 -0.2984  0.5077
  224MOL0     C30109   9.819   9.950  -0.063  0.1959  0.6755  0.2998
  224MOL0     C30110   9.830  10.073   0.008 -0.3742 -0.0898  0.3940
  224MOL0     C30111   9.717  10.138   0.042 -1.0821 -1.0054  0.1192
  224MOL0     C30112   9.587  10.090   0.024  0.1458  0.3956 -0.4539
  224MOL0     O30113   9.485  10.173   0.056  0.3852 -0.1981 -0.0462
  224MOL0     C30114   9.369  10.180  -0.026  0.5377 -0.2983  0.6811
  224MOL0     C30115   9.268  10.281   0.036  0.0724 -1.2083 -0.7564
  224MOL0     C30116   9.132  10.267  -0.026 -0.3651  0.5702 -0.5225
  224MOL0     C30117   9.118  10.332  -0.162  1.4288  0.7411  0.6214
  224MOL0     C30118   9.002  10.270  -0.241 -0.2570 -0.1870  0.0578
  224MOL0     C30119   9.017  10.303  -0.388 -0.4910 -0.2425 -0.0458
  224MOL0     C30120   8.900  10.227  -0.463 -0.1734  0.5321 -0.8945
  224MOL0     C30121   8.898  10.270  -0.596  0.0056 -0.7501  1.4967
  224MOL0     N30122   8.814  10.203  -0.690 -0.2261  0.3611  0.3365
  224MOL0     C30123   8.677  10.221  -0.701 -1.1003  0.4601  0.3166
  224MOL0     C30124   8.633  10.163  -0.807  0.0151 -0.0221  0.6773
  224MOL0     C30125   8.490  10.121  -0.837  1.6925 -0.2118  0.5066
  224MOL0     C30126   8.392  10.248  -0.857 -0.1705  0.6223  0.5455
  224MOL0     C30127   8.249  10.187  -0.876  0.9113 -0.6599  0.5770
  224MOL0     C30128   8.126  10.283  -0.869  0.0991 -0.2310  0.2043
  224MOL0     O30129   8.116  10.326  -0.735 -0.2795 -0.6572  0.5935
  224MOL0     C30130   8.019  10.423  -0.704 -0.1726 -0.2124 -0.5503
  224MOL0     C30131   7.902  10.447  -0.787 -0.8213 -0.8321 -0.3152
  224MOL0     C30132   7.791  10.517  -0.741  0.2810  0.5540 -0.0912
  224MOL0     C30133   7.668  10.501  -0.829 -0.6360 -0.6927  0.1157
  224MOL0     C30134   7.800  10.593  -0.617 -0.4413 -0.0535 -0.2479
  224MOL0     C30135   7.686  10.662  -0.556 -0.5533 -0.3339 -0.3260
  224MOL0     O30136   7.687  10.684  -0.428  0.4478 -0.2743  0.0807
  224MOL0     C30137   7.584  10.743  -0.364 -0.3374 -1.4040  0.3892
  224MOL0     C30138   7.615  10.838  -0.262  0.1935  0.3022 -0.2492
  224MOL0     C30139   7.511  10.909  -0.203 -0.0971 -0.4091 -0.3233
  224MOL0     C30140   7.380  10.885  -0.228  1.0799  0.3721  0.4632
  224MOL0     O30141   7.290  10.969  -0.164 -0.1478 -0.0263 -0.9407
  224MOL0     C30142   7.154  10.985  -0.188 -0.9016  0.5563  0.3087
  224MOL0     C30143   7.087  11.067  -0.077  1.7398 -0.9043 -0.4444
  224MOL0     C30144   6.931  11.036  -0.062  0.1627 -0.0482  0.6514
  224MOL0     C30145   6.861  11.021  -0.200  0.4745 -0.6232  0.4779
  224MOL0     C30146   6.716  10.989  -0.179 -0.1312 -0.2549 -0.2156
  224MOL0     C30147   6.642  10.963  -0.309 -0.0324  0.4012  0.0593
  224MOL0     C30148   6.635  11.090  -0.396  0.3800 -1.0607  0.1816
  224MOL0     C30149   6.610  11.070  -0.547 -0.2693 -0.4233 -0.3624
  224MOL0    Cl30150   6.461  10.961  -0.567 -0.0316  0.1103  0.3551
  224MOL0     C30151   7.350  10.795  -0.331 -0.7656  0.1149 -0.3421
  224MOL0     C30152   7.450  10.726  -0.396  0.0380 -0.3360  0.1084
  224MOL0     O30153   7.593  10.689  -0.632  0.2350  0.9103 -0.2116
  224MOL0     C30154   7.921  10.575  -0.540 -0.0737 -0.4899  0.7088
  224MOL0     C30155   8.021  10.486  -0.581  0.9914 -0.5355  0.0238
  224MOL0     N30156   8.745  10.110  -0.873 -0.0431  0.3566  0.2549
  224MOL0     N30157   8.853  10.143  -0.809 -0.4422  0.1401 -0.0144
  224MOL0     C30158   9.578   9.957  -0.033 -0.3249 -0.2062 -1.0296
  224MOL0     C30159   9.690   9.895  -0.084  0.1454  0.0538 -0.1029
  224MOL0     C30160  10.138   9.767  -0.117 -0.2495  0.3232  0.1042
  224MOL0     C30161  10.265   9.744  -0.059  0.1568 -0.6149 -0.2002
  224MOL0     C30162  10.362   9.683  -0.138 -0.1252  0.0135 -0.2704
  224MOL0     C30163  10.343   9.642  -0.269 -0.6151  0.4577 -0.0940
  224MOL0     O30164  10.446   9.587  -0.340 -0.1649 -0.5996  0.6200
  224MOL0     C30165  10.576   9.628  -0.323 -0.5011  0.1959 -0.1292
  224MOL0     C30166  10.653   9.541  -0.229  0.4629  0.3405  0.3823
  224MOL0     C30167  10.618   9.392  -0.248  0.6702  0.0126 -0.4390
  224MOL0     C30168  10.656   9.347  -0.392 -0.1814 -0.8135 -1.0375
  224MOL0     C30169  10.790   9.299  -0.395 -0.8942 -0.4584  0.4424
  224MOL0     C30170  10.904   9.254  -0.422  0.6318  0.1441 -1.2130
  224MOL0     C30171  10.220   9.671  -0.325  0.1782 -1.2557 -1.2022
  224MOL0     C30172  10.119   9.728  -0.252  0.1120 -0.8087 -0.1779
  224MOL0     H30173   9.922  10.128   0.019 -0.8261  0.4931  1.4685
  224MOL0     H30174   9.734  10.242   0.069 -3.4999 -1.0430  2.2053
  224MOL0     H30175   9.395  10.200  -0.130  1.1017 -0.4507  0.7859
  224MOL0     H30176   9.312  10.087  -0.019 -1.2817  0.7705  0.7047
  224MOL0     H30177   9.287  10.295   0.143 -0.1207  1.3560 -0.9973
  224MOL0     H30178   9.307  10.371  -0.012  2.9762 -1.1632  1.4615
  224MOL0     H30179   9.098  10.163  -0.017 -1.1366  0.8979  0.5204
  224MOL0     H30180   9.066  10.328   0.036 -0.5261  1.7906 -1.8372
  224MOL0     H30181   9.106  10.438  -0.137  0.5174  0.3073  2.1619
  224MOL0     H30182   9.213  10.326  -0.216  0.6291 -2.4741 -0.6166
  224MOL0     H30183   8.992  10.163  -0.221 -0.0346  0.3824  3.9064
  224MOL0     H30184   8.903  10.309  -0.214 -0.4859 -1.8194  1.7960
  224MOL0     H30185   9.021  10.408  -0.419  2.6440 -0.4753 -0.7788
  224MOL0     H30186   9.117  10.274  -0.422 -0.6255 -0.9796  0.1725
  224MOL0     H30187   8.916  10.119  -0.455  0.6466  0.7005 -0.0646
  224MOL0     H30188   8.799  10.245  -0.425 -0.4854  1.5866 -2.1668
  224MOL0     H30189   8.994  10.274  -0.647 -1.4697  1.5633 -1.4811
  224MOL0     H30190   8.855  10.371  -0.585  0.6474 -0.2467 -0.2845
  224MOL0     H30191   8.622  10.269  -0.620  2.3188  1.5108  2.1854
  224MOL0     H30192   8.503  10.072  -0.934  0.0365  1.8065 -0.8062
  224MOL0     H30193   8.448  10.054  -0.761  1.4872 -0.0867  0.5041
  224MOL0     H30194   8.420  10.298  -0.951  0.0120 -0.4843 -0.0094
  224MOL0     H30195   8.391  10.320  -0.775  1.6213 -0.4688  1.6023
  224MOL0     H30196   8.245  10.122  -0.787 -0.6731 -0.4365  0.7036
  224MOL0     H30197   8.257  10.129  -0.968 -0.4384  0.9367 -0.5847
  224MOL0     H30198   8.035  10.229  -0.897  1.3323 -2.5754  0.5064
  224MOL0     H30199   8.138  10.360  -0.946  2.5695 -1.8143 -1.1438
  224MOL0     H30200   7.910  10.397  -0.883 -1.5163 -1.9318  0.1792
  224MOL0     H30201   7.688  10.428  -0.909 -1.2491  0.2357 -0.8984
  224MOL0     H30202   7.577  10.479  -0.772 -1.1390 -0.8228 -0.7243
  224MOL0     H30203   7.651  10.594  -0.884  1.4878 -0.1262  0.3256
  224MOL0     H30204   7.721  10.844  -0.242  0.9967 -1.0524 -3.4682
  224MOL0     H30205   7.540  10.993  -0.140  3.1123 -1.5210 -0.1262
  224MOL0     H30206   7.149  11.025  -0.289  2.2102 -0.5453 -0.4083
  224MOL0     H30207   7.126  10.879  -0.190  1.5571 -0.1474 -0.9211
  224MOL0     H30208   7.126  11.037   0.021  0.9312 -4.3384 -1.0284
  224MOL0     H30209   7.094  11.175  -0.093 -1.7676  0.0136  2.6571
  224MOL0     H30210   6.890  11.115   0.002 -1.7524 -2.3883  2.4812
  224MOL0     H30211   6.925  10.939  -0.011  0.2007 -0.2585  0.2560
  224MOL0     H30212   6.873  11.110  -0.263 -1.6759 -0.9220 -0.4641
  224MOL0     H30213   6.901  10.938  -0.259 -0.7083 -0.5549 -0.4886
  224MOL0     H30214   6.666  11.074  -0.132 -0.2181  0.6183 -1.8008
  224MOL0     H30215   6.713  10.890  -0.132  0.2535 -3.7022 -6.3226
  224MOL0     H30216   6.693  10.878  -0.357  0.3285 -1.6247  3.7083
  224MOL0     H30217   6.539  10.929  -0.296 -1.1608  3.0222 -1.2423
  224MOL0     H30218   6.723  11.154  -0.384 -0.4922  0.0088  1.0479
  224MOL0     H30219   6.553  11.159  -0.374  2.0593  2.0405 -2.4049
  224MOL0     H30220   6.685  11.018  -0.607 -1.9519 -4.2738  0.5433
  224MOL0     H30221   6.589  11.167  -0.594  0.0689  2.4760  4.6657
  224MOL0     H30222   7.244  10.780  -0.350 -0.5700 -0.9386 -0.6498
  224MOL0     H30223   7.412  10.654  -0.467  1.0079 -0.9552  0.1933
  224MOL0     H30224   7.920  10.619  -0.441  0.1039 -0.9025  0.8950
  224MOL0     H30225   8.103  10.475  -0.512  2.3206  1.5535 -1.1451
  224MOL0     H30226   9.476   9.921  -0.046 -0.5105 -0.0838 -0.0100
  224MOL0     H30227   9.675   9.802  -0.137 -3.8197  0.4339  0.0868
  224MOL0     H30228  10.286   9.754   0.047  1.3807  1.1992 -0.5678
  224MOL0     H30229  10.456   9.655  -0.090  0.0135 -0.7277 -0.9669
  224MOL0     H30230  10.629   9.634  -0.418 -1.1528  3.2121 -0.4047
  224MOL0     H30231  10.571   9.732  -0.288  1.9695  0.7965 -1.3650
  224MOL0     H30232  10.642   9.571  -0.124  1.3409  1.4141  0.1866
  224MOL0     H30233  10.759   9.563  -0.244 -0.3865  3.1583 -2.8397
  224MOL0     H30234  10.514   9.380  -0.217  1.2243 -1.6047  0.9510
  224MOL0     H30235  10.670   9.333  -0.172  1.3636 -0.5302 -1.3145
  224MOL0     H30236  10.630   9.423  -0.466 -3.4464 -0.7446 -0.0149
  224MOL0     H30237  10.602   9.257  -0.425 -2.3936 -0.4765  1.3118
  224MOL0     H30238  11.005   9.220  -0.434  0.4653 -1.6707  1.4602
  224MOL0     H30239  10.199   9.658  -0.430  1.8060  2.4613 -2.1388
  224MOL0     H30240  10.024   9.747  -0.301 -1.1064  1.0022  2.6019
  225MOL0     O30241   8.054   1.928  10.939  1.2580  0.0773  0.1961
  225MOL0     C30242   8.017   2.040  10.974  0.2941 -1.6230 -0.4343
  225MOL0     O30243   7.987   2.146  10.887 -0.0679 -0.1754  0.1054
  225MOL0     C30244   8.080   2.167  10.778  0.9206  0.1307  0.3846
  225MOL0     C30245   8.220   2.145  10.792  0.2670  0.8547  1.1564
  225MOL0     C30246   8.304   2.173  10.681 -0.1766  0.0968 -1.0400
  225MOL0     C30247   8.256   2.211  10.559  1.2439  0.9058  0.2422
  225MOL0     O30248   8.342   2.238  10.462  1.1037  0.3895  0.8952
  225MOL0     C30249   8.472   2.303  10.489 -0.4533  0.7193 -0.1413
  225MOL0     C30250   8.562   2.322  10.360  1.1049  0.0964 -0.5649
  225MOL0     C30251   8.607   2.183  10.313  0.2156  0.4365 -0.1052
  225MOL0     C30252   8.697   2.185  10.185 -0.1000  0.6547 -0.6551
  225MOL0     C30253   8.835   2.251  10.216 -0.5081  0.3225  0.7315
  225MOL0     C30254   8.909   2.241  10.087 -1.1506  0.8960  0.5934
  225MOL0     C30255   9.050   2.325  10.079  0.4873 -0.6256 -0.3359
  225MOL0     C30256   9.167   2.301  10.177 -0.0274 -0.0935  0.2834
  225MOL0     N30257   9.276   2.412  10.165  0.7307  0.5319 -0.8254
  225MOL0     C30258   9.254   2.544  10.202 -0.4205 -0.2855 -0.6884
  225MOL0     C30259   9.354   2.613  10.148 -0.1778 -0.6500 -0.0637
  225MOL0     C30260   9.383   2.759  10.158 -0.0715 -0.3294 -0.1156
  225MOL0     C30261   9.293   2.844  10.066 -0.2026  0.1002 -0.8281
  225MOL0     C30262   9.334   2.856   9.913 -0.0627  0.3389 -0.0706
  225MOL0     C30263   9.473   2.919   9.889  0.3253  0.7993  0.2581
  225MOL0     O30264   9.474   3.048   9.952  0.1924  0.3076 -0.7787
  225MOL0     C30265   9.592   3.113   9.972 -0.3742 -0.0169 -0.6992
  225MOL0     C30266   9.700   3.107   9.880 -0.0318  0.2358 -1.3093
  225MOL0     C30267   9.825   3.169   9.912  0.1573 -0.3103 -0.1299
  225MOL0     C30268   9.932   3.163   9.805 -0.4402 -0.1694  0.2860
  225MOL0     C30269   9.853   3.245  10.034  0.2065 -0.1818  0.9545
  225MOL0     C30270   9.969   3.326  10.076  0.7074  0.0741  1.2772
  225MOL0     O30271   9.955   3.403  10.190 -0.4484 -0.0119  0.7840
  225MOL0     C30272  10.070   3.423  10.259 -0.4149 -0.1203  0.5545
  225MOL0     C30273  10.135   3.550  10.261 -0.1859  0.4024 -1.2684
  225MOL0     C30274  10.245   3.561  10.347  0.2935 -0.2210  0.1585
  225MOL0     C30275  10.286   3.451  10.437  0.5708 -0.4958 -0.1911
  225MOL0     O30276  10.389   3.467  10.534  1.2838 -0.0402 -0.8411
  225MOL0     C30277  10.433   3.600  10.549  0.5310  0.3217  0.6231
  225MOL0     C30278  10.538   3.602  10.661 -1.3139 -0.1153 -0.2660
  225MOL0     C30279  10.584   3.741  10.688  0.4607 -0.7259 -0.1498
  225MOL0     C30280  10.702   3.744  10.784  0.3806  1.1502 -0.2863
  225MOL0     C30281  10.724   3.878  10.836 -0.7721  0.3331 -0.8019
  225MOL0     C30282  10.846   3.869  10.930  0.2927  0.5399  0.5310
  225MOL0     C30283  10.845   3.991  11.030 -0.2452  1.0831  0.1662
  225MOL0     C30284  10.802   4.122  10.967  0.6233  0.6930 -0.8649
  225MOL0    Cl30285  10.863   4.259  11.069 -0.1014 -0.1844  0.3091
  225MOL0     C30286  10.219   3.324  10.429 -0.4892 -0.1883 -0.7493
  225MOL0     C30287  10.107   3.317  10.345  0.4567 -0.7698  0.4611
  225MOL0     O30288  10.063   3.317  10.008 -0.4602 -0.7597 -0.5836
  225MOL0     C30289   9.731   3.259  10.108 -0.4950 -0.4232  0.8725
  225MOL0     C30290   9.609   3.202  10.077 -0.8956  0.3873  0.2519
  225MOL0     N30291   9.425   2.527  10.078 -0.3783 -0.4406  0.6114
  225MOL0     N30292   9.390   2.405  10.089 -0.5971 -0.7113  0.5014
  225MOL0     C30293   8.116   2.210  10.541  0.3990 -0.0554 -0.8358
  225MOL0     C30294   8.023   2.194  10.646 -0.0489  0.6311  0.1578
  225MOL0     C30295   7.976   2.059  11.119  0.6250  1.3706  0.8119
  225MOL0     C30296   7.905   2.168  11.159 -0.2495 -0.0796 -0.9271
  225MOL0     C30297   7.872   2.183  11.293 -0.2427 -0.2804 -0.0273
  225MOL0     C30298   7.887   2.091  11.389  0.5889 -0.2520 -0.4090
  225MOL0     O30299   7.852   2.126  11.520 -0.1109 -0.3343 -0.5514
  225MOL0     C30300   7.864   2.046  11.635 -0.6418 -0.7008  0.0950
  225MOL0     C30301   7.915   2.147  11.747  0.7031 -0.2904 -0.1572
  225MOL0     C30302   7.818   2.270  11.764  0.0702 -0.2667 -0.6652
  225MOL0     C30303   7.842   2.388  11.678  0.0651 -0.7704 -0.8249
  225MOL0     C30304   7.741   2.484  11.714  0.2515 -0.3300 -0.0421
  225MOL0     C30305   7.670   2.582  11.737  0.3524  0.2889 -0.5398
  225MOL0     C30306   7.948   1.969  11.348  1.1936  0.4188 -0.1238
  225MOL0     C30307   7.995   1.952  11.217  0.0520 -1.8004 -0.1030
  225MOL0     H30308   8.266   2.106  10.882 -3.4110 -1.0619  2.3697
  225MOL0     H30309   8.408   2.166  10.712 -1.3966 -0.1196  3.6343
  225MOL0     H30310   8.465   2.390  10.555 -0.4476  1.0984 -0.6364
  225MOL0     H30311   8.533   2.241  10.556 -1.0616  0.3859  0.1082
  225MOL0     H30312   8.504   2.353  10.273 -1.6246 -1.3581  0.6179
  225MOL0     H30313   8.646   2.390  10.376  1.7387 -0.0475 -2.9649
  225MOL0     H30314   8.653   2.136  10.401  0.3907  0.6795 -0.0665
  225MOL0     H30315   8.527   2.118  10.278  0.6888  0.7957 -1.9386
  225MOL0     H30316   8.703   2.079  10.156 -0.6578  0.2007  0.7735
  225MOL0     H30317   8.628   2.241  10.122 -1.4278 -1.0327 -0.7869
  225MOL0     H30318   8.822   2.358  10.235 -1.8190  0.6072 -1.5232
  225MOL0     H30319   8.882   2.213  10.308  0.3652 -0.4869 -0.0202
  225MOL0     H30320   8.926   2.133  10.078 -1.8377  0.4814  3.4005
  225MOL0     H30321   8.841   2.280  10.010 -0.0693  1.1756 -0.2567
  225MOL0     H30322   9.084   2.304   9.978  1.8805  0.1604 -0.0530
  225MOL0     H30323   9.017   2.428  10.093 -1.4067 -1.1412 -0.6971
  225MOL0     H30324   9.217   2.212  10.137 -0.3211 -2.2581  4.2300
  225MOL0     H30325   9.127   2.284  10.278 -0.6251  1.8806  0.4198
  225MOL0     H30326   9.175   2.591  10.260  0.4863 -0.3224  0.6179
  225MOL0     H30327   9.370   2.806  10.256  1.1911  4.4395 -1.9811
  225MOL0     H30328   9.485   2.775  10.122  0.8249 -1.8339  1.5596
  225MOL0     H30329   9.291   2.948  10.099 -1.8895 -0.1380 -0.0939
  225MOL0     H30330   9.186   2.822  10.068 -0.5813  1.8456  0.2341
  225MOL0     H30331   9.252   2.912   9.866 -0.2998 -1.2916 -1.7110
  225MOL0     H30332   9.338   2.750   9.885 -0.9311  0.0961  0.6877
  225MOL0     H30333   9.499   2.917   9.783  3.0760  1.2948  0.8323
  225MOL0     H30334   9.543   2.854   9.943  0.1511  0.7774  0.4602
  225MOL0     H30335   9.681   3.045   9.793 -0.3625 -1.2046 -0.2698
  225MOL0     H30336   9.934   3.066   9.755  2.5611 -0.4620  0.7801
  225MOL0     H30337   9.911   3.236   9.727 -2.6846 -3.3122 -2.2722
  225MOL0     H30338  10.037   3.168   9.837 -0.5674 -3.8755  1.7868
  225MOL0     H30339  10.100   3.628  10.194  2.2997  0.9259 -2.0433
  225MOL0     H30340  10.296   3.654  10.369 -2.0758  0.5557  3.1185
  225MOL0     H30341  10.487   3.638  10.461  5.4905 -1.6896  2.4267
  225MOL0     H30342  10.351   3.666  10.578 -1.8444 -2.8537  1.6804
  225MOL0     H30343  10.509   3.558  10.757  2.9490 -2.6131  0.1241
  225MOL0     H30344  10.618   3.537  10.624 -0.0387 -0.6710  3.1375
  225MOL0     H30345  10.508   3.804  10.734  1.0512  1.4425 -1.9581
  225MOL0     H30346  10.614   3.789  10.594  3.3955 -1.2312  0.4101
  225MOL0     H30347  10.684   3.687  10.876  2.8840 -1.6654 -1.3597
  225MOL0     H30348  10.787   3.680  10.757 -0.4552 -1.2004  2.1761
  225MOL0     H30349  10.638   3.922  10.888  1.8414  1.9288  2.5685
  225MOL0     H30350  10.750   3.952  10.759  5.4466  0.8057  1.1389
  225MOL0     H30351  10.838   3.784  10.998  0.3622 -1.4894 -1.8466
  225MOL0     H30352  10.937   3.859  10.870 -1.8792 -0.0992 -2.9635
  225MOL0     H30353  10.947   4.002  11.068 -0.2136 -1.4028  0.9841
  225MOL0     H30354  10.779   3.967  11.114 -1.3704 -0.8392 -1.1870
  225MOL0     H30355  10.694   4.136  10.968  0.2800 -1.6262 -0.0798
  225MOL0     H30356  10.843   4.120  10.866  2.2259 -2.4082 -0.2923
  225MOL0     H30357  10.257   3.240  10.485  0.4162 -0.1229 -1.2414
  225MOL0     H30358  10.048   3.228  10.326  0.7601 -0.6985 -0.9145
  225MOL0     H30359   9.731   3.329  10.191  0.3383  1.8791 -0.9587
  225MOL0     H30360   9.525   3.229  10.139 -2.0525 -1.9247 -0.1856
  225MOL0     H30361   8.078   2.225  10.440  1.1483  1.8503 -0.8700
  225MOL0     H30362   7.918   2.199  10.618  0.2767 -1.2543 -1.7069
  225MOL0     H30363   7.889   2.250  11.089 -1.1493 -1.7637 -2.8033
  225MOL0     H30364   7.833   2.275  11.334  2.0593  1.1916 -0.9479
  225MOL0     H30365   7.764   2.014  11.663 -2.2980  4.5446  1.3034
  225MOL0     H30366   7.933   1.963  11.615  1.0346  1.0018 -1.5799
  225MOL0     H30367   8.022   2.167  11.734  1.0592 -0.6078  1.9693
  225MOL0     H30368   7.901   2.088  11.838  0.8714 -0.0693  0.0138
  225MOL0     H30369   7.814   2.314  11.864  0.7314  1.4868 -1.3695
  225MOL0     H30370   7.715   2.239  11.746 -0.7605  2.3458 -0.8081
  225MOL0     H30371   7.821   2.360  11.575 -0.5863 -0.7952 -0.6904
  225MOL0     H30372   7.944   2.421  11.701 -0.5070 -0.0895  0.9569
  225MOL0     H30373   7.601   2.663  11.749 -0.2310 -0.5083  1.8954
  225MOL0     H30374   7.957   1.892  11.423 -2.6120  0.5370  0.6538
  225MOL0     H30375   8.051   1.863  11.192 -2.1796 -3.9155  1.9396
  226MOL0     O30376   8.211  10.739   8.714 -0.0160 -0.0415 -0.2358
  226MOL0     C30377   8.087  10.735   8.706  0.2996  0.6480 -0.3764
  226MOL0     O30378   8.016  10.729   8.593 -0.6946 -0.9956  0.0251
  226MOL0     C30379   8.084  10.717   8.480  0.3474 -0.0884 -0.3894
  226MOL0     C30380   8.123  10.589   8.430  0.3176  0.9604  0.7354
  226MOL0     C30381   8.194  10.572   8.315  0.3988  0.7308 -0.1086
  226MOL0     C30382   8.253  10.679   8.251  0.7383  0.3065  0.8921
  226MOL0     O30383   8.332  10.667   8.136  0.5379 -0.0016 -0.1933
  226MOL0     C30384   8.373  10.537   8.098 -0.8719 -0.6945  0.7602
  226MOL0     C30385   8.430  10.568   7.960 -0.6475 -0.1332  0.2679
  226MOL0     C30386   8.516  10.462   7.902  0.8256  0.8654  0.3858
  226MOL0     C30387   8.558  10.507   7.756 -0.3681 -0.3089  0.4042
  226MOL0     C30388   8.664  10.415   7.695 -0.1233  0.0889 -0.6883
  226MOL0     C30389   8.719  10.448   7.556 -0.2283 -0.8612  0.1584
  226MOL0     C30390   8.861  10.384   7.538 -0.5142 -0.4110 -0.6611
  226MOL0     C30391   8.853  10.234   7.495  0.8153 -0.1474 -0.4011
  226MOL0     N30392   8.798  10.209   7.364  0.4368 -1.0347  0.4368
  226MOL0     C30393   8.860  10.195   7.239  0.5591  0.5689  0.7127
  226MOL0     C30394   8.759  10.152   7.161 -0.2565 -0.5746 -0.4173
  226MOL0     C30395   8.755  10.129   7.016 -0.1330  0.7868  0.7696
  226MOL0     C30396   8.703   9.994   6.963 -0.2283  0.1174  0.2169
  226MOL0     C30397   8.551   9.983   6.969 -0.1238  0.2310 -0.0635
  226MOL0     C30398   8.458  10.088   6.927  0.2531 -0.2033 -0.6576
  226MOL0     O30399   8.503  10.144   6.802 -0.1346 -0.1629  0.0371
  226MOL0     C30400   8.445  10.263   6.759  0.0202  0.4047  1.2642
  226MOL0     C30401   8.322  10.298   6.787  0.7583 -0.8718  0.3517
  226MOL0     C30402   8.275  10.426   6.771  0.6070 -0.0228  0.3655
  226MOL0     C30403   8.145  10.450   6.834 -0.0408 -0.0541 -0.0356
  226MOL0     C30404   8.347  10.530   6.709 -0.0445  0.6470  0.5220
  226MOL0     C30405   8.315  10.669   6.694 -1.3966  0.0745 -0.4240
  226MOL0     O30406   8.176  10.688   6.679 -0.1490 -0.1992  0.3040
  226MOL0     C30407   8.122  10.815   6.682 -0.1104  0.3762  0.2912
  226MOL0     C30408   8.142  10.912   6.778  0.0943  0.0374  0.2537
  226MOL0     C30409   8.082  11.037   6.760 -0.2440 -0.8311 -0.1123
  226MOL0     C30410   8.020  11.071   6.641 -0.3300  0.1229  1.3246
  226MOL0     O30411   7.951  11.189   6.632  0.2238  0.2303 -0.1554
  226MOL0     C30412   7.987  11.280   6.524 -0.3327 -0.8969  0.2373
  226MOL0     C30413   8.124  11.341   6.574 -0.6415 -0.1946 -0.0165
  226MOL0     C30414   8.109  11.450   6.689  0.8103 -0.1960  0.7037
  226MOL0     C30415   8.210  11.566   6.686 -0.0821 -0.7681  0.0626
  226MOL0     C30416   8.227  11.645   6.823 -0.2109 -1.1443  0.7030
  226MOL0     C30417   8.104  11.733   6.841 -0.6707 -0.5928  0.0254
  226MOL0     C30418   8.115  11.813   6.972 -0.1699  0.7457 -0.1231
  226MOL0     C30419   8.083  11.730   7.092 -0.1172  0.5691  0.0435
  226MOL0    Cl30420   8.104  11.821   7.240  0.2595 -0.2454 -0.2374
  226MOL0     C30421   7.997  10.971   6.551 -0.6872  0.0563 -0.3661
  226MOL0     C30422   8.049  10.844   6.569 -0.1995 -0.4489  0.1122
  226MOL0     O30423   8.402  10.750   6.679 -0.5022 -0.3261 -0.2228
  226MOL0     C30424   8.475  10.488   6.674  0.9000  0.2975 -0.1354
  226MOL0     C30425   8.526  10.351   6.689 -0.1407  0.6668  0.0546
  226MOL0     N30426   8.649  10.140   7.239 -0.9520  0.6902 -0.8264
  226MOL0     N30427   8.671  10.171   7.358  0.9622  0.1069 -0.1250
  226MOL0     C30428   8.219  10.806   8.300  0.4706 -1.0040  0.1221
  226MOL0     C30429   8.144  10.823   8.411  0.4453 -0.7094 -0.7497
  226MOL0     C30430   8.021  10.758   8.840  0.3453 -0.8565  0.0554
  226MOL0     C30431   7.884  10.790   8.839  0.4116  0.3468  0.6200
  226MOL0     C30432   7.824  10.812   8.957  0.4684 -0.1832  0.0754
  226MOL0     C30433   7.887  10.794   9.085  0.8277 -0.2320 -0.0118
  226MOL0     O30434   7.809  10.789   9.199  0.1920  0.0615  0.4419
  226MOL0     C30435   7.841  10.817   9.334  0.2830 -0.3448  0.3567
  226MOL0     C30436   7.718  10.829   9.424 -0.1140  0.9054 -0.2340
  226MOL0     C30437   7.623  10.927   9.361  1.5935  0.4920 -0.4139
  226MOL0     C30438   7.504  10.956   9.448 -0.2461 -0.0448 -0.1797
  226MOL0     C30439   7.398  11.023   9.368  0.5510 -0.0931  0.0421
  226MOL0     C30440   7.306  11.075   9.303 -0.3667 -0.3457  0.3238
  226MOL0     C30441   8.025  10.764   9.085  1.1962  0.7543 -0.3962
  226MOL0     C30442   8.090  10.748   8.963  0.3301  0.1859  0.0682
  226MOL0     H30443   8.085  10.497   8.473  1.6393  0.7988  1.6215
  226MOL0     H30444   8.218  10.470   8.285  0.6921  0.4055  1.2002
  226MOL0     H30445   8.440  10.485   8.168 -2.1526 -0.7899  1.9451
  226MOL0     H30446   8.280  10.480   8.084 -0.4890 -1.1787  0.1050
  226MOL0     H30447   8.350  10.589   7.888  0.7116 -0.2000 -1.3470
  226MOL0     H30448   8.488  10.660   7.947  1.2430 -1.4897 -1.7871
  226MOL0     H30449   8.601  10.450   7.970  2.3236 -0.7672 -1.6703
  226MOL0     H30450   8.452  10.373   7.908 -1.6474  2.5768  0.8570
  226MOL0     H30451   8.472  10.508   7.688  1.2759 -0.8076 -1.7793
  226MOL0     H30452   8.586  10.613   7.757 -3.2560  0.5558  0.1084
  226MOL0     H30453   8.749  10.412   7.764 -1.7790  0.4537  1.4738
  226MOL0     H30454   8.622  10.313   7.692 -0.3904  0.0689  1.5208
  226MOL0     H30455   8.650  10.428   7.474 -0.9157  1.1878  0.1913
  226MOL0     H30456   8.724  10.556   7.569  0.3894 -1.0358  1.6253
  226MOL0     H30457   8.919  10.426   7.456 -0.6497  0.8614 -0.1323
  226MOL0     H30458   8.926  10.399   7.624  1.1230  1.5242 -2.1352
  226MOL0     H30459   8.793  10.189   7.574  2.0080  1.0347  1.2547
  226MOL0     H30460   8.950  10.186   7.512 -0.2830 -1.2019  4.0618
  226MOL0     H30461   8.963  10.212   7.207  0.3475 -3.7879 -3.4198
  226MOL0     H30462   8.691  10.206   6.971  3.6485  2.6104 -2.1645
  226MOL0     H30463   8.858  10.142   6.982 -0.5675 -0.0489 -0.9843
  226MOL0     H30464   8.759   9.913   7.011 -0.0550 -1.0798 -1.8760
  226MOL0     H30465   8.727   9.991   6.856 -0.6935  1.9642  0.0283
  226MOL0     H30466   8.532   9.967   7.075  2.7609 -1.6690  0.2787
  226MOL0     H30467   8.535   9.889   6.914 -0.8930  0.2338  0.1460
  226MOL0     H30468   8.458  10.172   6.996  2.3041  2.9935 -4.1712
  226MOL0     H30469   8.355  10.053   6.919 -0.0532 -0.0592  2.0334
  226MOL0     H30470   8.247  10.234   6.832  0.1755  0.0309  0.7060
  226MOL0     H30471   8.075  10.471   6.753 -0.6083  0.6126  0.6105
  226MOL0     H30472   8.103  10.363   6.886 -0.9616 -1.3418 -2.7713
  226MOL0     H30473   8.147  10.527   6.912  0.0479 -0.2516  0.1609
  226MOL0     H30474   8.213  10.893   6.857 -0.6620 -2.0059  0.4973
  226MOL0     H30475   8.086  11.113   6.838  1.8241 -1.4551  0.4555
  226MOL0     H30476   7.989  11.226   6.428  0.6909 -1.0014  0.3154
  226MOL0     H30477   7.908  11.355   6.518  0.8743  0.4190  0.3827
  226MOL0     H30478   8.208  11.272   6.580 -0.9192 -0.4319  1.6800
  226MOL0     H30479   8.151  11.390   6.480  2.8228 -1.7329  0.0371
  226MOL0     H30480   8.099  11.401   6.786 -2.0337  0.2936  0.7417
  226MOL0     H30481   8.017  11.507   6.673  1.0491  0.2260  0.8359
  226MOL0     H30482   8.309  11.536   6.648  0.3182  1.7973 -1.1125
  226MOL0     H30483   8.169  11.644   6.622 -1.5581 -0.7541  0.9944
  226MOL0     H30484   8.300  11.724   6.805 -1.8648  0.1205 -0.8295
  226MOL0     H30485   8.263  11.584   6.907 -1.0918  0.7728  2.5557
  226MOL0     H30486   8.104  11.804   6.758  1.7800  0.6804  1.0105
  226MOL0     H30487   8.012  11.674   6.844  1.2678 -4.0266 -2.3495
  226MOL0     H30488   8.038  11.891   6.977  2.1133  3.1025  0.6505
  226MOL0     H30489   8.215  11.852   6.991  0.1768 -1.4306  3.3754
  226MOL0     H30490   8.155  11.648   7.096 -1.4390 -0.6686 -0.4575
  226MOL0     H30491   7.990  11.672   7.091  1.2258 -2.2473  4.6384
  226MOL0     H30492   7.926  10.986   6.470 -3.3830 -0.5929  1.6973
  226MOL0     H30493   8.039  10.776   6.485  0.7867 -1.7968  1.0574
  226MOL0     H30494   8.543  10.556   6.624 -0.0937  0.5547 -1.1600
  226MOL0     H30495   8.632  10.346   6.666 -0.5777 -1.1887 -1.9306
  226MOL0     H30496   8.260  10.899   8.261 -3.4156  1.5079  1.4530
  226MOL0     H30497   8.126  10.920   8.456  0.0948 -1.5066  0.9228
  226MOL0     H30498   7.832  10.797   8.744  2.1194  2.0719 -0.2621
  226MOL0     H30499   7.720  10.838   8.938  0.7959  1.4086  0.2990
  226MOL0     H30500   7.900  10.734   9.373 -0.0658 -0.2207  1.1752
  226MOL0     H30501   7.905  10.906   9.342 -2.9848  2.0871  1.8168
  226MOL0     H30502   7.733  10.846   9.531 -1.3417 -0.5166  0.2043
  226MOL0     H30503   7.673  10.730   9.420  3.0212 -0.6010 -0.8674
  226MOL0     H30504   7.578  10.874   9.276  1.4988 -3.0779  1.6620
  226MOL0     H30505   7.675  11.022   9.348  3.3295 -0.3241  0.3316
  226MOL0     H30506   7.536  11.014   9.534 -3.1567  0.2126  0.8485
  226MOL0     H30507   7.467  10.860   9.486 -0.1245 -1.3760 -3.1475
  226MOL0     H30508   7.234  11.129   9.245 -1.9066 -0.8535  1.6735
  226MOL0     H30509   8.076  10.748   9.180  1.1257  0.3151 -0.4300
  226MOL0     H30510   8.197  10.738   8.976  0.0004  0.2749  4.8002
  227MOL0     O30511   6.680   8.375   8.365 -1.1639 -0.1196 -0.2001
  227MOL0     C30512   6.616   8.361   8.473  1.0279  0.1306 -0.3341
  227MOL0     O30513   6.661   8.399   8.602  0.1535  0.5228 -0.1614
  227MOL0     C30514   6.792   8.436   8.627 -0.5221  0.5238  0.4644
  227MOL0     C30515   6.880   8.507   8.541  0.7238 -0.4887  0.7532
  227MOL0     C30516   7.001   8.563   8.580 -0.8180  0.1767  0.5249
  227MOL0     C30517   7.050   8.546   8.715  1.6902 -0.5797 -0.6368
  227MOL0     O30518   7.161   8.611   8.764  0.7038 -0.3008  0.0160
  227MOL0     C30519   7.198   8.730   8.691  0.5900 -0.1615 -1.2600
  227MOL0     C30520   7.276   8.803   8.802  0.9007  0.3071 -0.5461
  227MOL0     C30521   7.317   8.944   8.754 -1.6284 -0.0820 -0.6257
  227MOL0     C30522   7.450   8.986   8.816 -0.4350  0.0143  0.3371
  227MOL0     C30523   7.469   9.136   8.804 -0.4772  0.5626 -0.2416
  227MOL0     C30524   7.583   9.199   8.888 -0.4635 -0.3206 -0.0449
  227MOL0     C30525   7.591   9.346   8.856  0.5621 -0.3811  0.1077
  227MOL0     C30526   7.714   9.418   8.882  0.7105 -0.4794 -0.0373
  227MOL0     N30527   7.763   9.395   9.015 -0.3300 -0.3986 -0.5277
  227MOL0     C30528   7.693   9.415   9.128 -0.8411 -0.8732 -0.3006
  227MOL0     C30529   7.773   9.370   9.231  0.6577  0.1248  0.1162
  227MOL0     C30530   7.753   9.371   9.382  1.5192  0.5860  0.0747
  227MOL0     C30531   7.668   9.488   9.445 -0.3482 -0.4465 -0.1677
  227MOL0     C30532   7.529   9.443   9.510  0.1386 -0.4533  0.3511
  227MOL0     C30533   7.430   9.370   9.417  0.2502  0.4689 -0.0462
  227MOL0     O30534   7.394   9.450   9.300  0.2012  0.6594  0.0575
  227MOL0     C30535   7.306   9.404   9.204  0.9996 -0.2948  0.0496
  227MOL0     C30536   7.292   9.480   9.088  1.0996 -0.1821 -0.0350
  227MOL0     C30537   7.198   9.437   8.990  0.1009 -1.3618 -0.6710
  227MOL0     C30538   7.182   9.537   8.878  1.0059  0.7255  0.4760
  227MOL0     C30539   7.136   9.308   8.991 -0.0543  0.3651  0.1990
  227MOL0     C30540   7.070   9.246   8.874  0.2981  0.1304 -0.7647
  227MOL0     O30541   7.021   9.117   8.900 -0.2338  0.1015  0.2483
  227MOL0     C30542   6.911   9.070   8.833 -0.4935 -0.7984 -0.4818
  227MOL0     C30543   6.787   9.065   8.897  0.5957  0.7039  0.0175
  227MOL0     C30544   6.692   8.987   8.847 -0.0575  0.3842 -0.3712
  227MOL0     C30545   6.701   8.935   8.715  0.7379  1.9473 -0.5307
  227MOL0     O30546   6.597   8.862   8.649 -0.1463 -0.3891  0.3338
  227MOL0     C30547   6.472   8.843   8.727  0.4496 -0.5655  0.0750
  227MOL0     C30548   6.405   8.714   8.681  0.7467  0.2615  0.3776
  227MOL0     C30549   6.342   8.709   8.533  0.6678  0.2082 -0.9376
  227MOL0     C30550   6.228   8.608   8.515  0.6058 -0.3897  0.5644
  227MOL0     C30551   6.093   8.678   8.494 -0.0648 -0.1813 -0.0618
  227MOL0     C30552   5.976   8.594   8.547  0.0806  0.3149  0.3328
  227MOL0     C30553   5.831   8.625   8.480 -0.5308  0.1144  0.4921
  227MOL0     C30554   5.783   8.771   8.513  0.6089 -0.0432 -0.7414
  227MOL0    Cl30555   5.605   8.819   8.484  0.2305 -0.0546  0.1575
  227MOL0     C30556   6.818   8.954   8.650  0.0399 -0.5609 -0.2457
  227MOL0     C30557   6.931   9.011   8.707  0.2053  0.0982 -0.4165
  227MOL0     O30558   7.071   9.299   8.762  0.1623  0.1592 -0.4334
  227MOL0     C30559   7.156   9.233   9.108 -1.0456 -0.5649  0.0459
  227MOL0     C30560   7.228   9.289   9.207  0.5380  0.0768 -0.3556
  227MOL0     N30561   7.890   9.320   9.173  0.4588 -0.1093  0.3844
  227MOL0     N30562   7.881   9.333   9.041 -0.7009  0.2544  0.4684
  227MOL0     C30563   6.974   8.465   8.804  0.2814 -0.4913 -0.3460
  227MOL0     C30564   6.851   8.419   8.757  0.1263 -0.3989 -0.0696
  227MOL0     C30565   6.490   8.283   8.472 -0.0013  0.2096  0.2255
  227MOL0     C30566   6.405   8.328   8.573  1.3005  0.1137  0.4194
  227MOL0     C30567   6.276   8.268   8.566 -0.6747  0.9853 -0.9615
  227MOL0     C30568   6.236   8.162   8.482 -1.7239  0.2583 -0.0996
  227MOL0     O30569   6.111   8.118   8.487 -0.0770  0.5264 -0.2892
  227MOL0     C30570   6.051   8.007   8.411 -0.0618 -0.3591  0.1875
  227MOL0     C30571   6.015   8.057   8.274  0.3530 -1.0573  0.1878
  227MOL0     C30572   5.878   8.138   8.274  0.7278  0.3113  0.9119
  227MOL0     C30573   5.860   8.246   8.386 -0.5714  1.1723 -0.5491
  227MOL0     C30574   5.727   8.299   8.378 -0.0278 -1.1290  0.1599
  227MOL0     C30575   5.610   8.324   8.365  1.5998 -0.4818  0.0988
  227MOL0     C30576   6.328   8.126   8.388 -1.1625 -0.3377  0.2481
  227MOL0     C30577   6.455   8.179   8.373  0.9083  0.9802 -1.3382
  227MOL0     H30578   6.859   8.529   8.437 -1.6878 -0.9915  1.0788
  227MOL0     H30579   7.058   8.613   8.502  4.1720 -2.3690  2.1545
  227MOL0     H30580   7.269   8.705   8.612 -0.8673  0.2344 -2.7407
  227MOL0     H30581   7.112   8.788   8.656  1.4262  1.1502 -1.1963
  227MOL0     H30582   7.231   8.818   8.900  5.2446  2.8538  1.3691
  227MOL0     H30583   7.366   8.744   8.822  0.0617 -1.2366 -1.1911
  227MOL0     H30584   7.321   8.936   8.645 -0.5788  2.4741 -0.8365
  227MOL0     H30585   7.238   9.017   8.773  1.9174  3.9571  0.2052
  227MOL0     H30586   7.447   8.966   8.923 -1.2339  0.4600  0.4129
  227MOL0     H30587   7.526   8.928   8.764 -0.0540  0.2286  0.6531
  227MOL0     H30588   7.476   9.168   8.700 -0.3638 -0.5536 -0.5905
  227MOL0     H30589   7.379   9.190   8.833  0.5718  1.2088  2.0871
  227MOL0     H30590   7.570   9.189   8.996 -2.8579  1.4340 -0.0771
  227MOL0     H30591   7.674   9.146   8.857 -0.3592 -0.4680  0.5045
  227MOL0     H30592   7.575   9.351   8.748  2.0118 -1.0464 -0.1710
  227MOL0     H30593   7.519   9.412   8.905  0.4800  0.1267 -0.6790
  227MOL0     H30594   7.711   9.524   8.855  4.0026 -0.2589  0.0740
  227MOL0     H30595   7.792   9.388   8.811  0.0455 -3.2344  0.2848
  227MOL0     H30596   7.598   9.467   9.140  0.9610  2.3332  1.2712
  227MOL0     H30597   7.717   9.277   9.425  1.7823 -0.4366 -1.7981
  227MOL0     H30598   7.854   9.375   9.424  0.7626  0.8548  1.9348
  227MOL0     H30599   7.651   9.560   9.365  1.8159  1.1487  0.7220
  227MOL0     H30600   7.731   9.527   9.526 -0.5545 -0.2251 -0.1141
  227MOL0     H30601   7.478   9.532   9.549  1.4515 -0.7602  2.9033
  227MOL0     H30602   7.536   9.373   9.593 -3.0103 -1.4540 -0.0931
  227MOL0     H30603   7.346   9.344   9.482  0.9102  1.8899  1.4354
  227MOL0     H30604   7.479   9.280   9.376  2.7617  1.6750  0.1071
  227MOL0     H30605   7.346   9.573   9.071  2.1873 -0.8196 -0.1936
  227MOL0     H30606   7.088   9.522   8.825  0.3024  1.0771  1.5870
  227MOL0     H30607   7.184   9.641   8.911  1.5931  1.3174 -1.3145
  227MOL0     H30608   7.270   9.532   8.813  1.9524  0.6003  1.7333
  227MOL0     H30609   6.772   9.113   8.993 -2.6831 -0.6392  0.2936
  227MOL0     H30610   6.608   8.966   8.912  0.3872 -1.5742 -0.3608
  227MOL0     H30611   6.497   8.824   8.832 -1.2271 -3.2191  0.0979
  227MOL0     H30612   6.406   8.930   8.724  0.2555 -0.7203 -0.2311
  227MOL0     H30613   6.464   8.624   8.702  2.8763  1.4533 -0.2128
  227MOL0     H30614   6.315   8.716   8.743  2.3182 -0.2420  2.8130
  227MOL0     H30615   6.418   8.692   8.457 -1.7753  0.4798 -3.6083
  227MOL0     H30616   6.298   8.809   8.519 -1.2461  0.0654  2.8007
  227MOL0     H30617   6.254   8.556   8.422  1.5332  3.6097 -1.6617
  227MOL0     H30618   6.225   8.547   8.606  1.4171 -0.1810  0.7401
  227MOL0     H30619   6.079   8.685   8.386  2.1211  1.0904 -0.3310
  227MOL0     H30620   6.102   8.778   8.539 -0.8747 -0.4501  0.7138
  227MOL0     H30621   6.001   8.490   8.524 -3.7400 -0.5769 -0.6487
  227MOL0     H30622   5.956   8.614   8.653  2.6865 -0.9720  1.1234
  227MOL0     H30623   5.752   8.560   8.520 -2.1687  2.4615  1.2716
  227MOL0     H30624   5.828   8.608   8.372 -2.1209  0.9915  0.3745
  227MOL0     H30625   5.849   8.830   8.448  0.1625  0.6409 -0.5832
  227MOL0     H30626   5.816   8.798   8.614  2.1664  0.2677 -1.3105
  227MOL0     H30627   6.833   8.922   8.547 -1.3396  0.5788 -0.8403
  227MOL0     H30628   7.025   9.020   8.653 -0.7634 -4.4487 -3.4738
  227MOL0     H30629   7.117   9.131   9.113  1.7682 -1.9229 -2.2784
  227MOL0     H30630   7.225   9.228   9.297  1.7689 -1.3895 -1.2397
  227MOL0     H30631   7.008   8.461   8.907  0.1493  1.0828 -0.2297
  227MOL0     H30632   6.787   8.386   8.839 -0.7104  3.8434  1.2279
  227MOL0     H30633   6.422   8.398   8.654  0.1800  1.4286 -0.4383
  227MOL0     H30634   6.208   8.311   8.639  1.3734  0.8968  1.1172
  227MOL0     H30635   6.117   7.920   8.399  0.9383  0.5283 -0.8886
  227MOL0     H30636   5.958   7.987   8.465 -2.5517  0.9751 -3.2859
  227MOL0     H30637   5.992   7.974   8.205 -0.5694 -1.7643  1.2948
  227MOL0     H30638   6.094   8.119   8.232 -0.7966  0.9274  0.8524
  227MOL0     H30639   5.790   8.074   8.284  1.4823 -0.7267  1.0516
  227MOL0     H30640   5.870   8.192   8.179 -0.7507  0.9426  1.3750
  227MOL0     H30641   5.933   8.328   8.383  1.7799 -0.6573  1.3981
  227MOL0     H30642   5.868   8.203   8.487 -1.3728  0.2198 -0.8805
  227MOL0     H30643   5.509   8.350   8.340  2.7457  2.3477 -2.1521
  227MOL0     H30644   6.295   8.054   8.314 -0.1712  0.1908 -0.7317
  227MOL0     H30645   6.522   8.150   8.293 -1.3602 -3.0876 -2.0257
  228MOL0     O30646   2.320   2.213   8.369 -0.3505  0.6408 -0.1982
  228MOL0     C30647   2.215   2.276   8.342 -0.2009  1.2968  0.4528
  228MOL0     O30648   2.142   2.262   8.227  0.1688 -0.5144  0.3512
  228MOL0     C30649   2.177   2.169   8.126  0.6276 -0.4159 -0.4701
  228MOL0     C30650   2.300   2.173   8.061 -1.1859 -0.8547 -1.7624
  228MOL0     C30651   2.329   2.096   7.951  0.2199 -1.0515 -0.4206
  228MOL0     C30652   2.223   2.014   7.904 -0.1592  0.3887 -0.6379
  228MOL0     O30653   2.234   1.934   7.787 -0.7998 -0.1238  0.5131
  228MOL0     C30654   2.352   1.853   7.792 -0.8636  0.6909  0.0748
  228MOL0     C30655   2.317   1.717   7.728 -0.6072  0.5130  0.4704
  228MOL0     C30656   2.422   1.699   7.615 -1.0941  0.9215  0.1163
  228MOL0     C30657   2.415   1.562   7.548  0.8451 -0.1117 -0.0586
  228MOL0     C30658   2.527   1.548   7.455 -0.1468 -0.1318 -0.3983
  228MOL0     C30659   2.530   1.409   7.385 -0.0292  0.3551 -0.6160
  228MOL0     C30660   2.631   1.403   7.268 -1.0121  0.1091  0.6935
  228MOL0     C30661   2.610   1.300   7.160 -0.2556  0.3047 -0.2429
  228MOL0     N30662   2.703   1.294   7.047  0.0435  0.8665 -0.3194
  228MOL0     C30663   2.837   1.322   7.047  1.1150 -0.3631  0.3256
  228MOL0     C30664   2.872   1.343   6.918 -0.3398 -0.9347 -0.0394
  228MOL0     C30665   3.019   1.360   6.872  0.7972 -0.1583 -0.4429
  228MOL0     C30666   3.120   1.255   6.908  0.0843  0.0132 -1.0464
  228MOL0     C30667   3.254   1.278   6.845  0.0116  0.0080 -0.3026
  228MOL0     C30668   3.352   1.171   6.898 -0.1084 -0.6025  0.3759
  228MOL0     O30669   3.332   1.032   6.851 -0.1135  0.3984  0.1677
  228MOL0     C30670   3.441   0.958   6.868  0.3889 -0.5139  0.2509
  228MOL0     C30671   3.506   0.896   6.764 -0.0550 -0.0542  0.6402
  228MOL0     C30672   3.607   0.810   6.791  0.9005 -0.1851 -0.3411
  228MOL0     C30673   3.670   0.740   6.677 -0.4702  0.2654  0.1040
  228MOL0     C30674   3.640   0.775   6.926 -0.8717  0.4904 -0.4637
  228MOL0     C30675   3.739   0.676   6.973  0.3687 -0.7458  0.3684
  228MOL0     O30676   3.738   0.642   7.108 -0.7154 -0.7884  0.9797
  228MOL0     C30677   3.821   0.540   7.154 -0.8078  0.2461  0.8728
  228MOL0     C30678   3.759   0.421   7.210 -0.9100  0.0618  0.9421
  228MOL0     C30679   3.851   0.314   7.235  1.0977 -0.5147 -0.1390
  228MOL0     C30680   3.987   0.321   7.204  0.4225 -1.3283  0.0234
  228MOL0     O30681   4.068   0.216   7.217  0.2897 -0.1809  0.3218
  228MOL0     C30682   4.005   0.092   7.174 -0.3692 -0.1908 -0.1184
  228MOL0     C30683   4.095  -0.008   7.099  0.0047 -0.0171 -0.4474
  228MOL0     C30684   4.022  -0.099   7.009 -0.5297  0.5058  0.1531
  228MOL0     C30685   3.905  -0.178   7.060 -0.1404  1.1927  0.4907
  228MOL0     C30686   3.789  -0.188   6.959 -0.1391  0.2803 -0.9915
  228MOL0     C30687   3.830  -0.277   6.838 -0.0863 -0.1021 -0.5499
  228MOL0     C30688   3.717  -0.252   6.736  0.3803  0.6668 -0.5278
  228MOL0     C30689   3.757  -0.301   6.604 -0.4063  0.1176  0.8059
  228MOL0    Cl30690   3.834  -0.470   6.585  0.1650  0.7135 -0.5484
  228MOL0     C30691   4.042   0.438   7.156  0.2448  0.1278 -0.4042
  228MOL0     C30692   3.960   0.549   7.132 -0.8190  0.2668  0.5840
  228MOL0     O30693   3.814   0.633   6.887  0.0012 -0.1639 -0.1011
  228MOL0     C30694   3.580   0.853   7.031 -0.2959 -0.7121  0.0393
  228MOL0     C30695   3.483   0.945   7.000 -0.0652 -0.0158  0.0890
  228MOL0     N30696   2.756   1.333   6.842  0.0838  0.1469  0.3518
  228MOL0     N30697   2.659   1.313   6.923  0.0593 -0.6277  0.8489
  228MOL0     C30698   2.101   2.020   7.956 -0.0677  0.3384 -0.4262
  228MOL0     C30699   2.078   2.089   8.075 -0.7537  0.1681 -0.6073
  228MOL0     C30700   2.177   2.364   8.448 -0.0936 -0.6885  0.1215
  228MOL0     C30701   2.245   2.366   8.576  0.1085  0.7128  0.4204
  228MOL0     C30702   2.193   2.446   8.677  0.2497 -0.3201 -0.5921
  228MOL0     C30703   2.083   2.533   8.660  0.3524  0.8603  0.1991
  228MOL0     O30704   2.053   2.619   8.763  0.1499  0.3854  0.2888
  228MOL0     C30705   1.922   2.673   8.782 -0.2633  0.6759  0.0440
  228MOL0     C30706   1.906   2.699   8.924  0.7236  0.2542 -1.1618
  228MOL0     C30707   1.855   2.842   8.956  0.5031  0.1662  1.1141
  228MOL0     C30708   1.701   2.855   8.977 -0.2979 -0.3689 -0.8256
  228MOL0     C30709   1.624   2.791   8.864  0.6727 -0.2718  0.3984
  228MOL0     C30710   1.548   2.762   8.776 -0.3974 -0.4807  0.7920
  228MOL0     C30711   2.024   2.533   8.538  0.7676 -0.1447  0.4534
  228MOL0     C30712   2.076   2.460   8.434  0.6765  0.0884  0.0449
  228MOL0     H30713   2.379   2.234   8.104 -1.8745  0.4440 -2.2879
  228MOL0     H30714   2.419   2.100   7.890 -0.3581  3.0314 -1.2900
  228MOL0     H30715   2.433   1.907   7.742 -0.6726 -0.2430 -0.6596
  228MOL0     H30716   2.389   1.837   7.894 -1.2745 -3.3146 -0.2610
  228MOL0     H30717   2.331   1.639   7.803 -0.8542  1.7755  1.8898
  228MOL0     H30718   2.219   1.724   7.680 -0.5925  3.2521  0.6687
  228MOL0     H30719   2.418   1.782   7.544  1.2416  1.8663  0.9619
  228MOL0     H30720   2.514   1.705   7.674  0.8713  1.2634 -2.7727
  228MOL0     H30721   2.412   1.477   7.616 -0.2469 -0.1155 -0.0929
  228MOL0     H30722   2.320   1.550   7.495  1.3016 -3.1473 -0.3776
  228MOL0     H30723   2.513   1.624   7.378  1.3444  0.1634 -0.4046
  228MOL0     H30724   2.622   1.564   7.508 -1.3964  0.2242  1.8579
  228MOL0     H30725   2.560   1.334   7.458 -0.1945  0.8424 -0.0436
  228MOL0     H30726   2.430   1.390   7.345  0.0748 -0.7866 -0.3576
  228MOL0     H30727   2.636   1.498   7.214 -0.1290  1.0154  2.2797
  228MOL0     H30728   2.728   1.376   7.312 -1.3536 -0.0638  1.3429
  228MOL0     H30729   2.513   1.308   7.110 -0.1016 -1.3495 -0.8631
  228MOL0     H30730   2.598   1.203   7.210  4.2593 -1.1986 -1.6464
  228MOL0     H30731   2.908   1.338   7.127 -0.5968  3.1653  1.3654
  228MOL0     H30732   3.030   1.350   6.763  3.2402  0.2690 -0.2793
  228MOL0     H30733   3.047   1.459   6.907 -3.1217  1.0869 -0.3105
  228MOL0     H30734   3.087   1.155   6.878  0.3236  0.0190 -1.3373
  228MOL0     H30735   3.135   1.252   7.016 -0.0044 -0.3155 -1.0430
  228MOL0     H30736   3.296   1.373   6.879 -0.0900  0.7622 -2.1429
  228MOL0     H30737   3.234   1.280   6.737 -0.9487 -2.2902 -0.2189
  228MOL0     H30738   3.348   1.172   7.007  1.4937 -2.9871  0.5281
  228MOL0     H30739   3.450   1.201   6.860 -0.0399 -0.4300  0.6862
  228MOL0     H30740   3.474   0.909   6.661  1.0615  0.1830  0.3004
  228MOL0     H30741   3.776   0.766   6.686 -0.0906 -0.2842 -2.1302
  228MOL0     H30742   3.643   0.634   6.680  0.7599 -0.0330  0.9246
  228MOL0     H30743   3.638   0.775   6.578 -0.3897  4.4890  1.3802
  228MOL0     H30744   3.655   0.400   7.234  0.5691 -3.6215  5.6744
  228MOL0     H30745   3.804   0.224   7.275 -0.0782 -0.2198 -0.8281
  228MOL0     H30746   3.961   0.054   7.267  1.0208 -1.2914  0.1212
  228MOL0     H30747   3.939   0.121   7.092 -0.5635 -2.4744 -0.8517
  228MOL0     H30748   4.186   0.037   7.059 -1.3780  1.9523 -1.5699
  228MOL0     H30749   4.133  -0.072   7.179  1.5926  0.8764 -0.4395
  228MOL0     H30750   4.088  -0.182   6.982 -0.1464  0.4177  1.2959
  228MOL0     H30751   4.000  -0.048   6.915  2.9453 -4.1162 -3.6587
  228MOL0     H30752   3.927  -0.276   7.104  1.7150  1.8113  1.0153
  228MOL0     H30753   3.849  -0.132   7.142 -1.7969 -2.1213  1.3883
  228MOL0     H30754   3.773  -0.083   6.933  0.0166  1.6807  3.6670
  228MOL0     H30755   3.700  -0.230   7.005 -0.0954  1.9474  0.7959
  228MOL0     H30756   3.924  -0.234   6.803  0.9022  0.3480  2.3542
  228MOL0     H30757   3.843  -0.382   6.868  1.2759  0.6601  1.7597
  228MOL0     H30758   3.696  -0.145   6.732 -6.0952 -0.2824 -1.7103
  228MOL0     H30759   3.626  -0.298   6.775  0.4478 -0.5992 -1.7838
  228MOL0     H30760   3.816  -0.219   6.562  2.1617 -0.5590  2.8716
  228MOL0     H30761   3.672  -0.299   6.535 -0.4800 -2.5001  0.7416
  228MOL0     H30762   4.145   0.447   7.122  1.5488  0.4854  3.1643
  228MOL0     H30763   3.991   0.645   7.091 -2.5944  0.1605 -1.1820
  228MOL0     H30764   3.609   0.836   7.134 -1.7034 -3.4547  0.0911
  228MOL0     H30765   3.435   0.990   7.086 -0.3149  0.8553 -0.4868
  228MOL0     H30766   2.034   1.942   7.922 -1.6848  0.0836  2.8732
  228MOL0     H30767   1.986   2.073   8.130  0.9386 -2.8038  1.6566
  228MOL0     H30768   2.322   2.294   8.604 -1.9449 -1.0773  1.7716
  228MOL0     H30769   2.261   2.440   8.761 -0.6621  0.7848  0.2644
  228MOL0     H30770   1.913   2.766   8.724 -1.2579 -0.4817 -1.7583
  228MOL0     H30771   1.848   2.605   8.738 -0.2024 -1.1144  2.5298
  228MOL0     H30772   1.998   2.686   8.981  0.4080 -1.4013 -0.9739
  228MOL0     H30773   1.839   2.627   8.972 -0.9580  2.3469 -0.2002
  228MOL0     H30774   1.887   2.924   8.891  3.0714 -1.9280 -0.4789
  228MOL0     H30775   1.898   2.857   9.055 -1.1737 -0.3860  1.9712
  228MOL0     H30776   1.672   2.960   8.983 -1.0289 -0.5622 -0.8266
  228MOL0     H30777   1.677   2.816   9.076 -0.4978  0.7703 -0.4083
  228MOL0     H30778   1.480   2.730   8.700  0.3485 -1.1496  0.3979
  228MOL0     H30779   1.938   2.596   8.516 -1.1337 -3.1754 -1.5953
  228MOL0     H30780   2.032   2.468   8.336  1.9816 -1.6258 -0.7289
  229MOL0     O30781   4.517   1.826  10.300 -0.3659  0.6016 -0.6839
  229MOL0     C30782   4.441   1.790  10.210 -0.2934  0.6391 -0.8808
  229MOL0     O30783   4.322   1.728  10.226  0.8128 -0.6318 -0.1278
  229MOL0     C30784   4.306   1.649  10.338  0.6405 -0.3733  0.7308
  229MOL0     C30785   4.407   1.565  10.384 -0.9042  0.0654 -0.6081
  229MOL0     C30786   4.382   1.483  10.495  0.3236  0.0045  0.9894
  229MOL0     C30787   4.256   1.474  10.548 -0.7895 -0.8373 -0.0543
  229MOL0     O30788   4.249   1.391  10.658  0.1137  0.2660 -0.5274
  229MOL0     C30789   4.152   1.423  10.752 -0.2807 -0.5960  0.4352
  229MOL0     C30790   4.191   1.342  10.877 -0.3633 -0.3125  0.6725
  229MOL0     C30791   4.078   1.333  10.981 -0.4132  0.7957 -0.4073
  229MOL0     C30792   4.146   1.263  11.107 -0.6858 -1.0486  1.0889
  229MOL0     C30793   4.039   1.260  11.213 -0.3787  0.0493  1.2051
  229MOL0     C30794   3.914   1.177  11.179  0.0499 -0.1531  0.0769
  229MOL0     C30795   3.939   1.024  11.173 -0.0575  0.2621  0.5959
  229MOL0     C30796   3.813   0.940  11.133 -0.5928 -0.2325  1.1019
  229MOL0     N30797   3.691   0.939  11.206  0.2145 -0.3702  0.5560
  229MOL0     C30798   3.674   0.942  11.345 -0.1227  1.6587  1.0620
  229MOL0     C30799   3.543   0.963  11.367  0.2754 -0.3407 -0.0238
  229MOL0     C30800   3.480   0.985  11.510  0.1641  0.0115  0.5092
  229MOL0     C30801   3.525   1.118  11.566 -0.4894 -0.6009  0.3468
  229MOL0     C30802   3.435   1.142  11.692  0.1513  0.2327 -0.0562
  229MOL0     C30803   3.471   1.283  11.734  0.0150 -0.9905  0.5162
  229MOL0     O30804   3.387   1.309  11.848  0.3659  0.0200  0.5363
  229MOL0     C30805   3.404   1.415  11.926 -0.0040 -0.4075  0.1890
  229MOL0     C30806   3.474   1.534  11.889 -0.0960 -0.7360 -0.0493
  229MOL0     C30807   3.471   1.645  11.972  0.2547  0.2391 -0.5417
  229MOL0     C30808   3.540   1.776  11.927  0.3133 -0.4278  0.3266
  229MOL0     C30809   3.407   1.634  12.107  0.1543 -0.8376 -0.0452
  229MOL0     C30810   3.398   1.744  12.211  0.2717  0.4506 -0.8670
  229MOL0     O30811   3.322   1.729  12.326 -0.1375  0.2198  0.8119
  229MOL0     C30812   3.311   1.831  12.421 -0.7633  0.0424  0.4255
  229MOL0     C30813   3.185   1.841  12.473  1.4758  0.1999 -0.1097
  229MOL0     C30814   3.149   1.928  12.570  0.1896 -0.1316  0.4606
  229MOL0     C30815   3.241   2.019  12.622 -0.3959  0.5991  0.1711
  229MOL0     O30816   3.217   2.105  12.724  0.2493  0.1219  0.4377
  229MOL0     C30817   3.097   2.186  12.722  0.4985 -0.6787 -0.5003
  229MOL0     C30818   3.062   2.239  12.868  0.4059 -0.6176  0.0925
  229MOL0     C30819   3.149   2.364  12.905  0.5106  1.0567  0.0838
  229MOL0     C30820   3.101   2.416  13.044  1.0916 -1.0642 -0.1874
  229MOL0     C30821   3.184   2.531  13.102  0.1644  0.1666 -0.4220
  229MOL0     C30822   3.180   2.658  13.016  0.6728 -0.1153  0.2466
  229MOL0     C30823   3.248   2.768  13.098 -0.4101 -0.2598 -0.4962
  229MOL0     C30824   3.212   2.905  13.058 -0.2386 -0.2962  0.2944
  229MOL0    Cl30825   3.279   2.941  12.887  0.1949 -0.2392 -0.0202
  229MOL0     C30826   3.371   2.019  12.565 -0.3356 -0.3024  0.3439
  229MOL0     C30827   3.403   1.921  12.468 -0.5393 -0.1077 -0.5505
  229MOL0     O30828   3.462   1.842  12.184  0.6650 -0.0265  0.1612
  229MOL0     C30829   3.340   1.514  12.134  0.1414  1.0970 -0.0091
  229MOL0     C30830   3.344   1.405  12.044 -0.5486  0.1470 -0.1422
  229MOL0     N30831   3.473   0.948  11.243 -0.4965  0.1072 -0.2714
  229MOL0     N30832   3.565   0.940  11.153  0.3172  0.1734 -0.3689
  229MOL0     C30833   4.155   1.542  10.490  0.3142  0.4376 -0.0037
  229MOL0     C30834   4.174   1.639  10.387 -0.9837 -0.4038 -0.0877
  229MOL0     C30835   4.462   1.860  10.090  0.5296 -0.9911 -0.6116
  229MOL0     C30836   4.351   1.873  10.005 -0.6754  0.5027  0.3915
  229MOL0     C30837   4.366   1.916   9.876 -0.0884  0.4070 -0.3916
  229MOL0     C30838   4.490   1.963   9.830  0.4979 -0.2032 -0.3671
  229MOL0     O30839   4.512   2.022   9.709 -0.2080  0.1908 -0.3666
  229MOL0     C30840   4.403   2.021   9.615  0.6162 -0.1348 -0.5675
  229MOL0     C30841   4.317   2.148   9.652 -0.2534 -0.5085  0.0835
  229MOL0     C30842   4.383   2.287   9.635  0.4299 -0.8756 -0.3185
  229MOL0     C30843   4.280   2.395   9.696 -1.0142  0.0107 -0.2704
  229MOL0     C30844   4.141   2.367   9.674  0.1167  0.2542  0.5953
  229MOL0     C30845   4.022   2.328   9.667 -0.3661  0.3343  0.7091
  229MOL0     C30846   4.598   1.966   9.925  0.7968  0.3398  1.2863
  229MOL0     C30847   4.586   1.918  10.054  0.5300 -0.6348  0.3134
  229MOL0     H30848   4.503   1.552  10.334 -0.1542 -2.3685  1.2589
  229MOL0     H30849   4.460   1.421  10.538 -1.4699 -1.9945  1.5123
  229MOL0     H30850   4.122   1.526  10.774  0.3954  0.0815 -1.5192
  229MOL0     H30851   4.064   1.370  10.715 -0.6699  0.5120 -0.2743
  229MOL0     H30852   4.217   1.239  10.852  0.2251  0.1075 -0.4806
  229MOL0     H30853   4.278   1.392  10.921  2.0805 -2.2408 -1.7087
  229MOL0     H30854   4.047   1.435  11.003 -0.2572  0.5299  1.1416
  229MOL0     H30855   4.000   1.269  10.938 -1.4707  1.3382  0.6597
  229MOL0     H30856   4.177   1.161  11.086 -2.5742 -1.5213  0.3997
  229MOL0     H30857   4.231   1.321  11.144  0.4309 -1.3740 -0.8651
  229MOL0     H30858   4.095   1.235  11.303  1.9814  2.3673  0.5114
  229MOL0     H30859   4.004   1.363  11.225  0.9354  0.9320 -1.6452
  229MOL0     H30860   3.843   1.189  11.261  1.3453  0.4168  1.1582
  229MOL0     H30861   3.868   1.216  11.088  0.9969 -0.6088 -0.6193
  229MOL0     H30862   4.020   0.997  11.104  1.2761 -0.4189  2.3471
  229MOL0     H30863   3.969   0.998  11.275 -0.0716 -0.1308  0.5000
  229MOL0     H30864   3.846   0.836  11.134 -0.7772 -0.3008  2.1273
  229MOL0     H30865   3.787   0.955  11.028  0.8034  1.6262  0.9657
  229MOL0     H30866   3.749   0.920  11.420  1.6546 -4.6050 -1.8950
  229MOL0     H30867   3.372   0.984  11.492  0.0037  4.2424  0.4162
  229MOL0     H30868   3.513   0.910  11.582  2.4391  2.1006  1.7798
  229MOL0     H30869   3.513   1.196  11.491  0.6706 -0.1622  0.5864
  229MOL0     H30870   3.633   1.111  11.586  0.9848  2.1513 -4.7881
  229MOL0     H30871   3.458   1.080  11.779  0.8164  2.3589  1.3577
  229MOL0     H30872   3.327   1.137  11.673 -0.4266  0.6745  2.6477
  229MOL0     H30873   3.455   1.361  11.659  3.0227 -2.3686 -1.7912
  229MOL0     H30874   3.574   1.304  11.766  1.0389 -0.0710 -2.9575
  229MOL0     H30875   3.528   1.558  11.798  2.8305 -2.8589  0.9646
  229MOL0     H30876   3.466   1.856  11.941 -0.9411 -1.7020  1.3091
  229MOL0     H30877   3.627   1.801  11.987  0.0686  0.3270  0.3755
  229MOL0     H30878   3.555   1.769  11.819  0.0189  0.2538  0.2369
  229MOL0     H30879   3.109   1.773  12.436  0.0881  0.5828  1.8484
  229MOL0     H30880   3.050   1.921  12.613 -0.9565  0.3862 -1.9325
  229MOL0     H30881   3.114   2.271  12.656 -0.6182  1.2875  1.6274
  229MOL0     H30882   3.008   2.129  12.691 -0.7620 -0.1275  1.8739
  229MOL0     H30883   2.956   2.268  12.866  0.6601  0.3089 -0.5453
  229MOL0     H30884   3.077   2.167  12.949  0.5078 -0.8380 -0.1217
  229MOL0     H30885   3.137   2.439  12.826 -0.9148  2.4788  1.5819
  229MOL0     H30886   3.249   2.326  12.925  0.8768  0.9266 -1.7913
  229MOL0     H30887   3.000   2.457  13.047  1.2610 -0.6903  1.3454
  229MOL0     H30888   3.098   2.331  13.113  0.2183 -1.7534 -1.0408
  229MOL0     H30889   3.285   2.496  13.126  0.0928  0.6435  0.6113
  229MOL0     H30890   3.144   2.554  13.201  0.4961  0.8814 -0.4494
  229MOL0     H30891   3.225   2.635  12.919 -1.9022  1.0183 -1.3116
  229MOL0     H30892   3.077   2.688  12.994  1.2162  0.6962 -1.3015
  229MOL0     H30893   3.357   2.752  13.098 -0.0356  1.8459  1.0892
  229MOL0     H30894   3.230   2.776  13.205 -0.7534  1.3342 -0.6545
  229MOL0     H30895   3.265   2.979  13.119 -0.5933 -0.1111  0.3840
  229MOL0     H30896   3.106   2.931  13.052 -0.1539  0.7173  2.3885
  229MOL0     H30897   3.458   2.079  12.590  4.3863 -5.8851 -0.4729
  229MOL0     H30898   3.503   1.925  12.424  0.1493  1.5719  1.0461
  229MOL0     H30899   3.281   1.502  12.224 -0.8508  0.0223 -0.7713
  229MOL0     H30900   3.290   1.315  12.069  2.6546 -2.0519 -0.6445
  229MOL0     H30901   4.062   1.518  10.541  0.6884 -3.3739 -0.8352
  229MOL0     H30902   4.098   1.701  10.341 -1.6827 -2.7524 -2.3371
  229MOL0     H30903   4.252   1.839  10.032 -0.6170  0.3203  0.3788
  229MOL0     H30904   4.282   1.914   9.806  1.8074 -0.7306 -2.8132
  229MOL0     H30905   4.423   2.045   9.510 -1.0525 -0.7507 -1.0612
  229MOL0     H30906   4.356   1.923   9.615  0.0540  0.0125  2.7235
  229MOL0     H30907   4.282   2.144   9.756  0.9677 -0.9712  0.4982
  229MOL0     H30908   4.232   2.141   9.583  0.7448  1.0383 -1.3812
  229MOL0     H30909   4.394   2.318   9.530  0.2345  1.1085  0.2080
  229MOL0     H30910   4.481   2.285   9.682  0.5226  2.1529 -0.1831
  229MOL0     H30911   4.302   2.495   9.656  2.7913  0.3160  2.1055
  229MOL0     H30912   4.295   2.397   9.804  2.9026 -4.5110 -0.3940
  229MOL0     H30913   3.919   2.301   9.666 -0.7741  1.7696 -0.8818
  229MOL0     H30914   4.689   2.023   9.910  0.0259  1.2893  0.1506
  229MOL0     H30915   4.666   1.921  10.127  3.3577 -0.6966 -2.5981
  230MOL0     O30916   0.241   5.555   3.592 -0.4966 -0.5428  0.3940
  230MOL0     C30917   0.354   5.507   3.581 -0.5256  0.1312  1.4175
  230MOL0     O30918   0.436   5.511   3.466 -0.4790  0.7648 -1.1246
  230MOL0     C30919   0.385   5.576   3.349  0.0194  0.1846  0.3692
  230MOL0     C30920   0.468   5.667   3.285  0.0927 -0.3329 -1.3579
  230MOL0     C30921   0.422   5.728   3.170  0.0251 -0.5471  0.0389
  230MOL0     C30922   0.293   5.723   3.123  0.8772  1.0178 -0.5843
  230MOL0     O30923   0.243   5.797   3.020 -0.6064  0.5474 -1.0131
  230MOL0     C30924   0.341   5.855   2.930  0.0113  0.0755  0.7701
  230MOL0     C30925   0.271   5.960   2.846 -0.2329 -0.0049  0.0432
  230MOL0     C30926   0.350   6.007   2.722  0.9208  0.3367  0.1191
  230MOL0     C30927   0.371   5.898   2.613  0.2515 -0.0302  0.6913
  230MOL0     C30928   0.242   5.880   2.531  0.3258  0.5810  0.1162
  230MOL0     C30929   0.267   5.811   2.388 -0.6321  0.3854 -0.3111
  230MOL0     C30930   0.370   5.694   2.380  0.1531 -0.4251  0.2367
  230MOL0     C30931   0.329   5.566   2.445  0.5375  0.1793  0.3974
  230MOL0     N30932   0.436   5.489   2.504 -0.2157 -0.2103 -0.1502
  230MOL0     C30933   0.572   5.497   2.476  0.5643  0.0582 -0.1040
  230MOL0     C30934   0.632   5.407   2.557 -0.1150 -0.5978 -0.7076
  230MOL0     C30935   0.786   5.399   2.558  0.3154  0.3925  0.2695
  230MOL0     C30936   0.854   5.543   2.542 -0.0014 -0.2524 -0.2053
  230MOL0     C30937   0.999   5.530   2.544  0.1609  0.2185  0.2788
  230MOL0     C30938   1.062   5.670   2.537 -1.2224 -0.1823  0.0158
  230MOL0     O30939   1.192   5.666   2.481 -0.8064  0.3290  0.3539
  230MOL0     C30940   1.297   5.616   2.557  0.7656  0.6139  0.4974
  230MOL0     C30941   1.419   5.616   2.504 -1.2402  0.3924 -0.4373
  230MOL0     C30942   1.526   5.540   2.551 -0.3278  0.2369 -0.2304
  230MOL0     C30943   1.653   5.545   2.467  0.4698  0.2691 -0.1477
  230MOL0     C30944   1.513   5.473   2.675  0.3904  0.4469 -0.0556
  230MOL0     C30945   1.619   5.382   2.737  0.2788 -0.2179  0.1616
  230MOL0     O30946   1.682   5.302   2.645  0.8189 -0.4005 -0.2713
  230MOL0     C30947   1.765   5.192   2.675 -0.0532 -0.3016 -0.1359
  230MOL0     C30948   1.753   5.091   2.776  0.1875 -0.9015  0.3644
  230MOL0     C30949   1.849   4.990   2.794  0.8843  0.2254  0.6250
  230MOL0     C30950   1.960   4.982   2.709  0.4673  0.5167  0.0437
  230MOL0     O30951   2.063   4.887   2.726  0.2459  0.8342  0.2827
  230MOL0     C30952   2.076   4.825   2.860 -1.2326 -0.3499  0.4308
  230MOL0     C30953   2.221   4.802   2.900 -1.1237 -0.7124  0.0316
  230MOL0     C30954   2.262   4.933   2.972  0.7248 -1.0863 -0.5287
  230MOL0     C30955   2.387   4.926   3.052  0.9659 -0.3714  0.0870
  230MOL0     C30956   2.504   4.867   2.969  1.2056 -0.3997 -0.0885
  230MOL0     C30957   2.548   4.939   2.851  0.5154 -1.0614  0.1783
  230MOL0     C30958   2.651   4.868   2.760  0.2399 -0.8217  0.3227
  230MOL0     C30959   2.773   4.817   2.830  0.3487  0.6533 -0.0662
  230MOL0    Cl30960   2.930   4.794   2.730 -0.3074 -0.6298 -0.1585
  230MOL0     C30961   1.970   5.080   2.605 -0.7792 -0.0915 -0.7516
  230MOL0     C30962   1.878   5.178   2.592 -0.3391  0.8398 -0.3563
  230MOL0     O30963   1.639   5.383   2.860  0.1756 -0.4820  0.8047
  230MOL0     C30964   1.395   5.500   2.750  0.5888  0.7878 -0.7657
  230MOL0     C30965   1.282   5.567   2.689 -0.3808  0.6341  0.6549
  230MOL0     N30966   0.532   5.343   2.636  0.6659 -0.5748  0.0735
  230MOL0     N30967   0.423   5.397   2.599  0.0829 -0.2696  0.3819
  230MOL0     C30968   0.204   5.641   3.195 -0.5842  0.2526  0.4031
  230MOL0     C30969   0.255   5.562   3.303  1.4020  0.4630  0.1478
  230MOL0     C30970   0.406   5.421   3.691  0.5028  0.6624  1.8080
  230MOL0     C30971   0.538   5.364   3.686 -0.5479 -0.0782 -0.1260
  230MOL0     C30972   0.575   5.285   3.793  0.2469 -0.1159 -0.2449
  230MOL0     C30973   0.488   5.260   3.901 -1.1116  0.5460  0.0954
  230MOL0     O30974   0.541   5.175   3.996 -0.1101  0.1076  0.3030
  230MOL0     C30975   0.473   5.045   4.017 -0.3561  0.0095 -0.3303
  230MOL0     C30976   0.411   5.032   4.164 -0.0647 -0.2598 -1.4990
  230MOL0     C30977   0.442   5.149   4.267 -0.2426 -0.0433 -0.2649
  230MOL0     C30978   0.585   5.157   4.317 -0.2830 -0.3588 -0.1309
  230MOL0     C30979   0.659   5.036   4.361 -0.2295 -0.4368  1.2486
  230MOL0     C30980   0.728   4.937   4.381  0.7627  0.0644 -0.4630
  230MOL0     C30981   0.367   5.311   3.898  0.1176 -0.4786 -0.4151
  230MOL0     C30982   0.329   5.394   3.795 -0.5974  0.0634  0.0099
  230MOL0     H30983   0.566   5.675   3.331 -0.3335  0.3169 -0.5242
  230MOL0     H30984   0.488   5.796   3.117 -0.3557 -2.7674 -3.6136
  230MOL0     H30985   0.415   5.919   2.981 -0.3348  2.3314 -1.3683
  230MOL0     H30986   0.377   5.772   2.870 -2.4309  0.2690 -1.1137
  230MOL0     H30987   0.172   5.920   2.824 -1.7251  3.6108 -0.5714
  230MOL0     H30988   0.260   6.052   2.904  3.4657 -0.9823  2.6260
  230MOL0     H30989   0.297   6.090   2.674 -0.5841 -0.5506  0.1542
  230MOL0     H30990   0.444   6.056   2.748 -0.1979  3.4344 -1.1595
  230MOL0     H30991   0.458   5.922   2.551  0.6327  2.4929  2.0571
  230MOL0     H30992   0.399   5.801   2.655  2.5849 -0.0625 -0.7992
  230MOL0     H30993   0.177   5.812   2.586  1.7855 -0.8887  0.0991
  230MOL0     H30994   0.193   5.977   2.517 -2.1895 -0.4528  1.1485
  230MOL0     H30995   0.172   5.780   2.345 -0.7515 -0.0185  0.2304
  230MOL0     H30996   0.298   5.891   2.321 -1.0744  0.9064  0.0945
  230MOL0     H30997   0.387   5.669   2.275  1.1847  3.3644 -0.6384
  230MOL0     H30998   0.463   5.730   2.425 -0.0320  0.3012  0.0470
  230MOL0     H30999   0.269   5.504   2.378  2.0260  0.0383 -0.8892
  230MOL0     H31000   0.263   5.589   2.528 -0.6799 -0.4215 -0.3822
  230MOL0     H31001   0.622   5.548   2.394  1.7997 -1.7285 -0.5026
  230MOL0     H31002   0.819   5.346   2.648 -1.5429 -0.1700  0.6676
  230MOL0     H31003   0.828   5.343   2.475  2.4134  2.6523 -0.3249
  230MOL0     H31004   0.820   5.602   2.627 -0.6509 -1.6790  0.5472
  230MOL0     H31005   0.822   5.590   2.448 -1.4487  0.5911  0.6609
  230MOL0     H31006   1.018   5.475   2.451 -1.1346 -2.6712  1.5897
  230MOL0     H31007   1.052   5.477   2.624  0.7990  0.3159 -0.0708
  230MOL0     H31008   1.066   5.709   2.640 -1.5923  0.9614 -0.3897
  230MOL0     H31009   1.006   5.741   2.476  2.7328  0.2715 -3.5310
  230MOL0     H31010   1.436   5.675   2.415  2.8251  0.6153  0.2771
  230MOL0     H31011   1.655   5.619   2.387 -2.1866 -0.7552 -1.2785
  230MOL0     H31012   1.725   5.562   2.547 -2.3126 -0.2660  2.6534
  230MOL0     H31013   1.674   5.446   2.424  0.7198 -0.8328  2.3164
  230MOL0     H31014   1.665   5.105   2.838  0.2115  3.2519 -0.2518
  230MOL0     H31015   1.831   4.912   2.867 -0.4046  1.3993  1.6285
  230MOL0     H31016   2.026   4.882   2.939 -0.7238  0.4088  0.2139
  230MOL0     H31017   2.022   4.731   2.844  4.3791 -3.5388 -4.0703
  230MOL0     H31018   2.227   4.718   2.971  0.3576 -3.0623 -2.6874
  230MOL0     H31019   2.278   4.774   2.812 -1.2096  0.5624 -0.4433
  230MOL0     H31020   2.181   4.982   3.026  0.7528  1.0496 -2.2789
  230MOL0     H31021   2.285   5.004   2.892  2.1066  0.4219  1.1263
  230MOL0     H31022   2.429   5.020   3.088  1.0806 -1.5603  3.3414
  230MOL0     H31023   2.355   4.874   3.142 -0.1015  0.6279  0.3131
  230MOL0     H31024   2.488   4.762   2.942  3.2895 -0.5249 -1.0609
  230MOL0     H31025   2.595   4.864   3.030  1.0276  1.6282  0.3313
  230MOL0     H31026   2.465   4.970   2.787 -0.1414 -1.3680  0.8679
  230MOL0     H31027   2.589   5.028   2.899  1.8731 -1.1782 -0.6875
  230MOL0     H31028   2.680   4.940   2.683  0.2283 -1.5901 -0.4160
  230MOL0     H31029   2.618   4.785   2.697  2.4008 -0.5419 -1.3099
  230MOL0     H31030   2.737   4.733   2.891  0.1247 -0.3473 -1.5424
  230MOL0     H31031   2.803   4.896   2.900  0.3349 -0.2036  0.9355
  230MOL0     H31032   2.039   5.074   2.522  1.7362 -2.4151  1.3145
  230MOL0     H31033   1.897   5.242   2.506 -2.0828  0.4049 -1.1269
  230MOL0     H31034   1.385   5.451   2.847 -2.1953  0.1408 -1.2975
  230MOL0     H31035   1.188   5.565   2.744 -0.2508 -2.9153  0.9497
  230MOL0     H31036   0.103   5.623   3.160  0.4001 -0.6397 -2.2457
  230MOL0     H31037   0.184   5.492   3.347  1.1287 -1.3823 -2.9485
  230MOL0     H31038   0.599   5.364   3.596 -3.4930  0.1901 -2.2523
  230MOL0     H31039   0.678   5.255   3.806  0.0786 -1.5932 -1.9239
  230MOL0     H31040   0.385   5.029   3.954 -2.4263  2.7014  1.6090
  230MOL0     H31041   0.547   4.968   3.994  0.7472  0.8906  0.1690
  230MOL0     H31042   0.443   4.938   4.210  1.0148  0.6050 -0.4279
  230MOL0     H31043   0.304   5.026   4.143 -0.4411  1.4179 -0.2147
  230MOL0     H31044   0.371   5.140   4.350  0.3615  0.6404  0.3343
  230MOL0     H31045   0.432   5.247   4.219  0.2416  0.7716  1.2376
  230MOL0     H31046   0.615   5.234   4.389  2.5554  1.1174 -2.6693
  230MOL0     H31047   0.639   5.186   4.227  0.8592  0.2422  0.7204
  230MOL0     H31048   0.768   4.838   4.394  0.1859 -0.3565 -1.7256
  230MOL0     H31049   0.293   5.299   3.976  0.8025  2.6226  0.8580
  230MOL0     H31050   0.224   5.422   3.798 -0.9744 -1.3340  0.5581
  231MOL0     O31051   5.153  11.271   2.893  0.1499 -0.9111 -1.0013
  231MOL0     C31052   5.101  11.260   3.002 -0.2652  0.6911  0.8619
  231MOL0     O31053   5.128  11.170   3.101 -0.6606 -0.0424 -0.3646
  231MOL0     C31054   5.239  11.086   3.107  1.1553 -0.1152  0.1866
  231MOL0     C31055   5.360  11.117   3.045  0.6020 -0.4111 -0.0656
  231MOL0     C31056   5.477  11.049   3.061 -1.1988  0.5015 -0.4095
  231MOL0     C31057   5.471  10.933   3.143 -1.3854  0.6600  0.7720
  231MOL0     O31058   5.587  10.863   3.160 -0.1149 -0.0012 -0.3533
  231MOL0     C31059   5.575  10.742   3.232  0.5044  0.9924 -0.2828
  231MOL0     C31060   5.713  10.673   3.211  0.1379  0.3463  0.4636
  231MOL0     C31061   5.725  10.630   3.064 -0.4624  0.2319 -0.6632
  231MOL0     C31062   5.837  10.535   3.043  0.1018 -0.0134 -0.6783
  231MOL0     C31063   5.853  10.478   2.900 -0.5919 -0.7820 -0.2084
  231MOL0     C31064   5.875  10.599   2.806 -0.0018 -0.2352  0.5034
  231MOL0     C31065   5.935  10.564   2.666 -0.1193  0.9120 -0.5957
  231MOL0     C31066   5.857  10.491   2.571  0.2244 -0.2617  0.0221
  231MOL0     N31067   5.926  10.473   2.440 -0.1355  0.1648  0.0307
  231MOL0     C31068   5.862  10.434   2.319  0.0703  0.1093 -0.8405
  231MOL0     C31069   5.958  10.396   2.237  0.1014 -0.0862 -0.1908
  231MOL0     C31070   5.929  10.338   2.098  0.2224 -0.3493 -0.3634
  231MOL0     C31071   6.051  10.322   1.998  0.7950 -0.3774 -0.0975
  231MOL0     C31072   6.002  10.269   1.866  0.1696 -0.1268  1.8006
  231MOL0     C31073   6.112  10.248   1.757 -0.2598  1.6854  0.2179
  231MOL0     O31074   6.065  10.181   1.637  0.6559 -0.2713 -0.1076
  231MOL0     C31075   5.993  10.260   1.553 -1.2765  0.5244  0.2464
  231MOL0     C31076   6.059  10.356   1.474  0.3961 -0.4924  1.2205
  231MOL0     C31077   5.986  10.421   1.368  0.2448  0.4121  1.0414
  231MOL0     C31078   6.075  10.522   1.295  0.2531 -0.1338  0.8139
  231MOL0     C31079   5.846  10.413   1.359  0.7097 -1.0824 -0.5092
  231MOL0     C31080   5.755  10.516   1.294  0.1440  0.2405  0.6435
  231MOL0     O31081   5.800  10.557   1.168 -0.3291 -0.4314  0.5007
  231MOL0     C31082   5.736  10.661   1.107  0.6343  0.6151  0.7698
  231MOL0     C31083   5.689  10.642   0.971 -0.2123  0.6076 -0.2163
  231MOL0     C31084   5.631  10.747   0.903  1.0900 -1.0178  0.3103
  231MOL0     C31085   5.624  10.877   0.960  0.4671 -0.6005 -0.8332
  231MOL0     O31086   5.551  10.982   0.912 -0.3040  0.1796 -0.1469
  231MOL0     C31087   5.465  10.954   0.801  0.7642 -0.6308 -0.7375
  231MOL0     C31088   5.393  11.087   0.757 -0.4090 -0.3691  0.2621
  231MOL0     C31089   5.465  11.165   0.637 -0.8017  0.8072 -1.5700
  231MOL0     C31090   5.601  11.222   0.665 -0.2039  0.6882 -0.8564
  231MOL0     C31091   5.671  11.261   0.533 -0.1130 -0.4474 -0.8942
  231MOL0     C31092   5.828  11.220   0.535  0.4653  0.7287  0.9486
  231MOL0     C31093   5.895  11.213   0.392 -0.3889 -0.2571  0.7438
  231MOL0     C31094   6.001  11.322   0.366 -0.3408  0.3429  1.3958
  231MOL0    Cl31095   6.140  11.280   0.457  0.2579  0.0384 -0.0119
  231MOL0     C31096   5.678  10.895   1.082  0.0854 -0.5042 -0.2054
  231MOL0     C31097   5.736  10.791   1.157  0.2787  0.0673  0.8263
  231MOL0     O31098   5.650  10.553   1.351  0.3591  1.3571 -0.2266
  231MOL0     C31099   5.787  10.316   1.444  0.4485 -1.1238 -0.5642
  231MOL0     C31100   5.856  10.249   1.540  0.5816  0.2803  0.6454
  231MOL0     N31101   6.077  10.439   2.287 -0.1944 -0.2818  0.7934
  231MOL0     N31102   6.054  10.486   2.405 -0.8097 -0.3828 -0.8725
  231MOL0     C31103   5.353  10.896   3.208  0.7463 -0.7610  0.1400
  231MOL0     C31104   5.235  10.976   3.191  0.7132  0.5973 -1.0650
  231MOL0     C31105   4.985  11.345   3.014  0.4882 -0.7349 -0.2507
  231MOL0     C31106   4.862  11.310   3.074  0.2966  0.2180 -0.1260
  231MOL0     C31107   4.753  11.392   3.083  0.4869  0.3677 -0.9688
  231MOL0     C31108   4.763  11.520   3.038  0.8757  0.2790  0.2040
  231MOL0     O31109   4.648  11.587   3.077  0.5398 -0.3019  1.1851
  231MOL0     C31110   4.641  11.733   3.060 -1.2417  0.1666 -0.0460
  231MOL0     C31111   4.674  11.817   3.184  0.2571  0.6430 -0.3599
  231MOL0     C31112   4.567  11.790   3.291 -0.6499 -1.4664 -0.0045
  231MOL0     C31113   4.616  11.831   3.437 -0.1839  0.2214 -0.0734
  231MOL0     C31114   4.682  11.960   3.443 -0.1345 -0.4477  0.1503
  231MOL0     C31115   4.742  12.068   3.451  0.2165  0.8402 -0.6377
  231MOL0     C31116   4.868  11.554   2.951 -1.0245  0.0010 -0.3124
  231MOL0     C31117   4.975  11.465   2.944  0.1233 -0.3184  0.5746
  231MOL0     H31118   5.359  11.201   2.977 -2.7911 -0.3883 -0.1457
  231MOL0     H31119   5.568  11.072   3.007 -0.6028  0.6477  0.6422
  231MOL0     H31120   5.571  10.759   3.340 -0.9190 -2.7749  0.3960
  231MOL0     H31121   5.490  10.683   3.197 -0.7995  2.8787 -0.4533
  231MOL0     H31122   5.793  10.745   3.230 -0.8029  2.3385 -2.4817
  231MOL0     H31123   5.722  10.589   3.280  4.0021  1.9951  2.2791
  231MOL0     H31124   5.630  10.580   3.044 -1.6950  1.9914  0.4984
  231MOL0     H31125   5.737  10.720   3.003  2.6223  1.0409  0.9040
  231MOL0     H31126   5.932  10.579   3.074  0.1954 -2.4662  3.1742
  231MOL0     H31127   5.831  10.449   3.110  0.2563  1.7315  1.6943
  231MOL0     H31128   5.946  10.421   2.894 -1.4261 -2.1099 -1.0841
  231MOL0     H31129   5.758  10.428   2.876  0.5769 -2.5673 -1.3521
  231MOL0     H31130   5.772  10.632   2.792 -0.2954 -0.8568  1.1448
  231MOL0     H31131   5.925  10.679   2.862  0.1978 -0.8946  1.2929
  231MOL0     H31132   5.958  10.662   2.621  0.9819  0.5178 -0.9363
  231MOL0     H31133   6.031  10.514   2.678  0.1359  0.8767 -2.4564
  231MOL0     H31134   5.774  10.558   2.552 -0.5404 -0.0094  3.4860
  231MOL0     H31135   5.826  10.390   2.601 -0.9790  0.9684  3.4574
  231MOL0     H31136   5.762  10.395   2.302 -1.2192  2.4780  0.6820
  231MOL0     H31137   5.891  10.237   2.117 -0.2740  0.2800  2.4996
  231MOL0     H31138   5.844  10.391   2.053 -0.5713 -1.6623 -0.4435
  231MOL0     H31139   6.126  10.254   2.041 -1.3090 -2.1847  0.9602
  231MOL0     H31140   6.096  10.419   1.979  3.3629 -1.8707 -2.3403
  231MOL0     H31141   5.931  10.340   1.823  0.6980 -1.4384 -1.5195
  231MOL0     H31142   5.951  10.172   1.871  1.0825 -0.7527 -0.0894
  231MOL0     H31143   6.192  10.188   1.803  0.1097  2.7497  1.0058
  231MOL0     H31144   6.163  10.339   1.723  2.8905  1.0101  2.6809
  231MOL0     H31145   6.164  10.375   1.494  1.3520 -1.4466 -2.2010
  231MOL0     H31146   6.095  10.479   1.196  2.0429  0.3057  0.9526
  231MOL0     H31147   6.028  10.618   1.272 -0.0182 -0.3429  0.4817
  231MOL0     H31148   6.168  10.547   1.348  1.7530  2.2405 -2.5891
  231MOL0     H31149   5.687  10.545   0.922  1.7071 -0.5261  1.7337
  231MOL0     H31150   5.580  10.708   0.816 -0.1809  0.4625  0.3604
  231MOL0     H31151   5.514  10.907   0.715  2.4792  0.0069 -0.1486
  231MOL0     H31152   5.394  10.882   0.842 -0.5400  0.6359 -0.6952
  231MOL0     H31153   5.292  11.058   0.728 -0.2530  0.2316 -0.9451
  231MOL0     H31154   5.403  11.154   0.843  3.2160 -1.0783  0.5727
  231MOL0     H31155   5.387  11.234   0.604  0.4612  2.5719 -0.9970
  231MOL0     H31156   5.475  11.089   0.559  0.4555  1.0018 -1.6117
  231MOL0     H31157   5.594  11.308   0.733 -1.0184  0.7944 -1.0608
  231MOL0     H31158   5.659  11.145   0.716 -1.2959 -0.1254 -0.8111
  231MOL0     H31159   5.659  11.369   0.523 -1.6078 -0.1770  2.4469
  231MOL0     H31160   5.621  11.215   0.447 -3.0085  2.2445 -0.8396
  231MOL0     H31161   5.878  11.297   0.594  2.5855  0.2893 -0.1424
  231MOL0     H31162   5.834  11.120   0.580 -2.2650  0.8667  1.7813
  231MOL0     H31163   5.818  11.217   0.314  1.5135 -0.4106 -1.2152
  231MOL0     H31164   5.953  11.123   0.369 -1.9241 -0.9223 -0.7725
  231MOL0     H31165   5.953  11.417   0.392 -2.4011  0.1180 -1.1897
  231MOL0     H31166   6.037  11.323   0.263 -1.1512  0.9594  1.1092
  231MOL0     H31167   5.674  10.999   1.116 -0.7458 -0.6781  0.2365
  231MOL0     H31168   5.785  10.790   1.254 -1.7531 -0.2692  1.9212
  231MOL0     H31169   5.679  10.303   1.440  0.2272  0.0369  0.8489
  231MOL0     H31170   5.820  10.176   1.613  2.1905  1.4463  2.7110
  231MOL0     H31171   5.341  10.814   3.277 -0.3607  0.1536  1.0589
  231MOL0     H31172   5.146  10.946   3.245 -0.2657 -0.0318 -2.9278
  231MOL0     H31173   4.842  11.210   3.112 -0.2037  0.2499 -0.2961
  231MOL0     H31174   4.661  11.363   3.132  1.3305  0.7698  0.9692
  231MOL0     H31175   4.717  11.759   2.986 -0.4794  0.1609  0.7174
  231MOL0     H31176   4.539  11.759   3.029 -1.0758  2.0809  0.8520
  231MOL0     H31177   4.681  11.924   3.162 -0.8776  0.3945 -2.1636
  231MOL0     H31178   4.775  11.784   3.211  1.7016  3.3678 -1.9585
  231MOL0     H31179   4.538  11.684   3.287  0.0840 -1.6851  0.3581
  231MOL0     H31180   4.483  11.853   3.260  1.6325  1.8360  0.0080
  231MOL0     H31181   4.695  11.759   3.464  1.0962  2.2290  1.8057
  231MOL0     H31182   4.546  11.830   3.520  2.5203 -3.0930  2.5033
  231MOL0     H31183   4.811  12.150   3.455  0.5801  0.4996  0.2860
  231MOL0     H31184   4.873  11.658   2.922  1.4370 -0.0370 -0.2479
  231MOL0     H31185   5.055  11.497   2.878 -0.8097 -2.4701 -1.7477
  232MOL0     O31186   1.817   2.078   5.732 -0.8157  0.0732  0.0597
  232MOL0     C31187   1.886   2.106   5.826 -0.1950 -0.0939  0.9092
  232MOL0     O31188   1.961   2.017   5.902 -0.7457  0.2818 -0.7969
  232MOL0     C31189   1.982   1.880   5.864  0.3460 -0.1856 -0.3055
  232MOL0     C31190   1.995   1.786   5.968  0.3853 -0.4608  0.0043
  232MOL0     C31191   2.022   1.655   5.936  0.3801  0.9750 -0.4934
  232MOL0     C31192   2.037   1.599   5.808  0.2458 -0.5621  0.0247
  232MOL0     O31193   2.080   1.467   5.776  0.0558 -0.0464 -0.3438
  232MOL0     C31194   2.054   1.399   5.650  0.1703  1.2138 -0.2120
  232MOL0     C31195   2.061   1.245   5.649  0.6273 -0.3455  0.1501
  232MOL0     C31196   2.173   1.199   5.740  0.0547  0.5329  0.2953
  232MOL0     C31197   2.174   1.051   5.764  0.0644  0.1093 -0.2618
  232MOL0     C31198   2.285   1.013   5.867 -0.1805 -0.6492  0.2828
  232MOL0     C31199   2.287   0.867   5.912 -0.4238  0.1795  0.7321
  232MOL0     C31200   2.384   0.865   6.031  0.4353 -0.2879  0.2472
  232MOL0     C31201   2.423   0.722   6.056 -0.4503 -0.4037  0.3955
  232MOL0     N31202   2.543   0.705   6.138  0.0936 -0.0751 -0.3482
  232MOL0     C31203   2.671   0.738   6.108 -0.9227 -0.0102  0.3143
  232MOL0     C31204   2.736   0.673   6.209  0.3103  0.6023 -0.2701
  232MOL0     C31205   2.880   0.653   6.203  0.0454  1.0405  0.1426
  232MOL0     C31206   2.956   0.780   6.231 -0.5832  0.3398  0.1313
  232MOL0     C31207   3.108   0.741   6.255  0.0822 -0.3578  0.3237
  232MOL0     C31208   3.219   0.825   6.192 -0.5462  1.2776  0.0436
  232MOL0     O31209   3.221   0.810   6.053  0.4117 -0.6305  0.5270
  232MOL0     C31210   3.268   0.922   5.983  0.5294  0.0586 -0.5868
  232MOL0     C31211   3.404   0.932   5.972 -0.1224  0.0052  0.7167
  232MOL0     C31212   3.464   1.044   5.916 -0.1623 -0.2018 -0.4552
  232MOL0     C31213   3.614   1.048   5.923 -0.9279  0.3423 -0.4880
  232MOL0     C31214   3.385   1.152   5.863  0.2868 -0.4750 -0.6590
  232MOL0     C31215   3.441   1.281   5.808  0.0605  0.4997 -0.4546
  232MOL0     O31216   3.349   1.346   5.738  0.4493  0.2291  0.5885
  232MOL0     C31217   3.373   1.438   5.632 -0.0987  0.0715 -0.1458
  232MOL0     C31218   3.293   1.554   5.626  0.3684  0.7243 -0.4096
  232MOL0     C31219   3.289   1.641   5.521 -0.5863 -0.2258 -0.4667
  232MOL0     C31220   3.397   1.634   5.438  0.5002 -0.5935 -0.5929
  232MOL0     O31221   3.411   1.726   5.339  0.0803 -0.3524 -0.5618
  232MOL0     C31222   3.329   1.707   5.231  0.1016 -1.4729  0.9777
  232MOL0     C31223   3.356   1.809   5.119 -0.2524 -0.8574 -0.3835
  232MOL0     C31224   3.298   1.763   4.977 -0.7357  0.3596  0.6324
  232MOL0     C31225   3.241   1.878   4.890  1.3083  0.8949  0.6208
  232MOL0     C31226   3.339   1.961   4.812 -0.5054  1.2336  0.1331
  232MOL0     C31227   3.389   2.084   4.884 -0.9056  0.0241 -0.6420
  232MOL0     C31228   3.518   2.138   4.829 -0.0970 -0.0188 -0.2472
  232MOL0     C31229   3.539   2.283   4.885 -1.0098  1.2553  0.1221
  232MOL0    Cl31230   3.433   2.404   4.795  0.5519 -0.0029  0.1628
  232MOL0     C31231   3.495   1.527   5.449  0.4426  0.4502 -0.5799
  232MOL0     C31232   3.483   1.424   5.546 -1.3873  0.0470  0.0513
  232MOL0     O31233   3.552   1.318   5.834 -0.4088  0.6528 -0.2778
  232MOL0     C31234   3.243   1.136   5.871 -0.2231  0.1467 -0.3150
  232MOL0     C31235   3.190   1.025   5.940  0.5197  0.5092 -1.0648
  232MOL0     N31236   2.650   0.601   6.288 -0.3476  1.2643  0.2037
  232MOL0     N31237   2.530   0.624   6.242 -0.3633 -0.2943  0.9851
  232MOL0     C31238   2.012   1.690   5.706 -0.6938 -0.4203  0.1732
  232MOL0     C31239   1.994   1.831   5.731 -0.2740  0.7657  0.6780
  232MOL0     C31240   1.896   2.249   5.869 -0.6651 -0.7549 -1.2490
  232MOL0     C31241   1.800   2.344   5.825 -0.3891  0.3200  0.8582
  232MOL0     C31242   1.803   2.475   5.864  0.0355 -0.4312 -0.4182
  232MOL0     C31243   1.898   2.522   5.962 -0.0157  0.5167 -0.5295
  232MOL0     O31244   1.886   2.648   5.997 -0.4668 -0.6247  0.5656
  232MOL0     C31245   1.953   2.695   6.121 -0.1887  0.1548  0.6860
  232MOL0     C31246   2.088   2.758   6.111  0.2888 -0.5409 -0.3595
  232MOL0     C31247   2.107   2.872   6.211  0.3718  0.1934 -1.0688
  232MOL0     C31248   2.069   2.835   6.346  0.2175 -0.3169 -0.4976
  232MOL0     C31249   2.142   2.731   6.416 -0.0799 -0.2887  0.0832
  232MOL0     C31250   2.212   2.652   6.481 -0.1749  0.0976  0.5217
  232MOL0     C31251   1.988   2.432   6.015  0.0982  0.0706 -0.6519
  232MOL0     C31252   1.984   2.291   5.969 -0.3505  1.1158 -0.6025
  232MOL0     H31253   2.002   1.826   6.069  4.7776 -3.7579  1.3235
  232MOL0     H31254   2.031   1.588   6.021  3.4999 -0.1600 -1.5778
  232MOL0     H31255   1.962   1.440   5.608  0.0763 -0.2276 -1.4547
  232MOL0     H31256   2.124   1.442   5.578  0.5164 -4.0109 -3.4787
  232MOL0     H31257   1.962   1.201   5.664  0.6667 -1.1762 -1.7879
  232MOL0     H31258   2.087   1.217   5.547 -3.7809 -0.9718 -1.0044
  232MOL0     H31259   2.269   1.221   5.694  0.5640  0.2289  1.1874
  232MOL0     H31260   2.168   1.255   5.834 -0.2346 -1.3056  1.4322
  232MOL0     H31261   2.075   1.031   5.805  0.6310  0.0525  1.1211
  232MOL0     H31262   2.184   1.001   5.667  0.5830 -0.2288 -0.0357
  232MOL0     H31263   2.386   1.033   5.831 -0.9068 -1.2001 -2.2057
  232MOL0     H31264   2.271   1.085   5.949  0.7524 -0.3936  0.2375
  232MOL0     H31265   2.188   0.832   5.943 -1.1450 -2.1175 -3.4361
  232MOL0     H31266   2.318   0.804   5.829  1.3115  0.6093  1.0069
  232MOL0     H31267   2.475   0.920   6.010 -0.8834  0.8379 -3.0582
  232MOL0     H31268   2.340   0.905   6.123  0.7656  1.6773 -0.4228
  232MOL0     H31269   2.448   0.664   5.966 -2.3883 -1.3021  0.3841
  232MOL0     H31270   2.334   0.681   6.105 -0.9048  1.9912  1.7068
  232MOL0     H31271   2.710   0.786   6.018 -2.1433  3.0419  1.3025
  232MOL0     H31272   2.905   0.572   6.272 -1.1657 -1.6089 -2.3167
  232MOL0     H31273   2.911   0.625   6.102  2.3038  1.5009  0.6410
  232MOL0     H31274   2.930   0.825   6.327  3.1818 -1.2681  2.1637
  232MOL0     H31275   2.941   0.855   6.153  2.6463  1.6337  0.5697
  232MOL0     H31276   3.135   0.637   6.234 -1.3015 -0.8648  0.9524
  232MOL0     H31277   3.122   0.744   6.364 -0.2008  1.1844  0.3461
  232MOL0     H31278   3.315   0.793   6.231 -0.0696  0.6632 -1.5667
  232MOL0     H31279   3.204   0.929   6.223 -0.8698  0.8226  1.5045
  232MOL0     H31280   3.472   0.856   6.008  1.4310  0.9158 -0.1654
  232MOL0     H31281   3.657   1.116   5.997  2.4790  0.4072 -2.3409
  232MOL0     H31282   3.669   0.954   5.935  2.2858  1.4780 -4.1753
  232MOL0     H31283   3.652   1.095   5.832 -1.1309  0.6311 -0.4272
  232MOL0     H31284   3.202   1.544   5.684  0.2290 -3.3513 -1.0506
  232MOL0     H31285   3.217   1.722   5.512 -0.7551 -0.3858 -0.5457
  232MOL0     H31286   3.354   1.604   5.205  2.6641 -1.5852  3.4647
  232MOL0     H31287   3.224   1.732   5.253 -0.1782 -0.5327 -1.1208
  232MOL0     H31288   3.329   1.910   5.151  0.0027  0.3774 -3.6246
  232MOL0     H31289   3.462   1.824   5.098 -0.2337 -0.6120 -0.1101
  232MOL0     H31290   3.208   1.707   5.000 -0.7714 -0.8884 -2.0881
  232MOL0     H31291   3.369   1.695   4.927 -1.7870 -0.8214  0.7093
  232MOL0     H31292   3.170   1.838   4.817  1.9360  5.1099 -2.7148
  232MOL0     H31293   3.180   1.941   4.955 -0.4910 -1.5125  1.4269
  232MOL0     H31294   3.289   1.984   4.717  0.1319 -1.1630 -0.8542
  232MOL0     H31295   3.422   1.896   4.782 -0.6395  1.5303 -0.9203
  232MOL0     H31296   3.306   2.154   4.899  0.1225  0.6464  3.1816
  232MOL0     H31297   3.403   2.040   4.983 -1.3737 -3.5194 -2.0157
  232MOL0     H31298   3.528   2.136   4.720  1.3008  4.3091 -0.3871
  232MOL0     H31299   3.597   2.070   4.862  2.0017  3.0558  1.6725
  232MOL0     H31300   3.638   2.314   4.852 -0.4072 -1.5552 -1.0316
  232MOL0     H31301   3.541   2.292   4.994 -1.4705  0.7498  0.1800
  232MOL0     H31302   3.571   1.523   5.371  0.9210  0.9722 -0.1465
  232MOL0     H31303   3.567   1.356   5.541 -1.9112 -0.5135 -2.7393
  232MOL0     H31304   3.168   1.207   5.837 -0.7393  0.4917  1.4210
  232MOL0     H31305   3.085   1.017   5.969  0.5879  0.9157 -0.7076
  232MOL0     H31306   2.018   1.658   5.603  0.7431  1.3196 -0.3205
  232MOL0     H31307   1.968   1.887   5.642 -0.7957 -2.3088 -1.2483
  232MOL0     H31308   1.721   2.311   5.759 -2.0232  0.4441  2.6699
  232MOL0     H31309   1.750   2.555   5.814  1.0747  1.0041  0.6985
  232MOL0     H31310   1.874   2.760   6.160  0.5795  0.5309  1.6630
  232MOL0     H31311   1.979   2.618   6.194  0.6542  2.2058  2.6976
  232MOL0     H31312   2.094   2.804   6.012  0.4557  0.0591 -0.0743
  232MOL0     H31313   2.157   2.674   6.123  1.5578  0.6882  1.4323
  232MOL0     H31314   2.050   2.952   6.165 -0.4726  3.1053  4.2504
  232MOL0     H31315   2.206   2.918   6.217 -0.9876  3.1667  0.6113
  232MOL0     H31316   1.964   2.806   6.346 -0.2799  1.3776 -1.0827
  232MOL0     H31317   2.074   2.929   6.401  3.5626 -0.2888 -0.6355
  232MOL0     H31318   2.267   2.569   6.521  1.3557  0.3722 -0.9041
  232MOL0     H31319   2.068   2.466   6.080  1.3288 -0.4657 -1.8346
  232MOL0     H31320   2.069   2.234   6.005  2.7474  4.9749 -1.0654
  233MOL0     O31321   2.947   2.391   7.681  0.0192 -1.3166  0.2817
  233MOL0     C31322   2.985   2.473   7.765 -0.1081 -0.5717 -0.8446
  233MOL0     O31323   3.071   2.582   7.743  0.7729 -0.0498  0.0608
  233MOL0     C31324   3.090   2.615   7.614  0.0830  1.1988 -0.2303
  233MOL0     C31325   2.998   2.699   7.543 -0.0690  0.0414  0.7373
  233MOL0     C31326   3.022   2.729   7.409  0.5286  0.2577 -0.2496
  233MOL0     C31327   3.138   2.689   7.351  0.5531 -0.5337 -0.5794
  233MOL0     O31328   3.154   2.704   7.211 -0.9327 -0.0926 -0.4640
  233MOL0     C31329   3.035   2.721   7.136 -0.7916  0.0420 -0.7714
  233MOL0     C31330   3.078   2.702   6.991 -0.1230  0.5087  1.0700
  233MOL0     C31331   2.969   2.695   6.884 -0.1035  0.0040 -0.2810
  233MOL0     C31332   3.029   2.654   6.741 -0.4124 -0.7068 -0.0348
  233MOL0     C31333   2.916   2.625   6.650  0.4321 -0.5297 -0.5388
  233MOL0     C31334   2.848   2.756   6.582 -0.0585  0.2463  0.5362
  233MOL0     C31335   2.719   2.718   6.514  0.2451 -0.5473  0.8274
  233MOL0     C31336   2.734   2.704   6.360 -0.0514 -0.1223 -0.3374
  233MOL0     N31337   2.603   2.680   6.300 -0.8198  0.3545  0.8819
  233MOL0     C31338   2.570   2.561   6.250  0.0169 -0.0081  0.2617
  233MOL0     C31339   2.448   2.579   6.197  0.4567 -0.5856 -0.0174
  233MOL0     C31340   2.376   2.467   6.122  0.5770  0.4886 -0.4631
  233MOL0     C31341   2.450   2.380   6.023  0.3424 -0.2748 -0.6147
  233MOL0     C31342   2.511   2.249   6.072  0.4124  0.4329 -0.5509
  233MOL0     C31343   2.415   2.156   6.130  0.6352 -0.0877 -0.4158
  233MOL0     O31344   2.312   2.106   6.040  0.4519 -0.0451 -0.5686
  233MOL0     C31345   2.356   2.027   5.934  0.9777 -0.3406  0.1324
  233MOL0     C31346   2.414   1.899   5.951 -0.3089  0.1371 -0.9359
  233MOL0     C31347   2.418   1.810   5.842 -0.0984 -0.4288  0.4665
  233MOL0     C31348   2.479   1.676   5.870 -0.2464  0.4522 -0.2302
  233MOL0     C31349   2.376   1.856   5.715 -0.8212 -0.3837 -0.5445
  233MOL0     C31350   2.381   1.768   5.599 -0.1099  0.2755  0.2045
  233MOL0     O31351   2.451   1.656   5.601  0.1569 -0.1547 -0.5094
  233MOL0     C31352   2.431   1.556   5.511 -0.7618 -0.5973  0.4078
  233MOL0     C31353   2.437   1.428   5.563  0.2216  0.1744 -0.5635
  233MOL0     C31354   2.406   1.305   5.488  0.0722 -0.2377  1.1730
  233MOL0     C31355   2.356   1.319   5.361 -0.2569  0.4806 -0.1999
  233MOL0     O31356   2.327   1.214   5.281 -0.4230  0.0722 -0.0237
  233MOL0     C31357   2.324   1.073   5.305  0.1845 -0.7506 -0.0516
  233MOL0     C31358   2.236   1.003   5.212 -0.4952  0.1414 -0.3001
  233MOL0     C31359   2.276   0.854   5.243 -0.1566 -0.5199 -0.2501
  233MOL0     C31360   2.194   0.759   5.161 -0.4378  1.1655  0.1703
  233MOL0     C31361   2.154   0.639   5.259  0.1211 -1.0629  0.0350
  233MOL0     C31362   2.059   0.533   5.198 -0.5248  0.0485  0.2055
  233MOL0     C31363   2.131   0.412   5.130  0.5012  0.2651  0.3973
  233MOL0     C31364   2.144   0.309   5.237 -0.6681  0.5522 -0.0379
  233MOL0    Cl31365   2.234   0.154   5.174 -0.4222  0.3738 -0.0649
  233MOL0     C31366   2.364   1.444   5.307  0.0117 -0.8219  0.0770
  233MOL0     C31367   2.404   1.560   5.371  0.2994  0.3897 -0.3546
  233MOL0     O31368   2.330   1.813   5.497  0.0179 -0.2781 -0.3417
  233MOL0     C31369   2.321   1.988   5.696 -0.2297 -0.0375 -0.5083
  233MOL0     C31370   2.302   2.067   5.806  0.4075  0.2445  0.0302
  233MOL0     N31371   2.415   2.719   6.217  1.3148  0.6401 -0.1295
  233MOL0     N31372   2.504   2.775   6.287  0.5940 -0.0219  0.4090
  233MOL0     C31373   3.242   2.632   7.424 -0.9315  0.2989 -0.3525
  233MOL0     C31374   3.211   2.581   7.555 -1.0353 -0.2189 -0.2190
  233MOL0     C31375   2.939   2.446   7.905  1.2407 -0.0274 -0.2996
  233MOL0     C31376   2.950   2.542   8.010  0.6781  0.2566 -0.6479
  233MOL0     C31377   2.921   2.510   8.141 -0.3815 -0.4375  0.8209
  233MOL0     C31378   2.858   2.391   8.179 -0.0997 -0.8677 -0.2433
  233MOL0     O31379   2.808   2.384   8.306  0.2567  0.4382  0.2583
  233MOL0     C31380   2.740   2.269   8.366 -0.0419 -0.9746  0.1119
  233MOL0     C31381   2.826   2.146   8.377 -0.2818  0.8207  1.0331
  233MOL0     C31382   2.751   2.028   8.438 -0.5822 -0.0441  0.1987
  233MOL0     C31383   2.642   1.972   8.353 -0.5526 -0.3146  0.7904
  233MOL0     C31384   2.708   1.881   8.250  0.1123  0.1815 -0.7155
  233MOL0     C31385   2.763   1.799   8.181 -0.2501  0.2593  0.0436
  233MOL0     C31386   2.838   2.308   8.079  0.3251  0.4943  0.2005
  233MOL0     C31387   2.882   2.324   7.950 -0.5454 -0.1486  1.5973
  233MOL0     H31388   2.916   2.749   7.593  0.0717 -0.7954  1.8222
  233MOL0     H31389   2.949   2.790   7.356 -0.5751 -0.5905  0.2506
  233MOL0     H31390   2.953   2.654   7.162 -1.1344  1.2160  1.4204
  233MOL0     H31391   2.989   2.819   7.152 -1.0616 -0.0698 -0.8569
  233MOL0     H31392   3.138   2.791   6.969  0.4043  0.0667  0.7064
  233MOL0     H31393   3.144   2.616   6.980 -1.6605 -0.4640 -1.4461
  233MOL0     H31394   2.913   2.612   6.927  0.1476  1.7626  3.9743
  233MOL0     H31395   2.904   2.783   6.886 -0.7106 -0.4311 -0.6917
  233MOL0     H31396   3.095   2.731   6.699 -1.4337  0.1238 -0.1540
  233MOL0     H31397   3.096   2.568   6.757  0.5604 -0.4064 -2.2091
  233MOL0     H31398   2.953   2.559   6.572 -0.3289 -2.3261  0.5592
  233MOL0     H31399   2.837   2.572   6.705  0.4148 -1.6159 -1.5762
  233MOL0     H31400   2.828   2.831   6.659 -0.9271 -0.8029  1.3607
  233MOL0     H31401   2.924   2.793   6.512  0.2257  0.3619  0.9005
  233MOL0     H31402   2.696   2.616   6.547 -0.8450 -1.2245 -1.7627
  233MOL0     H31403   2.637   2.784   6.543  1.4744  1.1765  0.5007
  233MOL0     H31404   2.813   2.636   6.326 -0.6656 -1.4687  0.8724
  233MOL0     H31405   2.761   2.809   6.343 -0.7936  0.4252  1.6424
  233MOL0     H31406   2.619   2.464   6.252  1.0866  0.5227  0.7895
  233MOL0     H31407   2.319   2.411   6.197 -1.5406  3.7745  0.5941
  233MOL0     H31408   2.304   2.523   6.062  0.4346 -1.2154 -1.9337
  233MOL0     H31409   2.532   2.444   5.987  0.3276  0.4778  0.6282
  233MOL0     H31410   2.376   2.353   5.948 -0.2938 -2.4337  0.7164
  233MOL0     H31411   2.584   2.271   6.150  0.9504 -0.1456 -0.8795
  233MOL0     H31412   2.560   2.187   5.996 -0.3562 -5.3708  3.0894
  233MOL0     H31413   2.372   2.202   6.219 -1.0575 -5.0488  1.6717
  233MOL0     H31414   2.468   2.066   6.164  1.1421  1.3132  2.8403
  233MOL0     H31415   2.424   1.858   6.051  1.3866  3.0903  0.2368
  233MOL0     H31416   2.427   1.586   5.839  2.9058 -2.0621  1.1142
  233MOL0     H31417   2.571   1.684   5.811  0.2160  2.2936  0.6499
  233MOL0     H31418   2.510   1.673   5.975 -3.1627  0.2542  0.6973
  233MOL0     H31419   2.469   1.409   5.665 -0.1198 -1.5381 -0.7464
  233MOL0     H31420   2.415   1.204   5.526  1.0110  0.4512  2.8735
  233MOL0     H31421   2.428   1.041   5.304  0.0075 -1.4871  1.8672
  233MOL0     H31422   2.286   1.056   5.406  1.8933 -3.3221  0.2247
  233MOL0     H31423   2.129   1.015   5.234 -1.0717 -2.9586 -0.9282
  233MOL0     H31424   2.257   1.033   5.109  1.3204 -5.3396 -1.8685
  233MOL0     H31425   2.257   0.835   5.349 -3.5405 -2.2276 -1.0270
  233MOL0     H31426   2.381   0.839   5.215 -0.5063 -1.7498 -0.9404
  233MOL0     H31427   2.103   0.813   5.133 -1.4715  0.6771  2.4149
  233MOL0     H31428   2.252   0.721   5.077 -2.4890  1.7743 -1.6191
  233MOL0     H31429   2.093   0.680   5.340 -1.3496  1.6444 -2.2471
  233MOL0     H31430   2.245   0.595   5.302  0.2961 -0.6652  0.0787
  233MOL0     H31431   1.981   0.509   5.270 -0.8287 -1.5230 -0.6050
  233MOL0     H31432   2.002   0.585   5.121  0.4025  2.5767  1.1521
  233MOL0     H31433   2.225   0.438   5.082 -0.3969 -1.0840 -2.2904
  233MOL0     H31434   2.063   0.377   5.053 -1.5120  0.9543  1.7633
  233MOL0     H31435   2.047   0.284   5.280 -0.1770  1.1460  1.4573
  233MOL0     H31436   2.210   0.350   5.313 -0.8531  4.1059 -1.6036
  233MOL0     H31437   2.333   1.458   5.204 -0.5670  0.0666  0.3595
  233MOL0     H31438   2.416   1.649   5.309  1.0959  0.1789 -0.5120
  233MOL0     H31439   2.287   2.020   5.599  3.0660  2.1113 -1.1232
  233MOL0     H31440   2.246   2.159   5.793  0.8852  0.3699 -1.1933
  233MOL0     H31441   3.343   2.622   7.384 -1.5016 -0.4424 -1.6921
  233MOL0     H31442   3.289   2.521   7.601 -2.6777 -4.2252 -2.1733
  233MOL0     H31443   2.984   2.644   7.993  1.9251  0.1642  1.0449
  233MOL0     H31444   2.939   2.590   8.212 -0.2333  1.8555 -1.6480
  233MOL0     H31445   2.689   2.296   8.459 -0.6575  1.8882 -0.9235
  233MOL0     H31446   2.668   2.248   8.287  1.0207  1.4339 -1.6443
  233MOL0     H31447   2.914   2.173   8.436 -0.1209 -1.0204  1.7096
  233MOL0     H31448   2.865   2.105   8.284 -2.3195 -0.6688  0.7540
  233MOL0     H31449   2.713   2.058   8.536 -0.3947  0.2086  0.1949
  233MOL0     H31450   2.821   1.948   8.462 -1.8242 -1.0025  0.7447
  233MOL0     H31451   2.585   2.054   8.307  1.8624  1.3019  0.4753
  233MOL0     H31452   2.571   1.916   8.414 -1.6186  2.9005  2.7911
  233MOL0     H31453   2.813   1.725   8.122  0.8776  0.2446  0.9819
  233MOL0     H31454   2.778   2.221   8.102  0.3382  0.1165 -1.1072
  233MOL0     H31455   2.856   2.247   7.878  1.0102  3.2230 -3.0412
  234MOL0     O31456   8.131   6.128   6.277  0.3000  0.2968  0.0778
  234MOL0     C31457   8.050   6.058   6.221 -0.4468  0.8745 -0.0817
  234MOL0     O31458   8.012   5.931   6.257 -0.2313 -0.1003 -0.0191
  234MOL0     C31459   8.080   5.874   6.362 -0.2622  0.1350  0.6694
  234MOL0     C31460   8.055   5.903   6.495 -0.7768 -0.5486  0.2168
  234MOL0     C31461   8.141   5.853   6.588  1.1306 -0.4239 -0.0066
  234MOL0     C31462   8.254   5.783   6.554  0.6587  0.2919 -0.7124
  234MOL0     O31463   8.326   5.728   6.656 -0.8355  0.2648  0.1476
  234MOL0     C31464   8.456   5.786   6.677  0.2636 -0.4502  0.2362
  234MOL0     C31465   8.461   5.900   6.789 -0.1448  0.0971 -0.0890
  234MOL0     C31466   8.505   6.032   6.743 -0.2285  0.5713  0.4523
  234MOL0     C31467   8.404   6.098   6.635 -0.9823  0.4137 -0.1253
  234MOL0     C31468   8.354   6.240   6.672  0.1874  0.2134  0.8161
  234MOL0     C31469   8.301   6.299   6.544 -0.1968  0.9035 -0.9377
  234MOL0     C31470   8.215   6.414   6.570  1.1019  0.4825  0.2040
  234MOL0     C31471   8.156   6.478   6.458 -0.3807 -0.3584 -0.1431
  234MOL0     N31472   8.257   6.551   6.381 -0.8039 -0.4804  0.3142
  234MOL0     C31473   8.274   6.689   6.382 -0.5952  0.4367  0.1794
  234MOL0     C31474   8.403   6.707   6.339  0.0224 -0.4426 -0.0906
  234MOL0     C31475   8.477   6.839   6.330 -0.2691  1.2132 -0.4893
  234MOL0     C31476   8.448   6.922   6.197 -0.5586  0.9779 -0.7715
  234MOL0     C31477   8.490   7.065   6.200 -0.1860  0.0916  0.0135
  234MOL0     C31478   8.427   7.141   6.308 -0.0337 -0.5661  0.4003
  234MOL0     O31479   8.449   7.282   6.292  0.4753  0.4120 -0.0361
  234MOL0     C31480   8.366   7.348   6.383 -0.2281 -0.4757  0.2270
  234MOL0     C31481   8.238   7.386   6.343  0.4456 -0.1029 -0.0772
  234MOL0     C31482   8.143   7.448   6.434 -0.6730 -0.3615  0.1904
  234MOL0     C31483   8.004   7.499   6.386  0.2156 -0.0347  0.5000
  234MOL0     C31484   8.196   7.469   6.567 -0.2093  0.2095  0.0352
  234MOL0     C31485   8.109   7.532   6.671 -1.0647 -0.1237  0.0491
  234MOL0     O31486   8.185   7.598   6.770 -0.2906  0.8450 -0.3001
  234MOL0     C31487   8.116   7.671   6.862 -0.3772  0.2641  1.0330
  234MOL0     C31488   8.090   7.811   6.828 -0.4658  0.6053  1.2789
  234MOL0     C31489   8.019   7.885   6.919 -0.2769 -0.2086  0.0598
  234MOL0     C31490   7.971   7.836   7.043  0.3830  1.1319  0.2448
  234MOL0     O31491   7.908   7.914   7.139  0.2029 -0.9342  0.4437
  234MOL0     C31492   7.777   7.949   7.103  0.0720 -0.3652  0.1056
  234MOL0     C31493   7.699   8.016   7.228 -0.4597 -1.1855  0.5906
  234MOL0     C31494   7.756   8.160   7.237 -0.6278  0.9364  0.9277
  234MOL0     C31495   7.689   8.233   7.364  0.3328 -1.2034  0.6923
  234MOL0     C31496   7.690   8.382   7.342 -0.1227  0.2149 -0.4157
  234MOL0     C31497   7.579   8.446   7.417 -0.4850 -0.1331  0.4148
  234MOL0     C31498   7.625   8.446   7.566 -0.2032  0.4932 -0.1929
  234MOL0     C31499   7.534   8.545   7.631  0.4319 -0.7553 -0.1509
  234MOL0    Cl31500   7.546   8.507   7.814 -0.1106 -0.0365 -0.1011
  234MOL0     C31501   7.994   7.700   7.070 -1.5945  0.0322 -0.2665
  234MOL0     C31502   8.082   7.629   6.988  0.0751 -0.2349  1.0708
  234MOL0     O31503   7.991   7.517   6.671  0.5590  0.3933 -0.8359
  234MOL0     C31504   8.338   7.448   6.599  0.0697  0.4698  0.2448
  234MOL0     C31505   8.416   7.384   6.509  0.1194 -0.9970 -0.9346
  234MOL0     N31506   8.443   6.590   6.267  0.7491 -0.2749 -0.4585
  234MOL0     N31507   8.349   6.502   6.291  0.3148  0.3775 -0.8236
  234MOL0     C31508   8.295   5.777   6.417 -0.3003  0.3894 -0.2761
  234MOL0     C31509   8.205   5.820   6.320 -0.0291  1.0062 -0.3096
  234MOL0     C31510   8.021   6.110   6.090  0.8831  0.1315 -0.0039
  234MOL0     C31511   8.079   6.234   6.033  0.3681 -0.5297  0.8577
  234MOL0     C31512   8.035   6.286   5.907 -0.0698 -0.2372 -0.0648
  234MOL0     C31513   7.920   6.226   5.848 -0.4714  0.4005 -0.6559
  234MOL0     O31514   7.853   6.262   5.732  0.8195  0.2545 -0.2784
  234MOL0     C31515   7.912   6.360   5.645  1.4102  0.6522  0.3858
  234MOL0     C31516   8.008   6.302   5.535  1.3295 -0.3589  0.1012
  234MOL0     C31517   8.119   6.207   5.583  0.8975  0.3374  0.0102
  234MOL0     C31518   8.204   6.142   5.467 -0.2451  0.1252  0.5323
  234MOL0     C31519   8.267   6.238   5.388  0.1194 -0.6546  0.0434
  234MOL0     C31520   8.299   6.328   5.314 -0.8319 -0.3796  0.0596
  234MOL0     C31521   7.866   6.123   5.909 -0.4597 -0.1094 -0.7660
  234MOL0     C31522   7.907   6.068   6.029  0.5824  0.5554  0.2363
  234MOL0     H31523   7.967   5.956   6.531  0.7606  1.2755  1.5289
  234MOL0     H31524   8.125   5.868   6.695  0.5591  3.0095 -0.4329
  234MOL0     H31525   8.516   5.701   6.712 -2.6833 -1.8334  2.3940
  234MOL0     H31526   8.491   5.832   6.584  1.7040 -3.2230 -0.7070
  234MOL0     H31527   8.360   5.905   6.830  0.8282 -4.0424  3.6210
  234MOL0     H31528   8.530   5.882   6.872  0.8947 -0.6453 -1.0743
  234MOL0     H31529   8.521   6.097   6.830  3.3165 -1.0317  1.1685
  234MOL0     H31530   8.608   6.021   6.707 -0.7489 -0.1103 -0.8918
  234MOL0     H31531   8.464   6.086   6.545 -0.1221  0.4938  0.4287
  234MOL0     H31532   8.317   6.032   6.620 -1.5460  0.6796  1.6347
  234MOL0     H31533   8.274   6.240   6.746 -0.9375 -0.3678 -0.3618
  234MOL0     H31534   8.433   6.303   6.715  0.4602 -0.0063  0.6395
  234MOL0     H31535   8.380   6.316   6.470  1.4295 -6.4384 -1.6481
  234MOL0     H31536   8.232   6.232   6.491 -1.0032  1.8371 -1.0967
  234MOL0     H31537   8.131   6.388   6.634  1.1091  2.3656  1.0529
  234MOL0     H31538   8.270   6.481   6.637 -1.9275  1.4649  1.8718
  234MOL0     H31539   8.070   6.544   6.475 -0.6221  0.2626 -3.1446
  234MOL0     H31540   8.120   6.395   6.397 -1.8782 -1.3533  1.9739
  234MOL0     H31541   8.227   6.765   6.444  0.6960 -1.0721  3.1802
  234MOL0     H31542   8.435   6.897   6.413 -0.3667  0.1532  0.2263
  234MOL0     H31543   8.584   6.820   6.344 -0.9895 -3.2782  0.8095
  234MOL0     H31544   8.350   6.911   6.150 -0.6338 -0.5505 -0.2979
  234MOL0     H31545   8.512   6.876   6.121  0.5381 -0.8767  1.1612
  234MOL0     H31546   8.461   7.099   6.100 -0.4652 -0.6224 -0.1584
  234MOL0     H31547   8.599   7.068   6.215 -0.1449  2.1163 -0.3878
  234MOL0     H31548   8.454   7.099   6.406  0.7600 -2.0170 -0.4071
  234MOL0     H31549   8.319   7.139   6.296 -0.2614  1.9764  1.2667
  234MOL0     H31550   8.207   7.352   6.245 -0.9413 -1.2774  0.7167
  234MOL0     H31551   7.928   7.421   6.401  2.2120 -1.7983  2.2174
  234MOL0     H31552   7.984   7.586   6.449 -1.4053 -1.6401  2.3527
  234MOL0     H31553   7.999   7.518   6.279  0.4439 -1.2542  0.2555
  234MOL0     H31554   8.133   7.851   6.737  1.7756 -0.9848  1.5598
  234MOL0     H31555   8.009   7.990   6.896 -3.1157 -0.4975 -0.4701
  234MOL0     H31556   7.785   8.016   7.016  1.0817 -0.2786  0.2525
  234MOL0     H31557   7.718   7.869   7.057 -3.4774 -0.3469  3.9645
  234MOL0     H31558   7.591   8.000   7.217 -0.8025  1.0486  0.1993
  234MOL0     H31559   7.727   7.949   7.309 -1.1591  0.0139  1.8712
  234MOL0     H31560   7.740   8.211   7.142  1.5902 -0.2383 -0.1705
  234MOL0     H31561   7.863   8.148   7.255 -0.6233  0.7288  0.7639
  234MOL0     H31562   7.590   8.191   7.383  0.3135 -0.7820  1.5692
  234MOL0     H31563   7.738   8.209   7.459 -0.6541 -1.7933  1.0658
  234MOL0     H31564   7.687   8.413   7.237  0.6357  1.4722 -0.0863
  234MOL0     H31565   7.789   8.408   7.379  0.5724 -1.6625 -0.8381
  234MOL0     H31566   7.588   8.550   7.383  4.5169 -1.0540 -2.0497
  234MOL0     H31567   7.484   8.397   7.394 -0.0463 -1.5327  1.4577
  234MOL0     H31568   7.732   8.466   7.572  0.1907 -1.4523  0.0854
  234MOL0     H31569   7.610   8.345   7.607  1.4040  0.7272  1.0750
  234MOL0     H31570   7.433   8.531   7.589  0.9850  0.1613 -1.9184
  234MOL0     H31571   7.566   8.649   7.614  0.4243 -0.9050 -1.1467
  234MOL0     H31572   7.951   7.659   7.161  1.4137  2.0078  2.2497
  234MOL0     H31573   8.106   7.525   7.008 -1.9757 -1.3591 -1.5893
  234MOL0     H31574   8.379   7.462   6.699 -0.7554 -2.1129  1.0232
  234MOL0     H31575   8.515   7.355   6.544 -0.7220 -2.8658  0.0344
  234MOL0     H31576   8.394   5.743   6.388 -0.3859 -1.2263  1.1769
  234MOL0     H31577   8.244   5.823   6.218  4.7554 -1.4320  1.1342
  234MOL0     H31578   8.164   6.283   6.078  0.9008 -0.8394  0.2043
  234MOL0     H31579   8.078   6.377   5.866 -1.0725 -0.2220 -1.1272
  234MOL0     H31580   7.839   6.419   5.589  0.3229 -0.3195  0.7517
  234MOL0     H31581   7.962   6.434   5.709  0.6197  0.6644  1.0122
  234MOL0     H31582   8.051   6.388   5.482 -0.1404  0.2801 -0.0888
  234MOL0     H31583   7.943   6.249   5.465 -0.2041  2.3420 -0.6333
  234MOL0     H31584   8.080   6.127   5.646  1.1011 -0.3492 -0.7216
  234MOL0     H31585   8.182   6.267   5.649  0.2476  0.4710  0.5251
  234MOL0     H31586   8.147   6.079   5.398  2.2410  0.8088 -2.4063
  234MOL0     H31587   8.283   6.083   5.515 -1.0551 -0.9100  0.6403
  234MOL0     H31588   8.323   6.403   5.242 -1.0208 -0.6257 -0.2601
  234MOL0     H31589   7.791   6.068   5.853  2.5161 -0.8680 -4.3564
  234MOL0     H31590   7.851   5.983   6.066  2.3284  0.1108  2.0380
  235MOL0     O31591  11.175   0.599   5.561 -0.1288 -0.1917  0.2448
  235MOL0     C31592  11.127   0.712   5.545  0.0581 -0.0149 -0.2214
  235MOL0     O31593  11.042   0.747   5.445 -0.2061  0.2543  0.2011
  235MOL0     C31594  11.010   0.643   5.362  0.1686  0.2725  0.9803
  235MOL0     C31595  11.045   0.654   5.226  0.0053 -0.0913  0.7938
  235MOL0     C31596  11.014   0.541   5.152 -0.1380  0.2270  0.2079
  235MOL0     C31597  10.939   0.431   5.199 -1.3260  0.1487 -0.4816
  235MOL0     O31598  10.900   0.338   5.099  0.2113 -1.0411  0.3980
  235MOL0     C31599  10.891   0.196   5.139 -0.9080  0.2010 -0.1446
  235MOL0     C31600  11.028   0.139   5.176  0.0361  0.3080 -0.4921
  235MOL0     C31601  11.026  -0.018   5.174  0.1825 -0.6652  0.2711
  235MOL0     C31602  10.968  -0.088   5.292 -0.2288 -0.4765  0.6428
  235MOL0     C31603  10.980  -0.245   5.291  1.4612 -0.7901  0.0646
  235MOL0     C31604  10.862  -0.317   5.213 -0.9072 -0.5402 -0.3663
  235MOL0     C31605  10.871  -0.463   5.233  0.0509  0.2497 -0.1950
  235MOL0     C31606  10.801  -0.519   5.118 -0.4661  0.1769  0.4002
  235MOL0     N31607  10.768  -0.665   5.133  1.1488  0.1181  0.0238
  235MOL0     C31608  10.804  -0.752   5.228  0.3847 -0.1495  0.6660
  235MOL0     C31609  10.749  -0.866   5.185  0.0170  0.5474 -0.5897
  235MOL0     C31610  10.786  -0.989   5.246  0.1415 -0.2887  0.0156
  235MOL0     C31611  10.666  -1.076   5.271 -0.7204 -1.0456 -1.0005
  235MOL0     C31612  10.707  -1.212   5.308 -0.1983  0.4745 -0.5894
  235MOL0     C31613  10.593  -1.320   5.335  0.2839 -0.8308  0.4659
  235MOL0     O31614  10.525  -1.372   5.214  0.2394  0.5168 -1.1814
  235MOL0     C31615  10.419  -1.463   5.240 -1.2144 -0.3008 -0.0517
  235MOL0     C31616  10.361  -1.535   5.136  0.4719  0.2947  0.4459
  235MOL0     C31617  10.251  -1.624   5.155 -1.5629 -0.8364  0.1650
  235MOL0     C31618  10.203  -1.706   5.028  0.5756  0.1367 -0.2131
  235MOL0     C31619  10.198  -1.639   5.285 -0.3391  0.7147 -0.0626
  235MOL0     C31620  10.093  -1.741   5.315  0.5084 -0.3763  1.3467
  235MOL0     O31621  10.098  -1.786   5.435 -0.9008  0.4006 -0.2370
  235MOL0     C31622   9.995  -1.861   5.492 -1.8609  0.2928  0.8023
  235MOL0     C31623  10.024  -1.898   5.630  0.3139  0.8140 -0.2983
  235MOL0     C31624   9.937  -1.990   5.699 -0.1637  0.1406  0.5254
  235MOL0     C31625   9.829  -2.053   5.630  0.1683  0.0641  0.5601
  235MOL0     O31626   9.746  -2.155   5.684 -0.8789 -0.3565  0.0595
  235MOL0     C31627   9.784  -2.212   5.810  0.0301  0.2953 -0.5435
  235MOL0     C31628   9.677  -2.317   5.857  0.7187  0.4378 -0.0968
  235MOL0     C31629   9.731  -2.419   5.954  0.8190  0.4977  0.3165
  235MOL0     C31630   9.651  -2.551   5.966 -0.1321  0.4735  0.1214
  235MOL0     C31631   9.712  -2.644   6.074 -0.1133 -0.3659  0.2284
  235MOL0     C31632   9.655  -2.619   6.213 -0.2608  0.5837 -0.4050
  235MOL0     C31633   9.708  -2.699   6.319  0.4316  1.3360  0.2709
  235MOL0     C31634   9.649  -2.651   6.458 -0.2618  0.5813  0.7061
  235MOL0    Cl31635   9.491  -2.704   6.490  0.0010 -0.1426 -0.1503
  235MOL0     C31636   9.810  -2.026   5.496 -0.4415 -1.4377  0.9612
  235MOL0     C31637   9.886  -1.918   5.430  0.5499  0.8771 -0.4880
  235MOL0     O31638   9.995  -1.726   5.251 -0.1489 -0.0032  0.6179
  235MOL0     C31639  10.252  -1.563   5.389  1.2033 -0.5144 -0.1341
  235MOL0     C31640  10.360  -1.479   5.363 -0.0910  0.3982 -0.4591
  235MOL0     N31641  10.689  -0.847   5.068  0.1153 -0.4729  0.0876
  235MOL0     N31642  10.687  -0.725   5.039  0.1218  0.0132 -0.5224
  235MOL0     C31643  10.901   0.426   5.335  0.4053  0.3350 -0.1180
  235MOL0     C31644  10.931   0.537   5.408 -1.1130 -0.3126 -0.2571
  235MOL0     C31645  11.187   0.825   5.625  0.1141  0.3003 -0.5137
  235MOL0     C31646  11.117   0.940   5.655  0.1893 -0.5228 -0.5927
  235MOL0     C31647  11.171   1.043   5.735 -1.0019 -0.4922  0.5043
  235MOL0     C31648  11.303   1.021   5.788  0.0991 -0.1437 -0.1689
  235MOL0     O31649  11.369   1.116   5.872  0.0799  0.2600  0.4449
  235MOL0     C31650  11.291   1.232   5.923 -1.3010 -0.0689  1.0634
  235MOL0     C31651  11.286   1.349   5.824 -0.2201  0.4031 -0.3304
  235MOL0     C31652  11.429   1.359   5.744 -0.2297 -1.1141  0.1746
  235MOL0     C31653  11.427   1.486   5.657  0.5554  0.9221 -1.6488
  235MOL0     C31654  11.425   1.601   5.748 -0.5015  0.0756 -0.1604
  235MOL0     C31655  11.427   1.692   5.828 -0.6142 -0.5931 -0.6761
  235MOL0     C31656  11.377   0.906   5.759 -0.3431 -0.1414  1.3859
  235MOL0     C31657  11.315   0.809   5.685  0.0083  0.5516 -0.2588
  235MOL0     H31658  11.096   0.740   5.184 -4.0902  2.6311  0.8916
  235MOL0     H31659  11.040   0.537   5.046  0.7571 -1.8236  0.4635
  235MOL0     H31660  10.820   0.175   5.219 -0.5847  3.8635  1.3153
  235MOL0     H31661  10.860   0.141   5.050 -1.7452  0.4277 -0.0014
  235MOL0     H31662  11.089   0.182   5.096 -1.4529  0.1497 -1.7592
  235MOL0     H31663  11.065   0.172   5.274  0.9212 -2.1596  0.0861
  235MOL0     H31664  10.985  -0.053   5.079  3.9220  1.2426 -2.2779
  235MOL0     H31665  11.131  -0.048   5.170  0.7452  1.2687 -0.9552
  235MOL0     H31666  11.034  -0.057   5.373 -1.1783  0.2402  1.1643
  235MOL0     H31667  10.863  -0.058   5.301  0.0002 -0.1688  2.7857
  235MOL0     H31668  11.080  -0.274   5.259  1.2421  1.2934 -2.8776
  235MOL0     H31669  10.978  -0.275   5.396  2.0685 -1.8491 -0.2127
  235MOL0     H31670  10.769  -0.275   5.253  0.0351  0.5717  0.7551
  235MOL0     H31671  10.883  -0.295   5.108 -2.7898 -0.8212 -0.8284
  235MOL0     H31672  10.972  -0.500   5.250 -0.4552  0.2268  3.5641
  235MOL0     H31673  10.808  -0.492   5.317 -0.0645  0.2335 -0.2870
  235MOL0     H31674  10.870  -0.502   5.035  1.2271  0.4490  1.7875
  235MOL0     H31675  10.709  -0.464   5.097  1.6466  3.9045 -0.0384
  235MOL0     H31676  10.869  -0.741   5.314 -1.9853 -0.0500  2.5665
  235MOL0     H31677  10.866  -1.037   5.189  1.8302  3.1162 -0.7309
  235MOL0     H31678  10.838  -0.966   5.340 -0.8548  1.2897  0.2019
  235MOL0     H31679  10.611  -1.079   5.177  1.0603 -2.2406 -2.0697
  235MOL0     H31680  10.596  -1.046   5.350  2.2534 -2.4398  2.4434
  235MOL0     H31681  10.756  -1.200   5.405  0.1279  3.0308 -0.9927
  235MOL0     H31682  10.782  -1.258   5.242  1.6325  0.0331  1.6390
  235MOL0     H31683  10.528  -1.266   5.404  1.0986  1.5735 -0.5199
  235MOL0     H31684  10.632  -1.410   5.381  0.3832 -1.0789 -0.0902
  235MOL0     H31685  10.396  -1.509   5.037  2.8619  1.1993  1.4570
  235MOL0     H31686  10.284  -1.759   4.977  1.5160 -0.4472  1.7789
  235MOL0     H31687  10.130  -1.777   5.066 -0.8644  2.2117  1.1198
  235MOL0     H31688  10.155  -1.650   4.947  5.2358  0.6724 -2.9364
  235MOL0     H31689  10.111  -1.863   5.684  1.4160 -0.9956 -0.8224
  235MOL0     H31690   9.953  -1.997   5.806 -0.7665  2.6697  0.8540
  235MOL0     H31691   9.879  -2.265   5.817 -0.5547 -1.0912 -2.3001
  235MOL0     H31692   9.799  -2.138   5.889  1.0357 -2.4598  2.0017
  235MOL0     H31693   9.585  -2.287   5.908  1.9451  1.0308  1.8405
  235MOL0     H31694   9.648  -2.382   5.773  1.1577 -0.6523  0.5718
  235MOL0     H31695   9.743  -2.384   6.057  0.3962 -0.0678  0.5629
  235MOL0     H31696   9.833  -2.451   5.932  1.0323  1.1545  0.3204
  235MOL0     H31697   9.547  -2.532   5.993  0.2714  0.6536  1.6486
  235MOL0     H31698   9.661  -2.602   5.869  0.2242 -1.0367  0.9111
  235MOL0     H31699   9.821  -2.633   6.074  0.1556 -2.5165 -0.2814
  235MOL0     H31700   9.687  -2.749   6.056  0.7897 -0.6360  0.4903
  235MOL0     H31701   9.659  -2.512   6.235  0.0679  0.0067  2.7490
  235MOL0     H31702   9.546  -2.631   6.221 -0.3232  2.1536  4.9302
  235MOL0     H31703   9.817  -2.690   6.324  0.6186 -0.8664  1.7496
  235MOL0     H31704   9.680  -2.804   6.304 -2.2764  2.0711 -0.4699
  235MOL0     H31705   9.652  -2.542   6.469 -1.9727  0.8276 -0.6551
  235MOL0     H31706   9.708  -2.695   6.538  2.2209 -0.1556 -1.3945
  235MOL0     H31707   9.726  -2.073   5.446 -2.4415  1.9849  0.7777
  235MOL0     H31708   9.874  -1.905   5.323 -1.9392 -0.2039 -0.4142
  235MOL0     H31709  10.213  -1.571   5.490  1.0906 -2.2653 -0.2958
  235MOL0     H31710  10.401  -1.426   5.448  1.6856  1.4366 -1.9037
  235MOL0     H31711  10.833   0.349   5.371  1.0023 -0.4282 -0.5903
  235MOL0     H31712  10.887   0.537   5.507 -0.5634 -1.3393 -0.0038
  235MOL0     H31713  11.026   0.948   5.595  0.2644 -0.8260 -0.7473
  235MOL0     H31714  11.116   1.137   5.744  2.1760  1.5271  0.3213
  235MOL0     H31715  11.191   1.205   5.961 -1.9197  1.4236  0.5766
  235MOL0     H31716  11.355   1.261   6.007 -2.9112 -0.3412  2.4494
  235MOL0     H31717  11.265   1.439   5.882 -3.0791 -0.3698  0.0115
  235MOL0     H31718  11.206   1.331   5.751 -0.5513  0.1968  0.0784
  235MOL0     H31719  11.448   1.275   5.676  0.3300  0.4570 -1.6851
  235MOL0     H31720  11.511   1.362   5.817 -1.7634 -1.7518  2.0272
  235MOL0     H31721  11.332   1.482   5.602 -0.6847 -1.2289  0.4830
  235MOL0     H31722  11.513   1.485   5.590  0.6183 -1.9606 -1.6445
  235MOL0     H31723  11.413   1.774   5.896 -2.7728 -0.4333 -1.2471
  235MOL0     H31724  11.477   0.905   5.802  0.6810  0.9121 -0.8513
  235MOL0     H31725  11.376   0.719   5.677 -0.4454  0.4295 -3.7924
  236MOL0     O31726  10.996   4.622   9.418 -0.7592  0.2216 -0.5979
  236MOL0     C31727  11.065   4.528   9.386  0.2955 -0.3073  0.0858
  236MOL0     O31728  11.183   4.527   9.319 -1.3648 -0.1706 -0.3745
  236MOL0     C31729  11.239   4.647   9.271  0.3896  0.7108 -0.8636
  236MOL0     C31730  11.369   4.669   9.311  0.2120  0.1922  0.1087
  236MOL0     C31731  11.439   4.775   9.258  1.0148 -0.9281  0.0814
  236MOL0     C31732  11.377   4.882   9.185  0.2604  0.1799 -0.4169
  236MOL0     O31733  11.455   4.988   9.153  0.3372 -0.1200 -0.4492
  236MOL0     C31734  11.421   5.051   9.027  0.3800  0.1948 -0.7041
  236MOL0     C31735  11.520   5.170   8.998 -1.3047  0.4057  1.4966
  236MOL0     C31736  11.489   5.234   8.864  0.0216  0.2591 -0.1042
  236MOL0     C31737  11.610   5.328   8.826  0.3338  0.3241  0.1449
  236MOL0     C31738  11.565   5.412   8.700 -0.7194 -0.0279  0.5912
  236MOL0     C31739  11.668   5.515   8.650 -0.3792  0.0634  0.0041
  236MOL0     C31740  11.799   5.460   8.582 -0.9939  0.7315  0.5156
  236MOL0     C31741  11.768   5.415   8.437 -0.0799 -0.5233 -0.8930
  236MOL0     N31742  11.757   5.533   8.349 -0.1136  0.0050 -0.7821
  236MOL0     C31743  11.865   5.604   8.320 -0.3447 -0.5489  0.5150
  236MOL0     C31744  11.816   5.715   8.266 -0.4874 -1.2005  0.7093
  236MOL0     C31745  11.897   5.826   8.218 -1.0210 -0.1704 -0.0179
  236MOL0     C31746  11.925   5.812   8.064 -0.6419 -0.2471 -0.2668
  236MOL0     C31747  12.016   5.692   8.048 -0.2672  0.1829  0.0517
  236MOL0     C31748  12.087   5.684   7.905  0.3264  0.3761  0.5768
  236MOL0     O31749  12.202   5.756   7.895 -0.2819  0.2869 -1.0809
  236MOL0     C31750  12.224   5.843   7.790 -0.0365 -0.6081 -0.0408
  236MOL0     C31751  12.201   5.798   7.658 -0.0452 -0.6833 -0.0855
  236MOL0     C31752  12.199   5.889   7.548 -0.4048 -0.2177 -0.2231
  236MOL0     C31753  12.179   5.832   7.413  1.0077  0.3872  0.4188
  236MOL0     C31754  12.215   6.029   7.578 -0.4650 -0.7406  0.2422
  236MOL0     C31755  12.190   6.138   7.474  0.2844  0.2322  0.1288
  236MOL0     O31756  12.225   6.108   7.347 -0.0697 -0.1761  0.6841
  236MOL0     C31757  12.192   6.192   7.242 -0.7270  0.3844  0.4847
  236MOL0     C31758  12.071   6.259   7.210  1.0174  0.8016 -0.6774
  236MOL0     C31759  12.051   6.311   7.087  0.2990  0.0279  0.5150
  236MOL0     C31760  12.133   6.297   6.979  0.3240 -0.3471  0.3807
  236MOL0     O31761  12.111   6.346   6.853  0.1678 -0.5842  0.1908
  236MOL0     C31762  12.174   6.465   6.816 -0.1273  0.6864 -0.0932
  236MOL0     C31763  12.112   6.524   6.688 -0.9453  0.9414  0.7070
  236MOL0     C31764  12.139   6.445   6.564 -0.5209 -0.1699 -1.1523
  236MOL0     C31765  12.086   6.511   6.440  0.0126  0.8350 -0.1422
  236MOL0     C31766  12.133   6.657   6.419  0.4330  0.6761 -0.5691
  236MOL0     C31767  12.081   6.707   6.280 -0.3060 -0.7550  0.6394
  236MOL0     C31768  12.184   6.668   6.170  0.2657 -0.0925  0.2834
  236MOL0     C31769  12.152   6.708   6.025 -0.1258 -0.3340 -0.0012
  236MOL0    Cl31770  12.081   6.868   6.019 -0.3324  0.4667 -0.4842
  236MOL0     C31771  12.252   6.228   7.012 -0.1237  0.5570  0.3472
  236MOL0     C31772  12.286   6.180   7.140 -0.1073 -0.8567  0.3604
  236MOL0     O31773  12.187   6.254   7.512 -0.1365 -0.2087 -0.1496
  236MOL0     C31774  12.233   6.065   7.718 -0.0936 -0.2249 -0.1972
  236MOL0     C31775  12.231   5.974   7.822 -0.1260  0.3014  1.1102
  236MOL0     N31776  11.686   5.714   8.265  0.4611  0.4239 -0.8394
  236MOL0     N31777  11.646   5.594   8.310 -0.2299 -0.0177  0.0065
  236MOL0     C31778  11.242   4.865   9.154 -0.1340  0.0699 -0.0464
  236MOL0     C31779  11.169   4.746   9.201 -0.1248 -0.5544  1.0569
  236MOL0     C31780  10.994   4.401   9.409 -0.1299 -0.2424 -0.1805
  236MOL0     C31781  11.065   4.282   9.418  0.3249  0.0109  1.2439
  236MOL0     C31782  11.003   4.160   9.438 -0.6884  0.5578 -1.5478
  236MOL0     C31783  10.872   4.156   9.465 -0.4269  0.5217  0.1891
  236MOL0     O31784  10.823   4.027   9.478 -0.7424  0.2347  0.3306
  236MOL0     C31785  10.697   4.005   9.533  0.1784 -0.5614 -0.3504
  236MOL0     C31786  10.658   3.862   9.503 -0.2446  0.3637  0.0511
  236MOL0     C31787  10.732   3.769   9.600  0.1450  0.2014 -0.2496
  236MOL0     C31788  10.669   3.628   9.596  0.1149  0.0922  1.0065
  236MOL0     C31789  10.738   3.541   9.700 -0.5027  0.0799 -0.2321
  236MOL0     C31790  10.805   3.453   9.759  0.5768 -0.0130 -0.1186
  236MOL0     C31791  10.795   4.272   9.476  0.1973  0.3289  0.2847
  236MOL0     C31792  10.857   4.396   9.447 -0.1468 -1.3940  0.1729
  236MOL0     H31793  11.419   4.604   9.383 -1.3245 -0.9257  0.1992
  236MOL0     H31794  11.544   4.777   9.284  2.1027  0.3697 -3.8311
  236MOL0     H31795  11.423   4.963   8.962 -0.4078 -2.7815  2.9475
  236MOL0     H31796  11.318   5.087   9.029  0.6469  0.9589  0.1929
  236MOL0     H31797  11.516   5.242   9.080  0.4838 -0.6318  2.5732
  236MOL0     H31798  11.621   5.127   9.003 -0.3843  2.3611  0.7786
  236MOL0     H31799  11.486   5.155   8.788 -0.2800  0.9441 -0.8109
  236MOL0     H31800  11.391   5.281   8.873 -1.1180 -2.1893  1.6890
  236MOL0     H31801  11.643   5.390   8.910 -1.9842  0.7735  0.8081
  236MOL0     H31802  11.708   5.288   8.802  0.1262 -0.5005  0.6409
  236MOL0     H31803  11.534   5.337   8.626 -2.0046 -1.4475  2.4742
  236MOL0     H31804  11.470   5.466   8.712 -0.1533  1.1022  0.0953
  236MOL0     H31805  11.615   5.578   8.578 -3.0810 -0.4238  1.4565
  236MOL0     H31806  11.685   5.586   8.731  0.5095 -3.0324  2.7221
  236MOL0     H31807  11.879   5.535   8.575  1.1738 -1.6213 -2.7339
  236MOL0     H31808  11.841   5.380   8.644  0.1724 -2.4841 -3.9422
  236MOL0     H31809  11.675   5.357   8.435  2.0030 -4.4018  0.9523
  236MOL0     H31810  11.844   5.348   8.396 -1.6937 -2.4311 -0.9289
  236MOL0     H31811  11.972   5.583   8.319  0.1026  1.5671 -0.5579
  236MOL0     H31812  11.844   5.915   8.251  1.6953  1.3687  0.5606
  236MOL0     H31813  11.986   5.839   8.280 -1.0700 -0.6680  0.1602
  236MOL0     H31814  11.978   5.901   8.030  1.2965 -1.3728 -0.3509
  236MOL0     H31815  11.834   5.792   8.007 -0.6924 -4.0555  0.8400
  236MOL0     H31816  11.951   5.605   8.048  2.0167 -1.6861 -2.8386
  236MOL0     H31817  12.102   5.692   8.116  0.3941  1.2030 -0.7473
  236MOL0     H31818  12.012   5.712   7.830 -1.3848 -0.1896  2.0006
  236MOL0     H31819  12.122   5.582   7.887 -2.1882 -0.0812 -2.8620
  236MOL0     H31820  12.181   5.693   7.637  0.6997 -0.3330 -3.0278
  236MOL0     H31821  12.261   5.869   7.351 -0.2572  0.7156 -1.1389
  236MOL0     H31822  12.185   5.723   7.405 -3.8193 -0.0469 -0.7732
  236MOL0     H31823  12.081   5.854   7.368 -0.7122 -5.4365  0.4301
  236MOL0     H31824  11.999   6.272   7.291 -1.4994  1.4499 -2.8602
  236MOL0     H31825  11.962   6.366   7.060  0.3063 -1.2850 -2.6641
  236MOL0     H31826  12.152   6.535   6.896  0.0488 -1.1566  1.6505
  236MOL0     H31827  12.283   6.461   6.824 -0.1981 -2.1414  0.6206
  236MOL0     H31828  12.003   6.528   6.702 -2.2884 -5.3850 -3.6051
  236MOL0     H31829  12.153   6.624   6.673  0.0339  0.4902  0.3571
  236MOL0     H31830  12.089   6.348   6.580 -1.2683  0.3053 -0.5542
  236MOL0     H31831  12.245   6.418   6.557 -0.5154 -0.2142 -0.8919
  236MOL0     H31832  12.125   6.453   6.356 -0.6192 -0.6439  0.5654
  236MOL0     H31833  11.978   6.515   6.426  0.0821  1.0377 -0.6535
  236MOL0     H31834  12.241   6.668   6.432  0.3862 -0.5686  1.1715
  236MOL0     H31835  12.081   6.703   6.503  0.9702 -1.6232  1.1423
  236MOL0     H31836  11.981   6.667   6.264 -0.1538 -1.0442  0.3946
  236MOL0     H31837  12.081   6.816   6.274 -1.6954 -0.5500  3.1047
  236MOL0     H31838  12.190   6.560   6.184 -0.9678 -0.0783  1.0830
  236MOL0     H31839  12.282   6.715   6.183 -0.1504  1.2436 -1.1257
  236MOL0     H31840  12.082   6.636   5.981 -3.6523  2.5145  0.5080
  236MOL0     H31841  12.243   6.719   5.965 -1.0435  1.5368 -1.1534
  236MOL0     H31842  12.318   6.198   6.932 -3.4360 -2.2453 -1.6287
  236MOL0     H31843  12.367   6.110   7.160 -0.1570 -1.4754 -1.3974
  236MOL0     H31844  12.214   6.170   7.743 -2.3390  0.4035 -3.8111
  236MOL0     H31845  12.242   6.000   7.926 -0.6239 -0.1379  1.2776
  236MOL0     H31846  11.189   4.948   9.109 -0.3638 -0.6878 -1.2331
  236MOL0     H31847  11.063   4.745   9.178 -0.0935  0.6032  0.7902
  236MOL0     H31848  11.173   4.275   9.409  0.3798 -0.9284  2.4027
  236MOL0     H31849  11.065   4.071   9.429  2.7856  2.8141 -1.6443
  236MOL0     H31850  10.692   4.029   9.640  0.0182 -3.4965  0.3665
  236MOL0     H31851  10.635   4.064   9.465  2.2909 -0.9329 -2.7673
  236MOL0     H31852  10.674   3.841   9.397 -0.4142 -0.2658  0.1449
  236MOL0     H31853  10.550   3.856   9.522 -0.2192  0.1209  0.1312
  236MOL0     H31854  10.725   3.811   9.701 -2.5451 -3.2011  1.1841
  236MOL0     H31855  10.834   3.747   9.567  0.4575 -3.3572  2.5263
  236MOL0     H31856  10.671   3.593   9.492 -2.8710 -1.2573  1.3026
  236MOL0     H31857  10.563   3.642   9.621 -0.7700 -1.4788 -1.4502
  236MOL0     H31858  10.861   3.370   9.797 -0.1698  0.4276  2.1205
  236MOL0     H31859  10.689   4.279   9.502 -0.9187 -2.8045 -2.6727
  236MOL0     H31860  10.798   4.488   9.452  0.0448 -1.2960  0.6809
  237MOL0     O31861   2.339  10.285   5.245 -0.2667  1.0045 -0.0211
  237MOL0     C31862   2.266  10.304   5.338  0.0675 -0.1775  0.1599
  237MOL0     O31863   2.267  10.414   5.413 -0.6530  0.2542 -0.8063
  237MOL0     C31864   2.346  10.525   5.389  0.6022  0.1993 -0.0631
  237MOL0     C31865   2.473  10.531   5.338  1.2742  0.0753 -0.1910
  237MOL0     C31866   2.551  10.645   5.332 -0.2405 -1.1459  0.2346
  237MOL0     C31867   2.490  10.760   5.388 -0.6958  0.0217 -0.7716
  237MOL0     O31868   2.572  10.872   5.377  0.0721  0.2649  0.0105
  237MOL0     C31869   2.546  10.997   5.431 -0.1535 -0.1324 -0.6160
  237MOL0     C31870   2.674  11.083   5.422 -0.2309 -0.5923 -1.5170
  237MOL0     C31871   2.704  11.113   5.274 -1.8446 -1.1539  0.3052
  237MOL0     C31872   2.598  11.171   5.188 -0.3570  0.4485  0.0839
  237MOL0     C31873   2.657  11.232   5.056  0.5267 -0.8522  0.1773
  237MOL0     C31874   2.732  11.373   5.071  0.0609  0.1993  1.1923
  237MOL0     C31875   2.820  11.414   4.943 -0.1307 -0.3749  0.0354
  237MOL0     C31876   2.949  11.334   4.915 -0.8128  0.1118 -0.6777
  237MOL0     N31877   3.067  11.426   4.889 -0.5395  0.0149  1.2686
  237MOL0     C31878   3.135  11.489   4.990  0.2861 -0.3669  0.0708
  237MOL0     C31879   3.249  11.533   4.931 -0.0628  0.1888  1.4208
  237MOL0     C31880   3.349  11.617   5.009  0.3024  0.8103  0.0590
  237MOL0     C31881   3.423  11.527   5.108  0.4882 -0.3951 -0.1086
  237MOL0     C31882   3.536  11.601   5.175  0.1781  0.8765 -0.9547
  237MOL0     C31883   3.565  11.528   5.314 -0.4435  0.3217 -0.2316
  237MOL0     O31884   3.492  11.582   5.423 -0.0966 -0.0351  0.1307
  237MOL0     C31885   3.511  11.540   5.552 -1.4459  0.0297  0.3989
  237MOL0     C31886   3.598  11.440   5.591 -0.1710  0.0428 -0.6547
  237MOL0     C31887   3.606  11.392   5.723 -0.6854 -0.2952 -0.7429
  237MOL0     C31888   3.705  11.277   5.734  0.2390 -0.1026  0.1691
  237MOL0     C31889   3.543  11.464   5.831  0.9889 -0.2054  1.0217
  237MOL0     C31890   3.554  11.439   5.971  0.2942 -0.0160  0.1069
  237MOL0     O31891   3.460  11.495   6.055  0.4770 -0.7371  0.3700
  237MOL0     C31892   3.464  11.460   6.188 -0.5182 -0.5673  0.4750
  237MOL0     C31893   3.581  11.490   6.262 -0.0252 -1.6209 -0.3138
  237MOL0     C31894   3.578  11.472   6.401  0.4925 -0.4153 -0.2683
  237MOL0     C31895   3.463  11.445   6.462 -0.3081 -0.7179 -0.2706
  237MOL0     O31896   3.492  11.433   6.599 -0.2914 -0.1524 -0.0247
  237MOL0     C31897   3.375  11.426   6.679 -0.7410  0.7334 -0.9459
  237MOL0     C31898   3.329  11.277   6.696  0.1080 -0.3725  0.3942
  237MOL0     C31899   3.182  11.271   6.754  0.5297  0.6398  0.9318
  237MOL0     C31900   3.127  11.120   6.761 -0.3101  0.8506 -0.0106
  237MOL0     C31901   3.131  11.033   6.632  0.4206 -0.6418 -0.1175
  237MOL0     C31902   3.050  11.098   6.522  0.4437  0.1918  0.0437
  237MOL0     C31903   3.069  11.037   6.385  0.1315  0.3573  0.4695
  237MOL0     C31904   2.981  11.080   6.270  0.1084 -0.4269  0.2717
  237MOL0    Cl31905   3.009  11.255   6.246  0.0464  0.1520  0.5089
  237MOL0     C31906   3.341  11.439   6.394 -1.5138  1.0942 -0.6695
  237MOL0     C31907   3.341  11.457   6.260  0.4351  0.4602 -0.4774
  237MOL0     O31908   3.662  11.398   5.999  1.3248 -0.2586  0.3576
  237MOL0     C31909   3.443  11.556   5.786  0.1693 -0.1502  0.2112
  237MOL0     C31910   3.425  11.594   5.652 -0.2250  0.4774  0.3900
  237MOL0     N31911   3.259  11.493   4.795 -0.5511 -0.3016  0.4615
  237MOL0     N31912   3.150  11.420   4.773  0.2456 -0.7006 -0.0371
  237MOL0     C31913   2.362  10.760   5.449 -1.3336  0.4712 -0.2750
  237MOL0     C31914   2.292  10.643   5.441 -0.9648  1.6198 -0.8799
  237MOL0     C31915   2.173  10.184   5.369  0.0551 -0.4612 -0.0210
  237MOL0     C31916   2.134  10.178   5.499 -0.1751 -0.1098  0.1073
  237MOL0     C31917   2.065  10.065   5.544  0.0857 -0.5807  0.2749
  237MOL0     C31918   2.046   9.958   5.463  0.1355  0.1510  0.2248
  237MOL0     O31919   1.988   9.841   5.498 -0.2178 -0.5629 -0.3446
  237MOL0     C31920   1.874   9.848   5.589 -0.2867  0.2906 -0.6430
  237MOL0     C31921   1.752   9.898   5.513  0.4751 -0.2696 -0.3260
  237MOL0     C31922   1.621   9.847   5.563 -0.6137 -0.2205 -0.5677
  237MOL0     C31923   1.503   9.904   5.496 -0.1626  0.2652  0.1917
  237MOL0     C31924   1.496   9.870   5.352 -0.5032  0.3558 -1.3972
  237MOL0     C31925   1.480   9.864   5.232 -0.0507 -0.0758  1.0207
  237MOL0     C31926   2.083   9.963   5.332  0.7586  0.2050  0.0874
  237MOL0     C31927   2.138  10.078   5.284 -0.1657  0.1746 -0.0845
  237MOL0     H31928   2.524  10.440   5.308  0.8584  0.3055 -1.6682
  237MOL0     H31929   2.648  10.656   5.285 -0.8631 -0.4927 -0.9537
  237MOL0     H31930   2.460  11.040   5.379  0.2450  2.8101  0.9128
  237MOL0     H31931   2.522  10.981   5.537  2.6568 -1.5338 -0.0956
  237MOL0     H31932   2.659  11.175   5.478 -2.2367 -1.2188 -0.9360
  237MOL0     H31933   2.761  11.030   5.462  1.0408  2.5346  0.1437
  237MOL0     H31934   2.780  11.189   5.293 -2.9443 -0.5552  2.6668
  237MOL0     H31935   2.748  11.034   5.211  2.8063  0.7883  0.6850
  237MOL0     H31936   2.516  11.103   5.163 -0.8024  0.7803  0.6235
  237MOL0     H31937   2.564  11.262   5.238  3.1433  2.4570 -0.8153
  237MOL0     H31938   2.716  11.153   5.009  1.3485 -0.9325  1.3036
  237MOL0     H31939   2.570  11.250   4.992 -0.5243 -0.7377  1.5941
  237MOL0     H31940   2.655  11.447   5.092 -1.7347 -2.1721  3.5924
  237MOL0     H31941   2.798  11.378   5.158  0.3630 -2.5738  1.2227
  237MOL0     H31942   2.750  11.421   4.860  0.1853  3.7507 -0.1211
  237MOL0     H31943   2.833  11.522   4.956 -0.3579 -0.0490 -2.1754
  237MOL0     H31944   2.912  11.263   4.840 -1.4466 -0.2694 -0.0212
  237MOL0     H31945   2.981  11.261   4.990 -2.0725  1.6992  1.5262
  237MOL0     H31946   3.103  11.504   5.092  2.4724 -0.7299  0.8779
  237MOL0     H31947   3.413  11.660   4.932 -0.7401  1.4176 -0.4992
  237MOL0     H31948   3.293  11.695   5.062  1.6038  1.3390  0.6810
  237MOL0     H31949   3.453  11.436   5.056  0.0027 -0.8811  0.4438
  237MOL0     H31950   3.356  11.501   5.191  0.3951  0.4054  0.0685
  237MOL0     H31951   3.505  11.706   5.186 -0.4002  0.9219 -2.7795
  237MOL0     H31952   3.629  11.601   5.118 -1.1176  1.4910 -3.1600
  237MOL0     H31953   3.668  11.546   5.344 -0.6278  0.1024  0.5478
  237MOL0     H31954   3.547  11.422   5.298  1.8679 -0.2855  0.7812
  237MOL0     H31955   3.661  11.406   5.509 -0.6196 -0.8132 -0.6548
  237MOL0     H31956   3.673  11.203   5.660 -0.0039  1.4010 -1.2864
  237MOL0     H31957   3.803  11.298   5.691  0.7624 -1.6701  0.5113
  237MOL0     H31958   3.706  11.232   5.834 -0.6666  1.4734  0.9093
  237MOL0     H31959   3.676  11.527   6.225  1.7082  0.8981  5.4588
  237MOL0     H31960   3.671  11.500   6.448  0.5027 -2.6511  1.1640
  237MOL0     H31961   3.394  11.478   6.774  0.2167 -2.8537  1.0296
  237MOL0     H31962   3.302  11.485   6.624 -0.8580  3.5385  1.9554
  237MOL0     H31963   3.327  11.229   6.598  0.0652  2.3470 -1.0322
  237MOL0     H31964   3.396  11.230   6.768 -0.5215 -1.6561  0.1691
  237MOL0     H31965   3.112  11.313   6.681  1.2956  2.9649  1.4644
  237MOL0     H31966   3.175  11.331   6.845  1.1870  3.9589 -1.0434
  237MOL0     H31967   3.176  11.075   6.848 -0.6744  3.6550  1.7788
  237MOL0     H31968   3.023  11.122   6.795 -1.3977 -3.2446 -2.3635
  237MOL0     H31969   3.084  10.939   6.663 -0.0516 -0.1820  0.5752
  237MOL0     H31970   3.239  11.030   6.614  0.9061  3.2661  1.2272
  237MOL0     H31971   2.944  11.095   6.548  0.0877  1.8185 -1.0408
  237MOL0     H31972   3.071  11.204   6.506  0.8949 -0.2046 -2.3727
  237MOL0     H31973   3.054  10.931   6.404  0.5668  0.3708  0.8963
  237MOL0     H31974   3.172  11.051   6.351 -0.2520  0.6338 -0.6186
  237MOL0     H31975   2.878  11.049   6.293  0.4093  0.1858  2.6105
  237MOL0     H31976   3.011  11.011   6.190 -1.6337  2.0466 -2.7430
  237MOL0     H31977   3.253  11.398   6.442  1.3423 -3.6806  1.2948
  237MOL0     H31978   3.246  11.453   6.209  0.2461 -0.7326 -0.0719
  237MOL0     H31979   3.386  11.603   5.865 -0.6679  1.4587 -1.2842
  237MOL0     H31980   3.355  11.673   5.626 -1.9968 -1.9981 -3.0800
  237MOL0     H31981   2.329  10.850   5.499  3.8469  3.2486 -1.2167
  237MOL0     H31982   2.195  10.639   5.491 -1.3303  0.1503 -1.6237
  237MOL0     H31983   2.148  10.248   5.580  4.0923  0.3291 -0.7779
  237MOL0     H31984   2.019  10.067   5.643  0.3327  1.0283  0.3758
  237MOL0     H31985   1.862   9.744   5.622 -1.2163  0.6967  0.3720
  237MOL0     H31986   1.877   9.907   5.681 -1.5114 -0.4429 -0.1026
  237MOL0     H31987   1.762   9.867   5.409 -2.7055  0.3461 -0.9240
  237MOL0     H31988   1.745  10.008   5.512 -3.0662 -0.3570  0.5758
  237MOL0     H31989   1.623   9.878   5.668  0.2585 -0.1748 -0.5965
  237MOL0     H31990   1.606   9.739   5.568 -0.3097 -0.1958  1.9023
  237MOL0     H31991   1.507  10.013   5.506  2.5732  0.0000  4.7684
  237MOL0     H31992   1.414   9.860   5.542 -0.0322 -0.5832 -0.3423
  237MOL0     H31993   1.458   9.872   5.128  1.9368  0.0150  0.5669
  237MOL0     H31994   2.061   9.878   5.269  0.2553  0.6808 -0.3975
  237MOL0     H31995   2.175  10.087   5.183 -1.0937  1.8804 -0.3110
  238MOL0     O31996   7.072   5.524  10.787 -0.2209  0.0353  0.3686
  238MOL0     C31997   6.991   5.505  10.876  0.4483 -0.2403  0.0542
  238MOL0     O31998   6.927   5.387  10.897  0.5800 -0.0826 -0.5733
  238MOL0     C31999   6.897   5.304  10.790 -0.1519  0.0099  0.0452
  238MOL0     C32000   6.933   5.307  10.652  0.9810 -0.5179 -0.5471
  238MOL0     C32001   6.900   5.210  10.556 -1.5592  0.5604 -0.4537
  238MOL0     C32002   6.804   5.112  10.581  0.3490 -0.0637 -0.2467
  238MOL0     O32003   6.766   5.031  10.477  0.1049  0.2860 -0.7088
  238MOL0     C32004   6.744   4.889  10.519 -0.2917 -0.3282 -0.0655
  238MOL0     C32005   6.601   4.830  10.484  0.3028  0.0245 -1.1463
  238MOL0     C32006   6.565   4.859  10.343  0.2183 -0.3173 -0.3380
  238MOL0     C32007   6.456   4.754  10.298  0.2324  0.3377 -0.5597
  238MOL0     C32008   6.397   4.807  10.164  0.5044  1.0175 -0.0474
  238MOL0     C32009   6.315   4.687  10.095 -0.2618 -0.1951  0.4990
  238MOL0     C32010   6.194   4.648  10.184 -0.3497  0.1993 -0.2350
  238MOL0     C32011   6.106   4.556  10.100 -0.5203 -1.0669 -0.1191
  238MOL0     N32012   6.016   4.477  10.183  0.6685  0.2378 -1.0230
  238MOL0     C32013   5.913   4.525  10.263  0.3454  0.2717 -0.9116
  238MOL0     C32014   5.870   4.413  10.337 -0.5409  0.2406  0.0186
  238MOL0     C32015   5.757   4.429  10.428 -0.9014  0.2434  1.0767
  238MOL0     C32016   5.673   4.299  10.432 -1.1278 -0.5125 -0.2288
  238MOL0     C32017   5.530   4.298  10.488 -0.0567  0.1075 -0.0887
  238MOL0     C32018   5.517   4.370  10.619 -0.0496  0.5032 -0.2541
  238MOL0     O32019   5.380   4.389  10.670  0.1656 -0.0938  0.1951
  238MOL0     C32020   5.359   4.480  10.772 -0.0641  1.1088  0.6789
  238MOL0     C32021   5.458   4.517  10.850 -0.3982 -0.1017 -0.6789
  238MOL0     C32022   5.460   4.636  10.922 -0.6541 -0.2783 -0.3619
  238MOL0     C32023   5.585   4.681  10.989 -0.1647 -0.8710  0.3444
  238MOL0     C32024   5.340   4.717  10.924 -0.4281  0.2367  0.4679
  238MOL0     C32025   5.332   4.845  10.989  0.6392  0.0721 -0.2389
  238MOL0     O32026   5.450   4.901  11.040  0.6863 -0.0994  0.0633
  238MOL0     C32027   5.437   5.028  11.101 -0.6862 -0.5544 -0.3937
  238MOL0     C32028   5.401   5.145  11.023  0.1258  0.5468 -0.3519
  238MOL0     C32029   5.412   5.272  11.065  0.7862  0.4035 -0.3421
  238MOL0     C32030   5.449   5.289  11.197  0.4168  0.4892 -0.4154
  238MOL0     O32031   5.433   5.414  11.254 -0.5440 -0.0870 -0.6856
  238MOL0     C32032   5.297   5.437  11.308 -0.0332 -1.2976 -1.3425
  238MOL0     C32033   5.239   5.579  11.274  0.2414 -0.4079  0.4185
  238MOL0     C32034   5.214   5.587  11.118  0.3231 -0.5228 -1.3134
  238MOL0     C32035   5.138   5.706  11.066  0.1377 -0.1615  0.4956
  238MOL0     C32036   5.188   5.737  10.924  0.1684  0.0905 -1.1610
  238MOL0     C32037   5.338   5.779  10.916  1.3951  0.5653  0.7129
  238MOL0     C32038   5.372   5.851  10.789 -1.6714 -0.2447 -0.2195
  238MOL0     C32039   5.526   5.884  10.773  0.2760  0.5907 -0.1486
  238MOL0    Cl32040   5.619   5.724  10.769 -0.1702 -0.3166  0.2872
  238MOL0     C32041   5.502   5.190  11.276  0.0468  0.5486  1.0823
  238MOL0     C32042   5.494   5.056  11.234 -0.2332 -0.4850  0.2775
  238MOL0     O32043   5.214   4.890  11.000 -0.3798 -0.2875  0.3930
  238MOL0     C32044   5.227   4.663  10.859 -0.0233 -0.1245  0.9835
  238MOL0     C32045   5.236   4.549  10.782  0.8669  0.8986 -0.5134
  238MOL0     N32046   5.944   4.306  10.290  0.2659 -0.1248  0.0451
  238MOL0     N32047   6.033   4.343  10.207 -0.1899 -0.4450  0.2000
  238MOL0     C32048   6.766   5.114  10.720  0.0799 -0.1316 -0.2847
  238MOL0     C32049   6.816   5.204  10.813  0.5041  0.8713  1.1820
  238MOL0     C32050   6.958   5.634  10.953 -0.4244  0.0915  0.6432
  238MOL0     C32051   6.848   5.644  11.027  0.3333 -0.2812 -0.1407
  238MOL0     C32052   6.821   5.756  11.104 -0.2833 -1.1157 -0.3947
  238MOL0     C32053   6.905   5.864  11.094  0.5052  1.2074  0.2459
  238MOL0     O32054   6.888   5.971  11.171  0.4960 -0.0618  0.0744
  238MOL0     C32055   7.002   6.012  11.247 -0.3153 -0.2280  0.4663
  238MOL0     C32056   6.957   6.118  11.348  0.2619 -0.3131 -0.6114
  238MOL0     C32057   6.849   6.218  11.314 -0.5784  0.5436  0.5007
  238MOL0     C32058   6.717   6.182  11.366 -0.0932 -0.4046  0.3656
  238MOL0     C32059   6.622   6.283  11.331  0.8021  0.0952  0.0679
  238MOL0     C32060   6.540   6.369  11.303 -0.3739 -0.2047  0.7429
  238MOL0     C32061   7.021   5.864  11.006  0.7244  0.7373  0.5872
  238MOL0     C32062   7.050   5.746  10.940  0.5468  0.4530 -0.2266
  238MOL0     H32063   6.992   5.391  10.617  2.0034 -1.1821 -0.4723
  238MOL0     H32064   6.942   5.227  10.458  0.2411  1.4313  0.4403
  238MOL0     H32065   6.820   4.823  10.476  0.4855  0.0626  0.6901
  238MOL0     H32066   6.770   4.887  10.625  0.4659  4.7190  0.0608
  238MOL0     H32067   6.596   4.724  10.509 -3.3945  0.2042 -0.5309
  238MOL0     H32068   6.537   4.884  10.554  3.8199  1.6180  1.1476
  238MOL0     H32069   6.523   4.959  10.342  1.0106  0.0314  0.0815
  238MOL0     H32070   6.649   4.838  10.275  0.2758 -1.4368  0.0571
  238MOL0     H32071   6.498   4.653  10.298 -2.6152 -0.9437  0.0831
  238MOL0     H32072   6.381   4.744  10.376 -1.4980  1.9385 -1.9045
  238MOL0     H32073   6.341   4.900  10.175 -1.1295  0.2599 -1.5145
  238MOL0     H32074   6.482   4.816  10.097 -0.4051 -1.1086 -1.5782
  238MOL0     H32075   6.265   4.712  10.001 -0.9546 -2.0934  0.3147
  238MOL0     H32076   6.380   4.604  10.067  1.0817  1.2091 -0.6849
  238MOL0     H32077   6.238   4.598  10.271  1.1160 -0.1460 -1.1368
  238MOL0     H32078   6.130   4.730  10.217  3.3305  3.3036 -0.0883
  238MOL0     H32079   6.177   4.491  10.048 -0.5500  0.6192 -2.4198
  238MOL0     H32080   6.055   4.607  10.018  1.7343  2.7636  0.6300
  238MOL0     H32081   5.864   4.622  10.258  1.5191  0.8820 -0.9822
  238MOL0     H32082   5.796   4.454  10.527 -0.1588  1.2479  0.5472
  238MOL0     H32083   5.683   4.505  10.402  0.7302  1.9862  1.2905
  238MOL0     H32084   5.733   4.230  10.493 -2.5094 -2.1023 -0.6054
  238MOL0     H32085   5.670   4.255  10.332  3.7557 -0.3569 -0.6817
  238MOL0     H32086   5.514   4.191  10.507 -0.6453 -0.1390 -1.7381
  238MOL0     H32087   5.469   4.337  10.406  0.4079 -1.7144 -1.3797
  238MOL0     H32088   5.575   4.463  10.618 -0.4702  0.7641 -1.6858
  238MOL0     H32089   5.567   4.306  10.693 -1.5290  0.9655  1.1907
  238MOL0     H32090   5.548   4.456  10.855  0.0019  0.5838  1.5895
  238MOL0     H32091   5.580   4.712  11.093 -2.2222 -2.3880  0.7759
  238MOL0     H32092   5.651   4.595  11.000 -0.3588 -0.7891  2.4771
  238MOL0     H32093   5.644   4.752  10.930 -0.2972 -0.2075  0.9975
  238MOL0     H32094   5.359   5.131  10.924 -1.0669 -0.3872  0.2552
  238MOL0     H32095   5.376   5.361  11.015  1.3338 -0.0049 -1.4935
  238MOL0     H32096   5.231   5.354  11.282 -2.6051  0.1460  0.2173
  238MOL0     H32097   5.300   5.429  11.417  0.5987  1.6412 -1.0621
  238MOL0     H32098   5.143   5.582  11.326 -1.9642 -0.8417 -3.3073
  238MOL0     H32099   5.300   5.664  11.306 -1.1972  2.4047 -3.5471
  238MOL0     H32100   5.172   5.492  11.082  1.2325 -0.6710 -2.0314
  238MOL0     H32101   5.315   5.583  11.076  0.8866 -1.0101  0.0417
  238MOL0     H32102   5.031   5.685  11.055 -0.8771  3.2643  2.3088
  238MOL0     H32103   5.142   5.793  11.133 -3.0552 -0.2966  1.0383
  238MOL0     H32104   5.125   5.816  10.884  0.1710  0.9430  0.4176
  238MOL0     H32105   5.174   5.653  10.856  2.5621 -0.9653 -0.4612
  238MOL0     H32106   5.359   5.837  11.006 -2.1479  3.2477 -0.0019
  238MOL0     H32107   5.396   5.686  10.920 -1.0400 -1.0475  0.6933
  238MOL0     H32108   5.334   5.953  10.783  0.5838  0.5869 -2.3086
  238MOL0     H32109   5.333   5.793  10.705  2.5241  0.0067 -2.6577
  238MOL0     H32110   5.559   5.944  10.857 -2.3306 -0.2259  1.6024
  238MOL0     H32111   5.538   5.947  10.684  1.2110 -1.0305 -1.2260
  238MOL0     H32112   5.542   5.202  11.376  0.4832 -2.4596  1.3538
  238MOL0     H32113   5.525   4.970  11.293  1.3733 -0.9179 -1.1275
  238MOL0     H32114   5.132   4.715  10.870 -0.9031 -1.2852 -0.5569
  238MOL0     H32115   5.152   4.499  10.735 -0.0885  0.1342  1.8588
  238MOL0     H32116   6.702   5.031  10.749 -1.9378  1.4177 -0.1104
  238MOL0     H32117   6.769   5.196  10.910 -1.8918 -1.7805 -0.0702
  238MOL0     H32118   6.791   5.553  11.043 -0.2349 -0.2983 -2.0154
  238MOL0     H32119   6.731   5.765  11.164 -1.3237 -0.6655 -1.9381
  238MOL0     H32120   7.049   5.937  11.312  0.1570  0.7743  1.3134
  238MOL0     H32121   7.077   6.059  11.183  1.7528  0.5967  3.2647
  238MOL0     H32122   7.049   6.171  11.375  0.8004 -1.8432  0.7088
  238MOL0     H32123   6.917   6.053  11.427 -2.6907  0.9201 -0.9641
  238MOL0     H32124   6.850   6.225  11.205 -1.0094 -0.4791  0.4248
  238MOL0     H32125   6.884   6.318  11.342  3.7887 -0.9820  1.3127
  238MOL0     H32126   6.711   6.166  11.474 -2.9696  1.7707  0.6376
  238MOL0     H32127   6.691   6.088  11.317  2.3407 -1.6444  1.2695
  238MOL0     H32128   6.471   6.451  11.293 -0.3245 -0.2966 -0.6427
  238MOL0     H32129   7.076   5.957  10.998  1.4034  0.3754  1.0060
  238MOL0     H32130   7.139   5.735  10.879  0.3363 -2.0685 -0.2032
  239MOL0     O32131   7.790   2.991   3.505  0.0926  0.3040 -0.1157
  239MOL0     C32132   7.910   3.005   3.522  0.8478 -0.0140  0.3891
  239MOL0     O32133   8.012   3.048   3.439 -0.3404  0.1445 -0.0357
  239MOL0     C32134   7.992   3.076   3.307 -0.1657  0.5030 -0.8323
  239MOL0     C32135   8.055   2.994   3.219  0.4465  1.3872  0.2750
  239MOL0     C32136   8.045   3.019   3.081 -0.1041  0.3977 -0.0763
  239MOL0     C32137   7.952   3.112   3.031  0.1828  0.7903  0.2695
  239MOL0     O32138   7.939   3.120   2.895  0.0997 -0.4127 -0.2005
  239MOL0     C32139   7.803   3.090   2.853 -0.6893 -0.4481  0.4021
  239MOL0     C32140   7.793   3.136   2.709 -0.0339 -0.1556  0.8085
  239MOL0     C32141   7.841   3.026   2.618 -0.4083  0.1032 -0.0759
  239MOL0     C32142   7.862   3.065   2.472 -0.0579 -0.3693 -0.1069
  239MOL0     C32143   7.913   2.953   2.384  0.5146  0.3624 -1.0532
  239MOL0     C32144   7.804   2.835   2.388  0.4221  0.2043 -0.3429
  239MOL0     C32145   7.828   2.713   2.315 -0.2983 -0.0626 -0.7134
  239MOL0     C32146   7.951   2.641   2.370 -0.2149  0.0375 -0.4268
  239MOL0     N32147   7.979   2.535   2.271 -0.1189  0.0182  0.6997
  239MOL0     C32148   8.099   2.512   2.212  0.0054  0.3918  1.6194
  239MOL0     C32149   8.078   2.409   2.126  0.1416 -0.0772 -0.5859
  239MOL0     C32150   8.159   2.336   2.038 -0.4848 -0.6899 -0.6766
  239MOL0     C32151   8.152   2.399   1.899 -0.1530  0.3117  0.5286
  239MOL0     C32152   8.274   2.493   1.894  0.0505 -0.4022 -0.9235
  239MOL0     C32153   8.278   2.586   1.772 -0.1389 -0.6740  0.8215
  239MOL0     O32154   8.310   2.507   1.658 -0.5464  0.1253  0.1053
  239MOL0     C32155   8.339   2.568   1.545 -0.8977  0.6336  0.0078
  239MOL0     C32156   8.472   2.565   1.495  0.2013  0.6934  0.2292
  239MOL0     C32157   8.498   2.633   1.378 -0.5399 -0.4706  1.3579
  239MOL0     C32158   8.639   2.602   1.325  0.4506  0.7881 -0.8559
  239MOL0     C32159   8.397   2.711   1.308  0.2665 -0.3300 -0.3476
  239MOL0     C32160   8.426   2.793   1.189 -0.1750 -0.0286  0.3252
  239MOL0     O32161   8.322   2.828   1.103  0.4505 -1.1155  0.2048
  239MOL0     C32162   8.338   2.900   0.988  0.4245  0.9169  0.7252
  239MOL0     C32163   8.298   3.032   0.982 -0.5483  0.4818 -0.2153
  239MOL0     C32164   8.306   3.109   0.871 -0.4565  0.0292  0.5527
  239MOL0     C32165   8.342   3.046   0.747  0.1415  0.0367 -0.4362
  239MOL0     O32166   8.340   3.127   0.635  0.3292  0.0662 -0.1611
  239MOL0     C32167   8.441   3.100   0.524 -0.7584  0.8760  0.4372
  239MOL0     C32168   8.397   3.162   0.394 -0.4989  0.5727  0.2993
  239MOL0     C32169   8.309   3.071   0.305  0.6693 -1.0299  0.6631
  239MOL0     C32170   8.292   3.139   0.156 -0.4095  0.1331 -0.4839
  239MOL0     C32171   8.243   3.037   0.051 -0.6846 -0.1437 -0.1002
  239MOL0     C32172   8.347   2.946  -0.010 -0.0669  0.9026 -0.7435
  239MOL0     C32173   8.288   2.858  -0.117 -0.3398 -0.3838 -0.4824
  239MOL0     C32174   8.394   2.834  -0.213  0.0985 -0.0365  0.1212
  239MOL0    Cl32175   8.352   2.722  -0.347 -0.0111  0.2658  0.1609
  239MOL0     C32176   8.394   2.923   0.751  0.1123  0.0102  0.3201
  239MOL0     C32177   8.396   2.852   0.873  0.5650  0.4205  0.0639
  239MOL0     O32178   8.541   2.825   1.169 -0.1826  0.2956  0.2541
  239MOL0     C32179   8.259   2.690   1.347  0.4029  0.0150  0.1374
  239MOL0     C32180   8.240   2.623   1.463  0.9716  0.3187 -0.4286
  239MOL0     N32181   7.943   2.380   2.141 -0.9614 -0.6031 -0.3008
  239MOL0     N32182   7.883   2.443   2.239  0.1497  0.2870  0.0016
  239MOL0     C32183   7.893   3.203   3.123  0.1616 -0.3952  0.1792
  239MOL0     C32184   7.916   3.182   3.259 -0.9260 -0.6346  0.3118
  239MOL0     C32185   7.947   2.992   3.664 -1.0949  0.1753 -0.0699
  239MOL0     C32186   7.889   2.902   3.760  0.2570 -0.7841  0.8118
  239MOL0     C32187   7.937   2.886   3.882 -0.2590 -0.1242  1.2585
  239MOL0     C32188   8.035   2.970   3.927 -0.1337 -0.3376 -0.1572
  239MOL0     O32189   8.072   2.972   4.056 -0.5652  0.2769  0.0888
  239MOL0     C32190   8.024   2.864   4.143 -0.3989 -0.7058 -0.4100
  239MOL0     C32191   8.084   2.886   4.285  0.2816 -0.0925 -1.0058
  239MOL0     C32192   8.016   2.794   4.396  0.6727  0.3762  0.6304
  239MOL0     C32193   7.866   2.770   4.404  0.2865 -0.0816 -0.2084
  239MOL0     C32194   7.791   2.888   4.382 -0.4689  0.8528 -0.3410
  239MOL0     C32195   7.741   2.998   4.392 -0.0672 -0.2769 -0.5714
  239MOL0     C32196   8.098   3.059   3.839  0.6960 -0.1751  0.0932
  239MOL0     C32197   8.063   3.066   3.703  0.9570 -0.5405  0.3984
  239MOL0     H32198   8.112   2.912   3.262  0.7336  1.1076 -0.6143
  239MOL0     H32199   8.092   2.960   3.003 -1.2251  0.7491 -1.0506
  239MOL0     H32200   7.763   2.988   2.861  0.9269 -1.2228 -0.8448
  239MOL0     H32201   7.736   3.149   2.916  0.6167  0.9890  0.4868
  239MOL0     H32202   7.687   3.152   2.686  0.5630  0.2613 -2.0336
  239MOL0     H32203   7.853   3.226   2.695 -0.2679  0.0454  1.0830
  239MOL0     H32204   7.942   2.996   2.645 -0.6497  0.2474  1.0322
  239MOL0     H32205   7.755   2.958   2.626  0.0583 -0.2708  5.4618
  239MOL0     H32206   7.772   3.101   2.421  0.5817 -1.5388 -2.1851
  239MOL0     H32207   7.939   3.143   2.476  1.8096 -2.1652  0.6153
  239MOL0     H32208   7.925   2.989   2.281 -0.2645 -0.0162 -1.2893
  239MOL0     H32209   8.008   2.921   2.428 -0.2271 -0.4584 -0.0060
  239MOL0     H32210   7.814   2.799   2.491  0.8716 -2.2504 -1.1561
  239MOL0     H32211   7.710   2.868   2.344  0.6018 -1.7450 -2.4286
  239MOL0     H32212   7.740   2.648   2.316 -1.4909  1.4588 -1.7602
  239MOL0     H32213   7.845   2.728   2.208 -0.4354  0.9814 -0.5926
  239MOL0     H32214   7.937   2.601   2.471 -2.6657  0.4101 -0.5727
  239MOL0     H32215   8.036   2.708   2.386 -2.5604  2.8710  1.2110
  239MOL0     H32216   8.195   2.555   2.238  0.8768 -0.4803  0.0202
  239MOL0     H32217   8.256   2.340   2.090  0.4080 -1.6582 -2.1782
  239MOL0     H32218   8.124   2.233   2.037  0.7174 -1.1096 -0.8122
  239MOL0     H32219   8.061   2.455   1.875  1.1805  1.7562 -1.4422
  239MOL0     H32220   8.162   2.323   1.821 -0.7808 -1.1303  1.7902
  239MOL0     H32221   8.358   2.424   1.902 -0.5550 -0.9351  4.5318
  239MOL0     H32222   8.284   2.556   1.982  1.6684  1.1102 -2.1016
  239MOL0     H32223   8.351   2.667   1.782 -0.6310  0.4442 -2.9559
  239MOL0     H32224   8.182   2.630   1.743 -2.7543 -3.2916  4.5751
  239MOL0     H32225   8.543   2.495   1.538 -0.6970 -0.8182 -0.6999
  239MOL0     H32226   8.690   2.532   1.391  1.4861 -0.5523 -2.9590
  239MOL0     H32227   8.639   2.552   1.228  0.4656 -0.5591 -0.1900
  239MOL0     H32228   8.705   2.690   1.321  0.6964  0.6549  0.0712
  239MOL0     H32229   8.263   3.082   1.073  0.5875 -1.3812  1.3205
  239MOL0     H32230   8.275   3.213   0.866  3.6543  1.3845 -0.8910
  239MOL0     H32231   8.534   3.148   0.556 -1.1577  1.1331  1.2473
  239MOL0     H32232   8.451   2.993   0.506 -4.3520  0.5875 -0.5742
  239MOL0     H32233   8.353   3.261   0.413 -1.5840  0.3516 -0.9489
  239MOL0     H32234   8.489   3.184   0.339 -0.4550 -4.0171 -1.9185
  239MOL0     H32235   8.209   3.045   0.343  0.2808 -1.9719 -0.9025
  239MOL0     H32236   8.359   2.974   0.304  2.4482 -0.2008 -2.2188
  239MOL0     H32237   8.204   3.203   0.166  1.3209  2.5428  0.0237
  239MOL0     H32238   8.378   3.190   0.112  0.2444 -1.0573 -0.6532
  239MOL0     H32239   8.192   3.098  -0.024 -0.9232 -0.3471 -0.1093
  239MOL0     H32240   8.154   2.987   0.093 -1.9158  0.8293 -1.4538
  239MOL0     H32241   8.411   3.022  -0.057 -0.6742  0.6667 -1.9964
  239MOL0     H32242   8.403   2.891   0.066 -1.3394  0.6943  0.0609
  239MOL0     H32243   8.211   2.917  -0.167  1.6158  1.1546 -1.8588
  239MOL0     H32244   8.248   2.765  -0.076 -2.8527  0.5382 -0.6924
  239MOL0     H32245   8.476   2.790  -0.155  2.0510  3.7305  0.4984
  239MOL0     H32246   8.424   2.930  -0.255  5.0549 -0.8981  1.0519
  239MOL0     H32247   8.417   2.865   0.663 -0.4539 -0.1435  0.2740
  239MOL0     H32248   8.436   2.752   0.888 -0.4717  0.1402  1.0736
  239MOL0     H32249   8.180   2.744   1.295 -1.5709 -1.3765  1.5171
  239MOL0     H32250   8.138   2.630   1.500  1.9236  0.1339  2.4968
  239MOL0     H32251   7.820   3.277   3.091 -1.2176 -0.6979  2.3744
  239MOL0     H32252   7.868   3.255   3.324 -0.2124 -0.5303  0.7385
  239MOL0     H32253   7.820   2.830   3.718 -2.3446  2.8856 -1.8582
  239MOL0     H32254   7.896   2.795   3.927 -1.5303 -2.9399 -4.5391
  239MOL0     H32255   7.916   2.848   4.144 -0.3530 -1.0795 -0.9834
  239MOL0     H32256   8.064   2.768   4.108  1.8601 -0.3125  0.8640
  239MOL0     H32257   8.047   2.985   4.314 -2.7478 -0.6645 -2.4667
  239MOL0     H32258   8.192   2.893   4.276  0.0270  1.0057 -4.7606
  239MOL0     H32259   8.045   2.836   4.493  0.6980  0.1352  0.7274
  239MOL0     H32260   8.062   2.696   4.386  0.9624  0.6363 -0.7825
  239MOL0     H32261   7.843   2.732   4.504 -1.1939 -0.1586 -0.5451
  239MOL0     H32262   7.843   2.693   4.330  0.9786  2.9539 -3.8433
  239MOL0     H32263   7.716   3.102   4.382 -0.4557 -0.2807  0.2684
  239MOL0     H32264   8.174   3.128   3.874  0.8047  1.1297 -2.5388
  239MOL0     H32265   8.127   3.118   3.632  1.7135 -0.5640  1.0460
  240MOL0     O32266   0.582   3.221   5.201  0.1162  0.1278  0.0831
  240MOL0     C32267   0.523   3.210   5.304 -0.4425  0.2803 -0.0472
  240MOL0     O32268   0.484   3.094   5.367  0.0261  0.6968 -0.6909
  240MOL0     C32269   0.514   2.969   5.314 -0.1899 -0.1776 -0.0855
  240MOL0     C32270   0.454   2.905   5.204  0.6535  0.6319  0.2601
  240MOL0     C32271   0.475   2.769   5.187 -1.0742  0.8398 -0.7055
  240MOL0     C32272   0.555   2.693   5.274  0.1687  0.9931 -0.3197
  240MOL0     O32273   0.588   2.560   5.243  0.3230 -0.3564 -0.1200
  240MOL0     C32274   0.584   2.467   5.352  0.3014  0.5373  0.6603
  240MOL0     C32275   0.483   2.366   5.311  0.3009  0.0857  0.4727
  240MOL0     C32276   0.522   2.288   5.183  0.4638 -0.7483 -0.1825
  240MOL0     C32277   0.665   2.231   5.179  0.3558  0.6293  0.8128
  240MOL0     C32278   0.679   2.127   5.063 -0.5295  0.4940 -0.2967
  240MOL0     C32279   0.658   2.180   4.917  0.1871 -0.0451  0.0072
  240MOL0     C32280   0.757   2.299   4.892 -0.2112  0.1943 -0.0617
  240MOL0     C32281   0.758   2.348   4.744  0.5588  0.2899  0.9059
  240MOL0     N32282   0.862   2.435   4.708 -0.0489 -0.6168 -0.7952
  240MOL0     C32283   0.855   2.563   4.660 -0.3998 -0.3243  0.0958
  240MOL0     C32284   0.980   2.607   4.638 -0.4834  0.0099 -0.0019
  240MOL0     C32285   1.013   2.740   4.585 -0.1190  0.0101 -0.4214
  240MOL0     C32286   1.034   2.840   4.706  0.7537 -0.2979 -0.2171
  240MOL0     C32287   1.054   2.984   4.656 -0.3988 -0.1130  0.3046
  240MOL0     C32288   1.081   3.081   4.764 -0.5928 -0.3583 -0.4528
  240MOL0     O32289   1.116   3.208   4.701 -0.2919  0.2772  0.0077
  240MOL0     C32290   1.133   3.318   4.787  0.3343  0.1586 -0.2130
  240MOL0     C32291   1.205   3.291   4.909  0.7960 -0.4139 -0.4928
  240MOL0     C32292   1.246   3.399   4.991  0.0683  0.3444  0.3521
  240MOL0     C32293   1.338   3.361   5.105  0.1412 -0.2339 -1.1023
  240MOL0     C32294   1.210   3.529   4.973 -0.6906 -0.6219 -0.5673
  240MOL0     C32295   1.250   3.652   5.048 -0.0618  0.7851  0.2052
  240MOL0     O32296   1.356   3.646   5.136  0.5911 -0.3058 -0.6543
  240MOL0     C32297   1.334   3.729   5.245  0.3380  0.4642  0.3347
  240MOL0     C32298   1.453   3.806   5.277 -0.2846 -0.8048  0.4359
  240MOL0     C32299   1.446   3.901   5.382 -0.3037 -0.6843  0.1293
  240MOL0     C32300   1.338   3.894   5.471 -0.3926 -0.5275  0.5037
  240MOL0     O32301   1.345   3.975   5.580 -0.3056  0.1878  0.1032
  240MOL0     C32302   1.486   3.985   5.640  0.1262 -0.2786 -0.6303
  240MOL0     C32303   1.472   4.037   5.785  1.1452  0.4506 -0.4973
  240MOL0     C32304   1.411   3.929   5.875 -0.4153 -0.4918  0.4937
  240MOL0     C32305   1.297   3.996   5.947 -0.1161 -0.8945 -1.1432
  240MOL0     C32306   1.202   3.892   6.023 -0.2707 -0.2135  0.0825
  240MOL0     C32307   1.122   3.965   6.124 -0.4507 -0.1782 -0.7293
  240MOL0     C32308   1.036   4.067   6.046 -0.2498 -0.4037 -0.7820
  240MOL0     C32309   0.932   4.129   6.141 -0.3644  0.8826  0.3991
  240MOL0    Cl32310   0.777   4.160   6.054  0.1395  0.3043 -0.3042
  240MOL0     C32311   1.226   3.816   5.438  0.4613 -0.4277  0.0551
  240MOL0     C32312   1.216   3.742   5.318 -0.3523  0.5305  0.9186
  240MOL0     O32313   1.189   3.754   5.013 -0.1418 -1.1893  0.2891
  240MOL0     C32314   1.131   3.554   4.854  0.2820  0.3681 -0.9395
  240MOL0     C32315   1.111   3.453   4.761 -0.0761 -0.3879 -1.1578
  240MOL0     N32316   1.062   2.502   4.679 -0.1274 -0.6251 -0.4985
  240MOL0     N32317   0.993   2.401   4.707  0.4917 -0.7538 -0.0671
  240MOL0     C32318   0.626   2.760   5.375  1.6141  0.4966 -0.2480
  240MOL0     C32319   0.599   2.900   5.397 -0.1821  0.5043  0.8410
  240MOL0     C32320   0.482   3.330   5.383  0.5465  0.1603  0.5455
  240MOL0     C32321   0.521   3.453   5.347 -0.1205  0.1405  0.7104
  240MOL0     C32322   0.480   3.566   5.418 -0.6458  0.6142  0.3775
  240MOL0     C32323   0.403   3.559   5.531 -1.3574  0.0841 -0.8550
  240MOL0     O32324   0.364   3.653   5.624  0.4323  0.6180  0.1296
  240MOL0     C32325   0.372   3.789   5.588  0.2059  0.1155  0.9996
  240MOL0     C32326   0.297   3.874   5.689  0.6892  0.2485  0.3733
  240MOL0     C32327   0.144   3.889   5.660  0.1484 -0.5458  1.0057
  240MOL0     C32328   0.083   4.010   5.742 -0.2799  0.1278  0.8007
  240MOL0     C32329  -0.055   4.027   5.721  0.3207  0.9945  0.6560
  240MOL0     C32330  -0.176   4.010   5.710 -0.8783 -0.1105  0.0246
  240MOL0     C32331   0.369   3.433   5.570  0.9029 -0.9880 -0.5140
  240MOL0     C32332   0.396   3.320   5.495 -0.8331  0.3964  0.2386
  240MOL0     H32333   0.386   2.957   5.137  3.3976  3.2056 -0.7349
  240MOL0     H32334   0.436   2.725   5.096 -1.3660  2.4348 -1.3903
  240MOL0     H32335   0.685   2.428   5.364 -0.4128 -1.2221  1.2790
  240MOL0     H32336   0.545   2.517   5.442 -0.3647 -1.9340  1.8562
  240MOL0     H32337   0.486   2.291   5.390  2.5018 -0.1637  0.2089
  240MOL0     H32338   0.378   2.396   5.296  0.7609  1.6875  0.2803
  240MOL0     H32339   0.453   2.203   5.179 -1.1512  0.1522  3.9399
  240MOL0     H32340   0.504   2.354   5.098 -1.3619  0.6618  1.2290
  240MOL0     H32341   0.732   2.315   5.160  3.6097 -1.1305  3.5844
  240MOL0     H32342   0.677   2.186   5.277 -4.9064 -2.0984  0.5577
  240MOL0     H32343   0.780   2.086   5.068 -0.5781  0.4972  2.3354
  240MOL0     H32344   0.615   2.040   5.082  0.8727 -0.5375 -0.1776
  240MOL0     H32345   0.673   2.103   4.842  1.1852  0.7118 -0.5910
  240MOL0     H32346   0.551   2.201   4.910 -0.5683 -3.7875 -1.8117
  240MOL0     H32347   0.724   2.386   4.950  2.1775 -0.4884  2.5437
  240MOL0     H32348   0.857   2.265   4.921  0.3195 -0.6089 -2.6009
  240MOL0     H32349   0.661   2.397   4.730  0.8115  0.0131 -3.2293
  240MOL0     H32350   0.751   2.263   4.675 -1.9485  2.0965 -1.2788
  240MOL0     H32351   0.764   2.618   4.639 -1.6050 -2.3777 -0.2632
  240MOL0     H32352   1.109   2.742   4.532  1.0099 -1.9057  1.3571
  240MOL0     H32353   0.933   2.761   4.514 -1.6411 -1.1521  0.8984
  240MOL0     H32354   1.125   2.807   4.758  1.2219 -2.2442 -2.1513
  240MOL0     H32355   0.960   2.825   4.785  0.5121 -2.3073 -0.7750
  240MOL0     H32356   0.971   3.012   4.591  0.3431  0.6135 -0.3681
  240MOL0     H32357   1.133   2.978   4.580 -0.7214  1.6725 -0.2386
  240MOL0     H32358   1.162   3.029   4.817  0.5479  1.6031 -0.1657
  240MOL0     H32359   1.000   3.100   4.834  0.5592  1.0229  0.5718
  240MOL0     H32360   1.222   3.188   4.938  3.4654 -0.0303 -0.5080
  240MOL0     H32361   1.288   3.408   5.190 -1.7086  0.8026 -2.6962
  240MOL0     H32362   1.348   3.254   5.126  1.1690  0.4959  3.0928
  240MOL0     H32363   1.442   3.392   5.090 -0.0646 -0.0089 -2.1491
  240MOL0     H32364   1.540   3.793   5.213 -0.7135  1.1242 -0.6277
  240MOL0     H32365   1.533   3.965   5.385 -0.4960 -0.4106 -0.0628
  240MOL0     H32366   1.531   3.886   5.634  0.2562 -0.1369 -3.0010
  240MOL0     H32367   1.552   4.055   5.588 -0.0855  0.0164 -0.5096
  240MOL0     H32368   1.575   4.054   5.817  1.1914  0.9032 -0.8692
  240MOL0     H32369   1.433   4.138   5.774  0.8162  0.5778  1.5066
  240MOL0     H32370   1.480   3.885   5.947 -0.2413 -0.6827  0.2097
  240MOL0     H32371   1.379   3.839   5.823  1.2217 -0.4250 -0.6949
  240MOL0     H32372   1.355   4.048   6.024  0.1033 -3.3752  0.4734
  240MOL0     H32373   1.248   4.071   5.884 -0.1178  1.1316  1.1116
  240MOL0     H32374   1.270   3.826   6.078  0.0880 -0.0677 -0.1833
  240MOL0     H32375   1.135   3.843   5.952  0.0259 -0.3464 -0.1093
  240MOL0     H32376   1.054   3.899   6.178 -0.8143  2.4767  2.3495
  240MOL0     H32377   1.174   4.027   6.197 -2.3727 -1.3179  1.7540
  240MOL0     H32378   0.997   4.018   5.957  0.1919 -1.3746 -0.4563
  240MOL0     H32379   1.104   4.144   6.008  0.2904  1.2359  3.0550
  240MOL0     H32380   0.979   4.216   6.188  0.0348  0.9959 -0.1999
  240MOL0     H32381   0.919   4.050   6.215  1.3224  0.1870 -0.0007
  240MOL0     H32382   1.134   3.813   5.496 -0.3543 -0.2480 -1.1819
  240MOL0     H32383   1.126   3.697   5.278  0.3950  0.2563 -0.5401
  240MOL0     H32384   1.098   3.651   4.820 -0.1655 -0.2438 -2.3633
  240MOL0     H32385   1.047   3.481   4.677 -1.7463  0.5172  0.3435
  240MOL0     H32386   0.713   2.725   5.430  1.4086  1.5563  0.8173
  240MOL0     H32387   0.648   2.958   5.475  1.8316 -0.4703  0.3442
  240MOL0     H32388   0.585   3.461   5.259  2.7303 -0.3064  2.6040
  240MOL0     H32389   0.532   3.653   5.379  0.9944 -1.5111 -2.6252
  240MOL0     H32390   0.471   3.835   5.587 -0.9358  2.8524  2.2122
  240MOL0     H32391   0.336   3.816   5.489 -0.0864  2.7948  1.7568
  240MOL0     H32392   0.339   3.975   5.680 -0.0446  0.4658 -0.7945
  240MOL0     H32393   0.308   3.831   5.789 -1.7986 -0.7484  0.2883
  240MOL0     H32394   0.090   3.796   5.681 -0.2040 -1.2272 -2.3946
  240MOL0     H32395   0.131   3.917   5.556  1.2864  2.5297  1.5926
  240MOL0     H32396   0.133   4.105   5.720  0.8821 -0.7523 -0.4685
  240MOL0     H32397   0.099   3.978   5.845  2.5916 -0.5080  0.2326
  240MOL0     H32398  -0.281   3.997   5.691 -1.6158  2.1314  2.0928
  240MOL0     H32399   0.311   3.417   5.661 -1.9315 -3.2070 -2.5097
  240MOL0     H32400   0.360   3.223   5.527  0.6867 -0.3481 -0.1996
  241MOL0     O32401   3.646   3.315   2.728 -0.4986 -0.1925 -0.5666
  241MOL0     C32402   3.536   3.344   2.680 -0.7283 -0.3288  0.7947
  241MOL0     O32403   3.415   3.315   2.733 -0.4847  0.1162  0.9784
  241MOL0     C32404   3.421   3.266   2.869  0.0281  0.0580  0.6500
  241MOL0     C32405   3.378   3.363   2.958  0.3493 -0.4266 -0.5318
  241MOL0     C32406   3.376   3.326   3.094 -0.0217  0.5504 -0.4573
  241MOL0     C32407   3.406   3.190   3.130 -0.2436 -0.3156  0.0544
  241MOL0     O32408   3.380   3.156   3.249 -0.5266  0.1605  0.1276
  241MOL0     C32409   3.494   3.118   3.324 -0.2693  0.2640  0.6943
  241MOL0     C32410   3.489   3.175   3.458  0.5069 -0.1939 -0.8040
  241MOL0     C32411   3.581   3.293   3.475  0.6013 -0.1445 -0.4522
  241MOL0     C32412   3.548   3.382   3.595  1.0939 -0.2402  0.6167
  241MOL0     C32413   3.659   3.487   3.617  0.6064  0.6158 -0.6041
  241MOL0     C32414   3.611   3.579   3.730  0.0210  0.7164 -0.2082
  241MOL0     C32415   3.731   3.638   3.798 -0.6151  0.1558 -0.4960
  241MOL0     C32416   3.806   3.748   3.718  0.6112 -0.1101  0.8248
  241MOL0     N32417   3.934   3.763   3.788 -0.6363  0.3193  0.2401
  241MOL0     C32418   3.973   3.870   3.856 -0.0101 -0.1022 -0.2527
  241MOL0     C32419   4.101   3.836   3.888 -1.5770  0.9222 -0.1840
  241MOL0     C32420   4.201   3.926   3.958  0.1962 -0.4743  0.1955
  241MOL0     C32421   4.180   4.072   3.925  0.6627  0.1258 -1.0572
  241MOL0     C32422   4.284   4.158   3.992  0.3476  0.1790  0.3093
  241MOL0     C32423   4.246   4.305   4.003 -0.1765  0.0287 -0.0625
  241MOL0     O32424   4.143   4.304   4.103  0.0910 -0.0716 -0.2253
  241MOL0     C32425   4.034   4.374   4.074  0.0684 -0.1023  0.4934
  241MOL0     C32426   4.036   4.492   3.990 -0.1097 -0.0787 -0.4337
  241MOL0     C32427   3.930   4.579   3.975  0.8156  0.3112  0.0442
  241MOL0     C32428   3.939   4.698   3.873  0.9013  0.2870 -0.4005
  241MOL0     C32429   3.806   4.527   4.031  1.2067 -0.2239  0.8262
  241MOL0     C32430   3.676   4.577   3.995  0.2868  0.4995 -0.9565
  241MOL0     O32431   3.570   4.511   4.049  0.6122  0.1033 -0.2466
  241MOL0     C32432   3.441   4.553   4.038  0.0595  0.2296  0.5044
  241MOL0     C32433   3.364   4.557   4.161  0.1554 -1.0732  0.4447
  241MOL0     C32434   3.232   4.595   4.155  0.5873 -0.6828  0.0354
  241MOL0     C32435   3.171   4.644   4.045  1.2036  0.1395  0.1824
  241MOL0     O32436   3.054   4.710   4.052  0.4318 -0.4859  0.1227
  241MOL0     C32437   2.943   4.657   4.122 -0.4943 -0.3379  0.0155
  241MOL0     C32438   2.917   4.743   4.243  0.4356  1.1056  0.4381
  241MOL0     C32439   2.820   4.864   4.210 -0.5529  0.4558 -1.3293
  241MOL0     C32440   2.765   4.926   4.341 -0.2205  0.2697  0.4735
  241MOL0     C32441   2.646   5.023   4.310  0.5433  0.6389  0.4501
  241MOL0     C32442   2.553   5.038   4.432  0.2202 -0.5822  0.0365
  241MOL0     C32443   2.432   5.132   4.394 -0.5355 -0.0008  0.0879
  241MOL0     C32444   2.324   5.090   4.292  0.8906  0.4320  0.0379
  241MOL0    Cl32445   2.375   5.159   4.131 -0.1758 -0.0629  0.0922
  241MOL0     C32446   3.249   4.646   3.927  0.9352  1.3461 -0.6559
  241MOL0     C32447   3.374   4.597   3.922 -1.2023  0.5696  0.3794
  241MOL0     O32448   3.669   4.683   3.931  1.0108 -0.1148  0.1888
  241MOL0     C32449   3.808   4.407   4.107 -0.4019  0.0923 -0.7190
  241MOL0     C32450   3.923   4.335   4.132  1.1972  0.0383  0.1756
  241MOL0     N32451   4.135   3.704   3.855  0.0496 -0.0764 -0.2737
  241MOL0     N32452   4.028   3.660   3.800  0.5633 -0.5158 -0.9174
  241MOL0     C32453   3.455   3.094   3.036 -0.1615 -0.7423  0.5758
  241MOL0     C32454   3.479   3.145   2.908 -0.5729  0.2955  0.0606
  241MOL0     C32455   3.534   3.390   2.541 -0.2556  0.4064 -0.2443
  241MOL0     C32456   3.652   3.379   2.459  0.1359 -1.1491  0.7799
  241MOL0     C32457   3.637   3.423   2.321  0.7742  0.2396 -0.5787
  241MOL0     C32458   3.521   3.481   2.279  0.4504 -0.5105 -0.0699
  241MOL0     O32459   3.509   3.536   2.163 -0.2236 -0.1220  0.8811
  241MOL0     C32460   3.618   3.555   2.061 -0.1425  0.9190  0.3963
  241MOL0     C32461   3.567   3.560   1.917  0.0343  0.4823  0.9947
  241MOL0     C32462   3.457   3.656   1.905 -0.0030  0.3962  0.4680
  241MOL0     C32463   3.397   3.674   1.769 -0.0100  0.6867  0.2836
  241MOL0     C32464   3.499   3.735   1.683 -0.1535  0.1179 -0.0012
  241MOL0     C32465   3.586   3.783   1.611  0.1272 -0.1928  0.1716
  241MOL0     C32466   3.410   3.493   2.371  0.4992 -0.2656  0.3464
  241MOL0     C32467   3.419   3.455   2.502  0.4367 -0.2791 -0.4991
  241MOL0     H32468   3.322   3.452   2.929  0.7118  0.1462  0.4717
  241MOL0     H32469   3.344   3.407   3.159 -1.3679 -0.8954  0.7659
  241MOL0     H32470   3.498   3.009   3.327  0.1706 -0.2584 -5.4581
  241MOL0     H32471   3.591   3.138   3.279  0.1739 -3.4448 -0.2999
  241MOL0     H32472   3.386   3.200   3.485  0.4172 -0.4951 -0.8601
  241MOL0     H32473   3.533   3.093   3.515  0.8072 -0.6694 -1.6989
  241MOL0     H32474   3.684   3.255   3.477  0.7990  0.2298 -2.0938
  241MOL0     H32475   3.564   3.357   3.387  2.7214  1.8998  0.4900
  241MOL0     H32476   3.456   3.439   3.582  2.8590  2.9965  1.4170
  241MOL0     H32477   3.542   3.317   3.684 -1.4743  1.0250  1.4578
  241MOL0     H32478   3.752   3.434   3.638 -1.1561 -1.6709  1.9783
  241MOL0     H32479   3.672   3.549   3.527  0.7793 -0.0398 -1.0395
  241MOL0     H32480   3.538   3.653   3.695  1.1795  1.9692 -0.0384
  241MOL0     H32481   3.558   3.530   3.813 -0.5976  2.0605  0.2284
  241MOL0     H32482   3.703   3.693   3.888  0.6068  0.7776 -0.4748
  241MOL0     H32483   3.793   3.553   3.827 -0.9205  0.4049  0.9558
  241MOL0     H32484   3.752   3.843   3.727 -0.9945 -0.9810  0.7759
  241MOL0     H32485   3.826   3.710   3.617 -1.3558 -4.8050  1.9014
  241MOL0     H32486   3.921   3.963   3.878  3.5846  2.4839 -1.6560
  241MOL0     H32487   4.179   3.911   4.064 -2.5543 -2.3523 -0.5440
  241MOL0     H32488   4.302   3.895   3.929  0.5116  1.0635 -0.4317
  241MOL0     H32489   4.076   4.090   3.954  0.9745 -1.3148  1.1688
  241MOL0     H32490   4.198   4.093   3.819  2.4026  1.2332 -0.5792
  241MOL0     H32491   4.374   4.146   3.931 -0.0176 -2.4446  0.1355
  241MOL0     H32492   4.312   4.111   4.087  2.2381  0.0539 -0.2577
  241MOL0     H32493   4.212   4.332   3.902 -1.0720 -2.0991 -0.3907
  241MOL0     H32494   4.339   4.351   4.038  1.2175 -0.6508 -2.5910
  241MOL0     H32495   4.131   4.517   3.942  1.0581 -2.7724  0.2856
  241MOL0     H32496   3.891   4.788   3.912 -2.9707 -0.3835 -3.0287
  241MOL0     H32497   4.043   4.722   3.848  0.7828  3.2615  1.5415
  241MOL0     H32498   3.886   4.677   3.780 -0.0001  0.2693  0.1137
  241MOL0     H32499   3.414   4.542   4.256 -0.0777  0.4433  0.8342
  241MOL0     H32500   3.167   4.588   4.242 -0.0308  1.3723 -0.2032
  241MOL0     H32501   2.861   4.666   4.049  0.1969 -1.5492 -0.9517
  241MOL0     H32502   2.961   4.554   4.152 -1.2010 -0.2863  0.6560
  241MOL0     H32503   2.881   4.668   4.314  2.9820  0.0907  0.7805
  241MOL0     H32504   3.012   4.782   4.282  0.6205  0.5613  0.5305
  241MOL0     H32505   2.734   4.840   4.147 -2.0267  4.4731 -1.1547
  241MOL0     H32506   2.880   4.934   4.152  4.2920 -0.4318  1.9918
  241MOL0     H32507   2.722   4.847   4.403  0.0149 -0.4345 -0.2456
  241MOL0     H32508   2.827   4.997   4.396 -1.0938  1.7333 -0.3753
  241MOL0     H32509   2.585   4.996   4.223 -0.5019  0.2110  1.2976
  241MOL0     H32510   2.690   5.122   4.291  2.3919  0.0376  1.3564
  241MOL0     H32511   2.516   4.940   4.466 -0.3843 -0.2902  0.2474
  241MOL0     H32512   2.604   5.085   4.516  0.0335 -2.9990  1.5935
  241MOL0     H32513   2.489   5.214   4.350  2.0198 -1.9553 -0.5355
  241MOL0     H32514   2.388   5.153   4.492 -1.9086 -0.1844 -0.4784
  241MOL0     H32515   2.223   5.119   4.324 -0.5468 -2.4625 -1.5546
  241MOL0     H32516   2.329   4.981   4.294 -1.3616  0.2439 -1.4031
  241MOL0     H32517   3.201   4.675   3.834 -1.3816 -2.8137 -0.9784
  241MOL0     H32518   3.415   4.591   3.822 -0.1383  0.3164  0.8111
  241MOL0     H32519   3.721   4.353   4.143 -0.7409  0.6890 -0.6297
  241MOL0     H32520   3.909   4.234   4.171  1.0958 -0.5768 -1.3741
  241MOL0     H32521   3.495   2.999   3.069  1.5152 -0.5728 -0.8625
  241MOL0     H32522   3.517   3.075   2.834 -0.3903 -1.9953  2.1932
  241MOL0     H32523   3.743   3.321   2.475  0.8793 -0.3551 -0.4213
  241MOL0     H32524   3.722   3.406   2.256  1.4863  4.9408 -1.1627
  241MOL0     H32525   3.679   3.645   2.074  2.3042 -0.5384 -0.2632
  241MOL0     H32526   3.697   3.481   2.075  1.1086  2.7105  4.3997
  241MOL0     H32527   3.523   3.468   1.876  3.2359  0.1630 -2.1983
  241MOL0     H32528   3.638   3.588   1.840 -1.7736 -2.4533 -2.0198
  241MOL0     H32529   3.490   3.758   1.929 -1.9763  0.7912  1.7727
  241MOL0     H32530   3.366   3.628   1.959 -0.8110 -1.3869 -1.6653
  241MOL0     H32531   3.314   3.744   1.778 -1.2334 -0.6619  0.0134
  241MOL0     H32532   3.366   3.581   1.720  2.6656 -1.8643  2.9528
  241MOL0     H32533   3.655   3.822   1.538  1.1165 -0.9617  0.6673
  241MOL0     H32534   3.320   3.527   2.319  0.6459  2.4069  1.6339
  241MOL0     H32535   3.337   3.470   2.571  2.9238 -1.1124  2.9018
  242MOL0     O32536   9.060   6.860   6.794 -0.2221  0.4719 -0.0510
  242MOL0     C32537   9.023   6.978   6.812  0.8874 -0.3512  0.1298
  242MOL0     O32538   9.103   7.078   6.866 -0.6668 -0.6805  1.1921
  242MOL0     C32539   9.188   7.073   6.978  1.1284 -0.0977 -0.5343
  242MOL0     C32540   9.263   7.186   7.009 -0.3873 -0.0003 -0.6545
  242MOL0     C32541   9.361   7.193   7.113 -1.0324  0.7848  0.6004
  242MOL0     C32542   9.383   7.078   7.192 -0.1838 -0.4394  0.2993
  242MOL0     O32543   9.489   7.068   7.281  0.3672 -0.1200  0.3567
  242MOL0     C32544   9.537   7.188   7.349  0.5693 -0.2161 -0.1836
  242MOL0     C32545   9.577   7.146   7.491 -0.1279 -0.3978 -0.3243
  242MOL0     C32546   9.663   7.249   7.557  0.2851  0.3517  0.2802
  242MOL0     C32547   9.673   7.229   7.711  1.2134 -0.0001  0.2272
  242MOL0     C32548   9.761   7.335   7.778 -0.1055  1.1330  0.2949
  242MOL0     C32549   9.768   7.328   7.927  0.2938 -0.2076  0.4085
  242MOL0     C32550   9.632   7.332   8.009  1.0581 -0.3052 -0.2755
  242MOL0     C32551   9.651   7.342   8.165 -0.9558  0.5283  0.9000
  242MOL0     N32552   9.765   7.276   8.213  1.0275 -1.1049 -0.5166
  242MOL0     C32553   9.785   7.142   8.245 -0.0891 -0.4518 -0.8199
  242MOL0     C32554   9.913   7.123   8.278 -0.3467  1.0825  0.3616
  242MOL0     C32555   9.989   6.997   8.305 -0.1202  0.5214 -0.5380
  242MOL0     C32556   9.912   6.858   8.307 -0.1927 -0.1886 -0.6951
  242MOL0     C32557   9.860   6.816   8.446 -0.3162 -0.1191  0.3293
  242MOL0     C32558   9.742   6.717   8.427  0.0790 -0.1603  0.1133
  242MOL0     O32559   9.674   6.670   8.546  0.2936  0.2928 -0.2084
  242MOL0     C32560   9.582   6.572   8.530  1.5915  0.0774  0.6135
  242MOL0     C32561   9.513   6.537   8.411  0.7036 -0.5283 -0.0624
  242MOL0     C32562   9.414   6.446   8.405  0.8845  1.3987 -0.6479
  242MOL0     C32563   9.345   6.414   8.270 -0.4879  0.6705  0.8217
  242MOL0     C32564   9.384   6.369   8.522 -0.1978  0.5458  0.0875
  242MOL0     C32565   9.261   6.280   8.537  0.5149  0.2010 -0.1705
  242MOL0     O32566   9.170   6.289   8.428  0.2203  0.2616  0.4381
  242MOL0     C32567   9.041   6.239   8.434  0.0118 -0.5142  1.3084
  242MOL0     C32568   8.987   6.183   8.315  0.2300  0.1993 -0.0087
  242MOL0     C32569   8.861   6.121   8.318 -0.5746 -0.3673  0.3905
  242MOL0     C32570   8.786   6.103   8.429  0.0207 -1.3573 -0.6329
  242MOL0     O32571   8.669   6.036   8.455 -0.2866  1.0581 -0.5912
  242MOL0     C32572   8.622   5.945   8.355 -0.4796  0.2781 -0.3986
  242MOL0     C32573   8.487   5.878   8.402  0.1200  0.4477 -0.1936
  242MOL0     C32574   8.517   5.779   8.522 -0.5921 -0.6351 -0.1479
  242MOL0     C32575   8.399   5.700   8.571 -0.0987 -0.8647 -0.0520
  242MOL0     C32576   8.376   5.670   8.712 -0.3152  0.4337  0.3902
  242MOL0     C32577   8.490   5.606   8.798  0.9811  0.7651  0.4853
  242MOL0     C32578   8.515   5.461   8.750 -1.1134 -0.4552  0.0359
  242MOL0     C32579   8.592   5.381   8.857  0.2721  0.3118 -0.4041
  242MOL0    Cl32580   8.576   5.202   8.836 -0.1502 -0.4178 -0.1636
  242MOL0     C32581   8.837   6.152   8.544  0.3079 -0.5139 -0.5498
  242MOL0     C32582   8.951   6.238   8.540  0.2727  0.3666 -0.9162
  242MOL0     O32583   9.248   6.213   8.643  0.7982 -0.5211 -0.2548
  242MOL0     C32584   9.461   6.396   8.637 -0.1535  1.3788 -0.0783
  242MOL0     C32585   9.557   6.491   8.640  0.1371  0.0995 -0.1154
  242MOL0     N32586   9.966   7.249   8.288  0.5428  0.1421 -1.0627
  242MOL0     N32587   9.875   7.343   8.251 -0.9373 -0.2756 -0.3652
  242MOL0     C32588   9.302   6.962   7.164  0.3077  0.2040  0.5552
  242MOL0     C32589   9.213   6.963   7.057 -0.8567  0.3486  1.3129
  242MOL0     C32590   8.884   7.020   6.784 -0.0468  0.1359 -0.3971
  242MOL0     C32591   8.832   7.153   6.810 -0.5400 -0.2995 -1.0366
  242MOL0     C32592   8.702   7.185   6.798 -0.5863  0.6432 -0.5984
  242MOL0     C32593   8.609   7.102   6.751  0.0630 -0.4380  0.1194
  242MOL0     O32594   8.484   7.147   6.722  0.9251 -0.2920 -0.1615
  242MOL0     C32595   8.378   7.050   6.708 -0.2231  0.3488  0.7243
  242MOL0     C32596   8.257   7.095   6.774 -0.1518 -0.0218 -0.0402
  242MOL0     C32597   8.145   6.990   6.768 -0.1084 -0.2237 -1.1992
  242MOL0     C32598   8.005   7.034   6.723  0.4387 -0.9384  0.1143
  242MOL0     C32599   8.005   7.093   6.592 -0.6926  0.7876  0.4443
  242MOL0     C32600   8.014   7.142   6.489  0.0594 -0.3573  0.9011
  242MOL0     C32601   8.657   6.980   6.703 -0.8457 -0.1785  0.7454
  242MOL0     C32602   8.785   6.931   6.720 -0.3260 -1.1429 -0.7692
  242MOL0     H32603   9.251   7.271   6.942 -0.1584  0.3895 -0.2130
  242MOL0     H32604   9.432   7.275   7.120  0.3536 -0.4797  1.9083
  242MOL0     H32605   9.619   7.233   7.292  1.1296 -0.3688  0.4839
  242MOL0     H32606   9.451   7.255   7.357 -1.4926 -2.6463 -0.6753
  242MOL0     H32607   9.484   7.116   7.540  0.2327 -3.4003 -1.2755
  242MOL0     H32608   9.631   7.051   7.488 -0.0775 -0.6012  2.9982
  242MOL0     H32609   9.768   7.250   7.525  0.3723  1.3739  0.5707
  242MOL0     H32610   9.632   7.352   7.537  1.4078  0.4402 -1.1484
  242MOL0     H32611   9.569   7.244   7.741  0.6831  0.7292 -1.8182
  242MOL0     H32612   9.683   7.125   7.745 -1.9858 -0.2957  0.5539
  242MOL0     H32613   9.863   7.322   7.740 -1.9299  0.9092 -5.4279
  242MOL0     H32614   9.731   7.438   7.757 -0.3913  0.5743 -2.3481
  242MOL0     H32615   9.837   7.248   7.955  2.0266  1.0663 -0.0953
  242MOL0     H32616   9.825   7.416   7.958  0.1538  0.4216 -1.0279
  242MOL0     H32617   9.576   7.418   7.974  0.1888 -0.6904  0.1476
  242MOL0     H32618   9.569   7.244   7.993  0.1793  0.8094 -3.6472
  242MOL0     H32619   9.561   7.311   8.221 -0.8295 -0.1242  0.7561
  242MOL0     H32620   9.663   7.449   8.184 -0.9659 -0.0975  5.9145
  242MOL0     H32621   9.713   7.062   8.227  1.4163 -1.7180 -1.3997
  242MOL0     H32622  10.059   6.988   8.221  1.0776  0.9733  0.3795
  242MOL0     H32623  10.055   7.001   8.392 -1.8301  0.2050  0.8157
  242MOL0     H32624   9.979   6.778   8.273  2.8757  2.5706 -1.7249
  242MOL0     H32625   9.828   6.864   8.238 -0.4512 -3.4976 -0.8313
  242MOL0     H32626   9.813   6.905   8.487 -0.2619 -0.5858  1.4486
  242MOL0     H32627   9.943   6.790   8.512  0.7362  2.3031  0.0525
  242MOL0     H32628   9.769   6.630   8.367 -0.0580  0.0173 -0.2103
  242MOL0     H32629   9.666   6.766   8.365 -0.3277 -0.7852  0.1094
  242MOL0     H32630   9.527   6.597   8.321 -0.1257 -1.9007 -1.1469
  242MOL0     H32631   9.402   6.457   8.187 -0.7668 -1.5165 -0.5709
  242MOL0     H32632   9.362   6.308   8.248  3.5804  1.3260  0.0022
  242MOL0     H32633   9.243   6.446   8.250 -0.2866  0.0117 -1.5241
  242MOL0     H32634   9.035   6.184   8.217 -2.4771  1.2428 -1.4463
  242MOL0     H32635   8.827   6.069   8.229  0.6841  1.4913 -1.2673
  242MOL0     H32636   8.613   6.001   8.261  2.2581 -1.3232 -1.7396
  242MOL0     H32637   8.698   5.869   8.335 -1.1540 -0.4224 -0.3250
  242MOL0     H32638   8.408   5.950   8.428  0.3640  0.3264  0.9002
  242MOL0     H32639   8.450   5.811   8.324  2.9795 -2.5247  0.8005
  242MOL0     H32640   8.553   5.842   8.604  2.7348 -3.0049  0.4249
  242MOL0     H32641   8.594   5.708   8.490  0.3210 -0.4421  1.5169
  242MOL0     H32642   8.310   5.757   8.541  0.5776  0.7203  0.8176
  242MOL0     H32643   8.406   5.604   8.519  1.3575 -2.4661  2.8115
  242MOL0     H32644   8.285   5.611   8.718 -0.0029 -0.1613 -0.5315
  242MOL0     H32645   8.356   5.764   8.765  2.3858  0.5446  1.4285
  242MOL0     H32646   8.574   5.673   8.818 -0.2033  1.7959  2.4458
  242MOL0     H32647   8.450   5.588   8.898  1.0439 -3.0310 -0.0247
  242MOL0     H32648   8.576   5.462   8.659  1.5284  0.1319  1.7270
  242MOL0     H32649   8.425   5.401   8.737 -1.2184 -1.6072  4.6353
  242MOL0     H32650   8.550   5.406   8.955 -2.9697 -1.3132 -1.2291
  242MOL0     H32651   8.693   5.420   8.844 -0.1004  0.6740 -2.6847
  242MOL0     H32652   8.785   6.140   8.639  2.8700 -1.5373  0.8252
  242MOL0     H32653   8.985   6.298   8.623 -5.4167  0.2784  1.9749
  242MOL0     H32654   9.442   6.343   8.730 -1.3181  0.4809 -0.7959
  242MOL0     H32655   9.611   6.515   8.731 -2.2323  0.9633  1.1552
  242MOL0     H32656   9.325   6.866   7.210 -0.0602  1.1890  2.9539
  242MOL0     H32657   9.157   6.875   7.028 -1.0484  0.4641  1.3302
  242MOL0     H32658   8.904   7.226   6.843 -2.4505  1.9391 -1.5766
  242MOL0     H32659   8.677   7.287   6.828 -0.5612 -0.0935  2.2328
  242MOL0     H32660   8.359   7.045   6.600 -2.4240  1.9754  0.9660
  242MOL0     H32661   8.393   6.946   6.738 -2.8110 -0.6577 -1.0266
  242MOL0     H32662   8.224   7.180   6.712 -0.4941  0.5102  0.8523
  242MOL0     H32663   8.277   7.133   6.875 -0.9829  2.7599 -0.8165
  242MOL0     H32664   8.130   6.974   6.875 -1.5599  0.9503 -1.2022
  242MOL0     H32665   8.179   6.903   6.711 -0.6827 -0.1754 -1.6273
  242MOL0     H32666   7.969   7.108   6.795  0.2394 -0.6690 -0.2594
  242MOL0     H32667   7.939   6.948   6.738  0.8923 -1.6453 -1.6967
  242MOL0     H32668   8.023   7.188   6.392  1.3897  0.3065  1.3047
  242MOL0     H32669   8.591   6.913   6.648  1.2933 -1.1060 -0.8461
  242MOL0     H32670   8.823   6.835   6.685  2.9805 -0.8707  1.5663
  243MOL0     O32671   4.382   2.549   8.283  0.0993 -0.4183  0.0569
  243MOL0     C32672   4.430   2.536   8.171 -0.0758 -0.1415 -0.1346
  243MOL0     O32673   4.542   2.463   8.154  0.9438  0.1262  1.0273
  243MOL0     C32674   4.596   2.391   8.264 -0.5443 -1.0558 -0.0077
  243MOL0     C32675   4.738   2.370   8.256  0.3740 -0.6617  0.4536
  243MOL0     C32676   4.809   2.314   8.362  0.0893  0.1687 -0.1597
  243MOL0     C32677   4.736   2.253   8.470  0.1895  0.2767  0.2919
  243MOL0     O32678   4.813   2.193   8.566  0.0591 -0.7364  0.2021
  243MOL0     C32679   4.755   2.162   8.691  0.3500 -1.5460  0.7053
  243MOL0     C32680   4.867   2.161   8.801  0.5020  0.0256  0.1563
  243MOL0     C32681   4.945   2.284   8.808 -0.2654 -1.0556 -0.4613
  243MOL0     C32682   5.031   2.279   8.932 -0.5070  0.5167 -0.1651
  243MOL0     C32683   5.089   2.424   8.949 -1.4596 -0.1323  0.4875
  243MOL0     C32684   5.176   2.433   9.075 -0.5736  0.5278 -0.6454
  243MOL0     C32685   5.234   2.568   9.113 -0.5546  0.2621 -0.0021
  243MOL0     C32686   5.350   2.603   9.033 -0.7370  1.0739  0.3780
  243MOL0     N32687   5.406   2.718   9.090  0.0932  0.1619  0.3227
  243MOL0     C32688   5.428   2.845   9.034 -0.7494  0.6244  0.8299
  243MOL0     C32689   5.481   2.920   9.138  0.4008 -0.9087 -0.1031
  243MOL0     C32690   5.515   3.070   9.124  0.2130  0.9889  0.5246
  243MOL0     C32691   5.384   3.156   9.136 -1.0804 -0.2248  0.2871
  243MOL0     C32692   5.412   3.300   9.142  0.8027  0.1282 -0.5378
  243MOL0     C32693   5.282   3.378   9.094 -0.0802 -0.4281 -0.1599
  243MOL0     O32694   5.306   3.523   9.084  0.2024  0.0865  0.1726
  243MOL0     C32695   5.402   3.569   8.996  0.8139  0.6637 -0.7063
  243MOL0     C32696   5.467   3.691   9.035 -0.6685 -0.1586 -0.1770
  243MOL0     C32697   5.557   3.754   8.952  0.0798  0.8539  0.1613
  243MOL0     C32698   5.619   3.880   8.999  0.5039 -0.1557  0.2187
  243MOL0     C32699   5.583   3.689   8.821  0.2465  0.4182 -0.2523
  243MOL0     C32700   5.684   3.736   8.717  0.4365  0.3116 -0.5705
  243MOL0     O32701   5.697   3.654   8.609 -0.6930 -0.3016  0.9438
  243MOL0     C32702   5.798   3.693   8.528  0.3742 -0.7747  0.0944
  243MOL0     C32703   5.774   3.807   8.442  0.0448 -0.3424 -0.2025
  243MOL0     C32704   5.870   3.848   8.352 -0.6996 -0.6488 -0.7947
  243MOL0     C32705   6.010   3.800   8.366  0.3545 -1.1038  0.4081
  243MOL0     O32706   6.118   3.843   8.292  0.0206 -0.1237 -0.3109
  243MOL0     C32707   6.104   3.937   8.192 -0.5197 -0.3069  0.6332
  243MOL0     C32708   6.220   3.953   8.097  0.0205  0.4674  1.0932
  243MOL0     C32709   6.351   4.009   8.153 -0.6260  0.8759 -0.7226
  243MOL0     C32710   6.339   4.135   8.231  0.6642 -0.9783 -0.0672
  243MOL0     C32711   6.464   4.178   8.288  0.3865 -0.1275 -1.1983
  243MOL0     C32712   6.435   4.293   8.381  0.5844  0.0089  1.0265
  243MOL0     C32713   6.561   4.320   8.461 -0.4577 -0.6119  0.2201
  243MOL0     C32714   6.585   4.466   8.507 -0.2814 -0.0590  0.1826
  243MOL0    Cl32715   6.439   4.528   8.584 -0.2720 -0.1380 -0.0826
  243MOL0     C32716   6.030   3.695   8.454 -0.6495 -0.4778 -0.5043
  243MOL0     C32717   5.924   3.641   8.535 -0.4584  0.3559  0.8620
  243MOL0     O32718   5.742   3.845   8.738  0.6987 -0.0765  0.4485
  243MOL0     C32719   5.517   3.572   8.789  0.1913 -0.4087  0.1857
  243MOL0     C32720   5.420   3.520   8.866  1.2692 -0.1188 -0.8861
  243MOL0     N32721   5.493   2.837   9.251 -0.9792 -0.3701 -0.2117
  243MOL0     N32722   5.437   2.727   9.222 -0.5831 -0.2075 -0.0535
  243MOL0     C32723   4.597   2.257   8.464  0.1488 -0.2723  0.8259
  243MOL0     C32724   4.524   2.327   8.367 -0.2947  0.0663 -0.1172
  243MOL0     C32725   4.371   2.607   8.058  0.2364 -1.6873  1.0547
  243MOL0     C32726   4.405   2.566   7.925  0.1395 -0.0642  0.5943
  243MOL0     C32727   4.329   2.608   7.817 -0.6555 -0.0858  1.1395
  243MOL0     C32728   4.258   2.721   7.823  0.9940 -0.3515 -0.5376
  243MOL0     O32729   4.223   2.784   7.703  0.1969  0.3479  0.3231
  243MOL0     C32730   4.182   2.921   7.709  0.0526  0.7192  0.4373
  243MOL0     C32731   4.029   2.941   7.720  0.5428  0.2944  0.3114
  243MOL0     C32732   3.977   3.082   7.763 -0.3401  0.2559  0.3290
  243MOL0     C32733   4.007   3.122   7.910 -0.4224 -0.0368  0.8370
  243MOL0     C32734   3.933   3.054   8.012  0.9758  0.2314  1.1477
  243MOL0     C32735   3.878   3.027   8.110 -0.0423  0.1027 -0.1277
  243MOL0     C32736   4.220   2.777   7.953  0.2505  0.0335 -0.2370
  243MOL0     C32737   4.273   2.714   8.067  1.5298  0.8057  0.9202
  243MOL0     H32738   4.794   2.422   8.178 -2.5014  1.7987 -0.1479
  243MOL0     H32739   4.916   2.301   8.371 -0.1067 -3.3756 -1.3731
  243MOL0     H32740   4.685   2.239   8.724 -0.2317 -0.8622 -1.8844
  243MOL0     H32741   4.710   2.063   8.682  1.8051 -2.0600 -5.4779
  243MOL0     H32742   4.816   2.134   8.895  1.7437  0.6387  1.0399
  243MOL0     H32743   4.932   2.077   8.776 -1.9673 -2.0824  0.3137
  243MOL0     H32744   5.011   2.289   8.721  2.5872  0.8104  1.6393
  243MOL0     H32745   4.879   2.371   8.807  0.3235 -0.5858 -2.6308
  243MOL0     H32746   4.967   2.259   9.019  0.5208 -2.6022 -0.0038
  243MOL0     H32747   5.107   2.201   8.925 -2.8681 -1.8913 -0.4035
  243MOL0     H32748   5.155   2.434   8.863 -0.9751 -3.8671  0.2616
  243MOL0     H32749   5.011   2.500   8.954 -0.0380  1.3108  1.8015
  243MOL0     H32750   5.119   2.403   9.163  0.5871  0.8160  0.2231
  243MOL0     H32751   5.264   2.369   9.060 -1.5287 -0.7247 -1.1403
  243MOL0     H32752   5.163   2.649   9.093 -0.8104  0.3435  1.1466
  243MOL0     H32753   5.272   2.563   9.215 -0.9170 -0.3748  0.1088
  243MOL0     H32754   5.324   2.608   8.927  0.0573 -0.3806  0.0891
  243MOL0     H32755   5.423   2.522   9.026 -3.4681 -1.4284 -1.3986
  243MOL0     H32756   5.426   2.872   8.929  0.1652  1.4102  0.9995
  243MOL0     H32757   5.591   3.089   9.200 -0.7403 -2.3283  2.4681
  243MOL0     H32758   5.564   3.084   9.027 -4.3289 -1.8066 -2.5290
  243MOL0     H32759   5.336   3.130   9.231 -2.7172  0.7902 -0.2002
  243MOL0     H32760   5.319   3.132   9.051  0.8183 -1.9378 -0.7411
  243MOL0     H32761   5.493   3.330   9.075  1.1695  2.6985  0.9175
  243MOL0     H32762   5.436   3.327   9.246  0.0670 -1.3395  0.0415
  243MOL0     H32763   5.196   3.371   9.161  0.8486  1.3858  1.3186
  243MOL0     H32764   5.243   3.328   9.005 -0.4956  0.3883 -0.4468
  243MOL0     H32765   5.439   3.708   9.139 -2.7563 -0.4845 -0.6382
  243MOL0     H32766   5.633   3.953   8.919  1.4322 -1.6186 -1.0199
  243MOL0     H32767   5.544   3.921   9.067 -1.2332 -2.4994 -0.1220
  243MOL0     H32768   5.712   3.858   9.051  1.7064  1.1302 -1.2889
  243MOL0     H32769   5.671   3.840   8.442 -0.7914 -2.7354 -0.1069
  243MOL0     H32770   5.835   3.923   8.282 -0.6222 -0.7578 -0.9516
  243MOL0     H32771   6.016   3.928   8.127  0.9231 -0.8754 -1.3296
  243MOL0     H32772   6.090   4.033   8.243  0.3836 -0.7904  1.8149
  243MOL0     H32773   6.241   3.854   8.057 -2.3074  0.8796 -1.4459
  243MOL0     H32774   6.186   4.022   8.020  1.7514  0.3309  0.1710
  243MOL0     H32775   6.434   4.016   8.082  1.1751 -0.7670  1.0637
  243MOL0     H32776   6.382   3.930   8.222 -2.1857  2.5607  2.0769
  243MOL0     H32777   6.293   4.212   8.168  0.9185 -3.1073 -3.0771
  243MOL0     H32778   6.260   4.118   8.305 -0.7416  0.2665 -1.2315
  243MOL0     H32779   6.531   4.202   8.206  0.0853 -0.2461 -1.4815
  243MOL0     H32780   6.497   4.101   8.359 -2.1535  1.8845  2.4981
  243MOL0     H32781   6.414   4.379   8.317  2.2740 -0.7207 -0.6160
  243MOL0     H32782   6.345   4.274   8.441 -0.7450 -1.0275 -1.1451
  243MOL0     H32783   6.654   4.294   8.410  0.5921 -2.5315  2.9228
  243MOL0     H32784   6.554   4.257   8.550  0.7946 -3.3275 -1.4779
  243MOL0     H32785   6.634   4.529   8.433  0.7964 -0.4383  0.5606
  243MOL0     H32786   6.667   4.477   8.579  0.5088  0.5365 -0.7843
  243MOL0     H32787   6.128   3.649   8.458 -0.3935  0.1134  2.2643
  243MOL0     H32788   5.937   3.557   8.602 -1.7915  0.4364  1.2371
  243MOL0     H32789   5.531   3.528   8.691  0.2625  0.7871 -0.3563
  243MOL0     H32790   5.366   3.433   8.830 -1.3689  2.3393 -3.4969
  243MOL0     H32791   4.537   2.206   8.539  1.0121 -1.7361  0.5487
  243MOL0     H32792   4.416   2.325   8.377 -0.4462  0.3210 -1.5860
  243MOL0     H32793   4.479   2.488   7.908  1.0582  0.7730  0.6070
  243MOL0     H32794   4.343   2.550   7.727 -0.6635 -1.3672  1.9480
  243MOL0     H32795   4.242   2.985   7.774  0.6315  3.5917 -2.6669
  243MOL0     H32796   4.209   2.953   7.608  1.2659 -0.8965  0.2002
  243MOL0     H32797   3.995   2.861   7.787 -0.2815  0.5151  0.1599
  243MOL0     H32798   3.995   2.928   7.617 -0.4406 -1.4942  0.8159
  243MOL0     H32799   3.868   3.082   7.751 -0.3646 -1.3013  0.4168
  243MOL0     H32800   4.012   3.155   7.689 -1.7305 -1.0532 -1.7202
  243MOL0     H32801   3.959   3.221   7.913 -1.7078 -0.5516 -0.9046
  243MOL0     H32802   4.111   3.126   7.942 -0.1254 -1.7829  0.1977
  243MOL0     H32803   3.820   3.007   8.198 -0.7200 -1.3874 -0.8682
  243MOL0     H32804   4.152   2.862   7.950  0.1499 -0.0679 -1.2231
  243MOL0     H32805   4.240   2.741   8.166  1.3280  2.3691  0.4566
  244MOL0     O32806   1.454  10.779   7.343  0.7439  0.3550  0.4726
  244MOL0     C32807   1.488  10.895   7.369 -0.0292 -0.3604  1.1301
  244MOL0     O32808   1.578  10.966   7.293 -0.4328 -0.2574 -1.0127
  244MOL0     C32809   1.681  10.907   7.222  0.4779 -0.5349 -0.0843
  244MOL0     C32810   1.762  10.993   7.146 -0.0254  0.2576  0.2097
  244MOL0     C32811   1.875  10.941   7.079  0.7502  0.7475 -0.0306
  244MOL0     C32812   1.912  10.807   7.083  0.5565  0.8899 -0.6256
  244MOL0     O32813   2.016  10.756   7.009 -0.8250  0.2613  0.4529
  244MOL0     C32814   2.034  10.619   6.975  0.1041  1.0387  0.0819
  244MOL0     C32815   2.146  10.548   7.055  0.3523 -0.2092 -0.2312
  244MOL0     C32816   2.227  10.443   6.993 -0.0708 -0.6236  0.1052
  244MOL0     C32817   2.133  10.321   6.962 -0.9612 -0.1574  0.8602
  244MOL0     C32818   2.216  10.199   6.897 -0.0019 -0.0373 -0.1915
  244MOL0     C32819   2.323  10.135   6.993  0.2303 -1.0338  0.5551
  244MOL0     C32820   2.406  10.026   6.929  0.0836 -1.1874  0.1002
  244MOL0     C32821   2.412   9.895   7.003 -0.1514 -0.1685 -0.3149
  244MOL0     N32822   2.291   9.818   7.008 -0.6962 -0.8602 -0.4227
  244MOL0     C32823   2.181   9.831   7.093  1.5043 -0.5920  0.7606
  244MOL0     C32824   2.077   9.766   7.029 -0.1572 -0.2474 -0.7811
  244MOL0     C32825   1.934   9.785   7.083 -0.2659 -0.3459  0.4095
  244MOL0     C32826   1.874   9.658   7.143  0.1251  0.2266 -0.3384
  244MOL0     C32827   1.884   9.529   7.058 -0.3389  0.0984 -0.1011
  244MOL0     C32828   1.786   9.422   7.108 -0.6339 -0.1026  0.1031
  244MOL0     O32829   1.763   9.322   7.010 -0.1200  0.4585 -0.6197
  244MOL0     C32830   1.658   9.238   7.017 -0.5201 -0.6146 -0.3168
  244MOL0     C32831   1.685   9.104   6.985  0.3051  0.6462 -1.3581
  244MOL0     C32832   1.581   9.009   6.976 -0.6417 -0.9065 -0.0477
  244MOL0     C32833   1.623   8.871   6.929 -0.9129 -0.0760 -0.3164
  244MOL0     C32834   1.440   9.051   6.981  0.4808  0.4328 -0.6719
  244MOL0     C32835   1.329   8.950   6.962 -0.5528 -0.6166  0.5874
  244MOL0     O32836   1.352   8.813   6.978  0.6937 -0.0031 -0.3347
  244MOL0     C32837   1.247   8.721   6.973  1.1144  0.3895 -0.5559
  244MOL0     C32838   1.237   8.610   7.064 -0.0983  0.3956  1.6115
  244MOL0     C32839   1.148   8.506   7.038  0.5378 -0.8127  0.0614
  244MOL0     C32840   1.054   8.517   6.931  0.4102  1.0616  0.2428
  244MOL0     O32841   0.972   8.410   6.888  0.0879 -0.0279 -0.2446
  244MOL0     C32842   1.036   8.282   6.862 -0.4043 -0.2306  0.8491
  244MOL0     C32843   0.948   8.179   6.938 -1.7638 -0.1021  0.3930
  244MOL0     C32844   0.999   8.026   6.925  0.1007  0.0110  0.7902
  244MOL0     C32845   1.145   7.993   6.944  0.4767 -0.3319  0.3539
  244MOL0     C32846   1.177   7.838   6.920 -0.6294 -0.3161  0.5466
  244MOL0     C32847   1.327   7.812   6.938 -0.1560 -0.7240  0.1797
  244MOL0     C32848   1.360   7.664   6.957  0.7219  0.0417  0.3880
  244MOL0     C32849   1.299   7.568   6.854 -0.0178  0.1823  0.3223
  244MOL0    Cl32850   1.388   7.596   6.699  0.2541 -0.1061 -0.5413
  244MOL0     C32851   1.059   8.629   6.845  0.5171  0.1869 -0.3562
  244MOL0     C32852   1.160   8.724   6.861 -0.1056 -0.6591 -0.1289
  244MOL0     O32853   1.219   9.002   6.943 -0.4376 -0.1401 -0.1513
  244MOL0     C32854   1.422   9.180   6.997  1.4526  0.3416 -0.0457
  244MOL0     C32855   1.520   9.272   7.022 -0.7384 -0.2156 -0.2761
  244MOL0     N32856   2.123   9.722   6.912  0.6071  0.3038  0.5442
  244MOL0     N32857   2.252   9.745   6.905  0.6634  0.6919 -0.1475
  244MOL0     C32858   1.826  10.720   7.162  0.3304 -0.7534  1.0224
  244MOL0     C32859   1.722  10.772   7.242 -0.1386  0.1902 -0.0866
  244MOL0     C32860   1.412  10.970   7.469 -0.6796 -0.4317 -0.0649
  244MOL0     C32861   1.486  11.054   7.548  0.8748 -0.7112 -0.0746
  244MOL0     C32862   1.413  11.139   7.639 -0.5478  0.7905 -0.2797
  244MOL0     C32863   1.267  11.129   7.657 -0.9287  0.2625  0.9465
  244MOL0     O32864   1.180  11.204   7.725  0.1360 -0.2229  0.2889
  244MOL0     C32865   1.235  11.292   7.828  0.9875 -0.0297  0.5396
  244MOL0     C32866   1.294  11.421   7.775  0.6295 -0.3645 -0.2219
  244MOL0     C32867   1.264  11.543   7.866  0.1921  0.4163  0.5757
  244MOL0     C32868   1.303  11.678   7.792 -0.2902 -0.2887  1.0581
  244MOL0     C32869   1.458  11.687   7.787  0.0578  0.2724  0.1997
  244MOL0     C32870   1.578  11.701   7.775  0.1641 -0.0892  0.2507
  244MOL0     C32871   1.204  11.037   7.578 -0.2753 -0.4853  0.8986
  244MOL0     C32872   1.271  10.959   7.486  0.3496  0.3654  0.0782
  244MOL0     H32873   1.720  11.093   7.146 -0.1230  0.2468  1.9444
  244MOL0     H32874   1.944  10.997   7.017  2.9255 -0.9374  0.7289
  244MOL0     H32875   1.941  10.563   6.992 -0.7082  2.7412  1.6787
  244MOL0     H32876   2.069  10.619   6.872  0.0625  2.2858  0.0483
  244MOL0     H32877   2.216  10.629   7.078  0.6647 -0.7407  0.7067
  244MOL0     H32878   2.099  10.505   7.144  1.5576 -1.2789 -0.0855
  244MOL0     H32879   2.275  10.475   6.900  2.5953  0.0941  1.6109
  244MOL0     H32880   2.308  10.425   7.064 -0.4377 -2.3749  0.1352
  244MOL0     H32881   2.097  10.295   7.062  1.8825  0.2324  2.0914
  244MOL0     H32882   2.042  10.339   6.904 -0.4316  1.4198  0.4544
  244MOL0     H32883   2.144  10.124   6.863 -1.4585  1.5023 -0.6254
  244MOL0     H32884   2.274  10.231   6.810  2.4985 -2.5236  0.3931
  244MOL0     H32885   2.390  10.215   7.024  0.0186 -0.4696 -0.3954
  244MOL0     H32886   2.294  10.095   7.090  2.0974  0.8668  1.9828
  244MOL0     H32887   2.378  10.016   6.824  1.0511  0.5653 -0.3628
  244MOL0     H32888   2.510  10.057   6.917 -0.3026 -0.8368 -3.8516
  244MOL0     H32889   2.440   9.930   7.103 -0.2876 -2.6906  0.6914
  244MOL0     H32890   2.491   9.838   6.953  1.4920  0.9788  0.8569
  244MOL0     H32891   2.177   9.899   7.177  1.3778 -0.8919  0.9971
  244MOL0     H32892   1.934   9.856   7.167  0.3394 -1.7656  1.6659
  244MOL0     H32893   1.864   9.809   7.003  0.9570  0.6309 -0.3950
  244MOL0     H32894   1.767   9.674   7.155  0.1914 -0.3714  1.2972
  244MOL0     H32895   1.908   9.641   7.246 -4.0741  1.2775  1.4394
  244MOL0     H32896   1.986   9.488   7.063  0.1760  1.1186 -1.6425
  244MOL0     H32897   1.858   9.561   6.957  2.8163  2.2602 -0.3662
  244MOL0     H32898   1.692   9.463   7.146  0.4818 -0.0802  3.1684
  244MOL0     H32899   1.831   9.365   7.190  1.0242  1.4537  0.3328
  244MOL0     H32900   1.787   9.066   6.995  1.0132  2.3939 -1.5707
  244MOL0     H32901   1.612   8.784   6.995  0.7582 -1.0046 -1.2012
  244MOL0     H32902   1.586   8.850   6.828 -2.2486 -0.6989  0.2688
  244MOL0     H32903   1.732   8.873   6.920 -0.4981 -5.5655 -0.1155
  244MOL0     H32904   1.301   8.598   7.151 -0.0368  0.0183  1.5165
  244MOL0     H32905   1.159   8.422   7.106 -1.3304  0.4522  2.0484
  244MOL0     H32906   1.030   8.265   6.755  1.2648 -1.4998  0.9202
  244MOL0     H32907   1.145   8.275   6.873  0.0632 -4.3301 -3.2962
  244MOL0     H32908   0.948   8.198   7.046  0.3803 -0.6925  0.5435
  244MOL0     H32909   0.853   8.189   6.884 -1.0998  1.0048 -0.5917
  244MOL0     H32910   0.948   7.982   6.838 -2.6271  3.0932  0.6358
  244MOL0     H32911   0.953   7.982   7.013  2.0442 -1.6364  1.0543
  244MOL0     H32912   1.204   8.052   6.874  1.7554 -1.5242  0.3850
  244MOL0     H32913   1.163   8.023   7.048  0.1999 -0.6521  0.4985
  244MOL0     H32914   1.140   7.820   6.818  1.5027 -0.6687 -0.2074
  244MOL0     H32915   1.122   7.785   6.998  1.6944  0.7324  3.0406
  244MOL0     H32916   1.371   7.855   6.848 -1.1774  1.2591  0.5766
  244MOL0     H32917   1.361   7.867   7.026  0.7424 -2.0496  0.6949
  244MOL0     H32918   1.321   7.631   7.054 -1.5600  2.3721  0.3790
  244MOL0     H32919   1.466   7.646   6.972  0.6281 -2.0774 -0.9457
  244MOL0     H32920   1.190   7.576   6.846 -0.0997  3.6735  2.7535
  244MOL0     H32921   1.318   7.461   6.870 -1.0143 -0.0560 -0.0203
  244MOL0     H32922   0.982   8.646   6.770 -1.6460  1.2554  1.9622
  244MOL0     H32923   1.157   8.807   6.792 -3.7185 -1.6796 -1.4661
  244MOL0     H32924   1.322   9.217   6.977  1.5639  1.3550  1.1282
  244MOL0     H32925   1.479   9.371   7.043  1.5223  0.7448 -0.1520
  244MOL0     H32926   1.850  10.614   7.162 -0.7242 -1.0177 -0.5151
  244MOL0     H32927   1.659  10.708   7.303 -0.5592 -1.1921 -1.8688
  244MOL0     H32928   1.594  11.040   7.548  0.5675 -4.0449 -1.4941
  244MOL0     H32929   1.483  11.186   7.708  1.3966 -1.4545 -0.6136
  244MOL0     H32930   1.144  11.324   7.878  0.7616 -2.7716  2.1046
  244MOL0     H32931   1.297  11.248   7.907  0.2359  0.9156  1.6842
  244MOL0     H32932   1.252  11.419   7.674 -0.8848 -2.6410  0.3834
  244MOL0     H32933   1.402  11.409   7.761  0.3850 -2.2874 -0.7659
  244MOL0     H32934   1.325  11.545   7.957  0.6681  1.7672  0.2393
  244MOL0     H32935   1.160  11.541   7.901 -0.7457  1.7185 -1.9048
  244MOL0     H32936   1.260  11.768   7.838  0.9738  0.7687  0.2549
  244MOL0     H32937   1.265  11.671   7.690  1.9109 -3.0977  0.3063
  244MOL0     H32938   1.683  11.717   7.760  0.0856  0.5262  0.3202
  244MOL0     H32939   1.097  11.022   7.576 -0.5153  0.8406 -2.2695
  244MOL0     H32940   1.215  10.895   7.418 -0.6278  2.4377 -1.1562
  245MOL0     O32941   2.884   3.547   7.219 -0.3002 -0.2412 -0.1448
  245MOL0     C32942   2.784   3.480   7.239  0.1622 -0.2640  0.4219
  245MOL0     O32943   2.669   3.486   7.158  0.4034  0.1889 -0.2873
  245MOL0     C32944   2.664   3.578   7.053 -0.6596  0.3995 -0.5622
  245MOL0     C32945   2.551   3.651   7.044 -0.6713 -0.8105  0.1925
  245MOL0     C32946   2.530   3.746   6.949 -0.9694 -0.2750  0.2283
  245MOL0     C32947   2.629   3.775   6.853  0.0402  1.2736 -0.1754
  245MOL0     O32948   2.617   3.868   6.754  0.0022  0.3237  0.3910
  245MOL0     C32949   2.523   3.985   6.761 -0.3451 -0.1298 -0.3592
  245MOL0     C32950   2.401   3.935   6.683  0.1657  0.2012  0.0896
  245MOL0     C32951   2.300   4.051   6.654  1.1817 -0.1745  0.7113
  245MOL0     C32952   2.334   4.118   6.517  0.4477  0.9053 -0.0535
  245MOL0     C32953   2.235   4.223   6.493  0.4625 -0.7491  0.0504
  245MOL0     C32954   2.271   4.357   6.548  0.2320  0.3598 -0.6328
  245MOL0     C32955   2.209   4.472   6.472  0.0931 -0.7251 -0.1260
  245MOL0     C32956   2.265   4.497   6.333 -0.1784  0.3258  0.1579
  245MOL0     N32957   2.328   4.621   6.305 -1.0548 -0.6735  0.9405
  245MOL0     C32958   2.459   4.671   6.341 -0.7546 -0.0711 -0.8687
  245MOL0     C32959   2.465   4.801   6.294  0.3100  0.0089 -0.2509
  245MOL0     C32960   2.590   4.877   6.311 -0.5751 -0.2613 -0.1218
  245MOL0     C32961   2.713   4.830   6.228 -1.3410  0.7969  0.3128
  245MOL0     C32962   2.825   4.939   6.217 -0.3879  0.4403 -0.3016
  245MOL0     C32963   2.962   4.882   6.173 -0.0071 -0.6031  0.1436
  245MOL0     O32964   3.053   4.990   6.167 -0.0843 -0.0324 -0.1692
  245MOL0     C32965   3.160   4.978   6.083 -0.4197  0.2857 -1.6500
  245MOL0     C32966   3.242   5.092   6.066 -0.1815  0.3336 -0.4329
  245MOL0     C32967   3.361   5.089   5.986  0.6182  1.0395  0.8582
  245MOL0     C32968   3.431   5.218   5.961  0.0857  1.1095  0.2143
  245MOL0     C32969   3.383   4.967   5.914 -0.7947 -0.3509 -0.5064
  245MOL0     C32970   3.513   4.939   5.838  0.6706 -0.2428 -1.0360
  245MOL0     O32971   3.512   4.869   5.720  0.0678 -0.1257  0.6543
  245MOL0     C32972   3.633   4.816   5.685 -0.3462  0.4985  0.0945
  245MOL0     C32973   3.667   4.690   5.726 -0.7863  0.0641  0.2088
  245MOL0     C32974   3.782   4.629   5.702 -0.3716 -0.3580 -0.1760
  245MOL0     C32975   3.887   4.709   5.630  0.6161  0.6514 -0.6495
  245MOL0     O32976   4.011   4.658   5.587  0.8384 -0.2397  0.0954
  245MOL0     C32977   4.070   4.553   5.670 -0.7882 -0.9009  0.8251
  245MOL0     C32978   4.220   4.546   5.651 -0.1498  0.6489 -0.3207
  245MOL0     C32979   4.270   4.541   5.505  0.2458 -0.9005 -0.4321
  245MOL0     C32980   4.422   4.548   5.492 -0.2063 -0.4685 -0.3511
  245MOL0     C32981   4.477   4.506   5.351 -0.1141  0.3253 -0.5029
  245MOL0     C32982   4.428   4.588   5.240 -0.2141 -0.5539 -0.0313
  245MOL0     C32983   4.445   4.535   5.100  0.8965 -0.3392 -1.3709
  245MOL0     C32984   4.336   4.446   5.055  0.0743 -0.0419 -0.0393
  245MOL0    Cl32985   4.354   4.410   4.877  0.5504 -0.3615  0.3301
  245MOL0     C32986   3.849   4.822   5.577  0.0317  0.3849 -0.5563
  245MOL0     C32987   3.731   4.878   5.603 -0.8136 -0.1185 -0.6110
  245MOL0     O32988   3.616   4.985   5.891 -0.7992 -0.0526  0.3998
  245MOL0     C32989   3.294   4.862   5.919  0.3238 -0.0688 -0.9663
  245MOL0     C32990   3.192   4.870   6.003  0.7457  0.1127 -0.6946
  245MOL0     N32991   2.347   4.830   6.232 -1.1150  0.3483  0.3803
  245MOL0     N32992   2.274   4.720   6.235 -0.0062 -0.6737  0.9039
  245MOL0     C32993   2.745   3.693   6.851 -0.0669 -0.4220  0.0848
  245MOL0     C32994   2.763   3.594   6.949  0.7098 -0.5077 -0.1580
  245MOL0     C32995   2.789   3.384   7.350  0.4497 -0.6546  0.3862
  245MOL0     C32996   2.865   3.410   7.456 -0.9040  0.0144 -0.2264
  245MOL0     C32997   2.861   3.328   7.566 -0.6124 -0.6037  0.5311
  245MOL0     C32998   2.778   3.223   7.577  0.9633  0.4004 -0.7127
  245MOL0     O32999   2.757   3.146   7.687 -0.3514 -0.0091 -0.5238
  245MOL0     C33000   2.846   3.040   7.716  0.1479  0.9860  0.4649
  245MOL0     C33001   2.825   2.979   7.853 -0.6166 -0.4376 -0.2718
  245MOL0     C33002   2.679   2.926   7.862 -0.1857 -1.3303 -0.6247
  245MOL0     C33003   2.673   2.811   7.971 -0.7861 -0.1615  0.4155
  245MOL0     C33004   2.741   2.835   8.096  0.3458  0.3185 -0.7490
  245MOL0     C33005   2.818   2.863   8.186 -0.5264  0.2647 -0.4098
  245MOL0     C33006   2.685   3.201   7.472  0.5622 -0.5505 -0.0507
  245MOL0     C33007   2.696   3.286   7.358 -0.2501 -0.2170 -0.5942
  245MOL0     H33008   2.489   3.630   7.131  0.8487 -0.6106  1.3728
  245MOL0     H33009   2.439   3.801   6.971  1.3121  3.8373  0.4107
  245MOL0     H33010   2.496   4.006   6.865 -1.2240 -1.1966 -0.3479
  245MOL0     H33011   2.575   4.068   6.714 -0.1679  0.4834  0.8680
  245MOL0     H33012   2.419   3.890   6.584 -1.4575 -2.7618  1.0179
  245MOL0     H33013   2.362   3.853   6.743 -2.3780 -1.4982 -3.5001
  245MOL0     H33014   2.199   4.013   6.642  1.4625 -1.6272  2.4680
  245MOL0     H33015   2.287   4.120   6.738  0.4109  0.1673  0.3190
  245MOL0     H33016   2.438   4.151   6.503  0.6589  0.6206  0.8253
  245MOL0     H33017   2.312   4.033   6.451 -0.1853  0.2742  0.9559
  245MOL0     H33018   2.228   4.227   6.384 -0.5362 -0.8179  0.1032
  245MOL0     H33019   2.132   4.191   6.513 -0.2211 -0.0770 -2.1606
  245MOL0     H33020   2.233   4.370   6.650 -1.9612  4.3903 -1.7472
  245MOL0     H33021   2.378   4.365   6.528 -0.1470 -0.6220 -3.6418
  245MOL0     H33022   2.102   4.453   6.467 -0.6349  0.9846  4.2534
  245MOL0     H33023   2.221   4.562   6.534  1.8418 -0.2928 -1.0208
  245MOL0     H33024   2.180   4.476   6.267 -0.6994 -0.4886  1.0631
  245MOL0     H33025   2.349   4.428   6.316  3.5477  4.3092  0.5366
  245MOL0     H33026   2.541   4.632   6.400 -1.8769  1.4285  1.8760
  245MOL0     H33027   2.564   4.976   6.274  0.1360  0.8272  2.1351
  245MOL0     H33028   2.608   4.888   6.418  1.4623  1.1456 -0.5355
  245MOL0     H33029   2.678   4.801   6.129 -1.8250 -1.0766  0.9744
  245MOL0     H33030   2.752   4.739   6.276  1.0622  1.8950  0.5734
  245MOL0     H33031   2.836   5.001   6.307  2.4610  1.6592 -1.3714
  245MOL0     H33032   2.803   5.020   6.146  0.8249 -0.3454 -1.6162
  245MOL0     H33033   2.937   4.843   6.075  0.6566 -2.8974  0.8313
  245MOL0     H33034   2.996   4.803   6.241 -0.6057  0.3276  1.5841
  245MOL0     H33035   3.216   5.161   6.146 -3.1589 -4.1947  3.0484
  245MOL0     H33036   3.457   5.239   5.857  0.8966 -2.4214 -0.4398
  245MOL0     H33037   3.357   5.291   5.994 -2.4053 -1.2546  0.2975
  245MOL0     H33038   3.520   5.237   6.021  0.9866  5.4497 -2.1160
  245MOL0     H33039   3.594   4.630   5.778  0.4920  0.8793  3.1350
  245MOL0     H33040   3.809   4.529   5.731  5.0744  0.6047 -0.9666
  245MOL0     H33041   4.045   4.555   5.776 -0.1850  1.0549  0.9686
  245MOL0     H33042   4.038   4.461   5.619  0.6168  0.6401 -3.2196
  245MOL0     H33043   4.272   4.628   5.701 -0.4993  2.0191 -2.1128
  245MOL0     H33044   4.245   4.448   5.695 -1.1390 -0.1248 -1.4286
  245MOL0     H33045   4.222   4.624   5.452  2.2211 -0.0201 -0.9317
  245MOL0     H33046   4.237   4.452   5.452 -1.4032  0.4782 -1.8368
  245MOL0     H33047   4.446   4.652   5.515  2.7820 -1.2643  0.4673
  245MOL0     H33048   4.470   4.480   5.562  0.9204 -0.0273 -0.6711
  245MOL0     H33049   4.444   4.405   5.324 -0.8315  0.4978 -0.3029
  245MOL0     H33050   4.586   4.501   5.344 -0.2144 -0.2746 -2.0127
  245MOL0     H33051   4.324   4.614   5.260  0.9409  2.0354  3.4589
  245MOL0     H33052   4.489   4.678   5.231 -1.3035  0.6081  2.9103
  245MOL0     H33053   4.538   4.477   5.098  0.1448 -1.5476 -2.0557
  245MOL0     H33054   4.443   4.621   5.032  1.5576  1.4383  0.7185
  245MOL0     H33055   4.238   4.493   5.069  0.7719  1.4443  0.0109
  245MOL0     H33056   4.332   4.349   5.105 -2.7201 -0.2286 -0.4805
  245MOL0     H33057   3.914   4.876   5.509 -1.1078  2.3478 -0.1813
  245MOL0     H33058   3.714   4.977   5.562  1.3795 -0.2446 -1.9625
  245MOL0     H33059   3.313   4.777   5.855  0.4271 -0.9363  0.1904
  245MOL0     H33060   3.123   4.787   6.003 -3.1826  3.0378  0.8732
  245MOL0     H33061   2.823   3.700   6.776  2.9202 -0.2841  2.9779
  245MOL0     H33062   2.844   3.520   6.951  0.0332 -1.2549  0.1847
  245MOL0     H33063   2.920   3.503   7.464  0.5190 -0.8950  1.3839
  245MOL0     H33064   2.921   3.345   7.655 -0.8871  3.6580  0.0991
  245MOL0     H33065   2.842   2.966   7.635 -0.9056  2.4704 -0.8933
  245MOL0     H33066   2.943   3.088   7.727 -0.5969  2.5096  0.5721
  245MOL0     H33067   2.835   3.054   7.932 -1.8189 -0.9443  0.3764
  245MOL0     H33068   2.901   2.901   7.867  0.9384  1.2988  1.6997
  245MOL0     H33069   2.638   2.879   7.772  1.0926 -2.5939 -0.5838
  245MOL0     H33070   2.611   3.008   7.885  1.3609  0.4319 -2.0222
  245MOL0     H33071   2.715   2.721   7.924 -3.6561 -2.9717  2.7561
  245MOL0     H33072   2.566   2.790   7.972 -1.2260  1.6487  3.5586
  245MOL0     H33073   2.889   2.883   8.264 -1.5511 -0.6546  0.8095
  245MOL0     H33074   2.606   3.126   7.476  0.0692  0.0027  3.2683
  245MOL0     H33075   2.631   3.266   7.273 -0.5657  0.3263 -0.4847
  246MOL0     O33076   9.485   6.466   7.901 -0.1171 -0.0091  0.7717
  246MOL0     C33077   9.405   6.394   7.858 -0.0319  0.8737  0.6486
  246MOL0     O33078   9.433   6.293   7.762  0.1357 -0.1632  0.2672
  246MOL0     C33079   9.567   6.268   7.745  0.1873  0.1077  0.4391
  246MOL0     C33080   9.644   6.353   7.667 -1.2121 -0.2283  0.2343
  246MOL0     C33081   9.789   6.345   7.672  0.3398 -0.2501  0.0859
  246MOL0     C33082   9.845   6.239   7.746 -0.1660  0.7065 -0.1158
  246MOL0     O33083   9.980   6.228   7.755 -0.2069  0.7483 -0.0414
  246MOL0     C33084  10.044   6.262   7.874  0.4855  1.1957  0.3186
  246MOL0     C33085  10.190   6.245   7.854 -0.6450 -0.7568  0.2701
  246MOL0     C33086  10.255   6.108   7.850 -0.4718  0.1826 -0.9065
  246MOL0     C33087  10.198   6.026   7.965  0.5923 -0.6408  0.1700
  246MOL0     C33088  10.266   5.903   8.004 -0.2657  0.7923  0.9091
  246MOL0     C33089  10.238   5.805   7.893  0.0426  0.8290  1.0463
  246MOL0     C33090  10.271   5.654   7.916  1.1455 -0.0290  0.5268
  246MOL0     C33091  10.222   5.559   7.804 -0.1619  0.0162  0.7687
  246MOL0     N33092  10.267   5.585   7.662  0.5876 -0.0779 -0.8262
  246MOL0     C33093  10.369   5.522   7.600  0.9249  0.5130 -0.4460
  246MOL0     C33094  10.358   5.570   7.475  0.4468 -0.4351  0.6194
  246MOL0     C33095  10.459   5.541   7.369  0.9611 -1.1782 -0.7212
  246MOL0     C33096  10.395   5.515   7.235  0.3657  1.1082  0.2212
  246MOL0     C33097  10.391   5.368   7.188  0.0152  0.1866  0.4678
  246MOL0     C33098  10.270   5.285   7.255 -0.1819  0.3419  0.0337
  246MOL0     O33099  10.272   5.151   7.207  0.6955 -0.5996  0.2933
  246MOL0     C33100  10.156   5.075   7.188 -0.4220 -0.7504 -0.1418
  246MOL0     C33101  10.024   5.121   7.212 -0.9710  0.2731  0.4910
  246MOL0     C33102   9.911   5.041   7.176 -0.3711 -0.6685  0.0714
  246MOL0     C33103   9.774   5.110   7.212 -0.0604  0.5243 -0.5167
  246MOL0     C33104   9.926   4.913   7.129  0.7008  0.4972 -0.0132
  246MOL0     C33105   9.820   4.815   7.087  0.1737 -0.1398  0.4034
  246MOL0     O33106   9.849   4.732   6.988 -0.1134 -0.0763  0.8642
  246MOL0     C33107   9.760   4.681   6.900 -0.9121  0.0803  0.6083
  246MOL0     C33108   9.778   4.554   6.870  1.2103  0.1803 -0.2736
  246MOL0     C33109   9.687   4.490   6.788 -1.4212  0.2423  1.3655
  246MOL0     C33110   9.581   4.559   6.721 -0.8491  1.2207  0.7685
  246MOL0     O33111   9.512   4.478   6.634  0.2405 -0.4206  0.0248
  246MOL0     C33112   9.369   4.507   6.618 -0.2763  0.1570  0.5412
  246MOL0     C33113   9.303   4.389   6.537 -0.8397  0.8315  0.0551
  246MOL0     C33114   9.148   4.393   6.550  0.6088 -0.3018  1.1587
  246MOL0     C33115   9.085   4.304   6.442 -0.2036 -0.5185  0.3225
  246MOL0     C33116   9.105   4.356   6.287 -0.0911  0.2076  0.0118
  246MOL0     C33117   9.041   4.272   6.183 -0.0781 -0.6999  0.8354
  246MOL0     C33118   8.896   4.313   6.155 -0.9894 -0.2655  0.5869
  246MOL0     C33119   8.899   4.427   6.068 -0.2552 -0.0361  0.5978
  246MOL0    Cl33120   8.769   4.539   6.103  0.1626  0.0624  0.2034
  246MOL0     C33121   9.564   4.693   6.747 -0.0329  0.2938  0.1437
  246MOL0     C33122   9.661   4.761   6.841  0.3628  0.9960  0.3226
  246MOL0     O33123   9.722   4.812   7.156  0.5509 -1.1857  0.4543
  246MOL0     C33124  10.056   4.868   7.105 -0.3857 -0.3256 -0.1522
  246MOL0     C33125  10.167   4.950   7.126  0.7279 -1.7067 -0.0898
  246MOL0     N33126  10.249   5.658   7.466 -0.0545 -0.2111  0.2136
  246MOL0     N33127  10.197   5.673   7.588 -0.8881  0.3814  0.0640
  246MOL0     C33128   9.764   6.147   7.817 -0.3388  0.3810  0.0247
  246MOL0     C33129   9.626   6.169   7.814  1.0050 -0.5399 -0.3085
  246MOL0     C33130   9.263   6.407   7.900  0.9646  0.7692  1.1843
  246MOL0     C33131   9.221   6.528   7.967 -0.5522  0.1456 -0.9091
  246MOL0     C33132   9.082   6.544   8.005 -0.4056 -0.2438  1.0381
  246MOL0     C33133   8.983   6.457   7.965 -1.1542  1.1785  0.2117
  246MOL0     O33134   8.863   6.492   8.012 -0.3233  0.3133  0.7190
  246MOL0     C33135   8.748   6.424   7.951 -0.0553 -0.4064 -0.6734
  246MOL0     C33136   8.623   6.451   8.032 -0.2983  0.1235 -0.1087
  246MOL0     C33137   8.615   6.378   8.172 -0.0781 -0.9212  0.1692
  246MOL0     C33138   8.471   6.387   8.226  0.0914 -0.7677 -0.9649
  246MOL0     C33139   8.365   6.293   8.167  0.3115 -0.5943 -0.3404
  246MOL0     C33140   8.280   6.212   8.130  0.0581  0.3200 -0.6515
  246MOL0     C33141   9.028   6.360   7.872  1.1540 -0.5686 -0.0609
  246MOL0     C33142   9.159   6.325   7.845  0.1398 -0.0611  1.0390
  246MOL0     H33143   9.612   6.430   7.598  3.8202  2.0109 -0.0318
  246MOL0     H33144   9.857   6.414   7.622 -0.1778 -1.5112 -2.5612
  246MOL0     H33145  10.021   6.368   7.892  1.9622  1.3269  1.6453
  246MOL0     H33146  10.006   6.205   7.959 -0.3830 -1.4844 -1.7271
  246MOL0     H33147  10.220   6.304   7.767 -2.0748 -2.2355 -1.3024
  246MOL0     H33148  10.226   6.292   7.946  1.8532 -0.3217 -0.8529
  246MOL0     H33149  10.234   6.063   7.752  2.9799 -1.5873 -0.9990
  246MOL0     H33150  10.363   6.121   7.840  0.2081 -4.8005 -3.5587
  246MOL0     H33151  10.185   6.096   8.048 -0.3756  1.4793 -1.6607
  246MOL0     H33152  10.095   6.001   7.941  0.4565  2.4324 -3.3104
  246MOL0     H33153  10.373   5.925   8.014 -0.6652  1.7811  3.9168
  246MOL0     H33154  10.233   5.859   8.099 -0.0960 -0.5409  0.3738
  246MOL0     H33155  10.130   5.814   7.877  0.1262  0.4783  0.2224
  246MOL0     H33156  10.299   5.840   7.809  0.5866  0.4002  1.2592
  246MOL0     H33157  10.380   5.654   7.925  1.3231  4.8227  0.7734
  246MOL0     H33158  10.222   5.634   8.011  0.2696  1.4475  0.4184
  246MOL0     H33159  10.113   5.561   7.819  0.0914  1.4084  2.7745
  246MOL0     H33160  10.262   5.460   7.825 -2.4904 -1.3429 -0.7446
  246MOL0     H33161  10.438   5.445   7.634  2.2962  0.7053 -2.6435
  246MOL0     H33162  10.523   5.628   7.354 -1.3437  0.5947 -0.7485
  246MOL0     H33163  10.532   5.464   7.396  0.6680 -1.6228 -1.1602
  246MOL0     H33164  10.462   5.563   7.163  1.4045  1.5826  1.4527
  246MOL0     H33165  10.294   5.556   7.226  0.7639  1.6758 -2.4520
  246MOL0     H33166  10.488   5.322   7.209  2.6622  4.6076 -0.5391
  246MOL0     H33167  10.377   5.376   7.080 -0.3933 -1.6771  0.3463
  246MOL0     H33168  10.173   5.330   7.232 -0.6385 -0.6820 -0.0888
  246MOL0     H33169  10.275   5.275   7.364  0.2274 -0.0526 -0.0196
  246MOL0     H33170  10.017   5.207   7.279  1.7784  0.3977  0.7562
  246MOL0     H33171   9.695   5.083   7.142 -0.1351 -2.2881  0.5616
  246MOL0     H33172   9.732   5.082   7.309  1.7443  2.3857  0.9082
  246MOL0     H33173   9.772   5.220   7.205  0.2516  0.4719 -1.6677
  246MOL0     H33174   9.851   4.484   6.911  0.5848 -1.0315 -1.1366
  246MOL0     H33175   9.707   4.384   6.775 -2.4528  0.3266 -1.4448
  246MOL0     H33176   9.304   4.519   6.706 -0.8960 -3.6878  0.7754
  246MOL0     H33177   9.368   4.597   6.557  1.2579 -0.2890 -0.1998
  246MOL0     H33178   9.338   4.400   6.434  0.9644  1.9919  0.7467
  246MOL0     H33179   9.340   4.300   6.590  1.9624  0.8063 -1.7510
  246MOL0     H33180   9.125   4.498   6.530 -2.7939 -0.4782  3.3350
  246MOL0     H33181   9.111   4.371   6.651 -4.6851  2.6832  0.2485
  246MOL0     H33182   9.110   4.198   6.455 -1.5344 -0.7480  1.1987
  246MOL0     H33183   8.978   4.296   6.461 -0.3951  0.0313 -0.4537
  246MOL0     H33184   9.208   4.376   6.257 -0.1635  1.0857  0.3371
  246MOL0     H33185   9.060   4.455   6.297 -0.3310 -0.0057  1.1463
  246MOL0     H33186   9.097   4.287   6.091 -1.5482  2.3783  0.3222
  246MOL0     H33187   9.045   4.165   6.206  0.2559 -1.0866 -0.9239
  246MOL0     H33188   8.846   4.325   6.251  0.2163  0.1036  1.1923
  246MOL0     H33189   8.854   4.230   6.097  4.1529 -4.1996  1.7052
  246MOL0     H33190   8.884   4.387   5.968  2.1735 -0.6617  0.4325
  246MOL0     H33191   8.997   4.477   6.065  3.2694 -6.0351 -1.9633
  246MOL0     H33192   9.489   4.747   6.691  0.8062 -0.7759 -2.1247
  246MOL0     H33193   9.669   4.867   6.864  1.4345  0.5548  2.2257
  246MOL0     H33194  10.080   4.772   7.062  1.5167  1.0362 -2.4455
  246MOL0     H33195  10.255   4.889   7.110 -0.0957 -2.2972 -3.1174
  246MOL0     H33196   9.796   6.055   7.864  1.6706  0.4123 -1.1765
  246MOL0     H33197   9.561   6.099   7.864 -0.0402  1.1078  0.7536
  246MOL0     H33198   9.293   6.601   8.003 -1.0509  0.0750  0.2696
  246MOL0     H33199   9.046   6.623   8.071 -1.5456  0.8348 -0.7826
  246MOL0     H33200   8.730   6.452   7.847 -1.1585 -3.5073 -1.4085
  246MOL0     H33201   8.770   6.317   7.945  0.3478 -0.2618 -4.3544
  246MOL0     H33202   8.540   6.425   7.966  0.6560 -0.7878 -0.9916
  246MOL0     H33203   8.627   6.557   8.057  0.3759  0.0188  0.2616
  246MOL0     H33204   8.679   6.425   8.247 -2.2590 -2.8296  3.4616
  246MOL0     H33205   8.643   6.272   8.166 -0.5819 -1.1706  1.7398
  246MOL0     H33206   8.432   6.489   8.215 -0.4696 -0.7019  1.0753
  246MOL0     H33207   8.472   6.380   8.336  1.3601 -1.8898 -1.0267
  246MOL0     H33208   8.207   6.134   8.133  2.4070 -2.0016 -0.0222
  246MOL0     H33209   8.963   6.288   7.823 -0.4082  1.3906 -0.9691
  246MOL0     H33210   9.182   6.235   7.789 -1.3970 -0.5442  1.1480
  247MOL0     O33211   7.471   9.743   8.725 -0.1427  0.6213  0.0655
  247MOL0     C33212   7.515   9.846   8.765  0.3871  0.1719 -0.6828
  247MOL0     O33213   7.636   9.861   8.822  0.7878 -0.3175 -0.4916
  247MOL0     C33214   7.741   9.787   8.793 -0.5596  0.3575  0.1136
  247MOL0     C33215   7.839   9.758   8.888  0.5022 -0.0628 -1.0415
  247MOL0     C33216   7.959   9.689   8.857  0.9464  0.2231 -0.0487
  247MOL0     C33217   7.994   9.675   8.723 -0.0134  0.7668  0.1782
  247MOL0     O33218   8.125   9.640   8.696  0.1356  0.3047  0.3675
  247MOL0     C33219   8.175   9.631   8.554 -0.7903 -0.0070 -0.7872
  247MOL0     C33220   8.121   9.498   8.485  0.7500 -0.0475 -0.2530
  247MOL0     C33221   8.174   9.366   8.561 -0.0293 -0.7054 -1.2091
  247MOL0     C33222   8.326   9.358   8.576 -0.8523 -0.7647  0.2167
  247MOL0     C33223   8.377   9.218   8.594  0.3845 -0.3815  0.2121
  247MOL0     C33224   8.327   9.138   8.722  1.2393 -0.1039  0.0032
  247MOL0     C33225   8.425   9.030   8.765 -0.8647 -0.2778 -1.2098
  247MOL0     C33226   8.373   8.954   8.886  0.4666  0.1722 -0.3917
  247MOL0     N33227   8.450   8.834   8.917  0.3832  0.3266 -0.2952
  247MOL0     C33228   8.588   8.833   8.938  0.7382 -0.2311 -0.3642
  247MOL0     C33229   8.606   8.699   8.980 -0.1283 -0.2106  0.2406
  247MOL0     C33230   8.727   8.619   9.014 -0.2255  0.7384 -0.3173
  247MOL0     C33231   8.817   8.584   8.900  0.7816 -0.1560  0.3301
  247MOL0     C33232   8.933   8.492   8.963 -0.3265 -0.4048 -0.1750
  247MOL0     C33233   8.908   8.353   8.909  0.0426  0.2906  0.0299
  247MOL0     O33234   8.857   8.264   9.005  0.2605  0.3303 -1.1688
  247MOL0     C33235   8.924   8.142   9.032  0.3013  0.7124  0.2781
  247MOL0     C33236   8.885   8.025   8.958 -0.7808 -0.4405 -0.5285
  247MOL0     C33237   8.954   7.908   8.979  0.2339  0.3081  0.1258
  247MOL0     C33238   8.905   7.784   8.901  0.7960 -0.5063 -0.3711
  247MOL0     C33239   9.063   7.901   9.074 -0.7891  0.8592  0.0226
  247MOL0     C33240   9.151   7.780   9.103 -0.1324  0.1952  0.3724
  247MOL0     O33241   9.263   7.809   9.182  0.1812  0.5506 -0.0287
  247MOL0     C33242   9.375   7.733   9.190 -0.2995  0.0849  0.2494
  247MOL0     C33243   9.446   7.676   9.078 -0.4163 -0.3807 -0.5547
  247MOL0     C33244   9.562   7.594   9.101  0.5581 -0.0633  0.5823
  247MOL0     C33245   9.620   7.596   9.227  0.1943 -0.3014 -0.9160
  247MOL0     O33246   9.740   7.533   9.248  0.6570  0.3378 -0.1679
  247MOL0     C33247   9.731   7.416   9.334 -0.0742 -0.5064 -0.2604
  247MOL0     C33248   9.860   7.414   9.411  0.2804  0.1065 -0.4062
  247MOL0     C33249   9.845   7.325   9.530 -0.3011 -1.0415 -0.3371
  247MOL0     C33250   9.963   7.347   9.634  0.3992  0.0338 -0.6316
  247MOL0     C33251   9.931   7.261   9.757  1.0627 -0.1386 -0.4794
  247MOL0     C33252  10.064   7.245   9.840  0.4445  0.7299 -0.6015
  247MOL0     C33253  10.043   7.125   9.942 -1.1510  0.0636  0.0254
  247MOL0     C33254  10.164   7.130  10.038  0.3710 -0.4928  0.7198
  247MOL0    Cl33255  10.107   7.174  10.200  0.0990  0.1882 -0.7215
  247MOL0     C33256   9.556   7.658   9.339 -0.4604  0.5399 -0.0847
  247MOL0     C33257   9.434   7.721   9.322  0.5042  0.3621  0.3422
  247MOL0     O33258   9.120   7.677   9.048 -1.0442  0.6734  0.3533
  247MOL0     C33259   9.101   8.020   9.141  1.1608  0.2178  0.1573
  247MOL0     C33260   9.029   8.137   9.125 -0.1660  0.6039 -0.7803
  247MOL0     N33261   8.484   8.633   8.982  0.5508  0.0853 -1.1353
  247MOL0     N33262   8.399   8.714   8.946 -0.3010  0.0346 -0.1633
  247MOL0     C33263   7.886   9.694   8.628 -0.7478  0.0892 -1.4213
  247MOL0     C33264   7.767   9.757   8.662  0.2993  0.1257  1.1533
  247MOL0     C33265   7.418   9.961   8.771 -0.5381 -0.0524 -0.0983
  247MOL0     C33266   7.441  10.063   8.862  0.3582 -0.6026  0.3426
  247MOL0     C33267   7.350  10.169   8.878  0.2194 -0.3986  0.5735
  247MOL0     C33268   7.230  10.172   8.800 -1.2023 -0.1559  0.7816
  247MOL0     O33269   7.146  10.275   8.822  0.0321 -0.3777 -0.3407
  247MOL0     C33270   7.013  10.271   8.772 -0.1356 -0.4221 -0.0912
  247MOL0     C33271   6.931  10.392   8.839  0.0284  0.0763  0.0595
  247MOL0     C33272   6.921  10.398   8.991 -0.8201 -1.2501 -0.0338
  247MOL0     C33273   6.866  10.270   9.050  1.0179 -0.1744  0.5611
  247MOL0     C33274   6.718  10.268   9.017  0.5621  0.0728 -0.9925
  247MOL0     C33275   6.604  10.267   8.982  0.2493 -0.3886 -0.1707
  247MOL0     C33276   7.216  10.066   8.710  0.6259  1.0056  0.0120
  247MOL0     C33277   7.304   9.958   8.694  0.5645 -0.0311 -0.0340
  247MOL0     H33278   7.819   9.772   8.994  2.1436 -2.1763 -0.3767
  247MOL0     H33279   8.031   9.668   8.936  1.1169  0.8927 -0.0151
  247MOL0     H33280   8.142   9.715   8.492  0.2255  0.9899 -0.0305
  247MOL0     H33281   8.284   9.627   8.556 -0.8183 -0.7635  0.8533
  247MOL0     H33282   8.012   9.490   8.490  0.5797 -0.6972 -3.3607
  247MOL0     H33283   8.140   9.489   8.378  0.8072 -2.2979 -0.1020
  247MOL0     H33284   8.125   9.361   8.659 -0.5950 -1.3376 -1.5140
  247MOL0     H33285   8.138   9.284   8.499 -0.1741 -0.0803 -1.9725
  247MOL0     H33286   8.368   9.406   8.487  0.7990 -2.9792 -0.2850
  247MOL0     H33287   8.370   9.416   8.657 -0.8342 -0.2697 -0.1410
  247MOL0     H33288   8.346   9.166   8.503  0.4134 -1.3487  0.7444
  247MOL0     H33289   8.486   9.218   8.602  0.3793 -0.4800  0.2821
  247MOL0     H33290   8.325   9.203   8.810  1.2677 -2.3248  1.7488
  247MOL0     H33291   8.226   9.112   8.690  1.9748 -0.4525 -2.1991
  247MOL0     H33292   8.442   8.952   8.691 -1.8955 -1.8357  0.1074
  247MOL0     H33293   8.523   9.068   8.795 -0.2844 -3.1436  1.0601
  247MOL0     H33294   8.276   8.912   8.858 -0.0138 -0.2508  1.6861
  247MOL0     H33295   8.365   9.007   8.982 -1.0132  0.7733 -0.8137
  247MOL0     H33296   8.660   8.911   8.918  0.1585  0.3868 -0.0849
  247MOL0     H33297   8.783   8.685   9.081  2.5746 -1.6988 -0.0560
  247MOL0     H33298   8.716   8.525   9.068  1.5072  1.1771  0.8824
  247MOL0     H33299   8.868   8.671   8.856 -1.4565  0.9346 -0.2341
  247MOL0     H33300   8.763   8.536   8.818  1.0711  1.4369 -0.8314
  247MOL0     H33301   8.941   8.488   9.072 -0.9831 -1.6554 -0.1578
  247MOL0     H33302   9.034   8.522   8.932  0.4512  0.7250  3.0712
  247MOL0     H33303   9.006   8.315   8.879  1.1340  2.6693  0.3575
  247MOL0     H33304   8.847   8.353   8.819  2.1916  3.0981 -1.5985
  247MOL0     H33305   8.801   8.045   8.892 -2.8721  0.3605  2.2278
  247MOL0     H33306   8.807   7.812   8.861 -0.1630  0.9573  2.7513
  247MOL0     H33307   8.973   7.749   8.822  0.7112  0.2275 -0.7728
  247MOL0     H33308   8.883   7.701   8.968  1.7596 -2.8891 -2.7792
  247MOL0     H33309   9.408   7.677   8.976 -0.1482  2.2281 -0.7175
  247MOL0     H33310   9.606   7.538   9.019 -0.3450 -1.8799  1.2920
  247MOL0     H33311   9.649   7.420   9.406  1.8823  0.1872  2.0949
  247MOL0     H33312   9.711   7.333   9.266 -4.3621  1.4206 -1.7574
  247MOL0     H33313   9.942   7.379   9.348  0.8010  0.1717  0.2126
  247MOL0     H33314   9.882   7.516   9.443  0.2282  0.5257 -1.6614
  247MOL0     H33315   9.865   7.223   9.496  3.7782  0.3190 -2.7515
  247MOL0     H33316   9.744   7.331   9.573  0.8135  0.6805  2.3239
  247MOL0     H33317  10.052   7.323   9.574  0.9146  2.0564 -0.7340
  247MOL0     H33318   9.976   7.450   9.667 -2.2224 -0.4088  2.2444
  247MOL0     H33319   9.897   7.161   9.728 -1.5343 -0.7154  3.6100
  247MOL0     H33320   9.849   7.306   9.815  0.1922 -0.6410 -1.2895
  247MOL0     H33321  10.153   7.220   9.781  2.1664 -2.3153  2.8800
  247MOL0     H33322  10.064   7.345   9.883 -4.9280  1.5105 -1.6455
  247MOL0     H33323  10.041   7.032   9.884  0.2023  0.7275 -1.1642
  247MOL0     H33324   9.949   7.134   9.997  0.4588  1.4236  2.7959
  247MOL0     H33325  10.239   7.199   9.998 -1.8929  0.5053 -2.2183
  247MOL0     H33326  10.218   7.035  10.046  2.6000  0.4097 -1.9342
  247MOL0     H33327   9.602   7.650   9.437  0.9621 -2.4437 -0.8788
  247MOL0     H33328   9.379   7.750   9.411 -2.9722 -0.5326 -1.3585
  247MOL0     H33329   9.190   8.017   9.202 -0.7704 -0.0866  3.1754
  247MOL0     H33330   9.074   8.225   9.169  2.1184 -1.4157  1.1833
  247MOL0     H33331   7.900   9.669   8.523 -0.2445  2.4042 -1.9641
  247MOL0     H33332   7.708   9.796   8.580 -0.2662 -0.6916  1.1648
  247MOL0     H33333   7.527  10.043   8.925  0.1592 -1.2341  0.4141
  247MOL0     H33334   7.355  10.256   8.943 -0.2325  0.5152 -0.5866
  247MOL0     H33335   7.009  10.277   8.663 -3.8390  1.2260 -0.0422
  247MOL0     H33336   6.959  10.180   8.800 -0.7523  0.0726  0.3482
  247MOL0     H33337   6.828  10.410   8.809 -0.5034 -0.5428  1.4131
  247MOL0     H33338   6.981  10.485   8.810 -0.1684  0.2103  0.1528
  247MOL0     H33339   6.873  10.487   9.034 -2.3015 -2.7989  1.6944
  247MOL0     H33340   7.025  10.398   9.026 -0.8690 -1.7205  0.1248
  247MOL0     H33341   6.888  10.269   9.158 -3.1064  2.5498  1.6845
  247MOL0     H33342   6.914  10.187   8.998  2.0849  3.1338 -4.4374
  247MOL0     H33343   6.509  10.256   8.935 -0.1101 -2.5299  0.9412
  247MOL0     H33344   7.123  10.071   8.653  0.9627 -2.3532 -1.0102
  247MOL0     H33345   7.283   9.859   8.655  0.6673 -0.5209  1.1090
  248MOL0     O33346  10.900   5.371   0.183 -0.0102 -0.1083 -0.1023
  248MOL0     C33347  10.875   5.494   0.169 -0.2212  0.3040  0.1863
  248MOL0     O33348  10.963   5.585   0.122  0.6795  0.7006 -0.8709
  248MOL0     C33349  11.074   5.547   0.065  0.7641  0.8752  0.0660
  248MOL0     C33350  11.068   5.503  -0.065 -0.6381  0.5948 -0.5602
  248MOL0     C33351  11.185   5.478  -0.147  0.6104 -0.3493  0.9350
  248MOL0     C33352  11.311   5.505  -0.091  0.0641 -0.1398 -0.2601
  248MOL0     O33353  11.430   5.482  -0.152 -0.8659 -0.5836 -0.1243
  248MOL0     C33354  11.433   5.436  -0.285 -1.0012  0.8362 -0.6618
  248MOL0     C33355  11.570   5.405  -0.326  0.4870  0.3861 -0.8071
  248MOL0     C33356  11.640   5.530  -0.382  0.1268 -0.1977  0.2400
  248MOL0     C33357  11.780   5.517  -0.429 -0.1241 -0.5145 -0.1400
  248MOL0     C33358  11.821   5.632  -0.519  0.8099  0.6432 -0.0705
  248MOL0     C33359  11.824   5.763  -0.440  0.0776  0.1776 -0.9113
  248MOL0     C33360  11.894   5.888  -0.506  0.1884  0.9551 -0.5329
  248MOL0     C33361  12.042   5.859  -0.520  0.1774  0.4123  0.4563
  248MOL0     N33362  12.114   5.952  -0.590 -0.3671  1.1280  0.3959
  248MOL0     C33363  12.119   5.943  -0.726  0.4943  0.1081 -0.3108
  248MOL0     C33364  12.203   6.047  -0.757  0.2362  0.6164  0.3763
  248MOL0     C33365  12.243   6.076  -0.898 -0.4487  0.2915 -0.0002
  248MOL0     C33366  12.351   5.978  -0.944  0.3155  0.9968  0.6920
  248MOL0     C33367  12.486   5.993  -0.886  0.1236 -0.5886  0.1519
  248MOL0     C33368  12.560   5.861  -0.904  0.2569  0.8135  0.1281
  248MOL0     O33369  12.580   5.845  -1.038 -0.0110  0.1387  0.4034
  248MOL0     C33370  12.684   5.890  -1.117  0.2776 -0.3746  0.2226
  248MOL0     C33371  12.695   5.834  -1.247 -0.0327  0.1908  0.5678
  248MOL0     C33372  12.792   5.881  -1.340 -0.0135  0.5774  0.3739
  248MOL0     C33373  12.805   5.812  -1.475 -0.0490  0.4837  0.2799
  248MOL0     C33374  12.873   5.990  -1.301 -0.7139 -1.1252  0.0851
  248MOL0     C33375  12.976   6.062  -1.384 -0.3385 -0.6926  0.4269
  248MOL0     O33376  13.063   6.153  -1.332 -0.1341 -0.0478  0.0879
  248MOL0     C33377  13.122   6.244  -1.425 -0.3147 -0.8444 -0.5591
  248MOL0     C33378  13.039   6.346  -1.486 -0.5596  1.0270 -0.3943
  248MOL0     C33379  13.096   6.442  -1.556 -0.8617  0.0153  0.7728
  248MOL0     C33380  13.238   6.445  -1.582  0.4656  0.2070 -0.2270
  248MOL0     O33381  13.286   6.557  -1.657 -0.1555  0.3205 -0.8795
  248MOL0     C33382  13.425   6.604  -1.648 -0.1005  0.0383  0.6043
  248MOL0     C33383  13.426   6.692  -1.533 -0.1312 -0.5736  0.2989
  248MOL0     C33384  13.369   6.830  -1.559  0.7546  0.4678  0.0117
  248MOL0     C33385  13.400   6.918  -1.438 -0.1553 -0.8458 -0.0024
  248MOL0     C33386  13.339   7.060  -1.443 -0.2776 -0.4381 -0.4730
  248MOL0     C33387  13.387   7.142  -1.311 -0.3730  0.2584 -1.3475
  248MOL0     C33388  13.360   7.288  -1.345  0.0257 -0.9779  0.2312
  248MOL0     C33389  13.416   7.377  -1.236 -0.0136  0.6644 -0.0705
  248MOL0    Cl33390  13.590   7.388  -1.253 -0.0480 -0.1020  0.8485
  248MOL0     C33391  13.318   6.342  -1.532 -0.8306 -0.3654  0.2115
  248MOL0     C33392  13.265   6.245  -1.438 -0.1771  0.5343  0.6314
  248MOL0     O33393  12.974   6.041  -1.503 -0.0892 -0.1245  0.2075
  248MOL0     C33394  12.863   6.040  -1.167 -0.1551 -0.5543  0.3227
  248MOL0     C33395  12.780   5.983  -1.071 -0.1001 -0.7732  0.6182
  248MOL0     N33396  12.247   6.103  -0.644  0.0336 -0.0366  0.1982
  248MOL0     N33397  12.190   6.045  -0.539 -0.0445 -0.5518  0.8125
  248MOL0     C33398  11.309   5.564   0.038  0.3278  0.2103  0.5080
  248MOL0     C33399  11.194   5.586   0.118 -0.1916 -0.9153  0.0817
  248MOL0     C33400  10.731   5.540   0.194 -0.3386  1.8607 -0.7846
  248MOL0     C33401  10.656   5.442   0.265 -0.1261 -0.6423 -0.3922
  248MOL0     C33402  10.524   5.467   0.267 -0.8081  0.4121  0.5728
  248MOL0     C33403  10.472   5.583   0.220  0.2868  0.2909  0.2526
  248MOL0     O33404  10.342   5.620   0.234 -0.0679 -0.4512 -0.4067
  248MOL0     C33405  10.255   5.563   0.335  0.8428 -1.0246  0.1780
  248MOL0     C33406  10.175   5.427   0.298 -0.3993 -0.5039 -0.5087
  248MOL0     C33407  10.110   5.450   0.165 -0.5557  0.4468  0.2175
  248MOL0     C33408  10.023   5.336   0.124  0.4409  0.3031 -0.0265
  248MOL0     C33409   9.896   5.332   0.195  0.0105  0.6074 -0.6927
  248MOL0     C33410   9.779   5.319   0.234  0.0589  0.2607 -0.4199
  248MOL0     C33411  10.544   5.678   0.148  1.1342  0.7477  0.5916
  248MOL0     C33412  10.675   5.650   0.127  0.4063 -0.6200  0.1553
  248MOL0     H33413  10.971   5.464  -0.093 -0.3803 -1.7899  1.4594
  248MOL0     H33414  11.173   5.434  -0.245 -0.5436  2.8928 -0.5248
  248MOL0     H33415  11.402   5.332  -0.299 -3.5867  1.9424 -4.7936
  248MOL0     H33416  11.378   5.501  -0.354 -2.3476  2.9968  2.2505
  248MOL0     H33417  11.627   5.367  -0.241  1.9811  0.7700 -1.6070
  248MOL0     H33418  11.581   5.330  -0.404 -0.5088 -2.3874  1.5404
  248MOL0     H33419  11.568   5.562  -0.458 -2.6061 -2.2617  1.7680
  248MOL0     H33420  11.630   5.605  -0.304 -0.3423 -0.7690  0.7445
  248MOL0     H33421  11.855   5.512  -0.350 -3.0530  1.0673  2.9935
  248MOL0     H33422  11.788   5.432  -0.498  1.8010  1.4303 -2.5207
  248MOL0     H33423  11.922   5.606  -0.550  1.0122  1.6898 -0.3152
  248MOL0     H33424  11.752   5.637  -0.603  1.3509  1.5020 -0.4762
  248MOL0     H33425  11.730   5.805  -0.402  0.3217 -1.2593  1.5064
  248MOL0     H33426  11.879   5.739  -0.349 -1.4504  0.0555  0.0201
  248MOL0     H33427  11.839   5.910  -0.599 -1.5920  3.3626  0.9644
  248MOL0     H33428  11.876   5.968  -0.433  0.0939  0.4512  0.0025
  248MOL0     H33429  12.067   5.771  -0.580  2.3024  3.0053 -2.7925
  248MOL0     H33430  12.074   5.854  -0.415 -1.4544  1.2741  1.0390
  248MOL0     H33431  12.084   5.863  -0.791  0.8609 -0.7035  0.4686
  248MOL0     H33432  12.150   6.072  -0.955  0.1831 -0.2580 -1.0103
  248MOL0     H33433  12.279   6.179  -0.903  0.2960  0.0642  0.5967
  248MOL0     H33434  12.350   5.993  -1.053 -3.0337 -0.1688  0.4305
  248MOL0     H33435  12.310   5.876  -0.940  0.9800  0.6783 -0.3052
  248MOL0     H33436  12.477   6.014  -0.779  0.1122 -1.1604  0.2675
  248MOL0     H33437  12.536   6.076  -0.937 -0.0430 -0.1897  0.6287
  248MOL0     H33438  12.500   5.781  -0.859 -1.5580  0.7896 -2.1472
  248MOL0     H33439  12.655   5.864  -0.849 -0.6735  1.3803  1.7817
  248MOL0     H33440  12.626   5.756  -1.275  0.1064  0.2696 -0.0065
  248MOL0     H33441  12.761   5.875  -1.553 -0.3137 -1.5540 -1.3101
  248MOL0     H33442  12.911   5.789  -1.492 -0.4454 -2.3571  1.2328
  248MOL0     H33443  12.754   5.716  -1.472 -0.0132  0.4980  1.8745
  248MOL0     H33444  12.934   6.358  -1.461 -0.7524  1.4552 -1.3467
  248MOL0     H33445  13.036   6.529  -1.582 -0.9590 -0.2094  0.2171
  248MOL0     H33446  13.499   6.524  -1.638  0.2194 -0.4523 -3.6025
  248MOL0     H33447  13.470   6.643  -1.740 -0.2887  1.6111  1.1651
  248MOL0     H33448  13.381   6.638  -1.450  2.5479  0.1724  2.3896
  248MOL0     H33449  13.532   6.708  -1.513  0.7561  1.5525 -4.5364
  248MOL0     H33450  13.260   6.822  -1.570  0.6000 -0.6200  2.0303
  248MOL0     H33451  13.409   6.875  -1.651  0.0962  0.5927 -0.2210
  248MOL0     H33452  13.351   6.878  -1.348  1.8795 -0.0533  1.5506
  248MOL0     H33453  13.509   6.921  -1.424 -0.5018 -1.8809  4.2477
  248MOL0     H33454  13.232   7.077  -1.452 -0.1778  0.6300  0.2656
  248MOL0     H33455  13.389   7.102  -1.530 -1.0700 -0.9772 -1.2090
  248MOL0     H33456  13.338   7.117  -1.216 -1.4578 -0.3845 -2.0426
  248MOL0     H33457  13.494   7.126  -1.300 -0.9160 -1.9894  2.0486
  248MOL0     H33458  13.252   7.304  -1.339 -0.1295 -1.4960 -0.9989
  248MOL0     H33459  13.394   7.315  -1.445 -3.6891 -1.0493 -1.2227
  248MOL0     H33460  13.398   7.328  -1.140  1.6274 -2.5520 -1.2590
  248MOL0     H33461  13.383   7.482  -1.239  1.6791  1.2112 -0.6076
  248MOL0     H33462  13.422   6.339  -1.559 -1.1016 -4.8611 -1.0543
  248MOL0     H33463  13.335   6.176  -1.393  1.9904  1.2633 -1.4091
  248MOL0     H33464  12.925   6.119  -1.126  2.9620 -3.5732  1.9388
  248MOL0     H33465  12.781   6.014  -0.967  2.5346  0.2178  0.3663
  248MOL0     H33466  11.404   5.582   0.086  0.2028 -2.2791  1.8717
  248MOL0     H33467  11.193   5.626   0.219 -0.5647 -0.2160 -0.1926
  248MOL0     H33468  10.710   5.373   0.328  0.7385  0.6913  0.3935
  248MOL0     H33469  10.473   5.402   0.337 -2.4747  1.3733  0.3063
  248MOL0     H33470  10.311   5.560   0.429  1.0370  2.3082  0.2828
  248MOL0     H33471  10.174   5.635   0.351  2.3003  0.7591 -0.0366
  248MOL0     H33472  10.093   5.414   0.369 -1.5944  0.1711 -1.7194
  248MOL0     H33473  10.235   5.336   0.307 -2.1182 -1.5539  1.1258
  248MOL0     H33474  10.183   5.462   0.084  0.4647 -0.2641  1.0109
  248MOL0     H33475  10.043   5.536   0.174 -0.0879  0.8366  0.0266
  248MOL0     H33476  10.062   5.237   0.151 -2.6182 -1.0825 -0.2669
  248MOL0     H33477  10.011   5.329   0.016  3.6844 -0.4513 -0.4497
  248MOL0     H33478   9.673   5.309   0.243 -0.0813  3.0641  3.0819
  248MOL0     H33479  10.503   5.774   0.116  1.1722  0.5031 -0.2294
  248MOL0     H33480  10.721   5.713   0.052 -4.7675  1.5439 -1.6585
  249MOL0     O33481  11.013   1.531   2.075  0.2876  0.7641  0.4164
  249MOL0     C33482  11.105   1.558   2.153 -0.6769  0.0226  0.2683
  249MOL0     O33483  11.088   1.588   2.289 -0.0567 -0.3610 -0.2133
  249MOL0     C33484  10.957   1.607   2.327  1.0386 -0.0879  1.0449
  249MOL0     C33485  10.889   1.508   2.389  0.1270  0.9038  0.5670
  249MOL0     C33486  10.757   1.529   2.425 -0.1257 -0.3185  0.0845
  249MOL0     C33487  10.690   1.655   2.406  0.5632  0.0007  0.3085
  249MOL0     O33488  10.563   1.692   2.450 -0.2749 -0.2197  0.2505
  249MOL0     C33489  10.479   1.596   2.515  0.3854 -0.3652  0.1966
  249MOL0     C33490  10.351   1.656   2.579  0.1870  0.4123  0.0254
  249MOL0     C33491  10.359   1.772   2.679 -0.5728  0.0067 -0.5160
  249MOL0     C33492  10.209   1.780   2.727 -0.9115 -0.1555  0.2160
  249MOL0     C33493  10.181   1.878   2.842 -0.5945 -0.6821  0.2364
  249MOL0     C33494  10.152   2.028   2.794 -0.6011  0.3236  0.3169
  249MOL0     C33495  10.114   2.114   2.911 -0.7625 -0.8556  0.8149
  249MOL0     C33496  10.049   2.248   2.877  0.5019  0.2532  0.3792
  249MOL0     N33497  10.128   2.331   2.787 -0.0262 -0.0750 -0.5883
  249MOL0     C33498  10.254   2.391   2.831  1.6223 -0.0264 -0.0126
  249MOL0     C33499  10.320   2.430   2.720  0.2418  0.0022 -0.5747
  249MOL0     C33500  10.439   2.517   2.722  0.1219 -0.2206  0.5603
  249MOL0     C33501  10.557   2.447   2.658 -0.6989  1.1478  0.1090
  249MOL0     C33502  10.669   2.547   2.665  0.6927 -0.3180  0.5177
  249MOL0     C33503  10.812   2.509   2.647 -1.0777  0.8167 -0.1402
  249MOL0     O33504  10.827   2.393   2.741 -0.0459 -0.5453  0.3065
  249MOL0     C33505  10.944   2.311   2.738  0.3212 -0.8459 -0.4722
  249MOL0     C33506  10.991   2.263   2.865  0.6663 -0.1285  0.2593
  249MOL0     C33507  11.118   2.204   2.878  0.1114  0.4378 -0.4813
  249MOL0     C33508  11.166   2.180   3.016 -0.3238  0.8661  0.3585
  249MOL0     C33509  11.198   2.182   2.762 -0.5533 -1.0872 -0.2310
  249MOL0     C33510  11.321   2.105   2.755  0.4196  0.2636  0.1885
  249MOL0     O33511  11.340   2.019   2.861  0.3773  0.1517  0.3373
  249MOL0     C33512  11.455   1.941   2.874 -0.8571  0.2447 -1.0791
  249MOL0     C33513  11.587   1.987   2.840  0.3889  0.4689 -0.0302
  249MOL0     C33514  11.689   1.895   2.840  0.2620 -0.2846 -0.6867
  249MOL0     C33515  11.675   1.764   2.886 -0.2768 -0.4471 -1.2119
  249MOL0     O33516  11.781   1.682   2.888 -0.1881  0.1609 -0.4319
  249MOL0     C33517  11.862   1.656   2.765 -0.1985  0.4556 -0.2475
  249MOL0     C33518  11.885   1.500   2.761  0.1482 -1.0666  0.0328
  249MOL0     C33519  11.776   1.425   2.683 -0.1251 -0.3157 -0.7801
  249MOL0     C33520  11.795   1.403   2.542 -0.1729 -0.8010  0.6327
  249MOL0     C33521  11.875   1.264   2.527  0.4032  0.0573  0.4330
  249MOL0     C33522  11.867   1.201   2.393 -0.0385 -0.5472 -0.2222
  249MOL0     C33523  11.933   1.063   2.394 -0.1308  0.2155  1.2473
  249MOL0     C33524  11.845   0.941   2.457  0.1383  0.3918  0.6951
  249MOL0    Cl33525  11.669   0.940   2.426 -0.4675 -0.3622  0.5650
  249MOL0     C33526  11.550   1.724   2.939 -0.9070 -1.2517  0.3616
  249MOL0     C33527  11.443   1.811   2.923 -0.3029 -1.2902 -1.1554
  249MOL0     O33528  11.397   2.123   2.659  0.4665  0.4733  0.0791
  249MOL0     C33529  11.146   2.240   2.648  0.2089 -0.0988 -0.9376
  249MOL0     C33530  11.021   2.303   2.630 -0.8258  0.1211  0.3045
  249MOL0     N33531  10.252   2.372   2.609 -0.2372  0.3090 -0.7403
  249MOL0     N33532  10.142   2.314   2.649  0.0286 -0.6511  0.8183
  249MOL0     C33533  10.767   1.757   2.357 -0.8033  0.0918  0.0007
  249MOL0     C33534  10.899   1.736   2.317  0.9075  0.2443  0.9039
  249MOL0     C33535  11.247   1.524   2.105  0.2384  0.8195  0.1557
  249MOL0     C33536  11.343   1.482   2.198 -0.2077 -0.7614 -0.4281
  249MOL0     C33537  11.475   1.461   2.155  0.4057  1.0560  0.1905
  249MOL0     C33538  11.510   1.485   2.020 -0.2891 -0.6964 -0.1202
  249MOL0     O33539  11.649   1.470   1.991  0.1433  0.0485 -0.1954
  249MOL0     C33540  11.696   1.528   1.869 -0.0437  0.1332  0.2171
  249MOL0     C33541  11.843   1.512   1.880 -0.3638 -0.1703 -0.0821
  249MOL0     C33542  11.914   1.605   1.785 -0.2204 -0.0796  0.4256
  249MOL0     C33543  12.064   1.586   1.766 -0.1074 -0.1957  0.2840
  249MOL0     C33544  12.086   1.645   1.637 -0.3674 -0.9764  0.2427
  249MOL0     C33545  12.126   1.697   1.534  0.2476 -0.4697 -0.7155
  249MOL0     C33546  11.414   1.520   1.923  0.7282  0.1856 -0.1847
  249MOL0     C33547  11.283   1.552   1.965  0.2918  0.4080  0.0358
  249MOL0     H33548  10.937   1.411   2.401 -1.0934  0.5834  4.3342
  249MOL0     H33549  10.698   1.447   2.463 -0.3307  0.0221  0.5118
  249MOL0     H33550  10.443   1.525   2.440 -0.0987  0.0215  0.0493
  249MOL0     H33551  10.547   1.540   2.579  0.1007 -3.4107 -1.9769
  249MOL0     H33552  10.291   1.697   2.497 -0.9106 -1.8557 -0.3818
  249MOL0     H33553  10.293   1.567   2.603 -2.5444  2.2605  0.7682
  249MOL0     H33554  10.436   1.738   2.748 -2.1413 -2.1094  0.3040
  249MOL0     H33555  10.391   1.865   2.630 -0.7805  0.6400  0.5173
  249MOL0     H33556  10.149   1.804   2.638 -0.3739  0.4476  0.0110
  249MOL0     H33557  10.170   1.682   2.757 -4.3358  1.5334  1.8533
  249MOL0     H33558  10.104   1.841   2.910 -2.2593 -3.2071 -2.7351
  249MOL0     H33559  10.271   1.877   2.904 -0.5183 -2.0354  0.1469
  249MOL0     H33560  10.237   2.067   2.737 -0.4661  0.9356  0.9166
  249MOL0     H33561  10.070   2.026   2.722  0.6067  0.3990 -1.0974
  249MOL0     H33562  10.048   2.058   2.978  0.3211 -0.7931  1.9701
  249MOL0     H33563  10.212   2.137   2.954 -1.0777  0.2959  0.9441
  249MOL0     H33564  10.037   2.297   2.974 -0.0111 -0.5689  0.7414
  249MOL0     H33565   9.954   2.223   2.829  1.4203 -1.7293 -0.5336
  249MOL0     H33566  10.269   2.416   2.935 -0.5699 -1.1831  0.6426
  249MOL0     H33567  10.406   2.611   2.677  1.2799  0.2217  0.6123
  249MOL0     H33568  10.464   2.539   2.826 -0.8364  0.3082  0.6888
  249MOL0     H33569  10.548   2.420   2.552 -0.4235 -0.8784  0.5541
  249MOL0     H33570  10.584   2.353   2.708  0.2623  0.0190 -2.3483
  249MOL0     H33571  10.680   2.586   2.766  1.4494  0.0321  0.3102
  249MOL0     H33572  10.646   2.622   2.589 -2.4439 -0.9171  0.7570
  249MOL0     H33573  10.882   2.590   2.668 -0.1645 -0.5388  2.4240
  249MOL0     H33574  10.815   2.470   2.545  0.3261  1.4978 -0.3799
  249MOL0     H33575  10.922   2.293   2.943  0.2819 -1.3208  0.3941
  249MOL0     H33576  11.096   2.219   3.090  1.0956  0.8027  1.7850
  249MOL0     H33577  11.200   2.081   3.046 -0.6240  0.9391  0.9488
  249MOL0     H33578  11.258   2.238   3.025  0.9184 -1.0487  0.4178
  249MOL0     H33579  11.599   2.087   2.802 -0.3782  0.0513 -1.4654
  249MOL0     H33580  11.779   1.934   2.795 -0.1043  2.4620  0.6950
  249MOL0     H33581  11.791   1.676   2.684 -3.8767 -2.0992  2.0596
  249MOL0     H33582  11.954   1.716   2.761  1.4388 -2.0055 -1.4059
  249MOL0     H33583  11.983   1.493   2.713  1.9905 -0.0411  3.3593
  249MOL0     H33584  11.900   1.465   2.864 -2.0097  0.2860  0.8497
  249MOL0     H33585  11.689   1.490   2.698 -0.9065 -1.7484  1.3464
  249MOL0     H33586  11.747   1.334   2.736 -1.2681  0.5053  0.0632
  249MOL0     H33587  11.707   1.397   2.478  0.9150 -0.6987 -0.9544
  249MOL0     H33588  11.855   1.491   2.516 -4.3608  2.0538 -0.2563
  249MOL0     H33589  11.833   1.192   2.598 -2.0076 -0.4307 -1.3486
  249MOL0     H33590  11.978   1.293   2.550  1.1329 -1.6858 -0.4752
  249MOL0     H33591  11.766   1.184   2.355  0.6450 -1.3431 -1.7384
  249MOL0     H33592  11.924   1.268   2.328  1.3484  0.8246  2.2256
  249MOL0     H33593  12.023   1.069   2.456  0.4722 -2.2058  0.6912
  249MOL0     H33594  11.956   1.036   2.291 -2.6741 -0.2533  0.7457
  249MOL0     H33595  11.881   0.938   2.560  2.2500 -0.3045 -0.0281
  249MOL0     H33596  11.874   0.852   2.402  0.7546  2.2586 -2.2152
  249MOL0     H33597  11.530   1.621   2.968  0.5573 -1.2686  1.4616
  249MOL0     H33598  11.351   1.768   2.961  0.1252 -0.7829  0.5663
  249MOL0     H33599  11.216   2.249   2.565  0.7850  2.2198 -0.2734
  249MOL0     H33600  10.998   2.349   2.535 -1.0077 -0.0163  0.2821
  249MOL0     H33601  10.722   1.855   2.343  2.0402  1.1238 -3.1007
  249MOL0     H33602  10.962   1.813   2.271 -1.2352  2.2650  1.1875
  249MOL0     H33603  11.322   1.465   2.303 -0.3086 -2.1348 -0.6433
  249MOL0     H33604  11.545   1.429   2.232 -1.1012 -0.4929  0.9971
  249MOL0     H33605  11.667   1.478   1.776  1.0068 -1.1258  0.5376
  249MOL0     H33606  11.666   1.633   1.863 -2.1449 -0.2983  2.0335
  249MOL0     H33607  11.874   1.409   1.858  0.3105 -0.0224  0.1554
  249MOL0     H33608  11.886   1.537   1.977 -1.6541 -1.7732  0.9464
  249MOL0     H33609  11.888   1.708   1.811 -0.5604 -0.3132  1.0416
  249MOL0     H33610  11.857   1.595   1.693 -2.2415 -1.0235  1.7006
  249MOL0     H33611  12.104   1.484   1.761 -1.0127 -0.7450  2.5321
  249MOL0     H33612  12.123   1.636   1.843  0.2001 -3.7566  2.6295
  249MOL0     H33613  12.136   1.740   1.437 -0.4037  2.8128  0.5601
  249MOL0     H33614  11.434   1.545   1.820  0.5163 -0.9125 -0.5036
  249MOL0     H33615  11.215   1.602   1.897  2.4640  0.3126 -2.3553
  250MOL0     O33616   0.586   7.516   1.028  0.7051 -0.1168  0.4888
  250MOL0     C33617   0.689   7.582   1.018  0.8319 -0.3864  1.2138
  250MOL0     O33618   0.709   7.703   0.949  0.3177  0.2139 -0.2886
  250MOL0     C33619   0.594   7.757   0.898 -1.0644 -0.1249 -0.4087
  250MOL0     C33620   0.479   7.768   0.988  0.0664 -0.2816  0.7451
  250MOL0     C33621   0.371   7.840   0.939  0.2271  0.6624  0.8377
  250MOL0     C33622   0.377   7.918   0.824 -0.3430  0.1859  0.3482
  250MOL0     O33623   0.282   8.002   0.770 -0.3168  1.6406  0.2940
  250MOL0     C33624   0.311   8.133   0.806 -0.4271  0.4049  0.1963
  250MOL0     C33625   0.276   8.151   0.949  0.0248 -0.0004 -0.6138
  250MOL0     C33626   0.254   8.300   0.975  0.4344 -0.2368  0.8950
  250MOL0     C33627   0.382   8.373   1.016  0.4204  0.2553 -0.2148
  250MOL0     C33628   0.373   8.527   1.040  0.1622 -0.2069 -0.2812
  250MOL0     C33629   0.511   8.586   1.084 -0.4360  0.8323  0.7220
  250MOL0     C33630   0.549   8.557   1.230 -0.1869 -0.4609 -0.0182
  250MOL0     C33631   0.674   8.628   1.260  0.1566 -0.5543 -0.6766
  250MOL0     N33632   0.796   8.559   1.210 -0.0630  0.1421  1.3578
  250MOL0     C33633   0.861   8.584   1.091 -0.2822  1.0386  0.8036
  250MOL0     C33634   0.956   8.499   1.079  0.2844 -0.3107  0.0024
  250MOL0     C33635   1.063   8.493   0.970  0.4626 -0.3914  0.6610
  250MOL0     C33636   1.181   8.415   1.014  0.0330 -0.0564 -0.2470
  250MOL0     C33637   1.292   8.493   1.092  0.7738  0.1309 -0.7936
  250MOL0     C33638   1.380   8.406   1.183  0.6436 -0.2176  0.1112
  250MOL0     O33639   1.449   8.312   1.101 -0.3856 -0.4482  0.3515
  250MOL0     C33640   1.576   8.349   1.065  0.6121 -0.2173  0.0672
  250MOL0     C33641   1.597   8.442   0.966 -0.0726 -0.3563  0.0906
  250MOL0     C33642   1.726   8.488   0.934 -0.0121 -1.3391 -0.4433
  250MOL0     C33643   1.735   8.610   0.841  0.3256  0.8933  1.1175
  250MOL0     C33644   1.842   8.430   0.999  0.0970 -0.4576 -0.0829
  250MOL0     C33645   1.983   8.474   0.987 -0.3029 -0.1095 -0.0365
  250MOL0     O33646   2.068   8.426   1.083  0.0797 -0.6485  0.1866
  250MOL0     C33647   2.194   8.471   1.068 -0.7315  0.0603 -0.4046
  250MOL0     C33648   2.294   8.401   0.995  0.6332  0.3268 -0.1236
  250MOL0     C33649   2.421   8.466   0.984 -0.1259 -0.6932 -0.1942
  250MOL0     C33650   2.461   8.574   1.059  0.2441  0.6519  0.9519
  250MOL0     O33651   2.585   8.637   1.056  0.2960  0.0449  0.3464
  250MOL0     C33652   2.690   8.592   0.965  0.0606 -0.8873  0.4742
  250MOL0     C33653   2.827   8.662   0.995 -0.2650  0.0164 -0.6607
  250MOL0     C33654   2.826   8.819   1.002 -0.5418 -0.5620 -0.0633
  250MOL0     C33655   2.927   8.883   0.896 -0.4519  0.7377  1.5738
  250MOL0     C33656   2.930   9.028   0.878  0.0173 -0.9466 -0.0062
  250MOL0     C33657   3.037   9.059   0.775  0.2889  0.2775  0.3493
  250MOL0     C33658   3.051   9.215   0.775  0.1212  0.9409  1.0966
  250MOL0     C33659   3.123   9.247   0.648  0.6488  0.1244 -0.0366
  250MOL0    Cl33660   3.008   9.229   0.519 -0.1017 -0.5011 -0.3122
  250MOL0     C33661   2.361   8.635   1.131 -0.5644 -0.0911 -0.3645
  250MOL0     C33662   2.236   8.578   1.146 -0.1497 -0.4044 -0.7398
  250MOL0     O33663   2.018   8.553   0.895  0.5346  0.4705 -0.0160
  250MOL0     C33664   1.809   8.326   1.090 -0.1294  0.8714  0.9722
  250MOL0     C33665   1.684   8.285   1.120 -0.0479  0.1809  0.3671
  250MOL0     N33666   0.957   8.414   1.189 -0.7399  0.5590  0.3385
  250MOL0     N33667   0.857   8.456   1.263 -0.1653  0.2202 -0.5295
  250MOL0     C33668   0.482   7.900   0.742 -0.7588  0.0775  0.8629
  250MOL0     C33669   0.595   7.824   0.777 -0.6817  0.3746  0.4514
  250MOL0     C33670   0.804   7.518   1.077 -1.0798  0.5626 -0.1523
  250MOL0     C33671   0.812   7.384   1.131  0.0280  0.4854 -0.8385
  250MOL0     C33672   0.934   7.331   1.168  0.2530  0.1567  0.6000
  250MOL0     C33673   1.055   7.401   1.171 -1.0197  0.3788 -0.3022
  250MOL0     O33674   1.160   7.327   1.226  0.0841 -0.7252  0.6329
  250MOL0     C33675   1.248   7.405   1.312  0.2370 -0.2859 -0.4294
  250MOL0     C33676   1.175   7.488   1.426 -0.1259  0.9864  0.5568
  250MOL0     C33677   1.272   7.530   1.540  0.6500 -0.4524 -0.1789
  250MOL0     C33678   1.357   7.656   1.501 -0.3001 -0.0344  0.9324
  250MOL0     C33679   1.478   7.677   1.585  0.4838  0.1481 -0.8045
  250MOL0     C33680   1.557   7.707   1.678 -0.0658 -0.4498  0.2395
  250MOL0     C33681   1.054   7.530   1.126 -0.1356 -1.1231  0.9297
  250MOL0     C33682   0.924   7.589   1.082  0.3367  0.2466  0.1745
  250MOL0     H33683   0.491   7.729   1.088  2.8047  1.0559  1.0322
  250MOL0     H33684   0.285   7.841   1.006 -0.3203  2.5010  0.1732
  250MOL0     H33685   0.415   8.159   0.783  0.0381 -0.6945  0.9972
  250MOL0     H33686   0.244   8.194   0.745  0.3484 -1.2556 -2.4939
  250MOL0     H33687   0.188   8.093   0.980  0.2777 -0.1923 -0.2425
  250MOL0     H33688   0.361   8.123   1.012  0.8044 -0.0713 -1.6723
  250MOL0     H33689   0.210   8.350   0.889 -0.4868 -0.1589  1.3912
  250MOL0     H33690   0.178   8.318   1.052 -1.7300 -0.1342 -1.1767
  250MOL0     H33691   0.422   8.323   1.104  0.5926 -0.2216 -0.5664
  250MOL0     H33692   0.457   8.357   0.939  1.0386  0.0399  0.4303
  250MOL0     H33693   0.321   8.576   0.958  3.2003 -1.0124 -2.8791
  250MOL0     H33694   0.311   8.534   1.130  2.9580 -2.6951  2.0783
  250MOL0     H33695   0.596   8.561   1.020  0.2368  2.0906  1.0788
  250MOL0     H33696   0.506   8.696   1.087  1.2522  0.9355  0.7748
  250MOL0     H33697   0.476   8.610   1.292 -2.2969  0.9965 -3.4663
  250MOL0     H33698   0.538   8.452   1.258 -1.9618 -0.2452  0.1887
  250MOL0     H33699   0.673   8.629   1.369 -0.6483  1.4364 -0.6601
  250MOL0     H33700   0.670   8.733   1.230  0.2255 -1.0504 -2.5814
  250MOL0     H33701   0.827   8.666   1.028 -2.3050  1.2745  2.1104
  250MOL0     H33702   1.016   8.449   0.882  0.9763 -1.8687  1.0987
  250MOL0     H33703   1.093   8.595   0.942  4.4297 -1.1956  1.3254
  250MOL0     H33704   1.230   8.379   0.923 -1.8033 -3.0692 -0.1868
  250MOL0     H33705   1.158   8.328   1.075  1.5798  1.7583  3.1902
  250MOL0     H33706   1.241   8.576   1.141 -0.8305  0.6706 -3.2371
  250MOL0     H33707   1.350   8.538   1.010  1.9257  2.4516  1.1716
  250MOL0     H33708   1.317   8.339   1.242 -2.4298  1.0725 -1.4533
  250MOL0     H33709   1.452   8.458   1.247 -0.0432  0.9408 -0.0143
  250MOL0     H33710   1.518   8.482   0.903  2.1402 -0.1311 -2.7512
  250MOL0     H33711   1.788   8.575   0.751  0.0649 -1.2936  1.7620
  250MOL0     H33712   1.638   8.646   0.803 -0.4907 -1.6200  0.6484
  250MOL0     H33713   1.796   8.690   0.883 -0.0699  0.0574  3.4293
  250MOL0     H33714   2.263   8.302   0.965  0.2110  0.4647 -0.1512
  250MOL0     H33715   2.490   8.410   0.921  0.5260 -2.2715  1.8226
  250MOL0     H33716   2.703   8.485   0.950 -2.7250 -1.0531 -1.6007
  250MOL0     H33717   2.665   8.642   0.871 -0.9402  0.2417  1.3084
  250MOL0     H33718   2.868   8.616   1.086  1.7169  1.4107 -0.7736
  250MOL0     H33719   2.901   8.635   0.919 -1.1257 -1.9865 -0.8395
  250MOL0     H33720   2.856   8.846   1.103  0.1963 -1.5742  0.0030
  250MOL0     H33721   2.726   8.858   0.981 -2.0844 -4.0895  0.1125
  250MOL0     H33722   3.027   8.856   0.930  0.6176  1.4961 -0.7892
  250MOL0     H33723   2.905   8.834   0.801  0.8953 -0.9651  2.0898
  250MOL0     H33724   2.962   9.075   0.971 -0.1747 -1.6517  0.4324
  250MOL0     H33725   2.833   9.065   0.843 -1.0290 -4.3247 -1.1174
  250MOL0     H33726   3.131   9.007   0.793  0.1299 -0.3119 -0.4935
  250MOL0     H33727   2.996   9.037   0.676 -1.1070  1.4622  0.6262
  250MOL0     H33728   3.115   9.253   0.855  0.2385 -0.3293  1.6239
  250MOL0     H33729   2.952   9.261   0.785 -1.3064 -1.0542 -2.1355
  250MOL0     H33730   3.204   9.175   0.627  0.5200 -1.5786  4.1579
  250MOL0     H33731   3.161   9.349   0.655 -0.5158  0.4987  1.3928
  250MOL0     H33732   2.378   8.730   1.182 -0.4757  0.8051 -2.0091
  250MOL0     H33733   2.160   8.624   1.208  1.9271  1.0713  0.8500
  250MOL0     H33734   1.884   8.267   1.143 -3.9612 -2.4901  3.3158
  250MOL0     H33735   1.659   8.204   1.188  1.1837 -0.8164 -0.3238
  250MOL0     H33736   0.480   7.955   0.649  3.7266 -1.9479 -0.7069
  250MOL0     H33737   0.687   7.811   0.721 -0.7207  0.7369  0.2970
  250MOL0     H33738   0.723   7.322   1.140  1.7730 -2.0706  0.2617
  250MOL0     H33739   0.926   7.248   1.238 -1.5015 -1.0032 -0.8671
  250MOL0     H33740   1.291   7.325   1.374 -1.6452 -1.5882 -0.7184
  250MOL0     H33741   1.325   7.452   1.251  3.2039 -3.8121  0.2255
  250MOL0     H33742   1.101   7.419   1.466 -2.0441  1.3828 -2.0822
  250MOL0     H33743   1.117   7.571   1.385 -0.6416 -0.5449 -2.0263
  250MOL0     H33744   1.351   7.456   1.555  1.7246  0.7999  0.4866
  250MOL0     H33745   1.227   7.526   1.640  4.7593 -4.2834  1.8527
  250MOL0     H33746   1.300   7.748   1.513 -0.2750 -0.2844  3.6655
  250MOL0     H33747   1.386   7.641   1.396 -0.1081 -0.2386  1.0140
  250MOL0     H33748   1.625   7.742   1.753  0.1225 -1.9818  0.8329
  250MOL0     H33749   1.147   7.586   1.131 -1.0824  0.4974  1.3680
  250MOL0     H33750   0.917   7.691   1.047 -2.6977 -0.5250 -1.9050
  251MOL0     O33751   6.705   8.816   3.457  0.1225 -0.4775 -0.3061
  251MOL0     C33752   6.742   8.868   3.563  0.4557 -0.6968  0.8951
  251MOL0     O33753   6.754   9.009   3.581  0.5681  0.3404 -0.0851
  251MOL0     C33754   6.790   9.089   3.476 -0.4351  0.3092 -0.4310
  251MOL0     C33755   6.917   9.157   3.482 -0.6370 -0.1274 -0.3332
  251MOL0     C33756   6.946   9.256   3.385 -0.0957  0.0414  0.0613
  251MOL0     C33757   6.855   9.290   3.281  0.9287  0.0322 -0.8482
  251MOL0     O33758   6.907   9.369   3.189  0.2266  0.6207 -0.1613
  251MOL0     C33759   6.820   9.478   3.146  0.1698 -0.9206 -0.1033
  251MOL0     C33760   6.795   9.591   3.250  0.5172  0.0320  0.5384
  251MOL0     C33761   6.933   9.672   3.247 -0.1853 -0.0230 -0.4001
  251MOL0     C33762   6.933   9.794   3.322  0.6795 -0.1314 -0.0275
  251MOL0     C33763   7.042   9.892   3.320  0.7138 -0.5490 -0.3246
  251MOL0     C33764   7.181   9.838   3.347 -0.3175  1.1244 -0.1954
  251MOL0     C33765   7.283   9.940   3.413  0.6007 -0.8209  0.1588
  251MOL0     C33766   7.355  10.037   3.310  0.2929 -0.4675  0.7653
  251MOL0     N33767   7.448   9.963   3.225 -0.7588  0.4433  0.1753
  251MOL0     C33768   7.474   9.974   3.094 -0.2144  0.8640 -1.2339
  251MOL0     C33769   7.569   9.881   3.064  0.3688  0.1191  0.2489
  251MOL0     C33770   7.607   9.837   2.929 -0.3426 -0.3404  0.3462
  251MOL0     C33771   7.718   9.936   2.874  0.7535 -0.0525  0.4035
  251MOL0     C33772   7.679   9.982   2.726 -0.3976 -0.2492  1.1306
  251MOL0     C33773   7.774  10.093   2.674 -0.1397 -0.1239 -0.0971
  251MOL0     O33774   7.763  10.215   2.753  0.7348 -0.9424 -0.4765
  251MOL0     C33775   7.686  10.319   2.710  0.3195  0.5986 -0.5474
  251MOL0     C33776   7.720  10.444   2.757 -0.3307  0.2320 -0.7165
  251MOL0     C33777   7.653  10.557   2.710  0.7462  0.7277  0.4379
  251MOL0     C33778   7.704  10.690   2.761 -0.3510 -0.2533  0.1625
  251MOL0     C33779   7.544  10.541   2.627 -0.0223  0.0459  0.3790
  251MOL0     C33780   7.458  10.651   2.573 -0.6849  0.1725  0.3367
  251MOL0     O33781   7.518  10.773   2.550  0.0827 -0.0649 -0.4178
  251MOL0     C33782   7.435  10.881   2.511  0.6913  0.5762 -0.1543
  251MOL0     C33783   7.423  10.987   2.602  0.0311 -0.0579  0.5676
  251MOL0     C33784   7.350  11.103   2.567 -0.2717  0.0135 -0.0690
  251MOL0     C33785   7.258  11.098   2.465  0.1186  0.4546 -0.2413
  251MOL0     O33786   7.183  11.209   2.434  0.5160  0.6451 -0.4490
  251MOL0     C33787   7.114  11.289   2.541 -0.5311 -0.1384  0.2679
  251MOL0     C33788   6.983  11.343   2.479  0.1406 -0.1402 -0.1384
  251MOL0     C33789   7.025  11.419   2.352  0.5012  0.3379 -0.9626
  251MOL0     C33790   6.906  11.493   2.300  0.2542 -0.3352  0.0746
  251MOL0     C33791   6.948  11.589   2.184  0.3111  0.9732  0.4075
  251MOL0     C33792   6.977  11.520   2.039 -1.0726  0.7853 -0.6370
  251MOL0     C33793   7.003  11.635   1.925  0.5097 -0.2093  1.1009
  251MOL0     C33794   7.113  11.609   1.824  1.1311 -0.4569  0.7602
  251MOL0    Cl33795   7.044  11.468   1.739  0.2218  0.0034 -0.4475
  251MOL0     C33796   7.266  10.996   2.379 -0.0931  0.7143 -0.0142
  251MOL0     C33797   7.363  10.887   2.390  0.1754 -0.5663 -0.1688
  251MOL0     O33798   7.340  10.629   2.547  1.0873 -0.7565 -0.0327
  251MOL0     C33799   7.496  10.415   2.596 -0.8737 -0.1722  0.6349
  251MOL0     C33800   7.575  10.306   2.633  0.3177 -0.2103 -0.3039
  251MOL0     N33801   7.589   9.804   3.178 -0.0543 -0.4834 -1.2032
  251MOL0     N33802   7.526   9.864   3.274  0.6178  0.7036  0.5864
  251MOL0     C33803   6.726   9.240   3.299  0.5183 -0.5114  0.3602
  251MOL0     C33804   6.694   9.139   3.393  0.2998 -0.2970  0.3716
  251MOL0     C33805   6.762   8.778   3.686 -1.2308  0.3318 -0.0968
  251MOL0     C33806   6.752   8.639   3.670  0.4381  1.5603 -1.0336
  251MOL0     C33807   6.751   8.559   3.793  0.1430 -0.8688  0.3656
  251MOL0     C33808   6.757   8.609   3.920  0.1354  0.0869  0.2058
  251MOL0     O33809   6.756   8.520   4.036 -1.4949  1.1833  0.2064
  251MOL0     C33810   6.749   8.577   4.168 -0.4649  0.4119  0.2663
  251MOL0     C33811   6.688   8.480   4.277 -0.8701 -0.6243 -0.6804
  251MOL0     C33812   6.535   8.508   4.265 -0.9934 -0.0051 -0.1389
  251MOL0     C33813   6.458   8.393   4.328  1.2783  0.1246 -0.0064
  251MOL0     C33814   6.494   8.373   4.475 -0.3377  0.3679  0.8270
  251MOL0     C33815   6.512   8.379   4.592  0.8257  0.8576 -0.0095
  251MOL0     C33816   6.787   8.742   3.922 -0.0056  0.3164 -0.3918
  251MOL0     C33817   6.789   8.826   3.815 -0.0574  0.5335  0.7475
  251MOL0     H33818   6.994   9.130   3.553 -0.5610 -0.8283 -0.6721
  251MOL0     H33819   7.046   9.298   3.390 -0.0716 -0.0462  0.3135
  251MOL0     H33820   6.856   9.517   3.050 -0.0949 -0.4734 -0.0210
  251MOL0     H33821   6.723   9.437   3.115  1.4587 -2.8815 -1.8411
  251MOL0     H33822   6.704   9.643   3.218  0.6884 -1.2390 -2.3027
  251MOL0     H33823   6.775   9.544   3.347  0.3078 -2.3745 -0.6035
  251MOL0     H33824   7.015   9.607   3.280  2.5283  2.9505 -0.6815
  251MOL0     H33825   6.974   9.702   3.150  1.3159 -0.1141  0.1656
  251MOL0     H33826   6.840   9.843   3.291 -0.1926  0.9675  3.7876
  251MOL0     H33827   6.915   9.759   3.424  0.7594 -0.4101 -0.1096
  251MOL0     H33828   7.049   9.941   3.222 -0.5471  1.1746  0.4142
  251MOL0     H33829   7.021   9.963   3.400 -0.0909 -2.3974  1.1724
  251MOL0     H33830   7.166   9.768   3.430 -0.2797 -2.2928 -2.8500
  251MOL0     H33831   7.228   9.776   3.270 -2.4190 -2.2268  0.9941
  251MOL0     H33832   7.231  10.008   3.483  0.6529  1.4196 -1.8531
  251MOL0     H33833   7.359   9.891   3.474  1.5365 -1.5623 -1.5396
  251MOL0     H33834   7.414  10.111   3.365  1.0797  2.1310 -3.1520
  251MOL0     H33835   7.284  10.086   3.244  1.2496 -1.7219 -1.2891
  251MOL0     H33836   7.421  10.046   3.032 -3.1430  0.9995  1.1725
  251MOL0     H33837   7.642   9.733   2.925  0.5279 -0.0372 -2.7759
  251MOL0     H33838   7.523   9.843   2.860  0.3829  1.1406 -0.4681
  251MOL0     H33839   7.813   9.883   2.866  1.8029  2.0096 -2.0969
  251MOL0     H33840   7.728  10.030   2.929 -1.1170  1.1551 -1.1326
  251MOL0     H33841   7.579  10.025   2.719 -0.1319  0.0947 -1.8521
  251MOL0     H33842   7.692   9.902   2.652  1.3225 -0.8547  2.0482
  251MOL0     H33843   7.746  10.116   2.571  1.9587 -1.2397 -0.9610
  251MOL0     H33844   7.875  10.053   2.669 -0.4291 -0.7558 -1.5082
  251MOL0     H33845   7.796  10.445   2.834 -1.3908 -3.2799  0.5689
  251MOL0     H33846   7.633  10.763   2.800  2.9355  1.8932  2.6429
  251MOL0     H33847   7.777  10.675   2.841  0.2737 -2.5277 -0.7427
  251MOL0     H33848   7.749  10.736   2.673  0.4818  0.7056  1.0809
  251MOL0     H33849   7.478  10.979   2.695 -0.4785  0.2359  0.8977
  251MOL0     H33850   7.356  11.194   2.626  1.4575  0.8319 -1.4184
  251MOL0     H33851   7.112  11.224   2.630  0.1493  0.3661  0.6554
  251MOL0     H33852   7.177  11.373   2.569  0.3539  0.5286 -3.2369
  251MOL0     H33853   6.924  11.253   2.458  0.8626 -1.3554  2.5401
  251MOL0     H33854   6.921  11.402   2.546  0.0474 -2.0361  1.5470
  251MOL0     H33855   7.066  11.356   2.272  0.6557  1.2357 -1.6121
  251MOL0     H33856   7.101  11.497   2.362  0.5529  0.2865 -0.9504
  251MOL0     H33857   6.824  11.425   2.273 -2.3524  1.9809  1.5536
  251MOL0     H33858   6.862  11.550   2.383  1.2975 -1.3792  1.3954
  251MOL0     H33859   7.027  11.661   2.208 -0.2887  1.5191  0.7685
  251MOL0     H33860   6.855  11.640   2.159 -0.4326  0.9206  2.8313
  251MOL0     H33861   7.062  11.451   2.035 -1.2884  0.4829 -0.0043
  251MOL0     H33862   6.899  11.451   2.006  0.2209 -2.1562  1.9958
  251MOL0     H33863   7.016  11.733   1.971 -0.3210 -0.1588  1.2420
  251MOL0     H33864   6.904  11.640   1.880  0.6803  2.3218  0.8499
  251MOL0     H33865   7.200  11.575   1.881 -1.7980 -2.3486  4.6060
  251MOL0     H33866   7.136  11.688   1.753 -0.2235 -0.5277  0.2061
  251MOL0     H33867   7.212  11.008   2.286 -4.3737 -2.1858  1.7692
  251MOL0     H33868   7.369  10.814   2.311 -2.7754 -1.4215  0.2705
  251MOL0     H33869   7.410  10.401   2.532 -0.1398  0.4099 -0.5186
  251MOL0     H33870   7.555  10.206   2.596 -0.1921 -0.4172  0.5144
  251MOL0     H33871   6.640   9.269   3.239  1.3156 -0.1377 -0.6351
  251MOL0     H33872   6.590   9.109   3.383  0.1542  0.8968 -4.2407
  251MOL0     H33873   6.734   8.584   3.578 -0.5487 -1.3627  0.7504
  251MOL0     H33874   6.738   8.451   3.794  2.9198 -1.3656  3.5726
  251MOL0     H33875   6.851   8.603   4.198  0.4702  1.1302 -3.0798
  251MOL0     H33876   6.697   8.673   4.175  0.4843  0.8625  1.5667
  251MOL0     H33877   6.718   8.489   4.382 -3.2520  4.7261 -0.1271
  251MOL0     H33878   6.715   8.377   4.252 -0.7565 -1.3035  1.9765
  251MOL0     H33879   6.499   8.506   4.162 -2.2856  1.7284  0.2346
  251MOL0     H33880   6.495   8.597   4.315 -2.7069  0.4563 -2.1650
  251MOL0     H33881   6.469   8.299   4.274 -0.9366  1.4825 -3.1603
  251MOL0     H33882   6.354   8.427   4.322  0.9329 -0.4565  1.8815
  251MOL0     H33883   6.534   8.388   4.697  2.8915  2.3755 -0.5016
  251MOL0     H33884   6.806   8.791   4.016 -3.7444  1.1267  0.1107
  251MOL0     H33885   6.796   8.934   3.816  0.5666  0.5587 -1.5397
  252MOL0     O33886   1.803  11.126   9.910 -0.1182 -0.3503  0.5065
  252MOL0     C33887   1.728  11.165   9.997 -0.5892  0.6199 -0.6857
  252MOL0     O33888   1.675  11.290  10.010  0.7042  0.6963 -0.3616
  252MOL0     C33889   1.697  11.382   9.906  1.1730 -0.2291 -0.4863
  252MOL0     C33890   1.815  11.446   9.899  1.5397 -0.4129 -0.6803
  252MOL0     C33891   1.845  11.543   9.802 -0.9665 -0.0434 -0.4603
  252MOL0     C33892   1.752  11.574   9.702  0.0121  1.0227 -0.0308
  252MOL0     O33893   1.772  11.665   9.601  0.1847 -0.0647 -0.2196
  252MOL0     C33894   1.855  11.776   9.619 -0.3483 -0.0392 -1.5963
  252MOL0     C33895   1.813  11.892   9.531 -0.0813  0.7510 -0.5217
  252MOL0     C33896   1.863  11.861   9.387  0.4362  0.4061 -0.2692
  252MOL0     C33897   1.840  11.990   9.312  0.3176  0.0895  0.0315
  252MOL0     C33898   1.918  11.979   9.175 -0.2383  0.1763  0.5814
  252MOL0     C33899   1.851  12.067   9.071 -0.1069 -0.2537  0.4236
  252MOL0     C33900   1.886  12.003   8.935  0.6318  0.0784 -0.5337
  252MOL0     C33901   2.035  12.006   8.896 -0.5648 -0.0214  1.0760
  252MOL0     N33902   2.044  11.981   8.756 -0.4558 -0.0506 -0.8032
  252MOL0     C33903   2.106  11.868   8.709  0.8892  0.7430 -0.2515
  252MOL0     C33904   2.104  11.874   8.577  0.2914  0.8239 -0.2083
  252MOL0     C33905   2.163  11.763   8.491  1.0585 -0.5652  0.8202
  252MOL0     C33906   2.268  11.810   8.397 -0.0092 -0.3109  0.0959
  252MOL0     C33907   2.388  11.855   8.477 -0.5601  0.2622 -0.4065
  252MOL0     C33908   2.420  12.007   8.461  1.6415 -0.7071 -0.5051
  252MOL0     O33909   2.439  12.043   8.320 -0.1240 -0.1617 -0.0903
  252MOL0     C33910   2.573  12.059   8.282  0.0426  0.2791 -0.8002
  252MOL0     C33911   2.612  12.000   8.168  0.2967 -0.5575 -0.1812
  252MOL0     C33912   2.748  12.029   8.126 -0.3762  0.3837  0.1748
  252MOL0     C33913   2.792  11.972   7.994  0.3762 -0.4806 -0.3870
  252MOL0     C33914   2.830  12.102   8.208  0.3767  0.4097  1.1407
  252MOL0     C33915   2.970  12.132   8.161 -0.2140 -0.7310  0.2416
  252MOL0     O33916   3.024  12.259   8.182  0.0495  0.8093 -0.6959
  252MOL0     C33917   3.158  12.271   8.157  0.1030  0.4891  0.2017
  252MOL0     C33918   3.217  12.313   8.037  0.4762  0.2863 -0.1796
  252MOL0     C33919   3.356  12.310   8.023 -0.6255  0.0357  0.0352
  252MOL0     C33920   3.431  12.278   8.138  0.2580 -0.9162  0.6222
  252MOL0     O33921   3.564  12.297   8.120 -1.4256 -0.1663 -0.7083
  252MOL0     C33922   3.629  12.410   8.162 -0.9641 -0.2744 -0.0223
  252MOL0     C33923   3.680  12.480   8.036 -0.0500  0.7107  0.4690
  252MOL0     C33924   3.771  12.394   7.943 -0.5821  0.2257 -0.5762
  252MOL0     C33925   3.700  12.325   7.821  0.1487  0.4427  0.7745
  252MOL0     C33926   3.779  12.221   7.739  0.2250  0.6312 -0.1417
  252MOL0     C33927   3.898  12.283   7.667 -0.3161 -0.1278  0.5763
  252MOL0     C33928   3.968  12.203   7.555  0.9187  0.0181  0.3645
  252MOL0     C33929   3.972  12.046   7.584 -0.5668 -1.9340 -1.1499
  252MOL0    Cl33930   4.089  12.022   7.716 -0.4379 -0.0978  0.0102
  252MOL0     C33931   3.371  12.245   8.261  0.1292  0.1130  0.7414
  252MOL0     C33932   3.231  12.233   8.262 -0.0592  0.8357 -0.0184
  252MOL0     O33933   3.037  12.025   8.146  0.0433  0.4053  0.4403
  252MOL0     C33934   2.783  12.164   8.324 -0.7829 -0.0091 -0.3560
  252MOL0     C33935   2.643  12.149   8.356 -1.0702 -0.2817 -1.0625
  252MOL0     N33936   2.049  11.995   8.540  0.4151 -0.3311 -0.4848
  252MOL0     N33937   2.024  12.060   8.650  0.0063  0.0841  0.0344
  252MOL0     C33938   1.627  11.517   9.718 -0.0127  0.7755 -0.1865
  252MOL0     C33939   1.591  11.423   9.821 -0.6929 -0.4656  0.1444
  252MOL0     C33940   1.699  11.064  10.109  0.1409 -0.5788 -0.4208
  252MOL0     C33941   1.784  10.961  10.133  1.6570 -0.2568  0.2520
  252MOL0     C33942   1.769  10.873  10.231 -0.8678  0.4437 -0.0008
  252MOL0     C33943   1.666  10.896  10.329  0.1679  0.8901 -0.2442
  252MOL0     O33944   1.645  10.788  10.410 -0.2005 -0.2851  0.3161
  252MOL0     C33945   1.586  10.682  10.331 -0.6043 -0.5388 -0.4982
  252MOL0     C33946   1.436  10.687  10.333  0.9687  0.9561 -0.0393
  252MOL0     C33947   1.375  10.666  10.193 -0.1985  0.4030 -0.3557
  252MOL0     C33948   1.233  10.732  10.175  0.4485 -1.1392 -0.3770
  252MOL0     C33949   1.221  10.874  10.166 -0.6293  0.1632  0.3993
  252MOL0     C33950   1.198  10.994  10.169 -0.5610 -0.3058  0.0833
  252MOL0     C33951   1.585  11.007  10.315 -0.3012  0.7313 -0.8368
  252MOL0     C33952   1.590  11.083  10.198 -0.0119  0.3207  0.2956
  252MOL0     H33953   1.893  11.419   9.969  3.8595 -1.4201 -3.4706
  252MOL0     H33954   1.937  11.600   9.801 -1.9302  1.6149 -1.9943
  252MOL0     H33955   1.849  11.799   9.726  0.7080 -2.2958 -0.9693
  252MOL0     H33956   1.956  11.733   9.610  0.5750  0.5435  3.0867
  252MOL0     H33957   1.706  11.917   9.539 -0.3990  0.3862 -2.7953
  252MOL0     H33958   1.864  11.978   9.574 -1.9934  2.2533 -1.0904
  252MOL0     H33959   1.969  11.837   9.396  0.0166 -1.9045 -0.7539
  252MOL0     H33960   1.810  11.773   9.347  2.4810 -1.2031  0.3746
  252MOL0     H33961   1.732  11.993   9.300  0.4306  0.2896 -1.0383
  252MOL0     H33962   1.874  12.075   9.373 -2.2183  1.3050 -0.1159
  252MOL0     H33963   2.021  12.008   9.199 -0.5676  0.8236  1.2500
  252MOL0     H33964   1.918  11.877   9.136 -1.0993  0.2176  0.4476
  252MOL0     H33965   1.743  12.051   9.072 -0.0718 -1.1042 -2.3163
  252MOL0     H33966   1.867  12.174   9.085  1.1072  0.2269 -3.4402
  252MOL0     H33967   1.848  11.901   8.935 -2.1431  0.9782  1.0563
  252MOL0     H33968   1.824  12.055   8.860  0.4325  0.5069 -0.0799
  252MOL0     H33969   2.100  11.944   8.958  1.8681  1.1365 -0.1606
  252MOL0     H33970   2.063  12.111   8.907 -0.2906  0.4273 -2.5904
  252MOL0     H33971   2.142  11.785   8.769 -1.8108 -1.4955 -1.4814
  252MOL0     H33972   2.203  11.673   8.538 -0.5301 -2.7577 -1.7539
  252MOL0     H33973   2.076  11.722   8.439  1.3241  1.0780 -1.0306
  252MOL0     H33974   2.234  11.898   8.342 -0.7546 -0.6438  0.0123
  252MOL0     H33975   2.303  11.730   8.331  2.4086 -0.2231  1.1480
  252MOL0     H33976   2.473  11.796   8.442  0.3048 -0.7841  3.0945
  252MOL0     H33977   2.372  11.820   8.579  3.4483  1.2346  0.7454
  252MOL0     H33978   2.500  12.018   8.535 -1.2314  0.6770  2.6243
  252MOL0     H33979   2.346  12.073   8.508  5.3461  1.7309  2.5530
  252MOL0     H33980   2.549  11.930   8.114  1.7795 -0.4952 -2.1030
  252MOL0     H33981   2.699  11.953   7.940  0.4850  0.0957 -0.7754
  252MOL0     H33982   2.858  12.037   7.937 -1.7183  1.2776 -0.9225
  252MOL0     H33983   2.841  11.876   8.017  0.1997 -0.1766  1.4508
  252MOL0     H33984   3.149  12.340   7.958  4.2377  1.5981 -3.3080
  252MOL0     H33985   3.416  12.344   7.939  1.6274 -1.1915  1.0461
  252MOL0     H33986   3.560  12.481   8.207  0.8968  0.7357  1.3775
  252MOL0     H33987   3.704  12.390   8.239 -2.3359  1.3092  1.8105
  252MOL0     H33988   3.594  12.521   7.982 -1.7552 -2.0743  0.8738
  252MOL0     H33989   3.742  12.564   8.070 -0.9221  0.6225  2.3642
  252MOL0     H33990   3.829  12.316   7.994 -1.4830 -0.7506 -1.0007
  252MOL0     H33991   3.842  12.469   7.905 -1.7001  0.9164 -1.3494
  252MOL0     H33992   3.616  12.269   7.865  1.4771 -0.7266  1.9168
  252MOL0     H33993   3.663  12.411   7.765 -0.2323  1.1133  2.0063
  252MOL0     H33994   3.712  12.188   7.659  2.0150  3.6536 -3.1509
  252MOL0     H33995   3.809  12.133   7.797  1.5155  0.2251 -1.3616
  252MOL0     H33996   3.865  12.377   7.622  1.2606  0.5232  0.6858
  252MOL0     H33997   3.975  12.310   7.741  0.4033 -1.2921  0.2752
  252MOL0     H33998   4.071  12.234   7.541  2.2310 -1.2983  5.2647
  252MOL0     H33999   3.912  12.216   7.461 -0.8471 -2.9553  0.8504
  252MOL0     H34000   4.025  11.975   7.519  4.4300 -1.4779  1.9380
  252MOL0     H34001   3.870  12.011   7.604 -0.2006 -2.4572 -0.1540
  252MOL0     H34002   3.443  12.239   8.341  1.3996  0.7412 -0.3193
  252MOL0     H34003   3.178  12.211   8.354 -0.3331  2.4854  0.2319
  252MOL0     H34004   2.856  12.219   8.382 -0.1601 -0.7680 -0.4059
  252MOL0     H34005   2.612  12.189   8.451  0.4966 -2.4592  0.4788
  252MOL0     H34006   1.547  11.545   9.650 -0.0478  1.3984  0.1097
  252MOL0     H34007   1.496  11.373   9.837 -0.0454 -3.6064 -4.0244
  252MOL0     H34008   1.871  10.955  10.068  0.3241  2.9264 -2.0952
  252MOL0     H34009   1.826  10.781  10.231  1.3083  1.6415 -2.6727
  252MOL0     H34010   1.619  10.686  10.227  0.1343  0.2361 -0.2413
  252MOL0     H34011   1.622  10.588  10.372 -0.3461  1.0098  3.1904
  252MOL0     H34012   1.406  10.780  10.381 -0.5514  0.2914  0.3646
  252MOL0     H34013   1.402  10.612  10.405  0.7113  0.9335 -0.1827
  252MOL0     H34014   1.358  10.558  10.195 -2.6875  0.7361  0.5460
  252MOL0     H34015   1.447  10.698  10.117  1.8200  1.8843  2.0127
  252MOL0     H34016   1.184  10.715  10.272  1.3435  2.0342  0.7704
  252MOL0     H34017   1.176  10.678  10.099 -2.2394  1.4337 -0.3648
  252MOL0     H34018   1.163  11.094  10.186  0.5929 -0.0048  0.7796
  252MOL0     H34019   1.510  11.024  10.391 -1.1824 -1.6951 -1.0729
  252MOL0     H34020   1.531  11.172  10.178  1.6118  1.1138 -1.2412
  253MOL0     O34021   5.970   0.301   2.571 -0.1004 -0.2014  0.6890
  253MOL0     C34022   6.095   0.298   2.588  1.5320 -0.9529 -0.5021
  253MOL0     O34023   6.173   0.195   2.584 -0.1251  0.5060 -1.0953
  253MOL0     C34024   6.113   0.077   2.594  0.1466  0.3313 -0.7823
  253MOL0     C34025   6.030   0.031   2.698  0.2817 -0.3463 -0.1006
  253MOL0     C34026   5.969  -0.095   2.685 -0.3978  0.2490 -0.2173
  253MOL0     C34027   6.002  -0.176   2.574  0.0973 -0.0521 -0.4176
  253MOL0     O34028   5.942  -0.295   2.588 -0.1265 -0.7842 -0.4355
  253MOL0     C34029   6.015  -0.408   2.535 -0.2805 -0.1969  0.9349
  253MOL0     C34030   5.939  -0.544   2.543  0.6136 -0.6366 -0.1443
  253MOL0     C34031   5.802  -0.530   2.484  0.1236  0.0280  1.1639
  253MOL0     C34032   5.731  -0.663   2.481  0.1093  0.4252  0.1259
  253MOL0     C34033   5.576  -0.644   2.442 -0.0857 -0.2314  0.1545
  253MOL0     C34034   5.510  -0.777   2.407  0.6151 -0.8651  0.0992
  253MOL0     C34035   5.490  -0.858   2.536  0.3449  0.0278  0.7340
  253MOL0     C34036   5.415  -0.984   2.524 -0.5500  0.3222  0.3034
  253MOL0     N34037   5.472  -1.078   2.421 -1.2036 -0.2475  0.2420
  253MOL0     C34038   5.433  -1.087   2.292  0.6517  0.3542 -0.0331
  253MOL0     C34039   5.492  -1.196   2.236  0.1168  0.7596  0.7383
  253MOL0     C34040   5.482  -1.249   2.097  0.5976 -0.2866  0.2366
  253MOL0     C34041   5.375  -1.357   2.082 -0.6551 -0.3524 -0.1933
  253MOL0     C34042   5.377  -1.407   1.936  0.3867 -0.9307 -0.0415
  253MOL0     C34043   5.389  -1.299   1.819  0.6189  0.3013  0.1463
  253MOL0     O34044   5.532  -1.290   1.791 -0.1259 -0.3887  0.8292
  253MOL0     C34045   5.573  -1.395   1.707  0.0772  1.0188  0.8569
  253MOL0     C34046   5.662  -1.483   1.772 -0.4404 -0.7973  0.0500
  253MOL0     C34047   5.699  -1.605   1.709  1.3854 -1.0251  0.6968
  253MOL0     C34048   5.779  -1.706   1.788 -0.2327 -0.9540 -0.6058
  253MOL0     C34049   5.658  -1.622   1.569  0.1822 -0.7961  0.0203
  253MOL0     C34050   5.708  -1.742   1.492  0.2449 -0.9041  0.2761
  253MOL0     O34051   5.638  -1.788   1.380 -0.3297 -0.5297 -0.7647
  253MOL0     C34052   5.665  -1.916   1.338 -0.4627 -0.5781  0.3622
  253MOL0     C34053   5.698  -1.945   1.204 -1.1556  0.7702 -1.3141
  253MOL0     C34054   5.733  -2.074   1.164 -0.7667 -0.2138  1.2894
  253MOL0     C34055   5.717  -2.178   1.252  0.1398 -0.0717  0.0498
  253MOL0     O34056   5.732  -2.309   1.207  0.5177  0.0649  0.3201
  253MOL0     C34057   5.684  -2.339   1.072  0.1406  0.0577 -1.2373
  253MOL0     C34058   5.628  -2.484   1.067 -0.0880 -0.7376 -1.3130
  253MOL0     C34059   5.580  -2.514   0.930  0.8667  0.2489  0.7928
  253MOL0     C34060   5.604  -2.654   0.890 -0.0634 -0.0355 -0.3694
  253MOL0     C34061   5.548  -2.700   0.747 -0.8592  0.2467  0.8484
  253MOL0     C34062   5.395  -2.686   0.733 -0.9538  0.5891 -0.4054
  253MOL0     C34063   5.339  -2.751   0.610  0.1612  0.3801  0.3539
  253MOL0     C34064   5.182  -2.729   0.589  0.0689 -0.4541 -0.3621
  253MOL0    Cl34065   5.165  -2.557   0.561 -0.2910  0.1103  0.0377
  253MOL0     C34066   5.686  -2.154   1.384 -1.2836  0.6266  0.9406
  253MOL0     C34067   5.658  -2.027   1.429 -0.0391 -0.1958  0.4237
  253MOL0     O34068   5.822  -1.770   1.518 -0.1318  0.1537  0.5133
  253MOL0     C34069   5.567  -1.544   1.511  0.2245 -0.3578  0.3278
  253MOL0     C34070   5.526  -1.427   1.575  0.2755 -0.5503 -0.3538
  253MOL0     N34071   5.572  -1.256   2.337  0.6599 -0.1190  0.0057
  253MOL0     N34072   5.550  -1.184   2.445  0.1286  0.0001  0.2777
  253MOL0     C34073   6.088  -0.140   2.474 -0.1208  0.5034 -0.3861
  253MOL0     C34074   6.141  -0.002   2.485 -0.6859  1.1263 -0.0314
  253MOL0     C34075   6.150   0.430   2.621  0.3658  0.2748 -0.0906
  253MOL0     C34076   6.278   0.429   2.685 -1.5816 -1.1293  0.1654
  253MOL0     C34077   6.349   0.553   2.708 -0.0921 -0.9034  0.0012
  253MOL0     C34078   6.278   0.671   2.677 -0.0802 -0.4301  0.6839
  253MOL0     O34079   6.327   0.796   2.673 -0.4685  0.1000  0.4163
  253MOL0     C34080   6.451   0.808   2.752  0.0278 -0.0833  0.2041
  253MOL0     C34081   6.491   0.955   2.746  0.1709  0.2209 -0.4689
  253MOL0     C34082   6.642   0.976   2.780 -0.3708 -0.3594  0.0232
  253MOL0     C34083   6.679   1.123   2.794 -0.7963 -0.1942 -0.1818
  253MOL0     C34084   6.823   1.160   2.800  0.1830  0.1248  0.2200
  253MOL0     C34085   6.942   1.194   2.794  0.3202  0.0156  0.1409
  253MOL0     C34086   6.155   0.668   2.615 -0.0343 -0.2025  0.0779
  253MOL0     C34087   6.094   0.548   2.589  0.2370 -0.6671  0.1678
  253MOL0     H34088   6.020   0.081   2.794  1.7501 -0.9486  0.3925
  253MOL0     H34089   5.912  -0.136   2.768  1.8932 -0.5970  1.0442
  253MOL0     H34090   6.038  -0.389   2.429  1.6114  1.2865  1.5445
  253MOL0     H34091   6.111  -0.419   2.587  2.1310  1.6221 -2.6519
  253MOL0     H34092   5.995  -0.613   2.479 -0.9170 -1.1223 -1.0143
  253MOL0     H34093   5.921  -0.563   2.649  0.4588  0.7232  0.0870
  253MOL0     H34094   5.750  -0.458   2.548  1.9439  1.5472  1.0214
  253MOL0     H34095   5.808  -0.489   2.383  0.1246 -1.1585  0.6678
  253MOL0     H34096   5.773  -0.735   2.411  0.2488 -1.1442  1.7308
  253MOL0     H34097   5.744  -0.711   2.579  2.9342  0.6394 -0.0589
  253MOL0     H34098   5.527  -0.576   2.513  1.4214  1.4177 -0.3105
  253MOL0     H34099   5.579  -0.582   2.352  1.1150  2.6472  2.0232
  253MOL0     H34100   5.413  -0.751   2.363  0.5366 -0.2648  0.6175
  253MOL0     H34101   5.571  -0.825   2.330 -1.9326 -0.4027 -2.4150
  253MOL0     H34102   5.588  -0.888   2.574  0.9289  0.9953  0.0231
  253MOL0     H34103   5.443  -0.793   2.610  3.6818 -0.6699  3.7422
  253MOL0     H34104   5.311  -0.961   2.498 -0.5349 -1.1812 -1.2731
  253MOL0     H34105   5.415  -1.036   2.621  0.9474  0.0113  0.1656
  253MOL0     H34106   5.354  -1.023   2.255 -0.3750 -1.4636 -1.1409
  253MOL0     H34107   5.464  -1.163   2.031  3.2527 -0.4272 -0.7655
  253MOL0     H34108   5.575  -1.293   2.061 -0.2221 -0.7926 -1.3795
  253MOL0     H34109   5.280  -1.307   2.105 -0.8409 -1.0734  0.6700
  253MOL0     H34110   5.391  -1.443   2.148 -0.5743 -1.0648 -1.1248
  253MOL0     H34111   5.279  -1.454   1.921  0.8361 -1.0050 -3.6646
  253MOL0     H34112   5.449  -1.489   1.929 -0.1127 -1.5429  1.6188
  253MOL0     H34113   5.356  -1.205   1.865 -1.3674 -2.4385  5.0586
  253MOL0     H34114   5.330  -1.327   1.732 -0.7781 -0.4295  1.2758
  253MOL0     H34115   5.692  -1.471   1.875 -0.5656  0.9623 -0.0810
  253MOL0     H34116   5.738  -1.804   1.764 -0.8524 -1.4773  2.2354
  253MOL0     H34117   5.887  -1.685   1.782 -0.4189  0.8271  1.1569
  253MOL0     H34118   5.760  -1.684   1.893 -2.2137 -1.3656 -0.8395
  253MOL0     H34119   5.706  -1.858   1.139 -3.8522  1.4954 -0.7954
  253MOL0     H34120   5.754  -2.100   1.061 -0.3958  0.1977  1.2611
  253MOL0     H34121   5.606  -2.273   1.033 -0.7217  1.2812  2.2237
  253MOL0     H34122   5.768  -2.324   1.004 -1.0235  3.1809 -2.1340
  253MOL0     H34123   5.710  -2.551   1.092  1.5717  1.1209 -1.4878
  253MOL0     H34124   5.553  -2.501   1.144 -0.6505 -1.5092 -2.0207
  253MOL0     H34125   5.636  -2.458   0.854 -2.1717 -1.8145 -3.3144
  253MOL0     H34126   5.474  -2.488   0.932  0.6517 -0.4829 -0.3908
  253MOL0     H34127   5.709  -2.684   0.900 -0.6585 -1.9381  0.9092
  253MOL0     H34128   5.557  -2.718   0.966 -2.7275  0.9512 -1.0932
  253MOL0     H34129   5.577  -2.804   0.725 -0.6103  0.8976 -2.4795
  253MOL0     H34130   5.589  -2.645   0.662  0.5508  0.2544  1.5127
  253MOL0     H34131   5.334  -2.721   0.817 -2.3116  0.3215 -1.4860
  253MOL0     H34132   5.378  -2.578   0.732 -0.7938  0.6334  0.3787
  253MOL0     H34133   5.360  -2.858   0.611  1.7039  0.6462  1.9111
  253MOL0     H34134   5.385  -2.715   0.517  0.1094 -0.8034 -0.1467
  253MOL0     H34135   5.115  -2.762   0.670  1.1060 -3.2872 -0.5393
  253MOL0     H34136   5.157  -2.784   0.497 -1.4679 -0.5001  0.0533
  253MOL0     H34137   5.697  -2.233   1.458 -1.8248 -0.1764  0.1841
  253MOL0     H34138   5.639  -2.011   1.534 -0.1737 -1.7975  0.6773
  253MOL0     H34139   5.530  -1.572   1.413  1.3827 -0.7814 -0.0070
  253MOL0     H34140   5.464  -1.359   1.518 -0.9109 -2.3553 -1.3336
  253MOL0     H34141   6.099  -0.200   2.384 -5.4752  1.7766 -2.2268
  253MOL0     H34142   6.197   0.035   2.400  3.2205 -3.9089 -0.0803
  253MOL0     H34143   6.327   0.339   2.720  0.2646 -0.6709 -1.0793
  253MOL0     H34144   6.447   0.568   2.753  0.2424 -0.7378 -0.7508
  253MOL0     H34145   6.441   0.761   2.850  3.3493 -0.9523  0.2159
  253MOL0     H34146   6.536   0.757   2.707 -0.7308 -1.9771  0.8537
  253MOL0     H34147   6.432   1.020   2.812 -0.1634  2.5770 -2.9426
  253MOL0     H34148   6.465   0.992   2.647  0.8521 -3.4039 -2.1810
  253MOL0     H34149   6.708   0.948   2.697 -2.3056 -3.7740 -0.5442
  253MOL0     H34150   6.675   0.913   2.863 -0.6857  1.5911  1.7016
  253MOL0     H34151   6.634   1.148   2.891 -0.7792 -3.1981  0.7061
  253MOL0     H34152   6.625   1.185   2.722 -1.9525 -0.0616  0.7733
  253MOL0     H34153   7.036   1.245   2.789  1.3697 -1.8392 -0.0554
  253MOL0     H34154   6.111   0.753   2.564  1.0705 -1.6884 -3.6915
  253MOL0     H34155   5.997   0.548   2.540 -0.2227  0.1770  1.0468
  254MOL0     O34156   8.169   9.495   7.513  0.2700  0.5696  0.6405
  254MOL0     C34157   8.258   9.575   7.471 -0.2343  0.4694  0.6655
  254MOL0     O34158   8.382   9.536   7.430 -0.2704 -0.7455 -0.0798
  254MOL0     C34159   8.436   9.413   7.434  0.1644  0.3862  0.2780
  254MOL0     C34160   8.395   9.290   7.496 -0.0588  0.2712  0.3668
  254MOL0     C34161   8.475   9.177   7.505 -0.2389  0.2053  1.0547
  254MOL0     C34162   8.605   9.179   7.451 -1.1180 -0.1519 -1.7905
  254MOL0     O34163   8.690   9.067   7.448  0.5080 -0.0491 -0.3967
  254MOL0     C34164   8.815   9.090   7.496  0.7465  0.0618 -0.3155
  254MOL0     C34165   8.887   8.950   7.511  0.1067 -0.2097  0.5111
  254MOL0     C34166   8.891   8.853   7.395 -0.7191 -0.2287  0.0291
  254MOL0     C34167   8.993   8.737   7.423 -0.5750  0.1052  0.1822
  254MOL0     C34168   8.991   8.626   7.311  0.0801 -0.5082 -0.3304
  254MOL0     C34169   9.001   8.679   7.171 -0.4451 -0.7713 -1.2984
  254MOL0     C34170   8.989   8.567   7.080  0.0500 -0.4321  0.1157
  254MOL0     C34171   9.009   8.579   6.932 -0.1212 -0.0363  0.1033
  254MOL0     N34172   9.112   8.685   6.900 -1.0027 -0.2024 -0.5069
  254MOL0     C34173   9.082   8.814   6.871  0.3077 -0.1176  0.2746
  254MOL0     C34174   9.196   8.875   6.833  0.0874  0.8989  0.1039
  254MOL0     C34175   9.213   9.010   6.792  0.6131  0.0500  1.0011
  254MOL0     C34176   9.209   9.029   6.641 -0.5972 -0.9392 -0.1498
  254MOL0     C34177   9.088   8.958   6.572  0.4785  0.1086  1.0306
  254MOL0     C34178   9.095   8.965   6.412 -0.4861 -0.3737 -0.3173
  254MOL0     O34179   9.181   8.858   6.368  0.2257 -0.7826  0.4952
  254MOL0     C34180   9.199   8.847   6.231 -0.5293  0.3958  0.2835
  254MOL0     C34181   9.133   8.932   6.146 -1.3775 -0.6214  0.7154
  254MOL0     C34182   9.165   8.919   6.005 -0.2369 -0.2965  0.3511
  254MOL0     C34183   9.100   9.021   5.917 -0.1136 -0.7566  0.9527
  254MOL0     C34184   9.242   8.816   5.958  0.4263  0.9478  0.6766
  254MOL0     C34185   9.271   8.802   5.817 -0.7045 -0.4127 -0.0830
  254MOL0     O34186   9.335   8.910   5.762  0.3081  0.2078 -0.0607
  254MOL0     C34187   9.297   8.945   5.627 -0.3606  0.1409 -0.5722
  254MOL0     C34188   9.389   9.024   5.555 -0.4986  0.7400  0.3633
  254MOL0     C34189   9.368   9.068   5.426  0.2228  0.4581 -0.1750
  254MOL0     C34190   9.256   9.041   5.356  0.2782  0.2556 -0.3607
  254MOL0     O34191   9.247   9.092   5.232  0.0654  0.2745 -0.5334
  254MOL0     C34192   9.216   9.004   5.122 -1.3946 -0.5813 -0.3870
  254MOL0     C34193   9.281   9.068   4.996 -0.1979  0.4337 -0.8399
  254MOL0     C34194   9.190   9.190   4.944 -0.5384 -0.1504 -0.4399
  254MOL0     C34195   9.054   9.144   4.877  0.0349  0.1226  0.5161
  254MOL0     C34196   8.945   9.256   4.866  0.3837 -0.3552 -0.9936
  254MOL0     C34197   8.995   9.401   4.826 -0.1825 -0.1704  0.6903
  254MOL0     C34198   9.069   9.409   4.690 -0.4494 -0.0970  0.4600
  254MOL0     C34199   9.056   9.542   4.615 -0.2462 -0.4338 -1.0591
  254MOL0    Cl34200   9.135   9.677   4.713 -0.3573  0.1544 -0.5180
  254MOL0     C34201   9.163   8.959   5.420  0.3536  0.0321  1.2931
  254MOL0     C34202   9.182   8.913   5.549  0.0418  0.2853 -0.1732
  254MOL0     O34203   9.243   8.708   5.764 -0.1781  0.0157 -0.3104
  254MOL0     C34204   9.288   8.714   6.049  0.0962 -0.4494 -0.1211
  254MOL0     C34205   9.277   8.732   6.184  0.1759 -0.9722  1.6655
  254MOL0     N34206   9.304   8.786   6.860  0.1114  0.5428 -0.4834
  254MOL0     N34207   9.252   8.670   6.889  0.0642  0.7770  0.0451
  254MOL0     C34208   8.656   9.306   7.398  1.5189  0.0965  0.6115
  254MOL0     C34209   8.570   9.419   7.386 -0.4603 -0.3179 -0.0443
  254MOL0     C34210   8.224   9.705   7.447  0.0588 -0.5412 -1.0998
  254MOL0     C34211   8.325   9.793   7.420  0.5552 -0.3854 -0.1643
  254MOL0     C34212   8.293   9.927   7.399 -1.3541 -0.4637  0.2932
  254MOL0     C34213   8.167   9.976   7.409  0.7170 -0.4057 -0.3682
  254MOL0     O34214   8.120  10.109   7.394  0.7892  0.0680 -0.2226
  254MOL0     C34215   8.213  10.199   7.342  0.2277  0.2786  0.4605
  254MOL0     C34216   8.263  10.297   7.456 -0.1190 -1.2528  0.5437
  254MOL0     C34217   8.139  10.376   7.508 -0.4534  0.1840  0.3528
  254MOL0     C34218   8.164  10.465   7.636 -0.7880  0.0703 -0.2798
  254MOL0     C34219   8.042  10.532   7.679 -0.2832 -0.4666 -0.4373
  254MOL0     C34220   7.952  10.606   7.718  0.1897  0.6867  0.7392
  254MOL0     C34221   8.070   9.890   7.459 -0.2691 -0.2098  0.5528
  254MOL0     C34222   8.098   9.759   7.472 -0.1247  0.5217 -0.3927
  254MOL0     H34223   8.300   9.297   7.547  0.3975  0.2665  1.2471
  254MOL0     H34224   8.433   9.086   7.547 -1.7919  0.1810 -0.4395
  254MOL0     H34225   8.874   9.138   7.417  0.4535 -1.9777 -1.8617
  254MOL0     H34226   8.818   9.140   7.593 -1.3926 -0.9166  0.3141
  254MOL0     H34227   8.990   8.974   7.538  1.9962 -4.2646 -2.1951
  254MOL0     H34228   8.844   8.911   7.603  1.4252  2.9728  2.6347
  254MOL0     H34229   8.795   8.807   7.371 -0.6447 -0.2053 -0.3212
  254MOL0     H34230   8.937   8.900   7.308  1.4306 -1.9950  0.1418
  254MOL0     H34231   9.094   8.780   7.418 -0.8659  0.6958 -0.9774
  254MOL0     H34232   8.977   8.689   7.520 -1.0732 -0.9034 -0.3808
  254MOL0     H34233   9.077   8.565   7.338 -0.3018 -0.7727  0.3101
  254MOL0     H34234   8.898   8.573   7.333 -0.4901  1.3279  2.0822
  254MOL0     H34235   8.919   8.748   7.148 -2.6987 -2.1774  1.7015
  254MOL0     H34236   9.099   8.727   7.160 -0.4864 -0.0921  0.7837
  254MOL0     H34237   9.065   8.491   7.098  0.1084 -1.0999 -2.5502
  254MOL0     H34238   8.896   8.514   7.104  1.4546 -2.0464  2.4323
  254MOL0     H34239   8.910   8.604   6.892 -0.1542  1.0512  0.8299
  254MOL0     H34240   9.044   8.487   6.884  1.7252 -0.2444  1.7419
  254MOL0     H34241   8.981   8.854   6.868  0.2104 -0.1290  2.1402
  254MOL0     H34242   9.140   9.077   6.840  1.1672 -0.5059  2.6770
  254MOL0     H34243   9.311   9.038   6.830 -0.1577  2.0126  1.6599
  254MOL0     H34244   9.302   8.984   6.604  0.5223 -1.3320  2.8801
  254MOL0     H34245   9.219   9.137   6.630  2.7907 -1.3546 -3.3600
  254MOL0     H34246   9.003   9.013   6.613  0.5320  1.8641 -1.0371
  254MOL0     H34247   9.078   8.853   6.602 -1.1254 -0.0906 -0.0659
  254MOL0     H34248   9.142   9.061   6.389 -0.1347 -0.1864  1.0875
  254MOL0     H34249   8.993   8.969   6.372 -0.7065  3.1872  0.3262
  254MOL0     H34250   9.063   9.013   6.165  2.0785  2.3572  1.8526
  254MOL0     H34251   9.125   9.123   5.949 -2.7530  1.0989 -2.2314
  254MOL0     H34252   9.124   9.023   5.810  0.5877  0.2774  1.1099
  254MOL0     H34253   8.991   9.017   5.924 -0.6903  5.1680  0.5302
  254MOL0     H34254   9.481   9.048   5.608  1.2475 -1.1030 -1.6830
  254MOL0     H34255   9.453   9.123   5.386  1.9771 -0.8968  1.5216
  254MOL0     H34256   9.264   8.906   5.131 -2.1902 -1.3218 -3.1306
  254MOL0     H34257   9.109   8.980   5.114 -0.9314 -3.1972  0.4631
  254MOL0     H34258   9.384   9.094   5.019 -0.5863  0.7946  0.6032
  254MOL0     H34259   9.288   8.993   4.917  0.9851 -0.3117 -0.0614
  254MOL0     H34260   9.240   9.260   4.876 -0.1551 -1.2376 -1.3046
  254MOL0     H34261   9.175   9.247   5.036  4.8271 -3.4918  3.1280
  254MOL0     H34262   9.093   9.109   4.782 -0.8187 -2.8096  1.1612
  254MOL0     H34263   9.020   9.059   4.937  3.3727 -3.0480 -1.6639
  254MOL0     H34264   8.898   9.256   4.964  0.7511  2.2543 -0.7576
  254MOL0     H34265   8.869   9.236   4.790  0.3978  2.2425 -1.7882
  254MOL0     H34266   8.904   9.459   4.811 -0.6526 -1.1500 -0.3016
  254MOL0     H34267   9.054   9.444   4.908 -0.4596  2.4109 -0.3704
  254MOL0     H34268   9.034   9.330   4.623 -1.3485  1.3361 -0.8294
  254MOL0     H34269   9.175   9.387   4.707 -1.2031 -2.3340  2.9394
  254MOL0     H34270   8.949   9.556   4.597 -0.4327 -2.1290 -1.3989
  254MOL0     H34271   9.092   9.536   4.512  2.4345 -0.2539 -0.1905
  254MOL0     H34272   9.069   8.943   5.369  1.8700 -1.4416 -1.2460
  254MOL0     H34273   9.117   8.839   5.595  1.1198  0.4328  1.6936
  254MOL0     H34274   9.327   8.629   5.995 -1.8314  0.2647 -2.8901
  254MOL0     H34275   9.334   8.679   6.259  2.6292  1.6934  1.8649
  254MOL0     H34276   8.745   9.309   7.336  1.2879 -0.3619  0.2540
  254MOL0     H34277   8.605   9.513   7.344 -1.3266 -0.2905 -0.7505
  254MOL0     H34278   8.428   9.761   7.409  0.3939 -0.5594 -1.2023
  254MOL0     H34279   8.376   9.998   7.404 -2.0434  0.3447  0.5319
  254MOL0     H34280   8.301  10.153   7.295  0.9686 -1.3794  3.2074
  254MOL0     H34281   8.164  10.257   7.264 -0.6214  0.2406  0.9616
  254MOL0     H34282   8.324  10.370   7.402 -0.3425 -1.7706 -0.4386
  254MOL0     H34283   8.310  10.238   7.535  0.1747 -1.4603  0.2146
  254MOL0     H34284   8.058  10.307   7.533 -0.6237  0.4365  0.5006
  254MOL0     H34285   8.095  10.436   7.428 -1.5022  0.0287  0.8073
  254MOL0     H34286   8.245  10.537   7.619  0.4018 -1.5036 -1.6561
  254MOL0     H34287   8.199  10.390   7.707 -0.3526  1.6376  1.2194
  254MOL0     H34288   7.868  10.668   7.742  0.0832  1.1345 -0.7357
  254MOL0     H34289   7.970   9.928   7.479 -0.2585 -1.0371  2.4621
  254MOL0     H34290   8.021   9.692   7.510  0.8192 -0.7070 -0.6052
  255MOL0     O34291   9.091   2.064  11.077  0.1366 -0.9753 -0.4704
  255MOL0     C34292   8.970   2.054  11.065  0.6208 -0.3973  1.1320
  255MOL0     O34293   8.882   2.046  11.161  0.2491  0.0848  0.9156
  255MOL0     C34294   8.928   2.031  11.293 -0.1130  0.4367  0.4934
  255MOL0     C34295   9.019   2.123  11.353 -0.9571  0.4025  0.0325
  255MOL0     C34296   9.066   2.097  11.486 -0.9250 -0.5102 -0.0341
  255MOL0     C34297   9.014   1.999  11.565 -0.3824 -0.0844 -0.1500
  255MOL0     O34298   9.046   1.957  11.693  0.2736 -0.8925 -1.0135
  255MOL0     C34299   9.176   1.988  11.736 -0.3178  0.4034 -0.1239
  255MOL0     C34300   9.197   1.909  11.868  0.1057 -0.2205 -0.5419
  255MOL0     C34301   9.186   1.758  11.844  0.3356 -0.4557  0.7039
  255MOL0     C34302   9.070   1.704  11.928  0.4356  0.5545  0.3720
  255MOL0     C34303   9.016   1.568  11.881 -0.6454 -0.5310 -0.1614
  255MOL0     C34304   9.114   1.454  11.915 -0.4987  0.4879  0.3250
  255MOL0     C34305   9.143   1.428  12.074 -0.2968 -0.1411 -0.5847
  255MOL0     C34306   9.028   1.377  12.162 -0.4644 -0.0870 -0.4740
  255MOL0     N34307   9.079   1.307  12.280  0.5454  0.2698 -0.6995
  255MOL0     C34308   9.119   1.369  12.393 -0.2001 -0.3478 -0.4514
  255MOL0     C34309   9.112   1.275  12.493  0.0091  0.3741 -0.1017
  255MOL0     C34310   9.111   1.307  12.642 -1.3520  0.6381 -0.3577
  255MOL0     C34311   9.212   1.210  12.711  0.0712  0.4834  0.1863
  255MOL0     C34312   9.354   1.217  12.644  0.4080 -0.2238 -0.0230
  255MOL0     C34313   9.431   1.351  12.640  0.3755 -0.1380 -0.2450
  255MOL0     O34314   9.395   1.423  12.758 -0.5284 -0.5618 -0.8550
  255MOL0     C34315   9.471   1.409  12.871  0.5675  0.7251 -0.2833
  255MOL0     C34316   9.590   1.333  12.880  0.7383 -0.0354 -0.0568
  255MOL0     C34317   9.677   1.339  12.987 -0.4207  1.2787  0.1189
  255MOL0     C34318   9.799   1.249  12.971  1.1435 -0.5051  0.1512
  255MOL0     C34319   9.635   1.405  13.101  0.1635 -0.4713 -0.1663
  255MOL0     C34320   9.715   1.400  13.234 -0.3871  0.0662  0.5653
  255MOL0     O34321   9.652   1.413  13.354 -0.4853  0.5189  0.2556
  255MOL0     C34322   9.740   1.441  13.453 -0.9214 -1.0404  0.5825
  255MOL0     C34323   9.798   1.338  13.528 -0.1711  0.4643  0.3011
  255MOL0     C34324   9.884   1.362  13.636  0.0283 -0.2151 -0.4848
  255MOL0     C34325   9.916   1.489  13.670  0.2810  0.1337 -0.8796
  255MOL0     O34326  10.004   1.499  13.779 -0.2613  0.0682  0.5077
  255MOL0     C34327  10.116   1.597  13.770  0.4866 -0.0014  0.0388
  255MOL0     C34328  10.248   1.515  13.757  0.3535 -0.1319  0.0749
  255MOL0     C34329  10.267   1.492  13.605 -0.2902 -0.0581 -1.6597
  255MOL0     C34330  10.412   1.497  13.547  0.1279  0.0303 -0.7093
  255MOL0     C34331  10.490   1.624  13.572  0.0709 -0.1045 -0.6457
  255MOL0     C34332  10.640   1.617  13.512  0.5588 -0.3295 -0.4665
  255MOL0     C34333  10.702   1.762  13.509  0.0319  1.2615  0.8078
  255MOL0     C34334  10.704   1.837  13.372 -0.2533  0.5483  0.0502
  255MOL0    Cl34335  10.808   1.981  13.379  0.8598  0.7052  0.0793
  255MOL0     C34336   9.862   1.595  13.593 -1.1730  0.4478 -0.3792
  255MOL0     C34337   9.780   1.572  13.488  1.9148  0.2224 -0.2858
  255MOL0     O34338   9.838   1.406  13.218  0.2777  0.9250 -0.4964
  255MOL0     C34339   9.519   1.482  13.102  0.1907 -1.3104  0.5476
  255MOL0     C34340   9.432   1.480  12.988  0.2966  0.2472  0.1654
  255MOL0     N34341   9.071   1.152  12.440  0.4865  0.1641 -0.0511
  255MOL0     N34342   9.065   1.173  12.316 -0.1132 -1.2891 -0.4819
  255MOL0     C34343   8.916   1.930  11.509 -0.2148  0.3019 -0.6311
  255MOL0     C34344   8.873   1.939  11.378 -0.4294 -0.0889  0.3159
  255MOL0     C34345   8.922   2.042  10.926  0.5475 -0.7946 -0.6353
  255MOL0     C34346   8.783   2.029  10.899  0.2187 -0.9855  0.6431
  255MOL0     C34347   8.732   1.998  10.771  0.7836  0.1536  0.5441
  255MOL0     C34348   8.821   1.979  10.666 -0.3650 -0.0406 -0.3712
  255MOL0     O34349   8.762   1.932  10.548 -0.3882  0.6866 -0.7278
  255MOL0     C34350   8.859   1.887  10.443 -0.2003 -0.2576  0.0686
  255MOL0     C34351   8.778   1.835  10.327  0.9236  0.5033  0.9003
  255MOL0     C34352   8.876   1.809  10.215 -0.0381  0.0364  0.1571
  255MOL0     C34353   8.812   1.733  10.097  0.4365 -0.4750  1.3970
  255MOL0     C34354   8.689   1.814  10.036  0.8180  0.7271  0.1165
  255MOL0     C34355   8.594   1.878   9.987  0.2970  0.2923  0.0467
  255MOL0     C34356   8.957   1.990  10.692  0.3617 -0.3901  0.0335
  255MOL0     C34357   9.006   2.024  10.818  0.5618  0.2113 -0.8515
  255MOL0     H34358   9.075   2.197  11.297  1.8926 -0.1640  1.9483
  255MOL0     H34359   9.141   2.167  11.521  1.3320 -3.2864  1.0253
  255MOL0     H34360   9.243   1.949  11.658  2.4374  4.9360 -0.3896
  255MOL0     H34361   9.209   2.090  11.759  0.5161  0.3854 -1.1709
  255MOL0     H34362   9.297   1.929  11.907  0.1399 -1.5607  0.1043
  255MOL0     H34363   9.118   1.936  11.939  0.6484 -1.7675  0.7144
  255MOL0     H34364   9.158   1.741  11.739  2.1922 -1.5409  0.3400
  255MOL0     H34365   9.281   1.706  11.860  0.3784  0.2442  3.0793
  255MOL0     H34366   9.095   1.693  12.034  1.7894 -0.5152 -0.0247
  255MOL0     H34367   8.985   1.772  11.918 -2.3054 -1.8569  4.4397
  255MOL0     H34368   8.916   1.553  11.922 -2.0582  4.2843 -1.1230
  255MOL0     H34369   8.996   1.556  11.774 -0.2058 -1.0501 -0.1868
  255MOL0     H34370   9.075   1.355  11.892 -3.1269  0.9989  2.1778
  255MOL0     H34371   9.205   1.477  11.859 -0.6538  0.3348  0.0047
  255MOL0     H34372   9.226   1.356  12.079 -0.6587 -0.5008  0.3030
  255MOL0     H34373   9.177   1.526  12.108 -0.3877  0.8318 -3.0584
  255MOL0     H34374   8.960   1.314  12.104 -0.0013 -3.4781  2.3674
  255MOL0     H34375   8.964   1.463  12.186  0.3025  0.5379 -0.6362
  255MOL0     H34376   9.119   1.474  12.418 -4.0819 -0.3475  0.1477
  255MOL0     H34377   9.145   1.409  12.662  1.3527  0.1886 -2.1848
  255MOL0     H34378   9.013   1.293  12.688 -1.1776 -0.9886 -0.4498
  255MOL0     H34379   9.186   1.105  12.696 -0.8691  0.6532  0.5295
  255MOL0     H34380   9.212   1.231  12.819 -0.6749  1.0635  0.0842
  255MOL0     H34381   9.348   1.186  12.540  0.7483  0.5062 -0.2662
  255MOL0     H34382   9.419   1.149  12.701 -0.9044 -0.6582  1.0212
  255MOL0     H34383   9.399   1.410  12.553 -2.0578  2.8700  2.4328
  255MOL0     H34384   9.539   1.349  12.623  0.3076  4.5771 -3.0647
  255MOL0     H34385   9.619   1.271  12.796 -0.9134  3.5880 -3.6518
  255MOL0     H34386   9.785   1.166  13.041 -0.8614  0.0733  0.4973
  255MOL0     H34387   9.807   1.215  12.867  3.1306 -1.2096  0.4802
  255MOL0     H34388   9.891   1.302  13.000  1.5631 -1.4034  0.5040
  255MOL0     H34389   9.779   1.241  13.484  3.1934 -0.0662 -0.2446
  255MOL0     H34390   9.911   1.275  13.695 -2.5952 -0.0247  1.1756
  255MOL0     H34391  10.099   1.671  13.692 -1.3110  0.5020  0.8596
  255MOL0     H34392  10.121   1.661  13.858  2.4204 -0.4330  0.2852
  255MOL0     H34393  10.327   1.585  13.785  0.9529  0.1819 -2.1965
  255MOL0     H34394  10.247   1.425  13.820 -3.7703  0.7955  1.6762
  255MOL0     H34395  10.210   1.567  13.549 -0.6207  0.9927  0.0075
  255MOL0     H34396  10.226   1.394  13.580 -1.1341  0.5064 -2.5846
  255MOL0     H34397  10.473   1.410  13.576  0.0045  0.3359  0.5484
  255MOL0     H34398  10.417   1.487  13.439 -0.3048  1.3682 -0.8647
  255MOL0     H34399  10.506   1.653  13.676 -1.6581  1.0851 -0.6641
  255MOL0     H34400  10.438   1.714  13.536 -5.7039 -1.7876  2.2330
  255MOL0     H34401  10.689   1.561  13.592  1.7957  0.5367 -0.5732
  255MOL0     H34402  10.637   1.572  13.413  0.0828 -2.3133  0.4119
  255MOL0     H34403  10.804   1.757  13.548  0.4189  1.3035 -0.1772
  255MOL0     H34404  10.653   1.835  13.573  2.4882  2.5228  1.3585
  255MOL0     H34405  10.600   1.870  13.370  0.1517  2.1535  2.0598
  255MOL0     H34406  10.722   1.785  13.277 -0.1048  1.0133 -0.1773
  255MOL0     H34407   9.904   1.694  13.607  1.5251 -0.7962  1.1860
  255MOL0     H34408   9.742   1.644  13.416 -3.4801  0.5498  2.3673
  255MOL0     H34409   9.491   1.543  13.187  2.0034  3.3332 -1.8160
  255MOL0     H34410   9.337   1.533  12.982 -0.0142  0.2888  3.3601
  255MOL0     H34411   8.885   1.847  11.571  2.1346 -1.5535 -1.7940
  255MOL0     H34412   8.787   1.880  11.346 -2.2743  1.5184  2.0943
  255MOL0     H34413   8.714   2.051  10.980 -1.2166  1.8642 -1.1941
  255MOL0     H34414   8.629   1.974  10.748  1.1138 -1.7916  0.9053
  255MOL0     H34415   8.912   1.977  10.410 -4.2967  1.5840 -2.3749
  255MOL0     H34416   8.924   1.814  10.492 -0.1507 -1.5939 -1.9033
  255MOL0     H34417   8.700   1.906  10.298  0.4286  1.9302  5.0979
  255MOL0     H34418   8.726   1.740  10.341 -2.6005  2.0199 -0.5952
  255MOL0     H34419   8.956   1.744  10.252 -0.5284 -0.1411  0.9196
  255MOL0     H34420   8.914   1.902  10.172  0.0978  0.1605  0.5423
  255MOL0     H34421   8.759   1.641  10.126  0.2163 -0.3941  1.2548
  255MOL0     H34422   8.889   1.707  10.025  1.5633  3.6812  0.8300
  255MOL0     H34423   8.503   1.924   9.953 -2.7624 -2.0925  4.0568
  255MOL0     H34424   9.035   1.965  10.621  0.6337  0.6031 -0.0283
  255MOL0     H34425   9.113   2.033  10.831  0.4148  0.0795  0.6213
  256MOL0     O34426   0.932   8.720   8.048 -0.2820 -0.7079  0.3499
  256MOL0     C34427   1.014   8.719   7.963  0.5001  0.3480  0.4186
  256MOL0     O34428   1.080   8.600   7.921  0.5059  0.6928  0.4761
  256MOL0     C34429   1.053   8.482   7.989 -0.1279 -0.0406 -0.7459
  256MOL0     C34430   1.024   8.371   7.909  0.1463  0.4740  0.2659
  256MOL0     C34431   1.009   8.241   7.971 -1.0566 -0.1511  1.1012
  256MOL0     C34432   1.023   8.223   8.103 -0.3448  0.1406  0.0087
  256MOL0     O34433   1.031   8.091   8.145  0.1662  0.5226  0.7450
  256MOL0     C34434   0.964   8.056   8.266  0.1423 -0.0708  0.4018
  256MOL0     C34435   0.971   7.911   8.315 -0.8962  0.5870 -0.1437
  256MOL0     C34436   1.089   7.903   8.406 -0.0920  0.0749  0.0218
  256MOL0     C34437   1.148   7.758   8.408 -0.3475 -0.7206  0.5262
  256MOL0     C34438   1.061   7.667   8.484  0.5690 -1.1166 -0.0823
  256MOL0     C34439   1.117   7.519   8.491 -0.0872  0.6532 -0.7583
  256MOL0     C34440   0.994   7.432   8.544 -0.3279  0.6349 -0.2631
  256MOL0     C34441   1.046   7.282   8.599  0.5978 -0.4856 -0.0076
  256MOL0     N34442   1.118   7.208   8.504 -0.1012  0.2132 -0.1888
  256MOL0     C34443   1.069   7.125   8.403  1.0543  0.3827  0.3267
  256MOL0     C34444   1.189   7.083   8.336  0.1115  0.9777 -0.0475
  256MOL0     C34445   1.210   6.998   8.216  0.1753  0.7162 -0.3180
  256MOL0     C34446   1.078   6.948   8.140  0.2564  0.4262  0.7402
  256MOL0     C34447   1.079   6.806   8.078 -0.8886 -0.1123  0.3574
  256MOL0     C34448   1.210   6.781   8.004 -0.0685 -0.5072 -0.5489
  256MOL0     O34449   1.216   6.877   7.901  0.1993 -0.7509  0.1555
  256MOL0     C34450   1.291   6.844   7.790 -0.1363 -0.1182 -0.1651
  256MOL0     C34451   1.400   6.758   7.793 -0.8665 -0.4368  0.7947
  256MOL0     C34452   1.470   6.738   7.673  0.5666  0.4174  0.4089
  256MOL0     C34453   1.592   6.654   7.679 -0.0552 -0.1318  0.1613
  256MOL0     C34454   1.411   6.786   7.552 -0.1192 -0.0766 -0.2000
  256MOL0     C34455   1.472   6.762   7.423 -0.4934 -0.6896  0.5101
  256MOL0     O34456   1.411   6.827   7.313  0.1485 -0.1110 -0.7513
  256MOL0     C34457   1.456   6.786   7.187  0.3218  0.4309 -0.9839
  256MOL0     C34458   1.406   6.667   7.135 -0.3668 -0.8661  0.4960
  256MOL0     C34459   1.446   6.630   7.006 -0.2123  0.1212 -1.1903
  256MOL0     C34460   1.555   6.693   6.943  0.1471 -0.2776 -0.9590
  256MOL0     O34461   1.606   6.637   6.831 -0.0881 -0.2687  0.3508
  256MOL0     C34462   1.752   6.622   6.818  0.6484 -0.1874 -0.0450
  256MOL0     C34463   1.772   6.667   6.670  0.3588  0.0167  0.0142
  256MOL0     C34464   1.741   6.816   6.629  0.3526 -0.3857  0.2113
  256MOL0     C34465   1.837   6.847   6.514  0.1751 -0.4868 -0.0072
  256MOL0     C34466   1.837   6.990   6.463  0.0947 -0.2138  0.1502
  256MOL0     C34467   1.690   7.037   6.416 -0.6465  0.1225  0.7484
  256MOL0     C34468   1.631   7.138   6.512  0.4323 -0.1671  0.0417
  256MOL0     C34469   1.470   7.135   6.497 -1.1154 -0.7361 -0.5704
  256MOL0    Cl34470   1.404   6.984   6.571 -0.1005  0.1739 -0.3383
  256MOL0     C34471   1.599   6.815   6.992 -1.0316 -0.0859  0.0206
  256MOL0     C34472   1.546   6.862   7.113  0.1716 -0.8214 -0.0937
  256MOL0     O34473   1.561   6.679   7.403 -0.0759 -0.0214 -0.5425
  256MOL0     C34474   1.301   6.875   7.557 -0.5456  0.2303  0.6418
  256MOL0     C34475   1.242   6.904   7.676  0.2847 -0.8486  0.4995
  256MOL0     N34476   1.299   7.119   8.416 -0.2910  1.1631 -0.0912
  256MOL0     N34477   1.253   7.211   8.498 -0.0315 -0.3405 -0.4001
  256MOL0     C34478   1.047   8.333   8.187 -0.5483  0.9888  0.0665
  256MOL0     C34479   1.060   8.460   8.133  0.0948 -0.6841 -0.3568
  256MOL0     C34480   1.060   8.853   7.907  0.0139  0.0813 -0.5586
  256MOL0     C34481   0.987   8.968   7.915  0.4975  0.0053  0.2776
  256MOL0     C34482   1.026   9.087   7.866 -0.0519 -0.5794  0.1983
  256MOL0     C34483   1.159   9.097   7.822 -0.1853 -0.0969  0.0989
  256MOL0     O34484   1.221   9.204   7.771  0.9859  0.1598 -0.1356
  256MOL0     C34485   1.151   9.320   7.722  0.9215 -1.1140 -0.5048
  256MOL0     C34486   1.244   9.439   7.745  0.5569  0.4834  0.7603
  256MOL0     C34487   1.183   9.565   7.698 -0.3053  1.0671  0.2190
  256MOL0     C34488   1.164   9.571   7.546 -0.1565 -0.6883  0.2671
  256MOL0     C34489   1.110   9.696   7.482 -0.5911 -0.4061 -0.0722
  256MOL0     C34490   1.051   9.801   7.462  0.0464 -0.6659  0.8162
  256MOL0     C34491   1.236   8.984   7.813  0.2604  0.1142  0.1705
  256MOL0     C34492   1.188   8.864   7.847  0.4462 -0.4305 -0.4186
  256MOL0     H34493   1.002   8.380   7.804 -1.7020  0.3668  0.6187
  256MOL0     H34494   0.988   8.151   7.914 -1.1158 -0.1443  1.1127
  256MOL0     H34495   1.000   8.124   8.343  4.3944 -1.1906 -0.3663
  256MOL0     H34496   0.855   8.063   8.254  0.2684 -0.2836 -1.0029
  256MOL0     H34497   0.878   7.889   8.369 -1.7835  3.2359 -0.4422
  256MOL0     H34498   0.976   7.850   8.224 -2.3451  0.8620 -0.4340
  256MOL0     H34499   1.169   7.965   8.364 -0.3603 -0.6396 -1.5745
  256MOL0     H34500   1.054   7.939   8.503  0.3512 -0.0167  0.2227
  256MOL0     H34501   1.152   7.721   8.306 -0.8714  1.2415 -0.2702
  256MOL0     H34502   1.250   7.760   8.448 -0.2345  1.0295  0.2311
  256MOL0     H34503   1.050   7.719   8.579 -1.4676  0.2031 -0.9672
  256MOL0     H34504   0.958   7.668   8.448 -0.7088  1.2391  3.2343
  256MOL0     H34505   1.129   7.498   8.384 -0.7153  1.7651 -1.0660
  256MOL0     H34506   1.212   7.511   8.545 -0.5545  1.0940  0.1639
  256MOL0     H34507   0.943   7.473   8.631 -2.2709  0.4211 -1.2549
  256MOL0     H34508   0.914   7.411   8.473 -0.3092  2.4849 -0.8919
  256MOL0     H34509   0.960   7.218   8.620 -2.1259  1.1988 -4.5367
  256MOL0     H34510   1.112   7.306   8.683  1.8599  2.5490 -1.6907
  256MOL0     H34511   0.967   7.090   8.396  1.2898 -0.6082  1.4999
  256MOL0     H34512   1.284   7.046   8.151  0.6587 -0.9209 -1.0272
  256MOL0     H34513   1.261   6.908   8.251  0.6374  1.1395  0.0998
  256MOL0     H34514   1.066   7.025   8.063  0.7371 -1.2578 -1.0858
  256MOL0     H34515   0.991   6.956   8.205  0.0348  2.6685  0.2615
  256MOL0     H34516   0.986   6.791   8.023 -1.4784  0.7670  1.0889
  256MOL0     H34517   1.082   6.738   8.163 -1.4619 -0.9515 -0.2846
  256MOL0     H34518   1.209   6.677   7.970  0.8567 -1.3709  1.8708
  256MOL0     H34519   1.298   6.783   8.068 -1.3191  0.4501  1.2263
  256MOL0     H34520   1.429   6.693   7.874 -2.7669 -2.2910  0.0874
  256MOL0     H34521   1.586   6.563   7.617 -3.2326 -0.4926  0.8443
  256MOL0     H34522   1.685   6.710   7.664  0.7658 -2.0543 -2.8231
  256MOL0     H34523   1.590   6.606   7.778  2.0476  2.1343  1.3992
  256MOL0     H34524   1.329   6.606   7.182  0.9549 -1.5138  1.9322
  256MOL0     H34525   1.410   6.532   6.973  2.3978 -2.0719  1.8867
  256MOL0     H34526   1.796   6.687   6.894 -0.2950  1.2353 -0.6709
  256MOL0     H34527   1.791   6.521   6.810 -0.1522 -0.3724 -2.2420
  256MOL0     H34528   1.878   6.649   6.651  0.0819  0.8001 -2.7036
  256MOL0     H34529   1.728   6.598   6.598 -1.4502  0.8675  0.2595
  256MOL0     H34530   1.754   6.896   6.702  2.3179 -0.0793 -0.4065
  256MOL0     H34531   1.633   6.822   6.613  0.1512 -3.0218  0.0505
  256MOL0     H34532   1.937   6.829   6.554 -0.1398 -1.0318  0.5514
  256MOL0     H34533   1.819   6.789   6.423  0.3262  0.9074 -0.9495
  256MOL0     H34534   1.904   6.984   6.377  1.7738 -0.7777  1.4425
  256MOL0     H34535   1.875   7.064   6.535 -2.0240  0.5334  0.5564
  256MOL0     H34536   1.704   7.080   6.316 -2.2915  1.3582  1.0111
  256MOL0     H34537   1.623   6.952   6.398 -0.3778 -0.5599  2.7217
  256MOL0     H34538   1.671   7.238   6.491  0.5380  0.0861  1.4033
  256MOL0     H34539   1.659   7.090   6.606 -1.6040 -1.4774  0.0375
  256MOL0     H34540   1.432   7.166   6.399 -2.4118  1.8080  0.6435
  256MOL0     H34541   1.439   7.220   6.558 -0.9012 -1.3658  0.4317
  256MOL0     H34542   1.667   6.880   6.939  0.7869 -0.9510  1.1656
  256MOL0     H34543   1.582   6.958   7.150 -0.7526 -0.6777  0.4678
  256MOL0     H34544   1.262   6.934   7.475  1.5023  0.5531 -0.1607
  256MOL0     H34545   1.169   6.984   7.682  0.5276 -0.5435 -0.4473
  256MOL0     H34546   1.064   8.319   8.294  1.7540 -1.3296 -0.5027
  256MOL0     H34547   1.094   8.541   8.197  5.0099 -2.2566 -0.5566
  256MOL0     H34548   0.884   8.970   7.949 -0.2107  6.7680 -0.9001
  256MOL0     H34549   0.967   9.178   7.859  1.8357  0.6556 -0.7322
  256MOL0     H34550   1.116   9.296   7.621  0.1612  2.6380 -1.2962
  256MOL0     H34551   1.062   9.349   7.779 -1.1638 -3.3359 -2.4337
  256MOL0     H34552   1.341   9.413   7.702 -0.0295 -0.2116 -0.1934
  256MOL0     H34553   1.274   9.452   7.849  1.8865  2.0384  0.2257
  256MOL0     H34554   1.240   9.647   7.741  0.4360  3.0208 -3.9506
  256MOL0     H34555   1.083   9.589   7.735  0.3034  3.5230  0.4615
  256MOL0     H34556   1.090   9.495   7.519  0.4514 -1.5002  0.8351
  256MOL0     H34557   1.255   9.544   7.492 -0.0156  1.9232 -0.9785
  256MOL0     H34558   0.975   9.876   7.453 -1.8392 -2.3616  1.8568
  256MOL0     H34559   1.334   8.988   7.766  0.7253  0.7935  1.1658
  256MOL0     H34560   1.231   8.766   7.831  2.6336  0.5945 -1.2714
  257MOL0     O34561   4.534   6.233   2.474  0.3753 -0.5269  0.1196
  257MOL0     C34562   4.424   6.289   2.466 -0.4923  1.1210 -0.5414
  257MOL0     O34563   4.406   6.405   2.410  0.2339  0.2642 -0.0071
  257MOL0     C34564   4.510   6.461   2.345 -0.5330 -0.0441  0.3619
  257MOL0     C34565   4.606   6.399   2.265  0.1262  0.0480  0.3585
  257MOL0     C34566   4.715   6.475   2.204 -0.1066 -0.2776 -0.1592
  257MOL0     C34567   4.715   6.614   2.212 -0.6896  0.3426 -0.0360
  257MOL0     O34568   4.818   6.675   2.142  0.5716  0.3209  0.4054
  257MOL0     C34569   4.764   6.735   2.026  0.3440  0.5286  0.0543
  257MOL0     C34570   4.887   6.766   1.937  0.1851  0.6050  0.2905
  257MOL0     C34571   4.845   6.865   1.833 -0.3676  1.5187 -0.4103
  257MOL0     C34572   4.934   6.845   1.705 -0.1922  0.6344 -0.3404
  257MOL0     C34573   5.074   6.914   1.709 -0.0236 -0.3734 -0.0120
  257MOL0     C34574   5.162   6.873   1.593  0.1655  0.9038  0.2028
  257MOL0     C34575   5.134   6.960   1.476  0.3147 -0.2288 -0.0940
  257MOL0     C34576   5.177   7.112   1.485 -0.1694  0.5679 -0.8327
  257MOL0     N34577   5.144   7.195   1.365 -0.3192  0.0342 -0.6022
  257MOL0     C34578   5.061   7.304   1.355 -0.5831  0.8631 -0.1262
  257MOL0     C34579   5.086   7.362   1.235  1.0672 -0.0956 -0.3385
  257MOL0     C34580   5.003   7.476   1.176  0.3169  0.5945  0.5632
  257MOL0     C34581   5.085   7.589   1.111  0.3886  0.2354 -0.3222
  257MOL0     C34582   4.996   7.713   1.088  0.3725  0.9811 -1.3522
  257MOL0     C34583   4.861   7.702   1.010 -0.2382  0.4796 -0.4494
  257MOL0     O34584   4.775   7.603   1.078 -0.4497 -0.2695  0.3311
  257MOL0     C34585   4.650   7.591   1.026 -0.5129 -0.7316  0.3186
  257MOL0     C34586   4.611   7.652   0.905 -0.4204 -0.4881 -0.2883
  257MOL0     C34587   4.483   7.645   0.852  0.2702  0.1942 -0.3665
  257MOL0     C34588   4.459   7.732   0.730 -0.3834  0.7511 -0.4825
  257MOL0     C34589   4.379   7.581   0.912 -0.1227 -0.8709 -0.2071
  257MOL0     C34590   4.234   7.579   0.863 -0.2746  0.0659 -0.7194
  257MOL0     O34591   4.150   7.492   0.929 -0.3305 -0.0394  0.6108
  257MOL0     C34592   4.037   7.451   0.873  0.4699  0.1543 -1.2778
  257MOL0     C34593   3.983   7.332   0.922  0.2052 -0.5847 -0.3509
  257MOL0     C34594   3.861   7.281   0.874  0.1573  0.7523  0.0070
  257MOL0     C34595   3.786   7.344   0.769 -0.2103  0.7000 -0.5864
  257MOL0     O34596   3.668   7.277   0.724 -0.3041 -0.5514 -0.5393
  257MOL0     C34597   3.589   7.220   0.835  0.6176  0.0891  0.1910
  257MOL0     C34598   3.599   7.070   0.864  0.3813 -0.4901 -0.0441
  257MOL0     C34599   3.501   6.975   0.799  0.3143  0.5726  0.1367
  257MOL0     C34600   3.383   6.981   0.892  0.8245 -0.5348  0.2860
  257MOL0     C34601   3.257   6.904   0.845 -0.9862  1.2497 -0.2279
  257MOL0     C34602   3.193   6.837   0.971  0.4836 -0.0939 -0.0431
  257MOL0     C34603   3.085   6.746   0.914 -0.5770 -0.1279 -0.5913
  257MOL0     C34604   3.033   6.649   1.022  0.4238 -0.3324  0.5806
  257MOL0    Cl34605   3.162   6.567   1.121  0.2360 -0.4187  0.4751
  257MOL0     C34606   3.832   7.465   0.726 -0.4740 -0.2534 -0.0822
  257MOL0     C34607   3.954   7.518   0.775  0.6690  0.4763 -0.4923
  257MOL0     O34608   4.188   7.684   0.807 -0.3312 -0.5886 -0.6176
  257MOL0     C34609   4.417   7.512   1.028 -0.9245 -0.5575  0.3655
  257MOL0     C34610   4.545   7.519   1.084  1.1492 -0.4461  0.0082
  257MOL0     N34611   5.186   7.282   1.171 -0.3182 -0.0185  0.5273
  257MOL0     N34612   5.220   7.194   1.250  0.2080  0.7467  1.0313
  257MOL0     C34613   4.624   6.674   2.295  0.2545 -0.6871  0.2597
  257MOL0     C34614   4.521   6.603   2.363 -0.3260 -0.2556 -0.3923
  257MOL0     C34615   4.305   6.218   2.508  0.3652 -0.2273 -0.2735
  257MOL0     C34616   4.322   6.099   2.580 -0.0180  0.1434  0.2666
  257MOL0     C34617   4.209   6.041   2.642 -0.1194 -0.2887  0.2751
  257MOL0     C34618   4.081   6.088   2.623  0.1141 -0.1933 -0.6788
  257MOL0     O34619   3.972   6.007   2.666 -0.4960  0.4326 -0.1005
  257MOL0     C34620   3.840   6.052   2.665 -0.0373  0.1342  1.0040
  257MOL0     C34621   3.736   5.942   2.687 -0.7144  0.6163 -0.1684
  257MOL0     C34622   3.589   5.989   2.667 -0.2771 -0.5172  0.8300
  257MOL0     C34623   3.514   6.013   2.794 -0.0863 -0.8811 -0.5267
  257MOL0     C34624   3.577   6.131   2.849  0.3432 -0.4598 -0.8916
  257MOL0     C34625   3.606   6.233   2.905 -0.7457  0.2439  0.5368
  257MOL0     C34626   4.063   6.200   2.541 -0.4192 -0.1845  0.4914
  257MOL0     C34627   4.176   6.261   2.478  0.4122 -0.0833  0.0389
  257MOL0     H34628   4.587   6.294   2.245 -1.4092  0.2259  0.7594
  257MOL0     H34629   4.791   6.430   2.141  1.4783  2.5513 -0.4420
  257MOL0     H34630   4.690   6.676   1.972  1.5625 -2.8030  1.7470
  257MOL0     H34631   4.715   6.827   2.058  0.4672  0.0584  1.6623
  257MOL0     H34632   4.977   6.802   1.986 -0.1395  2.5017 -0.4053
  257MOL0     H34633   4.907   6.670   1.889 -2.0152 -0.6555  1.7036
  257MOL0     H34634   4.741   6.848   1.803 -0.3536  0.1902  0.1834
  257MOL0     H34635   4.860   6.967   1.868 -1.4066  1.3266  0.6597
  257MOL0     H34636   4.954   6.740   1.686  0.8356  0.7930 -0.2369
  257MOL0     H34637   4.890   6.896   1.618  2.5133  2.5205 -0.7574
  257MOL0     H34638   5.063   7.018   1.740 -0.9691 -0.6975  0.8264
  257MOL0     H34639   5.116   6.873   1.801 -2.3571 -3.1640 -0.0482
  257MOL0     H34640   5.266   6.890   1.621 -0.0023 -1.5152  2.7075
  257MOL0     H34641   5.159   6.767   1.564  3.3681  0.2802  1.7221
  257MOL0     H34642   5.191   6.925   1.389 -1.0258 -0.1074 -1.0531
  257MOL0     H34643   5.031   6.953   1.438  0.4463 -0.7529 -0.3606
  257MOL0     H34644   5.286   7.115   1.493 -0.3300  0.1444  4.4283
  257MOL0     H34645   5.140   7.160   1.575 -0.8946  2.4772 -2.0922
  257MOL0     H34646   4.989   7.327   1.433 -1.1649  2.1009 -1.0039
  257MOL0     H34647   4.948   7.433   1.092  0.1585  1.1764  0.3638
  257MOL0     H34648   4.937   7.512   1.256  1.5995  0.3023  1.7879
  257MOL0     H34649   5.113   7.565   1.008  0.6451  2.9576 -0.9628
  257MOL0     H34650   5.172   7.617   1.171  0.3033  1.9978 -0.9667
  257MOL0     H34651   5.063   7.785   1.040 -0.2492  4.2863  2.2235
  257MOL0     H34652   4.964   7.752   1.186  2.7575  0.6993 -0.3854
  257MOL0     H34653   4.881   7.684   0.904 -2.2056 -0.3103 -0.7206
  257MOL0     H34654   4.816   7.800   1.027  2.9090  2.1509 -1.0322
  257MOL0     H34655   4.676   7.704   0.836 -0.3727 -0.6721 -0.3809
  257MOL0     H34656   4.465   7.833   0.771 -4.6885  1.0245  0.0052
  257MOL0     H34657   4.542   7.707   0.663  1.1348 -0.3525  1.7118
  257MOL0     H34658   4.367   7.717   0.672  0.5363 -2.3978 -1.3339
  257MOL0     H34659   4.040   7.279   0.998 -0.6026  1.0920  1.4862
  257MOL0     H34660   3.826   7.188   0.917  1.8693 -1.6343 -3.2331
  257MOL0     H34661   3.618   7.270   0.928  3.3701  1.5988 -1.3411
  257MOL0     H34662   3.485   7.251   0.816  0.4759 -0.0458  0.7385
  257MOL0     H34663   3.686   7.041   0.805 -2.8392 -3.4537 -3.9750
  257MOL0     H34664   3.610   7.040   0.968  0.2417 -2.9599 -0.6557
  257MOL0     H34665   3.541   6.874   0.782 -0.3422 -0.0426  2.0228
  257MOL0     H34666   3.469   7.020   0.705  0.6021 -0.7582 -0.6344
  257MOL0     H34667   3.415   6.953   0.992 -1.9703 -0.4925  1.2831
  257MOL0     H34668   3.338   7.081   0.897  0.3149 -0.5364 -2.4160
  257MOL0     H34669   3.293   6.830   0.773 -1.8791 -0.2976  0.8614
  257MOL0     H34670   3.181   6.972   0.805 -3.3014  0.8211  3.0668
  257MOL0     H34671   3.256   6.776   1.037 -3.4400 -2.7211  1.6420
  257MOL0     H34672   3.146   6.919   1.026 -0.8897  2.0658 -3.9971
  257MOL0     H34673   3.135   6.697   0.830 -0.4752  0.7936 -1.0850
  257MOL0     H34674   3.005   6.809   0.876 -0.5084  0.1639 -0.2590
  257MOL0     H34675   2.971   6.573   0.976  0.0210 -2.2414  3.9230
  257MOL0     H34676   2.968   6.707   1.088 -1.2477 -0.8866 -0.5414
  257MOL0     H34677   3.767   7.514   0.654  0.3618 -0.1726 -0.8057
  257MOL0     H34678   3.980   7.616   0.738 -0.7007 -0.0652 -3.1423
  257MOL0     H34679   4.340   7.477   1.095  0.5502 -0.1382  2.3794
  257MOL0     H34680   4.556   7.473   1.181 -1.3193  1.2063  1.1648
  257MOL0     H34681   4.624   6.781   2.316  0.8324 -1.3171  4.1632
  257MOL0     H34682   4.433   6.648   2.408 -0.1955  1.1517 -1.4726
  257MOL0     H34683   4.421   6.062   2.605  0.0564  1.2785  1.8202
  257MOL0     H34684   4.235   5.946   2.687  1.6023 -0.2465 -0.5238
  257MOL0     H34685   3.821   6.135   2.734  0.4356  1.4037 -0.3400
  257MOL0     H34686   3.823   6.090   2.564  1.6601 -2.2098 -0.2492
  257MOL0     H34687   3.739   5.908   2.791  0.1652 -2.1756 -1.0263
  257MOL0     H34688   3.762   5.861   2.619  0.9692  1.0351 -0.0601
  257MOL0     H34689   3.538   5.912   2.607 -3.6351  2.1422 -0.0416
  257MOL0     H34690   3.590   6.076   2.601 -0.4038 -2.3561 -1.7984
  257MOL0     H34691   3.527   5.932   2.867  4.5754  1.2940  1.4846
  257MOL0     H34692   3.418   6.061   2.775 -0.1105 -0.9627 -0.6047
  257MOL0     H34693   3.623   6.330   2.947  0.4826  1.2799 -2.1567
  257MOL0     H34694   3.972   6.258   2.546  0.1533  0.6211  1.9833
  257MOL0     H34695   4.164   6.360   2.434  2.1819 -1.5489 -4.2693
  258MOL0     O34696  10.508   1.727  10.270 -0.1009 -0.0562 -0.3964
  258MOL0     C34697  10.595   1.644  10.246  0.7121  0.4381  0.0456
  258MOL0     O34698  10.730   1.657  10.257  0.8014 -0.6800 -0.8823
  258MOL0     C34699  10.793   1.768  10.314 -1.4934  0.9852 -0.1507
  258MOL0     C34700  10.918   1.724  10.372  0.6454  0.3891  0.3618
  258MOL0     C34701  11.007   1.816  10.428 -0.5006 -0.5146 -0.5887
  258MOL0     C34702  10.965   1.951  10.440 -0.4116  1.3091  0.2443
  258MOL0     O34703  11.044   2.033  10.506 -0.0136 -0.0771  0.3068
  258MOL0     C34704  11.185   2.018  10.463  0.4484  1.1272 -0.5998
  258MOL0     C34705  11.263   2.143  10.507 -0.2494  0.3892  0.2565
  258MOL0     C34706  11.294   2.141  10.661 -0.2849  0.2930  0.3443
  258MOL0     C34707  11.405   2.043  10.690 -0.1356  0.3173 -1.0002
  258MOL0     C34708  11.439   2.066  10.837  0.2633  0.4020  0.1023
  258MOL0     C34709  11.556   1.977  10.874  0.1160  0.1817 -0.6584
  258MOL0     C34710  11.567   1.980  11.032  0.3454 -0.5764  0.8229
  258MOL0     C34711  11.435   1.927  11.103  0.3050  0.7657  0.7710
  258MOL0     N34712  11.470   1.830  11.216 -0.7736  0.1542 -0.1429
  258MOL0     C34713  11.578   1.834  11.294 -0.2370  0.2177 -1.1831
  258MOL0     C34714  11.593   1.713  11.357  0.1569  0.0325  0.1867
  258MOL0     C34715  11.703   1.680  11.450  0.5926  0.1857  0.7880
  258MOL0     C34716  11.710   1.745  11.592 -0.1295 -0.3723 -0.9594
  258MOL0     C34717  11.719   1.891  11.611  0.2182 -0.8197  0.3125
  258MOL0     C34718  11.868   1.945  11.562 -0.0798  0.2112 -0.3464
  258MOL0     O34719  11.875   1.964  11.422  0.2307  0.1521  0.2524
  258MOL0     C34720  11.885   2.096  11.396 -0.4238  0.0883  0.2928
  258MOL0     C34721  11.770   2.175  11.394  0.4530  0.3261  0.1050
  258MOL0     C34722  11.772   2.310  11.369  0.5750 -0.4378  0.7056
  258MOL0     C34723  11.646   2.382  11.385  0.0373  0.0711  0.1515
  258MOL0     C34724  11.899   2.372  11.338  0.0093 -0.3966  0.9155
  258MOL0     C34725  11.924   2.510  11.302 -0.1546 -0.7901  1.0883
  258MOL0     O34726  11.845   2.593  11.379 -0.5258  0.2352 -0.3110
  258MOL0     C34727  11.907   2.713  11.409  0.7384  0.0076  0.0061
  258MOL0     C34728  11.863   2.816  11.325  0.4057 -0.2696 -0.6287
  258MOL0     C34729  11.934   2.945  11.324  0.8690 -0.5032  0.2695
  258MOL0     C34730  12.032   2.968  11.417  0.8212 -0.6431  0.9827
  258MOL0     O34731  12.096   3.090  11.408  0.2770  0.6145 -0.0452
  258MOL0     C34732  12.235   3.095  11.368  0.6499 -0.7205 -0.5696
  258MOL0     C34733  12.264   3.122  11.218  0.1948 -0.9164 -0.1204
  258MOL0     C34734  12.259   3.271  11.201 -0.6055  0.5822  0.3477
  258MOL0     C34735  12.287   3.316  11.056 -0.3644 -0.2046  0.6435
  258MOL0     C34736  12.236   3.454  11.014 -0.7213 -0.0175  0.7034
  258MOL0     C34737  12.289   3.558  11.100  0.5490 -0.8651 -0.2018
  258MOL0     C34738  12.441   3.556  11.107 -0.7588 -0.0525  0.2665
  258MOL0     C34739  12.499   3.673  11.183  0.7773  1.5178 -0.3428
  258MOL0    Cl34740  12.671   3.647  11.183  0.2034  0.1895  0.5407
  258MOL0     C34741  12.071   2.875  11.504  0.4256 -0.0528 -0.2667
  258MOL0     C34742  12.012   2.745  11.499  0.2262 -0.4416  0.2302
  258MOL0     O34743  12.011   2.546  11.225  0.0287  1.0752  0.2223
  258MOL0     C34744  12.014   2.291  11.336 -0.9943 -0.2062  0.7075
  258MOL0     C34745  12.005   2.157  11.362 -0.5968  0.2360  0.2082
  258MOL0     N34746  11.490   1.631  11.313 -0.2363  0.3481 -0.0354
  258MOL0     N34747  11.430   1.698  11.216  0.3460  0.7157 -0.2267
  258MOL0     C34748  10.839   1.992  10.400  0.4876 -0.0389  0.4469
  258MOL0     C34749  10.750   1.901  10.336 -0.3395 -0.4008  0.5064
  258MOL0     C34750  10.539   1.517  10.199 -0.3871 -0.3391  1.1933
  258MOL0     C34751  10.612   1.412  10.153 -0.8300 -0.3738 -0.2746
  258MOL0     C34752  10.555   1.290  10.117 -0.5032 -0.7019  0.3293
  258MOL0     C34753  10.415   1.271  10.132  0.1585  0.5381 -0.2422
  258MOL0     O34754  10.348   1.152  10.101  0.7111  0.1184 -0.3382
  258MOL0     C34755  10.432   1.028  10.107  0.1106 -0.3426  0.5245
  258MOL0     C34756  10.357   0.902  10.053  0.4345  0.4565 -0.5048
  258MOL0     C34757  10.298   0.816  10.171  0.2517  0.3098  0.3696
  258MOL0     C34758  10.172   0.741  10.130 -0.1510 -0.1243 -0.6799
  258MOL0     C34759  10.137   0.646  10.243  1.1713 -0.4556  0.8726
  258MOL0     C34760  10.091   0.575  10.334  0.0259  0.2932 -0.1685
  258MOL0     C34761  10.336   1.381  10.175 -0.3932 -0.2382  1.0367
  258MOL0     C34762  10.397   1.499  10.197  0.8622  0.5680  0.6147
  258MOL0     H34763  10.958   1.623  10.367 -0.5945 -0.0723 -1.9536
  258MOL0     H34764  11.104   1.780  10.461  0.6461 -0.2411 -3.4635
  258MOL0     H34765  11.232   1.930  10.508 -0.9617  0.3759 -0.5696
  258MOL0     H34766  11.190   2.016  10.354 -0.6997 -0.8477 -0.6506
  258MOL0     H34767  11.360   2.146  10.456 -1.1309 -1.4744 -1.7205
  258MOL0     H34768  11.206   2.234  10.486 -3.3875 -0.5995  3.5330
  258MOL0     H34769  11.326   2.237  10.701 -0.5915 -1.1878  4.5987
  258MOL0     H34770  11.198   2.123  10.711 -0.0950 -0.7492  0.3502
  258MOL0     H34771  11.384   1.938  10.667  0.6653 -0.2733  0.8101
  258MOL0     H34772  11.498   2.065  10.638 -0.2436 -2.0586 -2.3370
  258MOL0     H34773  11.464   2.172  10.850 -1.4198  1.2780 -2.7667
  258MOL0     H34774  11.349   2.047  10.896  0.4811 -0.4528  0.1774
  258MOL0     H34775  11.527   1.878  10.838 -2.8371  0.1292  1.5298
  258MOL0     H34776  11.647   2.008  10.822  2.3000 -2.9189  0.9288
  258MOL0     H34777  11.651   1.910  11.038  0.6058 -0.1878  2.0643
  258MOL0     H34778  11.597   2.076  11.075 -0.9112  1.0211 -1.5918
  258MOL0     H34779  11.366   1.886  11.028  0.3484  0.2563  1.0090
  258MOL0     H34780  11.375   2.011  11.138  0.5127  0.0303  3.0361
  258MOL0     H34781  11.648   1.916  11.308  0.8449 -0.7349 -0.8096
  258MOL0     H34782  11.685   1.573  11.466 -1.9802  0.4861  0.3589
  258MOL0     H34783  11.796   1.707  11.400 -0.1477  4.2750  1.3003
  258MOL0     H34784  11.795   1.696  11.639  1.7224  2.6045 -0.9787
  258MOL0     H34785  11.617   1.719  11.643 -0.7285  0.4891 -1.5798
  258MOL0     H34786  11.698   1.914  11.716  0.7749  1.8249 -0.0807
  258MOL0     H34787  11.644   1.945  11.552  2.8824  0.4787 -2.1517
  258MOL0     H34788  11.933   1.868  11.602 -3.1456 -0.4448  4.0382
  258MOL0     H34789  11.895   2.036  11.617 -1.0820  1.1747 -1.3790
  258MOL0     H34790  11.677   2.132  11.431  0.9720  0.2258  1.3191
  258MOL0     H34791  11.625   2.465  11.316 -1.4038 -0.2327  0.1887
  258MOL0     H34792  11.561   2.314  11.372  0.2339 -0.1424 -0.0279
  258MOL0     H34793  11.634   2.432  11.481 -1.8215  0.5342 -0.2838
  258MOL0     H34794  11.783   2.796  11.256  0.2651  0.7157 -0.7749
  258MOL0     H34795  11.892   3.033  11.276 -1.2284 -2.1467 -1.0952
  258MOL0     H34796  12.278   3.172  11.434 -1.7292  0.0337  0.1952
  258MOL0     H34797  12.278   2.999  11.398  0.7321  0.1442  2.4240
  258MOL0     H34798  12.367   3.092  11.195  0.5844 -0.1814  0.6225
  258MOL0     H34799  12.192   3.072  11.152 -1.0622  1.4901 -0.7114
  258MOL0     H34800  12.334   3.322  11.263  1.1482 -0.4387 -0.8596
  258MOL0     H34801  12.160   3.310  11.226 -0.7259  2.1428 -2.2242
  258MOL0     H34802  12.396   3.321  11.043 -0.4385 -0.8277 -0.2436
  258MOL0     H34803  12.255   3.237  10.988  0.2870  0.2039 -0.1603
  258MOL0     H34804  12.126   3.458  11.010 -0.7296 -0.7683 -1.4754
  258MOL0     H34805  12.270   3.483  10.914  1.5497  1.9577  1.9604
  258MOL0     H34806  12.266   3.657  11.060  4.9464 -0.1123 -1.3569
  258MOL0     H34807  12.238   3.551  11.196  0.8073 -2.1857 -0.1363
  258MOL0     H34808  12.484   3.554  11.007 -0.1960  2.1176  0.4222
  258MOL0     H34809  12.465   3.467  11.167  0.1827 -2.0743 -2.8990
  258MOL0     H34810  12.457   3.662  11.283  0.7701 -3.2344 -0.6721
  258MOL0     H34811  12.461   3.762  11.132 -0.2075  2.0084  1.1803
  258MOL0     H34812  12.154   2.895  11.572 -0.4049  0.7059  0.5642
  258MOL0     H34813  12.036   2.665  11.568 -0.1718  0.4642  1.4466
  258MOL0     H34814  12.112   2.334  11.319 -0.6681 -0.0779  2.6446
  258MOL0     H34815  12.093   2.094  11.357  0.5501  1.8653 -2.5995
  258MOL0     H34816  10.810   2.095  10.419  1.2465 -0.0680  1.9322
  258MOL0     H34817  10.655   1.946  10.310  0.2417 -0.2127 -1.4729
  258MOL0     H34818  10.718   1.431  10.151 -0.5788 -1.2873  1.9158
  258MOL0     H34819  10.621   1.211  10.082 -0.3396 -1.5862  2.4711
  258MOL0     H34820  10.514   1.042  10.036 -1.1817  0.2638 -0.8882
  258MOL0     H34821  10.456   1.011  10.213 -2.2905 -3.3088  0.7246
  258MOL0     H34822  10.420   0.841   9.988  0.4878  0.8419 -0.8155
  258MOL0     H34823  10.266   0.935  10.001  1.0433  4.0201  0.4398
  258MOL0     H34824  10.284   0.888  10.252  3.2173  1.9485 -0.4048
  258MOL0     H34825  10.377   0.748  10.202  1.0938  1.2170  0.2540
  258MOL0     H34826  10.178   0.691  10.033 -1.0321 -1.1446 -0.2225
  258MOL0     H34827  10.092   0.814  10.128  0.4356  0.5866  0.4961
  258MOL0     H34828  10.042   0.526  10.415 -3.1687 -0.1675 -2.1846
  258MOL0     H34829  10.228   1.385  10.189 -1.5700  4.8247 -5.0809
  258MOL0     H34830  10.346   1.592  10.221  1.1526  1.1134 -0.7536
  259MOL0     O34831   4.621   6.775   6.473 -0.4385 -0.0838 -0.2428
  259MOL0     C34832   4.541   6.682   6.498 -0.6612  0.1447 -0.1767
  259MOL0     O34833   4.557   6.582   6.594 -0.7518 -1.0693 -0.8725
  259MOL0     C34834   4.667   6.596   6.666  1.2010  0.4155 -0.0254
  259MOL0     C34835   4.651   6.646   6.793  0.1021  1.2250 -0.2414
  259MOL0     C34836   4.752   6.656   6.886  0.0996  0.0227 -0.3968
  259MOL0     C34837   4.884   6.620   6.838  0.1502 -0.7565  0.6025
  259MOL0     O34838   4.991   6.639   6.926 -0.0627 -0.3941 -0.2339
  259MOL0     C34839   5.088   6.528   6.931 -0.1213  0.5754 -0.6908
  259MOL0     C34840   5.065   6.441   7.054  0.5482 -0.3502  0.1145
  259MOL0     C34841   4.932   6.365   7.043  0.4808 -0.8646  0.2639
  259MOL0     C34842   4.932   6.241   7.140  0.2582  0.3013  0.2219
  259MOL0     C34843   4.793   6.178   7.140 -0.4960 -0.2775  0.1719
  259MOL0     C34844   4.782   6.072   7.245 -0.6230  0.6982 -0.3500
  259MOL0     C34845   4.694   5.971   7.181 -0.2302 -0.1928 -0.8318
  259MOL0     C34846   4.663   5.851   7.281 -0.1948 -0.9448 -0.3693
  259MOL0     N34847   4.582   5.899   7.395 -0.0103  0.1491  0.5088
  259MOL0     C34848   4.450   5.931   7.405  0.2403 -0.3560 -0.0695
  259MOL0     C34849   4.437   6.002   7.519  0.7666 -0.6551 -0.2108
  259MOL0     C34850   4.307   6.074   7.552  0.1705 -0.5949 -0.3488
  259MOL0     C34851   4.304   6.142   7.693 -0.8673  1.1643  0.1635
  259MOL0     C34852   4.394   6.272   7.700  0.1192 -0.3726  0.3298
  259MOL0     C34853   4.348   6.389   7.614 -0.6107  0.1643  1.1812
  259MOL0     O34854   4.413   6.506   7.666  0.2879  0.0376  0.2829
  259MOL0     C34855   4.531   6.558   7.622  0.0388 -0.1596  0.8727
  259MOL0     C34856   4.608   6.495   7.516  0.5957  0.0736 -0.5061
  259MOL0     C34857   4.708   6.566   7.446  0.1492  0.1726  0.3701
  259MOL0     C34858   4.771   6.486   7.333 -0.1289 -0.4025  0.4009
  259MOL0     C34859   4.738   6.699   7.490 -0.9489 -0.0678  0.2817
  259MOL0     C34860   4.851   6.780   7.433 -0.9479  0.0764  0.3551
  259MOL0     O34861   4.850   6.909   7.461 -0.6821  1.0245  0.4279
  259MOL0     C34862   4.928   6.994   7.381  0.3343  0.0141 -0.4457
  259MOL0     C34863   4.998   7.095   7.435 -0.1509  0.6897  0.0613
  259MOL0     C34864   5.083   7.176   7.367  0.1680  0.0073 -0.1572
  259MOL0     C34865   5.104   7.162   7.227  0.6275 -0.6848  0.2498
  259MOL0     O34866   5.187   7.249   7.156  0.0553  0.5783  0.2190
  259MOL0     C34867   5.159   7.386   7.165 -0.8225 -0.2855  0.1353
  259MOL0     C34868   5.249   7.461   7.265 -1.0841  0.5613 -0.0664
  259MOL0     C34869   5.392   7.468   7.204  1.2662  0.1227 -0.5316
  259MOL0     C34870   5.405   7.612   7.150 -0.4876 -0.4122 -0.5423
  259MOL0     C34871   5.543   7.621   7.092 -0.1067 -0.7149  0.1679
  259MOL0     C34872   5.585   7.765   7.057 -0.3878 -0.3863 -0.1071
  259MOL0     C34873   5.737   7.749   7.037  0.4016  0.5472 -1.0621
  259MOL0     C34874   5.791   7.885   6.995 -0.7599  0.3424 -1.3837
  259MOL0    Cl34875   5.964   7.840   6.963  0.1455 -0.0649  0.8200
  259MOL0     C34876   5.028   7.062   7.166 -0.7097  0.5394  0.4296
  259MOL0     C34877   4.939   6.982   7.245  0.1235  0.0494  0.3234
  259MOL0     O34878   4.947   6.721   7.373  0.0517  0.3198 -0.2976
  259MOL0     C34879   4.661   6.755   7.588  0.0696  0.6478 -0.8803
  259MOL0     C34880   4.569   6.685   7.668  0.1687 -0.4192 -0.6647
  259MOL0     N34881   4.559   6.012   7.581  0.0195 -0.5094 -0.2161
  259MOL0     N34882   4.641   5.937   7.514 -0.1603 -0.2790 -0.2817
  259MOL0     C34883   4.901   6.574   6.709  0.9477  0.2477  0.2237
  259MOL0     C34884   4.790   6.554   6.624 -0.5526  0.6694  0.2185
  259MOL0     C34885   4.426   6.666   6.410 -0.9623 -0.0647  0.2301
  259MOL0     C34886   4.321   6.584   6.452  0.6111  0.2457  0.1170
  259MOL0     C34887   4.205   6.580   6.372  0.2357 -0.4681 -0.3054
  259MOL0     C34888   4.207   6.636   6.247  0.2399  1.1992 -0.3511
  259MOL0     O34889   4.099   6.611   6.151 -0.7517  0.1239 -0.0630
  259MOL0     C34890   3.971   6.561   6.189 -0.4402  0.1434 -0.7909
  259MOL0     C34891   3.974   6.409   6.176 -0.7514  0.2706  0.8164
  259MOL0     C34892   3.923   6.389   6.038  0.3038  0.4985 -0.0944
  259MOL0     C34893   3.924   6.246   5.994  0.2260  0.6988  0.6122
  259MOL0     C34894   3.942   6.236   5.844  0.5507  1.0105  0.6609
  259MOL0     C34895   3.934   6.230   5.722 -0.1001  0.2073  0.1943
  259MOL0     C34896   4.313   6.712   6.195 -0.3040 -0.7971 -0.3270
  259MOL0     C34897   4.417   6.731   6.282  0.1672 -0.4111  0.2962
  259MOL0     H34898   4.548   6.662   6.825  0.0030  0.4712 -0.1592
  259MOL0     H34899   4.727   6.681   6.988  2.9989 -1.9318  0.9251
  259MOL0     H34900   5.089   6.458   6.846 -2.5303 -1.3576  0.7304
  259MOL0     H34901   5.186   6.573   6.945 -0.2936  0.6115  0.5027
  259MOL0     H34902   5.141   6.362   7.055 -1.6085 -2.6140  2.2497
  259MOL0     H34903   5.061   6.499   7.146 -4.4237  2.7600 -1.6300
  259MOL0     H34904   4.848   6.434   7.050 -0.7836 -2.1188 -1.5247
  259MOL0     H34905   4.928   6.327   6.941  1.7581  0.4126 -0.2829
  259MOL0     H34906   5.006   6.171   7.099  0.4791  1.3033 -1.1725
  259MOL0     H34907   4.948   6.263   7.246 -0.3341  4.5640 -0.3996
  259MOL0     H34908   4.712   6.245   7.170 -0.2963 -1.2908  3.2363
  259MOL0     H34909   4.776   6.150   7.035  0.5219 -0.5083  0.0491
  259MOL0     H34910   4.882   6.032   7.263 -1.1621 -1.0760 -1.1136
  259MOL0     H34911   4.736   6.108   7.338  2.0467  1.6912  0.6710
  259MOL0     H34912   4.598   6.008   7.146 -0.9823 -0.4696  0.8702
  259MOL0     H34913   4.751   5.935   7.094  0.1063 -2.5689  0.2978
  259MOL0     H34914   4.755   5.797   7.306 -0.2841 -1.8388 -1.7979
  259MOL0     H34915   4.614   5.775   7.219 -3.1569 -0.2201  0.9230
  259MOL0     H34916   4.376   5.919   7.327  1.5134 -3.4621 -0.9618
  259MOL0     H34917   4.268   6.139   7.473 -0.4407  1.2660  1.4057
  259MOL0     H34918   4.234   5.992   7.559  3.0713 -3.2245  3.2467
  259MOL0     H34919   4.355   6.079   7.767  0.0445  0.1180 -1.3128
  259MOL0     H34920   4.197   6.159   7.708 -1.9327 -2.6047 -1.9468
  259MOL0     H34921   4.494   6.252   7.660 -0.3722  2.2118 -2.5109
  259MOL0     H34922   4.402   6.320   7.798  0.1002  0.5979 -0.1285
  259MOL0     H34923   4.241   6.393   7.595 -0.3599 -0.7038 -0.5498
  259MOL0     H34924   4.378   6.367   7.512  0.1769 -0.2386  1.4877
  259MOL0     H34925   4.583   6.395   7.483 -0.6281  0.7924 -1.9164
  259MOL0     H34926   4.857   6.438   7.381 -0.1814  0.7079  1.6396
  259MOL0     H34927   4.697   6.418   7.289 -4.0009  4.6946 -2.0127
  259MOL0     H34928   4.809   6.553   7.255  2.2235  1.4413  2.9268
  259MOL0     H34929   5.000   7.104   7.543  1.1095  2.6486 -0.0884
  259MOL0     H34930   5.130   7.253   7.426  0.6431 -1.2289  1.1262
  259MOL0     H34931   5.172   7.426   7.064  2.4456 -1.2950  0.0433
  259MOL0     H34932   5.053   7.402   7.187 -0.8576  1.8943 -1.2956
  259MOL0     H34933   5.207   7.560   7.284 -2.1690  0.3822 -1.3557
  259MOL0     H34934   5.266   7.399   7.354  2.6809 -0.6563 -1.4247
  259MOL0     H34935   5.412   7.397   7.123 -0.6971  2.2008 -3.0111
  259MOL0     H34936   5.474   7.449   7.274  2.5727  0.0979 -2.0192
  259MOL0     H34937   5.321   7.632   7.082  0.8960 -2.1737 -2.9196
  259MOL0     H34938   5.402   7.676   7.239  2.3070 -0.5011 -0.3200
  259MOL0     H34939   5.538   7.559   7.001  1.3357  0.8482 -1.0336
  259MOL0     H34940   5.625   7.594   7.159  2.7882  5.6417 -0.1604
  259MOL0     H34941   5.545   7.809   6.965  0.7727  1.6042  0.2780
  259MOL0     H34942   5.559   7.831   7.141  1.2223 -0.5304  0.5486
  259MOL0     H34943   5.751   7.672   6.960 -2.1265  0.0473 -1.1269
  259MOL0     H34944   5.781   7.727   7.135 -2.0759 -0.8984 -0.1821
  259MOL0     H34945   5.795   7.965   7.069  1.3576  2.7876 -3.9050
  259MOL0     H34946   5.749   7.929   6.904 -0.4284 -0.1747 -1.7908
  259MOL0     H34947   5.044   7.058   7.058 -1.6524  2.9033  0.1439
  259MOL0     H34948   4.896   6.898   7.192 -3.5502  1.4534  0.7666
  259MOL0     H34949   4.679   6.855   7.628  0.3337 -0.1083  0.9880
  259MOL0     H34950   4.525   6.738   7.751  0.8321  1.9288 -1.7200
  259MOL0     H34951   5.002   6.563   6.673  0.9009  1.9443 -0.5338
  259MOL0     H34952   4.802   6.501   6.530 -3.8657 -0.6030  0.3648
  259MOL0     H34953   4.338   6.530   6.544  0.8837  0.3841  0.1482
  259MOL0     H34954   4.128   6.510   6.401  0.7301 -0.2546  1.7013
  259MOL0     H34955   3.952   6.586   6.294  0.9403  0.7104 -0.6578
  259MOL0     H34956   3.890   6.610   6.133 -1.0824 -0.0127 -0.0127
  259MOL0     H34957   3.918   6.354   6.252 -0.2965 -1.3757  0.0093
  259MOL0     H34958   4.074   6.365   6.175 -0.6554  0.4642 -0.6249
  259MOL0     H34959   3.999   6.451   5.989  0.2550  0.7815  0.1819
  259MOL0     H34960   3.825   6.436   6.022 -0.5817 -1.1449  0.3091
  259MOL0     H34961   3.842   6.182   6.028  2.5850 -1.3993  2.7914
  259MOL0     H34962   4.020   6.205   6.028  0.4347 -1.3262 -2.1216
  259MOL0     H34963   3.930   6.240   5.616  2.8717 -0.0133 -0.0501
  259MOL0     H34964   4.309   6.743   6.091 -0.6029 -1.1317 -0.4194
  259MOL0     H34965   4.497   6.788   6.236 -0.4949 -1.2149 -1.9763
  260MOL0     O34966   0.175   4.036   6.202 -0.2024 -0.1121 -0.3745
  260MOL0     C34967   0.222   4.062   6.096  0.3703 -1.0977  0.2302
  260MOL0     O34968   0.297   3.976   6.014 -0.2066  0.1935  0.3075
  260MOL0     C34969   0.341   3.857   6.063  0.4500 -0.0683 -0.6801
  260MOL0     C34970   0.471   3.825   6.045 -0.8503  0.1118 -0.0962
  260MOL0     C34971   0.514   3.696   6.068  0.4150 -0.0331 -0.1549
  260MOL0     C34972   0.434   3.607   6.141 -0.2784 -0.6880 -0.0667
  260MOL0     O34973   0.484   3.482   6.162  0.3866  0.0206  0.4703
  260MOL0     C34974   0.416   3.366   6.151 -0.4897 -0.1940 -0.8957
  260MOL0     C34975   0.513   3.255   6.167  0.9319 -0.8171 -0.0820
  260MOL0     C34976   0.602   3.268   6.294 -0.0779  0.1040  0.4193
  260MOL0     C34977   0.688   3.149   6.305  0.7734  0.0037 -0.4385
  260MOL0     C34978   0.775   3.145   6.434 -0.0437  1.1655 -0.3668
  260MOL0     C34979   0.900   3.047   6.439 -0.1103  0.1553  0.6959
  260MOL0     C34980   0.888   2.921   6.344  0.1199 -0.5765 -0.2940
  260MOL0     C34981   1.013   2.841   6.327  0.1238  0.6785  0.1290
  260MOL0     N34982   1.120   2.914   6.245  0.8235  0.4091  0.2940
  260MOL0     C34983   1.097   2.987   6.130  0.1808  0.0905 -0.3189
  260MOL0     C34984   1.220   3.024   6.095 -0.3033 -0.2175 -0.2930
  260MOL0     C34985   1.263   3.102   5.972  0.0676  0.4614 -0.5593
  260MOL0     C34986   1.269   3.016   5.848 -0.2738  0.5703 -0.9344
  260MOL0     C34987   1.184   3.062   5.728  0.3155  0.5705 -0.6697
  260MOL0     C34988   1.031   3.092   5.752  1.7286  0.3542  0.3721
  260MOL0     O34989   0.982   2.993   5.843  0.5268  0.5241  0.1189
  260MOL0     C34990   0.847   3.001   5.875 -0.2829 -0.2013  0.5454
  260MOL0     C34991   0.753   3.069   5.802  0.6301 -0.4856 -0.1910
  260MOL0     C34992   0.609   3.081   5.845 -0.2157  0.1580 -0.4813
  260MOL0     C34993   0.527   3.204   5.798 -1.0026 -0.0083 -0.2507
  260MOL0     C34994   0.562   2.987   5.946 -0.2942 -0.6103 -0.2220
  260MOL0     C34995   0.416   2.961   5.985 -0.5682  1.0750  0.0037
  260MOL0     O34996   0.401   2.907   6.110  0.2236  0.7684 -0.3503
  260MOL0     C34997   0.275   2.861   6.138 -0.3094 -0.0122  0.1650
  260MOL0     C34998   0.239   2.732   6.116 -0.5304 -0.0521  0.1454
  260MOL0     C34999   0.121   2.684   6.167  0.3468  0.2053  0.8056
  260MOL0     C35000   0.023   2.762   6.221  0.1509 -0.1718  1.1476
  260MOL0     O35001  -0.108   2.727   6.232 -0.2635  0.6609 -0.5955
  260MOL0     C35002  -0.200   2.777   6.137  0.7692 -0.0575 -0.1635
  260MOL0     C35003  -0.350   2.720   6.140  0.2915  0.0235 -0.5635
  260MOL0     C35004  -0.375   2.580   6.072  0.5399 -0.8361 -0.3469
  260MOL0     C35005  -0.516   2.522   6.070  0.9967  0.6644 -0.6883
  260MOL0     C35006  -0.495   2.376   6.018  0.2699  0.7697 -0.3744
  260MOL0     C35007  -0.621   2.321   5.944  0.3707  0.4622 -0.1997
  260MOL0     C35008  -0.591   2.178   5.898  0.3126 -0.8698 -0.3406
  260MOL0     C35009  -0.713   2.120   5.817 -0.7490  0.1023 -0.1235
  260MOL0    Cl35010  -0.864   2.133   5.888 -0.4621 -0.0125 -0.4368
  260MOL0     C35011   0.051   2.897   6.238  0.2269 -0.1935  0.2595
  260MOL0     C35012   0.174   2.952   6.201 -0.6188  0.4587 -0.4593
  260MOL0     O35013   0.323   2.991   5.910  0.1354  0.5237 -0.4850
  260MOL0     C35014   0.667   2.919   6.020 -0.1943  0.2281  0.4049
  260MOL0     C35015   0.801   2.933   5.982 -0.3541  0.9017 -0.1704
  260MOL0     N35016   1.317   2.967   6.171 -0.1957  0.2812  0.0204
  260MOL0     N35017   1.256   2.909   6.269  0.1632  0.7266 -0.5170
  260MOL0     C35018   0.305   3.643   6.175 -0.2828 -0.5932  0.2066
  260MOL0     C35019   0.260   3.767   6.130  0.3711 -0.5023  0.5075
  260MOL0     C35020   0.191   4.197   6.033 -0.5050 -0.3761 -0.0386
  260MOL0     C35021   0.274   4.267   5.942  0.0861 -0.1376  0.0440
  260MOL0     C35022   0.235   4.394   5.902 -0.4323  0.2512  0.6239
  260MOL0     C35023   0.112   4.445   5.942 -0.6628 -0.7750 -0.2293
  260MOL0     O35024   0.044   4.558   5.902  0.5179 -1.4002  0.2548
  260MOL0     C35025   0.067   4.621   5.775 -0.3590 -0.4887  0.9677
  260MOL0     C35026   0.021   4.530   5.657  1.3954  0.1923 -0.1881
  260MOL0     C35027  -0.133   4.499   5.668  0.3524 -0.3246 -0.3594
  260MOL0     C35028  -0.225   4.623   5.672 -0.5430 -0.4564  0.3664
  260MOL0     C35029  -0.199   4.698   5.550  0.0265  0.2088  0.8095
  260MOL0     C35030  -0.164   4.745   5.448  0.3433 -0.2472 -0.0292
  260MOL0     C35031   0.039   4.382   6.034  0.2338 -1.3447 -0.8469
  260MOL0     C35032   0.078   4.260   6.084  0.5889 -0.5669 -0.3787
  260MOL0     H35033   0.545   3.890   6.001 -0.4517 -1.9684 -2.7432
  260MOL0     H35034   0.616   3.665   6.050  0.2957 -1.1268  0.8946
  260MOL0     H35035   0.336   3.364   6.226 -1.8171  3.2390 -2.0277
  260MOL0     H35036   0.367   3.354   6.054 -0.0302 -4.3680 -0.8012
  260MOL0     H35037   0.454   3.164   6.181 -0.3036 -0.0275  0.0149
  260MOL0     H35038   0.572   3.240   6.076 -0.6577 -0.0817 -1.2900
  260MOL0     H35039   0.666   3.354   6.275 -0.3135 -0.2000 -2.0925
  260MOL0     H35040   0.535   3.274   6.380 -0.7515 -0.3084 -0.0680
  260MOL0     H35041   0.634   3.054   6.311 -2.7621  1.8915 -0.0455
  260MOL0     H35042   0.747   3.157   6.213  1.9153  2.9339  0.4475
  260MOL0     H35043   0.821   3.242   6.455  0.5715  0.8646 -0.2952
  260MOL0     H35044   0.703   3.117   6.512  0.5440 -1.5517 -0.7030
  260MOL0     H35045   0.991   3.099   6.408 -0.8347  0.4527 -1.0819
  260MOL0     H35046   0.928   3.010   6.538 -0.6973  0.2187  0.8929
  260MOL0     H35047   0.819   2.840   6.371  0.6690 -0.7801  0.5628
  260MOL0     H35048   0.876   2.961   6.243 -1.7084  2.3582  0.9336
  260MOL0     H35049   0.982   2.753   6.269 -0.1272 -0.0140  1.2703
  260MOL0     H35050   1.056   2.797   6.418  0.7673  1.5696  0.2728
  260MOL0     H35051   1.002   3.018   6.088  1.2117 -1.3266 -4.0826
  260MOL0     H35052   1.185   3.179   5.966  0.1665  0.6681  0.5908
  260MOL0     H35053   1.363   3.142   5.991  0.0939  0.1242  0.0080
  260MOL0     H35054   1.244   2.910   5.860  0.4307 -0.0270 -4.0584
  260MOL0     H35055   1.374   3.005   5.821 -0.9023 -1.1673 -2.9503
  260MOL0     H35056   1.194   2.974   5.664  0.5883  0.8558 -1.0219
  260MOL0     H35057   1.231   3.141   5.668  1.6582 -2.6701 -4.3762
  260MOL0     H35058   0.967   3.092   5.664  0.1536 -1.2964  1.4513
  260MOL0     H35059   1.028   3.189   5.803  1.9863  0.8227 -0.4857
  260MOL0     H35060   0.787   3.128   5.718  1.9751  0.1937  0.8028
  260MOL0     H35061   0.425   3.186   5.832 -1.5964  1.1239 -1.3712
  260MOL0     H35062   0.583   3.294   5.822  0.4823  0.1403 -3.7118
  260MOL0     H35063   0.524   3.202   5.688 -1.7584  2.7072 -0.3312
  260MOL0     H35064   0.300   2.660   6.062 -0.3424  0.6179 -0.5591
  260MOL0     H35065   0.086   2.585   6.139 -1.3743  0.4372  1.9875
  260MOL0     H35066  -0.206   2.886   6.139  0.8129 -0.0156 -1.4056
  260MOL0     H35067  -0.166   2.768   6.034  2.0066  3.6999 -0.2308
  260MOL0     H35068  -0.383   2.702   6.243 -2.6456  1.2074 -1.2001
  260MOL0     H35069  -0.420   2.796   6.103  1.7481  1.7149 -0.0027
  260MOL0     H35070  -0.300   2.509   6.106  0.3672 -1.4600 -1.2216
  260MOL0     H35071  -0.349   2.612   5.970  1.9983  0.1874  0.3176
  260MOL0     H35072  -0.557   2.515   6.171  3.0208 -1.5445  0.0901
  260MOL0     H35073  -0.572   2.573   5.991  2.0349  2.6334 -0.2187
  260MOL0     H35074  -0.472   2.312   6.104  0.5690 -0.5781 -1.4240
  260MOL0     H35075  -0.401   2.379   5.962  1.3808  2.7251  1.4388
  260MOL0     H35076  -0.711   2.323   6.006  0.6002  2.7249  0.1412
  260MOL0     H35077  -0.652   2.386   5.861 -5.7029  0.7589  1.7720
  260MOL0     H35078  -0.588   2.114   5.986 -4.4818  0.7901  1.3877
  260MOL0     H35079  -0.497   2.172   5.844 -1.1173  0.7613 -3.2729
  260MOL0     H35080  -0.684   2.017   5.797  2.3147  0.8722 -0.0881
  260MOL0     H35081  -0.713   2.168   5.719  1.7802 -1.7195 -1.1149
  260MOL0     H35082  -0.016   2.970   6.280 -0.4776 -1.3258  1.1518
  260MOL0     H35083   0.194   3.058   6.204  2.9345 -0.0938  3.1257
  260MOL0     H35084   0.636   2.870   6.111  1.7138  3.0576  2.7811
  260MOL0     H35085   0.865   2.871   6.043  0.0248 -0.8726 -2.2233
  260MOL0     H35086   0.235   3.578   6.228 -5.0578  1.9608 -2.2998
  260MOL0     H35087   0.156   3.793   6.151 -0.4227 -1.1620 -2.2058
  260MOL0     H35088   0.364   4.217   5.908  0.1259 -0.0730  0.0533
  260MOL0     H35089   0.283   4.458   5.828 -0.4859  1.2364  1.4285
  260MOL0     H35090   0.020   4.719   5.767  2.3622  0.8739  0.7307
  260MOL0     H35091   0.174   4.640   5.767 -0.6169  1.1014  0.9291
  260MOL0     H35092   0.085   4.442   5.653 -0.2127 -0.9923 -0.9081
  260MOL0     H35093   0.045   4.593   5.571 -0.2726 -2.1366 -2.5107
  260MOL0     H35094  -0.151   4.448   5.763 -0.6350 -0.6990 -0.7281
  260MOL0     H35095  -0.160   4.436   5.582  2.7139  0.2267 -1.5872
  260MOL0     H35096  -0.192   4.679   5.760  2.0174  2.6554 -2.3194
  260MOL0     H35097  -0.328   4.593   5.691 -1.1624  1.9224  1.0631
  260MOL0     H35098  -0.122   4.798   5.364  0.7391  1.0837  0.9778
  260MOL0     H35099  -0.056   4.426   6.060  1.3048 -1.2709  3.6956
  260MOL0     H35100   0.026   4.214   6.167  2.0550 -4.7011 -1.4923
  261MOL0     O35101   9.824   0.354   0.988  0.1577 -0.6404 -0.7101
  261MOL0     C35102   9.823   0.243   0.936  0.4101  0.2234 -0.6534
  261MOL0     O35103   9.889   0.135   0.984 -0.0862  0.2837  0.1079
  261MOL0     C35104   9.975   0.141   1.094  1.0303  0.4660 -0.1043
  261MOL0     C35105  10.101   0.081   1.084 -1.0286  0.5755 -0.1283
  261MOL0     C35106  10.197   0.074   1.186  0.2544 -0.4239 -0.0454
  261MOL0     C35107  10.163   0.124   1.309  0.3518 -0.7190 -0.2210
  261MOL0     O35108  10.241   0.117   1.425 -0.0259  0.6456  0.5196
  261MOL0     C35109  10.358   0.024   1.425  0.0827  0.0114  0.2108
  261MOL0     C35110  10.427   0.017   1.565 -0.4397 -0.5070 -0.1954
  261MOL0     C35111  10.330  -0.046   1.665 -0.1094  0.1654  0.3827
  261MOL0     C35112  10.377  -0.040   1.811  0.3363 -0.1151 -0.0982
  261MOL0     C35113  10.518  -0.097   1.830  0.1849 -0.1494  0.5821
  261MOL0     C35114  10.563  -0.113   1.975  0.5631  0.6382  0.5377
  261MOL0     C35115  10.713  -0.158   1.994 -0.4210 -0.2018  0.2545
  261MOL0     C35116  10.747  -0.206   2.133  0.0481  0.1280  0.4366
  261MOL0     N35117  10.883  -0.259   2.156 -0.1379  0.7729 -0.2604
  261MOL0     C35118  11.003  -0.196   2.160  0.1540 -0.7581  0.4879
  261MOL0     C35119  11.087  -0.283   2.194 -0.4082  0.6125  0.2633
  261MOL0     C35120  11.233  -0.248   2.217 -0.6826  0.6094  0.4999
  261MOL0     C35121  11.314  -0.236   2.085 -0.5261  0.3660  1.0404
  261MOL0     C35122  11.315  -0.364   1.994  0.7668 -0.0624  0.1563
  261MOL0     C35123  11.372  -0.494   2.071 -0.4261  0.2584  0.2189
  261MOL0     O35124  11.504  -0.477   2.118 -0.1027 -0.8282 -0.5662
  261MOL0     C35125  11.605  -0.448   2.028 -0.2249 -0.3838  0.6243
  261MOL0     C35126  11.596  -0.458   1.883  0.4578  0.5825 -0.0072
  261MOL0     C35127  11.695  -0.417   1.794  0.0060 -0.6887  0.2545
  261MOL0     C35128  11.672  -0.420   1.640  0.2592 -0.5825 -0.4187
  261MOL0     C35129  11.817  -0.361   1.847 -1.0226  0.0722 -1.2971
  261MOL0     C35130  11.927  -0.314   1.770  0.7351 -0.2087  1.7071
  261MOL0     O35131  11.991  -0.411   1.681 -0.4333 -0.5126 -0.3053
  261MOL0     C35132  12.058  -0.365   1.568 -0.1955  0.3514 -0.4903
  261MOL0     C35133  12.128  -0.467   1.496 -0.2726 -0.3117  0.2806
  261MOL0     C35134  12.179  -0.440   1.364  0.2278 -0.3414 -1.1906
  261MOL0     C35135  12.164  -0.314   1.310 -0.0331 -0.9005  0.8798
  261MOL0     O35136  12.227  -0.269   1.191  0.1679  0.3296  0.1135
  261MOL0     C35137  12.368  -0.306   1.195  0.0152  0.4135 -0.3685
  261MOL0     C35138  12.398  -0.412   1.082 -0.4453 -0.5274 -0.5650
  261MOL0     C35139  12.413  -0.353   0.946 -1.1722 -0.2722  1.1870
  261MOL0     C35140  12.393  -0.453   0.836 -0.2434  0.4814  0.3399
  261MOL0     C35141  12.362  -0.393   0.704 -1.1105  0.1157 -0.1346
  261MOL0     C35142  12.236  -0.316   0.682 -0.2287 -0.1598 -0.0043
  261MOL0     C35143  12.241  -0.240   0.553  0.2590 -0.6388  0.2678
  261MOL0     C35144  12.110  -0.166   0.528  0.7554  0.2135  0.1526
  261MOL0    Cl35145  12.127  -0.093   0.365  0.6882  0.4874 -0.0558
  261MOL0     C35146  12.074  -0.224   1.367 -0.2250 -0.1328  0.3652
  261MOL0     C35147  12.032  -0.246   1.498 -0.0305 -1.1643 -0.3705
  261MOL0     O35148  11.959  -0.200   1.788  0.3489  0.2368 -0.0265
  261MOL0     C35149  11.824  -0.351   1.989  0.1701  0.4561 -0.6171
  261MOL0     C35150  11.722  -0.388   2.076  0.0657 -0.6146  0.4629
  261MOL0     N35151  11.024  -0.409   2.207 -0.0716  0.0672 -0.2321
  261MOL0     N35152  10.901  -0.386   2.198  0.4724 -0.0956 -0.0681
  261MOL0     C35153  10.040   0.176   1.325  0.6466  0.0087 -0.0137
  261MOL0     C35154   9.939   0.175   1.230  0.6365 -0.0446  0.6166
  261MOL0     C35155   9.741   0.239   0.807  0.5982 -0.1303 -0.5545
  261MOL0     C35156   9.657   0.343   0.755  0.8353 -0.1477  0.0451
  261MOL0     C35157   9.592   0.320   0.632 -1.9454 -0.2197 -0.0801
  261MOL0     C35158   9.611   0.215   0.559 -0.5173  0.7580  0.4262
  261MOL0     O35159   9.560   0.217   0.430  0.0220  0.5692  0.1909
  261MOL0     C35160   9.624   0.149   0.322 -0.4068  1.1066 -0.4686
  261MOL0     C35161   9.767   0.197   0.301 -0.6409  0.2872  0.5477
  261MOL0     C35162   9.817   0.156   0.160 -0.7554  0.7169 -0.1931
  261MOL0     C35163   9.794   0.273   0.058 -0.2399  0.4475 -0.7833
  261MOL0     C35164   9.872   0.395   0.086  0.2716  0.2539 -0.4652
  261MOL0     C35165   9.947   0.480   0.117  0.2625  0.1742 -0.7492
  261MOL0     C35166   9.685   0.107   0.612 -0.0534 -0.0728 -0.6535
  261MOL0     C35167   9.743   0.114   0.737 -0.2528 -0.3332 -0.6341
  261MOL0     H35168  10.132   0.042   0.987  0.6156 -3.3898  1.7364
  261MOL0     H35169  10.291   0.023   1.172 -0.1121 -0.4927 -2.8064
  261MOL0     H35170  10.331  -0.080   1.400 -0.6646  0.4836 -1.0592
  261MOL0     H35171  10.427   0.076   1.358 -0.1230  2.4614  1.8008
  261MOL0     H35172  10.517  -0.042   1.547 -0.4505  0.1087 -2.5946
  261MOL0     H35173  10.451   0.119   1.598 -2.6870  0.0940 -0.2783
  261MOL0     H35174  10.233   0.003   1.660 -0.2156 -0.0243  0.5461
  261MOL0     H35175  10.310  -0.151   1.640  1.2914 -0.2619  0.9350
  261MOL0     H35176  10.375   0.065   1.843  0.1517 -0.1360 -0.0432
  261MOL0     H35177  10.307  -0.103   1.867  2.2298 -0.1772  2.3585
  261MOL0     H35178  10.520  -0.198   1.790 -1.7023 -0.3275  0.8822
  261MOL0     H35179  10.587  -0.029   1.778 -2.4814  1.9500 -0.4269
  261MOL0     H35180  10.538  -0.026   2.036  2.5446  1.4555  0.2539
  261MOL0     H35181  10.501  -0.192   2.019 -0.2592  2.0151  1.9300
  261MOL0     H35182  10.736  -0.240   1.926  1.7693 -1.5220  2.4537
  261MOL0     H35183  10.777  -0.073   1.968  0.6947 -1.4255 -1.1193
  261MOL0     H35184  10.672  -0.285   2.149 -1.2759  0.7547 -2.0761
  261MOL0     H35185  10.721  -0.132   2.209 -2.7364 -1.3380  1.0456
  261MOL0     H35186  11.016  -0.092   2.129  0.0898 -1.1920 -1.1071
  261MOL0     H35187  11.238  -0.160   2.283 -2.9793  1.2115 -0.0617
  261MOL0     H35188  11.288  -0.313   2.286  1.6343  1.1086 -0.7474
  261MOL0     H35189  11.418  -0.211   2.108  0.0494 -1.1236  0.2042
  261MOL0     H35190  11.282  -0.158   2.015 -1.3391 -0.8746 -0.0182
  261MOL0     H35191  11.373  -0.342   1.904  0.5200  2.2556  0.5116
  261MOL0     H35192  11.216  -0.384   1.951  0.8096  0.1368 -0.0346
  261MOL0     H35193  11.365  -0.583   2.008 -0.4423  0.5292 -0.1650
  261MOL0     H35194  11.304  -0.503   2.156 -2.5099  0.7194 -1.3275
  261MOL0     H35195  11.511  -0.495   1.825  1.2128 -1.0895 -0.1050
  261MOL0     H35196  11.564  -0.428   1.626 -0.6909  0.1291  4.5932
  261MOL0     H35197  11.707  -0.332   1.586  1.4733 -0.9049 -0.1757
  261MOL0     H35198  11.723  -0.506   1.595 -1.7809 -0.1057 -3.9851
  261MOL0     H35199  12.126  -0.569   1.534  0.4790  0.7664  3.5694
  261MOL0     H35200  12.238  -0.517   1.315  1.5384  0.4108 -0.8207
  261MOL0     H35201  12.417  -0.211   1.171  0.0301 -0.1267 -2.7180
  261MOL0     H35202  12.408  -0.325   1.295  0.3900  3.6683  0.1879
  261MOL0     H35203  12.487  -0.463   1.119 -0.1788  1.0567  1.1168
  261MOL0     H35204  12.320  -0.489   1.085 -1.8203  0.7455 -2.0382
  261MOL0     H35205  12.513  -0.310   0.933 -1.9765  1.0249 -1.4415
  261MOL0     H35206  12.343  -0.270   0.934  0.5400  1.1574  0.5699
  261MOL0     H35207  12.480  -0.518   0.822 -1.6839 -0.9244 -3.5448
  261MOL0     H35208  12.311  -0.515   0.873  1.6975 -1.4222  1.6652
  261MOL0     H35209  12.354  -0.483   0.642 -1.5820  2.0623 -3.1230
  261MOL0     H35210  12.449  -0.335   0.673 -0.0277 -0.8151  1.0150
  261MOL0     H35211  12.155  -0.389   0.674  0.8594 -1.4349  0.2450
  261MOL0     H35212  12.222  -0.253   0.770  0.3429  1.0892 -0.7810
  261MOL0     H35213  12.258  -0.311   0.472 -0.1863  0.7437 -1.0669
  261MOL0     H35214  12.320  -0.166   0.567 -1.8304  1.2163  3.6517
  261MOL0     H35215  12.097  -0.101   0.615 -0.9444 -2.2703  1.8582
  261MOL0     H35216  12.034  -0.243   0.541  0.7839  0.6079  3.7125
  261MOL0     H35217  12.064  -0.128   1.316  0.6200 -0.1349  0.1826
  261MOL0     H35218  11.989  -0.163   1.553  1.0440  0.3292 -1.6792
  261MOL0     H35219  11.909  -0.304   2.038 -0.0120 -0.4154  0.5818
  261MOL0     H35220  11.724  -0.369   2.182 -1.7673 -0.4618  0.5128
  261MOL0     H35221  10.020   0.203   1.428 -0.0985 -0.0582 -0.1374
  261MOL0     H35222   9.839   0.208   1.256 -1.8506 -3.4598 -3.2607
  261MOL0     H35223   9.653   0.442   0.798  1.2944 -0.0483 -0.1370
  261MOL0     H35224   9.553   0.407   0.579 -1.0504 -0.2613 -0.8244
  261MOL0     H35225   9.630   0.043   0.346 -0.1591  1.3052  0.3748
  261MOL0     H35226   9.557   0.153   0.236 -1.0534  0.4884 -0.0031
  261MOL0     H35227   9.830   0.155   0.380  0.6145 -1.0683 -1.0965
  261MOL0     H35228   9.769   0.304   0.323 -1.4149  0.4282 -0.0039
  261MOL0     H35229   9.771   0.065   0.120 -0.5023  1.0372 -1.2644
  261MOL0     H35230   9.924   0.135   0.163 -0.9986 -0.3960  1.5448
  261MOL0     H35231   9.688   0.298   0.069 -0.5656 -0.8555 -0.7427
  261MOL0     H35232   9.808   0.239  -0.045  1.0183  0.9947 -0.8070
  261MOL0     H35233  10.020   0.548   0.155 -2.4086  2.0393  1.4661
  261MOL0     H35234   9.692   0.012   0.560 -2.3700  0.3407 -1.8329
  261MOL0     H35235   9.792   0.022   0.765 -1.2455 -1.2420 -1.7263
  262MOL0     O35236   8.956   2.850   2.674 -0.4884  0.8561 -0.4505
  262MOL0     C35237   8.836   2.868   2.688 -0.8014  0.4295  0.4455
  262MOL0     O35238   8.766   2.969   2.633  0.9412 -0.1594 -0.0141
  262MOL0     C35239   8.824   3.053   2.546 -0.4511  0.1814  0.3443
  262MOL0     C35240   8.918   3.154   2.586 -0.2498 -0.3529  0.3458
  262MOL0     C35241   8.967   3.256   2.504  0.1847  0.5501 -0.3795
  262MOL0     C35242   8.908   3.257   2.371 -0.3972 -0.1124  0.8034
  262MOL0     O35243   8.958   3.348   2.281 -0.0871  1.4480  0.1539
  262MOL0     C35244   8.977   3.481   2.323 -0.0328  0.2599 -0.1592
  262MOL0     C35245   8.954   3.570   2.204  0.1436 -0.6298 -1.4430
  262MOL0     C35246   8.905   3.711   2.240 -0.8874 -1.5396 -0.7855
  262MOL0     C35247   9.005   3.798   2.318  1.0044 -0.2215 -0.6850
  262MOL0     C35248   9.117   3.861   2.228  0.0233 -1.1898  1.5603
  262MOL0     C35249   9.048   3.981   2.161 -0.7871 -0.4905  1.2994
  262MOL0     C35250   9.147   4.068   2.098 -1.1473  0.3709 -0.2069
  262MOL0     C35251   9.087   4.205   2.064 -0.7317 -0.5720  0.3428
  262MOL0     N35252   9.186   4.282   1.979 -0.8667 -1.1704  0.5208
  262MOL0     C35253   9.296   4.350   2.038  0.1902  0.0900  0.0489
  262MOL0     C35254   9.377   4.380   1.932 -1.0283 -1.1193 -0.6190
  262MOL0     C35255   9.483   4.466   1.942  0.4477  0.3977  0.2485
  262MOL0     C35256   9.610   4.387   1.973 -0.6531 -0.7351 -0.4629
  262MOL0     C35257   9.695   4.320   1.854 -0.4120 -0.7198  0.7108
  262MOL0     C35258   9.686   4.399   1.717  0.7923  0.5120 -0.4158
  262MOL0     O35259   9.767   4.350   1.609  0.3648 -0.3925 -0.6720
  262MOL0     C35260   9.906   4.357   1.610  1.3781  0.2120 -0.6641
  262MOL0     C35261   9.978   4.443   1.692  0.4251  1.1584  0.1933
  262MOL0     C35262  10.114   4.451   1.684 -0.4673  0.3138 -0.5122
  262MOL0     C35263  10.186   4.535   1.785 -0.0760 -0.7722 -0.0375
  262MOL0     C35264  10.184   4.384   1.591 -0.1135  0.3657  1.0089
  262MOL0     C35265  10.334   4.386   1.565  0.2077  0.5057 -0.1451
  262MOL0     O35266  10.375   4.270   1.519  0.1354  0.0345 -0.8290
  262MOL0     C35267  10.504   4.272   1.458 -0.2631 -0.4309 -0.7730
  262MOL0     C35268  10.615   4.209   1.520  0.5432  0.5398 -0.0894
  262MOL0     C35269  10.740   4.202   1.454  0.1035  0.2349 -0.0480
  262MOL0     C35270  10.765   4.279   1.345  0.0625  0.2823  0.1560
  262MOL0     O35271  10.895   4.265   1.286 -0.6296 -0.3333 -0.6686
  262MOL0     C35272  10.925   4.375   1.206  0.1876  0.2013  0.0356
  262MOL0     C35273  11.068   4.361   1.153 -0.0643 -0.2772 -0.2705
  262MOL0     C35274  11.105   4.488   1.080 -0.7350  0.1056 -0.1416
  262MOL0     C35275  11.075   4.477   0.932  0.0184 -1.1664  0.0533
  262MOL0     C35276  11.057   4.616   0.856  0.3910  0.3407  0.0922
  262MOL0     C35277  11.184   4.680   0.809  0.3147 -1.0862  0.1337
  262MOL0     C35278  11.149   4.808   0.727 -0.5024  0.6518 -0.5799
  262MOL0     C35279  11.270   4.888   0.706 -0.4074  0.6951 -0.3005
  262MOL0    Cl35280  11.228   5.055   0.640 -0.0327 -0.5227 -0.1926
  262MOL0     C35281  10.660   4.363   1.298  0.1154  0.6156 -0.4554
  262MOL0     C35282  10.531   4.352   1.352 -0.5987 -0.2847  1.2255
  262MOL0     O35283  10.403   4.481   1.587  0.2902  0.4329 -0.1543
  262MOL0     C35284  10.114   4.308   1.490  0.7354  0.9507 -0.7165
  262MOL0     C35285   9.972   4.297   1.499  0.8783  0.5129 -0.0841
  262MOL0     N35286   9.330   4.312   1.814  0.6222 -1.3526 -0.7012
  262MOL0     N35287   9.223   4.258   1.848  0.3601 -0.3601  0.4155
  262MOL0     C35288   8.807   3.162   2.334  0.0376 -0.2219  0.7429
  262MOL0     C35289   8.774   3.060   2.415  0.5278  0.2951  0.0492
  262MOL0     C35290   8.766   2.750   2.749  0.7395  0.8944  0.8460
  262MOL0     C35291   8.642   2.765   2.805  0.2262  0.2540 -0.4887
  262MOL0     C35292   8.586   2.655   2.874 -0.7977  0.3236  0.3883
  262MOL0     C35293   8.646   2.527   2.881  0.4726  0.0103 -0.3716
  262MOL0     O35294   8.579   2.422   2.948  0.2420 -0.3269 -0.3107
  262MOL0     C35295   8.600   2.288   2.911  0.3105  0.5381 -0.9323
  262MOL0     C35296   8.690   2.219   3.019 -0.2994 -0.1242  0.9389
  262MOL0     C35297   8.662   2.251   3.170 -0.2535 -0.3422  0.0351
  262MOL0     C35298   8.516   2.215   3.203 -1.5186  0.6471 -0.4324
  262MOL0     C35299   8.485   2.074   3.192  0.8806 -0.6055  0.0345
  262MOL0     C35300   8.448   1.955   3.180 -0.0831 -0.7259  1.4949
  262MOL0     C35301   8.770   2.515   2.828  0.6214 -0.0392 -0.3598
  262MOL0     C35302   8.836   2.623   2.765  0.3569 -0.2235  0.0852
  262MOL0     H35303   8.946   3.138   2.689  0.3722 -0.3592  0.1806
  262MOL0     H35304   9.037   3.334   2.534  2.2927  0.0771 -3.5610
  262MOL0     H35305   8.904   3.512   2.398 -2.0266 -1.4801 -1.2754
  262MOL0     H35306   9.083   3.489   2.352  0.4380 -5.7814  0.9434
  262MOL0     H35307   9.041   3.576   2.138  0.8025 -1.4717 -0.6739
  262MOL0     H35308   8.863   3.535   2.153 -0.6224  0.5606 -0.9315
  262MOL0     H35309   8.874   3.761   2.148 -0.0249 -3.1096 -1.9663
  262MOL0     H35310   8.818   3.711   2.306  1.6600  0.8072  3.0300
  262MOL0     H35311   8.956   3.883   2.365  0.0999  0.3033 -2.4734
  262MOL0     H35312   9.051   3.726   2.386 -0.6444 -0.2162  0.4847
  262MOL0     H35313   9.201   3.896   2.289 -1.3554  3.9762  0.9722
  262MOL0     H35314   9.146   3.794   2.146 -0.2095  2.5943 -1.9713
  262MOL0     H35315   8.987   3.943   2.078 -1.5632  1.0704  1.1266
  262MOL0     H35316   8.992   4.041   2.233 -1.5094 -0.6032  0.8422
  262MOL0     H35317   9.227   4.083   2.171  0.9624 -2.5161 -1.7041
  262MOL0     H35318   9.203   4.023   2.015  1.3707 -0.6764  1.8862
  262MOL0     H35319   9.062   4.258   2.157  0.0148 -0.4799  0.4982
  262MOL0     H35320   8.995   4.192   2.006 -0.4493  0.4724 -0.3699
  262MOL0     H35321   9.320   4.356   2.144  0.2975 -3.9402  0.4012
  262MOL0     H35322   9.489   4.528   1.852 -2.7188  1.5721  0.7195
  262MOL0     H35323   9.448   4.533   2.022  3.7701  2.7671 -0.0638
  262MOL0     H35324   9.597   4.312   2.052 -1.8485  0.1658  0.2355
  262MOL0     H35325   9.684   4.458   2.012  0.3659 -0.9328 -1.9799
  262MOL0     H35326   9.652   4.220   1.842 -1.2189 -0.1390 -2.0335
  262MOL0     H35327   9.799   4.302   1.882 -0.9843 -5.0188  0.6933
  262MOL0     H35328   9.717   4.503   1.728 -0.6260  1.1259 -1.8825
  262MOL0     H35329   9.582   4.394   1.686  0.6128  0.7099  0.1408
  262MOL0     H35330   9.931   4.501   1.771 -0.6116  1.6837 -0.7773
  262MOL0     H35331  10.209   4.486   1.880 -2.2680 -0.5052  0.6810
  262MOL0     H35332  10.279   4.583   1.752 -0.5897 -0.0834 -0.5379
  262MOL0     H35333  10.126   4.624   1.808  2.1726  0.4548  1.4212
  262MOL0     H35334  10.609   4.156   1.615  1.7469 -0.9160 -0.7856
  262MOL0     H35335  10.827   4.151   1.494  0.9715  0.2217 -1.8389
  262MOL0     H35336  10.862   4.379   1.117 -0.1613  4.0886  0.2633
  262MOL0     H35337  10.919   4.473   1.255  0.3675 -0.1928  0.8724
  262MOL0     H35338  11.131   4.354   1.242  0.0317  1.1859 -0.2055
  262MOL0     H35339  11.079   4.271   1.091  1.2084 -1.0629  1.0240
  262MOL0     H35340  11.209   4.520   1.091 -0.7768  0.6355 -1.1138
  262MOL0     H35341  11.041   4.563   1.127  3.5505  3.0459  1.6216
  262MOL0     H35342  11.159   4.428   0.881 -1.1196 -1.8888 -1.2134
  262MOL0     H35343  10.989   4.411   0.924  0.3782 -1.7115  0.5798
  262MOL0     H35344  11.001   4.690   0.912  0.4515 -0.7629  1.6752
  262MOL0     H35345  11.005   4.591   0.763 -1.6654  1.2932  0.9379
  262MOL0     H35346  11.231   4.715   0.902 -1.6838 -0.4429  0.9604
  262MOL0     H35347  11.240   4.606   0.751  0.0395 -2.3266  1.3826
  262MOL0     H35348  11.068   4.874   0.760 -0.3515  0.2107  0.7364
  262MOL0     H35349  11.113   4.784   0.626 -1.1338  0.0687 -0.2247
  262MOL0     H35350  11.332   4.837   0.632  3.0556  0.2808  2.6196
  262MOL0     H35351  11.323   4.915   0.798 -1.9065  0.4270  0.6901
  262MOL0     H35352  10.679   4.425   1.212  1.9977  0.9727  0.1802
  262MOL0     H35353  10.455   4.420   1.314 -0.2212  0.1117  1.1637
  262MOL0     H35354  10.160   4.255   1.408 -1.8466  0.6889 -2.1194
  262MOL0     H35355   9.922   4.234   1.426 -1.4296  1.3567  0.6625
  262MOL0     H35356   8.748   3.183   2.245  0.5974  2.0853  0.8335
  262MOL0     H35357   8.698   2.988   2.384 -1.7666  2.4015  0.4739
  262MOL0     H35358   8.583   2.856   2.791 -3.1673 -2.0830 -3.1667
  262MOL0     H35359   8.492   2.657   2.929 -0.5033 -0.7942  0.9652
  262MOL0     H35360   8.502   2.241   2.894  0.5607 -0.0357 -0.8037
  262MOL0     H35361   8.648   2.290   2.812 -0.7845  0.5785 -1.4772
  262MOL0     H35362   8.794   2.239   2.992 -1.5285 -0.0318 -4.9074
  262MOL0     H35363   8.671   2.113   3.000 -2.6451  0.3270  0.4789
  262MOL0     H35364   8.682   2.355   3.198  1.2563 -0.6714  0.2634
  262MOL0     H35365   8.734   2.193   3.229 -1.0273  0.8395  2.3066
  262MOL0     H35366   8.447   2.279   3.147 -0.5371  0.1022 -2.3565
  262MOL0     H35367   8.510   2.237   3.310  0.6942  1.0801 -0.3717
  262MOL0     H35368   8.438   1.849   3.184  0.2381 -0.7465  1.7684
  262MOL0     H35369   8.830   2.425   2.833 -0.9518 -1.0624  0.8605
  262MOL0     H35370   8.935   2.608   2.724  0.1596 -0.3304 -0.3646
  263MOL0     O35371  10.808   0.957   0.015 -0.4398  0.2032 -0.6807
  263MOL0     C35372  10.784   0.904  -0.093  0.3700  0.4823 -0.1132
  263MOL0     O35373  10.878   0.849  -0.183  0.6087 -0.6513  0.6866
  263MOL0     C35374  11.004   0.845  -0.141 -0.0650 -0.0767 -0.8590
  263MOL0     C35375  11.054   0.792  -0.013  0.2181 -0.6132 -0.1361
  263MOL0     C35376  11.190   0.801   0.025  0.4049 -0.2434  0.2373
  263MOL0     C35377  11.285   0.852  -0.074 -0.0316  0.4133  0.6141
  263MOL0     O35378  11.428   0.843  -0.074  0.4031  0.2393  0.2613
  263MOL0     C35379  11.484   0.759   0.035  0.1902 -0.4901  0.3399
  263MOL0     C35380  11.636   0.742   0.018  0.7782 -0.0776  0.2082
  263MOL0     C35381  11.726   0.705   0.145  0.7060 -0.3102  0.9082
  263MOL0     C35382  11.876   0.714   0.120  1.1105  0.6399  0.3833
  263MOL0     C35383  11.946   0.642   0.240 -0.0682  0.0915 -0.0314
  263MOL0     C35384  12.094   0.655   0.230  0.8410 -1.1181 -0.1830
  263MOL0     C35385  12.149   0.591   0.355 -0.2977  0.2591  0.1462
  263MOL0     C35386  12.150   0.437   0.336  0.6779 -0.5608  0.0818
  263MOL0     N35387  12.201   0.371   0.449 -0.0512 -0.6625 -0.2453
  263MOL0     C35388  12.146   0.268   0.533  0.3236 -0.4201  1.4160
  263MOL0     C35389  12.241   0.244   0.620 -0.0319  0.4636 -0.4230
  263MOL0     C35390  12.242   0.136   0.728  0.0204 -0.0706  0.4715
  263MOL0     C35391  12.291   0.196   0.867  0.0854  0.5669  0.2923
  263MOL0     C35392  12.277   0.070   0.978 -0.2893 -0.1666  0.6191
  263MOL0     C35393  12.381   0.091   1.092  0.9089  0.6738  1.0396
  263MOL0     O35394  12.328   0.058   1.217 -1.2551  0.4858  0.6808
  263MOL0     C35395  12.411   0.053   1.326 -0.6591  0.7214 -0.4236
  263MOL0     C35396  12.355  -0.007   1.440 -0.2334 -0.3767 -0.3910
  263MOL0     C35397  12.423  -0.027   1.559  0.6035  0.5679 -0.4411
  263MOL0     C35398  12.352  -0.098   1.676  0.7908  0.1315  0.1004
  263MOL0     C35399  12.552   0.027   1.569 -0.2196  0.2369 -0.6089
  263MOL0     C35400  12.632   0.020   1.700 -0.5157  0.6754  0.0784
  263MOL0     O35401  12.699   0.135   1.749 -0.8356  0.8725  0.0232
  263MOL0     C35402  12.774   0.132   1.859  0.7459  0.0607 -0.3753
  263MOL0     C35403  12.739   0.060   1.980  0.7474  0.3629  0.4311
  263MOL0     C35404  12.802   0.065   2.101  0.3041  0.8423  0.2963
  263MOL0     C35405  12.914   0.158   2.109 -0.2170  0.4011  0.1442
  263MOL0     O35406  12.987   0.170   2.223  0.0429 -0.1306  0.4637
  263MOL0     C35407  12.921   0.153   2.346 -0.4924  0.7568 -0.0553
  263MOL0     C35408  12.960   0.024   2.419 -0.3672 -0.0793 -0.9218
  263MOL0     C35409  12.903   0.016   2.568  0.6450  0.7268 -0.2663
  263MOL0     C35410  12.993   0.104   2.662  0.1659  0.1978 -0.6289
  263MOL0     C35411  12.924   0.119   2.803  0.7719  0.1635  0.3437
  263MOL0     C35412  12.985   0.228   2.883 -0.2694 -0.8138 -0.5351
  263MOL0     C35413  12.930   0.230   3.030 -0.1031 -0.3767  0.3574
  263MOL0     C35414  12.791   0.277   3.060 -0.1596  0.0493 -1.0231
  263MOL0    Cl35415  12.767   0.459   3.041  0.2645 -0.1201 -0.3100
  263MOL0     C35416  12.943   0.242   1.995  0.1078 -0.2280 -0.2084
  263MOL0     C35417  12.869   0.226   1.875  0.3679 -0.7818  0.1069
  263MOL0     O35418  12.633  -0.094   1.752 -0.0563 -0.4530 -0.9923
  263MOL0     C35419  12.606   0.093   1.462  0.3561 -0.5447 -0.2052
  263MOL0     C35420  12.541   0.106   1.341 -1.0631 -0.6915  0.2941
  263MOL0     N35421  12.346   0.329   0.601  0.3172 -0.6640 -0.2677
  263MOL0     N35422  12.324   0.392   0.502 -0.0738  0.0582  0.6686
  263MOL0     C35423  11.232   0.907  -0.191  0.5205 -0.4854 -0.9152
  263MOL0     C35424  11.096   0.906  -0.226 -0.2591 -0.0610  0.2307
  263MOL0     C35425  10.640   0.913  -0.125 -0.2639 -0.8951 -0.4628
  263MOL0     C35426  10.596   0.928  -0.262  0.5056 -0.1268  0.5406
  263MOL0     C35427  10.454   0.963  -0.287 -0.3823 -0.3677 -0.7603
  263MOL0     C35428  10.365   0.969  -0.182  0.5761 -0.5076 -0.0535
  263MOL0     O35429  10.227   0.981  -0.206 -0.5038 -0.0532  0.1318
  263MOL0     C35430  10.184   1.084  -0.300 -0.2202 -0.7572 -0.1423
  263MOL0     C35431  10.224   1.223  -0.258 -0.2550 -0.1419  0.7386
  263MOL0     C35432  10.190   1.275  -0.114 -0.4784 -0.0402 -0.2262
  263MOL0     C35433  10.278   1.398  -0.084  0.5140 -0.1733 -0.6346
  263MOL0     C35434  10.415   1.358  -0.045  0.3918 -0.1343 -0.5061
  263MOL0     C35435  10.521   1.331   0.020 -0.3738 -0.3404 -0.2280
  263MOL0     C35436  10.401   0.950  -0.051 -1.0412  0.1065  0.0451
  263MOL0     C35437  10.540   0.918  -0.023  0.3607 -0.0589 -0.1770
  263MOL0     H35438  10.981   0.749   0.055 -1.5696  0.3432 -1.3609
  263MOL0     H35439  11.228   0.756   0.116 -0.2422  0.6288  0.9580
  263MOL0     H35440  11.469   0.805   0.132 -1.3219  1.3589 -0.6985
  263MOL0     H35441  11.432   0.662   0.039 -2.2512  0.5406 -2.4797
  263MOL0     H35442  11.661   0.663  -0.053  2.2668 -0.3713  1.0307
  263MOL0     H35443  11.670   0.832  -0.033  0.7354  0.4649  1.1094
  263MOL0     H35444  11.709   0.770   0.231 -0.0447  1.0036 -0.1979
  263MOL0     H35445  11.704   0.599   0.161 -0.3630 -0.8367 -3.0683
  263MOL0     H35446  11.897   0.659   0.029  1.0998  0.4078  0.5196
  263MOL0     H35447  11.901   0.821   0.120  1.0539  0.6548  0.5732
  263MOL0     H35448  11.906   0.674   0.336  1.2297 -0.5294  0.7458
  263MOL0     H35449  11.919   0.537   0.223  0.4592 -0.2936  1.3843
  263MOL0     H35450  12.131   0.609   0.139  1.4075  0.5501 -0.8405
  263MOL0     H35451  12.115   0.762   0.232  1.5869 -1.2583 -0.4673
  263MOL0     H35452  12.256   0.615   0.362  0.3682 -1.8198 -1.6887
  263MOL0     H35453  12.085   0.615   0.440 -4.5964  0.1149 -2.7650
  263MOL0     H35454  12.214   0.414   0.251  1.0014  0.4158  0.0538
  263MOL0     H35455  12.047   0.402   0.322  0.6698 -0.9018  0.9192
  263MOL0     H35456  12.050   0.219   0.519  1.8565 -3.4005  0.4576
  263MOL0     H35457  12.143   0.093   0.743  0.2241 -0.2275  1.4043
  263MOL0     H35458  12.312   0.058   0.697 -0.9597 -0.9504  0.4492
  263MOL0     H35459  12.237   0.283   0.907  0.2070  2.2470 -2.9066
  263MOL0     H35460  12.395   0.229   0.862  1.2358 -2.5553  1.2347
  263MOL0     H35461  12.305  -0.020   0.922  0.4339 -0.0953  0.8564
  263MOL0     H35462  12.172   0.065   1.008 -0.4576 -0.0553  0.0742
  263MOL0     H35463  12.430   0.189   1.093  1.4533  0.4885 -1.3051
  263MOL0     H35464  12.455   0.012   1.075 -0.2415 -0.0324 -1.0258
  263MOL0     H35465  12.252  -0.040   1.438 -0.4901  0.2153  1.4681
  263MOL0     H35466  12.358  -0.038   1.767 -1.0024  0.4928  0.0142
  263MOL0     H35467  12.250  -0.129   1.650  1.2403 -1.4484  0.1266
  263MOL0     H35468  12.407  -0.191   1.695  1.8998 -0.2587 -4.0381
  263MOL0     H35469  12.655  -0.007   1.969  0.4359  0.7899  0.1676
  263MOL0     H35470  12.772  -0.007   2.176 -3.2083  1.3802 -0.4122
  263MOL0     H35471  12.943   0.230   2.421  3.0073 -1.6076  1.5967
  263MOL0     H35472  12.812   0.153   2.344 -0.5421 -2.0997 -0.6351
  263MOL0     H35473  12.928  -0.065   2.364 -3.0654  0.5816 -0.5634
  263MOL0     H35474  13.068   0.005   2.428 -0.0297  2.3444  2.2351
  263MOL0     H35475  12.888  -0.081   2.616 -2.4249 -0.5597 -3.4559
  263MOL0     H35476  12.804   0.059   2.552 -1.0729 -1.9271  2.3481
  263MOL0     H35477  13.098   0.071   2.666  0.2671  0.5372 -0.4092
  263MOL0     H35478  13.008   0.202   2.616  2.3555 -0.4651 -1.4676
  263MOL0     H35479  12.923   0.021   2.851 -0.5341 -0.5796 -1.1058
  263MOL0     H35480  12.819   0.151   2.797  0.2880 -0.9141  2.2735
  263MOL0     H35481  13.094   0.218   2.888 -0.1823  0.1756 -0.3161
  263MOL0     H35482  12.965   0.320   2.828  2.7325 -0.1825 -0.7704
  263MOL0     H35483  12.989   0.301   3.090 -1.3570 -0.0318  1.2319
  263MOL0     H35484  12.946   0.134   3.080  0.7595 -0.6257 -0.3769
  263MOL0     H35485  12.769   0.265   3.167 -0.5545 -0.0422 -1.1121
  263MOL0     H35486  12.718   0.227   2.996  2.4671  0.6326 -4.8144
  263MOL0     H35487  13.008   0.329   1.999  0.2885 -0.2298 -2.0543
  263MOL0     H35488  12.893   0.294   1.794 -1.6431 -2.6266 -2.1728
  263MOL0     H35489  12.708   0.127   1.473 -0.2874  1.8906 -1.1291
  263MOL0     H35490  12.600   0.167   1.274 -1.3353  0.7365  1.3059
  263MOL0     H35491  11.305   0.940  -0.264  1.4988 -1.6296 -0.4906
  263MOL0     H35492  11.072   0.964  -0.314  0.7410  0.8422  0.5279
  263MOL0     H35493  10.665   0.924  -0.346  2.1047  0.1106  1.7823
  263MOL0     H35494  10.418   0.981  -0.388  1.3936  0.1702 -1.3245
  263MOL0     H35495  10.212   1.061  -0.404  2.7282 -2.1153  0.8348
  263MOL0     H35496  10.075   1.075  -0.303 -0.0415 -3.5937 -1.5308
  263MOL0     H35497  10.172   1.288  -0.329 -0.1823 -0.3342  0.5075
  263MOL0     H35498  10.331   1.241  -0.275  0.1509  0.9432  3.7529
  263MOL0     H35499  10.201   1.199  -0.036 -1.3302  1.5413  1.5088
  263MOL0     H35500  10.086   1.308  -0.110 -0.9481 -1.4508  0.0302
  263MOL0     H35501  10.238   1.447   0.005 -0.4308 -0.1593 -1.0530
  263MOL0     H35502  10.280   1.468  -0.168  2.5279 -0.4325 -0.8611
  263MOL0     H35503  10.618   1.320   0.065  0.0948  0.7585 -0.9389
  263MOL0     H35504  10.329   0.995   0.017 -0.7582  0.3443  0.1844
  263MOL0     H35505  10.580   0.900   0.077 -0.5485 -0.4515  0.1278
  264MOL0     O35506   3.498   2.596   0.210  0.4691 -0.1804  0.2636
  264MOL0     C35507   3.536   2.532   0.110 -1.4636 -0.3331 -1.3138
  264MOL0     O35508   3.615   2.422   0.113  0.2081  0.2278  0.5539
  264MOL0     C35509   3.640   2.365   0.231  1.0250 -0.1367  0.7164
  264MOL0     C35510   3.573   2.256   0.277  0.3941  0.0724  1.0504
  264MOL0     C35511   3.593   2.198   0.399 -0.6979  0.3647 -0.0117
  264MOL0     C35512   3.681   2.264   0.489 -0.2774  0.0996  0.3792
  264MOL0     O35513   3.706   2.213   0.609 -0.9764 -0.0973  1.0317
  264MOL0     C35514   3.668   2.080   0.641 -0.0142 -0.0761 -0.2153
  264MOL0     C35515   3.735   2.025   0.770 -0.2408 -0.0866  0.0400
  264MOL0     C35516   3.733   2.122   0.883 -0.2903 -0.2146 -0.0350
  264MOL0     C35517   3.769   2.052   1.020 -0.5206 -0.0539 -0.5804
  264MOL0     C35518   3.918   2.027   1.041  0.6280  0.3270  0.6242
  264MOL0     C35519   4.008   2.143   1.052  0.6255  1.5325  0.8865
  264MOL0     C35520   4.145   2.115   1.097  1.5884 -0.1931 -0.8916
  264MOL0     C35521   4.227   2.040   0.986  0.3048 -0.0948  0.0566
  264MOL0     N35522   4.375   2.030   1.018  0.0934  1.0000 -0.0313
  264MOL0     C35523   4.429   1.964   1.126 -0.2601  0.1883  0.0067
  264MOL0     C35524   4.560   1.999   1.135 -0.4337  0.6045 -0.5288
  264MOL0     C35525   4.668   1.939   1.221  0.1075 -0.1081 -0.3503
  264MOL0     C35526   4.812   1.977   1.178 -0.1338  0.6030 -1.0138
  264MOL0     C35527   4.861   1.874   1.076  0.7815  0.0232 -0.9090
  264MOL0     C35528   4.793   1.860   0.934  0.4146 -0.8427 -0.0550
  264MOL0     O35529   4.862   1.764   0.862 -0.0350 -0.3361 -0.8252
  264MOL0     C35530   4.824   1.737   0.731  0.9402 -0.7062 -0.5025
  264MOL0     C35531   4.892   1.635   0.670  0.5260 -0.2745 -0.8297
  264MOL0     C35532   4.863   1.597   0.537 -0.8073 -0.1361 -0.6760
  264MOL0     C35533   4.939   1.476   0.485 -0.0523 -0.5037  0.7247
  264MOL0     C35534   4.753   1.668   0.464  0.3032  0.0877  0.3308
  264MOL0     C35535   4.694   1.631   0.332  0.4529  0.4215  0.2328
  264MOL0     O35536   4.577   1.690   0.282 -0.0011  0.6229 -0.2551
  264MOL0     C35537   4.518   1.625   0.172  0.7759 -0.3821  0.1054
  264MOL0     C35538   4.389   1.557   0.180 -0.8050  0.5004 -0.2527
  264MOL0     C35539   4.317   1.518   0.063 -0.0295  0.6282 -0.0121
  264MOL0     C35540   4.377   1.530  -0.059  0.2330 -0.6593 -0.1397
  264MOL0     O35541   4.315   1.489  -0.168  0.0290  0.3604 -0.1559
  264MOL0     C35542   4.211   1.574  -0.224  0.1791 -0.1810  0.4974
  264MOL0     C35543   4.259   1.697  -0.300 -0.8214  0.1664 -0.6163
  264MOL0     C35544   4.158   1.759  -0.393 -0.1294 -0.8968 -0.3346
  264MOL0     C35545   4.006   1.761  -0.332  0.0533 -0.6256 -0.2351
  264MOL0     C35546   3.923   1.846  -0.427  1.2473 -0.3750  0.0047
  264MOL0     C35547   3.940   1.997  -0.392  0.1440  0.6884 -0.1495
  264MOL0     C35548   3.825   2.083  -0.454 -0.6764  0.3410  0.1290
  264MOL0     C35549   3.833   2.224  -0.412 -0.5166 -0.2172  0.8714
  264MOL0    Cl35550   3.756   2.321  -0.525 -0.0649  0.2709 -0.5508
  264MOL0     C35551   4.510   1.582  -0.070 -0.6986 -0.1142 -0.9087
  264MOL0     C35552   4.570   1.630   0.040 -0.6226  0.0961 -0.3917
  264MOL0     O35553   4.770   1.557   0.267 -0.1849  0.7075 -0.3085
  264MOL0     C35554   4.691   1.769   0.532  0.6719 -0.6450 -0.3210
  264MOL0     C35555   4.722   1.807   0.662  1.1646 -0.7674 -0.1521
  264MOL0     N35556   4.574   2.092   1.035 -0.6238  0.0333 -0.4695
  264MOL0     N35557   4.471   2.103   0.957  0.2908 -0.6358 -0.4053
  264MOL0     C35558   3.752   2.379   0.450 -0.5900  1.1486  0.1111
  264MOL0     C35559   3.724   2.430   0.327 -0.0542 -0.2801 -0.0695
  264MOL0     C35560   3.512   2.587  -0.023  1.0754  0.0042 -0.3170
  264MOL0     C35561   3.418   2.693  -0.036 -0.7715 -0.2839  0.4464
  264MOL0     C35562   3.391   2.739  -0.162 -0.7915 -0.3423  0.7511
  264MOL0     C35563   3.442   2.685  -0.283 -0.0815  0.8893  0.3671
  264MOL0     O35564   3.393   2.731  -0.404 -0.0805  0.7809 -0.4105
  264MOL0     C35565   3.459   2.688  -0.523 -1.0371  0.2189 -1.0595
  264MOL0     C35566   3.421   2.779  -0.649 -0.8134  1.8263 -0.7885
  264MOL0     C35567   3.482   2.740  -0.779 -0.0634 -0.1150  0.1317
  264MOL0     C35568   3.391   2.685  -0.886 -0.1213 -0.4772  0.3209
  264MOL0     C35569   3.456   2.626  -1.002  0.6004  0.5355 -0.0820
  264MOL0     C35570   3.504   2.580  -1.095 -0.1830 -0.6070  1.0001
  264MOL0     C35571   3.537   2.583  -0.256 -0.3041 -0.1757  0.2372
  264MOL0     C35572   3.575   2.536  -0.132 -0.8468 -0.3018 -0.5764
  264MOL0     H35573   3.502   2.205   0.214  2.0782  0.0144 -0.8794
  264MOL0     H35574   3.522   2.120   0.426 -0.5711 -0.7149 -2.4789
  264MOL0     H35575   3.561   2.061   0.638  0.4585 -3.1036 -1.3789
  264MOL0     H35576   3.703   2.010   0.565 -1.4506  2.8014 -3.8691
  264MOL0     H35577   3.687   1.931   0.799  0.0114 -0.4226 -0.6073
  264MOL0     H35578   3.840   1.998   0.751 -0.1125  1.4711 -1.7336
  264MOL0     H35579   3.813   2.196   0.872  0.9231 -1.0582  2.3316
  264MOL0     H35580   3.638   2.169   0.909  0.2831 -1.0483  4.3135
  264MOL0     H35581   3.733   2.122   1.095 -1.7363  2.6171 -3.4326
  264MOL0     H35582   3.702   1.965   1.024 -0.1092 -0.3611 -0.2035
  264MOL0     H35583   3.944   1.968   1.129  3.3518 -0.9945 -0.9434
  264MOL0     H35584   3.950   1.972   0.952  0.3837  0.2986  0.5544
  264MOL0     H35585   4.001   2.181   0.949 -2.8570 -1.7487 -0.3334
  264MOL0     H35586   3.954   2.209   1.121  0.0696 -1.3901  3.4703
  264MOL0     H35587   4.204   2.202   1.126 -0.0405  0.2300  1.4553
  264MOL0     H35588   4.139   2.057   1.190 -2.9822  2.0911  0.4828
  264MOL0     H35589   4.215   2.095   0.893  1.8988  0.0849 -0.0543
  264MOL0     H35590   4.176   1.943   0.981 -2.7430  1.4107 -0.6084
  264MOL0     H35591   4.385   1.894   1.197  1.8333 -1.0732  0.1396
  264MOL0     H35592   4.653   1.977   1.322 -1.7896 -0.2547 -0.5308
  264MOL0     H35593   4.652   1.831   1.227 -1.2190  0.1485  1.6110
  264MOL0     H35594   4.880   1.974   1.263 -2.9087 -1.4026  1.3142
  264MOL0     H35595   4.809   2.077   1.133 -1.7904  0.4427 -1.3229
  264MOL0     H35596   4.841   1.776   1.120  2.0464 -0.6431 -1.7748
  264MOL0     H35597   4.967   1.881   1.051  1.3988  2.2093  1.7693
  264MOL0     H35598   4.797   1.958   0.886  4.4238  0.5665  2.5507
  264MOL0     H35599   4.690   1.827   0.945 -0.0927  0.6376 -0.2652
  264MOL0     H35600   4.964   1.585   0.733  0.6887  0.8378 -0.1059
  264MOL0     H35601   4.969   1.414   0.570 -1.3391  1.1029  2.4522
  264MOL0     H35602   4.879   1.404   0.428 -0.5274  0.9692 -0.7166
  264MOL0     H35603   5.017   1.495   0.411 -0.7917  1.0003  0.2749
  264MOL0     H35604   4.353   1.536   0.281  1.3660 -0.7056  0.3337
  264MOL0     H35605   4.213   1.487   0.075 -0.3903  1.6943 -0.3151
  264MOL0     H35606   4.148   1.531  -0.302 -0.0438  2.2823 -0.7962
  264MOL0     H35607   4.145   1.605  -0.142 -1.0395 -1.6040  0.0801
  264MOL0     H35608   4.296   1.777  -0.235  0.5759 -2.1843  1.6423
  264MOL0     H35609   4.345   1.658  -0.354  2.2260  3.3895  1.4792
  264MOL0     H35610   4.154   1.708  -0.490  2.8330  0.3935 -1.2593
  264MOL0     H35611   4.182   1.862  -0.422 -4.0614  0.4389  0.5287
  264MOL0     H35612   3.966   1.660  -0.323 -0.3129 -0.4240  0.5373
  264MOL0     H35613   4.003   1.799  -0.229 -1.0414 -0.5549 -0.2860
  264MOL0     H35614   3.818   1.817  -0.424 -0.1515  3.9764  0.4405
  264MOL0     H35615   3.958   1.817  -0.527  0.0533  0.2361 -0.6125
  264MOL0     H35616   3.939   2.003  -0.283  0.5300 -5.1724  0.4840
  264MOL0     H35617   4.040   2.030  -0.421  0.3319  2.4610  2.2068
  264MOL0     H35618   3.725   2.041  -0.439 -1.2609  0.5711 -2.5218
  264MOL0     H35619   3.838   2.079  -0.563 -0.2646 -1.4501  0.2002
  264MOL0     H35620   3.940   2.246  -0.424  0.0003 -2.5448  0.6719
  264MOL0     H35621   3.790   2.234  -0.312  0.1259  0.1636  1.1116
  264MOL0     H35622   4.556   1.594  -0.168 -0.4727 -0.7320 -0.8796
  264MOL0     H35623   4.671   1.668   0.028 -0.6982  0.0495 -1.2592
  264MOL0     H35624   4.611   1.833   0.494 -1.0508 -1.7056  1.3530
  264MOL0     H35625   4.665   1.884   0.714 -1.6291 -2.0087 -1.1444
  264MOL0     H35626   3.827   2.416   0.519 -1.2440  0.4050  1.2426
  264MOL0     H35627   3.782   2.514   0.291  0.8511 -1.3658 -1.2498
  264MOL0     H35628   3.368   2.725   0.055 -3.0664 -0.0991 -0.8008
  264MOL0     H35629   3.306   2.806  -0.173  1.5485  3.3315  2.9427
  264MOL0     H35630   3.568   2.685  -0.508 -1.1035 -1.3213 -0.6861
  264MOL0     H35631   3.436   2.583  -0.541  0.4586 -1.0537  3.2097
  264MOL0     H35632   3.452   2.881  -0.624 -0.3205  1.4401  0.2410
  264MOL0     H35633   3.314   2.768  -0.671 -0.7224  0.6371 -0.6995
  264MOL0     H35634   3.553   2.659  -0.759 -0.5558 -1.0209 -1.5690
  264MOL0     H35635   3.525   2.831  -0.822 -4.7467  3.3869  2.0423
  264MOL0     H35636   3.333   2.769  -0.927  0.9971  0.8646  1.3612
  264MOL0     H35637   3.315   2.619  -0.844 -0.4274 -0.4148 -0.1313
  264MOL0     H35638   3.555   2.541  -1.181  0.9299  0.5122  1.1196
  264MOL0     H35639   3.582   2.528  -0.338  1.5481 -1.0917  1.7960
  264MOL0     H35640   3.650   2.458  -0.131 -1.7014 -1.1295  0.2324
  265MOL0     O35641  11.009   3.483  10.273 -0.3102 -0.0545 -0.1558
  265MOL0     C35642  10.889   3.524  10.248 -0.3343 -0.2697 -0.8638
  265MOL0     O35643  10.837   3.641  10.294  0.4127  0.1362 -0.1802
  265MOL0     C35644  10.924   3.739  10.338 -0.1699  0.4751 -0.6295
  265MOL0     C35645  11.006   3.808  10.255 -0.3525  0.1408 -0.5490
  265MOL0     C35646  11.096   3.908  10.298 -0.1843 -0.8561 -0.3377
  265MOL0     C35647  11.098   3.936  10.437  0.1767  0.1792  0.0410
  265MOL0     O35648  11.177   4.026  10.499 -0.1826 -0.5121  0.3872
  265MOL0     C35649  11.204   4.009  10.639  0.0626 -0.6617 -0.0241
  265MOL0     C35650  11.316   4.106  10.695  0.3239 -0.0527  0.5255
  265MOL0     C35651  11.307   4.148  10.845  0.5478 -0.2626 -0.0115
  265MOL0     C35652  11.213   4.259  10.874 -0.0098 -0.1567  0.5364
  265MOL0     C35653  11.283   4.385  10.908 -0.0386 -0.4182 -0.2573
  265MOL0     C35654  11.189   4.507  10.901  0.4435  1.0082  1.3263
  265MOL0     C35655  11.261   4.638  10.950  0.0440 -0.1081 -0.1046
  265MOL0     C35656  11.183   4.758  10.908 -0.6067  0.2623  0.3734
  265MOL0     N35657  11.239   4.890  10.936 -0.0226 -0.3776 -0.3364
  265MOL0     C35658  11.186   5.008  10.890  0.3147  0.3037  0.1855
  265MOL0     C35659  11.243   5.095  10.968  0.6805  0.2974  0.3711
  265MOL0     C35660  11.202   5.242  10.966 -0.3644 -0.5059  0.4894
  265MOL0     C35661  11.319   5.332  10.909  0.9663  0.4237 -0.3767
  265MOL0     C35662  11.324   5.335  10.760 -0.4372  0.5283  0.2821
  265MOL0     C35663  11.420   5.454  10.710 -0.0977 -0.1462 -0.5951
  265MOL0     O35664  11.360   5.581  10.749 -0.3349  0.1466  0.6293
  265MOL0     C35665  11.448   5.689  10.746 -0.3855 -0.0560 -0.4113
  265MOL0     C35666  11.471   5.725  10.615 -0.1435 -0.5957  0.7373
  265MOL0     C35667  11.535   5.854  10.585  0.1829  0.1633  0.5511
  265MOL0     C35668  11.569   5.891  10.439 -1.1188  0.1832  0.1707
  265MOL0     C35669  11.580   5.932  10.702  0.2270 -0.1948 -0.0497
  265MOL0     C35670  11.655   6.063  10.678  0.5262  0.1123  0.0130
  265MOL0     O35671  11.632   6.176  10.768 -0.4507  0.8985  0.3107
  265MOL0     C35672  11.728   6.273  10.797  0.6094  0.6712  0.6035
  265MOL0     C35673  11.678   6.404  10.827 -0.3877  0.1042 -0.6125
  265MOL0     C35674  11.761   6.499  10.890  0.1017 -0.2993 -0.2895
  265MOL0     C35675  11.898   6.464  10.913  0.5689  0.5220  0.1576
  265MOL0     O35676  11.974   6.566  10.973 -0.9095 -0.0057  0.6683
  265MOL0     C35677  12.107   6.548  11.027 -0.4793 -0.3870 -0.9257
  265MOL0     C35678  12.220   6.545  10.930 -0.9204  0.1550 -0.0001
  265MOL0     C35679  12.358   6.539  10.982 -1.0408  0.5898 -0.7266
  265MOL0     C35680  12.471   6.585  10.878  0.9763  0.5725 -0.7508
  265MOL0     C35681  12.466   6.504  10.753 -0.0252 -0.3328  0.4715
  265MOL0     C35682  12.504   6.360  10.764  0.5680 -0.5384 -0.8575
  265MOL0     C35683  12.638   6.330  10.824 -0.4773  0.5249 -0.9821
  265MOL0     C35684  12.761   6.377  10.754 -0.5448 -0.7311  0.7073
  265MOL0    Cl35685  12.779   6.319  10.577 -0.0025  0.1652 -0.5119
  265MOL0     C35686  11.949   6.336  10.881 -0.0269 -0.8588  0.0294
  265MOL0     C35687  11.865   6.238  10.818 -0.0651 -0.1587 -0.2099
  265MOL0     O35688  11.744   6.062  10.596  0.6719  0.8089  0.9746
  265MOL0     C35689  11.543   5.890  10.829  0.1946 -0.3963 -0.6310
  265MOL0     C35690  11.469   5.774  10.852  0.2757 -0.1674  0.5052
  265MOL0     N35691  11.330   5.039  11.057  0.2015 -0.4263  0.1152
  265MOL0     N35692  11.325   4.916  11.042  1.0343  0.2056  1.0699
  265MOL0     C35693  11.008   3.867  10.522 -0.1281  0.6572 -0.1588
  265MOL0     C35694  10.923   3.772  10.474 -0.4011 -0.2105 -0.3282
  265MOL0     C35695  10.789   3.441  10.179 -0.0707  0.2490  0.5569
  265MOL0     C35696  10.824   3.310  10.122 -0.6299 -0.6664  0.4968
  265MOL0     C35697  10.735   3.239  10.036 -1.0896  0.1952  0.2146
  265MOL0     C35698  10.606   3.286  10.010  0.5260 -0.7888 -0.6269
  265MOL0     O35699  10.521   3.224   9.920  0.0480 -0.9675  0.4457
  265MOL0     C35700  10.401   3.163   9.977 -0.9801 -0.0106  0.1895
  265MOL0     C35701  10.381   3.021   9.952 -0.2740 -0.0035  0.3456
  265MOL0     C35702  10.271   2.959  10.038 -0.0394 -0.2876  0.7513
  265MOL0     C35703  10.264   2.806  10.007  0.4769  0.1857  0.3506
  265MOL0     C35704  10.358   2.734  10.088  0.4477  0.2933  0.0088
  265MOL0     C35705  10.431   2.681  10.170 -0.3658  0.9044 -0.7738
  265MOL0     C35706  10.566   3.401  10.077  0.0487 -0.1224 -0.6975
  265MOL0     C35707  10.661   3.477  10.157  0.5517  0.0434  1.6765
  265MOL0     H35708  11.004   3.765  10.155 -1.6173 -5.3209  1.5202
  265MOL0     H35709  11.153   3.958  10.220 -0.6870  0.4986  0.1310
  265MOL0     H35710  11.114   4.039  10.692  1.0266  0.9541  0.7721
  265MOL0     H35711  11.245   3.914  10.676  0.6524 -0.1100  0.7623
  265MOL0     H35712  11.413   4.057  10.684  2.1878  3.0158  1.9603
  265MOL0     H35713  11.326   4.194  10.631  0.6662 -0.3385  0.1818
  265MOL0     H35714  11.289   4.057  10.903 -0.1109 -0.4814 -0.5475
  265MOL0     H35715  11.409   4.177  10.874 -0.3063  2.5575  0.4508
  265MOL0     H35716  11.158   4.288  10.784  3.0890  2.1404 -0.7909
  265MOL0     H35717  11.140   4.229  10.951  0.3738  1.5520  1.6335
  265MOL0     H35718  11.339   4.367  11.001  3.4862 -1.5928 -2.4220
  265MOL0     H35719  11.358   4.412  10.833  0.3523  1.3096  0.6923
  265MOL0     H35720  11.153   4.522  10.799  0.9943  1.1440  1.1497
  265MOL0     H35721  11.106   4.486  10.969 -0.1838  1.7580  0.8123
  265MOL0     H35722  11.261   4.637  11.060 -1.4935  0.6505 -0.0653
  265MOL0     H35723  11.364   4.632  10.915 -0.3352  3.0303 -2.1186
  265MOL0     H35724  11.093   4.761  10.970  0.2988 -0.9758  1.8270
  265MOL0     H35725  11.160   4.752  10.801  1.6363  0.3024 -0.1710
  265MOL0     H35726  11.099   5.009  10.824 -0.6003  0.4857  1.3702
  265MOL0     H35727  11.115   5.234  10.900 -0.3227 -3.3270  0.6733
  265MOL0     H35728  11.169   5.274  11.065  0.3526 -0.9731  0.8888
  265MOL0     H35729  11.418   5.297  10.938  1.6478  1.9945 -0.6925
  265MOL0     H35730  11.314   5.436  10.943  0.5652  0.0180  0.8590
  265MOL0     H35731  11.226   5.357  10.718 -0.1619 -1.1998 -1.3769
  265MOL0     H35732  11.353   5.237  10.719  3.5038  1.4868  0.3172
  265MOL0     H35733  11.431   5.443  10.602  1.3125  3.1851 -0.9088
  265MOL0     H35734  11.524   5.453  10.741 -0.3350 -0.9495  0.2178
  265MOL0     H35735  11.429   5.668  10.532  0.3579  2.6379 -1.9695
  265MOL0     H35736  11.515   5.978  10.402  0.3180  2.3797  2.8188
  265MOL0     H35737  11.677   5.907  10.431 -1.2556  1.7636  1.0504
  265MOL0     H35738  11.536   5.818  10.365 -1.8816  0.3281  0.3646
  265MOL0     H35739  11.576   6.423  10.796 -0.0729 -0.5467 -2.1423
  265MOL0     H35740  11.730   6.603  10.902  0.0250 -0.1098 -1.8422
  265MOL0     H35741  12.121   6.632  11.095  0.8897  0.1397 -1.8144
  265MOL0     H35742  12.113   6.464  11.098  1.6807 -0.0264 -0.6155
  265MOL0     H35743  12.196   6.469  10.855  0.2528  0.4987 -0.7393
  265MOL0     H35744  12.215   6.639  10.875  1.4482 -0.8549 -2.1360
  265MOL0     H35745  12.377   6.436  11.015 -2.9437  0.8758  1.5220
  265MOL0     H35746  12.372   6.608  11.066 -2.5583  0.6767 -0.5290
  265MOL0     H35747  12.449   6.688  10.848  0.6372  0.3271 -1.3477
  265MOL0     H35748  12.568   6.581  10.929 -0.6862  2.2677  2.9756
  265MOL0     H35749  12.542   6.548  10.688  0.0095 -1.4688 -0.2861
  265MOL0     H35750  12.373   6.531  10.702  0.5375  0.4199 -0.1719
  265MOL0     H35751  12.426   6.312  10.823  3.7056 -2.5398  1.9987
  265MOL0     H35752  12.497   6.322  10.662  0.5941  2.4869 -2.0956
  265MOL0     H35753  12.654   6.223  10.838  2.0080  0.7691 -1.4383
  265MOL0     H35754  12.647   6.376  10.923 -0.9528 -1.6235  0.1136
  265MOL0     H35755  12.848   6.351  10.814 -1.2633 -0.5869  1.8440
  265MOL0     H35756  12.767   6.486  10.747 -1.4176 -0.4517  3.1407
  265MOL0     H35757  12.046   6.297  10.908  0.7798  0.6917 -0.5351
  265MOL0     H35758  11.898   6.136  10.802 -2.0273 -0.8780  0.0189
  265MOL0     H35759  11.574   5.955  10.911  0.4041 -1.1943 -0.0673
  265MOL0     H35760  11.440   5.739  10.950  2.4923 -3.8356  0.0066
  265MOL0     H35761  11.015   3.875  10.630  1.1628  0.2095 -0.1944
  265MOL0     H35762  10.861   3.715  10.542 -1.1402  2.0509  1.0013
  265MOL0     H35763  10.926   3.277  10.141 -0.0709 -1.0376 -2.5433
  265MOL0     H35764  10.776   3.153   9.983 -0.1275  0.0163  1.2391
  265MOL0     H35765  10.410   3.171  10.085  2.2288 -0.8686  0.0900
  265MOL0     H35766  10.305   3.205   9.946 -1.6275 -0.9335  0.8664
  265MOL0     H35767  10.469   2.961   9.974  0.1808 -0.5676 -2.6276
  265MOL0     H35768  10.356   3.015   9.846 -2.0179  0.2444  0.7085
  265MOL0     H35769  10.187   3.023  10.009  1.1663  0.6175 -0.9707
  265MOL0     H35770  10.295   2.961  10.145  1.5976  0.3488  0.4108
  265MOL0     H35771  10.279   2.785   9.901  2.9133  0.7234  0.5310
  265MOL0     H35772  10.166   2.767  10.037  0.0044  0.8648 -0.2778
  265MOL0     H35773  10.507   2.630  10.226 -2.3854  0.9555  2.2740
  265MOL0     H35774  10.466   3.441  10.066  0.6266  2.4209  1.9839
  265MOL0     H35775  10.622   3.560  10.214 -1.9604 -0.1982  0.4609
  266MOL0     O35776   6.454   3.671   4.191 -0.7897  0.2465  0.1917
  266MOL0     C35777   6.364   3.718   4.261  0.5303 -0.8824  0.4458
  266MOL0     O35778   6.362   3.728   4.401  0.0565 -0.7239 -0.5108
  266MOL0     C35779   6.465   3.672   4.459 -0.2577  0.1724 -0.7413
  266MOL0     C35780   6.478   3.539   4.483 -0.2688  0.8047  0.0688
  266MOL0     C35781   6.574   3.484   4.569 -0.3330 -0.7718 -0.6276
  266MOL0     C35782   6.665   3.565   4.632  0.0039 -0.1482  0.0034
  266MOL0     O35783   6.767   3.515   4.716  0.4179 -0.0990  0.2938
  266MOL0     C35784   6.854   3.430   4.643  0.3988 -0.7942 -0.3397
  266MOL0     C35785   6.821   3.272   4.670 -0.4764  0.3574 -0.7055
  266MOL0     C35786   6.929   3.229   4.767  0.4685  0.5927  1.0091
  266MOL0     C35787   6.895   3.272   4.913 -0.2158 -0.4419 -0.3552
  266MOL0     C35788   7.005   3.236   5.018  0.2328  0.9095  0.8166
  266MOL0     C35789   7.155   3.263   4.984  0.0390 -0.0242  0.7827
  266MOL0     C35790   7.232   3.288   5.116 -0.1554 -0.1503  0.6575
  266MOL0     C35791   7.238   3.151   5.192  0.1624 -0.7986  0.6587
  266MOL0     N35792   7.355   3.137   5.282 -0.2922  0.3969  0.8033
  266MOL0     C35793   7.359   3.076   5.406  0.0047 -0.3655  0.2480
  266MOL0     C35794   7.486   3.106   5.446  0.0478  0.3496 -0.3737
  266MOL0     C35795   7.530   3.091   5.588 -0.3038 -0.0482  0.5911
  266MOL0     C35796   7.676   3.098   5.613 -0.4603 -0.3524 -0.1820
  266MOL0     C35797   7.765   3.000   5.528 -0.4486  0.2476 -0.2648
  266MOL0     C35798   7.768   2.866   5.599 -0.3528 -0.1367 -0.6289
  266MOL0     O35799   7.874   2.790   5.545 -0.2770 -0.2179  0.7179
  266MOL0     C35800   7.948   2.696   5.619 -0.1354 -0.4754 -0.0080
  266MOL0     C35801   8.075   2.654   5.571 -0.4390 -0.0976  0.2992
  266MOL0     C35802   8.147   2.546   5.630  0.3098  0.7168 -0.6324
  266MOL0     C35803   8.285   2.505   5.572  0.2721  0.2758 -0.1570
  266MOL0     C35804   8.107   2.501   5.767  0.6351  0.3754  0.3857
  266MOL0     C35805   8.188   2.416   5.868  0.0629  0.3242  1.4222
  266MOL0     O35806   8.244   2.301   5.823 -0.1055 -0.3123  0.4299
  266MOL0     C35807   8.322   2.223   5.906 -0.8327 -0.4336 -0.1105
  266MOL0     C35808   8.436   2.279   5.961  0.0184 -0.5204 -0.0562
  266MOL0     C35809   8.511   2.203   6.046  0.6628  1.0399 -0.7010
  266MOL0     C35810   8.465   2.070   6.095 -0.4929  1.1948 -0.0251
  266MOL0     O35811   8.538   1.993   6.188  0.3247  0.1925  0.0553
  266MOL0     C35812   8.670   2.030   6.224  0.1679 -0.2764 -0.0052
  266MOL0     C35813   8.653   2.074   6.369  0.1041  0.4068 -0.2931
  266MOL0     C35814   8.592   2.201   6.404  0.1925 -0.2006 -0.8489
  266MOL0     C35815   8.595   2.227   6.563 -0.0672 -0.4651  0.4281
  266MOL0     C35816   8.540   2.371   6.589  0.8253 -0.4296  0.5951
  266MOL0     C35817   8.459   2.368   6.717  0.0561  0.0491  0.4224
  266MOL0     C35818   8.400   2.502   6.753 -0.3767  0.6304  0.7849
  266MOL0     C35819   8.283   2.509   6.850  0.0539 -0.1891 -0.2329
  266MOL0    Cl35820   8.130   2.477   6.770 -0.2212  0.1121  0.3547
  266MOL0     C35821   8.360   2.021   6.026  0.5595  0.3216  0.1691
  266MOL0     C35822   8.290   2.091   5.928  0.5351 -0.4864  0.0011
  266MOL0     O35823   8.184   2.454   5.985  0.0657 -0.3811  0.4786
  266MOL0     C35824   7.975   2.538   5.810 -0.8811  0.0428 -0.5445
  266MOL0     C35825   7.906   2.625   5.732 -0.4464  0.0772 -0.2640
  266MOL0     N35826   7.559   3.160   5.340  0.6528 -0.2963 -0.1254
  266MOL0     N35827   7.476   3.182   5.248  1.2247 -0.1206  0.2866
  266MOL0     C35828   6.650   3.700   4.626 -0.8338 -0.6345  0.4645
  266MOL0     C35829   6.550   3.757   4.537 -0.0529  0.0046 -0.0426
  266MOL0     C35830   6.243   3.754   4.204  0.1749 -0.9069  1.0148
  266MOL0     C35831   6.162   3.862   4.246  0.9520 -1.0529 -1.1142
  266MOL0     C35832   6.044   3.892   4.183  0.3819 -0.0673  0.0925
  266MOL0     C35833   5.998   3.821   4.078  0.3539 -0.3037  1.0678
  266MOL0     O35834   5.873   3.843   4.018 -0.2521 -0.5632  0.1737
  266MOL0     C35835   5.759   3.848   4.101  1.1170 -0.9428 -0.0981
  266MOL0     C35836   5.656   3.934   4.042 -0.2305  0.2465 -0.4315
  266MOL0     C35837   5.527   3.936   4.121 -0.1008 -0.4311 -0.8017
  266MOL0     C35838   5.422   4.030   4.066  0.1782 -0.0910  0.7538
  266MOL0     C35839   5.400   4.010   3.930 -0.0128  0.9601  0.2194
  266MOL0     C35840   5.402   3.992   3.806 -0.0854 -0.1995 -0.3447
  266MOL0     C35841   6.073   3.716   4.026  0.9435 -1.0080 -0.6965
  266MOL0     C35842   6.189   3.680   4.097 -0.5129  0.2164 -0.1012
  266MOL0     H35843   6.404   3.472   4.439  0.5778  0.7685 -1.3331
  266MOL0     H35844   6.563   3.378   4.588  0.9756 -0.7468  0.4134
  266MOL0     H35845   6.856   3.444   4.535  1.0579 -1.2579 -0.3945
  266MOL0     H35846   6.961   3.441   4.664  0.8741 -0.3539 -2.8007
  266MOL0     H35847   6.721   3.268   4.714  0.2549 -1.4391  0.9603
  266MOL0     H35848   6.821   3.216   4.575 -2.1743 -1.1911  0.1319
  266MOL0     H35849   6.935   3.120   4.767  1.4249  0.6228 -0.0328
  266MOL0     H35850   7.031   3.250   4.733 -0.2269  1.3222 -0.7476
  266MOL0     H35851   6.888   3.381   4.905  0.5594 -0.3459  0.1126
  266MOL0     H35852   6.799   3.233   4.947 -0.1154 -0.0415  0.4158
  266MOL0     H35853   6.983   3.283   5.114  0.7874 -0.3030  1.5581
  266MOL0     H35854   7.004   3.127   5.029  0.0002  0.9434  1.1506
  266MOL0     H35855   7.198   3.191   4.913  0.6222  1.5203 -0.4708
  266MOL0     H35856   7.157   3.358   4.930  2.2477 -0.1751  0.5087
  266MOL0     H35857   7.332   3.325   5.090  0.1156 -1.1742  0.1971
  266MOL0     H35858   7.181   3.363   5.178  0.4214  1.3502 -0.6225
  266MOL0     H35859   7.248   3.072   5.117 -2.1468 -0.8493  0.3292
  266MOL0     H35860   7.149   3.133   5.254  1.1913 -1.8407  1.8965
  266MOL0     H35861   7.286   3.032   5.474  0.4240 -0.2453  0.7866
  266MOL0     H35862   7.491   3.171   5.651 -0.9156  1.5738 -1.7129
  266MOL0     H35863   7.487   2.996   5.622  0.7706 -1.1549 -1.0052
  266MOL0     H35864   7.693   3.095   5.721  1.0358  2.5698 -0.2198
  266MOL0     H35865   7.712   3.195   5.576  0.2350  0.3119  2.0807
  266MOL0     H35866   7.870   3.031   5.524 -0.4245  0.0838 -0.9200
  266MOL0     H35867   7.740   2.994   5.422 -2.4206 -0.5815  0.2118
  266MOL0     H35868   7.679   2.803   5.592 -0.0082 -0.4923 -2.2520
  266MOL0     H35869   7.784   2.869   5.707 -0.2586 -2.8354 -0.4828
  266MOL0     H35870   8.098   2.697   5.474 -0.9513 -1.3293 -0.3788
  266MOL0     H35871   8.273   2.502   5.464 -0.4392 -1.0079 -0.0662
  266MOL0     H35872   8.364   2.578   5.594 -0.2805  1.6732 -2.4556
  266MOL0     H35873   8.322   2.414   5.619 -0.6853  0.7477  1.6242
  266MOL0     H35874   8.455   2.385   5.944  0.8289 -0.8459 -1.3027
  266MOL0     H35875   8.593   2.259   6.088 -0.2459 -0.0937  2.8995
  266MOL0     H35876   8.738   1.946   6.210  2.0788  1.0741  0.7237
  266MOL0     H35877   8.712   2.123   6.186  1.6493  0.5536  3.3004
  266MOL0     H35878   8.605   1.990   6.419  2.5640  0.4360  2.4106
  266MOL0     H35879   8.747   2.073   6.426 -1.5339  4.7491  3.0387
  266MOL0     H35880   8.486   2.208   6.379 -1.2978  0.2257  4.4348
  266MOL0     H35881   8.636   2.292   6.360  0.2382  0.4362  0.4683
  266MOL0     H35882   8.535   2.145   6.606  0.8728 -0.8874  0.9644
  266MOL0     H35883   8.690   2.205   6.614  0.4860 -0.4152 -0.5654
  266MOL0     H35884   8.477   2.397   6.503 -0.5353 -4.9353 -0.0719
  266MOL0     H35885   8.624   2.440   6.594  0.0204  0.8570 -1.8498
  266MOL0     H35886   8.376   2.298   6.707  1.0155 -0.9761 -0.7501
  266MOL0     H35887   8.523   2.327   6.795  1.4954 -4.5167 -2.7407
  266MOL0     H35888   8.373   2.566   6.668  0.7888  0.5200  0.3103
  266MOL0     H35889   8.483   2.566   6.786 -0.0069  1.4369 -1.5274
  266MOL0     H35890   8.280   2.606   6.900 -0.0157 -0.3551  0.0867
  266MOL0     H35891   8.301   2.430   6.924  0.6431 -3.1291 -3.2567
  266MOL0     H35892   8.304   1.931   6.050 -0.6461  1.1512  0.5811
  266MOL0     H35893   8.219   2.032   5.872  1.7635 -2.5264  0.4801
  266MOL0     H35894   7.922   2.493   5.893 -0.0872  2.4022  1.3357
  266MOL0     H35895   7.812   2.650   5.781 -0.7459  0.1493 -0.8738
  266MOL0     H35896   6.723   3.758   4.681 -0.4455 -0.0944 -0.5751
  266MOL0     H35897   6.556   3.864   4.517  1.0803 -0.3784 -2.0532
  266MOL0     H35898   6.197   3.921   4.330  0.7514 -2.5062  0.0076
  266MOL0     H35899   5.993   3.978   4.227 -0.8593  0.1610 -1.6961
  266MOL0     H35900   5.716   3.748   4.103  1.6642 -1.1785  1.6005
  266MOL0     H35901   5.782   3.887   4.201 -1.3717 -2.6317  1.2354
  266MOL0     H35902   5.638   3.896   3.941 -1.0933 -2.2278  0.5650
  266MOL0     H35903   5.689   4.038   4.045  0.4395  0.0138  1.6246
  266MOL0     H35904   5.539   3.973   4.223  1.0280  1.6094 -1.6086
  266MOL0     H35905   5.481   3.837   4.128 -1.3222  0.1795  0.2505
  266MOL0     H35906   5.465   4.128   4.090  1.3617  0.1050 -1.8116
  266MOL0     H35907   5.334   4.019   4.131  1.4457 -0.8365  2.3939
  266MOL0     H35908   5.423   3.988   3.701  1.2030  1.7242 -0.2315
  266MOL0     H35909   6.037   3.660   3.940  0.2670 -2.1503  0.2959
  266MOL0     H35910   6.219   3.582   4.061 -1.7301 -0.7479  1.4038
  267MOL0     O35911   2.596  11.366   3.526 -0.2107 -0.1651 -0.2212
  267MOL0     C35912   2.609  11.489   3.513 -1.0350 -1.0619 -0.7892
  267MOL0     O35913   2.554  11.567   3.417 -0.2758  0.2950 -0.1472
  267MOL0     C35914   2.480  11.513   3.317  0.4426  0.0078 -0.7153
  267MOL0     C35915   2.516  11.394   3.256 -1.0629 -0.9076  0.1721
  267MOL0     C35916   2.445  11.333   3.151 -0.0001 -0.1301  0.3095
  267MOL0     C35917   2.336  11.400   3.107  0.1496 -1.0668  0.7665
  267MOL0     O35918   2.258  11.372   2.994 -0.2153  0.2366  0.7848
  267MOL0     C35919   2.316  11.299   2.879  1.2344  0.6184 -0.9041
  267MOL0     C35920   2.277  11.380   2.755 -0.0703  0.1599 -0.2745
  267MOL0     C35921   2.122  11.381   2.750  0.4084 -0.2577  0.2568
  267MOL0     C35922   2.074  11.437   2.616 -0.1326  0.8402  0.0694
  267MOL0     C35923   1.925  11.426   2.594  0.2505  0.8599 -0.5402
  267MOL0     C35924   1.865  11.288   2.633  0.3261 -0.7087  0.3365
  267MOL0     C35925   1.711  11.287   2.605  0.2426 -0.6717  0.3180
  267MOL0     C35926   1.659  11.144   2.598  0.1441 -0.1026  0.3752
  267MOL0     N35927   1.527  11.145   2.526 -0.0597  0.2980  0.8927
  267MOL0     C35928   1.514  11.166   2.388  0.0349  0.7479 -0.5006
  267MOL0     C35929   1.383  11.199   2.372 -0.3706 -0.8668  0.5687
  267MOL0     C35930   1.318  11.234   2.245 -0.8550 -0.5162 -0.4075
  267MOL0     C35931   1.255  11.108   2.187 -0.7519  0.4818 -0.4910
  267MOL0     C35932   1.223  11.135   2.042  0.2486  0.9906  0.3983
  267MOL0     C35933   1.193  11.011   1.950  0.1836  0.6414 -1.3433
  267MOL0     O35934   1.159  11.060   1.825 -0.5089  0.0864  0.9480
  267MOL0     C35935   1.117  10.967   1.723 -0.7322  0.2051  0.0062
  267MOL0     C35936   1.112  10.822   1.731  0.5479 -0.2766 -0.5582
  267MOL0     C35937   1.071  10.748   1.613 -0.5796 -0.3585  0.6786
  267MOL0     C35938   1.072  10.596   1.621  0.2766 -0.0596  0.1611
  267MOL0     C35939   1.029  10.815   1.494  0.8880  0.6602 -0.5384
  267MOL0     C35940   0.999  10.738   1.367 -1.2458 -0.5824  0.5342
  267MOL0     O35941   0.987  10.827   1.254 -0.2199  0.2761 -0.1093
  267MOL0     C35942   0.931  10.771   1.139  0.0898  0.3635  0.5631
  267MOL0     C35943   1.017  10.754   1.024 -0.1080 -0.4012  0.3428
  267MOL0     C35944   0.963  10.709   0.895  0.2935 -0.2069 -0.3578
  267MOL0     C35945   0.823  10.690   0.887 -0.1692  0.3830 -1.1973
  267MOL0     O35946   0.785  10.631   0.767  0.1329  0.0122 -0.0064
  267MOL0     C35947   0.654  10.667   0.710 -0.0637 -0.7164 -0.0597
  267MOL0     C35948   0.669  10.670   0.557 -0.2386  0.1302 -0.0688
  267MOL0     C35949   0.720  10.541   0.498 -0.1684 -0.6518 -0.2043
  267MOL0     C35950   0.735  10.556   0.348 -0.4685 -0.0683  0.1527
  267MOL0     C35951   0.782  10.418   0.299 -0.2658 -0.3075  0.5339
  267MOL0     C35952   0.778  10.390   0.152 -0.3503 -0.9227  0.1275
  267MOL0     C35953   0.652  10.425   0.091  0.9572  0.4316  0.0380
  267MOL0     C35954   0.638  10.380  -0.054 -0.4241  0.4093  0.5722
  267MOL0    Cl35955   0.759  10.433  -0.174  0.3084  0.0998 -0.3750
  267MOL0     C35956   0.742  10.707   1.002 -0.9991 -0.7081 -0.5027
  267MOL0     C35957   0.796  10.756   1.127  0.8150  0.6110  0.7678
  267MOL0     O35958   0.994  10.617   1.359  0.2434  0.6100 -0.0693
  267MOL0     C35959   1.026  10.957   1.501  0.1637  0.9951  0.3723
  267MOL0     C35960   1.075  11.023   1.603 -0.3647 -0.5482  0.6448
  267MOL0     N35961   1.323  11.193   2.501  0.1835 -0.1983  0.9858
  267MOL0     N35962   1.407  11.153   2.585 -0.9130  0.8414  0.6080
  267MOL0     C35963   2.292  11.527   3.166 -0.2009 -0.5916 -0.4211
  267MOL0     C35964   2.363  11.581   3.270  0.3787  0.0934  0.2536
  267MOL0     C35965   2.683  11.567   3.616 -0.4590 -0.2339  0.0406
  267MOL0     C35966   2.772  11.500   3.695 -0.0877  0.1975 -1.0097
  267MOL0     C35967   2.867  11.564   3.778  0.7849 -0.3060  0.2303
  267MOL0     C35968   2.856  11.708   3.790 -0.4284 -0.3384 -0.8107
  267MOL0     O35969   2.941  11.768   3.881  0.1966  0.5868 -0.1794
  267MOL0     C35970   2.875  11.864   3.963  0.5071 -0.1130  0.2016
  267MOL0     C35971   2.978  11.887   4.074 -0.0650  0.0356 -0.3073
  267MOL0     C35972   3.058  11.768   4.114  0.1508  0.0322 -0.8399
  267MOL0     C35973   3.148  11.797   4.234  0.4677  0.4856  0.4375
  267MOL0     C35974   3.186  11.677   4.310 -1.5300  0.6517  0.3451
  267MOL0     C35975   3.217  11.578   4.372  0.5093 -0.7430 -0.9695
  267MOL0     C35976   2.765  11.776   3.706  0.6507 -0.0775 -0.4293
  267MOL0     C35977   2.673  11.708   3.618 -0.0601  0.5008 -0.3703
  267MOL0     H35978   2.610  11.346   3.281 -0.5862 -2.0677 -3.2259
  267MOL0     H35979   2.476  11.238   3.108  1.7966  1.1583 -1.4184
  267MOL0     H35980   2.426  11.294   2.879  1.2282  0.4718 -1.1793
  267MOL0     H35981   2.280  11.196   2.888  2.7401  0.0638 -0.9203
  267MOL0     H35982   2.312  11.481   2.777  2.5293 -0.1648 -2.4148
  267MOL0     H35983   2.328  11.360   2.660 -1.5049 -0.8144 -0.8783
  267MOL0     H35984   2.090  11.277   2.758  0.8232 -0.6694 -2.5094
  267MOL0     H35985   2.068  11.433   2.830 -2.7845  0.6596 -2.2552
  267MOL0     H35986   2.103  11.542   2.609  3.0830  0.2638  2.5735
  267MOL0     H35987   2.125  11.382   2.535  1.5343  1.3895  0.6987
  267MOL0     H35988   1.878  11.510   2.647  1.1392  0.9458  0.1289
  267MOL0     H35989   1.918  11.443   2.486 -3.6411 -3.0640 -1.2098
  267MOL0     H35990   1.915  11.202   2.588  1.6587  1.6249 -3.0894
  267MOL0     H35991   1.875  11.280   2.742 -1.6476  1.1145  0.7274
  267MOL0     H35992   1.660  11.364   2.663 -1.3291  1.2169 -3.2626
  267MOL0     H35993   1.699  11.331   2.506 -2.2259  0.0894  0.8881
  267MOL0     H35994   1.651  11.109   2.701  1.2039 -2.6726 -0.3469
  267MOL0     H35995   1.733  11.089   2.540  2.3511  1.4052  1.6275
  267MOL0     H35996   1.596  11.161   2.317  0.5484 -3.6144  0.1587
  267MOL0     H35997   1.238  11.307   2.234 -0.6757 -0.4065 -1.0261
  267MOL0     H35998   1.393  11.282   2.181 -0.9497 -0.8373 -0.7634
  267MOL0     H35999   1.176  11.064   2.249  2.8358  0.2538  4.5623
  267MOL0     H36000   1.328  11.026   2.190 -3.0884 -1.7837  2.8084
  267MOL0     H36001   1.309  11.184   1.996  0.7326 -1.6930 -1.7942
  267MOL0     H36002   1.140  11.205   2.030 -0.2147  0.0898 -2.1630
  267MOL0     H36003   1.114  10.948   1.992 -1.6249  2.4670 -1.8002
  267MOL0     H36004   1.279  10.949   1.924  1.6583  1.8175  0.4658
  267MOL0     H36005   1.140  10.780   1.826  0.4810  0.0266 -0.4021
  267MOL0     H36006   0.970  10.559   1.604 -0.6934  2.0469  1.0255
  267MOL0     H36007   1.138  10.552   1.546 -4.3207 -1.1647 -3.8063
  267MOL0     H36008   1.102  10.562   1.720  3.1858  2.9079  0.4581
  267MOL0     H36009   1.125  10.749   1.033  0.1480  2.8861  0.1827
  267MOL0     H36010   1.036  10.682   0.819 -0.1032 -3.3520  0.2272
  267MOL0     H36011   0.583  10.588   0.736  1.9267 -2.0089  1.7317
  267MOL0     H36012   0.619  10.767   0.737 -1.9695 -1.2909 -0.2173
  267MOL0     H36013   0.579  10.709   0.510  0.6482  1.0560 -1.0278
  267MOL0     H36014   0.741  10.751   0.547 -0.0914  0.2517  1.6020
  267MOL0     H36015   0.656  10.455   0.521  0.8327 -1.3330  0.1259
  267MOL0     H36016   0.819  10.515   0.536  1.6570 -0.8891 -4.5552
  267MOL0     H36017   0.640  10.587   0.304 -1.2783 -1.0472  1.1599
  267MOL0     H36018   0.814  10.628   0.324 -0.5501  1.3993  3.6092
  267MOL0     H36019   0.720  10.337   0.339 -2.0907  0.3950 -0.7489
  267MOL0     H36020   0.883  10.414   0.341 -0.3760  2.2925  1.2292
  267MOL0     H36021   0.863  10.432   0.097  1.2060 -3.8888  0.0258
  267MOL0     H36022   0.793  10.281   0.148 -1.1853 -1.0631  0.6682
  267MOL0     H36023   0.627  10.531   0.089 -1.5783 -0.1170 -0.0373
  267MOL0     H36024   0.574  10.370   0.145 -1.2249  2.4956 -0.8438
  267MOL0     H36025   0.543  10.419  -0.093 -1.0568 -0.7104  0.9449
  267MOL0     H36026   0.643  10.271  -0.052  0.6245  0.4468  2.9000
  267MOL0     H36027   0.638  10.676   1.011 -0.7031 -1.4357  0.6205
  267MOL0     H36028   0.731  10.768   1.213  1.3450 -2.5477  1.7437
  267MOL0     H36029   0.998  11.006   1.408  3.4797 -0.3879 -1.5424
  267MOL0     H36030   1.089  11.131   1.595  1.6865 -0.5938  2.6918
  267MOL0     H36031   2.224  11.591   3.111  0.0654 -2.1016 -2.6642
  267MOL0     H36032   2.313  11.670   3.307  0.0532  1.2392 -2.6926
  267MOL0     H36033   2.783  11.393   3.685 -1.4136 -0.0735  0.1706
  267MOL0     H36034   2.929  11.505   3.844 -0.3117 -1.2552  0.4533
  267MOL0     H36035   2.859  11.959   3.910  1.0415 -0.8174 -1.2837
  267MOL0     H36036   2.784  11.818   4.002 -0.6658  2.3789  0.5980
  267MOL0     H36037   2.903  11.906   4.151 -1.3486  0.9241 -1.7062
  267MOL0     H36038   3.042  11.970   4.043 -2.3233  2.6911  1.6394
  267MOL0     H36039   3.113  11.714   4.036 -3.0090 -3.9434 -0.7082
  267MOL0     H36040   2.979  11.700   4.149  1.6779 -0.5285  1.8605
  267MOL0     H36041   3.091  11.865   4.299 -1.0794 -0.4367  0.0987
  267MOL0     H36042   3.233  11.853   4.195  0.4871  1.9519  2.4326
  267MOL0     H36043   3.232  11.490   4.431  0.6931 -0.3352 -0.4019
  267MOL0     H36044   2.765  11.884   3.710 -1.5629 -0.0240  3.6336
  267MOL0     H36045   2.611  11.769   3.553 -0.8829 -1.9211 -2.0114
  268MOL0     O36046   3.918   0.183  10.396  0.1726 -0.0648  0.9692
  268MOL0     C36047   3.949   0.066  10.397 -1.1738 -0.2510 -0.6246
  268MOL0     O36048   4.082   0.021  10.399  0.2861 -0.5264 -0.8154
  268MOL0     C36049   4.195   0.100  10.401 -0.4023  0.3887  0.3170
  268MOL0     C36050   4.311   0.016  10.404 -0.2332  0.0253 -0.5598
  268MOL0     C36051   4.436   0.079  10.406 -0.3566 -0.8130 -0.4227
  268MOL0     C36052   4.450   0.218  10.382 -0.4182  0.2713  0.2447
  268MOL0     O36053   4.568   0.281  10.393  0.4163 -0.6024  0.0867
  268MOL0     C36054   4.669   0.224  10.308  0.0057  0.2668  0.2396
  268MOL0     C36055   4.776   0.332  10.278  0.4624 -0.2341 -0.0925
  268MOL0     C36056   4.730   0.432  10.176 -0.3721 -0.2260  0.2048
  268MOL0     C36057   4.780   0.385  10.037 -0.2487  0.5664 -0.3376
  268MOL0     C36058   4.722   0.487   9.938 -0.1208  0.9675  0.6072
  268MOL0     C36059   4.765   0.463   9.792 -0.4588  0.6976  0.2189
  268MOL0     C36060   4.703   0.579   9.702 -0.8432  0.1000  0.7392
  268MOL0     C36061   4.564   0.562   9.667  0.3646 -0.1593 -0.0433
  268MOL0     N36062   4.533   0.437   9.613  0.3662 -0.5469  0.3516
  268MOL0     C36063   4.405   0.384   9.624 -0.4563  0.3526 -0.1262
  268MOL0     C36064   4.423   0.272   9.542  0.4380  0.2748  0.3456
  268MOL0     C36065   4.311   0.170   9.522 -0.2281  0.2410 -0.0639
  268MOL0     C36066   4.217   0.195   9.402 -0.4667 -1.2631  0.8665
  268MOL0     C36067   4.083   0.114   9.421  0.3512  0.4973  0.2340
  268MOL0     C36068   4.103  -0.036   9.419  0.3998  0.5349 -0.5563
  268MOL0     O36069   4.007  -0.107   9.491  0.0793 -0.3881 -0.1665
  268MOL0     C36070   3.887  -0.150   9.434 -0.3522 -0.4956 -0.0281
  268MOL0     C36071   3.821  -0.072   9.326  0.6295  0.0397 -0.2532
  268MOL0     C36072   3.701  -0.128   9.272 -1.4506  1.0899 -0.3937
  268MOL0     C36073   3.634  -0.047   9.164  0.3921  0.0991  0.4976
  268MOL0     C36074   3.646  -0.247   9.324  0.7615  0.2820  0.0495
  268MOL0     C36075   3.517  -0.315   9.283 -0.0947 -0.1495 -0.0761
  268MOL0     O36076   3.471  -0.412   9.363 -0.0935 -0.2465 -0.0740
  268MOL0     C36077   3.357  -0.477   9.347  0.3853  0.4029  0.4030
  268MOL0     C36078   3.260  -0.456   9.248  0.4365 -1.0221  0.2325
  268MOL0     C36079   3.153  -0.550   9.236 -0.1254 -0.1844 -1.4209
  268MOL0     C36080   3.129  -0.644   9.323 -0.1381  0.1114  0.0639
  268MOL0     O36081   3.010  -0.709   9.304  0.0932  0.1774 -0.4694
  268MOL0     C36082   3.008  -0.850   9.335 -0.4370  0.3795  0.5388
  268MOL0     C36083   2.899  -0.889   9.440 -0.4452  0.1639 -0.1864
  268MOL0     C36084   2.959  -0.908   9.580 -0.0684  0.1250 -0.3758
  268MOL0     C36085   2.856  -0.912   9.694 -0.1016  1.0745 -0.4949
  268MOL0     C36086   2.923  -0.886   9.831  0.2623 -0.2531 -0.5292
  268MOL0     C36087   2.820  -0.864   9.949  0.4076  0.2741  0.1020
  268MOL0     C36088   2.873  -0.826  10.086 -0.0086  0.6001  0.6557
  268MOL0     C36089   2.899  -0.675  10.099 -0.0151  1.1807  0.8659
  268MOL0    Cl36090   2.916  -0.641  10.269 -0.0967  0.2004  0.6257
  268MOL0     C36091   3.221  -0.668   9.424  0.6689 -0.3402 -1.0571
  268MOL0     C36092   3.334  -0.588   9.430 -0.7091 -0.4123  0.6217
  268MOL0     O36093   3.479  -0.290   9.175  0.4464  0.1454  0.1990
  268MOL0     C36094   3.715  -0.318   9.427  0.4743 -0.3898 -0.2318
  268MOL0     C36095   3.840  -0.267   9.475 -0.1925 -0.4874  0.1702
  268MOL0     N36096   4.562   0.256   9.503  0.7041 -0.3961  0.2887
  268MOL0     N36097   4.624   0.363   9.540  0.3195 -0.6434  0.1520
  268MOL0     C36098   4.329   0.300  10.386 -0.0832 -0.2206  0.6444
  268MOL0     C36099   4.210   0.239  10.392 -0.7740  0.6461  1.1239
  268MOL0     C36100   3.838  -0.034  10.398 -0.4433 -0.0487  0.1382
  268MOL0     C36101   3.710  -0.002  10.442 -0.3171 -0.7023  0.3538
  268MOL0     C36102   3.609  -0.094  10.459 -0.8754  0.6171  0.6706
  268MOL0     C36103   3.629  -0.227  10.405  0.0825 -0.3356  0.5553
  268MOL0     O36104   3.528  -0.320  10.415  0.1532  0.1522  0.6204
  268MOL0     C36105   3.519  -0.417  10.313 -0.9212 -0.4798 -0.3002
  268MOL0     C36106   3.382  -0.469  10.273 -0.3302  1.0994 -0.1020
  268MOL0     C36107   3.284  -0.356  10.235  0.6578  0.3576 -0.3094
  268MOL0     C36108   3.137  -0.398  10.220  1.1291  0.5779  0.3086
  268MOL0     C36109   3.054  -0.288  10.179 -0.7473 -0.4502  0.5568
  268MOL0     C36110   2.986  -0.191  10.144 -0.0286 -0.3582 -0.4344
  268MOL0     C36111   3.758  -0.252  10.349 -0.4397 -0.6481 -0.2777
  268MOL0     C36112   3.857  -0.159  10.350 -0.4185  1.4255  0.9492
  268MOL0     H36113   4.293  -0.091  10.410 -4.0927  0.5127 -1.1340
  268MOL0     H36114   4.525   0.017  10.415 -0.2596 -0.5815  0.3277
  268MOL0     H36115   4.699   0.133  10.360 -3.5087 -0.0939  1.9399
  268MOL0     H36116   4.623   0.191  10.214  2.7896 -3.4453 -0.0271
  268MOL0     H36117   4.803   0.386  10.369  3.4752  2.6248 -2.4209
  268MOL0     H36118   4.867   0.285  10.238  0.9707  2.1594 -2.0723
  268MOL0     H36119   4.622   0.446  10.166  0.2265  4.3531 -3.4008
  268MOL0     H36120   4.777   0.527  10.203 -0.0215 -0.4894  0.5383
  268MOL0     H36121   4.888   0.371  10.040 -0.0380  1.5280 -2.3860
  268MOL0     H36122   4.732   0.288  10.017 -1.8184  1.4195 -0.8892
  268MOL0     H36123   4.613   0.473   9.944 -0.1796  0.7475 -0.7685
  268MOL0     H36124   4.754   0.584   9.978 -1.3486  1.0980  1.3256
  268MOL0     H36125   4.874   0.466   9.787 -0.5008  0.2452 -3.7123
  268MOL0     H36126   4.737   0.362   9.761 -1.4697  0.5974  1.3349
  268MOL0     H36127   4.725   0.673   9.752  3.2092 -0.2528 -0.0377
  268MOL0     H36128   4.757   0.581   9.607  0.9889  1.5290  1.7492
  268MOL0     H36129   4.542   0.641   9.594 -1.6568 -0.5484  0.0993
  268MOL0     H36130   4.504   0.580   9.756  0.5553  1.8955 -0.2676
  268MOL0     H36131   4.320   0.418   9.681  0.1030 -2.0780  2.3736
  268MOL0     H36132   4.349   0.068   9.519 -2.3423 -0.5808 -2.8228
  268MOL0     H36133   4.244   0.183   9.608 -1.1434 -0.5322 -0.6356
  268MOL0     H36134   4.265   0.172   9.306  1.2291 -0.7835  1.5566
  268MOL0     H36135   4.202   0.304   9.398  1.1005 -1.0251  0.7356
  268MOL0     H36136   4.029   0.131   9.327  1.9381  2.3217 -0.4041
  268MOL0     H36137   4.022   0.148   9.505 -0.8755 -2.7937  0.8167
  268MOL0     H36138   4.193  -0.040   9.482 -2.0624  1.0682  3.3811
  268MOL0     H36139   4.120  -0.089   9.325  2.9328 -4.5559  2.2893
  268MOL0     H36140   3.852   0.024   9.286  0.2397  0.6409  0.8556
  268MOL0     H36141   3.609  -0.102   9.073 -0.9352 -0.8163  1.3781
  268MOL0     H36142   3.535  -0.029   9.207 -0.7993  0.2061 -2.0542
  268MOL0     H36143   3.672   0.053   9.141  0.5194 -0.4029 -1.7837
  268MOL0     H36144   3.260  -0.371   9.181  1.7312  1.2962  2.9577
  268MOL0     H36145   3.087  -0.535   9.152 -2.1760 -1.0356 -0.0518
  268MOL0     H36146   2.991  -0.899   9.239  1.4234  1.6652 -0.4938
  268MOL0     H36147   3.106  -0.889   9.363 -1.5841 -2.1625  1.3883
  268MOL0     H36148   2.817  -0.817   9.427  0.0809  1.3436  2.3607
  268MOL0     H36149   2.857  -0.986   9.414  0.1059 -0.5525  1.4657
  268MOL0     H36150   3.015  -0.816   9.602  0.1651  0.3164 -1.7035
  268MOL0     H36151   3.013  -1.003   9.584 -2.6683 -1.5094 -1.8308
  268MOL0     H36152   2.776  -0.841   9.672 -1.1623 -0.3684 -1.4402
  268MOL0     H36153   2.801  -1.006   9.696  2.3627 -0.4554 -0.4830
  268MOL0     H36154   2.982  -0.795   9.822  0.8667 -0.8459 -3.3024
  268MOL0     H36155   2.984  -0.966   9.874 -0.8797  1.8151  6.0094
  268MOL0     H36156   2.745  -0.789   9.925  2.0757  2.5674  1.6451
  268MOL0     H36157   2.773  -0.963   9.951  1.4964 -0.2559  0.3187
  268MOL0     H36158   2.963  -0.888  10.096 -1.9450 -2.5573 -0.0422
  268MOL0     H36159   2.795  -0.857  10.156  0.9088  0.7977  1.7788
  268MOL0     H36160   2.813  -0.621  10.058 -1.2520 -1.1240  0.2670
  268MOL0     H36161   2.988  -0.645  10.042  0.0192 -1.8681 -0.8923
  268MOL0     H36162   3.196  -0.737   9.505 -1.4884 -0.7958 -2.0270
  268MOL0     H36163   3.408  -0.611   9.506  0.4352 -1.7103 -0.8265
  268MOL0     H36164   3.679  -0.414   9.462 -1.3300  0.7259  1.2290
  268MOL0     H36165   3.906  -0.337   9.527  1.0078  0.5154  0.0381
  268MOL0     H36166   4.336   0.406  10.367 -0.8373 -0.6573 -2.7415
  268MOL0     H36167   4.125   0.302  10.372 -0.6248 -0.0399 -2.2325
  268MOL0     H36168   3.690   0.102  10.467  0.8889 -1.2103  3.9415
  268MOL0     H36169   3.512  -0.073  10.502 -1.6358 -0.2069 -0.5678
  268MOL0     H36170   3.561  -0.374  10.222 -1.7561  1.1573  0.0577
  268MOL0     H36171   3.573  -0.505  10.351 -1.1070 -0.7246 -0.5977
  268MOL0     H36172   3.334  -0.509  10.364 -1.7980 -0.3551 -1.4456
  268MOL0     H36173   3.388  -0.556  10.208 -2.3805 -1.1657  2.4711
  268MOL0     H36174   3.306  -0.313  10.137 -0.6247 -1.3114 -1.3870
  268MOL0     H36175   3.288  -0.280  10.314  1.2935 -2.5946  2.7267
  268MOL0     H36176   3.095  -0.422  10.318 -2.7371 -1.6414 -1.6519
  268MOL0     H36177   3.118  -0.492  10.168 -0.4979  1.5657 -1.0030
  268MOL0     H36178   2.934  -0.111  10.094 -0.5055  0.2120  0.9414
  268MOL0     H36179   3.774  -0.357  10.326 -4.2869 -1.8551  1.7011
  268MOL0     H36180   3.957  -0.189  10.320 -0.3214  0.4578  2.1909
  269MOL0     O36181   4.656   4.165   7.752  0.9684  0.3784 -0.5397
  269MOL0     C36182   4.673   4.070   7.824 -0.4085  0.5232 -0.2655
  269MOL0     O36183   4.644   3.939   7.796 -0.4574 -1.1442  0.4541
  269MOL0     C36184   4.616   3.913   7.670 -0.3721 -1.0287  0.4043
  269MOL0     C36185   4.705   3.823   7.599  0.4129 -0.1070  0.2251
  269MOL0     C36186   4.672   3.784   7.467 -1.2166  0.7451 -0.2516
  269MOL0     C36187   4.565   3.839   7.403 -0.1650 -0.6978  0.4183
  269MOL0     O36188   4.535   3.819   7.270 -0.5212 -0.1787 -0.1517
  269MOL0     C36189   4.560   3.700   7.205 -1.3392  0.5512  0.2562
  269MOL0     C36190   4.702   3.699   7.143 -0.0694  0.5267  0.4080
  269MOL0     C36191   4.748   3.834   7.090  0.2382 -0.6209 -0.1949
  269MOL0     C36192   4.868   3.802   6.997  0.1794  0.6208 -0.2797
  269MOL0     C36193   4.929   3.931   6.945 -0.2064  0.3134  0.1665
  269MOL0     C36194   5.087   3.922   6.905 -0.2354 -0.0048 -0.2538
  269MOL0     C36195   5.152   4.065   6.859  0.7879  0.8458 -1.0445
  269MOL0     C36196   5.296   4.048   6.805  0.6834 -0.5241 -1.0925
  269MOL0     N36197   5.317   3.917   6.743  0.0435  0.0808  0.3502
  269MOL0     C36198   5.301   3.889   6.611  1.2302 -0.2559  0.0357
  269MOL0     C36199   5.384   3.786   6.589  0.1255 -0.9093  0.3072
  269MOL0     C36200   5.414   3.722   6.453 -0.4613 -1.7162 -0.3887
  269MOL0     C36201   5.501   3.806   6.372 -0.3886  0.4395 -0.7324
  269MOL0     C36202   5.613   3.725   6.301 -0.3359 -0.3031 -0.8975
  269MOL0     C36203   5.720   3.686   6.407  1.0458  0.4456  0.4903
  269MOL0     O36204   5.828   3.622   6.340  0.2390 -0.6358 -0.5717
  269MOL0     C36205   5.951   3.665   6.354  0.1948 -0.6533 -0.7186
  269MOL0     C36206   6.018   3.670   6.476 -1.0598  0.1967  0.3339
  269MOL0     C36207   6.150   3.724   6.482 -0.0777 -0.3200 -0.0266
  269MOL0     C36208   6.232   3.726   6.609 -0.4556  0.3413 -1.0973
  269MOL0     C36209   6.198   3.770   6.359 -0.6451  1.0027  0.6741
  269MOL0     C36210   6.345   3.828   6.342 -0.8831  0.0133  0.4002
  269MOL0     O36211   6.370   3.945   6.285 -0.1984  0.0092 -0.0601
  269MOL0     C36212   6.274   4.040   6.311 -0.6673  0.0705  0.0439
  269MOL0     C36213   6.275   4.117   6.428 -0.5167  0.4357 -0.0383
  269MOL0     C36214   6.177   4.208   6.457  0.1205  0.4324  0.2836
  269MOL0     C36215   6.063   4.222   6.382  0.2896  0.5469 -0.4079
  269MOL0     O36216   5.947   4.294   6.419  0.0284 -0.3621  0.5548
  269MOL0     C36217   5.956   4.437   6.423 -0.4254 -0.7347  0.4946
  269MOL0     C36218   5.972   4.513   6.288 -0.9048 -0.5345  0.0497
  269MOL0     C36219   6.002   4.655   6.312  0.2505 -0.0827  0.7580
  269MOL0     C36220   5.988   4.734   6.178  0.4790 -0.1399 -0.4048
  269MOL0     C36221   6.039   4.878   6.194  0.3291  0.5791 -0.1894
  269MOL0     C36222   5.943   4.948   6.300  0.4870 -1.1636 -0.5454
  269MOL0     C36223   5.964   5.100   6.267  0.2775 -0.3775  0.2314
  269MOL0     C36224   5.896   5.188   6.363  0.7825 -0.0411  0.0890
  269MOL0    Cl36225   5.975   5.173   6.524 -0.2316  0.3156  0.4682
  269MOL0     C36226   6.065   4.144   6.261 -0.4630  0.4170  0.2735
  269MOL0     C36227   6.171   4.059   6.223  0.6771  0.0152  0.0916
  269MOL0     O36228   6.437   3.751   6.381  0.6378 -0.1315  0.4805
  269MOL0     C36229   6.133   3.752   6.239  0.2414 -0.6444  0.6998
  269MOL0     C36230   6.004   3.703   6.239 -0.3393  0.4429  1.0126
  269MOL0     N36231   5.456   3.754   6.701  0.2269 -0.2885  0.1760
  269MOL0     N36232   5.416   3.831   6.791 -0.0661 -0.1796  0.2810
  269MOL0     C36233   4.476   3.907   7.477 -0.2915  0.0796  1.0890
  269MOL0     C36234   4.495   3.939   7.612 -0.6407  0.4981 -0.2778
  269MOL0     C36235   4.736   4.097   7.952 -0.1978  0.4569  0.5203
  269MOL0     C36236   4.769   4.225   7.993 -0.2825  0.9575  0.3086
  269MOL0     C36237   4.794   4.259   8.130  0.3265  0.9921  0.1432
  269MOL0     C36238   4.809   4.155   8.222 -0.7181  0.1382  0.8261
  269MOL0     O36239   4.841   4.195   8.351 -0.4477  0.3696 -0.3412
  269MOL0     C36240   4.886   4.097   8.438  0.2804  0.0608 -0.5030
  269MOL0     C36241   4.899   4.165   8.577 -0.2141 -0.2421  0.7356
  269MOL0     C36242   4.763   4.205   8.641 -0.1902 -0.3710 -0.4566
  269MOL0     C36243   4.783   4.241   8.790  0.4339 -0.0318 -0.6607
  269MOL0     C36244   4.662   4.286   8.855  0.9100 -0.9279  0.1307
  269MOL0     C36245   4.560   4.323   8.903 -0.2727 -0.6957 -0.9246
  269MOL0     C36246   4.786   4.028   8.173  0.0198 -0.0082  0.0138
  269MOL0     C36247   4.741   3.996   8.044  0.2974  0.6558  0.0854
  269MOL0     H36248   4.794   3.789   7.651  1.8590 -1.4482 -2.8554
  269MOL0     H36249   4.741   3.717   7.415 -0.3468 -0.6901  2.5764
  269MOL0     H36250   4.540   3.611   7.266 -2.2733 -1.3777 -2.6805
  269MOL0     H36251   4.486   3.689   7.126 -2.3542  1.5991  1.0444
  269MOL0     H36252   4.785   3.667   7.207 -1.4303 -1.9411  1.0837
  269MOL0     H36253   4.715   3.628   7.062  2.1296 -0.4320  1.5278
  269MOL0     H36254   4.676   3.879   7.020  0.2891  0.0668  0.1909
  269MOL0     H36255   4.776   3.903   7.169  3.3048  0.0938 -1.7619
  269MOL0     H36256   4.939   3.733   7.044 -2.0550 -1.1273  0.7428
  269MOL0     H36257   4.828   3.749   6.910 -1.9417  1.3720  0.1786
  269MOL0     H36258   4.871   3.972   6.862 -0.9729 -0.8805  0.0866
  269MOL0     H36259   4.925   4.002   7.028 -1.6873 -1.0821  1.3618
  269MOL0     H36260   5.142   3.881   6.990 -1.7634 -2.9971 -0.5700
  269MOL0     H36261   5.111   3.851   6.825  0.3870  1.8328 -1.7876
  269MOL0     H36262   5.086   4.111   6.785 -2.2523 -0.3706  0.7363
  269MOL0     H36263   5.139   4.129   6.947 -0.7865  0.8278 -1.2424
  269MOL0     H36264   5.361   4.054   6.893 -1.4313  0.0990  0.4760
  269MOL0     H36265   5.315   4.120   6.725 -0.8136 -0.6696 -1.5912
  269MOL0     H36266   5.231   3.935   6.543 -2.8576 -2.8071  2.1086
  269MOL0     H36267   5.461   3.625   6.472  0.4950 -0.6189  4.1262
  269MOL0     H36268   5.321   3.705   6.398 -0.5978 -1.7954 -0.1384
  269MOL0     H36269   5.551   3.871   6.444 -0.0250 -0.3764 -0.2236
  269MOL0     H36270   5.452   3.876   6.304  0.5656  3.3778  1.3987
  269MOL0     H36271   5.646   3.786   6.217 -1.5043 -1.6607 -2.4218
  269MOL0     H36272   5.572   3.630   6.265 -0.5612 -0.3767 -0.4542
  269MOL0     H36273   5.679   3.613   6.477  1.1464 -0.6986 -0.6018
  269MOL0     H36274   5.752   3.771   6.468 -0.2982  0.0505  1.7974
  269MOL0     H36275   5.972   3.629   6.565 -2.7840  0.1109 -0.5397
  269MOL0     H36276   6.167   3.705   6.695 -2.5984  0.2638 -2.6481
  269MOL0     H36277   6.327   3.675   6.591  0.1093  1.4608 -1.3559
  269MOL0     H36278   6.262   3.828   6.634  0.1736  1.0192 -4.2147
  269MOL0     H36279   6.365   4.103   6.487 -0.1768  0.1090 -0.6234
  269MOL0     H36280   6.175   4.266   6.548 -1.6492  2.0461 -0.6972
  269MOL0     H36281   5.863   4.474   6.466 -0.8777 -1.4226  0.1248
  269MOL0     H36282   6.038   4.466   6.490 -1.6059 -0.7809  1.9975
  269MOL0     H36283   6.052   4.461   6.235 -0.3543 -0.0662  0.4021
  269MOL0     H36284   5.882   4.505   6.226 -1.0727  1.7633 -0.1208
  269MOL0     H36285   6.104   4.670   6.347  1.4898 -0.5802 -2.3304
  269MOL0     H36286   5.922   4.697   6.374  1.0390  2.4196  0.1808
  269MOL0     H36287   6.038   4.685   6.093  2.6164  0.6721  0.3236
  269MOL0     H36288   5.881   4.734   6.154 -0.3171  2.3309  2.5738
  269MOL0     H36289   6.034   4.911   6.090  2.1851 -1.9726 -1.1860
  269MOL0     H36290   6.145   4.865   6.217  0.4531 -5.4359 -2.3651
  269MOL0     H36291   5.836   4.927   6.287 -0.5830  0.7557  3.4650
  269MOL0     H36292   5.967   4.916   6.402  5.1206  2.5880 -0.1343
  269MOL0     H36293   5.917   5.123   6.171  0.7441  3.8140  0.8139
  269MOL0     H36294   6.070   5.128   6.262  0.5643 -1.6469 -2.1573
  269MOL0     H36295   5.791   5.162   6.378  1.3311 -1.1997  2.2956
  269MOL0     H36296   5.885   5.289   6.323 -2.6414 -0.0349  0.7147
  269MOL0     H36297   5.988   4.166   6.188 -2.4124  0.2157  2.1834
  269MOL0     H36298   6.185   4.010   6.126  2.0038  1.0590 -0.2800
  269MOL0     H36299   6.175   3.785   6.145 -1.3938  0.4511  0.3234
  269MOL0     H36300   5.944   3.698   6.149 -0.0870  2.9979  0.6141
  269MOL0     H36301   4.388   3.948   7.429  0.6866  0.0290 -0.8522
  269MOL0     H36302   4.426   3.992   7.677  0.8110  0.9111  0.9674
  269MOL0     H36303   4.751   4.313   7.931 -1.2794 -0.3461 -1.3340
  269MOL0     H36304   4.808   4.357   8.175  1.3760  0.0320  2.0184
  269MOL0     H36305   4.816   4.013   8.447  0.1845 -0.2332 -3.2371
  269MOL0     H36306   4.977   4.046   8.405 -0.3823 -1.8403  0.4288
  269MOL0     H36307   4.956   4.256   8.558 -1.3795  0.1131 -1.3979
  269MOL0     H36308   4.952   4.104   8.651  1.8125  1.6895  0.9797
  269MOL0     H36309   4.704   4.113   8.639  0.8421 -1.0407 -0.8447
  269MOL0     H36310   4.721   4.292   8.590  0.3730  1.4035  1.9415
  269MOL0     H36311   4.863   4.312   8.810  2.7689 -2.1204 -1.9391
  269MOL0     H36312   4.810   4.148   8.842  4.1817  0.8252 -0.8246
  269MOL0     H36313   4.470   4.343   8.957  0.4176 -0.7345  0.2793
  269MOL0     H36314   4.818   3.952   8.245 -0.8648  3.1822  4.1471
  269MOL0     H36315   4.715   3.893   8.022 -3.4978  0.8533  2.7709
  270MOL0     O36316   9.480   9.025  10.977  0.4300  0.1737  0.0241
  270MOL0     C36317   9.478   9.093  11.083  0.9345  0.4669 -0.2719
  270MOL0     O36318   9.364   9.166  11.128 -0.3448 -0.5980 -0.1084
  270MOL0     C36319   9.252   9.118  11.054  0.2810 -0.2996 -0.8061
  270MOL0     C36320   9.176   9.015  11.114  0.0646  0.7177 -0.6704
  270MOL0     C36321   9.064   8.959  11.051 -0.2446  0.8802 -0.7306
  270MOL0     C36322   9.018   9.020  10.942  0.0184 -0.1698  0.1767
  270MOL0     O36323   8.896   8.992  10.896  0.3217  0.3131  0.8391
  270MOL0     C36324   8.796   9.094  10.925 -0.1930  0.4923 -0.0807
  270MOL0     C36325   8.707   9.109  10.799  0.1966  0.1285 -0.8819
  270MOL0     C36326   8.761   9.193  10.678 -0.0333  0.4058 -0.1475
  270MOL0     C36327   8.841   9.110  10.580 -0.4163  0.0698 -0.4773
  270MOL0     C36328   8.856   9.159  10.437 -0.2133  0.2218 -0.4131
  270MOL0     C36329   8.927   9.299  10.441  0.0219  1.4933  0.0287
  270MOL0     C36330   8.945   9.344  10.293  0.4068 -0.0950 -0.7233
  270MOL0     C36331   8.992   9.488  10.295 -0.0862  0.1224 -0.4198
  270MOL0     N36332   9.010   9.509  10.151 -0.7282 -1.2623  0.7684
  270MOL0     C36333   9.118   9.488  10.078 -0.4357  1.1435 -0.7919
  270MOL0     C36334   9.080   9.516   9.946  0.3382 -1.0106 -0.2271
  270MOL0     C36335   9.159   9.474   9.834  0.8307 -0.0642 -0.7126
  270MOL0     C36336   9.172   9.582   9.728  0.1634  1.1184  0.2763
  270MOL0     C36337   9.260   9.538   9.610 -0.2787  0.5081  0.3280
  270MOL0     C36338   9.279   9.653   9.509 -0.1653  0.7348  0.8553
  270MOL0     O36339   9.326   9.772   9.564  0.3535  0.3529 -0.3677
  270MOL0     C36340   9.446   9.762   9.624  0.0090  0.7842 -0.0685
  270MOL0     C36341   9.459   9.829   9.749 -0.2647  0.3892  0.6371
  270MOL0     C36342   9.592   9.838   9.811 -0.2859 -0.1097  0.5431
  270MOL0     C36343   9.594   9.907   9.945  0.2234 -0.0786  0.1499
  270MOL0     C36344   9.707   9.774   9.748  0.1787 -0.3596  0.5644
  270MOL0     C36345   9.836   9.766   9.829 -0.3356 -0.0592  0.1110
  270MOL0     O36346   9.936   9.681   9.788 -0.4549 -0.1388  0.0952
  270MOL0     C36347  10.044   9.664   9.872 -1.4907  0.0612 -0.3414
  270MOL0     C36348  10.025   9.589   9.989  0.0107  1.1835  0.0729
  270MOL0     C36349  10.130   9.575  10.077 -0.9308 -0.3123 -0.6053
  270MOL0     C36350  10.255   9.641  10.054  0.1911 -0.2745 -0.0052
  270MOL0     O36351  10.350   9.627  10.152  0.4781 -0.2345 -0.6121
  270MOL0     C36352  10.481   9.681  10.125  0.2909 -0.0291 -0.2491
  270MOL0     C36353  10.593   9.640  10.234 -0.2628  0.3170  0.1337
  270MOL0     C36354  10.625   9.491  10.217 -0.7229 -0.1337  0.0891
  270MOL0     C36355  10.726   9.479  10.104 -0.0096 -0.6257  0.1049
  270MOL0     C36356  10.760   9.336  10.063 -0.2174  0.2710  0.5822
  270MOL0     C36357  10.877   9.338   9.972 -0.1976 -0.5288  0.2159
  270MOL0     C36358  10.898   9.200   9.894  0.1727  0.4816  0.9148
  270MOL0     C36359  10.938   9.080   9.999  0.9664 -0.5276 -0.2127
  270MOL0    Cl36360  11.012   8.940   9.911 -0.3526 -0.0784  0.2316
  270MOL0     C36361  10.271   9.714   9.940  0.1896 -1.5315 -0.4644
  270MOL0     C36362  10.168   9.725   9.843  0.7022 -0.1477 -0.0241
  270MOL0     O36363   9.856   9.837   9.925 -0.0210 -0.1331  0.0112
  270MOL0     C36364   9.690   9.704   9.627  0.2346  0.3623 -0.2472
  270MOL0     C36365   9.561   9.708   9.561 -0.0824 -0.6054  0.1434
  270MOL0     N36366   8.949   9.569   9.954 -0.2884  0.1542  0.1447
  270MOL0     N36367   8.921   9.570  10.074 -0.3751  0.1804  0.5318
  270MOL0     C36368   9.085   9.129  10.888 -0.2221  0.5480 -1.1499
  270MOL0     C36369   9.203   9.174  10.939 -0.0551 -0.4933 -0.2028
  270MOL0     C36370   9.595   9.093  11.165 -0.1708  0.0381 -0.6759
  270MOL0     C36371   9.590   9.155  11.292  0.4919  0.3054  1.1226
  270MOL0     C36372   9.686   9.137  11.392 -0.1745 -0.4700  0.9506
  270MOL0     C36373   9.779   9.035  11.378 -0.2029 -0.3835  0.0391
  270MOL0     O36374   9.870   9.010  11.481 -0.5031 -0.3264  0.9269
  270MOL0     C36375   9.998   8.955  11.443 -0.0744 -0.6033  0.4145
  270MOL0     C36376  10.101   9.022  11.528 -1.0982 -0.3794  0.4387
  270MOL0     C36377  10.236   8.951  11.534  0.6666  0.1781  0.8768
  270MOL0     C36378  10.331   8.967  11.410  0.4471 -0.0959 -1.0617
  270MOL0     C36379  10.305   9.088  11.325 -0.7534 -0.8193  0.6803
  270MOL0     C36380  10.271   9.180  11.249 -0.7440  0.0216  0.3682
  270MOL0     C36381   9.781   8.961  11.255 -0.0083  0.3871  0.2944
  270MOL0     C36382   9.693   8.990  11.152  0.1586  0.2925 -0.9276
  270MOL0     H36383   9.213   8.983  11.211  0.2098  2.1227 -0.2400
  270MOL0     H36384   9.010   8.879  11.100  0.1226  1.8762  1.4374
  270MOL0     H36385   8.723   9.058  10.997 -0.4953 -0.1344 -0.6961
  270MOL0     H36386   8.835   9.192  10.957  0.9647 -0.2480  0.8565
  270MOL0     H36387   8.701   9.007  10.761  1.1773  1.3543 -4.8385
  270MOL0     H36388   8.612   9.150  10.834  0.3106 -0.3610  0.0426
  270MOL0     H36389   8.672   9.229  10.627 -0.1181  1.1449  0.5100
  270MOL0     H36390   8.827   9.277  10.704  0.8359  0.5236 -2.4949
  270MOL0     H36391   8.942   9.108  10.622  0.5873  0.7881 -2.6923
  270MOL0     H36392   8.820   9.003  10.572  0.6990 -0.2587  0.7241
  270MOL0     H36393   8.914   9.086  10.381 -1.6030  0.6269 -2.4966
  270MOL0     H36394   8.760   9.187  10.392  0.3220  1.9153 -0.5954
  270MOL0     H36395   8.864   9.369  10.497 -0.3706  1.4720 -0.3836
  270MOL0     H36396   9.024   9.287  10.490  0.4587  0.0436 -1.1348
  270MOL0     H36397   9.009   9.279  10.234 -1.2735  1.2242 -4.3053
  270MOL0     H36398   8.845   9.348  10.248  0.5180 -1.5436 -1.1221
  270MOL0     H36399   9.087   9.496  10.350 -0.4770 -1.1355  0.5001
  270MOL0     H36400   8.915   9.551  10.340 -0.9266 -0.5136 -0.9281
  270MOL0     H36401   9.208   9.446  10.122 -2.3440 -1.5059  0.9055
  270MOL0     H36402   9.259   9.449   9.872 -0.0190  0.4526  2.1341
  270MOL0     H36403   9.103   9.386   9.800 -0.5840  1.1792 -1.6916
  270MOL0     H36404   9.207   9.670   9.782 -1.4723 -0.2553  3.9186
  270MOL0     H36405   9.068   9.596   9.696  0.4833  1.6346 -0.5501
  270MOL0     H36406   9.230   9.439   9.575  0.1828  0.3864  0.2778
  270MOL0     H36407   9.361   9.525   9.650  0.3830 -0.2359 -1.5052
  270MOL0     H36408   9.177   9.682   9.480 -0.4777 -0.4453  0.7454
  270MOL0     H36409   9.335   9.630   9.417 -2.4724  0.8579 -0.6786
  270MOL0     H36410   9.371   9.873   9.793 -1.3927 -0.8721 -0.2683
  270MOL0     H36411   9.663   9.992   9.938  1.0045 -0.6630  0.4535
  270MOL0     H36412   9.494   9.936   9.976 -0.2695  0.2242 -1.6388
  270MOL0     H36413   9.642   9.844  10.021  0.9488  2.5295  1.9961
  270MOL0     H36414   9.931   9.547  10.024 -0.2078  1.0712 -0.6208
  270MOL0     H36415  10.128   9.521  10.171  1.1700  1.1787  0.3697
  270MOL0     H36416  10.517   9.639  10.031  1.4476  1.1192 -0.3446
  270MOL0     H36417  10.470   9.789  10.115  0.8690  0.0611  0.0383
  270MOL0     H36418  10.684   9.698  10.216  0.5348 -0.3443  1.9079
  270MOL0     H36419  10.548   9.656  10.332 -1.9607 -2.9422  0.0233
  270MOL0     H36420  10.541   9.425  10.194 -1.8551  0.6950  1.6219
  270MOL0     H36421  10.671   9.458  10.311 -0.4164  1.5963  0.5817
  270MOL0     H36422  10.684   9.526  10.014  1.4358 -2.8967 -1.8448
  270MOL0     H36423  10.818   9.536  10.122 -1.2158  1.4521  0.1070
  270MOL0     H36424  10.678   9.279  10.019  1.7943 -3.7316  1.5858
  270MOL0     H36425  10.778   9.276  10.152 -4.6942  0.0115  1.5460
  270MOL0     H36426  10.840   9.408   9.896  0.1644 -1.8715 -1.2633
  270MOL0     H36427  10.970   9.388  10.003 -0.6407  0.1762  0.4384
  270MOL0     H36428  10.970   9.204   9.812 -0.8615  1.3310  0.0178
  270MOL0     H36429  10.804   9.181   9.843  1.6732 -1.8030 -1.2336
  270MOL0     H36430  11.009   9.125  10.069 -1.3049  2.1253  0.5720
  270MOL0     H36431  10.854   9.048  10.060 -0.9114  0.3196 -2.1998
  270MOL0     H36432  10.368   9.760   9.921  0.6954 -1.5115  1.8611
  270MOL0     H36433  10.171   9.780   9.750 -1.4544 -1.8693 -1.2019
  270MOL0     H36434   9.779   9.657   9.588 -0.7250  0.2721 -2.4734
  270MOL0     H36435   9.556   9.638   9.479 -0.7810  0.5918 -0.8780
  270MOL0     H36436   9.045   9.194  10.812 -0.5862  2.3670  0.5285
  270MOL0     H36437   9.247   9.258  10.887 -2.2650 -0.3240 -1.9660
  270MOL0     H36438   9.519   9.233  11.318  0.9808  0.3908  2.2534
  270MOL0     H36439   9.693   9.199  11.481 -0.1184 -1.1222  1.4035
  270MOL0     H36440   9.994   8.850  11.471  0.2965 -1.0068 -0.9601
  270MOL0     H36441  10.026   8.970  11.338  0.7584  4.1022  1.0674
  270MOL0     H36442  10.066   9.010  11.631 -0.7174  0.5356  0.6771
  270MOL0     H36443  10.120   9.127  11.506  1.6201 -0.9441 -0.2076
  270MOL0     H36444  10.217   8.843  11.544  1.3975 -0.4262 -2.6799
  270MOL0     H36445  10.298   8.990  11.615 -1.4433  2.7820  1.3562
  270MOL0     H36446  10.330   8.877  11.348  0.3292  0.4551 -1.8795
  270MOL0     H36447  10.434   8.982  11.444  0.3943 -0.5090 -0.7182
  270MOL0     H36448  10.226   9.245  11.177  1.3419  1.5775  0.3666
  270MOL0     H36449   9.833   8.866  11.251  0.5516  0.6273  1.5355
  270MOL0     H36450   9.698   8.919  11.070  3.1311  1.5024 -1.9402
  271MOL0     O36451   7.826   4.821   3.701 -0.3323 -0.0155  0.5735
  271MOL0     C36452   7.831   4.845   3.573  0.7514 -0.2201  0.1296
  271MOL0     O36453   7.720   4.884   3.494 -0.0155 -0.6760 -0.4450
  271MOL0     C36454   7.597   4.899   3.554 -0.2466 -0.2326  0.2440
  271MOL0     C36455   7.504   4.797   3.589 -0.3382  0.1251 -0.0243
  271MOL0     C36456   7.389   4.828   3.654  0.1086 -0.3217 -0.3110
  271MOL0     C36457   7.358   4.962   3.669  1.0280 -1.1231 -0.3869
  271MOL0     O36458   7.239   4.991   3.732 -0.0603 -0.5458 -0.6727
  271MOL0     C36459   7.122   4.917   3.694  0.5880 -0.2357 -0.2848
  271MOL0     C36460   7.001   5.014   3.712  0.3520  0.6051  0.4293
  271MOL0     C36461   6.989   5.115   3.603  0.4573  0.2242  0.0762
  271MOL0     C36462   6.849   5.180   3.602  0.1003  0.7137  0.5454
  271MOL0     C36463   6.862   5.322   3.545  0.1572  0.4182 -1.0080
  271MOL0     C36464   6.731   5.393   3.547  0.5738 -0.9877 -0.3584
  271MOL0     C36465   6.762   5.526   3.491  0.9864 -0.9633  0.7413
  271MOL0     C36466   6.640   5.615   3.456  0.0223  0.5165  0.2719
  271MOL0     N36467   6.693   5.744   3.411  0.1206 -0.2512 -0.6667
  271MOL0     C36468   6.704   5.860   3.485  0.0405 -0.7734  0.0014
  271MOL0     C36469   6.764   5.953   3.401  0.9885 -0.1544  1.0599
  271MOL0     C36470   6.814   6.097   3.428  0.9497 -0.5143  1.1204
  271MOL0     C36471   6.716   6.190   3.505  0.4005  0.0641  0.1765
  271MOL0     C36472   6.572   6.162   3.455 -0.3206 -1.0546  1.2899
  271MOL0     C36473   6.477   6.274   3.508  0.6966  0.0536  0.3336
  271MOL0     O36474   6.494   6.406   3.462 -0.0542  0.8963  0.3673
  271MOL0     C36475   6.466   6.437   3.328  0.3251 -1.1158 -0.4920
  271MOL0     C36476   6.508   6.569   3.290 -0.9214  0.1006  0.3143
  271MOL0     C36477   6.504   6.613   3.157 -0.4792 -0.1684 -0.1077
  271MOL0     C36478   6.571   6.744   3.128  0.0873 -0.9638 -0.0914
  271MOL0     C36479   6.429   6.528   3.067 -0.3132  0.6071  0.0627
  271MOL0     C36480   6.408   6.561   2.921  0.4906  0.1039 -0.3276
  271MOL0     O36481   6.387   6.464   2.832  0.1021 -0.3671 -0.2076
  271MOL0     C36482   6.385   6.493   2.690  0.0047 -0.6775  0.6744
  271MOL0     C36483   6.327   6.614   2.628  0.4633  0.1513 -0.9207
  271MOL0     C36484   6.312   6.635   2.488  0.9301 -0.1860 -0.1850
  271MOL0     C36485   6.362   6.527   2.408  0.0803 -0.0839  1.1830
  271MOL0     O36486   6.329   6.500   2.273 -0.0824  0.5946 -0.1668
  271MOL0     C36487   6.208   6.579   2.234 -0.0060 -0.6695  0.6852
  271MOL0     C36488   6.189   6.576   2.083 -0.1652  0.8641  0.3134
  271MOL0     C36489   6.073   6.661   2.028 -0.0927 -0.4988 -0.1941
  271MOL0     C36490   5.943   6.607   2.085  0.4864 -0.0659  1.4648
  271MOL0     C36491   5.815   6.697   2.060 -0.2885 -0.4245 -0.0142
  271MOL0     C36492   5.769   6.687   1.908 -0.6395 -0.7208 -0.6876
  271MOL0     C36493   5.643   6.757   1.892  0.0342  0.1767  0.1923
  271MOL0     C36494   5.580   6.762   1.753  0.3001  0.8354  0.5964
  271MOL0    Cl36495   5.545   6.610   1.672 -0.0941 -0.8380 -0.0668
  271MOL0     C36496   6.433   6.420   2.464 -0.0698 -0.2389  0.0965
  271MOL0     C36497   6.441   6.399   2.605 -0.6438  0.2461  0.4840
  271MOL0     O36498   6.432   6.681   2.885  0.1215 -0.2207 -0.1224
  271MOL0     C36499   6.399   6.399   3.092 -0.2930 -0.1518 -0.7475
  271MOL0     C36500   6.411   6.353   3.230  0.6152 -0.7340 -0.1951
  271MOL0     N36501   6.782   5.890   3.281  0.0982  0.2173 -0.1390
  271MOL0     N36502   6.737   5.768   3.290  0.9799 -0.4547  0.3580
  271MOL0     C36503   7.444   5.067   3.637 -0.6267 -0.5243  0.2736
  271MOL0     C36504   7.566   5.031   3.580  0.2311 -0.2401  0.1202
  271MOL0     C36505   7.954   4.810   3.509  0.0657 -0.0762 -0.8382
  271MOL0     C36506   8.074   4.810   3.586  0.1561 -0.2444 -0.9718
  271MOL0     C36507   8.197   4.790   3.528  0.0947 -0.3012 -0.0208
  271MOL0     C36508   8.214   4.777   3.386  0.0914 -0.9026 -0.0125
  271MOL0     O36509   8.328   4.764   3.315 -0.2584 -0.8795  0.2101
  271MOL0     C36510   8.445   4.785   3.378  0.2476 -0.0724  0.9955
  271MOL0     C36511   8.566   4.795   3.280 -0.2494  0.4619  0.1478
  271MOL0     C36512   8.579   4.665   3.197 -0.0601 -0.7964  0.9610
  271MOL0     C36513   8.700   4.661   3.099  0.5696  0.9815 -0.7777
  271MOL0     C36514   8.818   4.656   3.189  0.3082  0.2639  0.7717
  271MOL0     C36515   8.899   4.651   3.273 -0.7011  0.7101 -0.1437
  271MOL0     C36516   8.094   4.765   3.316  0.8053  0.0724 -0.0496
  271MOL0     C36517   7.966   4.782   3.368  0.5188  0.3965  0.6740
  271MOL0     H36518   7.509   4.691   3.568 -1.2670 -0.7922  3.6657
  271MOL0     H36519   7.312   4.755   3.676  0.0292 -0.6284 -1.5263
  271MOL0     H36520   7.139   4.889   3.590 -0.2491  1.5765 -0.9584
  271MOL0     H36521   7.100   4.827   3.751  0.2152 -1.7558 -2.7086
  271MOL0     H36522   6.911   4.953   3.715 -0.0129  1.0370 -0.9617
  271MOL0     H36523   7.025   5.059   3.809  0.6117 -0.7527  1.0152
  271MOL0     H36524   7.062   5.191   3.628  4.0829 -2.8861 -0.1450
  271MOL0     H36525   7.005   5.067   3.506 -0.7604  0.5846 -0.3202
  271MOL0     H36526   6.791   5.108   3.543  1.4248  0.5540 -0.6041
  271MOL0     H36527   6.795   5.184   3.697  0.0057 -1.2749  0.6255
  271MOL0     H36528   6.935   5.367   3.612 -0.8199 -1.7446  1.6857
  271MOL0     H36529   6.914   5.319   3.448 -0.6583 -3.1172 -1.4808
  271MOL0     H36530   6.656   5.345   3.484 -0.5466 -1.3025  1.1552
  271MOL0     H36531   6.695   5.397   3.651  0.6979 -3.9390 -0.0903
  271MOL0     H36532   6.820   5.588   3.559  0.2907 -0.6672  1.0766
  271MOL0     H36533   6.807   5.515   3.392 -0.9784  4.1987 -1.0425
  271MOL0     H36534   6.574   5.626   3.543  1.0962  0.9631  1.0481
  271MOL0     H36535   6.587   5.564   3.375 -0.8185 -0.8596  1.6367
  271MOL0     H36536   6.671   5.879   3.587  2.2850  1.5071  0.4092
  271MOL0     H36537   6.913   6.111   3.472  0.6252 -1.1116  2.0836
  271MOL0     H36538   6.812   6.159   3.338  3.5490  1.7515  2.4631
  271MOL0     H36539   6.753   6.292   3.490  0.3453  0.0274 -0.2150
  271MOL0     H36540   6.723   6.157   3.609 -1.0407 -0.8002  0.0225
  271MOL0     H36541   6.530   6.064   3.481 -0.8897 -1.0309  0.5169
  271MOL0     H36542   6.571   6.168   3.346 -0.0089 -1.3078  1.2717
  271MOL0     H36543   6.493   6.284   3.615  0.1231 -1.1344  0.5411
  271MOL0     H36544   6.372   6.246   3.488  0.8126 -1.8116  2.0452
  271MOL0     H36545   6.536   6.626   3.378  2.2782 -1.7698  0.6942
  271MOL0     H36546   6.635   6.733   3.040  1.2834 -0.5001  0.6923
  271MOL0     H36547   6.489   6.811   3.102 -1.5253 -2.0231  1.9075
  271MOL0     H36548   6.630   6.782   3.212 -2.5501  0.9512  1.0399
  271MOL0     H36549   6.280   6.682   2.699 -1.4441 -0.0364 -1.9388
  271MOL0     H36550   6.266   6.727   2.452  1.8549  1.0993  1.7815
  271MOL0     H36551   6.118   6.532   2.275 -1.4514  1.2456 -0.1616
  271MOL0     H36552   6.210   6.684   2.262 -3.2127 -0.5255  0.7628
  271MOL0     H36553   6.276   6.604   2.023  0.4030 -2.9191 -0.9007
  271MOL0     H36554   6.161   6.479   2.040 -1.4454  2.2610 -2.2319
  271MOL0     H36555   6.076   6.655   1.919 -3.3379 -0.0465 -0.4052
  271MOL0     H36556   6.093   6.765   2.054  0.7293 -0.2114 -1.8945
  271MOL0     H36557   5.916   6.510   2.042  0.7111  0.3228  0.4125
  271MOL0     H36558   5.947   6.582   2.191  0.2219  0.0601  1.5048
  271MOL0     H36559   5.841   6.800   2.086  0.1756  0.7096 -4.2693
  271MOL0     H36560   5.735   6.666   2.128  0.6791  1.2463  2.0121
  271MOL0     H36561   5.846   6.730   1.844 -0.7355  1.2386  0.4306
  271MOL0     H36562   5.752   6.582   1.883 -0.4181 -0.8370 -0.3562
  271MOL0     H36563   5.645   6.854   1.943 -2.1307  1.5024 -2.0305
  271MOL0     H36564   5.565   6.702   1.945 -0.9139 -0.2348 -1.5636
  271MOL0     H36565   5.643   6.819   1.684 -2.3237  1.6279 -1.2886
  271MOL0     H36566   5.490   6.816   1.782 -0.3600 -0.1504  0.4260
  271MOL0     H36567   6.484   6.352   2.397 -1.0114  0.8131 -1.7609
  271MOL0     H36568   6.488   6.315   2.655 -4.1353 -1.7145  0.8031
  271MOL0     H36569   6.350   6.332   3.022  0.6474 -2.4422  0.6831
  271MOL0     H36570   6.369   6.254   3.244  1.2559 -1.3598 -2.2911
  271MOL0     H36571   7.427   5.173   3.653 -2.2007 -1.0180  2.3557
  271MOL0     H36572   7.642   5.106   3.563  0.0791 -0.1443 -0.1495
  271MOL0     H36573   8.061   4.810   3.694 -3.4091  2.1199 -1.2081
  271MOL0     H36574   8.293   4.785   3.577  2.5752  2.6870 -3.9285
  271MOL0     H36575   8.439   4.881   3.431 -1.4619  0.4024  0.0188
  271MOL0     H36576   8.466   4.707   3.451  2.2072 -1.6209 -1.0820
  271MOL0     H36577   8.658   4.817   3.336  0.3174  3.3226 -1.7302
  271MOL0     H36578   8.561   4.878   3.209  4.0826  1.7751  1.0723
  271MOL0     H36579   8.489   4.663   3.136  0.2273 -1.1402  0.5496
  271MOL0     H36580   8.591   4.578   3.262 -0.8102  0.8371  3.4357
  271MOL0     H36581   8.692   4.754   3.043 -2.8319  0.8041 -0.7872
  271MOL0     H36582   8.692   4.578   3.028 -1.9180 -1.2144  1.8362
  271MOL0     H36583   8.975   4.652   3.350 -0.1173  0.2428 -0.6969
  271MOL0     H36584   8.092   4.725   3.215 -1.4400 -3.5859  1.2804
  271MOL0     H36585   7.876   4.793   3.308 -0.1202 -1.8571  1.1109
  272MOL0     O36586  10.467   6.549   0.127 -0.0932 -0.4541 -0.1548
  272MOL0     C36587  10.479   6.434   0.149  0.0236 -0.0593 -0.2029
  272MOL0     O36588  10.410   6.372   0.248 -0.0169  0.0539  0.3282
  272MOL0     C36589  10.290   6.421   0.288 -0.6787  0.6308 -0.9140
  272MOL0     C36590  10.197   6.474   0.197  0.1696 -0.2927 -0.0048
  272MOL0     C36591  10.072   6.520   0.237 -0.2062  0.0750 -0.2197
  272MOL0     C36592  10.042   6.491   0.366 -0.4124  0.7699 -0.1807
  272MOL0     O36593   9.928   6.521   0.426  0.2116  0.2041 -0.3944
  272MOL0     C36594   9.882   6.661   0.410 -0.0287  0.2642 -0.3381
  272MOL0     C36595   9.780   6.690   0.501  1.2265 -0.2497 -1.0413
  272MOL0     C36596   9.837   6.690   0.651 -0.1753 -0.9975  0.2411
  272MOL0     C36597   9.902   6.822   0.703 -0.2031  0.6416 -0.7593
  272MOL0     C36598   9.938   6.798   0.846 -0.7483 -0.2244  0.7935
  272MOL0     C36599   9.836   6.824   0.952  0.9538  0.5560 -0.3464
  272MOL0     C36600   9.883   6.820   1.099  0.4390 -0.5181 -0.0726
  272MOL0     C36601   9.940   6.681   1.133 -0.2999 -0.4293  0.1070
  272MOL0     N36602   9.846   6.580   1.123 -0.3101  0.1268 -0.3453
  272MOL0     C36603   9.847   6.488   1.029  0.0633  0.6990  0.4256
  272MOL0     C36604   9.748   6.403   1.065  0.5461  0.2180  0.6940
  272MOL0     C36605   9.697   6.296   0.979  0.0220  0.2742  0.0235
  272MOL0     C36606   9.719   6.323   0.830  0.0993  0.0245  0.3581
  272MOL0     C36607   9.672   6.204   0.758 -0.2019  0.2506  0.7951
  272MOL0     C36608   9.709   6.207   0.617  0.4786 -0.3576 -0.7122
  272MOL0     O36609   9.838   6.146   0.628 -0.7740 -0.1114 -0.3674
  272MOL0     C36610   9.904   6.110   0.511  0.2295  0.0589 -0.4339
  272MOL0     C36611  10.017   6.027   0.510 -0.5076 -0.1527  0.7062
  272MOL0     C36612  10.094   6.001   0.399 -0.0185  0.0871  0.6588
  272MOL0     C36613  10.233   5.929   0.413  0.5461 -0.3739  0.1454
  272MOL0     C36614  10.051   6.052   0.273 -0.1397 -0.0236  0.7237
  272MOL0     C36615  10.116   6.025   0.144  0.4813 -0.9005  0.6947
  272MOL0     O36616  10.196   5.924   0.131  0.7952 -0.3983  0.0460
  272MOL0     C36617  10.252   5.907   0.009  0.6744  0.1391 -0.2756
  272MOL0     C36618  10.346   6.007  -0.015 -0.0087  0.0177  0.6860
  272MOL0     C36619  10.438   5.984  -0.120  0.1722 -0.0756  0.5502
  272MOL0     C36620  10.421   5.874  -0.198  0.7122  0.4025 -0.4240
  272MOL0     O36621  10.505   5.865  -0.300 -0.5910  0.1784 -0.2926
  272MOL0     C36622  10.455   5.804  -0.416  0.3853  0.7298  0.4178
  272MOL0     C36623  10.355   5.908  -0.492 -1.1180  0.6883 -0.4148
  272MOL0     C36624  10.421   5.937  -0.628 -0.3259 -0.2064  0.1427
  272MOL0     C36625  10.374   6.057  -0.718 -0.4330 -0.3087 -0.3316
  272MOL0     C36626  10.469   6.063  -0.837 -0.9197  0.4501  0.1625
  272MOL0     C36627  10.435   5.967  -0.945 -0.9674 -0.5263  0.7000
  272MOL0     C36628  10.516   5.999  -1.075  0.2945  0.2082 -0.3894
  272MOL0     C36629  10.646   5.923  -1.061 -0.0742 -0.4554 -0.1720
  272MOL0    Cl36630  10.754   5.939  -1.206 -0.2581  0.0224  0.4779
  272MOL0     C36631  10.328   5.768  -0.170  0.4621 -0.2801  0.0652
  272MOL0     C36632  10.244   5.789  -0.058  0.1622 -0.0909  0.1490
  272MOL0     O36633  10.066   6.087   0.052 -0.5169 -0.2069  0.6455
  272MOL0     C36634   9.944   6.143   0.274 -0.2969  0.3558 -0.0359
  272MOL0     C36635   9.876   6.170   0.391 -0.2809 -0.6829 -0.2225
  272MOL0     N36636   9.693   6.454   1.179  0.0623 -0.1795 -0.2710
  272MOL0     N36637   9.742   6.571   1.209  0.5831 -0.3015  0.3110
  272MOL0     C36638  10.123   6.425   0.460 -0.1841 -0.3239 -1.0517
  272MOL0     C36639  10.247   6.381   0.421  0.7223  0.7320  0.2433
  272MOL0     C36640  10.582   6.348   0.082 -0.3153  0.0126 -0.8290
  272MOL0     C36641  10.657   6.402  -0.024 -0.4457  0.6133  0.5923
  272MOL0     C36642  10.769   6.336  -0.075 -0.3912 -0.0765  0.7479
  272MOL0     C36643  10.798   6.205  -0.039  0.6546 -0.0860  0.5378
  272MOL0     O36644  10.901   6.126  -0.095  0.4933  0.2056 -0.2694
  272MOL0     C36645  10.931   6.147  -0.234 -0.7806  0.7158  0.3914
  272MOL0     C36646  10.973   6.011  -0.297 -0.4415 -0.2986 -0.2001
  272MOL0     C36647  11.106   5.974  -0.231  0.3895 -0.1821 -0.3513
  272MOL0     C36648  11.161   5.833  -0.283  0.2341  0.4387  0.1000
  272MOL0     C36649  11.305   5.826  -0.261  0.3583 -0.1176 -0.7468
  272MOL0     C36650  11.422   5.810  -0.253  0.4660  0.5482  0.0528
  272MOL0     C36651  10.711   6.141   0.052  0.3736  0.0680 -0.5798
  272MOL0     C36652  10.611   6.212   0.114  0.2010 -0.1442 -0.0935
  272MOL0     H36653  10.229   6.484   0.093 -1.8556  1.6600 -0.5156
  272MOL0     H36654   9.985   6.549   0.179 -1.8621 -1.1913  1.5135
  272MOL0     H36655   9.961   6.736   0.417  0.4840 -0.3189  0.2959
  272MOL0     H36656   9.844   6.667   0.307 -0.5635  4.0213 -0.0343
  272MOL0     H36657   9.736   6.788   0.479 -0.9774 -1.1302 -0.8103
  272MOL0     H36658   9.698   6.618   0.495  1.4440 -0.5910 -0.1263
  272MOL0     H36659   9.749   6.667   0.712 -3.5236  3.2697 -2.3678
  272MOL0     H36660   9.918   6.617   0.665  1.2909  0.9401  2.5833
  272MOL0     H36661   9.987   6.840   0.637 -1.0484  2.0151 -1.5277
  272MOL0     H36662   9.828   6.902   0.693  1.0777  1.8277 -1.0055
  272MOL0     H36663   9.973   6.694   0.853 -2.5438 -1.1308 -1.9789
  272MOL0     H36664  10.027   6.860   0.862  1.0901 -2.4293 -0.2404
  272MOL0     H36665   9.794   6.924   0.933  0.4157  0.4636  0.3207
  272MOL0     H36666   9.766   6.742   0.938  0.2972  1.4537 -3.0925
  272MOL0     H36667   9.966   6.892   1.095 -0.4147  0.4497 -0.8622
  272MOL0     H36668   9.815   6.857   1.176 -0.1486 -0.4778 -0.6079
  272MOL0     H36669   9.980   6.681   1.235 -2.5569 -1.3373  1.0477
  272MOL0     H36670  10.025   6.653   1.069 -1.1365 -2.9876 -0.0076
  272MOL0     H36671   9.917   6.467   0.949  0.8589  1.8658  0.8082
  272MOL0     H36672   9.768   6.215   1.000  0.2189 -0.1732 -2.0814
  272MOL0     H36673   9.601   6.249   1.002  0.1332  0.1961  0.3377
  272MOL0     H36674   9.825   6.340   0.809 -0.5001  1.9222 -1.4519
  272MOL0     H36675   9.674   6.415   0.791  0.7747  0.4592  0.5841
  272MOL0     H36676   9.563   6.197   0.758 -0.1914 -4.3199 -2.5050
  272MOL0     H36677   9.691   6.104   0.798 -1.5206 -0.2283  0.2842
  272MOL0     H36678   9.719   6.308   0.576 -0.4392 -0.4303 -1.1312
  272MOL0     H36679   9.642   6.152   0.550  0.5907 -1.4018  0.0066
  272MOL0     H36680  10.052   5.984   0.602  0.9637  1.4797  0.9628
  272MOL0     H36681  10.268   5.938   0.517 -2.5106  1.8454  1.1041
  272MOL0     H36682  10.209   5.827   0.382  0.4899 -1.5328  3.5264
  272MOL0     H36683  10.309   5.958   0.339 -0.1141 -0.8646 -0.7325
  272MOL0     H36684  10.370   6.094   0.046 -0.1324  0.9121 -0.4843
  272MOL0     H36685  10.511   6.062  -0.144  0.1549  0.3043  1.6760
  272MOL0     H36686  10.542   5.779  -0.479  0.4376 -0.5893  0.9988
  272MOL0     H36687  10.389   5.720  -0.398  1.7445 -0.6854 -0.8874
  272MOL0     H36688  10.251   5.881  -0.514 -1.6447  1.5553  0.9271
  272MOL0     H36689  10.348   5.999  -0.432  1.4642 -1.2046  3.1327
  272MOL0     H36690  10.426   5.848  -0.693  0.1213 -0.6845  0.8225
  272MOL0     H36691  10.522   5.959  -0.594 -0.1788 -1.6283  0.6930
  272MOL0     H36692  10.270   6.052  -0.752 -1.3571  1.7781  1.9124
  272MOL0     H36693  10.380   6.152  -0.665  1.9791 -1.3837  1.5487
  272MOL0     H36694  10.569   6.046  -0.797 -1.4448  1.7346  2.2178
  272MOL0     H36695  10.461   6.162  -0.884  0.4519  0.4693 -0.0672
  272MOL0     H36696  10.455   5.868  -0.902  2.5956  0.2614  1.2481
  272MOL0     H36697  10.329   5.970  -0.972 -0.4551  0.1747 -1.4412
  272MOL0     H36698  10.536   6.105  -1.091  2.0796  0.2829  1.8896
  272MOL0     H36699  10.461   5.961  -1.162  0.9911  0.6863 -1.0504
  272MOL0     H36700  10.620   5.817  -1.054  1.5786 -0.9162 -0.5664
  272MOL0     H36701  10.693   5.960  -0.970  1.7848 -0.0462 -1.2533
  272MOL0     H36702  10.316   5.678  -0.230  0.1422 -0.1665 -0.0409
  272MOL0     H36703  10.184   5.720  -0.001  1.5593  0.7097  2.7606
  272MOL0     H36704   9.908   6.200   0.190  0.2174  2.3902  1.0734
  272MOL0     H36705   9.794   6.240   0.385 -1.9912 -2.6428 -1.1145
  272MOL0     H36706  10.080   6.413   0.559  0.9211  1.3862 -0.3249
  272MOL0     H36707  10.319   6.321   0.475 -0.6706 -4.1925 -2.6791
  272MOL0     H36708  10.632   6.502  -0.060  1.0854  0.8252  0.0687
  272MOL0     H36709  10.829   6.360  -0.162  1.1400 -4.5274  0.3096
  272MOL0     H36710  10.852   6.187  -0.298  0.6595  4.3269  0.6377
  272MOL0     H36711  11.019   6.211  -0.245  0.1065  0.2603  3.7007
  272MOL0     H36712  10.992   6.020  -0.405  4.0253 -1.2256  0.3431
  272MOL0     H36713  10.890   5.940  -0.287 -1.0146  0.1963 -1.1578
  272MOL0     H36714  11.088   5.974  -0.124 -3.3678  1.3413 -0.8216
  272MOL0     H36715  11.181   6.050  -0.257  3.0295 -1.8678  1.8398
  272MOL0     H36716  11.144   5.814  -0.389 -2.1754 -2.9216  0.9119
  272MOL0     H36717  11.122   5.742  -0.237  2.6594 -0.5175  0.3915
  272MOL0     H36718  11.525   5.788  -0.234  0.8399  2.0301 -0.1693
  272MOL0     H36719  10.728   6.038   0.081  0.4613  0.4627  0.8427
  272MOL0     H36720  10.557   6.152   0.186  0.6573 -3.0499 -1.9882
  273MOL0     O36721   2.927   1.927  11.220  0.3101  0.0524 -0.5864
  273MOL0     C36722   2.971   1.967  11.109 -1.2724 -0.3723 -0.5294
  273MOL0     O36723   2.919   2.071  11.031  0.1444 -0.7607 -0.1111
  273MOL0     C36724   2.833   2.157  11.093 -0.0055 -0.2586 -0.3411
  273MOL0     C36725   2.702   2.131  11.067 -0.3240 -0.5760  0.1456
  273MOL0     C36726   2.604   2.215  11.116  0.0931 -0.7970  0.7208
  273MOL0     C36727   2.637   2.336  11.181  0.4555  1.3544 -0.0241
  273MOL0     O36728   2.530   2.418  11.198  0.6557  0.2335  0.4196
  273MOL0     C36729   2.549   2.554  11.250  1.0593  0.0986  1.2982
  273MOL0     C36730   2.506   2.584  11.395  0.8242 -0.1942 -0.5806
  273MOL0     C36731   2.353   2.564  11.426  0.3838  0.5149  0.3908
  273MOL0     C36732   2.268   2.679  11.370  0.7519 -0.0645 -0.2802
  273MOL0     C36733   2.127   2.665  11.412  0.5795  0.1940  0.5160
  273MOL0     C36734   2.040   2.575  11.320  0.0901  0.5119  0.1007
  273MOL0     C36735   1.893   2.621  11.306  0.9118  0.3993 -0.0791
  273MOL0     C36736   1.778   2.514  11.290 -0.8247  0.0826  0.2951
  273MOL0     N36737   1.729   2.464  11.423 -0.0492  0.0933  0.7636
  273MOL0     C36738   1.793   2.359  11.490  0.9726  0.3404  0.0333
  273MOL0     C36739   1.723   2.361  11.607  0.2207  0.6084 -0.4926
  273MOL0     C36740   1.768   2.265  11.721  0.9835  0.6055  0.1649
  273MOL0     C36741   1.740   2.115  11.708 -0.2633  0.4021 -0.0674
  273MOL0     C36742   1.827   2.043  11.805  0.8242  0.4573  0.2014
  273MOL0     C36743   1.790   1.885  11.818  0.7742  0.3651  0.7837
  273MOL0     O36744   1.859   1.817  11.917  0.4019  0.6715  0.2415
  273MOL0     C36745   1.814   1.828  12.048 -0.6820 -0.1005  0.3347
  273MOL0     C36746   1.872   1.742  12.129 -1.0371  0.1024 -0.3555
  273MOL0     C36747   1.833   1.743  12.261  0.6971 -0.2838  0.0448
  273MOL0     C36748   1.886   1.628  12.344  0.3904  0.6570  0.1807
  273MOL0     C36749   1.734   1.831  12.309  0.7276 -0.2498 -0.8499
  273MOL0     C36750   1.689   1.833  12.449  0.4555 -0.0068  0.5189
  273MOL0     O36751   1.782   1.832  12.541 -0.7377 -0.2160  0.5454
  273MOL0     C36752   1.745   1.850  12.677  1.2186 -0.8559  0.2828
  273MOL0     C36753   1.788   1.763  12.783  0.3809 -0.4952 -0.3181
  273MOL0     C36754   1.744   1.775  12.920 -0.2546 -0.5278  1.0391
  273MOL0     C36755   1.672   1.890  12.955  0.2183 -0.5942  0.8400
  273MOL0     O36756   1.654   1.915  13.089  0.3187 -0.4924  0.0806
  273MOL0     C36757   1.586   1.823  13.178 -0.1142 -0.3433  0.3662
  273MOL0     C36758   1.636   1.816  13.323 -0.5158  0.0520  0.2682
  273MOL0     C36759   1.642   1.946  13.389  0.1040  0.2132 -0.5653
  273MOL0     C36760   1.646   1.951  13.544  0.5969  0.3629 -0.2514
  273MOL0     C36761   1.636   2.094  13.605 -0.0889 -0.1133  0.3860
  273MOL0     C36762   1.701   2.098  13.743  0.4651 -0.5731  0.1328
  273MOL0     C36763   1.629   2.011  13.853  0.4667 -0.3378 -0.0138
  273MOL0     C36764   1.635   2.052  13.995  0.4971  0.2420  0.2523
  273MOL0    Cl36765   1.812   2.028  14.045 -0.0372 -0.2634  0.4735
  273MOL0     C36766   1.637   1.979  12.852 -0.2627  0.0066  0.4312
  273MOL0     C36767   1.663   1.960  12.720 -0.2154 -1.3180  0.0370
  273MOL0     O36768   1.565   1.841  12.470 -1.2241 -0.7196 -0.2323
  273MOL0     C36769   1.683   1.926  12.228  0.2936 -0.3307  0.0318
  273MOL0     C36770   1.720   1.918  12.090  0.0892 -0.8170  0.3312
  273MOL0     N36771   1.631   2.460  11.608 -0.2271  0.5178 -0.1543
  273MOL0     N36772   1.639   2.527  11.503 -0.1423  0.4503  0.6113
  273MOL0     C36773   2.770   2.373  11.204 -0.1199 -0.1139 -0.3075
  273MOL0     C36774   2.874   2.276  11.160  0.4286 -0.5003  0.1120
  273MOL0     C36775   3.092   1.907  11.064  0.5822  0.3324 -0.0170
  273MOL0     C36776   3.113   1.868  10.929  0.5152 -0.5845  0.1887
  273MOL0     C36777   3.242   1.829  10.887  0.1314 -0.1035  0.3528
  273MOL0     C36778   3.341   1.793  10.976 -0.0858  0.0430  0.2396
  273MOL0     O36779   3.454   1.720  10.940  0.0475 -0.1354  0.0232
  273MOL0     C36780   3.448   1.635  10.829  0.4451 -0.0400 -0.1483
  273MOL0     C36781   3.564   1.534  10.837 -0.0016  0.5418  0.8439
  273MOL0     C36782   3.698   1.603  10.825 -0.7944 -0.1860 -0.4151
  273MOL0     C36783   3.819   1.506  10.834  0.5593 -0.5401  0.1933
  273MOL0     C36784   3.800   1.393  10.738 -0.3468  0.2356 -0.0353
  273MOL0     C36785   3.768   1.301  10.662 -0.8327  0.4092  0.1485
  273MOL0     C36786   3.322   1.833  11.114 -0.1494  0.6267  0.4175
  273MOL0     C36787   3.196   1.871  11.160  0.8859  0.3348 -0.8292
  273MOL0     H36788   2.678   2.054  10.994 -1.5812 -0.9947  0.9789
  273MOL0     H36789   2.501   2.211  11.083 -0.4423  4.0361  1.0496
  273MOL0     H36790   2.650   2.589  11.229  1.3822 -2.0138 -1.1797
  273MOL0     H36791   2.478   2.609  11.189  0.7506 -0.6872  0.9338
  273MOL0     H36792   2.569   2.519  11.457 -0.8356 -1.9589 -0.6122
  273MOL0     H36793   2.519   2.690  11.418  2.1326 -0.4257 -0.1858
  273MOL0     H36794   2.317   2.465  11.395  3.6275 -0.4044 -0.9204
  273MOL0     H36795   2.344   2.560  11.535 -1.2199 -1.4370  0.2428
  273MOL0     H36796   2.295   2.779  11.405 -0.3543  1.4643 -3.4608
  273MOL0     H36797   2.268   2.687  11.261  2.3106  0.9635 -0.2396
  273MOL0     H36798   2.113   2.636  11.517 -0.2733 -0.8755  0.1220
  273MOL0     H36799   2.089   2.768  11.407  0.1219  0.0903  1.5709
  273MOL0     H36800   2.082   2.563  11.220 -0.9951 -0.1606 -0.2954
  273MOL0     H36801   2.036   2.475  11.364  1.8217 -0.9471 -2.8038
  273MOL0     H36802   1.860   2.672  11.397  1.9072 -0.1418  0.6024
  273MOL0     H36803   1.889   2.684  11.216  4.2583 -1.7739 -1.9479
  273MOL0     H36804   1.821   2.441  11.221 -1.1604 -1.2916  1.4867
  273MOL0     H36805   1.694   2.563  11.240  0.2999 -1.6170 -3.5850
  273MOL0     H36806   1.871   2.289  11.464  0.4763  0.7702 -3.0073
  273MOL0     H36807   1.875   2.277  11.739  1.1659  0.6491 -0.9132
  273MOL0     H36808   1.709   2.295  11.809  0.1109 -1.7259  0.4648
  273MOL0     H36809   1.756   2.082  11.605 -3.1110  3.2118 -1.5933
  273MOL0     H36810   1.638   2.084  11.730  0.1426  0.3439  1.8377
  273MOL0     H36811   1.831   2.086  11.906 -1.8004  3.7111 -0.9305
  273MOL0     H36812   1.930   2.064  11.773  1.3579  1.5817  2.4234
  273MOL0     H36813   1.802   1.841  11.718  0.0545 -2.0940  1.7104
  273MOL0     H36814   1.683   1.871  11.832 -0.3286  3.1368 -3.1103
  273MOL0     H36815   1.945   1.668  12.095 -0.5485 -0.9719  2.6741
  273MOL0     H36816   1.954   1.649  12.428  2.7547 -2.8759 -0.6383
  273MOL0     H36817   1.799   1.575  12.384  2.6484 -2.5455  1.2521
  273MOL0     H36818   1.930   1.552  12.279 -0.5603 -0.4461  0.7805
  273MOL0     H36819   1.862   1.687  12.755  4.0275  2.0265  1.6642
  273MOL0     H36820   1.786   1.711  12.997  1.2862 -1.9286 -0.8573
  273MOL0     H36821   1.484   1.858  13.191 -0.1679 -0.9357  1.7261
  273MOL0     H36822   1.592   1.721  13.139  0.7466 -0.2116  0.1350
  273MOL0     H36823   1.571   1.748  13.378  2.8901 -0.4820  4.1511
  273MOL0     H36824   1.735   1.770  13.327 -0.9800 -1.0647 -0.7075
  273MOL0     H36825   1.556   2.011  13.368  1.8994  2.4404 -1.5416
  273MOL0     H36826   1.725   2.005  13.348 -2.0647  2.8385 -1.4920
  273MOL0     H36827   1.574   1.886  13.593  0.4999  0.8689  0.2909
  273MOL0     H36828   1.741   1.907  13.578 -0.3066  0.1778  2.2759
  273MOL0     H36829   1.532   2.126  13.613 -0.3049 -0.5203 -0.7125
  273MOL0     H36830   1.689   2.168  13.545 -1.6869  1.5354  0.9262
  273MOL0     H36831   1.806   2.071  13.737  0.0336 -3.3575  2.5913
  273MOL0     H36832   1.684   2.202  13.774 -2.0527 -1.7305  3.2191
  273MOL0     H36833   1.656   1.906  13.848  0.3137 -0.4623  1.4413
  273MOL0     H36834   1.522   2.011  13.827  0.7739  1.7839 -1.5419
  273MOL0     H36835   1.576   1.981  14.054 -0.4780 -0.6490 -1.7147
  273MOL0     H36836   1.607   2.157  14.010 -0.0068 -0.1075  1.9843
  273MOL0     H36837   1.568   2.052  12.893 -1.2040 -0.2337 -0.6952
  273MOL0     H36838   1.625   2.037  12.653 -1.2136 -0.3637  1.6361
  273MOL0     H36839   1.601   1.992  12.256 -0.0680  0.5420 -2.7737
  273MOL0     H36840   1.665   1.982  12.021 -2.5560 -0.6283  2.4290
  273MOL0     H36841   2.810   2.456  11.262  0.2533 -1.0269  0.7705
  273MOL0     H36842   2.977   2.297  11.188 -0.0184  2.7154 -0.2722
  273MOL0     H36843   3.035   1.896  10.860 -1.4344 -1.0064  2.1007
  273MOL0     H36844   3.246   1.792  10.785 -0.0372 -3.7393  1.5132
  273MOL0     H36845   3.351   1.585  10.825  0.1809  0.2320  1.7715
  273MOL0     H36846   3.462   1.700  10.742  1.3366  0.9838  0.7245
  273MOL0     H36847   3.552   1.470  10.749  3.6591  1.9883 -0.9412
  273MOL0     H36848   3.560   1.466  10.923 -1.9187  0.3985  0.6916
  273MOL0     H36849   3.710   1.680  10.901 -2.5319  0.8981 -1.1797
  273MOL0     H36850   3.700   1.652  10.727 -0.1191  1.2872  0.3045
  273MOL0     H36851   3.821   1.459  10.933 -0.0909  1.4639  1.2234
  273MOL0     H36852   3.916   1.556  10.826 -0.9629  2.5565 -0.6622
  273MOL0     H36853   3.745   1.221  10.594  0.2931 -0.4463  0.7394
  273MOL0     H36854   3.399   1.806  11.185  0.8856  1.3534 -0.3998
  273MOL0     H36855   3.175   1.869  11.266  0.9492  0.1420 -0.8187
  274MOL0     O36856   1.352   7.894   2.517  0.2727  0.1670 -1.0325
  274MOL0     C36857   1.414   7.999   2.531  1.2772  0.3291  0.4328
  274MOL0     O36858   1.526   8.025   2.456  0.0367 -0.2414 -0.7955
  274MOL0     C36859   1.577   7.921   2.382  1.0125 -0.0571 -0.4578
  274MOL0     C36860   1.713   7.897   2.382 -0.5427  1.0643 -0.1580
  274MOL0     C36861   1.771   7.820   2.277 -0.2901  0.2857 -0.4338
  274MOL0     C36862   1.686   7.765   2.186 -1.3268 -0.3040 -0.4467
  274MOL0     O36863   1.743   7.682   2.090 -0.9319 -0.1401  0.0245
  274MOL0     C36864   1.677   7.580   2.021  0.1890  0.9643 -0.1506
  274MOL0     C36865   1.786   7.472   1.973 -1.0656 -0.0230 -0.2112
  274MOL0     C36866   1.858   7.528   1.856 -0.5409 -0.3110 -0.2985
  274MOL0     C36867   1.956   7.422   1.798 -0.2473 -0.2163 -1.4798
  274MOL0     C36868   2.041   7.476   1.684 -1.0588 -0.2253 -0.0940
  274MOL0     C36869   1.964   7.518   1.562  0.0723 -0.8341 -0.2829
  274MOL0     C36870   1.882   7.403   1.495 -0.4784  0.4316 -0.5102
  274MOL0     C36871   1.757   7.454   1.428 -0.2196  0.0415 -0.9101
  274MOL0     N36872   1.657   7.341   1.426  0.8445  0.1592  0.8052
  274MOL0     C36873   1.636   7.240   1.334 -0.2068 -0.2836  0.0143
  274MOL0     C36874   1.523   7.175   1.375  0.4274 -0.5286  0.5488
  274MOL0     C36875   1.467   7.049   1.308  0.1664 -0.4610 -0.9170
  274MOL0     C36876   1.442   6.927   1.407  0.9636 -1.1900 -0.9525
  274MOL0     C36877   1.319   6.955   1.501  0.3770  0.2832 -0.3171
  274MOL0     C36878   1.286   6.826   1.573 -0.6112 -0.0321 -0.9340
  274MOL0     O36879   1.225   6.747   1.472  0.0653  0.2177  0.0560
  274MOL0     C36880   1.174   6.627   1.499  0.9232 -0.7601  0.2572
  274MOL0     C36881   1.174   6.561   1.621  0.1254 -0.4402  0.4085
  274MOL0     C36882   1.121   6.429   1.633  0.0889 -0.2225 -1.2680
  274MOL0     C36883   1.139   6.376   1.773 -0.0306  0.8670  1.0138
  274MOL0     C36884   1.059   6.374   1.526  1.2466 -0.1303 -0.0214
  274MOL0     C36885   1.002   6.239   1.523 -0.3013  0.0783 -0.4148
  274MOL0     O36886   0.947   6.199   1.410 -0.3446 -0.0278 -0.5078
  274MOL0     C36887   0.819   6.142   1.426 -0.2406 -0.4730 -0.6462
  274MOL0     C36888   0.800   6.007   1.396 -0.3578 -0.2353 -0.2362
  274MOL0     C36889   0.671   5.947   1.410  0.0998  0.5513  0.1815
  274MOL0     C36890   0.566   6.023   1.438 -0.4590  1.0114  0.2332
  274MOL0     O36891   0.440   5.961   1.436 -0.1867  0.4951  0.3721
  274MOL0     C36892   0.331   6.008   1.514 -0.4500  0.8274  0.1605
  274MOL0     C36893   0.217   5.901   1.512  0.3472 -0.5481 -0.0034
  274MOL0     C36894   0.239   5.797   1.613  0.2792  0.8243 -0.4280
  274MOL0     C36895   0.137   5.679   1.576 -0.2104 -0.0658 -0.7131
  274MOL0     C36896   0.195   5.586   1.466  0.3002 -0.7556 -0.9721
  274MOL0     C36897   0.072   5.522   1.397  0.3519  0.4938  0.7984
  274MOL0     C36898   0.114   5.402   1.317 -0.6165  0.2910 -0.8708
  274MOL0     C36899  -0.003   5.346   1.234  0.3304  0.7141 -0.1991
  274MOL0    Cl36900  -0.102   5.235   1.341  0.2811  0.6411  0.0165
  274MOL0     C36901   0.584   6.169   1.456  0.8872  1.0216 -0.0226
  274MOL0     C36902   0.707   6.228   1.449  0.5438  0.3673 -0.0457
  274MOL0     O36903   1.006   6.171   1.623  0.4790  0.1767  0.4076
  274MOL0     C36904   1.037   6.453   1.409 -0.0056  0.6036  0.8256
  274MOL0     C36905   1.100   6.573   1.395  0.1623 -1.1182 -0.8964
  274MOL0     N36906   1.484   7.224   1.499 -0.2474 -0.6071  0.8264
  274MOL0     N36907   1.561   7.329   1.519  0.1828  0.8606  0.1373
  274MOL0     C36908   1.550   7.784   2.187 -0.2229  0.1219 -0.2060
  274MOL0     C36909   1.495   7.866   2.284 -0.4758  0.0195 -0.3502
  274MOL0     C36910   1.371   8.088   2.640  0.0648  0.0781  0.4096
  274MOL0     C36911   1.278   8.051   2.734 -1.2544  0.0393 -0.5741
  274MOL0     C36912   1.241   8.154   2.825  0.5224 -0.2869  0.4745
  274MOL0     C36913   1.282   8.286   2.817 -1.0906  0.1950 -0.0129
  274MOL0     O36914   1.234   8.373   2.910 -0.3304 -0.2653  0.0051
  274MOL0     C36915   1.271   8.516   2.911 -0.7043  0.6924 -1.2043
  274MOL0     C36916   1.395   8.533   2.999 -0.0101  0.2550 -0.0391
  274MOL0     C36917   1.402   8.667   3.065 -0.4576 -0.2948  0.0138
  274MOL0     C36918   1.544   8.695   3.103  1.0197  0.3979  0.4234
  274MOL0     C36919   1.543   8.811   3.186 -1.2213 -0.2512 -0.2151
  274MOL0     C36920   1.574   8.918   3.236  0.6636  0.7483  0.0303
  274MOL0     C36921   1.377   8.316   2.727  0.3216 -0.4629  0.0052
  274MOL0     C36922   1.423   8.222   2.638  0.5593 -0.0944 -0.0327
  274MOL0     H36923   1.791   7.933   2.448 -0.1376 -4.3644  2.9134
  274MOL0     H36924   1.876   7.792   2.280 -0.4145 -0.5983 -2.4004
  274MOL0     H36925   1.601   7.528   2.080  1.0010  1.4141  1.3583
  274MOL0     H36926   1.620   7.613   1.934 -1.7701  2.4986  1.6071
  274MOL0     H36927   1.856   7.472   2.058 -2.5193  1.8951  1.0755
  274MOL0     H36928   1.739   7.378   1.946  1.2846 -1.3462  0.0096
  274MOL0     H36929   1.781   7.547   1.780 -0.6641  3.6312  0.5936
  274MOL0     H36930   1.903   7.627   1.868 -1.1250  0.3570 -2.9992
  274MOL0     H36931   2.021   7.389   1.879  0.3844  0.6399 -1.6289
  274MOL0     H36932   1.901   7.332   1.767 -1.8691  0.3768 -0.4870
  274MOL0     H36933   2.101   7.559   1.723 -2.7956  2.0780 -2.0205
  274MOL0     H36934   2.113   7.397   1.662  0.5514  2.0305 -4.2019
  274MOL0     H36935   1.903   7.602   1.597  1.0582 -1.0092  2.1030
  274MOL0     H36936   2.030   7.555   1.485  0.4338 -2.0176 -0.5669
  274MOL0     H36937   1.944   7.347   1.424  0.6148 -0.6295  1.2095
  274MOL0     H36938   1.849   7.325   1.564  4.9959 -0.9046  1.1281
  274MOL0     H36939   1.776   7.481   1.324 -0.6685 -4.2578 -2.3018
  274MOL0     H36940   1.730   7.541   1.489  1.5053  0.1900 -0.2802
  274MOL0     H36941   1.687   7.224   1.240 -3.7924  1.6454 -2.5097
  274MOL0     H36942   1.375   7.066   1.251  2.0230  0.9532 -3.7444
  274MOL0     H36943   1.545   7.027   1.235 -0.4082  2.7931 -2.6989
  274MOL0     H36944   1.530   6.902   1.468 -0.4325 -2.1610  0.7766
  274MOL0     H36945   1.415   6.843   1.343 -3.5778  0.4868 -1.5621
  274MOL0     H36946   1.235   6.989   1.440  0.3929  0.9653  0.0219
  274MOL0     H36947   1.336   7.036   1.572 -2.6047  2.3163 -1.7023
  274MOL0     H36948   1.208   6.846   1.648  0.6188  0.0833  0.3460
  274MOL0     H36949   1.376   6.783   1.618 -0.0682  0.2322 -1.7549
  274MOL0     H36950   1.219   6.609   1.707  0.9406 -1.2793  0.4596
  274MOL0     H36951   1.207   6.436   1.834  4.8992 -3.8660  0.9312
  274MOL0     H36952   1.038   6.356   1.809 -0.1871 -1.2746 -0.4193
  274MOL0     H36953   1.204   6.289   1.768 -0.8283  0.1270  2.7700
  274MOL0     H36954   0.877   5.936   1.365 -0.2843 -0.8033  1.1820
  274MOL0     H36955   0.649   5.842   1.392 -0.4688  1.1874 -3.8181
  274MOL0     H36956   0.361   6.030   1.617 -1.3351  1.3153  0.3241
  274MOL0     H36957   0.297   6.102   1.469  0.2011  0.4317 -1.2075
  274MOL0     H36958   0.123   5.954   1.528  0.9146  0.1777  1.0337
  274MOL0     H36959   0.207   5.861   1.411  0.9733 -2.1055  0.5153
  274MOL0     H36960   0.219   5.851   1.705  0.2023  0.4079 -0.1960
  274MOL0     H36961   0.337   5.751   1.602 -0.8566 -1.4497 -1.9686
  274MOL0     H36962   0.122   5.617   1.665 -1.6136  1.6879  0.3210
  274MOL0     H36963   0.035   5.712   1.558 -0.4789  0.1616  1.0307
  274MOL0     H36964   0.260   5.515   1.519 -1.6296  0.2475  3.2306
  274MOL0     H36965   0.245   5.643   1.388 -0.8109  0.1946 -1.0146
  274MOL0     H36966   0.005   5.476   1.471  0.4919 -0.2126  0.4932
  274MOL0     H36967   0.014   5.585   1.329  0.8512 -3.2106 -3.5302
  274MOL0     H36968   0.140   5.328   1.393 -3.1470  3.1743  3.2131
  274MOL0     H36969   0.193   5.440   1.252  1.0282  0.6651  1.2286
  274MOL0     H36970   0.038   5.277   1.159 -0.0017 -4.4683  3.7782
  274MOL0     H36971  -0.066   5.423   1.189  2.1393  1.7738 -1.0079
  274MOL0     H36972   0.498   6.226   1.492  0.1685 -2.2767  4.1917
  274MOL0     H36973   0.722   6.335   1.461  2.8364  0.2834 -1.5990
  274MOL0     H36974   0.983   6.418   1.322 -0.8629 -0.8568  1.8890
  274MOL0     H36975   1.084   6.625   1.300  0.8117 -2.4542 -1.7718
  274MOL0     H36976   1.487   7.735   2.113  0.7551 -3.1239  0.9096
  274MOL0     H36977   1.387   7.877   2.276 -0.3213  1.0428 -1.3986
  274MOL0     H36978   1.248   7.950   2.757  1.8724 -0.6127  1.1353
  274MOL0     H36979   1.162   8.126   2.895 -1.5704  0.5430 -1.4456
  274MOL0     H36980   1.305   8.559   2.816  3.8457  1.1235  0.3641
  274MOL0     H36981   1.185   8.563   2.960  0.6972  1.2195  0.8428
  274MOL0     H36982   1.486   8.519   2.941 -0.0125  3.2644 -0.9584
  274MOL0     H36983   1.392   8.458   3.079  1.7053  1.4143  1.2006
  274MOL0     H36984   1.337   8.679   3.152  2.1077  2.2214  1.7506
  274MOL0     H36985   1.377   8.732   2.981  1.1584  0.4257  0.0698
  274MOL0     H36986   1.595   8.710   3.007 -0.5897 -0.0583 -0.5475
  274MOL0     H36987   1.600   8.617   3.156  0.3205  0.2539  0.9565
  274MOL0     H36988   1.593   9.015   3.278  4.0411  0.1166  0.2214
  274MOL0     H36989   1.426   8.412   2.715 -0.0168 -0.2866  0.0294
  274MOL0     H36990   1.483   8.253   2.553 -1.4627 -1.9803 -2.2987
  275MOL0     O36991   5.304   3.705   8.005  0.4245  0.5583 -0.2903
  275MOL0     C36992   5.211   3.704   7.921 -0.7272 -0.2143 -0.9256
  275MOL0     O36993   5.217   3.670   7.787  0.2528 -0.3479  0.3058
  275MOL0     C36994   5.334   3.621   7.743 -0.5535  0.3277  0.8341
  275MOL0     C36995   5.385   3.498   7.786 -0.6578  0.7657  1.1601
  275MOL0     C36996   5.504   3.444   7.725  0.1857 -0.2088 -0.2399
  275MOL0     C36997   5.583   3.519   7.635 -0.5988 -0.1397  0.0077
  275MOL0     O36998   5.689   3.451   7.579  0.5639 -0.2625 -0.9441
  275MOL0     C36999   5.790   3.533   7.513  0.0447 -0.2015  0.7961
  275MOL0     C37000   5.897   3.444   7.451  0.1967  0.4261  0.2923
  275MOL0     C37001   5.829   3.364   7.343 -0.6881 -0.5087  0.0637
  275MOL0     C37002   5.938   3.267   7.284  0.8252  0.1629 -0.7337
  275MOL0     C37003   5.859   3.175   7.185 -0.7257 -0.4567  0.3215
  275MOL0     C37004   5.961   3.135   7.079  0.1015  0.6144 -0.2044
  275MOL0     C37005   5.916   3.012   6.993  0.0681  0.2332 -0.2268
  275MOL0     C37006   5.793   3.030   6.914  0.3382  0.6594  1.3336
  275MOL0     N37007   5.742   2.909   6.850 -0.4343 -0.1524 -0.5462
  275MOL0     C37008   5.813   2.836   6.764  0.0210 -0.1968  0.8386
  275MOL0     C37009   5.714   2.764   6.694 -0.0588  0.2729  0.3370
  275MOL0     C37010   5.740   2.683   6.580 -0.3463  0.6744 -0.4430
  275MOL0     C37011   5.771   2.542   6.610 -1.3349 -0.3072 -1.2188
  275MOL0     C37012   5.653   2.458   6.635  0.3233 -0.6714 -0.9452
  275MOL0     C37013   5.585   2.415   6.506  0.6685 -0.3751 -0.8467
  275MOL0     O37014   5.451   2.361   6.533  0.8830 -0.5582 -0.1648
  275MOL0     C37015   5.432   2.230   6.550 -1.1106 -0.1382  0.7900
  275MOL0     C37016   5.317   2.173   6.515  0.5202  0.0272  0.3886
  275MOL0     C37017   5.292   2.034   6.545 -0.5740  0.1014  0.7473
  275MOL0     C37018   5.163   1.973   6.491 -0.6412 -0.2189 -0.7108
  275MOL0     C37019   5.391   1.952   6.597  0.0425  0.3388 -0.9581
  275MOL0     C37020   5.382   1.808   6.652 -0.2669  0.4797 -0.0134
  275MOL0     O37021   5.501   1.748   6.684  0.0811 -1.3298 -0.0167
  275MOL0     C37022   5.501   1.655   6.776  0.4514  0.4113 -0.7319
  275MOL0     C37023   5.590   1.553   6.764 -0.9327 -0.1740  0.0527
  275MOL0     C37024   5.606   1.447   6.866  0.4228  0.3803  0.0722
  275MOL0     C37025   5.558   1.465   6.986  0.0049  0.0032 -0.7446
  275MOL0     O37026   5.593   1.369   7.080 -0.0036 -0.8194 -0.5421
  275MOL0     C37027   5.642   1.422   7.207  0.6535 -0.0246  0.1770
  275MOL0     C37028   5.706   1.298   7.285  0.2413  0.4308  0.6224
  275MOL0     C37029   5.852   1.282   7.246 -0.6626  0.0545 -0.1553
  275MOL0     C37030   5.935   1.223   7.359  0.2995  0.4162  0.2737
  275MOL0     C37031   5.897   1.074   7.384 -0.4617 -0.6389 -0.0333
  275MOL0     C37032   6.010   1.022   7.476 -0.6353  0.3206  0.7421
  275MOL0     C37033   6.018   0.865   7.484 -1.0153 -0.3692  0.1742
  275MOL0     C37034   5.897   0.816   7.555 -0.1700  1.0703 -0.3144
  275MOL0    Cl37035   5.889   0.903   7.707 -0.1972 -0.3552 -0.3382
  275MOL0     C37036   5.459   1.562   7.000 -0.0620  0.4791 -0.4565
  275MOL0     C37037   5.428   1.654   6.901 -0.4558  0.1317  0.4245
  275MOL0     O37038   5.269   1.760   6.679 -0.7600  0.4419  0.1956
  275MOL0     C37039   5.518   2.012   6.627 -0.0337 -0.2326 -0.1297
  275MOL0     C37040   5.537   2.145   6.599  0.2783  0.0467 -0.7703
  275MOL0     N37041   5.590   2.790   6.758 -0.2709 -0.5957 -0.0620
  275MOL0     N37042   5.612   2.864   6.859 -0.1772  0.1758  0.8670
  275MOL0     C37043   5.534   3.650   7.603  0.8625  0.7533 -0.7521
  275MOL0     C37044   5.413   3.697   7.666 -0.7512 -0.2349  0.0820
  275MOL0     C37045   5.077   3.703   7.982  0.3495 -0.6950 -0.5030
  275MOL0     C37046   5.055   3.700   8.121  0.7569  0.4389 -0.2422
  275MOL0     C37047   4.924   3.665   8.174 -0.1704 -0.9276 -0.6137
  275MOL0     C37048   4.822   3.640   8.084  0.5306  0.5764 -0.1117
  275MOL0     O37049   4.693   3.610   8.123  0.0645  0.4176 -0.5256
  275MOL0     C37050   4.677   3.484   8.179  0.7892  0.2730 -0.1181
  275MOL0     C37051   4.562   3.519   8.286 -0.1497  0.5736  0.3638
  275MOL0     C37052   4.608   3.621   8.387  0.1292 -0.7615  0.1640
  275MOL0     C37053   4.504   3.652   8.500 -0.1745 -0.1888  0.2453
  275MOL0     C37054   4.503   3.535   8.595  0.0572 -0.1970 -0.8721
  275MOL0     C37055   4.500   3.439   8.675 -0.3271 -0.1095  1.4720
  275MOL0     C37056   4.847   3.662   7.946 -0.0642  0.5704 -0.0915
  275MOL0     C37057   4.971   3.689   7.888 -1.3569  0.4718 -0.1055
  275MOL0     H37058   5.326   3.435   7.853  0.3477  1.7020  3.0116
  275MOL0     H37059   5.533   3.341   7.743 -0.6835 -1.0505 -3.0836
  275MOL0     H37060   5.744   3.582   7.426  2.3614 -2.5611 -1.9956
  275MOL0     H37061   5.841   3.603   7.579  1.0174  1.4930 -1.6234
  275MOL0     H37062   5.969   3.510   7.403  1.3840 -0.4743  0.7896
  275MOL0     H37063   5.947   3.380   7.524  0.9750  1.4196  0.6410
  275MOL0     H37064   5.740   3.314   7.384 -0.5235 -0.8294  0.0323
  275MOL0     H37065   5.794   3.433   7.265  1.9174  1.2783  0.3450
  275MOL0     H37066   6.022   3.317   7.235 -0.6091  3.7890  0.2105
  275MOL0     H37067   5.971   3.208   7.370  2.1338 -0.6639 -1.7660
  275MOL0     H37068   5.812   3.102   7.252 -1.0977  2.1176  3.0392
  275MOL0     H37069   5.779   3.237   7.143  2.3088  2.1226 -2.1464
  275MOL0     H37070   5.983   3.221   7.016 -0.4469 -0.0879 -1.3940
  275MOL0     H37071   6.059   3.105   7.119  0.3291  0.4008 -0.8949
  275MOL0     H37072   5.999   2.993   6.924  0.1687  1.9535 -0.6398
  275MOL0     H37073   5.901   2.933   7.067 -2.4374 -1.3730 -2.2611
  275MOL0     H37074   5.825   3.089   6.828  1.8642  1.4564  2.4200
  275MOL0     H37075   5.720   3.091   6.967 -1.6443  1.3644 -1.9090
  275MOL0     H37076   5.917   2.845   6.734 -1.0918  2.7141 -2.8898
  275MOL0     H37077   5.647   2.692   6.522 -0.1623  5.8370 -0.4226
  275MOL0     H37078   5.812   2.730   6.512  0.0003  0.5510 -0.1612
  275MOL0     H37079   5.836   2.515   6.693 -0.9367 -0.1998 -1.4952
  275MOL0     H37080   5.821   2.513   6.517  2.2622 -0.0183  0.4672
  275MOL0     H37081   5.590   2.522   6.697  1.4032  0.1996 -0.7032
  275MOL0     H37082   5.679   2.372   6.697 -2.3852 -0.5465  0.4846
  275MOL0     H37083   5.650   2.357   6.440  1.6677  1.4481 -1.5500
  275MOL0     H37084   5.568   2.508   6.452 -0.5601  0.2691  0.5739
  275MOL0     H37085   5.240   2.235   6.470  0.0294 -0.7266  0.1645
  275MOL0     H37086   5.113   1.948   6.584  0.6766 -1.2513 -0.2401
  275MOL0     H37087   5.111   2.048   6.429  0.1208 -2.6486 -4.6745
  275MOL0     H37088   5.174   1.884   6.428  1.2624 -1.4947  1.2746
  275MOL0     H37089   5.646   1.550   6.671 -1.2685 -1.5106 -0.1310
  275MOL0     H37090   5.670   1.363   6.842  2.4388  0.9479  2.9422
  275MOL0     H37091   5.715   1.504   7.206  0.8292 -0.0540  2.8415
  275MOL0     H37092   5.555   1.469   7.253 -1.1907 -2.0097 -1.1054
  275MOL0     H37093   5.708   1.313   7.394  0.9726  0.2149  0.6431
  275MOL0     H37094   5.653   1.204   7.269  0.2628  0.4351  0.5251
  275MOL0     H37095   5.897   1.380   7.226  0.3798 -0.3568  0.1669
  275MOL0     H37096   5.857   1.219   7.156 -1.9012 -0.7008  0.2768
  275MOL0     H37097   6.038   1.225   7.322 -0.1142 -1.0694 -1.1045
  275MOL0     H37098   5.923   1.292   7.443  0.4489  2.9697 -1.6711
  275MOL0     H37099   5.907   1.029   7.284 -2.6630  0.2878 -0.7350
  275MOL0     H37100   5.797   1.050   7.419  0.0461 -2.3197  0.3610
  275MOL0     H37101   6.099   1.042   7.416 -0.7891 -0.3644  0.2777
  275MOL0     H37102   6.003   1.084   7.566  2.8816  0.0723  1.3154
  275MOL0     H37103   6.107   0.825   7.532 -2.1155 -0.8633  1.8673
  275MOL0     H37104   6.024   0.819   7.385  1.5660 -1.0095  0.5753
  275MOL0     H37105   5.902   0.708   7.571  3.7177  1.2622  0.7855
  275MOL0     H37106   5.810   0.835   7.492  0.4190  1.0423 -1.1482
  275MOL0     H37107   5.409   1.560   7.096  2.5527 -2.6711  1.0297
  275MOL0     H37108   5.376   1.746   6.927  2.5186  2.1487 -0.1649
  275MOL0     H37109   5.603   1.955   6.662  1.0315  1.2015 -0.2784
  275MOL0     H37110   5.641   2.173   6.612  0.5664 -1.5561  0.7009
  275MOL0     H37111   5.583   3.701   7.521  3.2666  0.4883  0.4390
  275MOL0     H37112   5.373   3.794   7.638 -2.1033 -0.4649  1.1472
  275MOL0     H37113   5.128   3.709   8.201 -1.4178  2.6508  1.6440
  275MOL0     H37114   4.901   3.659   8.280 -2.3039  0.6004 -0.9042
  275MOL0     H37115   4.655   3.426   8.089  1.6177  2.1159 -1.5862
  275MOL0     H37116   4.762   3.431   8.222  0.0149 -0.6852  0.2566
  275MOL0     H37117   4.527   3.428   8.334 -1.7527  1.3952  0.8063
  275MOL0     H37118   4.478   3.566   8.235 -1.1012 -0.8208  0.6166
  275MOL0     H37119   4.626   3.719   8.343  2.0903  0.0021  2.3881
  275MOL0     H37120   4.705   3.588   8.426  0.8596 -0.0835 -1.0306
  275MOL0     H37121   4.403   3.670   8.461 -0.4161 -1.1307  0.4219
  275MOL0     H37122   4.539   3.740   8.555 -0.0014  0.6179 -1.1137
  275MOL0     H37123   4.509   3.358   8.744 -0.6423  0.4238  2.1412
  275MOL0     H37124   4.759   3.643   7.886 -0.7399  2.2137  0.3415
  275MOL0     H37125   4.990   3.700   7.782 -1.6594 -1.5366 -0.4054
  276MOL0     O37126   2.174   0.495   6.185  0.1020  0.3184 -0.4213
  276MOL0     C37127   2.109   0.542   6.086 -0.0865  1.1989  0.0751
  276MOL0     O37128   2.011   0.628   6.084 -0.1814 -0.4252 -0.9307
  276MOL0     C37129   1.946   0.677   6.195  0.8029  0.2867 -0.5897
  276MOL0     C37130   1.892   0.594   6.299 -0.0783 -0.3835 -0.6206
  276MOL0     C37131   1.811   0.652   6.398  0.3818 -0.0914 -0.2345
  276MOL0     C37132   1.780   0.787   6.392  0.8213  0.7575  0.0058
  276MOL0     O37133   1.693   0.828   6.488  0.6117 -0.1591 -0.3956
  276MOL0     C37134   1.628   0.957   6.485  0.3011  0.6207 -0.1171
  276MOL0     C37135   1.517   0.939   6.388 -0.2922  0.5170 -0.5019
  276MOL0     C37136   1.400   0.863   6.446 -0.1958 -0.0957 -0.3521
  276MOL0     C37137   1.338   0.738   6.391 -0.2077 -0.9458  0.7247
  276MOL0     C37138   1.196   0.722   6.444  0.6394 -0.2315 -0.0152
  276MOL0     C37139   1.129   0.583   6.396 -0.0163 -0.3713 -1.0279
  276MOL0     C37140   1.145   0.547   6.245 -0.2078 -0.7789 -0.5538
  276MOL0     C37141   1.071   0.644   6.165  0.3380 -0.3660 -1.1517
  276MOL0     N37142   0.929   0.656   6.194  0.4947  0.2456  0.5526
  276MOL0     C37143   0.825   0.580   6.138 -0.1801  0.1148 -0.8554
  276MOL0     C37144   0.711   0.644   6.175  0.1926 -0.8394  0.0533
  276MOL0     C37145   0.565   0.598   6.133 -0.5466  0.5819  0.3807
  276MOL0     C37146   0.549   0.535   5.994  0.1632 -0.1686 -0.0221
  276MOL0     C37147   0.602   0.610   5.873 -0.5348  0.6790  0.5887
  276MOL0     C37148   0.527   0.742   5.847  0.5234 -0.3410 -0.4146
  276MOL0     O37149   0.390   0.714   5.794  0.3948 -0.4302  0.7710
  276MOL0     C37150   0.378   0.761   5.660 -0.3107 -0.1363 -0.5399
  276MOL0     C37151   0.253   0.809   5.621  0.4678  0.6200 -0.0026
  276MOL0     C37152   0.240   0.872   5.493  0.7107  0.1028  0.0812
  276MOL0     C37153   0.109   0.928   5.457 -0.0692  0.2953 -0.0495
  276MOL0     C37154   0.344   0.869   5.397  0.3761  0.5055  0.5020
  276MOL0     C37155   0.339   0.931   5.261  0.1729  0.0996 -0.6824
  276MOL0     O37156   0.460   0.910   5.183 -0.2055  0.1745 -0.6697
  276MOL0     C37157   0.450   0.922   5.052 -1.2649 -1.1948 -0.2117
  276MOL0     C37158   0.452   0.811   4.966  0.3263 -0.4390  0.7956
  276MOL0     C37159   0.425   0.829   4.829  0.3631  1.0019  0.0808
  276MOL0     C37160   0.391   0.953   4.775 -0.0334  0.2214  0.0714
  276MOL0     O37161   0.375   0.977   4.645  0.6239 -0.1515  0.4151
  276MOL0     C37162   0.246   1.025   4.613 -0.0751 -0.2806  0.0137
  276MOL0     C37163   0.224   1.036   4.469 -0.1971 -0.5726  0.1439
  276MOL0     C37164   0.323   1.124   4.402 -0.8032  0.8358 -0.8284
  276MOL0     C37165   0.284   1.169   4.265  0.3171  0.7199  0.3104
  276MOL0     C37166   0.409   1.217   4.186  0.3766  0.3975  0.3088
  276MOL0     C37167   0.406   1.153   4.041  0.2722  0.5658 -0.8763
  276MOL0     C37168   0.465   1.006   4.049  0.8867  0.0991  0.5840
  276MOL0     C37169   0.566   0.998   3.942 -0.8764  0.2961 -0.3381
  276MOL0    Cl37170   0.479   1.014   3.783  0.3894 -0.1229  0.0298
  276MOL0     C37171   0.377   1.055   4.860  0.0825  0.3546 -0.4359
  276MOL0     C37172   0.412   1.041   4.996  0.3593 -0.2704  0.2901
  276MOL0     O37173   0.240   1.002   5.229 -0.5061 -0.6309 -0.7278
  276MOL0     C37174   0.458   0.798   5.438 -0.4666  0.3996  0.5338
  276MOL0     C37175   0.484   0.756   5.568  0.1396 -0.2056 -0.1871
  276MOL0     N37176   0.739   0.755   6.247 -0.3163  0.3502 -0.1431
  276MOL0     N37177   0.863   0.757   6.259  0.1414 -0.4164  0.2583
  276MOL0     C37178   1.839   0.870   6.293  0.6034 -0.3111  0.0550
  276MOL0     C37179   1.907   0.813   6.187  0.1031  0.8181 -0.8192
  276MOL0     C37180   2.171   0.516   5.952  0.2582 -0.0126 -0.0323
  276MOL0     C37181   2.291   0.438   5.934  0.0843  0.5033 -0.1631
  276MOL0     C37182   2.348   0.412   5.805 -0.4930  0.7741  0.3278
  276MOL0     C37183   2.282   0.463   5.693 -1.1254 -0.3013  0.1060
  276MOL0     O37184   2.325   0.451   5.564 -0.2394 -0.9187 -1.1611
  276MOL0     C37185   2.449   0.381   5.522  0.1060  0.1243 -0.1391
  276MOL0     C37186   2.439   0.226   5.529  0.4795  1.0498  0.8337
  276MOL0     C37187   2.525   0.151   5.421 -0.9727 -0.8052  0.7139
  276MOL0     C37188   2.544  -0.001   5.443  0.2449 -0.7461 -0.5730
  276MOL0     C37189   2.420  -0.065   5.402  0.6723  0.0521 -1.6599
  276MOL0     C37190   2.310  -0.102   5.365  0.2482 -0.1436  0.8804
  276MOL0     C37191   2.165   0.530   5.706  0.3273 -0.7010 -0.4529
  276MOL0     C37192   2.118   0.567   5.833  0.9727  0.1357 -1.0126
  276MOL0     H37193   1.913   0.488   6.307 -0.5747 -0.3433  1.7248
  276MOL0     H37194   1.766   0.599   6.481  0.1356  1.8510  0.9382
  276MOL0     H37195   1.593   0.983   6.586 -1.2895 -0.8010 -0.2541
  276MOL0     H37196   1.693   1.042   6.461 -0.6418  1.2109 -0.6054
  276MOL0     H37197   1.486   1.043   6.374  1.7427  1.8274  3.2382
  276MOL0     H37198   1.555   0.888   6.299 -0.6460 -1.3943  0.3927
  276MOL0     H37199   1.423   0.854   6.553  0.4727  2.7345 -0.1761
  276MOL0     H37200   1.314   0.931   6.454 -1.6305 -1.8617 -0.2352
  276MOL0     H37201   1.332   0.756   6.283 -2.4698  2.9232  1.3353
  276MOL0     H37202   1.408   0.657   6.415 -1.1262 -1.9808 -0.0049
  276MOL0     H37203   1.188   0.733   6.553 -3.2421  0.4402 -0.2054
  276MOL0     H37204   1.138   0.806   6.404  1.1603 -0.1328 -0.5708
  276MOL0     H37205   1.158   0.497   6.457  0.7414  1.0356  0.6706
  276MOL0     H37206   1.021   0.588   6.414  0.1272  1.0462 -0.4252
  276MOL0     H37207   1.252   0.558   6.230  0.8207 -0.8499  4.7999
  276MOL0     H37208   1.114   0.446   6.217 -1.5968  0.0281 -2.1412
  276MOL0     H37209   1.067   0.608   6.062 -2.9556 -0.8508 -0.9759
  276MOL0     H37210   1.121   0.741   6.172  0.1428 -0.3945  3.2102
  276MOL0     H37211   0.816   0.500   6.064 -1.0145 -1.0171  0.4100
  276MOL0     H37212   0.533   0.526   6.209 -0.2451  0.2078  0.1552
  276MOL0     H37213   0.503   0.687   6.149  2.9230  3.0814  0.9608
  276MOL0     H37214   0.442   0.519   5.980  0.0841 -0.7124  1.0817
  276MOL0     H37215   0.584   0.432   5.994 -3.1171 -1.4016 -0.4520
  276MOL0     H37216   0.609   0.536   5.792 -2.0945  0.6773  0.4265
  276MOL0     H37217   0.704   0.636   5.903 -0.4431  1.9837 -0.7336
  276MOL0     H37218   0.582   0.819   5.793 -1.0606  1.3861  0.3230
  276MOL0     H37219   0.511   0.799   5.938 -6.2668 -0.5239 -1.0029
  276MOL0     H37220   0.172   0.812   5.693  1.6384 -2.0149  1.5683
  276MOL0     H37221   0.117   1.037   5.462 -0.7652  0.3148  0.8052
  276MOL0     H37222   0.064   0.886   5.366 -1.1306 -0.1896  0.6802
  276MOL0     H37223   0.034   0.919   5.535 -0.0849  0.3550 -0.0577
  276MOL0     H37224   0.467   0.711   5.004 -1.7554 -0.1596  2.5076
  276MOL0     H37225   0.431   0.745   4.761  2.1885 -0.1097  1.5122
  276MOL0     H37226   0.167   0.968   4.662  0.1992  0.5375  1.4812
  276MOL0     H37227   0.221   1.123   4.656 -0.8234  0.1357 -1.3255
  276MOL0     H37228   0.241   0.934   4.432  3.0416 -0.3817  0.7868
  276MOL0     H37229   0.121   1.061   4.443  0.4280  0.3868 -1.5273
  276MOL0     H37230   0.423   1.078   4.404 -1.0703 -0.2895  4.9413
  276MOL0     H37231   0.333   1.214   4.464  1.5256 -0.5335  0.9712
  276MOL0     H37232   0.250   1.080   4.211  2.4809  0.4855 -0.7660
  276MOL0     H37233   0.195   1.231   4.279  2.0903  2.9444  3.0335
  276MOL0     H37234   0.504   1.195   4.235  1.8704 -0.4599 -2.7217
  276MOL0     H37235   0.405   1.326   4.175  1.3927  0.4157  0.0293
  276MOL0     H37236   0.308   1.153   3.992  1.7502  2.1392 -4.1444
  276MOL0     H37237   0.466   1.216   3.975  1.3961 -1.1903 -1.5847
  276MOL0     H37238   0.369   0.956   4.034 -0.5577  2.2742  2.0346
  276MOL0     H37239   0.503   0.987   4.150  0.4066  1.8231  1.1343
  276MOL0     H37240   0.616   0.902   3.958  1.2976  1.3765 -0.3472
  276MOL0     H37241   0.647   1.071   3.950  0.3758 -1.1532  0.7775
  276MOL0     H37242   0.349   1.154   4.827  1.7364  1.6948  1.9099
  276MOL0     H37243   0.408   1.125   5.065  1.0021 -0.4994  0.6232
  276MOL0     H37244   0.539   0.791   5.366 -1.0924 -2.4136 -0.0437
  276MOL0     H37245   0.582   0.717   5.591 -0.2947 -0.5435  1.2153
  276MOL0     H37246   1.810   0.975   6.287  2.8177  0.3500 -0.3056
  276MOL0     H37247   1.943   0.880   6.110 -0.8234  0.9717 -1.1360
  276MOL0     H37248   2.331   0.387   6.021 -1.6671  1.0341  1.0060
  276MOL0     H37249   2.443   0.365   5.783 -0.6233  1.8447 -3.0771
  276MOL0     H37250   2.490   0.423   5.430 -3.2818  6.1567  0.6625
  276MOL0     H37251   2.534   0.407   5.587  0.9144 -0.4040 -0.9533
  276MOL0     H37252   2.333   0.209   5.511  0.7083  0.2975  0.1494
  276MOL0     H37253   2.444   0.180   5.629 -1.0106  0.3013  0.5830
  276MOL0     H37254   2.627   0.185   5.442 -0.4585 -2.5879  1.2545
  276MOL0     H37255   2.505   0.182   5.318 -2.3594  1.0542  1.4864
  276MOL0     H37256   2.559  -0.020   5.550  1.5056  3.5346  0.1984
  276MOL0     H37257   2.628  -0.042   5.386 -0.9094 -2.8634 -0.8500
  276MOL0     H37258   2.219  -0.137   5.322  1.3286 -0.1019 -1.5795
  276MOL0     H37259   2.120   0.576   5.618 -0.4137 -3.3729 -1.5758
  276MOL0     H37260   2.024   0.621   5.830  0.7634  0.0768  1.7645
  277MOL0     O37261   0.733   1.495  11.241 -0.8225  0.3095 -0.6923
  277MOL0     C37262   0.670   1.407  11.184  0.4095  0.3287 -0.4160
  277MOL0     O37263   0.700   1.359  11.066 -0.5575  0.0137 -0.0070
  277MOL0     C37264   0.806   1.416  11.003  0.0494 -0.2134 -0.2116
  277MOL0     C37265   0.934   1.375  11.026 -0.3676 -0.6181  0.1897
  277MOL0     C37266   1.030   1.433  10.949 -0.9442  0.3447  0.4223
  277MOL0     C37267   1.007   1.539  10.859 -0.3177  1.5269  0.5246
  277MOL0     O37268   1.109   1.595  10.778 -0.4146  0.2925  0.2741
  277MOL0     C37269   1.227   1.634  10.852  1.4035  0.1769  0.2862
  277MOL0     C37270   1.340   1.647  10.753  0.9679  0.1548  0.5299
  277MOL0     C37271   1.390   1.520  10.709  0.5812 -1.1018  0.0984
  277MOL0     C37272   1.367   1.498  10.560  0.1343  0.9558  0.5610
  277MOL0     C37273   1.458   1.580  10.479 -1.1071  0.9852  1.2828
  277MOL0     C37274   1.414   1.565  10.330  0.3897  0.5943  0.0017
  277MOL0     C37275   1.518   1.609  10.228  0.2981 -0.3336 -0.0250
  277MOL0     C37276   1.486   1.562  10.083  0.7335 -0.1693  0.2571
  277MOL0     N37277   1.411   1.654   9.995 -0.5441 -0.3515  0.7965
  277MOL0     C37278   1.451   1.772   9.937 -0.2881 -0.3751  0.1605
  277MOL0     C37279   1.334   1.827   9.888  0.3680  0.1261 -0.3318
  277MOL0     C37280   1.329   1.955   9.822 -0.9178  0.3638 -0.0611
  277MOL0     C37281   1.312   2.074   9.900 -0.6781 -0.6078 -0.7839
  277MOL0     C37282   1.167   2.096   9.946 -0.7081  0.0577 -0.6689
  277MOL0     C37283   1.087   2.164   9.831  0.4612  0.4569  0.0413
  277MOL0     O37284   1.001   2.258   9.898  0.2407 -0.3509 -0.1116
  277MOL0     C37285   0.930   2.344   9.818 -1.0500 -0.0636 -1.4628
  277MOL0     C37286   0.929   2.351   9.682  0.7151  0.3558  0.3101
  277MOL0     C37287   0.851   2.449   9.614 -0.9786 -0.9582  0.2750
  277MOL0     C37288   0.867   2.441   9.461 -0.8992  0.1667 -0.4675
  277MOL0     C37289   0.791   2.551   9.693 -0.7211 -0.7949  1.0758
  277MOL0     C37290   0.732   2.684   9.636 -0.0790  0.6659  0.2461
  277MOL0     O37291   0.764   2.715   9.508  0.1322 -0.2070 -0.5911
  277MOL0     C37292   0.692   2.796   9.423  0.6737 -0.4041  0.0164
  277MOL0     C37293   0.675   2.760   9.292  0.1518  0.1418 -0.4195
  277MOL0     C37294   0.604   2.842   9.202  0.5979 -0.8817 -0.1545
  277MOL0     C37295   0.563   2.970   9.239  0.4691 -0.5600  0.5195
  277MOL0     O37296   0.494   3.046   9.146  0.8146 -0.4059  0.5322
  277MOL0     C37297   0.410   3.159   9.184 -0.7830 -0.8525  0.1014
  277MOL0     C37298   0.264   3.132   9.230  0.2018 -0.8435  0.4318
  277MOL0     C37299   0.174   3.063   9.136 -0.6990 -0.2229 -1.4406
  277MOL0     C37300   0.033   3.042   9.186 -0.5881 -1.0133  0.0493
  277MOL0     C37301  -0.062   2.970   9.087  1.0980 -0.1203 -0.2781
  277MOL0     C37302  -0.208   2.957   9.125 -0.5417 -0.3204  0.1126
  277MOL0     C37303  -0.254   2.958   9.275  0.5701 -0.2757 -1.0097
  277MOL0     C37304  -0.352   2.844   9.312 -0.5690 -0.7896  0.6091
  277MOL0    Cl37305  -0.516   2.899   9.263 -0.2585 -0.0846 -0.4343
  277MOL0     C37306   0.592   3.018   9.364 -0.5060  1.9226  0.1882
  277MOL0     C37307   0.648   2.921   9.462 -0.4021 -0.3323  0.0913
  277MOL0     O37308   0.659   2.738   9.717  0.0734 -0.2397 -0.0351
  277MOL0     C37309   0.798   2.538   9.830  0.1265 -1.0009 -1.0746
  277MOL0     C37310   0.855   2.431   9.894  0.3971  0.5954  0.8038
  277MOL0     N37311   1.233   1.742   9.918  0.7365 -0.7195  0.4412
  277MOL0     N37312   1.281   1.635   9.972  0.5377 -0.1146  0.3755
  277MOL0     C37313   0.878   1.577  10.833 -0.8943 -0.3141  0.3410
  277MOL0     C37314   0.780   1.514  10.907 -0.2702 -0.6972 -0.4715
  277MOL0     C37315   0.567   1.327  11.258  1.2557 -1.1759  0.4724
  277MOL0     C37316   0.439   1.307  11.195 -0.7918 -0.4480 -0.4998
  277MOL0     C37317   0.332   1.253  11.264 -0.2924 -0.7928 -0.8365
  277MOL0     C37318   0.342   1.231  11.406 -0.3074 -0.8079  0.0612
  277MOL0     O37319   0.244   1.189  11.484 -0.1849 -0.0844  0.0730
  277MOL0     C37320   0.112   1.164  11.445  0.5987  0.3354 -0.2128
  277MOL0     C37321   0.035   1.298  11.429 -0.3267 -0.2386  0.1272
  277MOL0     C37322  -0.115   1.292  11.441  0.6578  0.2075 -0.1767
  277MOL0     C37323  -0.159   1.303  11.582  0.3550  0.9072 -0.2639
  277MOL0     C37324  -0.300   1.260  11.593  0.4136  0.1470 -0.8166
  277MOL0     C37325  -0.412   1.208  11.601 -0.4404  0.4796 -0.5372
  277MOL0     C37326   0.464   1.255  11.466  0.4211  0.0132 -0.0281
  277MOL0     C37327   0.578   1.296  11.391  0.3782 -0.0686 -0.2726
  277MOL0     H37328   0.961   1.307  11.106  1.9385 -1.6961 -1.4035
  277MOL0     H37329   1.129   1.389  10.958 -0.5078  1.5657  2.0937
  277MOL0     H37330   1.209   1.736  10.889 -0.7244 -0.3821  0.9383
  277MOL0     H37331   1.252   1.573  10.940 -1.2552 -1.2880  0.1282
  277MOL0     H37332   1.299   1.711  10.674 -0.4319 -0.9402  0.3245
  277MOL0     H37333   1.425   1.698  10.800 -1.2342  4.9010  0.0130
  277MOL0     H37334   1.496   1.516  10.738  0.9495 -1.9518 -1.2489
  277MOL0     H37335   1.345   1.439  10.766  0.5762 -0.3433  1.1905
  277MOL0     H37336   1.384   1.394  10.532  0.9213  1.5841 -1.4883
  277MOL0     H37337   1.262   1.517  10.534  0.4786  0.3027 -1.4588
  277MOL0     H37338   1.458   1.685  10.510  0.2246  1.3170  0.2619
  277MOL0     H37339   1.558   1.536  10.487 -1.5612 -0.8427 -1.3810
  277MOL0     H37340   1.400   1.459  10.309 -0.9588  0.5614  0.9207
  277MOL0     H37341   1.322   1.622  10.320  1.0326  1.4322 -1.4288
  277MOL0     H37342   1.537   1.717  10.222 -2.2072  0.1275 -1.0403
  277MOL0     H37343   1.609   1.562  10.266  2.5259  4.9680  2.2739
  277MOL0     H37344   1.412   1.482  10.093  0.2560  0.3103  0.6340
  277MOL0     H37345   1.579   1.526  10.037  0.1824 -0.4958 -0.6409
  277MOL0     H37346   1.555   1.805   9.941 -1.4088  3.7151  0.1163
  277MOL0     H37347   1.423   1.970   9.768  0.4412  1.5771  2.4914
  277MOL0     H37348   1.245   1.957   9.753 -1.4238  5.1250  0.3473
  277MOL0     H37349   1.369   2.150   9.846  5.1100 -4.0940 -0.4055
  277MOL0     H37350   1.390   2.076   9.977  1.1853  3.6753 -2.4413
  277MOL0     H37351   1.159   2.162  10.033  1.6975 -0.4840  0.0260
  277MOL0     H37352   1.122   2.007   9.990  2.5456 -1.2452  0.2887
  277MOL0     H37353   1.020   2.103   9.770  2.1614 -0.7548 -0.6813
  277MOL0     H37354   1.163   2.204   9.764  0.5982  0.3740  0.1468
  277MOL0     H37355   0.985   2.285   9.616 -1.9226 -0.2071 -1.5387
  277MOL0     H37356   0.777   2.408   9.408  0.4304 -0.2123 -2.5967
  277MOL0     H37357   0.898   2.532   9.410 -1.8293  0.2353 -0.9235
  277MOL0     H37358   0.949   2.369   9.448 -0.9281 -0.3154  1.6696
  277MOL0     H37359   0.710   2.664   9.256  0.3717 -0.0580  0.3082
  277MOL0     H37360   0.581   2.814   9.100  1.6171 -0.4854 -0.5047
  277MOL0     H37361   0.460   3.209   9.268  0.2318 -2.2160  0.3531
  277MOL0     H37362   0.410   3.225   9.097  1.8798  2.0130  2.0510
  277MOL0     H37363   0.266   3.076   9.324  0.4810 -3.7506 -1.1852
  277MOL0     H37364   0.218   3.230   9.245  3.1149  1.7796 -4.7355
  277MOL0     H37365   0.216   2.966   9.108 -1.8963 -2.2671  2.9598
  277MOL0     H37366   0.175   3.122   9.044  1.1857 -0.1620 -1.4049
  277MOL0     H37367   0.050   2.992   9.282  0.5755  1.2467  1.1080
  277MOL0     H37368   0.001   3.143   9.212 -1.0881 -0.6767 -1.7198
  277MOL0     H37369  -0.034   2.864   9.090  1.3570 -0.0356  0.3816
  277MOL0     H37370  -0.055   3.026   8.993 -3.1249 -0.2359 -0.8841
  277MOL0     H37371  -0.254   3.050   9.090  1.0857  1.3743  2.2292
  277MOL0     H37372  -0.249   2.873   9.068 -3.0213 -1.4851  3.3391
  277MOL0     H37373  -0.297   3.055   9.301 -1.8038 -1.2436 -1.0147
  277MOL0     H37374  -0.168   2.929   9.337  0.1408 -2.1041 -1.2213
  277MOL0     H37375  -0.357   2.820   9.419 -1.2486 -1.9664  0.3366
  277MOL0     H37376  -0.311   2.754   9.264  2.2370  1.3640 -1.2935
  277MOL0     H37377   0.577   3.121   9.394  1.3485  1.6649  2.3097
  277MOL0     H37378   0.668   2.959   9.562 -0.7538 -0.4450  0.2046
  277MOL0     H37379   0.772   2.619   9.897 -1.0906 -2.3960  0.2161
  277MOL0     H37380   0.854   2.419  10.002  1.2697 -0.2911  0.7293
  277MOL0     H37381   0.848   1.658  10.767 -2.0125 -2.6722 -2.2454
  277MOL0     H37382   0.679   1.545  10.881 -0.3174  0.5587  1.0698
  277MOL0     H37383   0.436   1.333  11.089 -1.7137 -0.5765 -0.5196
  277MOL0     H37384   0.235   1.228  11.222 -0.2044 -0.2281 -1.3956
  277MOL0     H37385   0.100   1.109  11.351 -0.5723  1.6329 -0.8523
  277MOL0     H37386   0.062   1.106  11.523  1.3354 -1.1840 -0.8306
  277MOL0     H37387   0.063   1.347  11.335 -1.3293  3.5500  1.6023
  277MOL0     H37388   0.068   1.371  11.503  0.0535  0.4679 -0.7150
  277MOL0     H37389  -0.153   1.202  11.392 -1.4761  2.7214 -3.5309
  277MOL0     H37390  -0.161   1.371  11.382  1.1226 -0.7007 -1.8222
  277MOL0     H37391  -0.148   1.402  11.626 -0.3326  0.1003  1.8934
  277MOL0     H37392  -0.109   1.227  11.643 -1.8594 -0.5492 -0.1268
  277MOL0     H37393  -0.517   1.186  11.610 -0.2629 -0.3459 -0.4720
  277MOL0     H37394   0.473   1.241  11.573  1.1935  0.7206  0.0067
  277MOL0     H37395   0.672   1.298  11.444  0.7920 -0.1655 -1.0016
  278MOL0     O37396   9.818   4.727   2.355 -0.0515  0.2622  0.1448
  278MOL0     C37397   9.779   4.731   2.235  0.5553  1.0512 -0.3704
  278MOL0     O37398   9.857   4.730   2.119  0.1794  0.1953  0.5817
  278MOL0     C37399   9.997   4.725   2.128  0.2544  0.9145  0.1510
  278MOL0     C37400  10.060   4.838   2.083  0.2278  0.7317  0.1739
  278MOL0     C37401  10.194   4.844   2.104  0.1201 -0.7810  0.0120
  278MOL0     C37402  10.270   4.730   2.159  0.1824 -1.0345 -0.2399
  278MOL0     O37403  10.402   4.742   2.151  0.2326 -0.1893  0.1118
  278MOL0     C37404  10.485   4.665   2.240 -0.2248  0.0681 -0.5421
  278MOL0     C37405  10.495   4.731   2.373 -0.3483  1.2705  0.5342
  278MOL0     C37406  10.572   4.639   2.472 -0.1239 -0.0031 -0.2274
  278MOL0     C37407  10.494   4.519   2.518 -0.4765 -0.8936  0.5802
  278MOL0     C37408  10.377   4.568   2.600  0.8094  0.9523 -0.2382
  278MOL0     C37409  10.306   4.462   2.687 -0.1123 -0.5589  0.8132
  278MOL0     C37410  10.180   4.541   2.751 -0.0162 -0.2962  0.8747
  278MOL0     C37411  10.130   4.445   2.865  0.7256 -0.2160 -0.6053
  278MOL0     N37412  10.226   4.440   2.972  0.6181  0.3348 -0.4848
  278MOL0     C37413  10.260   4.548   3.050  0.0902 -0.1757 -0.9303
  278MOL0     C37414  10.347   4.506   3.146  0.1262  0.6356  0.0852
  278MOL0     C37415  10.427   4.566   3.253 -0.1423 -0.2273  0.0353
  278MOL0     C37416  10.339   4.671   3.334  0.6933 -0.5784 -0.7099
  278MOL0     C37417  10.415   4.716   3.461  0.1525  0.6419 -0.1071
  278MOL0     C37418  10.317   4.806   3.545 -0.2596  0.5507 -0.3438
  278MOL0     O37419  10.387   4.861   3.655 -0.6694 -0.4278  0.1891
  278MOL0     C37420  10.394   4.794   3.774  0.4397 -0.4015 -0.2626
  278MOL0     C37421  10.419   4.885   3.886 -0.0841  0.1977  0.2236
  278MOL0     C37422  10.468   4.830   4.009  0.6072 -1.0992 -1.0774
  278MOL0     C37423  10.482   4.928   4.120 -0.5754 -0.4051 -0.6523
  278MOL0     C37424  10.462   4.692   4.030  0.4878  0.4018  0.3966
  278MOL0     C37425  10.488   4.621   4.161 -0.7672  0.2829 -0.3410
  278MOL0     O37426  10.585   4.664   4.254  0.1498 -0.4312  0.4277
  278MOL0     C37427  10.585   4.618   4.376 -0.1933 -0.2442 -0.6121
  278MOL0     C37428  10.540   4.689   4.480 -0.0701 -0.1213  0.1685
  278MOL0     C37429  10.557   4.634   4.613  0.2244 -0.4704  0.2060
  278MOL0     C37430  10.620   4.514   4.630  0.1089  0.2953 -0.4336
  278MOL0     O37431  10.637   4.479   4.763  0.1863  0.2171  0.1563
  278MOL0     C37432  10.677   4.343   4.804 -0.2988 -0.4353 -0.0205
  278MOL0     C37433  10.747   4.365   4.941 -0.0708  0.7572  0.0577
  278MOL0     C37434  10.768   4.223   5.005 -0.4996 -1.1707 -0.8230
  278MOL0     C37435  10.693   4.209   5.132 -0.0007  0.2375  0.1351
  278MOL0     C37436  10.702   4.064   5.187  0.0671 -0.5932  0.2967
  278MOL0     C37437  10.651   4.049   5.328  0.3319 -0.3691 -0.4236
  278MOL0     C37438  10.616   3.905   5.356 -0.0456 -0.7265  0.7521
  278MOL0     C37439  10.610   3.878   5.503  1.5966 -0.0025 -0.2614
  278MOL0    Cl37440  10.770   3.849   5.554  0.6649 -0.7204 -0.1195
  278MOL0     C37441  10.661   4.433   4.518 -0.2490 -0.5229  0.1176
  278MOL0     C37442  10.646   4.493   4.390  1.6159 -0.8148  0.4423
  278MOL0     O37443  10.407   4.527   4.187  0.0897  0.1779 -0.6274
  278MOL0     C37444  10.408   4.606   3.928  0.4985  0.4548 -0.1525
  278MOL0     C37445  10.377   4.650   3.798  0.3911  0.5613  0.4969
  278MOL0     N37446  10.363   4.366   3.127 -0.4064  0.8654 -0.0434
  278MOL0     N37447  10.295   4.335   3.023  0.9213 -0.1861  0.8043
  278MOL0     C37448  10.210   4.619   2.209 -0.4082  0.0704  0.9825
  278MOL0     C37449  10.068   4.616   2.189  1.4299  0.0113 -0.0625
  278MOL0     C37450   9.633   4.774   2.213 -0.9228 -0.3389  0.4264
  278MOL0     C37451   9.603   4.908   2.176  0.4473 -0.0103 -0.8865
  278MOL0     C37452   9.468   4.930   2.153  0.0131 -0.1308 -0.5968
  278MOL0     C37453   9.371   4.827   2.171 -0.1598  0.5777 -0.7575
  278MOL0     O37454   9.233   4.832   2.150 -0.2506 -0.5065  0.2178
  278MOL0     C37455   9.173   4.957   2.136  0.8598  0.1696  0.2442
  278MOL0     C37456   9.145   5.028   2.268  0.2386 -0.0747 -0.2522
  278MOL0     C37457   9.084   4.924   2.368 -0.8798 -0.7548 -0.5067
  278MOL0     C37458   8.964   4.853   2.319  0.6253 -0.6103 -0.6919
  278MOL0     C37459   8.967   4.712   2.344 -0.5590 -0.0740 -0.7513
  278MOL0     C37460   8.974   4.600   2.387  0.8666  1.1005  0.1301
  278MOL0     C37461   9.407   4.700   2.208  0.5829 -0.5727 -0.6264
  278MOL0     C37462   9.543   4.677   2.228  0.0076  0.3188 -0.3844
  278MOL0     H37463  10.013   4.927   2.043  2.2198  3.2408  2.9452
  278MOL0     H37464  10.256   4.930   2.078 -1.8236  0.1272 -1.9041
  278MOL0     H37465  10.463   4.558   2.248  0.4840 -0.1075 -0.8818
  278MOL0     H37466  10.588   4.662   2.203  0.1623 -4.4396  0.3462
  278MOL0     H37467  10.553   4.823   2.360  1.4713  0.0025 -0.9352
  278MOL0     H37468  10.398   4.763   2.411 -0.3083  1.4170  0.5138
  278MOL0     H37469  10.659   4.609   2.412 -0.5731 -3.3700  0.5799
  278MOL0     H37470  10.612   4.684   2.563  0.6738 -0.1070 -0.5186
  278MOL0     H37471  10.453   4.460   2.435  0.8303 -2.9313  1.2966
  278MOL0     H37472  10.563   4.452   2.570 -0.9674 -1.8607  0.0300
  278MOL0     H37473  10.408   4.651   2.664 -0.1372  1.2345 -0.1397
  278MOL0     H37474  10.306   4.611   2.529 -0.7630 -0.8725  0.1488
  278MOL0     H37475  10.288   4.377   2.620 -2.8929 -0.3421  1.1881
  278MOL0     H37476  10.387   4.425   2.752  2.9849 -1.7221 -3.2626
  278MOL0     H37477  10.206   4.633   2.804 -2.7656  0.6654  0.7384
  278MOL0     H37478  10.108   4.563   2.671  0.0756  1.0878  1.1400
  278MOL0     H37479  10.124   4.340   2.835  2.2339 -0.6544  0.5198
  278MOL0     H37480  10.036   4.481   2.907  1.2187 -1.5666  1.8720
  278MOL0     H37481  10.234   4.653   3.041  3.2290  1.2479  3.2791
  278MOL0     H37482  10.467   4.489   3.319  0.6370 -0.2117 -0.4075
  278MOL0     H37483  10.513   4.615   3.207  0.4984 -1.9567 -0.6434
  278MOL0     H37484  10.250   4.621   3.372  1.2345 -0.8609  0.2198
  278MOL0     H37485  10.316   4.757   3.271  3.6421 -0.2506 -1.5053
  278MOL0     H37486  10.500   4.779   3.433 -1.3410  2.2569 -1.2066
  278MOL0     H37487  10.444   4.634   3.526 -0.1885  0.3987 -0.2579
  278MOL0     H37488  10.235   4.743   3.581 -2.0133  1.5923 -2.2934
  278MOL0     H37489  10.289   4.886   3.476 -0.0978  1.0835  0.1967
  278MOL0     H37490  10.412   4.992   3.875 -0.8592  0.2832  1.3762
  278MOL0     H37491  10.505   5.031   4.091 -0.2762 -0.4455 -0.5637
  278MOL0     H37492  10.395   4.931   4.186  1.3378  2.7170  2.0325
  278MOL0     H37493  10.564   4.887   4.180 -1.6454 -1.0913  0.3927
  278MOL0     H37494  10.465   4.766   4.464 -0.3201  0.0484  1.9456
  278MOL0     H37495  10.523   4.703   4.690  4.1301  2.3794 -0.3111
  278MOL0     H37496  10.597   4.270   4.820  0.3516 -0.8796  1.4146
  278MOL0     H37497  10.756   4.305   4.738  0.5257 -0.1087  0.7610
  278MOL0     H37498  10.848   4.396   4.911  0.3584 -1.3729 -0.8649
  278MOL0     H37499  10.701   4.430   5.017  1.7090 -0.2077  2.0963
  278MOL0     H37500  10.873   4.213   5.034  0.3191  2.4038 -2.0537
  278MOL0     H37501  10.740   4.139   4.941 -4.5358 -1.4479  1.0516
  278MOL0     H37502  10.718   4.283   5.209  0.6448  0.3785 -0.2003
  278MOL0     H37503  10.588   4.222   5.104 -0.1418 -2.6353 -0.9755
  278MOL0     H37504  10.804   4.023   5.188 -0.3376 -1.6740  2.3354
  278MOL0     H37505  10.632   4.004   5.127 -0.4569  0.9134 -0.6589
  278MOL0     H37506  10.720   4.092   5.402 -2.8707  2.7043  1.0284
  278MOL0     H37507  10.563   4.111   5.344 -0.2620 -1.2978 -0.0094
  278MOL0     H37508  10.685   3.827   5.321 -3.3140 -4.1040  1.2135
  278MOL0     H37509  10.518   3.883   5.314  0.6523 -2.5770 -0.0301
  278MOL0     H37510  10.537   3.801   5.530  1.6564  0.8640  2.7486
  278MOL0     H37511  10.567   3.961   5.560 -0.8149 -2.0124  1.0507
  278MOL0     H37512  10.706   4.336   4.536 -0.6067 -0.3571  2.0524
  278MOL0     H37513  10.689   4.448   4.302  3.2288  0.6272  0.4253
  278MOL0     H37514  10.383   4.503   3.950 -1.6652  0.7651 -0.8956
  278MOL0     H37515  10.341   4.578   3.725  0.2851  1.2636 -0.1542
  278MOL0     H37516  10.251   4.532   2.260  0.7896  0.1640  0.2223
  278MOL0     H37517  10.008   4.531   2.220  2.4218 -1.1893 -1.2746
  278MOL0     H37518   9.667   4.995   2.173 -0.8984  1.2866  2.5169
  278MOL0     H37519   9.447   5.035   2.135  1.8857  0.0676 -1.9654
  278MOL0     H37520   9.233   5.016   2.066 -2.4204  0.4366 -2.5806
  278MOL0     H37521   9.075   4.948   2.089  0.4253 -0.9373  1.3030
  278MOL0     H37522   9.081   5.115   2.252 -2.3774 -1.8301  0.0664
  278MOL0     H37523   9.236   5.066   2.315 -0.8095  1.5530  0.5582
  278MOL0     H37524   9.055   4.971   2.462  0.8152  0.7917 -0.7006
  278MOL0     H37525   9.154   4.851   2.410 -0.9634 -0.5266  0.0416
  278MOL0     H37526   8.937   4.877   2.215 -3.3411  2.4643  0.7976
  278MOL0     H37527   8.882   4.899   2.375 -0.8905 -1.4775 -2.1100
  278MOL0     H37528   8.976   4.504   2.435 -3.6352  1.5464  1.6841
  278MOL0     H37529   9.338   4.618   2.226  1.5958 -1.4933 -0.8274
  278MOL0     H37530   9.570   4.575   2.253  1.9287  0.4524 -1.7077
  279MOL0     O37531  10.574   7.928   0.879  0.0370 -0.1162  0.8092
  279MOL0     C37532  10.490   8.010   0.847  0.7249 -0.1493  0.2088
  279MOL0     O37533  10.521   8.143   0.814  0.5845  0.3328  0.0639
  279MOL0     C37534  10.649   8.187   0.831 -0.5911 -0.0681  0.4938
  279MOL0     C37535  10.730   8.212   0.720  0.7536  0.3972  1.5526
  279MOL0     C37536  10.857   8.262   0.738 -0.1387 -0.2414 -0.4425
  279MOL0     C37537  10.897   8.306   0.865 -0.1412  0.2111  0.2900
  279MOL0     O37538  11.007   8.377   0.876 -0.3267  0.5310  0.8051
  279MOL0     C37539  11.135   8.316   0.883 -0.7735  0.0637  1.1729
  279MOL0     C37540  11.227   8.436   0.904 -0.5466 -0.6697  0.0596
  279MOL0     C37541  11.372   8.393   0.946 -0.5342 -0.2059  0.3485
  279MOL0     C37542  11.467   8.515   0.937  0.0590 -0.6243  0.5903
  279MOL0     C37543  11.425   8.627   1.030 -0.6824  0.6398  0.1917
  279MOL0     C37544  11.530   8.728   1.020  0.3497 -0.8755 -0.2090
  279MOL0     C37545  11.485   8.860   1.080 -1.0670 -1.2292  0.2986
  279MOL0     C37546  11.476   8.861   1.227  0.4483  0.3028  0.2013
  279MOL0     N37547  11.599   8.869   1.303 -0.5070  0.3156  0.8973
  279MOL0     C37548  11.676   8.980   1.312 -0.6375 -0.3477  0.6068
  279MOL0     C37549  11.782   8.935   1.386 -0.8021  0.6193 -0.0322
  279MOL0     C37550  11.915   9.010   1.409 -0.3292  0.0460  0.9105
  279MOL0     C37551  12.045   8.939   1.358  1.1458  0.1729 -0.2475
  279MOL0     C37552  12.171   9.035   1.356  0.1051  0.1672  0.2417
  279MOL0     C37553  12.300   8.967   1.300 -0.0921  0.7089  0.3846
  279MOL0     O37554  12.295   8.916   1.164 -0.5278  0.5559  0.0694
  279MOL0     C37555  12.417   8.922   1.090 -0.0836  0.4233  0.2015
  279MOL0     C37556  12.410   8.906   0.950 -0.2204  0.0381 -0.6072
  279MOL0     C37557  12.524   8.912   0.863  0.2204  0.6040 -0.4905
  279MOL0     C37558  12.503   8.885   0.722 -0.1923  0.2523  0.1431
  279MOL0     C37559  12.657   8.920   0.919  0.2802 -0.0459  0.7183
  279MOL0     C37560  12.792   8.909   0.853  0.4345  0.7130 -0.2518
  279MOL0     O37561  12.795   8.902   0.720  1.2947 -0.8216  0.1312
  279MOL0     C37562  12.912   8.904   0.658 -0.6122  0.1637  0.1517
  279MOL0     C37563  12.950   8.785   0.596 -0.2369 -0.3663 -0.1937
  279MOL0     C37564  13.070   8.773   0.529 -0.6029 -0.8283 -0.6309
  279MOL0     C37565  13.157   8.883   0.522  0.7439  0.2578 -0.3696
  279MOL0     O37566  13.271   8.868   0.452  0.5053  0.0364  0.1888
  279MOL0     C37567  13.397   8.915   0.504 -1.6813 -0.5791 -0.4229
  279MOL0     C37568  13.482   8.786   0.534 -0.6300 -0.3555 -0.5227
  279MOL0     C37569  13.635   8.817   0.528 -0.5152 -0.1588  0.4031
  279MOL0     C37570  13.686   8.908   0.651  0.0537  0.1379  0.4289
  279MOL0     C37571  13.721   8.817   0.770  0.1158 -0.4682  0.2960
  279MOL0     C37572  13.743   8.900   0.892  0.0989  0.3780  0.4544
  279MOL0     C37573  13.846   9.016   0.892  0.3342  0.1295 -0.1272
  279MOL0     C37574  13.985   8.963   0.866  0.3914  0.1487  0.4461
  279MOL0    Cl37575  14.097   9.108   0.835  0.1536 -0.0522  0.0171
  279MOL0     C37576  13.116   9.013   0.580  0.0924  0.2586 -0.7396
  279MOL0     C37577  12.986   9.016   0.641  0.3495  0.1104  0.0189
  279MOL0     O37578  12.886   8.888   0.928  0.1556  0.6064  0.2340
  279MOL0     C37579  12.656   8.937   1.058  1.1265  0.2021 -0.8383
  279MOL0     C37580  12.538   8.932   1.143  1.2668 -0.0830  0.3010
  279MOL0     N37581  11.780   8.793   1.388  0.2731  0.5613  1.1561
  279MOL0     N37582  11.661   8.756   1.344  0.5276  0.6180  0.1749
  279MOL0     C37583  10.815   8.287   0.976 -0.3313 -0.1847 -0.5546
  279MOL0     C37584  10.692   8.223   0.963  1.1967  0.2114 -0.3214
  279MOL0     C37585  10.350   7.960   0.812  0.2242 -0.4209 -0.2035
  279MOL0     C37586  10.249   8.062   0.802 -0.0466 -0.1791  0.4937
  279MOL0     C37587  10.117   8.012   0.775 -1.6562  0.7211 -0.1805
  279MOL0     C37588  10.090   7.875   0.759  0.2741  0.0708 -0.7750
  279MOL0     O37589   9.968   7.820   0.727  0.5135  0.5760  0.2308
  279MOL0     C37590   9.856   7.908   0.702  0.2690 -0.2860 -0.6037
  279MOL0     C37591   9.841   7.945   0.557  0.2290  0.1674 -0.1645
  279MOL0     C37592   9.855   7.832   0.456  0.6340 -0.2417 -0.2503
  279MOL0     C37593   9.716   7.777   0.441 -0.0750 -0.3055  0.6661
  279MOL0     C37594   9.638   7.861   0.354 -0.4435  0.4744 -0.3528
  279MOL0     C37595   9.574   7.929   0.274 -0.8416 -1.3543 -0.2214
  279MOL0     C37596  10.193   7.782   0.757 -1.0132  0.1070  0.3424
  279MOL0     C37597  10.319   7.829   0.785 -0.2682 -0.1787 -0.3108
  279MOL0     H37598  10.690   8.183   0.623 -1.2445  2.0231  1.7986
  279MOL0     H37599  10.894   8.315   0.651 -1.4536  0.9396 -0.3349
  279MOL0     H37600  11.149   8.237   0.958  0.2535 -2.1700 -1.1929
  279MOL0     H37601  11.156   8.272   0.785  1.6674  0.9226  1.2443
  279MOL0     H37602  11.226   8.505   0.818 -2.6824 -2.5081 -1.4865
  279MOL0     H37603  11.183   8.495   0.984  2.5158 -0.3779  1.6965
  279MOL0     H37604  11.380   8.370   1.052 -0.1695  1.6506  0.7460
  279MOL0     H37605  11.406   8.311   0.881  0.4423  0.7079 -0.3190
  279MOL0     H37606  11.564   8.488   0.978  0.6772 -0.0033 -0.4335
  279MOL0     H37607  11.492   8.552   0.837  1.0267  0.4363  1.2080
  279MOL0     H37608  11.323   8.658   1.006 -0.7060 -0.3024 -1.0111
  279MOL0     H37609  11.420   8.586   1.131  0.1723  2.3868  0.9832
  279MOL0     H37610  11.614   8.687   1.078  1.5280  0.1351 -1.1272
  279MOL0     H37611  11.565   8.746   0.917  0.1032 -0.9493 -0.3073
  279MOL0     H37612  11.556   8.940   1.057 -2.1734  0.4915  2.5073
  279MOL0     H37613  11.389   8.879   1.032 -1.5314 -0.6876  1.4005
  279MOL0     H37614  11.419   8.772   1.257  3.3937 -1.8616 -0.2226
  279MOL0     H37615  11.414   8.943   1.264 -1.2121 -1.4616  1.5483
  279MOL0     H37616  11.662   9.077   1.265  0.4746 -0.3649  0.2213
  279MOL0     H37617  11.910   9.108   1.361 -1.6194  0.0658  1.0370
  279MOL0     H37618  11.930   9.026   1.516 -2.1590 -3.4852  1.8641
  279MOL0     H37619  12.013   8.898   1.261  0.5740  1.3425 -0.5738
  279MOL0     H37620  12.066   8.863   1.434  0.2079 -0.1781 -0.3138
  279MOL0     H37621  12.190   9.058   1.461 -3.2468 -2.1912  1.5743
  279MOL0     H37622  12.150   9.129   1.304 -0.3443 -1.2266 -2.2918
  279MOL0     H37623  12.319   8.879   1.362 -2.8254 -2.4196 -2.8294
  279MOL0     H37624  12.382   9.038   1.316  0.5147  0.0874  0.0873
  279MOL0     H37625  12.319   8.916   0.891 -0.6565 -0.1151  0.0302
  279MOL0     H37626  12.399   8.899   0.692 -0.1945  1.2374  0.5784
  279MOL0     H37627  12.561   8.950   0.655 -1.1009  0.3603 -0.5591
  279MOL0     H37628  12.541   8.788   0.691 -0.0898  1.1219 -2.7830
  279MOL0     H37629  12.884   8.699   0.597  1.3544 -1.6337 -0.1364
  279MOL0     H37630  13.091   8.689   0.464 -1.8878  0.4460 -2.8185
  279MOL0     H37631  13.442   8.975   0.424  0.0901  0.6203  1.3597
  279MOL0     H37632  13.392   8.971   0.598  2.3972 -2.1092  0.9386
  279MOL0     H37633  13.461   8.740   0.631  0.4276  0.7862  0.2910
  279MOL0     H37634  13.459   8.720   0.450 -0.9989 -1.9805  0.8052
  279MOL0     H37635  13.666   8.866   0.435 -0.3865  0.7411  0.9098
  279MOL0     H37636  13.685   8.720   0.523 -0.7204 -0.2300 -3.9399
  279MOL0     H37637  13.783   8.945   0.617 -0.4958  0.9467 -0.3159
  279MOL0     H37638  13.624   8.994   0.678 -0.0500  1.1253 -2.5316
  279MOL0     H37639  13.816   8.766   0.753  0.5302  0.2832  0.3716
  279MOL0     H37640  13.638   8.747   0.787  0.2856 -0.3645  1.6466
  279MOL0     H37641  13.643   8.932   0.922  0.0677  1.3914 -0.6578
  279MOL0     H37642  13.782   8.834   0.970  2.8596  2.0148  0.6053
  279MOL0     H37643  13.838   9.049   0.996 -1.7217 -0.8862  0.0873
  279MOL0     H37644  13.823   9.101   0.827 -0.2886  1.1299  1.3445
  279MOL0     H37645  13.981   8.889   0.785 -2.1567  1.1105 -0.4260
  279MOL0     H37646  14.023   8.910   0.954  0.2844  5.2045  3.9188
  279MOL0     H37647  13.167   9.109   0.585 -2.3367  1.5696  2.6070
  279MOL0     H37648  12.946   9.113   0.668  2.8986  1.1665  0.2421
  279MOL0     H37649  12.747   8.944   1.117 -0.0947  2.4983  0.9261
  279MOL0     H37650  12.549   8.933   1.251  0.1010 -5.1155  0.7117
  279MOL0     H37651  10.831   8.327   1.076 -1.6602  0.2250 -0.4876
  279MOL0     H37652  10.634   8.201   1.052  3.6770 -1.3278  1.0439
  279MOL0     H37653  10.272   8.166   0.823  0.9574 -0.6625  2.0203
  279MOL0     H37654  10.039   8.087   0.765 -3.3842 -0.3511  3.4143
  279MOL0     H37655   9.760   7.863   0.727  0.7728 -1.6500 -1.0046
  279MOL0     H37656   9.858   8.001   0.759  0.4258 -1.9388  2.2768
  279MOL0     H37657   9.906   8.032   0.541  1.7717 -1.0109 -0.5469
  279MOL0     H37658   9.741   7.989   0.547 -1.4242 -3.2516 -0.1463
  279MOL0     H37659   9.930   7.757   0.483 -2.4062 -3.6314 -0.4664
  279MOL0     H37660   9.879   7.874   0.358  0.5552  0.5158  0.0432
  279MOL0     H37661   9.667   7.773   0.539 -1.7485  1.3098 -0.0504
  279MOL0     H37662   9.728   7.682   0.390  2.1178 -1.0626  2.4140
  279MOL0     H37663   9.527   7.989   0.199 -0.1020 -0.5121 -0.0155
  279MOL0     H37664  10.172   7.679   0.732 -0.9776  0.1169  0.2724
  279MOL0     H37665  10.407   7.766   0.792  1.3837  2.1526  2.1571
  280MOL0     O37666   2.719   5.673   8.869 -0.3726 -0.2480 -0.7694
  280MOL0     C37667   2.609   5.655   8.922 -0.8417 -0.3050  0.0553
  280MOL0     O37668   2.498   5.742   8.914  0.3109 -0.8369 -0.4500
  280MOL0     C37669   2.520   5.878   8.895 -0.3652 -0.2030  0.3156
  280MOL0     C37670   2.507   5.925   8.759 -1.0698  0.0290 -0.1548
  280MOL0     C37671   2.547   6.053   8.722  0.0530 -0.3902  0.8996
  280MOL0     C37672   2.564   6.151   8.820 -0.2990  0.2654 -0.0387
  280MOL0     O37673   2.577   6.280   8.778 -0.6838  0.2432  0.1066
  280MOL0     C37674   2.593   6.382   8.873  0.3964 -0.4091  0.8522
  280MOL0     C37675   2.599   6.517   8.800  0.2949 -0.1875 -0.3391
  280MOL0     C37676   2.611   6.637   8.899  0.8564 -0.2752 -0.1530
  280MOL0     C37677   2.738   6.644   8.978 -1.7176  0.1713  0.8475
  280MOL0     C37678   2.769   6.781   9.043 -0.4317 -0.1026  0.2735
  280MOL0     C37679   2.913   6.769   9.104  0.2780 -1.3220  1.1607
  280MOL0     C37680   2.971   6.913   9.120 -1.0424  0.2115  0.4168
  280MOL0     C37681   3.111   6.889   9.191 -0.0292  0.9028  1.0224
  280MOL0     N37682   3.190   6.811   9.094 -0.5275  0.1768  0.0220
  280MOL0     C37683   3.194   6.841   8.958 -0.5262  0.6256 -0.1788
  280MOL0     C37684   3.304   6.778   8.913 -0.5462  0.5255  0.2047
  280MOL0     C37685   3.338   6.752   8.763  0.2500  0.2403 -0.1473
  280MOL0     C37686   3.288   6.611   8.727  0.0056  0.3544 -0.0818
  280MOL0     C37687   3.126   6.598   8.745 -0.4766 -0.1266  1.3965
  280MOL0     C37688   3.086   6.454   8.744 -0.0643 -0.0458 -0.9293
  280MOL0     O37689   3.153   6.365   8.655 -0.0453 -0.1913  0.3645
  280MOL0     C37690   3.162   6.242   8.719 -0.1619 -0.0509 -0.0997
  280MOL0     C37691   3.050   6.167   8.761  0.0395 -0.1272 -0.5735
  280MOL0     C37692   3.060   6.046   8.831 -0.4007 -0.5129 -0.1171
  280MOL0     C37693   2.945   5.949   8.874  0.3379 -0.4064  0.3810
  280MOL0     C37694   3.194   6.006   8.866 -0.3308 -0.1183  0.0580
  280MOL0     C37695   3.216   5.873   8.928 -0.3907 -0.6284 -0.4264
  280MOL0     O37696   3.166   5.859   9.051 -0.2513  0.2503  0.4143
  280MOL0     C37697   3.167   5.731   9.105 -0.4390  0.0727 -0.3971
  280MOL0     C37698   3.048   5.649   9.093  0.4232 -0.4784 -1.7957
  280MOL0     C37699   3.047   5.531   9.162 -0.1476 -0.6892 -0.5965
  280MOL0     C37700   3.169   5.480   9.224  1.0722 -0.2361 -0.3226
  280MOL0     O37701   3.179   5.355   9.289  0.6061  0.0491 -0.5009
  280MOL0     C37702   3.055   5.287   9.307  0.0773 -1.2191 -0.3731
  280MOL0     C37703   3.082   5.168   9.398  0.0114 -0.5976  0.3916
  280MOL0     C37704   3.159   5.069   9.310  0.0173  0.3641 -0.4031
  280MOL0     C37705   3.196   4.938   9.381 -1.0307 -0.4106  0.0482
  280MOL0     C37706   3.282   4.842   9.299 -0.7516  0.9766 -1.5663
  280MOL0     C37707   3.278   4.704   9.355 -0.2589  0.5410  0.4922
  280MOL0     C37708   3.341   4.673   9.488 -0.1489  0.1893 -0.0235
  280MOL0     C37709   3.346   4.527   9.509  0.3097  0.3328 -0.3684
  280MOL0    Cl37710   3.432   4.478   9.652 -0.0803  0.2778 -0.1907
  280MOL0     C37711   3.281   5.558   9.228  0.4533  0.3623 -0.1232
  280MOL0     C37712   3.278   5.686   9.176 -0.6800 -0.3545 -0.3475
  280MOL0     O37713   3.244   5.783   8.854 -0.2262  0.9626  0.4434
  280MOL0     C37714   3.308   6.082   8.823 -0.8418  0.0629 -0.7352
  280MOL0     C37715   3.287   6.203   8.755 -0.2333 -0.5339 -0.4297
  280MOL0     N37716   3.370   6.708   9.019  0.1701 -0.8105 -0.0465
  280MOL0     N37717   3.308   6.731   9.124 -0.6961  0.1209  0.5665
  280MOL0     C37718   2.568   6.113   8.955 -0.5557  0.2137  0.4412
  280MOL0     C37719   2.555   5.976   8.990  0.2775  0.5868 -0.3078
  280MOL0     C37720   2.598   5.524   8.991  0.2479 -0.8223 -0.5455
  280MOL0     C37721   2.707   5.438   9.010  0.6366 -0.3569  0.3147
  280MOL0     C37722   2.686   5.317   9.065 -0.2073  1.3032  0.1230
  280MOL0     C37723   2.554   5.272   9.097 -0.2407  0.5862  0.2644
  280MOL0     O37724   2.529   5.137   9.138 -0.4471 -0.0747 -0.7575
  280MOL0     C37725   2.498   5.129   9.278  0.0675  0.9132 -0.0120
  280MOL0     C37726   2.389   5.018   9.311  0.2520 -0.6271 -0.0797
  280MOL0     C37727   2.333   5.023   9.450  0.7995  0.5147  0.5170
  280MOL0     C37728   2.213   4.934   9.468 -0.0281  0.7401 -0.2006
  280MOL0     C37729   2.098   5.004   9.414 -0.1145  0.1653 -0.3506
  280MOL0     C37730   2.011   5.080   9.374  0.3911 -0.6539 -0.6313
  280MOL0     C37731   2.448   5.359   9.082 -0.3497 -0.8691  0.3249
  280MOL0     C37732   2.472   5.485   9.033 -0.6356  0.6600  0.1175
  280MOL0     H37733   2.479   5.849   8.687 -1.7119  1.1303 -1.1121
  280MOL0     H37734   2.551   6.073   8.616 -0.8682  0.4479  1.0100
  280MOL0     H37735   2.510   6.365   8.942  1.4622 -2.4076  1.7460
  280MOL0     H37736   2.686   6.355   8.924 -0.6611 -4.8521  0.8505
  280MOL0     H37737   2.691   6.521   8.742  0.0973 -3.3861 -1.0755
  280MOL0     H37738   2.506   6.527   8.742 -0.9981 -6.1810 -0.0228
  280MOL0     H37739   2.604   6.731   8.845 -0.8802 -1.5344 -2.2913
  280MOL0     H37740   2.518   6.641   8.958 -0.6128 -0.2477 -2.3548
  280MOL0     H37741   2.746   6.565   9.053  2.5113 -0.9711 -0.4917
  280MOL0     H37742   2.821   6.629   8.909 -0.5967  2.6274  1.5443
  280MOL0     H37743   2.758   6.863   8.971 -2.4253  3.2747  4.0217
  280MOL0     H37744   2.698   6.793   9.126 -0.3475 -0.3730  0.3870
  280MOL0     H37745   2.920   6.718   9.200 -0.3144 -0.7645  1.5057
  280MOL0     H37746   2.974   6.723   9.026 -0.3228 -0.7464  0.3307
  280MOL0     H37747   2.979   6.985   9.038 -3.2282  0.1769  0.1041
  280MOL0     H37748   2.911   6.959   9.199 -1.6657 -2.0211  1.3296
  280MOL0     H37749   3.101   6.833   9.284  1.2422 -1.1698 -0.0303
  280MOL0     H37750   3.145   6.988   9.221  0.2272  0.5848  1.7976
  280MOL0     H37751   3.117   6.880   8.892  1.6067  2.1714 -1.9262
  280MOL0     H37752   3.287   6.826   8.702  0.7927  1.3329  0.6962
  280MOL0     H37753   3.446   6.762   8.748  0.3876 -1.2545 -0.3326
  280MOL0     H37754   3.319   6.523   8.785  0.1653  0.2685 -0.2939
  280MOL0     H37755   3.324   6.597   8.624  3.2821  0.8526  0.8658
  280MOL0     H37756   3.073   6.641   8.659  0.8649 -2.0350 -0.4612
  280MOL0     H37757   3.086   6.632   8.842  1.7325 -0.6600  2.5590
  280MOL0     H37758   2.978   6.439   8.733 -0.5371  0.7962  1.7959
  280MOL0     H37759   3.120   6.429   8.845  0.6853 -3.2217 -1.8555
  280MOL0     H37760   2.960   6.202   8.712 -0.8563 -1.0895  0.3675
  280MOL0     H37761   2.927   5.963   8.981  1.6674 -0.2406  0.6058
  280MOL0     H37762   2.855   5.981   8.821  0.9674  1.4157  0.3488
  280MOL0     H37763   2.964   5.847   8.839 -0.4593 -0.5137  0.2576
  280MOL0     H37764   2.959   5.678   9.039  0.5399 -2.2710 -3.0204
  280MOL0     H37765   2.961   5.465   9.155  0.8014 -1.8824 -1.2792
  280MOL0     H37766   2.982   5.355   9.351  0.7853  0.7218 -2.0726
  280MOL0     H37767   3.018   5.250   9.211 -0.6078  1.7203 -1.3352
  280MOL0     H37768   3.119   5.206   9.493 -2.1291 -1.7225  1.7347
  280MOL0     H37769   2.988   5.118   9.426 -0.3364  0.4535  1.1552
  280MOL0     H37770   3.249   5.115   9.269  0.6967  0.8906  1.5697
  280MOL0     H37771   3.091   5.054   9.226 -1.7887  0.1690  1.0238
  280MOL0     H37772   3.255   4.965   9.469 -1.0191  0.9275 -0.3491
  280MOL0     H37773   3.101   4.891   9.407 -1.3325 -0.3663 -0.9208
  280MOL0     H37774   3.382   4.885   9.289 -0.2722  0.0859 -0.6289
  280MOL0     H37775   3.239   4.840   9.198 -0.4718  1.7370 -1.7120
  280MOL0     H37776   3.182   4.653   9.346 -1.1927  2.3617 -0.3550
  280MOL0     H37777   3.335   4.647   9.281  0.5088 -0.2485  1.6598
  280MOL0     H37778   3.285   4.721   9.570  0.3664 -0.7951  0.9327
  280MOL0     H37779   3.447   4.698   9.498 -0.0665 -1.0483  3.9920
  280MOL0     H37780   3.388   4.481   9.419 -0.7211 -1.2275 -0.0954
  280MOL0     H37781   3.244   4.489   9.506 -0.1874  1.5872  0.1250
  280MOL0     H37782   3.368   5.528   9.285  1.9017  1.1102 -1.8629
  280MOL0     H37783   3.349   5.766   9.198 -1.3900  0.9114 -2.4051
  280MOL0     H37784   3.407   6.044   8.845 -1.6070 -1.6686  0.0131
  280MOL0     H37785   3.374   6.261   8.724 -0.1929  1.6104  3.0998
  280MOL0     H37786   2.587   6.185   9.033 -0.5177  4.4304 -3.0671
  280MOL0     H37787   2.559   5.921   9.084 -0.8535 -0.4236 -0.8246
  280MOL0     H37788   2.803   5.475   8.976  1.6646 -2.4574  0.7545
  280MOL0     H37789   2.766   5.244   9.064  0.1875  1.7122  1.1387
  280MOL0     H37790   2.592   5.115   9.331 -0.5541  0.4449  1.0172
  280MOL0     H37791   2.460   5.223   9.320 -1.1436  0.6470 -0.4612
  280MOL0     H37792   2.435   4.919   9.299 -0.6744 -0.8797 -2.0217
  280MOL0     H37793   2.314   5.030   9.232 -1.2806  1.3083  1.5796
  280MOL0     H37794   2.312   5.126   9.480 -5.5803 -0.0301 -0.6188
  280MOL0     H37795   2.409   4.984   9.519 -1.5342 -0.4116  2.7365
  280MOL0     H37796   2.194   4.919   9.574 -3.4119 -3.7621 -1.1408
  280MOL0     H37797   2.222   4.838   9.416 -0.8247  1.4147 -1.6331
  280MOL0     H37798   1.931   5.148   9.352 -1.5880 -2.4974  0.4634
  280MOL0     H37799   2.347   5.331   9.110 -0.6331 -1.0555 -0.8258
  280MOL0     H37800   2.388   5.552   9.049 -1.6967 -0.3417 -0.9314
  281MOL0     O37801   8.781   8.685   9.577  0.3758 -1.1784  0.6594
  281MOL0     C37802   8.761   8.718   9.460  0.6511  0.0366 -0.9627
  281MOL0     O37803   8.826   8.651   9.354  0.4335 -0.2327  0.6897
  281MOL0     C37804   8.939   8.584   9.390  0.8736  0.7753  1.1551
  281MOL0     C37805   9.058   8.658   9.418  0.0602  0.0929 -0.1169
  281MOL0     C37806   9.177   8.587   9.437  0.4633 -1.9337  0.7289
  281MOL0     C37807   9.179   8.443   9.426  0.4772 -0.1669 -0.1365
  281MOL0     O37808   9.298   8.377   9.445  0.3844 -0.0464  0.3824
  281MOL0     C37809   9.334   8.259   9.373 -0.4339 -0.3909 -0.3558
  281MOL0     C37810   9.485   8.239   9.372 -0.1984 -0.5566 -0.9264
  281MOL0     C37811   9.540   8.130   9.292 -0.1064  0.2718  1.1076
  281MOL0     C37812   9.682   8.112   9.326 -0.1683  0.1158  0.4684
  281MOL0     C37813   9.759   8.036   9.228 -0.4496  0.4452  0.5197
  281MOL0     C37814   9.908   8.043   9.276 -0.3513 -0.3959  0.1465
  281MOL0     C37815   9.995   7.943   9.187 -0.0800  0.0113  0.7825
  281MOL0     C37816   9.951   7.791   9.216 -0.5916 -0.2415 -0.2614
  281MOL0     N37817  10.060   7.706   9.180 -1.4291 -0.1000  0.1686
  281MOL0     C37818  10.062   7.589   9.111  0.4558 -0.5518  0.2194
  281MOL0     C37819  10.189   7.535   9.117  0.0314 -0.0009 -0.0119
  281MOL0     C37820  10.254   7.411   9.058 -0.3771 -0.0377  0.1144
  281MOL0     C37821  10.194   7.353   8.929 -0.0092  0.1609 -0.7264
  281MOL0     C37822  10.178   7.444   8.805 -0.8708 -0.3324 -1.4139
  281MOL0     C37823  10.069   7.385   8.712  0.4072  0.3295 -0.0824
  281MOL0     O37824  10.033   7.487   8.613  0.5615  0.4530 -0.4860
  281MOL0     C37825   9.940   7.588   8.643  0.7019 -0.1439  0.2277
  281MOL0     C37826   9.915   7.692   8.553  1.0265  0.1265  0.4554
  281MOL0     C37827   9.821   7.797   8.569 -0.6457  0.1592 -0.1388
  281MOL0     C37828   9.811   7.912   8.461 -0.2601 -0.3746  0.2159
  281MOL0     C37829   9.740   7.801   8.689 -0.2839  0.1608  1.5931
  281MOL0     C37830   9.653   7.918   8.718 -0.4241  0.7659 -0.1593
  281MOL0     O37831   9.622   7.935   8.848 -0.7375  0.0563 -0.2874
  281MOL0     C37832   9.540   8.042   8.883 -0.9328 -0.3586 -0.2160
  281MOL0     C37833   9.402   8.021   8.877 -0.8420 -0.1456 -0.1406
  281MOL0     C37834   9.316   8.115   8.907  0.2184  0.1248 -0.7633
  281MOL0     C37835   9.365   8.245   8.945 -0.0604 -0.3368  0.1580
  281MOL0     O37836   9.271   8.335   8.967  0.5616 -0.4599  0.3880
  281MOL0     C37837   9.286   8.438   9.072  0.4939  0.8606 -0.8559
  281MOL0     C37838   9.326   8.578   9.016 -0.7337 -0.3220  1.2019
  281MOL0     C37839   9.357   8.677   9.129  1.0434  0.8555  0.1452
  281MOL0     C37840   9.376   8.820   9.081  1.0864 -0.3467 -0.5999
  281MOL0     C37841   9.362   8.919   9.197  0.2621 -0.3094 -0.1187
  281MOL0     C37842   9.458   9.041   9.171  0.3032  0.0903 -0.4357
  281MOL0     C37843   9.451   9.129   9.299  0.3952 -0.6698 -0.6100
  281MOL0     C37844   9.568   9.236   9.301  0.0382 -0.1070  1.3525
  281MOL0    Cl37845   9.532   9.375   9.412 -0.3309 -0.3047  0.4105
  281MOL0     C37846   9.502   8.266   8.947 -1.0140  0.5816  0.5993
  281MOL0     C37847   9.596   8.167   8.914 -0.6756  0.1042 -0.6535
  281MOL0     O37848   9.594   7.968   8.627 -0.3016 -0.2439 -0.2956
  281MOL0     C37849   9.764   7.694   8.776 -0.3239  1.1840  0.1730
  281MOL0     C37850   9.865   7.595   8.758 -0.0889 -0.3234  0.0464
  281MOL0     N37851  10.264   7.629   9.185 -0.0389  0.1458  1.5073
  281MOL0     N37852  10.189   7.725   9.220  1.4334 -0.4472 -0.8048
  281MOL0     C37853   9.057   8.377   9.403 -1.1958  0.4403  0.0941
  281MOL0     C37854   8.935   8.447   9.386 -0.4746  0.3297 -0.1259
  281MOL0     C37855   8.667   8.828   9.433 -0.4020 -0.4249 -0.2572
  281MOL0     C37856   8.657   8.875   9.308  0.4647 -0.7453  0.3282
  281MOL0     C37857   8.556   8.960   9.263 -0.9771 -0.1232  0.8131
  281MOL0     C37858   8.455   9.001   9.347 -0.8338  1.2700  0.3139
  281MOL0     O37859   8.346   9.067   9.292  0.6737  0.0064  0.9612
  281MOL0     C37860   8.262   9.153   9.367 -0.1134  0.1127 -0.0883
  281MOL0     C37861   8.199   9.254   9.276 -0.9014  0.9855 -0.5690
  281MOL0     C37862   8.307   9.306   9.182  0.0032  0.0089 -0.4647
  281MOL0     C37863   8.259   9.452   9.136 -0.2425 -0.0362 -0.0217
  281MOL0     C37864   8.263   9.566   9.234 -0.0580 -0.3050 -0.0778
  281MOL0     C37865   8.264   9.667   9.306  0.4375 -0.2265 -0.3881
  281MOL0     C37866   8.459   8.954   9.478 -1.0068 -0.0866  0.6001
  281MOL0     C37867   8.564   8.866   9.525 -0.0040 -1.0440 -0.1461
  281MOL0     H37868   9.073   8.765   9.410  2.1308 -0.1809 -0.5106
  281MOL0     H37869   9.273   8.636   9.448 -0.7603  0.7576  0.1472
  281MOL0     H37870   9.284   8.176   9.422 -1.7988  1.4247  1.4690
  281MOL0     H37871   9.295   8.264   9.271  2.5731 -0.6827 -1.6340
  281MOL0     H37872   9.540   8.331   9.353 -0.2415 -0.3445 -0.0701
  281MOL0     H37873   9.511   8.217   9.476 -0.2526  0.2613 -0.7329
  281MOL0     H37874   9.486   8.038   9.314 -1.2523 -0.2151 -2.9612
  281MOL0     H37875   9.535   8.159   9.187  1.5680 -1.1756  0.5757
  281MOL0     H37876   9.723   8.213   9.319  2.3223 -0.5994  3.0062
  281MOL0     H37877   9.695   8.075   9.428  0.0987 -1.2134 -0.0236
  281MOL0     H37878   9.727   7.931   9.238 -2.9429  1.0951 -0.0178
  281MOL0     H37879   9.745   8.077   9.128 -0.6447  2.1033  1.2075
  281MOL0     H37880   9.934   8.149   9.276 -0.3969 -0.2644  3.8057
  281MOL0     H37881   9.926   8.017   9.380 -1.5121  0.5344  0.5890
  281MOL0     H37882   9.987   7.966   9.080  1.5963  0.4632  0.7344
  281MOL0     H37883  10.100   7.948   9.215  0.8175 -1.2897 -1.9882
  281MOL0     H37884   9.867   7.760   9.153  0.4893  0.4785 -2.1385
  281MOL0     H37885   9.917   7.792   9.320  0.5189 -0.5528  0.1169
  281MOL0     H37886   9.979   7.547   9.055 -0.9392 -3.4961  4.0340
  281MOL0     H37887  10.362   7.423   9.047 -0.4284 -0.2755 -0.6893
  281MOL0     H37888  10.247   7.328   9.130 -1.6962 -0.5350 -0.5528
  281MOL0     H37889  10.094   7.325   8.963  0.9181 -1.2710  0.9717
  281MOL0     H37890  10.247   7.261   8.907 -0.1465  0.4178 -2.2441
  281MOL0     H37891  10.269   7.463   8.748  1.0497 -1.7519  0.9877
  281MOL0     H37892  10.140   7.538   8.848  0.4928 -1.1591  1.9249
  281MOL0     H37893   9.974   7.366   8.763  1.1931 -0.3973  1.1522
  281MOL0     H37894  10.111   7.296   8.665  2.5000  2.4651 -2.5765
  281MOL0     H37895   9.991   7.702   8.476  0.0962 -0.6268 -0.6038
  281MOL0     H37896   9.710   7.915   8.418  0.5046 -1.7073 -1.8352
  281MOL0     H37897   9.857   8.006   8.492 -2.6947  0.7242  0.7732
  281MOL0     H37898   9.876   7.877   8.380 -1.8963 -1.1586 -0.8091
  281MOL0     H37899   9.363   7.930   8.831 -0.5896 -0.7173  0.7595
  281MOL0     H37900   9.213   8.099   8.876 -0.2472  1.5744 -0.0398
  281MOL0     H37901   9.196   8.438   9.134  0.8813 -3.0412 -0.0421
  281MOL0     H37902   9.369   8.404   9.134 -0.1330 -0.3401 -0.6300
  281MOL0     H37903   9.405   8.575   8.941  0.4431  0.5905  2.3578
  281MOL0     H37904   9.242   8.617   8.958  0.0278 -0.3421  0.0543
  281MOL0     H37905   9.451   8.647   9.175  0.0779  0.6155  2.0683
  281MOL0     H37906   9.276   8.674   9.203  2.7113  1.1759  2.0818
  281MOL0     H37907   9.482   8.832   9.056  0.8922  5.5340  0.0194
  281MOL0     H37908   9.329   8.841   8.984  3.7900  0.3048 -1.8614
  281MOL0     H37909   9.385   8.867   9.291  0.9636 -0.9582 -0.6368
  281MOL0     H37910   9.254   8.937   9.198 -0.0945 -2.2147 -0.3321
  281MOL0     H37911   9.556   8.998   9.150  0.1941 -0.3271 -0.1253
  281MOL0     H37912   9.430   9.090   9.078  1.0401 -2.6442 -2.1894
  281MOL0     H37913   9.465   9.053   9.377  1.8277 -2.9713 -2.9260
  281MOL0     H37914   9.353   9.175   9.296  0.4383 -0.5695 -0.4629
  281MOL0     H37915   9.595   9.281   9.205 -0.0512 -1.3893  0.7075
  281MOL0     H37916   9.650   9.175   9.340 -1.2549 -2.2269  0.9023
  281MOL0     H37917   9.538   8.363   8.980 -0.8920  0.4269  0.9282
  281MOL0     H37918   9.702   8.191   8.914 -0.9558  2.3941  3.7144
  281MOL0     H37919   9.718   7.689   8.874  0.2568 -1.1675  0.3791
  281MOL0     H37920   9.867   7.520   8.836  0.4822  3.4516  4.0683
  281MOL0     H37921   9.071   8.270   9.390  0.4036  0.8727 -2.5457
  281MOL0     H37922   8.849   8.382   9.383 -0.8527  0.8475 -1.4975
  281MOL0     H37923   8.723   8.826   9.238  2.1637  1.2014  0.4826
  281MOL0     H37924   8.551   8.980   9.157 -0.8282 -5.4094 -0.4621
  281MOL0     H37925   8.182   9.095   9.414 -0.0018  0.6111  0.7445
  281MOL0     H37926   8.321   9.194   9.450 -2.1651  3.5169 -0.1318
  281MOL0     H37927   8.163   9.336   9.340  0.6565  0.7301  0.6990
  281MOL0     H37928   8.114   9.219   9.216 -0.7553 -0.6623  0.1401
  281MOL0     H37929   8.305   9.258   9.084 -3.1574  0.5918 -0.7930
  281MOL0     H37930   8.401   9.303   9.237  0.3775  3.0245 -0.7647
  281MOL0     H37931   8.153   9.441   9.110 -0.8022  1.8371  1.2738
  281MOL0     H37932   8.324   9.478   9.053  2.2180  0.6795  1.9990
  281MOL0     H37933   8.276   9.754   9.369 -0.9878  1.1253 -1.8923
  281MOL0     H37934   8.379   8.976   9.548 -0.4876 -3.7203  2.5491
  281MOL0     H37935   8.554   8.809   9.616 -0.2267 -3.4042 -1.5754
  282MOL0     O37936   4.219   2.693   7.278  0.2858 -0.1915 -0.6427
  282MOL0     C37937   4.280   2.760   7.358 -0.0469 -0.3967 -0.4292
  282MOL0     O37938   4.280   2.893   7.358 -0.5541  0.0019  0.4125
  282MOL0     C37939   4.178   2.967   7.297 -0.9244 -0.2250  0.1145
  282MOL0     C37940   4.221   3.071   7.210  0.0523  0.5372 -0.1464
  282MOL0     C37941   4.129   3.161   7.149 -0.2906 -0.6458 -0.2628
  282MOL0     C37942   3.996   3.126   7.156  0.1894 -0.1500  0.2909
  282MOL0     O37943   3.911   3.218   7.088 -0.4341 -0.1050  0.1400
  282MOL0     C37944   3.788   3.251   7.146  0.1467  0.1326  0.4913
  282MOL0     C37945   3.809   3.341   7.265 -0.3593  0.4193  0.7425
  282MOL0     C37946   3.681   3.397   7.325 -0.6227  0.9818  0.6492
  282MOL0     C37947   3.718   3.516   7.419  0.0299 -0.7144 -0.1255
  282MOL0     C37948   3.793   3.473   7.542  0.1759 -1.1128  0.0415
  282MOL0     C37949   3.705   3.384   7.633 -0.5423 -0.2265 -0.1969
  282MOL0     C37950   3.745   3.383   7.781 -0.4432 -0.0698  0.2474
  282MOL0     C37951   3.669   3.488   7.859  0.5129  0.1258 -0.4106
  282MOL0     N37952   3.523   3.471   7.848  0.3801 -0.3043 -0.7250
  282MOL0     C37953   3.453   3.367   7.898  0.0703 -0.9344 -0.6562
  282MOL0     C37954   3.319   3.389   7.851  0.0344  0.0721 -0.6827
  282MOL0     C37955   3.186   3.331   7.900  0.3348  0.0293 -0.9991
  282MOL0     C37956   3.212   3.251   8.031  0.1661  0.2544  0.0117
  282MOL0     C37957   3.103   3.167   8.082 -0.0738 -0.0417  0.5891
  282MOL0     C37958   2.978   3.247   8.138 -0.8480  1.1438  0.6338
  282MOL0     O37959   2.887   3.161   8.217 -0.2094  0.1555 -0.0888
  282MOL0     C37960   2.859   3.187   8.354 -0.0314  0.7106  0.3012
  282MOL0     C37961   2.737   3.137   8.395  0.1738  0.0658  0.0497
  282MOL0     C37962   2.709   3.153   8.535 -0.0932 -0.3890  1.3879
  282MOL0     C37963   2.584   3.086   8.581 -0.1210  0.1998  0.7049
  282MOL0     C37964   2.805   3.217   8.619  0.4328 -0.2768 -0.7396
  282MOL0     C37965   2.765   3.253   8.761  0.4987  0.7606  0.2335
  282MOL0     O37966   2.632   3.258   8.800  0.5028  1.0553 -0.1971
  282MOL0     C37967   2.618   3.309   8.931 -0.0681 -0.4236  1.1656
  282MOL0     C37968   2.547   3.227   9.020 -0.7933 -0.3136  0.1582
  282MOL0     C37969   2.515   3.265   9.151 -1.2330 -0.2050  0.0313
  282MOL0     C37970   2.546   3.396   9.188 -0.1804 -0.2705  0.3865
  282MOL0     O37971   2.527   3.421   9.317 -0.1575  0.1398 -0.5078
  282MOL0     C37972   2.642   3.474   9.398 -0.8549 -0.8114 -0.4130
  282MOL0     C37973   2.609   3.467   9.550  0.5263  0.1447 -0.3877
  282MOL0     C37974   2.508   3.573   9.581  0.0623 -0.0401  0.1518
  282MOL0     C37975   2.444   3.563   9.729  0.3145  0.4760 -0.5627
  282MOL0     C37976   2.347   3.674   9.775 -0.5521  0.5118  0.6325
  282MOL0     C37977   2.253   3.634   9.892 -0.4766 -0.6312  0.4601
  282MOL0     C37978   2.150   3.738   9.921 -0.6084 -0.6395 -0.0949
  282MOL0     C37979   2.063   3.706  10.038 -0.7074  0.6836  0.3128
  282MOL0    Cl37980   1.944   3.583  10.005 -0.1875  0.8669 -0.0615
  282MOL0     C37981   2.613   3.483   9.094 -0.0073  0.4807  0.2691
  282MOL0     C37982   2.644   3.439   8.966  0.6514  0.0734 -0.2462
  282MOL0     O37983   2.860   3.280   8.837  0.0342  0.3304 -0.2471
  282MOL0     C37984   2.932   3.248   8.576  0.7639 -0.7770 -0.1834
  282MOL0     C37985   2.953   3.245   8.445 -0.6421  0.2399  0.5240
  282MOL0     N37986   3.320   3.498   7.779 -0.0908  0.2621 -0.6862
  282MOL0     N37987   3.441   3.551   7.775  0.0685 -0.4835  0.2682
  282MOL0     C37988   3.955   3.024   7.234 -0.0264  0.7949 -0.0023
  282MOL0     C37989   4.038   2.944   7.305  0.2571  0.1634 -0.2040
  282MOL0     C37990   4.380   2.684   7.431 -1.0418 -0.3054  0.6035
  282MOL0     C37991   4.455   2.741   7.535  0.0617 -0.0564  0.1753
  282MOL0     C37992   4.555   2.677   7.598  0.5059 -0.8781  0.7037
  282MOL0     C37993   4.570   2.544   7.578 -1.0268  0.0583  0.7855
  282MOL0     O37994   4.674   2.487   7.653  0.0424 -0.4276  0.3702
  282MOL0     C37995   4.686   2.341   7.674  0.2843 -0.9972 -0.4512
  282MOL0     C37996   4.829   2.287   7.676 -0.6231 -0.3280  0.0600
  282MOL0     C37997   4.827   2.135   7.698  0.3548 -0.6685  0.1878
  282MOL0     C37998   4.966   2.073   7.740 -0.2704 -0.4978 -0.4951
  282MOL0     C37999   5.062   2.067   7.633 -0.7753 -0.6083 -0.1087
  282MOL0     C38000   5.143   2.057   7.545  0.2242 -0.1891  0.2013
  282MOL0     C38001   4.491   2.474   7.488 -0.0911  0.6990 -0.7436
  282MOL0     C38002   4.403   2.547   7.413  0.5278  0.6459 -0.5606
  282MOL0     H38003   4.328   3.086   7.200 -0.2141  1.3348 -2.3092
  282MOL0     H38004   4.159   3.244   7.086  1.3172 -2.2404 -1.7281
  282MOL0     H38005   3.731   3.303   7.068  0.7823  2.0130  1.2249
  282MOL0     H38006   3.733   3.164   7.181  0.8605 -0.1026  1.0420
  282MOL0     H38007   3.860   3.290   7.347 -2.4264  1.8780  3.0639
  282MOL0     H38008   3.869   3.428   7.237 -1.6693  1.0855 -0.0731
  282MOL0     H38009   3.600   3.414   7.254 -1.2504 -2.3345  0.3976
  282MOL0     H38010   3.626   3.320   7.380 -2.9543  1.4897 -0.8698
  282MOL0     H38011   3.788   3.584   7.370 -0.2473  0.0247  0.5026
  282MOL0     H38012   3.625   3.570   7.435 -0.5109 -1.3178 -1.1176
  282MOL0     H38013   3.893   3.431   7.527  0.9649  0.5971  0.1845
  282MOL0     H38014   3.821   3.564   7.596 -0.4320 -0.1983 -1.1228
  282MOL0     H38015   3.597   3.398   7.628 -0.3949  0.8222 -1.1580
  282MOL0     H38016   3.730   3.282   7.602 -0.8881 -1.1590  2.4080
  282MOL0     H38017   3.736   3.289   7.835 -0.9383 -0.2732 -0.1757
  282MOL0     H38018   3.851   3.398   7.802 -1.2725  1.8291  3.9853
  282MOL0     H38019   3.704   3.583   7.817  1.7544  0.1688  0.6645
  282MOL0     H38020   3.697   3.493   7.965  0.3137 -1.2951 -0.2685
  282MOL0     H38021   3.488   3.290   7.966  0.0203 -0.9736 -0.6739
  282MOL0     H38022   3.106   3.406   7.903 -0.5032 -0.8634 -0.5153
  282MOL0     H38023   3.148   3.266   7.820 -2.2016  1.8660 -1.4335
  282MOL0     H38024   3.248   3.312   8.115 -2.8617 -0.5521  2.0519
  282MOL0     H38025   3.295   3.181   8.019  2.1262  2.0608  2.1201
  282MOL0     H38026   3.142   3.116   8.170 -0.8292 -0.4346  0.7063
  282MOL0     H38027   3.051   3.105   8.008  0.0231  0.0346  0.4569
  282MOL0     H38028   2.915   3.283   8.055 -5.3923  1.1370  3.7102
  282MOL0     H38029   3.010   3.335   8.194 -1.2421  1.4021  0.4658
  282MOL0     H38030   2.666   3.082   8.333 -4.1231  2.1547  2.6361
  282MOL0     H38031   2.532   3.031   8.502  0.2656  1.1648 -0.2441
  282MOL0     H38032   2.617   3.010   8.653  0.7406  0.9001  1.0685
  282MOL0     H38033   2.517   3.164   8.619 -0.4218  1.1961 -1.6806
  282MOL0     H38034   2.522   3.127   8.989 -0.0225 -1.2779  2.3955
  282MOL0     H38035   2.474   3.200   9.227  0.6655  0.3068  1.5658
  282MOL0     H38036   2.744   3.442   9.376  0.6466  2.8615  0.5414
  282MOL0     H38037   2.636   3.582   9.384 -0.5597 -0.8562 -0.9061
  282MOL0     H38038   2.584   3.362   9.567  1.9110 -0.2954 -0.9311
  282MOL0     H38039   2.695   3.504   9.607 -1.0598  4.8638 -0.6726
  282MOL0     H38040   2.426   3.567   9.509 -0.4508  0.7899  0.6479
  282MOL0     H38041   2.555   3.672   9.573  0.1789 -0.0511  0.6415
  282MOL0     H38042   2.392   3.468   9.726  1.0725  0.0569 -0.6612
  282MOL0     H38043   2.529   3.559   9.798 -0.8732  1.2321  1.0137
  282MOL0     H38044   2.274   3.708   9.700 -2.3687  2.6136  3.1478
  282MOL0     H38045   2.401   3.759   9.818 -0.1584 -0.5094  2.2327
  282MOL0     H38046   2.191   3.549   9.863 -2.2823  0.8124 -0.0889
  282MOL0     H38047   2.321   3.617   9.977  1.4024  0.4801 -0.7497
  282MOL0     H38048   2.085   3.757   9.834 -0.5469 -0.0643 -0.0196
  282MOL0     H38049   2.212   3.822   9.952  0.1960 -0.7362 -1.3539
  282MOL0     H38050   2.010   3.799  10.061 -2.0786  0.3584 -1.3444
  282MOL0     H38051   2.124   3.676  10.123  0.6050  1.5219 -0.2909
  282MOL0     H38052   2.643   3.577   9.139 -1.3580  1.0628  0.0157
  282MOL0     H38053   2.692   3.496   8.886 -2.7626  2.5907 -0.7670
  282MOL0     H38054   3.005   3.282   8.648 -1.3167 -0.3168  1.8611
  282MOL0     H38055   3.050   3.277   8.410  1.1517 -2.1345  2.9838
  282MOL0     H38056   3.849   3.003   7.229  0.2199 -2.3226  3.4759
  282MOL0     H38057   4.002   2.858   7.360 -0.1354 -0.3269 -1.2167
  282MOL0     H38058   4.447   2.849   7.549  1.5091  0.4067 -2.0678
  282MOL0     H38059   4.616   2.726   7.674  0.0735  0.5729  0.1362
  282MOL0     H38060   4.635   2.318   7.768 -1.7602  0.8385 -1.0252
  282MOL0     H38061   4.625   2.291   7.598 -0.1664  1.1026 -1.5255
  282MOL0     H38062   4.875   2.341   7.760 -0.4807 -1.8570  0.9973
  282MOL0     H38063   4.882   2.325   7.588  0.7605  0.6878  1.2701
  282MOL0     H38064   4.785   2.082   7.613 -2.1643  2.1676 -0.5007
  282MOL0     H38065   4.758   2.121   7.782  3.2885 -0.3822  2.8274
  282MOL0     H38066   4.947   1.969   7.768  1.4237 -0.8319 -0.4846
  282MOL0     H38067   5.002   2.122   7.831 -2.1321 -1.6768  0.9404
  282MOL0     H38068   5.211   2.056   7.463 -2.8698 -1.7964 -2.5605
  282MOL0     H38069   4.499   2.366   7.476  1.4378  0.7352 -0.2181
  282MOL0     H38070   4.350   2.487   7.339 -0.1936  0.3534  0.1868
  283MOL0     O38071   5.804   4.559   4.403 -0.8015  0.0790  0.6419
  283MOL0     C38072   5.735   4.489   4.335  1.4964  1.0701 -0.5454
  283MOL0     O38073   5.725   4.348   4.334  0.8942  0.0272 -0.6729
  283MOL0     C38074   5.796   4.276   4.428 -0.1619  1.0312 -0.4962
  283MOL0     C38075   5.870   4.162   4.391 -0.0474  1.3971  1.0511
  283MOL0     C38076   5.931   4.089   4.487  1.0485  0.2356 -0.4831
  283MOL0     C38077   5.928   4.111   4.627  0.1099  0.0272  0.0574
  283MOL0     O38078   6.008   4.028   4.704 -0.1830 -0.4649  0.2932
  283MOL0     C38079   6.020   4.054   4.843  1.0722 -0.6694 -0.0151
  283MOL0     C38080   5.888   4.004   4.931 -0.0408  0.0442  0.7498
  283MOL0     C38081   5.897   3.856   4.978  0.0345  0.3197 -0.6447
  283MOL0     C38082   5.971   3.823   5.108  0.2428 -0.0635 -0.3229
  283MOL0     C38083   6.014   3.673   5.127 -0.9548  1.0118 -0.6899
  283MOL0     C38084   6.084   3.657   5.261  0.8397 -0.6085 -0.2723
  283MOL0     C38085   6.122   3.506   5.284  0.5131 -0.5163 -1.1551
  283MOL0     C38086   6.241   3.509   5.385  0.7275  0.1814 -0.1081
  283MOL0     N38087   6.194   3.537   5.521 -0.1759 -0.2033  0.7719
  283MOL0     C38088   6.233   3.649   5.583  0.5879 -0.9249 -0.5570
  283MOL0     C38089   6.154   3.658   5.698  0.4463 -0.8053  0.3580
  283MOL0     C38090   6.161   3.745   5.822 -0.4929  0.9306 -0.0265
  283MOL0     C38091   6.101   3.884   5.811  0.2941  1.1721 -0.4636
  283MOL0     C38092   6.139   3.953   5.679  0.1950  0.7297 -0.5767
  283MOL0     C38093   6.102   4.100   5.680  0.0447 -0.2088  0.1036
  283MOL0     O38094   5.967   4.140   5.720  0.0436  0.4162  0.0110
  283MOL0     C38095   5.880   4.145   5.613  0.0324 -0.2942 -0.1768
  283MOL0     C38096   5.748   4.148   5.643 -0.4968  0.6560  0.6474
  283MOL0     C38097   5.635   4.152   5.561  0.2615  1.0170 -0.9635
  283MOL0     C38098   5.502   4.164   5.624  0.1676  0.2671  0.1606
  283MOL0     C38099   5.667   4.157   5.422  1.3853 -0.8774  0.2307
  283MOL0     C38100   5.567   4.164   5.316  0.6755  0.3633  0.4651
  283MOL0     O38101   5.607   4.183   5.182 -0.3187  0.5166 -0.2519
  283MOL0     C38102   5.535   4.122   5.079 -0.0462 -0.4117 -0.1238
  283MOL0     C38103   5.482   4.192   4.967 -0.5874 -1.0062  0.4868
  283MOL0     C38104   5.422   4.126   4.863  0.2226  0.1789  0.4244
  283MOL0     C38105   5.420   3.983   4.861 -0.5370 -0.1624 -0.9460
  283MOL0     O38106   5.371   3.908   4.760 -0.0170 -0.0954 -0.0530
  283MOL0     C38107   5.308   3.979   4.643 -1.0826  0.9584 -0.7547
  283MOL0     C38108   5.232   3.873   4.560  0.3962 -0.5882  0.4497
  283MOL0     C38109   5.159   3.925   4.434  0.0802 -0.4736 -0.7158
  283MOL0     C38110   5.081   4.052   4.454  0.4264  0.0616  0.3439
  283MOL0     C38111   5.036   4.100   4.310  0.9998 -0.5548  0.4379
  283MOL0     C38112   4.976   4.241   4.294  0.2754  0.9588  0.4955
  283MOL0     C38113   5.076   4.346   4.341  0.7945  0.8540 -0.3587
  283MOL0     C38114   5.056   4.472   4.252  0.8528 -0.0196 -0.4243
  283MOL0    Cl38115   5.151   4.604   4.325 -0.1827 -0.3461  0.1770
  283MOL0     C38116   5.470   3.913   4.971  0.2249 -0.6136  0.9167
  283MOL0     C38117   5.516   3.980   5.078 -0.0678  0.7229 -0.3751
  283MOL0     O38118   5.451   4.138   5.346 -0.3086  0.5913  0.5700
  283MOL0     C38119   5.802   4.158   5.384 -0.5330  0.2189 -0.2461
  283MOL0     C38120   5.910   4.135   5.476 -0.7743 -0.3410 -0.5753
  283MOL0     N38121   6.081   3.536   5.697  0.1580 -0.1007 -0.1706
  283MOL0     N38122   6.107   3.469   5.596 -0.2236 -0.0351  0.5650
  283MOL0     C38123   5.850   4.219   4.666  0.0928  0.1746  0.6984
  283MOL0     C38124   5.790   4.302   4.569 -0.1587  0.0904  0.9116
  283MOL0     C38125   5.633   4.550   4.246 -0.4496 -0.0960 -0.6414
  283MOL0     C38126   5.617   4.688   4.234  1.0697 -0.6485 -0.8243
  283MOL0     C38127   5.524   4.753   4.155 -0.0040 -0.3507  0.0740
  283MOL0     C38128   5.435   4.668   4.085 -0.8184  0.1572 -0.0179
  283MOL0     O38129   5.339   4.717   4.002  0.0190 -0.2705  0.9558
  283MOL0     C38130   5.280   4.847   4.039  0.1496 -0.0494 -0.3911
  283MOL0     C38131   5.150   4.862   3.965 -0.3087 -0.3696 -0.5174
  283MOL0     C38132   5.055   4.750   4.000 -0.1618  0.0750 -0.3236
  283MOL0     C38133   4.938   4.755   3.904  0.5123  0.5000 -0.1458
  283MOL0     C38134   4.841   4.657   3.949 -1.0536 -0.5377  0.4016
  283MOL0     C38135   4.774   4.574   4.002  0.1934 -0.5160  0.9874
  283MOL0     C38136   5.451   4.530   4.091 -0.1826 -0.1870  0.4537
  283MOL0     C38137   5.553   4.472   4.161  0.9115  0.3787 -1.1490
  283MOL0     H38138   5.874   4.123   4.290 -2.1781  1.6121  0.8476
  283MOL0     H38139   5.987   4.003   4.453  1.9657  1.6034 -2.6431
  283MOL0     H38140   6.115   4.018   4.882 -0.2562 -1.3605  2.8926
  283MOL0     H38141   6.026   4.159   4.874 -2.4531 -0.9616  2.3228
  283MOL0     H38142   5.869   4.062   5.022  0.5603  1.2728  0.1167
  283MOL0     H38143   5.800   4.000   4.867 -0.4389 -1.9019  1.3340
  283MOL0     H38144   5.797   3.815   4.992  0.4616 -0.5808 -0.1511
  283MOL0     H38145   5.941   3.794   4.899  0.5562  0.6972 -0.6612
  283MOL0     H38146   6.064   3.879   5.119 -0.4817  1.0182  0.5067
  283MOL0     H38147   5.907   3.858   5.190 -1.8171 -3.9402 -0.0632
  283MOL0     H38148   5.930   3.605   5.114  1.2046 -1.8706 -0.4315
  283MOL0     H38149   6.090   3.648   5.052 -0.4380 -0.7486  0.3727
  283MOL0     H38150   6.178   3.711   5.274  1.0369 -0.4152 -2.2527
  283MOL0     H38151   6.020   3.695   5.341 -1.9682  1.0003 -3.0642
  283MOL0     H38152   6.042   3.442   5.323  2.4262 -1.4083  1.5930
  283MOL0     H38153   6.157   3.463   5.189 -2.6776 -0.0021 -2.7142
  283MOL0     H38154   6.313   3.586   5.356 -0.5454  1.2374 -0.5563
  283MOL0     H38155   6.292   3.412   5.391  0.6261  0.1913  1.2581
  283MOL0     H38156   6.306   3.726   5.560 -0.0759 -0.1804 -0.1957
  283MOL0     H38157   6.114   3.693   5.906 -1.0919 -0.1483 -0.9963
  283MOL0     H38158   6.260   3.762   5.866 -1.4076  1.9728  1.7510
  283MOL0     H38159   6.129   3.937   5.903 -1.8742 -1.5032  1.9069
  283MOL0     H38160   5.993   3.869   5.818  0.1559  0.9836 -2.4438
  283MOL0     H38161   6.080   3.903   5.601  0.3450 -3.1534  1.5405
  283MOL0     H38162   6.244   3.940   5.654 -0.3267 -1.6288 -1.8876
  283MOL0     H38163   6.128   4.145   5.583  0.6108  0.7746  0.6987
  283MOL0     H38164   6.173   4.137   5.755  0.8653  0.1591 -0.8337
  283MOL0     H38165   5.737   4.149   5.751 -1.0377  0.8314  0.5923
  283MOL0     H38166   5.440   4.074   5.613 -0.0849  0.5318 -0.6521
  283MOL0     H38167   5.503   4.176   5.733 -2.8389  2.1499  0.1090
  283MOL0     H38168   5.450   4.246   5.574 -0.2637 -1.1828 -1.9389
  283MOL0     H38169   5.495   4.300   4.965 -2.8220 -0.6205  2.0792
  283MOL0     H38170   5.380   4.179   4.778 -2.6470  2.4122  2.9872
  283MOL0     H38171   5.245   4.065   4.670 -1.9214 -0.3198  1.7353
  283MOL0     H38172   5.393   4.023   4.591  0.0439 -0.3862 -0.1314
  283MOL0     H38173   5.313   3.803   4.535 -0.2811 -2.4056  2.9521
  283MOL0     H38174   5.161   3.819   4.622  4.4068 -2.4284  3.9320
  283MOL0     H38175   5.102   3.846   4.385  1.3329  0.4421 -3.9012
  283MOL0     H38176   5.235   3.954   4.360 -0.4511  0.8324 -0.7858
  283MOL0     H38177   4.989   4.057   4.514 -1.3389  1.9509 -2.2825
  283MOL0     H38178   5.147   4.129   4.494  2.7178 -0.6618 -1.8052
  283MOL0     H38179   4.951   4.037   4.283  0.9112  0.9497 -3.3615
  283MOL0     H38180   5.109   4.079   4.232  0.5645  1.0357 -0.4305
  283MOL0     H38181   4.927   4.265   4.198 -3.1745  2.5838  2.4649
  283MOL0     H38182   4.887   4.247   4.357  0.3940  2.5314  0.5562
  283MOL0     H38183   5.180   4.315   4.356  0.4125 -0.8321 -0.9884
  283MOL0     H38184   5.042   4.370   4.443 -1.4797  1.0711 -1.1199
  283MOL0     H38185   4.948   4.493   4.246  0.8366  0.0998  0.2371
  283MOL0     H38186   5.085   4.460   4.147  0.8516 -0.4820 -0.3739
  283MOL0     H38187   5.455   3.806   4.972 -1.4042 -0.4750 -0.8797
  283MOL0     H38188   5.556   3.927   5.164 -0.9956  1.7898  0.7636
  283MOL0     H38189   5.823   4.164   5.278 -0.9431 -1.2598 -0.4373
  283MOL0     H38190   6.009   4.121   5.432 -1.0954 -2.0640 -0.8202
  283MOL0     H38191   5.826   4.248   4.768  1.5526  3.5725  0.2083
  283MOL0     H38192   5.721   4.383   4.589 -1.0271  0.1417 -1.8588
  283MOL0     H38193   5.677   4.748   4.302  0.7840 -1.9496  0.6353
  283MOL0     H38194   5.532   4.861   4.157 -2.0758 -0.1579  1.4960
  283MOL0     H38195   5.262   4.868   4.144  1.6331  5.1687 -0.9172
  283MOL0     H38196   5.348   4.930   4.019  2.0478 -1.5607 -0.5577
  283MOL0     H38197   5.162   4.848   3.857 -0.6762  1.3266 -0.8205
  283MOL0     H38198   5.101   4.960   3.968 -1.5126 -0.7708 -3.6062
  283MOL0     H38199   5.024   4.760   4.105  1.5671  2.6502  0.0395
  283MOL0     H38200   5.112   4.656   4.005  2.9172  1.8565  0.7403
  283MOL0     H38201   4.965   4.752   3.798 -1.7563  2.0459 -0.8734
  283MOL0     H38202   4.881   4.849   3.911  1.6579  1.0744  2.5112
  283MOL0     H38203   4.713   4.496   4.043  2.0477 -1.2309  2.5354
  283MOL0     H38204   5.384   4.473   4.027 -1.1419  0.8034  0.5257
  283MOL0     H38205   5.582   4.367   4.159 -1.2792 -0.9563  6.4642
  284MOL0     O38206   4.082  10.267   4.750 -0.0533  0.3524 -1.6151
  284MOL0     C38207   4.178  10.210   4.807 -0.6045  0.0712  0.2179
  284MOL0     O38208   4.171  10.095   4.880 -0.7313 -0.3662 -0.3941
  284MOL0     C38209   4.046  10.041   4.892 -0.5623 -0.1231 -0.5587
  284MOL0     C38210   3.958  10.006   4.794  0.5159 -0.7027  0.4378
  284MOL0     C38211   3.863   9.912   4.813  1.6113 -0.7610 -0.3121
  284MOL0     C38212   3.830   9.872   4.942 -0.3103  0.5640  0.9911
  284MOL0     O38213   3.722   9.790   4.963  0.2373  0.1542 -0.4223
  284MOL0     C38214   3.743   9.654   4.926  0.1267  0.4041  0.4585
  284MOL0     C38215   3.599   9.585   4.922  0.3753 -0.3517  0.8376
  284MOL0     C38216   3.598   9.432   4.899  0.0842  1.3152 -0.9606
  284MOL0     C38217   3.462   9.378   4.875  0.5237  0.1840 -0.2243
  284MOL0     C38218   3.446   9.220   4.871 -0.4499 -0.6607 -0.0799
  284MOL0     C38219   3.559   9.155   4.786 -0.7104  0.0076  0.5756
  284MOL0     C38220   3.549   9.000   4.752 -0.2030  0.0012  0.4135
  284MOL0     C38221   3.523   8.927   4.882  0.9018 -0.4558 -0.0224
  284MOL0     N38222   3.569   8.795   4.876 -0.5739  0.6758  0.6056
  284MOL0     C38223   3.691   8.752   4.912 -0.1595  0.2189 -0.1906
  284MOL0     C38224   3.685   8.617   4.933  0.0391  1.1190 -1.0966
  284MOL0     C38225   3.803   8.540   4.984  0.3889  0.2404  0.9716
  284MOL0     C38226   3.763   8.452   5.098 -0.1724 -0.7597  0.2919
  284MOL0     C38227   3.890   8.390   5.163  0.1973  0.0331 -0.1669
  284MOL0     C38228   3.868   8.346   5.311  0.1127 -0.0740  0.0089
  284MOL0     O38229   3.958   8.390   5.408 -0.3422  0.3364 -0.2483
  284MOL0     C38230   3.919   8.387   5.540 -0.8195 -0.5187  0.0161
  284MOL0     C38231   3.837   8.284   5.600 -1.0245 -0.1591 -0.0510
  284MOL0     C38232   3.814   8.301   5.739 -0.3808 -0.7196 -0.3533
  284MOL0     C38233   3.729   8.196   5.811 -0.7447  0.0941 -0.8327
  284MOL0     C38234   3.848   8.423   5.811  0.5167  0.1416 -0.3702
  284MOL0     C38235   3.836   8.437   5.961 -0.5090  0.4929 -0.5698
  284MOL0     O38236   3.801   8.328   6.043 -0.2697 -0.0432  0.0579
  284MOL0     C38237   3.776   8.355   6.176 -0.0106  0.0590 -0.5197
  284MOL0     C38238   3.829   8.278   6.281 -0.0095  0.7003 -0.0948
  284MOL0     C38239   3.781   8.287   6.415  0.0649 -0.7371  1.0909
  284MOL0     C38240   3.683   8.376   6.441  0.4845 -0.0571  0.8394
  284MOL0     O38241   3.620   8.388   6.562  0.8482  1.1041  1.0011
  284MOL0     C38242   3.583   8.266   6.626 -0.1233 -0.1201 -0.4575
  284MOL0     C38243   3.492   8.168   6.543 -0.8559  0.8284 -0.3230
  284MOL0     C38244   3.344   8.204   6.566 -0.6601 -0.2945 -0.7273
  284MOL0     C38245   3.260   8.156   6.451  0.0741  0.2042  0.2204
  284MOL0     C38246   3.249   7.998   6.438  0.5630  0.8229 -0.0224
  284MOL0     C38247   3.191   7.939   6.567 -0.1345  0.4415  0.1346
  284MOL0     C38248   3.128   7.800   6.524  0.3351 -0.5430  0.3326
  284MOL0     C38249   3.227   7.687   6.491 -0.6887 -0.0956 -0.0282
  284MOL0    Cl38250   3.298   7.641   6.648  0.2649 -0.4278 -0.2078
  284MOL0     C38251   3.622   8.453   6.339 -0.2412 -0.0509 -0.5538
  284MOL0     C38252   3.671   8.435   6.207  0.1101  0.3059 -0.2788
  284MOL0     O38253   3.863   8.550   6.008 -0.0928  0.8051 -0.3791
  284MOL0     C38254   3.927   8.527   5.741 -0.9252  0.5442 -0.3474
  284MOL0     C38255   3.973   8.494   5.611 -0.0039  0.2397  0.3146
  284MOL0     N38256   3.559   8.585   4.905 -0.2028 -0.4514 -1.4670
  284MOL0     N38257   3.499   8.689   4.864  0.6354 -0.8287  0.1155
  284MOL0     C38258   3.913   9.913   5.044 -0.7481  0.6454 -0.1072
  284MOL0     C38259   4.024   9.994   5.023 -0.1649 -0.3778  0.1232
  284MOL0     C38260   4.327  10.258   4.782 -0.8052  0.1166 -0.6761
  284MOL0     C38261   4.370  10.301   4.658 -0.5700  0.2462  0.3041
  284MOL0     C38262   4.498  10.321   4.620 -0.3523 -0.8134  0.3693
  284MOL0     C38263   4.598  10.289   4.711 -0.5904 -1.2543 -0.1866
  284MOL0     O38264   4.732  10.278   4.681  0.3488  0.3924  0.7157
  284MOL0     C38265   4.758  10.186   4.577 -0.2649 -0.2666  0.7175
  284MOL0     C38266   4.868  10.090   4.620 -0.0928 -0.0577  0.3331
  284MOL0     C38267   4.862   9.954   4.551 -0.4139 -0.7751  0.5612
  284MOL0     C38268   4.872   9.964   4.401 -0.5259  0.1918 -0.3078
  284MOL0     C38269   4.868   9.842   4.329 -0.1106 -0.6139  0.1654
  284MOL0     C38270   4.895   9.742   4.257  0.0549 -1.4233 -0.0403
  284MOL0     C38271   4.561  10.239   4.834 -0.5304 -0.0544  0.4904
  284MOL0     C38272   4.433  10.226   4.872  0.1841 -0.4677 -0.1296
  284MOL0     H38273   3.989  10.031   4.693  2.6108  0.9103  1.3923
  284MOL0     H38274   3.797   9.882   4.732  2.2475 -2.5320 -0.2280
  284MOL0     H38275   3.783   9.642   4.825 -1.1561 -1.2030  0.0994
  284MOL0     H38276   3.826   9.613   4.984  0.7525  2.0861  0.8218
  284MOL0     H38277   3.542   9.605   5.013 -4.3965 -1.3875 -1.6080
  284MOL0     H38278   3.538   9.637   4.847 -0.3701 -0.1674  1.5480
  284MOL0     H38279   3.649   9.417   4.803  0.1965 -2.4342 -0.4604
  284MOL0     H38280   3.655   9.372   4.971  0.1538  2.8206  0.3154
  284MOL0     H38281   3.399   9.405   4.960 -3.8055  1.1070 -3.3799
  284MOL0     H38282   3.417   9.425   4.787 -2.4635 -0.9731  0.5593
  284MOL0     H38283   3.445   9.177   4.971 -3.8409 -2.5926 -0.7933
  284MOL0     H38284   3.351   9.201   4.821 -0.1346  1.1569 -1.4544
  284MOL0     H38285   3.580   9.206   4.692  3.0583 -1.7149  0.2989
  284MOL0     H38286   3.650   9.173   4.845 -0.7073  0.2874  0.4892
  284MOL0     H38287   3.466   8.980   4.684 -2.9993 -1.5023  3.9504
  284MOL0     H38288   3.643   8.960   4.713  0.1455 -0.1737  1.4048
  284MOL0     H38289   3.416   8.935   4.903  1.0949  2.2191  0.2513
  284MOL0     H38290   3.560   8.976   4.972  0.1058  1.0107 -0.4535
  284MOL0     H38291   3.772   8.817   4.943 -1.2671  2.7530 -2.2337
  284MOL0     H38292   3.854   8.481   4.907 -0.5866 -0.8319  1.1204
  284MOL0     H38293   3.871   8.619   5.016 -0.8074  2.2297 -1.1155
  284MOL0     H38294   3.694   8.371   5.075  0.0406 -0.3511 -1.9853
  284MOL0     H38295   3.720   8.526   5.167  3.1134 -0.5951  2.4058
  284MOL0     H38296   3.972   8.462   5.165 -0.7598  1.2660 -2.2616
  284MOL0     H38297   3.935   8.301   5.120 -1.0903 -1.2016  0.9197
  284MOL0     H38298   3.876   8.237   5.312 -0.2601 -0.0989  0.1396
  284MOL0     H38299   3.765   8.374   5.334 -0.0371 -1.6463  1.4030
  284MOL0     H38300   3.806   8.195   5.547 -2.7351  0.1057  0.4642
  284MOL0     H38301   3.645   8.240   5.865 -1.7563 -0.4357 -1.9342
  284MOL0     H38302   3.694   8.133   5.728 -1.5050  0.3056 -0.6768
  284MOL0     H38303   3.787   8.130   5.876 -1.0689 -1.3859 -1.9792
  284MOL0     H38304   3.898   8.194   6.268 -2.8594 -1.5779 -1.7368
  284MOL0     H38305   3.833   8.223   6.485  0.8201  0.6128  1.7865
  284MOL0     H38306   3.671   8.208   6.655 -0.2605  0.1435  0.4870
  284MOL0     H38307   3.541   8.286   6.724  2.1204  0.8042  0.3801
  284MOL0     H38308   3.521   8.178   6.438 -0.9215 -0.5881 -0.4985
  284MOL0     H38309   3.509   8.064   6.572 -2.8258 -0.0766 -2.1480
  284MOL0     H38310   3.332   8.312   6.558 -0.4496 -0.0467  1.6879
  284MOL0     H38311   3.295   8.161   6.653 -3.4467  3.1138 -0.4116
  284MOL0     H38312   3.155   8.186   6.459 -0.2791 -0.2542 -1.9506
  284MOL0     H38313   3.299   8.197   6.357  3.1792 -0.8441  0.9292
  284MOL0     H38314   3.345   7.950   6.420 -0.1467 -0.0333 -1.7631
  284MOL0     H38315   3.179   7.977   6.356  0.0307 -3.5621  1.2917
  284MOL0     H38316   3.269   7.936   6.643 -2.0876  1.1431  2.2994
  284MOL0     H38317   3.109   8.005   6.599 -0.2176 -0.2483  1.4075
  284MOL0     H38318   3.069   7.816   6.433  0.8759 -2.8518 -0.5003
  284MOL0     H38319   3.065   7.765   6.606 -1.7724 -1.0086 -1.3886
  284MOL0     H38320   3.307   7.722   6.426  1.0394 -1.3558  1.3346
  284MOL0     H38321   3.183   7.598   6.446  0.0457 -0.7356  0.5011
  284MOL0     H38322   3.541   8.516   6.374  2.4007  3.1657  0.2646
  284MOL0     H38323   3.635   8.502   6.130 -1.4071  0.9825  0.9509
  284MOL0     H38324   3.965   8.618   5.787  0.5745  0.2765 -1.0044
  284MOL0     H38325   4.044   8.562   5.566 -0.2211  1.9981  2.4788
  284MOL0     H38326   3.894   9.866   5.140 -1.0682 -1.0703 -0.9818
  284MOL0     H38327   4.099  10.011   5.099 -1.8015 -0.5005  1.8225
  284MOL0     H38328   4.302  10.344   4.586  2.0824  2.0387 -1.3273
  284MOL0     H38329   4.533  10.360   4.525  1.5267 -3.6074 -0.2045
  284MOL0     H38330   4.671  10.130   4.542 -0.8961  1.5474 -0.7266
  284MOL0     H38331   4.795  10.243   4.492 -1.3960  2.0510  1.6877
  284MOL0     H38332   4.847  10.074   4.726 -1.2259 -3.7148 -0.3118
  284MOL0     H38333   4.960  10.147   4.604 -0.8044  1.6268  1.8479
  284MOL0     H38334   4.777   9.893   4.584  0.0954 -1.0644  1.3630
  284MOL0     H38335   4.946   9.905   4.601 -0.3119 -0.4931  0.6659
  284MOL0     H38336   4.968  10.016   4.395  1.1592 -2.2204  2.6924
  284MOL0     H38337   4.784  10.020   4.367 -1.2886 -0.0378  1.1841
  284MOL0     H38338   4.922   9.665   4.188  1.0980  0.6891 -2.1407
  284MOL0     H38339   4.646  10.203   4.892  2.9070 -2.5756 -5.2774
  284MOL0     H38340   4.409  10.190   4.972  0.7861  0.1828  0.2604
  285MOL0     O38341   6.664  10.295   5.771  0.1544 -0.2976 -0.4791
  285MOL0     C38342   6.547  10.322   5.785  0.0416  0.0505 -0.4265
  285MOL0     O38343   6.487  10.357   5.894  0.1476  0.3207  0.0593
  285MOL0     C38344   6.553  10.364   6.015  0.3978  0.3193  0.2374
  285MOL0     C38345   6.668  10.295   6.063  0.3558  0.8119 -0.1129
  285MOL0     C38346   6.716  10.321   6.191  0.6075 -0.1713 -0.4131
  285MOL0     C38347   6.662  10.426   6.266 -0.3402 -0.1758 -0.1074
  285MOL0     O38348   6.723  10.451   6.380 -0.8939 -0.5099 -0.4213
  285MOL0     C38349   6.671  10.557   6.465 -0.3290  0.1153 -0.0351
  285MOL0     C38350   6.765  10.566   6.576 -0.7044 -0.2672 -0.7282
  285MOL0     C38351   6.887  10.647   6.523  0.0608  0.2615 -0.3308
  285MOL0     C38352   6.963  10.717   6.644 -0.5412 -0.0406 -0.1899
  285MOL0     C38353   7.040  10.837   6.588 -0.0949  0.7998 -0.3441
  285MOL0     C38354   7.097  10.916   6.706 -0.2149  0.5542 -1.3386
  285MOL0     C38355   7.183  11.027   6.683 -0.0829 -0.3002  0.8239
  285MOL0     C38356   7.230  11.103   6.806  0.3444 -0.4754 -0.4719
  285MOL0     N38357   7.163  11.234   6.838 -0.0050 -0.4415 -1.0203
  285MOL0     C38358   7.083  11.302   6.754  0.5561 -0.0973  0.3073
  285MOL0     C38359   7.007  11.383   6.836  0.1550 -0.5249  0.0368
  285MOL0     C38360   6.897  11.467   6.774  0.8142 -1.3930 -0.0340
  285MOL0     C38361   6.761  11.404   6.839 -0.1354  1.4275  0.2348
  285MOL0     C38362   6.627  11.450   6.766  0.2447  0.0723  0.2528
  285MOL0     C38363   6.612  11.598   6.796 -0.3114 -0.6452  0.4842
  285MOL0     O38364   6.482  11.645   6.769 -0.7852  0.6176 -0.2759
  285MOL0     C38365   6.493  11.767   6.716 -0.6193  0.1663 -0.2983
  285MOL0     C38366   6.447  11.789   6.587 -1.0664 -0.1605  0.0288
  285MOL0     C38367   6.464  11.920   6.528  0.0301 -0.3965  0.4619
  285MOL0     C38368   6.411  11.941   6.395 -0.5204 -0.5495  0.3261
  285MOL0     C38369   6.522  12.025   6.604 -0.0378  0.0043 -0.7075
  285MOL0     C38370   6.538  12.163   6.560 -0.6690 -0.0930  0.0150
  285MOL0     O38371   6.532  12.203   6.427  0.4415  0.6060 -0.5780
  285MOL0     C38372   6.510  12.341   6.410 -0.1036  0.2940  0.7373
  285MOL0     C38373   6.594  12.448   6.451  0.6244  1.2002 -0.2497
  285MOL0     C38374   6.551  12.573   6.429  0.6608 -0.8859  0.7956
  285MOL0     C38375   6.434  12.598   6.353 -0.7106 -0.7601  1.1992
  285MOL0     O38376   6.397  12.726   6.332  0.3797 -0.6427 -0.2620
  285MOL0     C38377   6.368  12.785   6.202  0.1078  0.4746 -0.1991
  285MOL0     C38378   6.332  12.931   6.208 -0.4001  0.0387 -0.4714
  285MOL0     C38379   6.445  13.016   6.272  0.3393 -0.1537  0.0407
  285MOL0     C38380   6.404  13.165   6.261 -0.5431  0.2407  0.0704
  285MOL0     C38381   6.503  13.263   6.327  0.3694  0.5429  0.5671
  285MOL0     C38382   6.625  13.313   6.254  0.7957  0.2098  1.0838
  285MOL0     C38383   6.754  13.226   6.254 -0.5377 -0.4108 -0.4884
  285MOL0     C38384   6.800  13.195   6.111 -0.3425 -0.0995  0.2099
  285MOL0    Cl38385   6.693  13.083   6.023  0.9009  0.4814 -0.1018
  285MOL0     C38386   6.350  12.492   6.312  0.1004 -0.0040  0.3659
  285MOL0     C38387   6.392  12.368   6.345 -0.3915  0.3089 -0.8608
  285MOL0     O38388   6.561  12.245   6.649 -0.2620 -0.8719 -0.2806
  285MOL0     C38389   6.567  11.996   6.732  0.9716  0.4717  0.4180
  285MOL0     C38390   6.549  11.870   6.790  0.2567  0.1838  0.6042
  285MOL0     N38391   7.053  11.387   6.962  0.6541 -0.3805  0.6645
  285MOL0     N38392   7.147  11.283   6.964  0.3109  0.1676 -0.3598
  285MOL0     C38393   6.544  10.491   6.217  0.4149 -0.6353 -0.1830
  285MOL0     C38394   6.494  10.464   6.087  0.6491  0.1283  0.0956
  285MOL0     C38395   6.459  10.315   5.669 -0.3108 -0.5233 -0.1099
  285MOL0     C38396   6.331  10.371   5.676  0.1275 -0.0773 -0.3006
  285MOL0     C38397   6.239  10.350   5.570 -0.8865 -0.2501 -0.4650
  285MOL0     C38398   6.270  10.259   5.464  0.4158  0.3820  0.0428
  285MOL0     O38399   6.180  10.221   5.363 -0.4559 -0.1869 -0.9527
  285MOL0     C38400   6.087  10.316   5.305 -0.6633  1.1544  0.2827
  285MOL0     C38401   5.939  10.298   5.358 -0.7286 -0.2153  0.3452
  285MOL0     C38402   5.849  10.401   5.288 -0.1554 -0.7864  1.0191
  285MOL0     C38403   5.699  10.421   5.333  0.2315 -0.9827 -0.3013
  285MOL0     C38404   5.651  10.314   5.419 -0.1726 -0.3751 -0.0953
  285MOL0     C38405   5.628  10.219   5.492  0.2753  0.6231 -1.0934
  285MOL0     C38406   6.405  10.209   5.451  0.1226  0.8641 -0.2345
  285MOL0     C38407   6.493  10.233   5.563 -0.3368  0.3234  0.5164
  285MOL0     H38408   6.707  10.212   6.006  0.4763  0.4787  0.4464
  285MOL0     H38409   6.787  10.253   6.237 -0.1532 -1.2328 -0.7615
  285MOL0     H38410   6.642  10.655   6.427 -1.2907  0.3938  1.3488
  285MOL0     H38411   6.579  10.506   6.496 -0.1427  0.5594  1.3056
  285MOL0     H38412   6.715  10.619   6.658  0.8431  3.1547 -1.8440
  285MOL0     H38413   6.801  10.466   6.605 -0.8183  0.2975  1.5470
  285MOL0     H38414   6.961  10.585   6.471 -0.1395  1.3708 -2.0246
  285MOL0     H38415   6.853  10.718   6.446  0.6889 -0.0282 -0.8915
  285MOL0     H38416   6.906  10.760   6.727  2.2927  2.7042  0.4956
  285MOL0     H38417   7.029  10.650   6.701  0.0929  0.6758 -0.0701
  285MOL0     H38418   7.119  10.798   6.524  0.8522 -0.9272  1.7494
  285MOL0     H38419   6.971  10.900   6.530 -3.2014  1.9307  4.0420
  285MOL0     H38420   7.015  10.946   6.772 -1.5140 -0.8568 -2.2493
  285MOL0     H38421   7.159  10.840   6.754  2.1668  0.5410 -4.1405
  285MOL0     H38422   7.271  10.977   6.639  1.7501  0.6830  3.1735
  285MOL0     H38423   7.129  11.099   6.620 -0.7116 -0.1263  1.5565
  285MOL0     H38424   7.338  11.119   6.798  0.3240  0.6383  1.1421
  285MOL0     H38425   7.200  11.041   6.891 -0.5845 -1.5884 -1.5641
  285MOL0     H38426   7.064  11.276   6.651  2.1032 -2.0781  0.4679
  285MOL0     H38427   6.914  11.574   6.788 -2.5499 -0.6025 -1.0191
  285MOL0     H38428   6.895  11.461   6.665  1.0882  1.2868 -0.2555
  285MOL0     H38429   6.767  11.433   6.945 -0.0936 -0.4795  0.7990
  285MOL0     H38430   6.766  11.294   6.835  0.3584  1.4340  0.5611
  285MOL0     H38431   6.542  11.391   6.801  0.0885 -0.0921 -0.3835
  285MOL0     H38432   6.638  11.431   6.659 -1.3497  1.0526 -0.1333
  285MOL0     H38433   6.684  11.652   6.734 -2.5279 -1.4047 -3.0808
  285MOL0     H38434   6.626  11.613   6.903 -0.9485 -0.0629  0.4886
  285MOL0     H38435   6.380  11.721   6.536 -3.1686  2.2391 -0.6189
  285MOL0     H38436   6.488  11.943   6.317 -2.0900 -0.1729 -1.2796
  285MOL0     H38437   6.337  11.873   6.351 -1.6368  0.9342 -0.1770
  285MOL0     H38438   6.357  12.036   6.402  1.6933  0.6752  1.8349
  285MOL0     H38439   6.685  12.433   6.508  1.8059 -3.8259 -2.8715
  285MOL0     H38440   6.609  12.659   6.458 -1.2473  1.3500 -1.5328
  285MOL0     H38441   6.455  12.780   6.135  0.2096  0.2482 -0.0487
  285MOL0     H38442   6.288  12.722   6.162  0.7359  0.3865 -1.3707
  285MOL0     H38443   6.311  12.978   6.111 -1.8459 -0.7923 -0.5879
  285MOL0     H38444   6.244  12.945   6.271 -0.4473 -1.2412 -0.2222
  285MOL0     H38445   6.541  13.004   6.222  0.5807  0.9909  0.1993
  285MOL0     H38446   6.456  13.002   6.380  2.3509 -0.4069 -0.1719
  285MOL0     H38447   6.393  13.182   6.154 -0.2021 -3.2001 -0.6139
  285MOL0     H38448   6.308  13.178   6.313  0.3986 -0.0195  1.9495
  285MOL0     H38449   6.533  13.219   6.423 -0.2071 -2.0630 -0.3436
  285MOL0     H38450   6.441  13.350   6.346  2.5250  2.4055 -0.4889
  285MOL0     H38451   6.590  13.331   6.152  0.7187 -2.5307  0.5610
  285MOL0     H38452   6.648  13.410   6.300 -0.1451  0.3465  1.2768
  285MOL0     H38453   6.739  13.143   6.324 -1.8695  0.8603  0.8195
  285MOL0     H38454   6.834  13.290   6.293 -1.6749  0.5896  0.2863
  285MOL0     H38455   6.906  13.171   6.096 -0.6388  0.2060 -3.1072
  285MOL0     H38456   6.783  13.286   6.052  0.1390 -0.1044  0.0556
  285MOL0     H38457   6.253  12.483   6.264  0.2143 -1.4830  0.3679
  285MOL0     H38458   6.332  12.282   6.318  0.4855 -0.4727 -0.3496
  285MOL0     H38459   6.612  12.076   6.790 -3.8907  2.8422  1.5273
  285MOL0     H38460   6.576  11.847   6.892 -0.5392  1.2131  1.0761
  285MOL0     H38461   6.499  10.568   6.281 -1.2885 -2.2210  0.6184
  285MOL0     H38462   6.405  10.512   6.048 -0.8446 -2.7591 -0.3171
  285MOL0     H38463   6.319  10.430   5.766  1.5812  2.0688 -1.4142
  285MOL0     H38464   6.137  10.383   5.587 -1.3193 -1.3038 -0.9255
  285MOL0     H38465   6.125  10.417   5.325  1.3900  0.2540  1.1925
  285MOL0     H38466   6.085  10.295   5.198 -1.3135  0.8893  0.3418
  285MOL0     H38467   5.932  10.308   5.467  1.1001  2.4423  0.3294
  285MOL0     H38468   5.916  10.198   5.321 -0.4331 -0.0916 -0.1883
  285MOL0     H38469   5.848  10.364   5.185  0.2813 -3.9740  2.0564
  285MOL0     H38470   5.895  10.500   5.285  1.1063 -1.3429 -2.1850
  285MOL0     H38471   5.633  10.436   5.248 -1.0886  0.5996  0.9305
  285MOL0     H38472   5.702  10.516   5.388  3.3507  0.5286 -2.7307
  285MOL0     H38473   5.597  10.127   5.539  1.0470  0.1326 -1.5273
  285MOL0     H38474   6.410  10.143   5.364  2.0213  0.8497 -0.1536
  285MOL0     H38475   6.596  10.199   5.564 -0.0441  1.1283  2.7872
  286MOL0     O38476   7.162   3.313   6.275  0.4848 -0.0037  0.8896
  286MOL0     C38477   7.067   3.245   6.305 -0.3567  1.4720 -0.0676
  286MOL0     O38478   6.946   3.286   6.354 -0.0850  0.0439 -0.9694
  286MOL0     C38479   6.928   3.419   6.378  1.3722 -1.4339  0.3897
  286MOL0     C38480   6.833   3.489   6.299  0.3158 -0.8692 -0.3296
  286MOL0     C38481   6.806   3.620   6.325  0.2792  0.1596  0.5039
  286MOL0     C38482   6.869   3.692   6.428 -0.1039 -0.8630 -0.5265
  286MOL0     O38483   6.840   3.823   6.458 -0.6298  0.4751  0.8423
  286MOL0     C38484   6.716   3.876   6.430  0.4849  0.3793  0.6501
  286MOL0     C38485   6.713   4.012   6.494  0.6302 -0.8557  0.3517
  286MOL0     C38486   6.807   4.112   6.423 -0.0619  1.0515  0.6882
  286MOL0     C38487   6.814   4.254   6.484 -0.0468 -0.0094  0.2369
  286MOL0     C38488   6.838   4.359   6.373  0.7943  0.9219  0.4485
  286MOL0     C38489   6.839   4.495   6.425  0.1221 -0.1582  0.4157
  286MOL0     C38490   6.873   4.601   6.317 -1.0402 -0.3563 -0.3555
  286MOL0     C38491   6.934   4.739   6.378  1.5919  0.0295 -0.2870
  286MOL0     N38492   6.999   4.818   6.265  0.0613 -0.4158 -0.2858
  286MOL0     C38493   6.934   4.858   6.152  0.3490  0.3032  0.3877
  286MOL0     C38494   7.027   4.908   6.073 -0.3908 -0.0900 -0.7003
  286MOL0     C38495   7.007   5.023   5.969 -0.4771 -0.3117 -0.5971
  286MOL0     C38496   6.987   5.159   6.043  0.6723 -0.1875 -0.1378
  286MOL0     C38497   6.888   5.254   5.968  0.0141  0.0914 -0.4253
  286MOL0     C38498   6.934   5.306   5.830  0.5670  0.7006 -0.8504
  286MOL0     O38499   7.060   5.366   5.847  0.2762  0.3211  0.7566
  286MOL0     C38500   7.052   5.488   5.783  0.0470  0.3603  0.2350
  286MOL0     C38501   7.063   5.602   5.858  0.1785 -0.5453  0.4801
  286MOL0     C38502   7.063   5.729   5.794  0.7295  0.3424 -0.3914
  286MOL0     C38503   7.060   5.854   5.880  0.0870 -0.1498 -0.1307
  286MOL0     C38504   7.050   5.736   5.650 -0.5273  0.0434  0.6894
  286MOL0     C38505   7.050   5.853   5.560 -0.1027 -0.2454  1.0083
  286MOL0     O38506   7.080   5.833   5.424  0.2237 -0.1520 -0.2540
  286MOL0     C38507   7.131   5.934   5.345  0.2432  0.0058  0.0388
  286MOL0     C38508   7.263   5.942   5.291  0.4425  0.0647  0.1183
  286MOL0     C38509   7.308   6.061   5.236  0.7732 -0.1027 -0.0372
  286MOL0     C38510   7.233   6.183   5.230  0.0172  0.0505  0.7052
  286MOL0     O38511   7.273   6.287   5.158  0.8354 -0.6402  0.3563
  286MOL0     C38512   7.296   6.259   5.019 -0.3342  0.6379 -0.6141
  286MOL0     C38513   7.325   6.393   4.958 -0.3743 -0.1506 -0.0800
  286MOL0     C38514   7.340   6.373   4.805 -0.3229  0.2818  0.0487
  286MOL0     C38515   7.388   6.499   4.736 -0.5614 -0.5719  1.1284
  286MOL0     C38516   7.276   6.590   4.702  0.8167 -0.1985 -1.3144
  286MOL0     C38517   7.201   6.542   4.584 -0.4593  0.8165  0.6561
  286MOL0     C38518   7.065   6.612   4.572  1.1235  1.2374 -0.4005
  286MOL0     C38519   6.979   6.564   4.456 -0.5438  0.0655 -0.1776
  286MOL0    Cl38520   6.809   6.639   4.451  0.4203  0.1194  0.2432
  286MOL0     C38521   7.102   6.167   5.276 -0.6059  0.4194  0.3308
  286MOL0     C38522   7.054   6.049   5.336  0.2838  0.5956 -0.3333
  286MOL0     O38523   7.057   5.965   5.619 -0.4997  0.1459 -0.0205
  286MOL0     C38524   7.046   5.615   5.577  0.4244  0.6955  0.2199
  286MOL0     C38525   7.034   5.493   5.643 -0.5933 -0.2923  0.2692
  286MOL0     N38526   7.149   4.895   6.132  0.7438 -0.7300  1.0122
  286MOL0     N38527   7.135   4.834   6.239  0.0469  0.0854 -0.5610
  286MOL0     C38528   6.972   3.626   6.503  0.9290  0.0357 -0.0658
  286MOL0     C38529   6.991   3.489   6.477 -0.4189  0.9219 -0.9644
  286MOL0     C38530   7.081   3.099   6.302  0.3520  0.3529  0.2752
  286MOL0     C38531   7.209   3.055   6.254  1.3118  0.2197 -0.0783
  286MOL0     C38532   7.236   2.919   6.247  0.0256 -0.4172  0.4859
  286MOL0     C38533   7.142   2.820   6.280 -0.2487  0.4189  0.2631
  286MOL0     O38534   7.162   2.685   6.266  0.6424 -0.2285  0.6530
  286MOL0     C38535   7.264   2.634   6.340 -1.2003  0.4967  0.3555
  286MOL0     C38536   7.266   2.482   6.294  0.4352  0.0087 -0.4895
  286MOL0     C38537   7.126   2.415   6.289  0.0681 -0.7423  0.3518
  286MOL0     C38538   7.059   2.405   6.429 -1.1300 -0.2167  0.1261
  286MOL0     C38539   7.001   2.270   6.437  0.4078  0.3075 -0.4969
  286MOL0     C38540   6.950   2.159   6.451  0.5433  0.4545 -1.9437
  286MOL0     C38541   7.018   2.860   6.318  0.0540 -0.8635  0.9540
  286MOL0     C38542   6.985   3.001   6.335 -0.9044 -0.2816  0.6070
  286MOL0     H38543   6.782   3.447   6.213 -0.2502 -0.3867 -0.2304
  286MOL0     H38544   6.726   3.653   6.260  0.4479 -3.4344 -1.7708
  286MOL0     H38545   6.708   3.885   6.322  2.2489  1.5330  0.5858
  286MOL0     H38546   6.650   3.805   6.482  0.8366 -2.0226 -1.9449
  286MOL0     H38547   6.616   4.061   6.487  0.9570 -0.3851 -1.8791
  286MOL0     H38548   6.752   4.021   6.596 -2.9425 -0.7598  1.8375
  286MOL0     H38549   6.905   4.063   6.430 -1.0551 -0.9241  1.5136
  286MOL0     H38550   6.769   4.113   6.321 -2.0439 -1.4309  1.2861
  286MOL0     H38551   6.713   4.276   6.520 -0.4878 -0.0461 -0.9357
  286MOL0     H38552   6.887   4.275   6.563 -1.1032  0.2332  1.1641
  286MOL0     H38553   6.932   4.333   6.323  0.5680  2.0999 -0.6498
  286MOL0     H38554   6.752   4.338   6.308  0.7935  0.5115  0.5764
  286MOL0     H38555   6.743   4.517   6.472 -0.9807 -4.9949  0.8957
  286MOL0     H38556   6.917   4.496   6.501 -0.2536 -0.6974  0.8122
  286MOL0     H38557   6.950   4.560   6.250 -1.6065  0.3982 -1.5080
  286MOL0     H38558   6.790   4.617   6.247 -0.3580 -0.2597 -1.1633
  286MOL0     H38559   7.006   4.731   6.460  0.9153  1.7392  0.5376
  286MOL0     H38560   6.850   4.796   6.420  0.7137 -2.5484  1.6690
  286MOL0     H38561   6.829   4.884   6.143  0.0869 -1.2659 -2.2201
  286MOL0     H38562   7.094   5.028   5.903 -0.2777  0.5372 -0.2902
  286MOL0     H38563   6.918   4.999   5.912 -2.2214  1.5736  1.1675
  286MOL0     H38564   7.087   5.198   6.065 -0.5823  1.4750  3.0923
  286MOL0     H38565   6.944   5.140   6.141  1.8349 -2.1701  0.0549
  286MOL0     H38566   6.880   5.345   6.028 -2.2785  0.4897 -1.2311
  286MOL0     H38567   6.788   5.210   5.958  0.3042 -1.0745  1.3344
  286MOL0     H38568   6.848   5.370   5.805 -1.6295 -1.0247  1.7720
  286MOL0     H38569   6.931   5.224   5.758 -4.3699  0.4079 -0.6417
  286MOL0     H38570   7.086   5.599   5.964 -0.5401 -0.3327  0.6495
  286MOL0     H38571   7.072   5.829   5.986  2.8994 -2.1043 -0.8073
  286MOL0     H38572   7.147   5.917   5.857 -0.4096  0.4006 -0.5382
  286MOL0     H38573   6.965   5.901   5.854  0.9357  1.2008 -0.9464
  286MOL0     H38574   7.325   5.852   5.294 -1.7080 -1.5025 -0.2629
  286MOL0     H38575   7.402   6.063   5.181  0.5887 -0.8162 -0.3945
  286MOL0     H38576   7.389   6.202   5.012 -1.0707 -0.4854 -1.8834
  286MOL0     H38577   7.216   6.201   4.972 -1.9104  0.9833  1.5162
  286MOL0     H38578   7.248   6.469   4.974 -0.3351  0.1241 -1.1464
  286MOL0     H38579   7.412   6.437   5.009 -0.5012 -0.7576  0.6888
  286MOL0     H38580   7.242   6.348   4.763 -0.5996  3.1812 -1.2606
  286MOL0     H38581   7.409   6.291   4.784 -1.1399 -0.4349  0.0823
  286MOL0     H38582   7.451   6.566   4.796 -0.2823  1.6481 -1.4456
  286MOL0     H38583   7.447   6.475   4.648  1.5555  1.1862  1.9749
  286MOL0     H38584   7.306   6.693   4.683 -4.6047  1.9746 -0.1533
  286MOL0     H38585   7.203   6.595   4.784  2.9778  0.5368  0.6444
  286MOL0     H38586   7.260   6.558   4.494  1.1823  1.9901  1.8837
  286MOL0     H38587   7.185   6.434   4.591  1.0822  0.5289  0.0906
  286MOL0     H38588   7.077   6.719   4.590 -0.6777  1.3095  0.6022
  286MOL0     H38589   7.002   6.579   4.655 -0.4768 -1.5400 -2.5398
  286MOL0     H38590   6.977   6.455   4.457  1.8898 -0.0479  1.6283
  286MOL0     H38591   7.032   6.587   4.363 -1.3974  1.7016 -0.2978
  286MOL0     H38592   7.027   6.246   5.283 -2.9566 -1.6607  0.2169
  286MOL0     H38593   6.953   6.055   5.376  0.6415  1.6965  0.4623
  286MOL0     H38594   7.036   5.599   5.470 -2.5528  2.2034  0.1652
  286MOL0     H38595   7.041   5.408   5.577  0.6564 -0.9382  1.2027
  286MOL0     H38596   7.029   3.677   6.580  0.3443  1.0656 -0.2995
  286MOL0     H38597   7.070   3.440   6.533  1.4214  2.1145 -2.3743
  286MOL0     H38598   7.290   3.123   6.230 -0.3738  2.5452  0.4017
  286MOL0     H38599   7.333   2.887   6.211 -0.9898 -3.6690  0.3495
  286MOL0     H38600   7.350   2.693   6.308 -1.0633  1.2053  1.9308
  286MOL0     H38601   7.250   2.649   6.448  0.8655 -1.8882  1.0687
  286MOL0     H38602   7.343   2.424   6.346  0.4364  0.0471 -0.4469
  286MOL0     H38603   7.305   2.490   6.192  1.0321  2.2466 -0.1409
  286MOL0     H38604   7.141   2.314   6.251 -0.1469  0.1784 -2.3534
  286MOL0     H38605   7.058   2.461   6.217  1.6567 -1.6797 -1.8613
  286MOL0     H38606   6.980   2.481   6.430  0.9691  2.0973  0.6247
  286MOL0     H38607   7.122   2.418   6.518  1.5508  2.6339 -1.9959
  286MOL0     H38608   6.901   2.069   6.485  0.5455  1.4326  0.9779
  286MOL0     H38609   6.941   2.783   6.326 -3.0067  1.9534  0.4489
  286MOL0     H38610   6.884   3.032   6.359 -1.4346 -2.0094  0.7905
  287MOL0     O38611   0.800   3.281   5.480 -0.4346 -0.0802  0.1153
  287MOL0     C38612   0.849   3.384   5.434 -0.1466  0.7596 -0.1462
  287MOL0     O38613   0.942   3.396   5.337 -0.0409  0.3962 -0.2093
  287MOL0     C38614   0.997   3.282   5.298 -0.5928 -0.5036 -0.0167
  287MOL0     C38615   1.110   3.230   5.353  0.3422 -0.0251  0.6428
  287MOL0     C38616   1.157   3.103   5.322  1.0600  0.4312  0.6591
  287MOL0     C38617   1.094   3.019   5.233  0.0664 -0.9265 -0.6414
  287MOL0     O38618   1.156   2.895   5.222 -0.2699  0.8310  0.0679
  287MOL0     C38619   1.144   2.820   5.097  0.3527  0.1747 -0.8660
  287MOL0     C38620   1.019   2.733   5.074 -0.3822 -0.5639 -0.9288
  287MOL0     C38621   1.018   2.617   5.179 -0.0800  0.5002 -1.0459
  287MOL0     C38622   1.007   2.476   5.123 -0.2085 -0.0149 -0.5363
  287MOL0     C38623   1.011   2.361   5.230 -0.1159 -0.0778 -0.5967
  287MOL0     C38624   1.150   2.327   5.278  0.2302 -0.6103  0.4138
  287MOL0     C38625   1.147   2.199   5.360 -0.1390 -0.6099 -0.0145
  287MOL0     C38626   1.266   2.104   5.341  1.0338  2.0161 -0.2459
  287MOL0     N38627   1.360   2.150   5.438  0.6876 -0.0169 -0.0664
  287MOL0     C38628   1.351   2.103   5.565 -0.3337  0.4657 -1.4483
  287MOL0     C38629   1.444   2.172   5.633 -0.0289 -0.9789  0.1666
  287MOL0     C38630   1.482   2.172   5.788  1.5076  0.6279  0.3126
  287MOL0     C38631   1.366   2.098   5.866 -0.3136 -0.0520  0.0523
  287MOL0     C38632   1.380   2.129   6.016 -0.5722 -0.1323  0.3262
  287MOL0     C38633   1.489   2.046   6.093 -0.6837 -0.0022  0.5596
  287MOL0     O38634   1.435   1.917   6.096  0.1522 -0.9609  0.2493
  287MOL0     C38635   1.517   1.809   6.124  0.0101 -0.1073  0.1412
  287MOL0     C38636   1.459   1.679   6.125 -0.2993  0.0294 -0.0574
  287MOL0     C38637   1.531   1.565   6.152  0.6449 -0.6692 -0.3742
  287MOL0     C38638   1.462   1.429   6.160 -0.0840  0.2762 -0.1116
  287MOL0     C38639   1.661   1.584   6.206 -0.8511 -0.1005  0.0050
  287MOL0     C38640   1.753   1.472   6.247 -0.3759  0.0848  0.3525
  287MOL0     O38641   1.889   1.494   6.224 -0.4391  0.0519  0.1455
  287MOL0     C38642   1.987   1.397   6.246 -0.2565 -0.5176 -0.4959
  287MOL0     C38643   1.980   1.268   6.180  1.0469 -0.2915  0.5443
  287MOL0     C38644   2.081   1.175   6.199 -0.2142 -0.8904 -0.6712
  287MOL0     C38645   2.196   1.206   6.272 -1.8206 -0.9912  0.5565
  287MOL0     O38646   2.300   1.111   6.280  0.1315 -0.2846 -0.1306
  287MOL0     C38647   2.396   1.146   6.380  0.1544 -0.8577 -0.4679
  287MOL0     C38648   2.491   1.033   6.398  0.2737  0.4051 -0.4899
  287MOL0     C38649   2.442   0.892   6.434 -0.2680  0.8747  0.5886
  287MOL0     C38650   2.338   0.873   6.540 -0.7456 -0.4030 -0.5885
  287MOL0     C38651   2.284   0.734   6.523  0.8605  0.4192  0.1101
  287MOL0     C38652   2.134   0.720   6.573  0.1309  0.5565  0.2906
  287MOL0     C38653   2.110   0.766   6.715 -0.6001 -0.2109  0.0820
  287MOL0     C38654   1.958   0.780   6.732 -0.3678 -0.8521  0.1603
  287MOL0    Cl38655   1.937   0.828   6.905  0.3381 -0.0485 -0.0864
  287MOL0     C38656   2.211   1.341   6.315  0.3503 -0.6574 -0.3980
  287MOL0     C38657   2.106   1.431   6.307  0.9876  0.8271  1.6685
  287MOL0     O38658   1.711   1.362   6.296  0.2831 -0.2483  0.8629
  287MOL0     C38659   1.724   1.718   6.204 -0.1344 -0.3464 -0.0118
  287MOL0     C38660   1.649   1.826   6.157 -0.1240  0.1903 -1.0734
  287MOL0     N38661   1.498   2.270   5.552  0.3753 -0.7266  0.0616
  287MOL0     N38662   1.451   2.247   5.438  0.2691 -0.2155 -0.9921
  287MOL0     C38663   0.979   3.069   5.167 -0.6806 -0.2012 -0.3266
  287MOL0     C38664   0.934   3.201   5.201  0.2501 -0.0535  0.1699
  287MOL0     C38665   0.812   3.512   5.506 -0.2815 -0.6685 -0.1660
  287MOL0     C38666   0.850   3.643   5.452 -0.3451  0.5735  0.3381
  287MOL0     C38667   0.811   3.756   5.520  0.2787  0.6890 -0.4570
  287MOL0     C38668   0.732   3.750   5.631 -0.5234  0.3618 -0.8931
  287MOL0     O38669   0.694   3.865   5.692 -0.1644  0.4292  0.9657
  287MOL0     C38670   0.800   3.932   5.756 -0.2579 -0.7239  0.0807
  287MOL0     C38671   0.820   4.065   5.689  0.4824  0.9619 -0.5255
  287MOL0     C38672   0.694   4.123   5.616 -1.0760 -0.0979  0.0777
  287MOL0     C38673   0.585   4.155   5.716  0.3481 -0.0842  0.0333
  287MOL0     C38674   0.480   4.239   5.653  0.0491  0.3734 -0.7249
  287MOL0     C38675   0.388   4.297   5.607 -1.0348 -0.9354  0.5451
  287MOL0     C38676   0.698   3.625   5.685  0.4608  0.3676 -0.0206
  287MOL0     C38677   0.754   3.504   5.635 -0.1102  0.1769 -0.7108
  287MOL0     H38678   1.149   3.283   5.439 -4.3969  1.9877  1.8639
  287MOL0     H38679   1.243   3.056   5.370  0.0465  0.2790  2.4062
  287MOL0     H38680   1.149   2.886   5.010 -1.8140 -1.7614 -2.5933
  287MOL0     H38681   1.232   2.755   5.101 -1.2267 -2.0797  2.7643
  287MOL0     H38682   0.937   2.805   5.082  2.9657  3.6879 -1.2621
  287MOL0     H38683   1.018   2.695   4.971  2.4899 -0.5283 -1.0437
  287MOL0     H38684   1.099   2.628   5.252 -0.1200 -0.3217 -0.8635
  287MOL0     H38685   0.932   2.638   5.242  2.2357  1.2142  2.1444
  287MOL0     H38686   0.913   2.466   5.068  0.5995 -0.6827 -1.8368
  287MOL0     H38687   1.081   2.458   5.045  0.5615  1.6808 -0.2398
  287MOL0     H38688   0.950   2.385   5.318 -0.3439 -0.8158 -0.5499
  287MOL0     H38689   0.968   2.273   5.181  2.5412 -1.7870 -0.0960
  287MOL0     H38690   1.220   2.312   5.195 -1.3489  0.5245 -1.2050
  287MOL0     H38691   1.189   2.408   5.339 -0.9429 -0.1540  0.5851
  287MOL0     H38692   1.139   2.241   5.461  3.0013 -0.7568  0.3941
  287MOL0     H38693   1.061   2.133   5.350 -0.8130  0.2287  0.1301
  287MOL0     H38694   1.320   2.102   5.245  2.7071  1.8134  0.6681
  287MOL0     H38695   1.238   2.000   5.363  0.9978  1.4806 -2.5481
  287MOL0     H38696   1.312   2.017   5.618  2.6045 -0.6109 -0.8774
  287MOL0     H38697   1.585   2.141   5.806  1.9381  2.3307  0.9375
  287MOL0     H38698   1.485   2.278   5.813 -0.0684  1.0364 -1.0113
  287MOL0     H38699   1.363   1.989   5.857  1.7717 -0.7307  4.5775
  287MOL0     H38700   1.265   2.133   5.841 -0.8276 -1.7131 -0.3596
  287MOL0     H38701   1.290   2.089   6.064 -2.9533 -3.5301 -5.8549
  287MOL0     H38702   1.382   2.236   6.036  0.7618 -0.5386  2.8102
  287MOL0     H38703   1.519   2.081   6.192 -0.6320 -2.0724  1.3207
  287MOL0     H38704   1.576   2.050   6.026 -0.4817 -2.0985  0.6391
  287MOL0     H38705   1.352   1.682   6.113 -0.4270  3.8906  0.8841
  287MOL0     H38706   1.454   1.395   6.264  3.1568  0.4517  0.3120
  287MOL0     H38707   1.369   1.418   6.105  0.4198  0.1190 -0.9561
  287MOL0     H38708   1.530   1.353   6.121 -1.1547 -0.8571  0.1537
  287MOL0     H38709   1.898   1.239   6.115  1.3838 -1.2322  0.5282
  287MOL0     H38710   2.070   1.074   6.161 -2.1650 -0.0658 -2.4639
  287MOL0     H38711   2.453   1.238   6.362 -1.8527  0.7765  0.9352
  287MOL0     H38712   2.344   1.155   6.476  2.8570  0.3780  1.0217
  287MOL0     H38713   2.539   1.028   6.300  0.8712  3.0930 -0.4039
  287MOL0     H38714   2.564   1.063   6.473  1.2662 -0.7253 -0.9677
  287MOL0     H38715   2.526   0.827   6.459 -0.6436 -0.2272 -0.8887
  287MOL0     H38716   2.419   0.836   6.343  2.5089  0.8537 -0.1801
  287MOL0     H38717   2.378   0.901   6.638  2.5224  0.9380 -2.1426
  287MOL0     H38718   2.267   0.949   6.505 -0.3118 -0.1412 -0.9021
  287MOL0     H38719   2.341   0.678   6.598 -2.1278  4.4734  6.3004
  287MOL0     H38720   2.292   0.693   6.422 -1.2759 -0.2309  0.1726
  287MOL0     H38721   2.078   0.775   6.496 -0.5295 -2.4588 -1.5767
  287MOL0     H38722   2.095   0.619   6.555  2.8695 -0.2137 -2.0538
  287MOL0     H38723   2.156   0.863   6.736 -0.7720  0.2442 -1.4748
  287MOL0     H38724   2.143   0.691   6.787 -2.5190 -0.7265  0.4807
  287MOL0     H38725   1.920   0.680   6.710  2.1639 -2.0370  0.8046
  287MOL0     H38726   1.904   0.855   6.673 -1.0070 -0.9549  0.6045
  287MOL0     H38727   2.301   1.391   6.350 -1.8563  3.7424 -0.2616
  287MOL0     H38728   2.118   1.534   6.342  2.0136  0.9243  1.0621
  287MOL0     H38729   1.828   1.733   6.230  1.2687 -1.3217 -4.3014
  287MOL0     H38730   1.679   1.929   6.172 -2.8027  1.0581 -0.9993
  287MOL0     H38731   0.924   3.008   5.096 -2.0507  2.0052 -1.2594
  287MOL0     H38732   0.844   3.231   5.149  0.3506  2.9557  1.4988
  287MOL0     H38733   0.908   3.650   5.361 -2.2216  2.9186 -0.7524
  287MOL0     H38734   0.833   3.856   5.484 -0.9730  0.8844 -0.7494
  287MOL0     H38735   0.780   3.966   5.858  0.7188  2.3482 -0.6308
  287MOL0     H38736   0.894   3.875   5.764  0.1161  0.0644  1.8418
  287MOL0     H38737   0.897   4.043   5.614  0.2727  1.3240 -0.8447
  287MOL0     H38738   0.851   4.145   5.757 -1.8893  2.0713 -0.6786
  287MOL0     H38739   0.655   4.049   5.545 -1.8308 -0.9241  1.3100
  287MOL0     H38740   0.733   4.217   5.576 -1.8825 -0.0831 -0.6958
  287MOL0     H38741   0.625   4.229   5.785 -1.8175  2.2624 -1.0535
  287MOL0     H38742   0.547   4.066   5.768  1.9471 -0.3913  0.7269
  287MOL0     H38743   0.299   4.336   5.562 -1.0985 -1.8670 -0.1669
  287MOL0     H38744   0.641   3.634   5.777  0.9874  1.0929  0.2402
  287MOL0     H38745   0.725   3.408   5.677  2.6502 -0.8399 -0.9573
  288MOL0     O38746   0.347   5.769   2.018  0.1235  0.5384 -0.3813
  288MOL0     C38747   0.449   5.780   1.952 -0.2925 -0.3770  1.0930
  288MOL0     O38748   0.537   5.674   1.913  0.2697 -0.2651  0.4448
  288MOL0     C38749   0.553   5.562   1.990 -0.6445  0.1539 -0.2565
  288MOL0     C38750   0.675   5.490   1.975  0.3914 -0.1240  0.5385
  288MOL0     C38751   0.701   5.374   2.042  0.8021  0.3112 -0.7379
  288MOL0     C38752   0.594   5.315   2.119 -0.4776 -0.4125 -1.6024
  288MOL0     O38753   0.600   5.190   2.177  0.2330 -0.9785 -0.8343
  288MOL0     C38754   0.710   5.098   2.140  1.0173  0.0278 -0.6421
  288MOL0     C38755   0.671   4.955   2.185 -0.1548  0.1693  0.0050
  288MOL0     C38756   0.637   4.938   2.336 -0.2211 -1.0147  0.4840
  288MOL0     C38757   0.490   4.964   2.369 -1.0423  1.0721 -0.3416
  288MOL0     C38758   0.435   4.892   2.492  0.1197  0.0354 -0.7735
  288MOL0     C38759   0.439   4.983   2.611  0.7018  0.0232  0.3391
  288MOL0     C38760   0.484   4.903   2.732  0.1757 -0.0518 -0.2270
  288MOL0     C38761   0.463   4.994   2.856  0.7595  0.8437 -0.2886
  288MOL0     N38762   0.549   4.926   2.959 -0.8171 -0.7319 -1.6598
  288MOL0     C38763   0.678   4.963   2.991 -0.2956 -0.0108 -0.4856
  288MOL0     C38764   0.724   4.871   3.083 -0.0762  0.7700  0.7147
  288MOL0     C38765   0.836   4.901   3.172  0.2467  0.3414  0.4646
  288MOL0     C38766   0.956   4.811   3.150  0.2378 -0.4466  0.4190
  288MOL0     C38767   1.080   4.849   3.229  0.2676  1.1939  0.6822
  288MOL0     C38768   1.196   4.735   3.203  0.2953 -0.1782 -0.6445
  288MOL0     O38769   1.163   4.614   3.276  0.1253 -0.5216  0.6358
  288MOL0     C38770   1.235   4.505   3.255  0.4301  1.2950  0.0851
  288MOL0     C38771   1.179   4.375   3.252  0.0846  0.2229 -0.2888
  288MOL0     C38772   1.249   4.262   3.213  0.2231  0.3140 -0.2567
  288MOL0     C38773   1.183   4.138   3.170 -0.9582 -0.0263 -0.7813
  288MOL0     C38774   1.395   4.274   3.216  0.7300  0.7308 -0.4672
  288MOL0     C38775   1.490   4.158   3.223 -0.7573  0.3307  0.1816
  288MOL0     O38776   1.448   4.040   3.159  0.3928  0.2843 -0.3227
  288MOL0     C38777   1.526   3.922   3.149 -0.7354  0.0235  0.5318
  288MOL0     C38778   1.463   3.802   3.123  0.5298 -0.4673  0.2631
  288MOL0     C38779   1.535   3.687   3.096 -1.0212 -0.5938  0.0504
  288MOL0     C38780   1.670   3.693   3.084  0.2630 -1.2706  1.2931
  288MOL0     O38781   1.741   3.576   3.052  0.7463  0.0469 -0.0460
  288MOL0     C38782   1.872   3.588   2.996  0.0434  0.6021 -0.6072
  288MOL0     C38783   1.919   3.447   2.996 -0.1223 -0.1536  0.2508
  288MOL0     C38784   1.838   3.348   2.898 -0.9251 -0.8539  0.8218
  288MOL0     C38785   1.907   3.216   2.875  0.0777  0.8507 -0.3863
  288MOL0     C38786   1.807   3.107   2.824 -0.2358 -0.7380 -0.5157
  288MOL0     C38787   1.863   2.973   2.802 -0.6899  0.4472 -0.2268
  288MOL0     C38788   1.769   2.868   2.766 -0.3297 -0.2388  0.8141
  288MOL0     C38789   1.688   2.911   2.638  0.8779 -0.0898 -0.3496
  288MOL0    Cl38790   1.544   2.799   2.626 -0.5612  0.0526  0.1432
  288MOL0     C38791   1.735   3.809   3.117  0.2428 -1.0069  0.9087
  288MOL0     C38792   1.667   3.928   3.153 -0.8965 -0.0592 -0.1771
  288MOL0     O38793   1.593   4.168   3.290 -0.2765  0.3767  1.3215
  288MOL0     C38794   1.447   4.407   3.231  0.0417 -0.1443  0.6067
  288MOL0     C38795   1.371   4.521   3.249 -0.2105  0.2887  0.0814
  288MOL0     N38796   0.626   4.775   3.093  0.8185  0.5586  0.8470
  288MOL0     N38797   0.526   4.805   3.014  0.3581 -0.4369  0.0524
  288MOL0     C38798   0.474   5.383   2.132 -0.4166 -0.1149 -0.3727
  288MOL0     C38799   0.455   5.508   2.077  0.6662  0.0583 -0.6134
  288MOL0     C38800   0.490   5.922   1.924  0.2075  0.8926  0.5596
  288MOL0     C38801   0.445   6.020   2.006  0.9930  0.1927  1.2330
  288MOL0     C38802   0.480   6.154   1.993 -0.1293 -0.4493  0.2166
  288MOL0     C38803   0.574   6.194   1.896  0.3890 -0.8409  0.1473
  288MOL0     O38804   0.610   6.324   1.915  0.8346  0.2609  0.3334
  288MOL0     C38805   0.720   6.378   1.841 -0.2387  0.2689  0.2506
  288MOL0     C38806   0.660   6.506   1.777 -0.6623 -0.4856  0.5910
  288MOL0     C38807   0.768   6.597   1.712  0.1724 -0.1555  0.2803
  288MOL0     C38808   0.699   6.691   1.607  1.4563  0.3793  1.0313
  288MOL0     C38809   0.734   6.668   1.467  0.1739 -0.6047  0.1752
  288MOL0     C38810   0.785   6.646   1.362  0.0145  0.1699  1.2170
  288MOL0     C38811   0.620   6.088   1.809 -0.7103  0.8243 -0.4191
  288MOL0     C38812   0.578   5.956   1.824  0.2696  0.0732  0.7424
  288MOL0     H38813   0.760   5.530   1.920 -0.1253  1.7798  1.0407
  288MOL0     H38814   0.798   5.328   2.027  0.6540  0.2943 -1.7209
  288MOL0     H38815   0.744   5.109   2.036 -0.8655  0.3659 -1.2651
  288MOL0     H38816   0.781   5.135   2.214 -1.7512  1.2287  1.6302
  288MOL0     H38817   0.579   4.935   2.130 -1.0447  4.3057 -0.3225
  288MOL0     H38818   0.760   4.891   2.187  2.0750  2.9879  3.4022
  288MOL0     H38819   0.674   4.838   2.361  3.4363 -0.4439 -1.9007
  288MOL0     H38820   0.702   5.009   2.389 -0.2336 -1.7993  1.5716
  288MOL0     H38821   0.457   5.068   2.361  3.6971  2.6671 -2.5967
  288MOL0     H38822   0.436   4.905   2.294  0.3369 -1.5493  0.6224
  288MOL0     H38823   0.331   4.861   2.478  0.2918 -0.8287 -0.2144
  288MOL0     H38824   0.485   4.795   2.500 -2.4004 -1.2793 -0.0429
  288MOL0     H38825   0.516   5.058   2.592  0.7988 -0.7934 -3.1411
  288MOL0     H38826   0.342   5.031   2.615  0.0065 -1.1133 -1.5014
  288MOL0     H38827   0.422   4.813   2.739  2.2254 -1.5373 -0.1856
  288MOL0     H38828   0.587   4.867   2.720 -0.0527 -0.1499 -2.1957
  288MOL0     H38829   0.359   4.992   2.891  0.3049  0.8089 -1.5821
  288MOL0     H38830   0.503   5.096   2.847  1.6181  0.7986  2.1860
  288MOL0     H38831   0.713   5.064   2.971 -1.8417  0.8481  0.8867
  288MOL0     H38832   0.868   5.006   3.167  3.3794 -0.4958  0.5674
  288MOL0     H38833   0.785   4.880   3.267 -1.9723 -2.6901 -1.2283
  288MOL0     H38834   0.984   4.804   3.045 -2.2393  0.2621 -0.3627
  288MOL0     H38835   0.936   4.705   3.171  1.3633 -0.6338  0.6214
  288MOL0     H38836   1.055   4.859   3.335 -1.0925  0.5567  0.4397
  288MOL0     H38837   1.113   4.949   3.199 -0.5125  1.6475  1.3127
  288MOL0     H38838   1.286   4.779   3.247 -0.3420  1.4916 -0.9384
  288MOL0     H38839   1.214   4.728   3.095  3.1330  2.6643 -0.5205
  288MOL0     H38840   1.071   4.367   3.262  0.3105 -1.8227  1.1709
  288MOL0     H38841   1.213   4.090   3.077 -1.2340  0.9521 -1.3960
  288MOL0     H38842   1.207   4.060   3.243  0.8005  2.0071  0.9637
  288MOL0     H38843   1.077   4.164   3.156 -1.4417 -1.0120  0.8455
  288MOL0     H38844   1.358   3.816   3.146  0.6614  1.6933 -0.2439
  288MOL0     H38845   1.480   3.595   3.079 -2.0924  0.2217 -1.0176
  288MOL0     H38846   1.875   3.624   2.893  0.0974  2.4184 -0.0111
  288MOL0     H38847   1.932   3.655   3.059 -0.6521  0.6567  0.0206
  288MOL0     H38848   2.019   3.450   2.951 -1.1828 -0.6682 -2.3290
  288MOL0     H38849   1.917   3.401   3.095 -0.8782 -1.6727 -0.4299
  288MOL0     H38850   1.822   3.393   2.799  0.0490 -1.7655  0.2262
  288MOL0     H38851   1.737   3.351   2.941 -1.3734  3.3180 -0.0654
  288MOL0     H38852   1.993   3.221   2.808  1.3321 -2.9806  0.7041
  288MOL0     H38853   1.953   3.189   2.971 -1.1525 -0.7685 -0.2312
  288MOL0     H38854   1.756   3.149   2.736  1.7815  0.4442 -1.1780
  288MOL0     H38855   1.747   3.088   2.914 -0.4033  2.4451  0.1415
  288MOL0     H38856   1.952   2.974   2.739  0.9493 -1.4089  1.8897
  288MOL0     H38857   1.905   2.937   2.896  2.6961 -0.0799 -1.8047
  288MOL0     H38858   1.699   2.850   2.848 -0.9400 -0.1509  0.3178
  288MOL0     H38859   1.825   2.777   2.745 -1.3431 -0.7137  0.0834
  288MOL0     H38860   1.754   2.920   2.551 -1.1298  4.2793 -1.6724
  288MOL0     H38861   1.642   3.010   2.644  2.4348  0.5745  2.4907
  288MOL0     H38862   1.842   3.805   3.131  0.3986  0.4594  0.2742
  288MOL0     H38863   1.729   4.010   3.186  0.7733 -1.3723  0.0934
  288MOL0     H38864   1.555   4.411   3.221  0.0523 -0.4468  0.6011
  288MOL0     H38865   1.427   4.613   3.244 -0.4181  0.4053 -0.1113
  288MOL0     H38866   0.390   5.326   2.170 -0.0805 -0.0129  0.5447
  288MOL0     H38867   0.358   5.557   2.090  1.4379  1.7363 -0.9432
  288MOL0     H38868   0.380   5.992   2.088  0.9324  0.4423  1.2704
  288MOL0     H38869   0.428   6.220   2.062 -1.5712  0.1840 -1.4270
  288MOL0     H38870   0.797   6.401   1.916 -0.4336  0.4565  0.3932
  288MOL0     H38871   0.757   6.314   1.761 -1.4368 -0.0034 -0.1091
  288MOL0     H38872   0.602   6.559   1.854 -0.8262  0.5028 -0.1917
  288MOL0     H38873   0.595   6.486   1.692  2.1724  0.5776 -2.0051
  288MOL0     H38874   0.851   6.551   1.659 -0.4779  0.6865 -1.5709
  288MOL0     H38875   0.816   6.656   1.790 -2.1486  1.5599  0.5182
  288MOL0     H38876   0.722   6.796   1.628  1.8405  0.6214 -0.4469
  288MOL0     H38877   0.590   6.678   1.604  1.8066 -3.1927  0.4528
  288MOL0     H38878   0.822   6.617   1.266  1.0633  0.3667  1.5506
  288MOL0     H38879   0.703   6.107   1.741  0.4669 -2.0688  0.0693
  288MOL0     H38880   0.617   5.883   1.754  2.1461  1.3940  0.3516
  289MOL0     O38881   0.152   6.761   1.747 -1.1042 -0.5534  0.2395
  289MOL0     C38882   0.276   6.745   1.780 -0.0547 -0.0245 -1.3106
  289MOL0     O38883   0.343   6.625   1.798  0.0880 -0.7075  0.3734
  289MOL0     C38884   0.270   6.515   1.781 -0.5805  0.4045 -0.1360
  289MOL0     C38885   0.272   6.438   1.894  0.4136  0.3593  0.5768
  289MOL0     C38886   0.184   6.329   1.906  0.3623  1.0903 -0.4472
  289MOL0     C38887   0.107   6.296   1.801  0.0602  0.1323  0.3777
  289MOL0     O38888   0.029   6.181   1.825  0.5120  0.0328  0.3403
  289MOL0     C38889  -0.067   6.129   1.735 -0.2689 -0.3661  0.7163
  289MOL0     C38890  -0.165   6.062   1.826 -0.2769 -0.4549  0.0216
  289MOL0     C38891  -0.224   6.168   1.923 -1.1790 -0.0373  0.0203
  289MOL0     C38892  -0.338   6.096   2.004  0.2836 -0.1861 -0.0286
  289MOL0     C38893  -0.412   6.195   2.088 -0.2112 -0.2681  0.1943
  289MOL0     C38894  -0.481   6.116   2.202  0.2696 -0.6065  0.1466
  289MOL0     C38895  -0.614   6.052   2.159 -0.5832 -0.4176  0.4616
  289MOL0     C38896  -0.680   5.976   2.279 -0.2667 -0.1357 -0.5991
  289MOL0     N38897  -0.776   6.057   2.352 -0.3274  0.7292 -0.0028
  289MOL0     C38898  -0.734   6.132   2.457 -0.6017  0.4864  1.2224
  289MOL0     C38899  -0.847   6.190   2.505  0.4772 -0.2254  0.1302
  289MOL0     C38900  -0.841   6.294   2.609 -0.4618  0.6222 -1.0462
  289MOL0     C38901  -0.861   6.444   2.546  0.4491  0.7871  0.3649
  289MOL0     C38902  -0.755   6.467   2.441 -0.1263  0.4269 -0.3099
  289MOL0     C38903  -0.770   6.601   2.380 -0.4333 -0.8498 -0.2304
  289MOL0     O38904  -0.902   6.626   2.336 -0.5765  0.9488  0.2260
  289MOL0     C38905  -0.912   6.647   2.204 -0.1333  0.7184 -0.6344
  289MOL0     C38906  -0.836   6.579   2.112 -0.6147 -0.3644  0.4018
  289MOL0     C38907  -0.848   6.609   1.972 -0.1359  0.0331  0.3244
  289MOL0     C38908  -0.755   6.539   1.887  0.2073  0.7095  0.0444
  289MOL0     C38909  -0.939   6.707   1.933 -0.7741  0.2369  0.8830
  289MOL0     C38910  -0.960   6.745   1.785 -0.0885 -0.3285 -0.1608
  289MOL0     O38911  -0.902   6.677   1.676 -0.2803  0.2153  0.2337
  289MOL0     C38912  -0.931   6.734   1.554  0.7520  0.2345 -0.3121
  289MOL0     C38913  -1.029   6.661   1.492  0.5540  0.1954  0.0183
  289MOL0     C38914  -1.096   6.704   1.371 -0.3771 -0.7372  0.2060
  289MOL0     C38915  -1.057   6.825   1.311  0.2690  0.0833  0.0793
  289MOL0     O38916  -1.125   6.848   1.189 -0.9862  0.2573 -0.0241
  289MOL0     C38917  -1.042   6.908   1.084  0.1689 -0.0457  0.9482
  289MOL0     C38918  -1.135   6.919   0.966  0.4938  0.2993  0.2162
  289MOL0     C38919  -1.047   6.974   0.847 -0.2135 -0.7223  0.0499
  289MOL0     C38920  -1.103   6.915   0.716  0.4257 -0.0370 -0.1248
  289MOL0     C38921  -1.093   7.011   0.589  0.0161  0.1207 -0.2563
  289MOL0     C38922  -0.955   7.030   0.542  0.6855  0.6218 -0.2980
  289MOL0     C38923  -0.942   7.092   0.403  0.7689 -0.3723 -0.2462
  289MOL0     C38924  -1.001   7.225   0.385 -0.1208 -0.3627 -0.7766
  289MOL0    Cl38925  -0.956   7.305   0.235  0.2083  0.2492  0.0921
  289MOL0     C38926  -0.964   6.897   1.374  0.3414 -0.3364  0.2629
  289MOL0     C38927  -0.890   6.849   1.489 -0.4287 -0.8915 -0.3077
  289MOL0     O38928  -1.003   6.863   1.780 -0.0251 -0.7343 -0.8351
  289MOL0     C38929  -1.026   6.759   2.029  0.3709  0.3014  0.6813
  289MOL0     C38930  -1.015   6.727   2.166 -0.9530 -0.2559  0.7620
  289MOL0     N38931  -0.957   6.147   2.435 -0.0771 -0.2378 -0.1812
  289MOL0     N38932  -0.909   6.083   2.333 -0.4855  0.2238 -0.3696
  289MOL0     C38933   0.115   6.369   1.683 -0.4395  0.1389  0.0511
  289MOL0     C38934   0.198   6.477   1.666 -0.5497 -0.5559  0.0542
  289MOL0     C38935   0.361   6.868   1.797  0.0239 -0.0170 -0.8779
  289MOL0     C38936   0.304   7.000   1.786 -0.3285 -0.1824  0.2181
  289MOL0     C38937   0.391   7.104   1.796  0.1899 -1.0069 -0.5395
  289MOL0     C38938   0.525   7.096   1.839 -0.2122 -0.3245 -0.0286
  289MOL0     O38939   0.600   7.215   1.867  0.3489  0.0808 -0.0005
  289MOL0     C38940   0.666   7.289   1.762  0.1958  0.3144  0.3387
  289MOL0     C38941   0.743   7.207   1.653 -0.2154 -0.0972 -0.5055
  289MOL0     C38942   0.870   7.149   1.699 -0.7691  0.1055  0.9121
  289MOL0     C38943   0.963   7.088   1.591 -0.4505  0.0511  0.1926
  289MOL0     C38944   0.895   7.028   1.478  0.1859 -0.2766  0.8209
  289MOL0     C38945   0.850   6.970   1.381 -0.2968 -0.4971 -0.3182
  289MOL0     C38946   0.583   6.979   1.853  0.2538  0.6785 -0.2597
  289MOL0     C38947   0.497   6.860   1.846  0.7274  0.3865  0.2202
  289MOL0     H38948   0.335   6.461   1.979  0.7460 -0.7923  0.6655
  289MOL0     H38949   0.180   6.262   1.991  1.6117  2.2514  0.5751
  289MOL0     H38950  -0.101   6.211   1.672 -4.1294 -1.8624  0.6072
  289MOL0     H38951  -0.021   6.054   1.668 -1.8576  1.1262 -2.2701
  289MOL0     H38952  -0.231   6.002   1.762  0.4637 -1.9710  0.6375
  289MOL0     H38953  -0.106   5.992   1.885 -0.8609 -1.5455 -0.6713
  289MOL0     H38954  -0.148   6.197   1.995  2.8783 -1.1878 -3.3747
  289MOL0     H38955  -0.271   6.249   1.866 -0.2370  1.3051  1.1059
  289MOL0     H38956  -0.405   6.059   1.926  2.3235 -1.7103 -1.1600
  289MOL0     H38957  -0.301   6.009   2.059 -0.9169 -2.1535 -2.1934
  289MOL0     H38958  -0.344   6.269   2.130  0.2142  0.2764 -1.4029
  289MOL0     H38959  -0.491   6.246   2.032  0.5498 -0.2326 -0.8713
  289MOL0     H38960  -0.408   6.046   2.245  2.6620 -0.7398 -3.7090
  289MOL0     H38961  -0.511   6.187   2.280 -3.0887 -1.2661 -0.3671
  289MOL0     H38962  -0.682   6.127   2.118  0.4964  0.5334  0.3649
  289MOL0     H38963  -0.600   5.982   2.076 -1.3758  1.0408 -0.9560
  289MOL0     H38964  -0.616   5.928   2.353 -0.6994 -1.2307 -0.9219
  289MOL0     H38965  -0.736   5.903   2.220  0.4711  0.7152 -2.4484
  289MOL0     H38966  -0.632   6.149   2.489 -0.2001  1.6940 -0.5558
  289MOL0     H38967  -0.903   6.273   2.697 -0.2462 -1.3642 -1.3348
  289MOL0     H38968  -0.738   6.300   2.647 -0.6826 -0.3945 -0.2244
  289MOL0     H38969  -0.859   6.514   2.629  1.0674  0.7912  0.3530
  289MOL0     H38970  -0.960   6.443   2.501  1.2538 -0.9054 -1.5827
  289MOL0     H38971  -0.762   6.393   2.361  2.0642  0.6932 -0.7980
  289MOL0     H38972  -0.655   6.462   2.484  0.1086  0.1276 -0.8903
  289MOL0     H38973  -0.684   6.626   2.316 -0.3691 -0.6957 -0.0854
  289MOL0     H38974  -0.763   6.674   2.461  3.4631 -1.1152 -0.0982
  289MOL0     H38975  -0.753   6.516   2.144  1.1166  1.5164 -0.1943
  289MOL0     H38976  -0.676   6.481   1.935  1.1370 -1.0354 -3.2666
  289MOL0     H38977  -0.812   6.474   1.820  1.6259 -1.0170  0.4601
  289MOL0     H38978  -0.698   6.601   1.817  0.4794  0.7808  0.3298
  289MOL0     H38979  -1.055   6.562   1.529  3.1078 -0.1323  1.1671
  289MOL0     H38980  -1.174   6.648   1.321 -0.7677  1.7143 -2.1560
  289MOL0     H38981  -1.009   7.010   1.108  2.7212 -0.0103 -2.0438
  289MOL0     H38982  -0.952   6.850   1.063 -0.5631 -0.8320 -0.0754
  289MOL0     H38983  -1.155   6.814   0.942 -0.5221 -0.0773  2.4635
  289MOL0     H38984  -1.227   6.975   0.987 -0.3659 -0.5559 -1.0534
  289MOL0     H38985  -0.943   6.941   0.854 -0.7191 -2.3164  0.5948
  289MOL0     H38986  -1.048   7.083   0.840  0.9444 -0.7032  0.0247
  289MOL0     H38987  -1.061   6.819   0.684 -0.6008  0.2100 -2.4323
  289MOL0     H38988  -1.211   6.901   0.731  0.4623  0.8421  1.0370
  289MOL0     H38989  -1.129   7.112   0.610 -1.4006 -0.8821  2.6413
  289MOL0     H38990  -1.162   6.959   0.521 -2.3454 -0.7992  2.6591
  289MOL0     H38991  -0.901   7.093   0.613 -1.5074  1.7842  0.4176
  289MOL0     H38992  -0.913   6.929   0.547  0.1835  0.4155 -0.1844
  289MOL0     H38993  -1.000   7.023   0.341 -2.9662  0.4072  2.0582
  289MOL0     H38994  -0.836   7.097   0.376  1.1532 -0.9083  1.0611
  289MOL0     H38995  -0.962   7.275   0.475  0.1281 -0.7696 -0.6547
  289MOL0     H38996  -1.109   7.216   0.403 -0.5740 -0.3773 -3.1628
  289MOL0     H38997  -0.949   6.994   1.329 -0.6590  0.7023  2.0577
  289MOL0     H38998  -0.816   6.906   1.544 -0.5486  1.9067 -2.7410
  289MOL0     H38999  -1.103   6.833   2.005  1.5024  1.2442 -0.1349
  289MOL0     H39000  -1.088   6.776   2.229 -1.9649  1.4869 -1.5942
  289MOL0     H39001   0.058   6.344   1.595 -1.5441 -2.3541  1.3910
  289MOL0     H39002   0.186   6.547   1.584  2.2222 -0.1187 -0.0934
  289MOL0     H39003   0.205   7.021   1.748  0.2961 -0.9901 -2.0283
  289MOL0     H39004   0.343   7.201   1.786  0.6460 -0.5231  1.5337
  289MOL0     H39005   0.594   7.358   1.715  3.5746  1.6813 -3.3442
  289MOL0     H39006   0.736   7.348   1.822  0.5561  1.2488 -0.9494
  289MOL0     H39007   0.753   7.281   1.573  0.1475  1.1151  0.6225
  289MOL0     H39008   0.679   7.127   1.617 -1.5498 -0.5793  2.6042
  289MOL0     H39009   0.862   7.088   1.790 -0.2136 -0.9410  0.2819
  289MOL0     H39010   0.929   7.239   1.718  0.8577 -0.8633  0.6649
  289MOL0     H39011   1.042   7.020   1.626 -1.5964 -2.0265 -1.0175
  289MOL0     H39012   1.017   7.172   1.547 -0.3823 -1.0255 -1.9129
  289MOL0     H39013   0.798   6.917   1.304 -1.1202 -1.1908  0.6851
  289MOL0     H39014   0.687   6.962   1.881 -0.4087 -1.8171  0.9606
  289MOL0     H39015   0.548   6.765   1.858  2.1826  1.2049  0.6809
  290MOL0     O39016   0.230   8.677   9.320 -0.3442 -0.0775 -0.9274
  290MOL0     C39017   0.351   8.663   9.344 -0.7454 -0.3325 -0.2903
  290MOL0     O39018   0.436   8.771   9.349 -0.1333 -0.4655 -0.1448
  290MOL0     C39019   0.385   8.897   9.340 -0.6031  0.6997 -0.1599
  290MOL0     C39020   0.304   8.951   9.437  0.4181  0.4052 -0.1305
  290MOL0     C39021   0.268   9.089   9.428  1.5103  0.4852 -0.0380
  290MOL0     C39022   0.297   9.169   9.323 -0.1313 -0.5123  0.2042
  290MOL0     O39023   0.264   9.303   9.323  0.2175  0.7281 -0.3658
  290MOL0     C39024   0.232   9.359   9.198 -0.3131 -0.2502 -0.5426
  290MOL0     C39025   0.171   9.493   9.220 -0.4143  0.0401 -0.2727
  290MOL0     C39026   0.068   9.512   9.336  0.5459 -0.2532 -0.1281
  290MOL0     C39027  -0.027   9.629   9.319 -0.6615  0.9137 -0.6904
  290MOL0     C39028  -0.124   9.646   9.431  0.1453 -0.0898  0.4564
  290MOL0     C39029  -0.057   9.688   9.566  1.1541  0.5386  1.1837
  290MOL0     C39030   0.073   9.779   9.569 -0.3650  0.2533  1.0021
  290MOL0     C39031   0.084   9.869   9.689 -0.6525 -0.0720 -0.1699
  290MOL0     N39032   0.104   9.790   9.814 -0.0745 -0.5495 -0.0893
  290MOL0     C39033   0.217   9.720   9.855  1.2152 -0.9031  0.8706
  290MOL0     C39034   0.180   9.627   9.938  0.8045  0.5203  0.4227
  290MOL0     C39035   0.264   9.511   9.997  0.1765 -0.5909  0.4362
  290MOL0     C39036   0.214   9.374   9.959  0.5132 -1.4094 -0.0352
  290MOL0     C39037   0.254   9.326   9.813  0.0451 -0.1054 -0.1290
  290MOL0     C39038   0.385   9.244   9.810  0.0950 -0.1809  0.9208
  290MOL0     O39039   0.430   9.214   9.676 -0.2637  0.1151  0.3056
  290MOL0     C39040   0.520   9.110   9.651  0.3681  0.7923  0.1278
  290MOL0     C39041   0.591   9.126   9.536  0.7017  0.1492  0.1280
  290MOL0     C39042   0.675   9.028   9.489 -0.9546 -1.0973  0.2837
  290MOL0     C39043   0.755   9.059   9.370 -0.2195 -0.7125  0.7110
  290MOL0     C39044   0.693   8.904   9.564 -0.5741  0.7387 -0.2221
  290MOL0     C39045   0.775   8.791   9.514  0.2768 -0.0225  0.2863
  290MOL0     O39046   0.802   8.685   9.610 -0.4033  0.0099  0.7707
  290MOL0     C39047   0.910   8.602   9.593  0.4866 -0.2110 -0.3164
  290MOL0     C39048   0.910   8.510   9.488  1.0730 -0.2071  0.5491
  290MOL0     C39049   1.013   8.415   9.486  0.1796 -0.0740 -0.6608
  290MOL0     C39050   1.114   8.412   9.578  0.3110  1.3227  0.8193
  290MOL0     O39051   1.211   8.312   9.570  0.0463  0.0239  0.0419
  290MOL0     C39052   1.329   8.298   9.652 -0.9299 -0.9620 -0.7484
  290MOL0     C39053   1.453   8.234   9.582  0.5463  0.4224 -0.7918
  290MOL0     C39054   1.560   8.176   9.672 -0.6699 -1.2315  0.2274
  290MOL0     C39055   1.675   8.145   9.582  0.0646  0.5416  0.0855
  290MOL0     C39056   1.774   8.065   9.666 -0.9817  0.0390  0.6712
  290MOL0     C39057   1.909   8.038   9.609 -0.0674 -0.0237  0.3155
  290MOL0     C39058   1.918   7.957   9.481 -0.0126 -0.6483 -0.2609
  290MOL0     C39059   2.059   7.913   9.459 -0.7270 -0.6745 -0.4044
  290MOL0    Cl39060   2.113   7.787   9.584 -0.2760 -0.1560 -0.4502
  290MOL0     C39061   1.119   8.503   9.687 -0.0523  0.4062 -0.0077
  290MOL0     C39062   1.007   8.589   9.693  0.3703 -0.8634  0.3541
  290MOL0     O39063   0.803   8.786   9.398 -0.3486  0.1099  0.9156
  290MOL0     C39064   0.609   8.881   9.675  0.6161 -0.4464  0.2385
  290MOL0     C39065   0.526   8.987   9.720  0.1501 -0.3144  0.4974
  290MOL0     N39066   0.049   9.655   9.974  0.7949 -0.2729 -0.2714
  290MOL0     N39067   0.005   9.745   9.892 -0.7068 -0.7319  0.0868
  290MOL0     C39068   0.393   9.116   9.235  0.2139 -0.2983  0.1413
  290MOL0     C39069   0.440   8.984   9.252 -1.2664 -0.3501 -0.3200
  290MOL0     C39070   0.397   8.517   9.367  0.6369 -1.1425 -0.3134
  290MOL0     C39071   0.303   8.421   9.417  0.4844 -0.0278 -0.5127
  290MOL0     C39072   0.344   8.286   9.428  0.5085  1.6056 -0.1456
  290MOL0     C39073   0.476   8.243   9.397 -0.7367  0.0054 -0.9295
  290MOL0     O39074   0.492   8.110   9.397 -0.6706  0.0183  0.0869
  290MOL0     C39075   0.613   8.050   9.352 -0.8493  0.4841  0.1271
  290MOL0     C39076   0.610   7.994   9.206 -0.2979 -0.4559 -0.4259
  290MOL0     C39077   0.727   7.892   9.185  0.7346  0.2347  0.4292
  290MOL0     C39078   0.688   7.820   9.059  0.1652  0.7782 -0.1520
  290MOL0     C39079   0.783   7.726   9.015 -0.1553 -0.1739  0.1106
  290MOL0     C39080   0.870   7.647   8.985 -0.4190 -0.4438 -0.7078
  290MOL0     C39081   0.571   8.346   9.376  0.4131 -0.6123  0.2714
  290MOL0     C39082   0.533   8.482   9.364 -0.0849 -0.9822  0.1299
  290MOL0     H39083   0.251   8.882   9.501  1.5262 -0.3534 -0.0108
  290MOL0     H39084   0.215   9.148   9.501  3.6114  1.2785  0.9329
  290MOL0     H39085   0.303   9.365   9.115 -0.1803  3.9022 -0.3370
  290MOL0     H39086   0.159   9.290   9.154 -1.0446  0.3002 -0.2287
  290MOL0     H39087   0.247   9.571   9.231 -1.3409  0.8721  0.5997
  290MOL0     H39088   0.110   9.515   9.132 -0.7566  1.5869  0.3043
  290MOL0     H39089   0.007   9.421   9.340  4.2055 -2.9918 -0.8996
  290MOL0     H39090   0.131   9.518   9.425 -0.7913 -1.5359  0.9598
  290MOL0     H39091   0.024   9.725   9.309  3.0932 -0.4677  2.7985
  290MOL0     H39092  -0.072   9.621   9.219 -1.3496 -2.0972 -0.2489
  290MOL0     H39093  -0.180   9.738   9.410  3.0780  2.5108  2.9333
  290MOL0     H39094  -0.189   9.558   9.433 -1.7388  1.1929 -0.7443
  290MOL0     H39095  -0.130   9.743   9.626 -1.6967  0.2998 -1.7444
  290MOL0     H39096  -0.034   9.594   9.617 -1.2258 -0.0216  1.3526
  290MOL0     H39097   0.170   9.729   9.559  1.1084  2.8273  1.3762
  290MOL0     H39098   0.078   9.857   9.493  1.0597  0.6704  1.4908
  290MOL0     H39099  -0.005   9.931   9.701 -0.7542  0.0333 -1.3673
  290MOL0     H39100   0.173   9.933   9.688 -1.8351  1.7035  1.4442
  290MOL0     H39101   0.313   9.714   9.805  0.3429  1.0512 -1.1788
  290MOL0     H39102   0.366   9.525   9.958  1.3026 -2.5659  2.4405
  290MOL0     H39103   0.272   9.525  10.105 -0.5282  1.6269  0.2558
  290MOL0     H39104   0.105   9.366   9.957  0.6533 -6.1627 -0.8888
  290MOL0     H39105   0.239   9.306  10.041 -1.8818 -0.4585  1.6136
  290MOL0     H39106   0.257   9.414   9.748 -0.9568  0.2477  0.2781
  290MOL0     H39107   0.176   9.255   9.785  0.9862 -1.5510  0.8031
  290MOL0     H39108   0.378   9.154   9.873 -0.8012 -0.1406  0.9037
  290MOL0     H39109   0.464   9.302   9.858  1.3734 -1.8056  0.8265
  290MOL0     H39110   0.581   9.226   9.495  2.3747  0.5995  0.7552
  290MOL0     H39111   0.861   9.056   9.396 -0.6843  1.4057  3.2085
  290MOL0     H39112   0.748   8.979   9.295  1.4706 -1.6881  1.5493
  290MOL0     H39113   0.732   9.151   9.314  0.1715 -0.3091  1.2034
  290MOL0     H39114   0.835   8.531   9.413  2.4564  0.1826 -0.7690
  290MOL0     H39115   1.027   8.345   9.404  2.3023 -1.7208  0.9917
  290MOL0     H39116   1.356   8.397   9.687  0.2064 -1.7886  0.8081
  290MOL0     H39117   1.294   8.243   9.740 -0.0084 -0.9300 -0.3600
  290MOL0     H39118   1.408   8.157   9.519  0.9503 -0.2074 -0.3260
  290MOL0     H39119   1.502   8.303   9.513  1.2014  0.4654 -0.2940
  290MOL0     H39120   1.514   8.087   9.716 -3.3279  1.3210  3.1103
  290MOL0     H39121   1.592   8.246   9.750 -1.0407 -0.1082 -0.6009
  290MOL0     H39122   1.633   8.090   9.498 -1.8947 -0.3959  1.5718
  290MOL0     H39123   1.721   8.239   9.551  2.5069 -0.7153 -0.3865
  290MOL0     H39124   1.732   7.967   9.692 -0.2050 -0.3089  0.6429
  290MOL0     H39125   1.793   8.105   9.766 -0.4642 -0.7368  0.8929
  290MOL0     H39126   1.961   8.133   9.597  3.3913 -1.3726  3.0412
  290MOL0     H39127   1.950   7.972   9.686 -3.4857 -2.3116  0.3929
  290MOL0     H39128   1.901   8.033   9.404 -2.0402  0.1462  0.8700
  290MOL0     H39129   1.835   7.886   9.473  0.0665 -0.5149 -3.2564
  290MOL0     H39130   2.124   8.001   9.465  2.0087 -2.6563  1.5070
  290MOL0     H39131   2.065   7.871   9.358  0.4795 -0.7552 -0.3107
  290MOL0     H39132   1.192   8.509   9.767  0.6983 -0.3463 -0.6206
  290MOL0     H39133   1.011   8.668   9.768  2.5964 -0.7040  0.1393
  290MOL0     H39134   0.618   8.791   9.735  2.4214 -0.4925 -0.0248
  290MOL0     H39135   0.469   8.971   9.811 -1.4614  2.0673 -0.0122
  290MOL0     H39136   0.442   9.182   9.165 -1.5246 -0.2306 -1.0828
  290MOL0     H39137   0.515   8.949   9.182  1.6291  3.1173  0.7678
  290MOL0     H39138   0.197   8.439   9.410  0.3912 -0.6580 -0.7544
  290MOL0     H39139   0.266   8.212   9.439 -1.1903  3.5097  1.5173
  290MOL0     H39140   0.704   8.111   9.353 -1.3689  1.2897  1.5466
  290MOL0     H39141   0.639   7.966   9.416  1.3422  0.2828 -0.9642
  290MOL0     H39142   0.609   8.072   9.129  3.0130  1.2701  1.0715
  290MOL0     H39143   0.514   7.944   9.189 -0.7975  0.5112 -0.5338
  290MOL0     H39144   0.728   7.825   9.271 -3.4660  0.6019  0.9698
  290MOL0     H39145   0.819   7.949   9.173  1.3505 -0.8061  0.0757
  290MOL0     H39146   0.675   7.892   8.977  1.1269  1.6694  0.4458
  290MOL0     H39147   0.600   7.760   9.081  2.8810 -2.5276  2.7328
  290MOL0     H39148   0.944   7.588   8.934  0.7266  0.1125  0.2580
  290MOL0     H39149   0.675   8.317   9.372  0.3600 -0.6780 -0.7950
  290MOL0     H39150   0.603   8.564   9.352  0.7027 -1.4217  1.4621
  291MOL0     O39151   7.286   1.276   1.364  0.3422  0.3288  0.2705
  291MOL0     C39152   7.252   1.186   1.439 -0.0617  0.3074 -0.2349
  291MOL0     O39153   7.211   1.195   1.567 -0.1051  0.1046 -0.0402
  291MOL0     C39154   7.160   1.320   1.591 -1.1167  0.0625 -0.4316
  291MOL0     C39155   7.243   1.414   1.659 -0.3608 -0.6100  0.5856
  291MOL0     C39156   7.187   1.541   1.683 -0.6740  1.0465  0.0213
  291MOL0     C39157   7.068   1.575   1.639  0.2661 -0.8233 -0.9074
  291MOL0     O39158   7.028   1.705   1.669 -0.2632 -1.0695 -0.1415
  291MOL0     C39159   6.925   1.765   1.594  0.2350 -0.7892  0.4672
  291MOL0     C39160   6.960   1.913   1.568  0.5307  0.0637  0.0838
  291MOL0     C39161   6.904   2.002   1.677  0.4893  0.1078 -0.1746
  291MOL0     C39162   6.985   2.006   1.800  0.2380 -0.1368 -0.3445
  291MOL0     C39163   6.943   2.115   1.907 -1.3370  0.0318  0.2345
  291MOL0     C39164   6.999   2.096   2.052  0.7412 -0.0327 -0.7437
  291MOL0     C39165   6.969   2.204   2.153  0.0567 -1.1201  0.1538
  291MOL0     C39166   7.051   2.328   2.124 -0.5056  0.0995  0.1640
  291MOL0     N39167   7.025   2.436   2.217 -0.8756  0.7426 -0.5320
  291MOL0     C39168   7.046   2.434   2.353 -0.2674  0.0395 -0.3370
  291MOL0     C39169   7.031   2.566   2.397  1.3433 -0.6449 -0.2306
  291MOL0     C39170   7.068   2.607   2.547  1.1518 -0.0335  0.5894
  291MOL0     C39171   6.989   2.719   2.608  0.3253 -0.6645  0.9863
  291MOL0     C39172   7.028   2.745   2.749 -0.3539  0.3940  0.0268
  291MOL0     C39173   7.032   2.615   2.847  0.2979  1.0143 -0.0415
  291MOL0     O39174   7.165   2.567   2.851 -0.1484 -0.1583 -0.0263
  291MOL0     C39175   7.187   2.471   2.944  0.5034  0.1152 -0.3717
  291MOL0     C39176   7.298   2.492   3.027  0.1639  0.4837  1.0507
  291MOL0     C39177   7.333   2.402   3.128 -0.6878  0.7644  0.5818
  291MOL0     C39178   7.457   2.445   3.202  1.4191  0.1252  0.1008
  291MOL0     C39179   7.251   2.295   3.157 -0.5905  0.1281  0.9229
  291MOL0     C39180   7.268   2.198   3.263 -0.0408 -0.8037  0.3229
  291MOL0     O39181   7.295   2.249   3.381 -0.1768 -0.0508 -0.6242
  291MOL0     C39182   7.358   2.170   3.476  0.6386  0.6973  0.8826
  291MOL0     C39183   7.436   2.057   3.448  0.5153  0.6686 -1.0515
  291MOL0     C39184   7.478   1.976   3.561  0.3939  0.0740 -0.3609
  291MOL0     C39185   7.450   2.031   3.688 -0.3799 -0.0920  0.9061
  291MOL0     O39186   7.499   1.958   3.792 -0.7754 -0.0343  0.8276
  291MOL0     C39187   7.423   1.969   3.921 -0.6150 -1.3504  0.1184
  291MOL0     C39188   7.484   1.853   4.018  0.0950 -0.0899  0.7308
  291MOL0     C39189   7.439   1.706   3.979  0.4403  0.3744 -0.0028
  291MOL0     C39190   7.281   1.706   3.996  0.4227 -0.6794 -0.1092
  291MOL0     C39191   7.235   1.555   3.966 -0.6371 -0.6951 -0.2095
  291MOL0     C39192   7.080   1.562   3.961  0.8918 -0.3189  0.0485
  291MOL0     C39193   7.012   1.581   4.096 -0.6221  0.4016 -0.5512
  291MOL0     C39194   6.861   1.595   4.093 -0.6713 -0.2974  0.7718
  291MOL0    Cl39195   6.795   1.453   3.994  0.0932  0.1442  0.0338
  291MOL0     C39196   7.390   2.147   3.709  0.0325 -0.5536 -0.0337
  291MOL0     C39197   7.339   2.213   3.602 -0.0740  0.6999 -0.4758
  291MOL0     O39198   7.248   2.082   3.230  0.4242  0.1940 -0.8747
  291MOL0     C39199   7.140   2.274   3.068  0.1243 -0.8849 -0.4694
  291MOL0     C39200   7.107   2.358   2.961  0.4618 -0.7447  0.3223
  291MOL0     N39201   6.994   2.644   2.290 -0.0153 -0.5605  0.1751
  291MOL0     N39202   6.976   2.557   2.191 -0.1727 -0.1382 -0.2460
  291MOL0     C39203   6.980   1.483   1.583  0.1183  0.1344  0.4375
  291MOL0     C39204   7.022   1.349   1.566  0.5664  0.1407 -0.1615
  291MOL0     C39205   7.269   1.047   1.387  0.1824 -1.0512  0.9210
  291MOL0     C39206   7.301   1.009   1.253  0.2873  0.2350  0.8472
  291MOL0     C39207   7.310   0.872   1.216 -0.3237 -0.2763  0.6960
  291MOL0     C39208   7.272   0.777   1.310 -0.7874 -0.0999 -0.0969
  291MOL0     O39209   7.274   0.640   1.304  0.0233  0.1353  0.5668
  291MOL0     C39210   7.279   0.581   1.174 -0.4599  1.0789 -0.0164
  291MOL0     C39211   7.328   0.443   1.187  0.1688  0.3990  0.8929
  291MOL0     C39212   7.225   0.339   1.254  0.9506  0.4724 -0.2211
  291MOL0     C39213   7.210   0.355   1.406 -0.6154  0.0905 -0.5327
  291MOL0     C39214   7.126   0.257   1.471  0.8967 -0.4408 -0.4501
  291MOL0     C39215   7.040   0.175   1.505 -0.0073 -0.8436 -1.3924
  291MOL0     C39216   7.247   0.811   1.439  0.0443  0.0666 -0.0657
  291MOL0     C39217   7.241   0.944   1.475  0.0887  1.2116  0.3259
  291MOL0     H39218   7.348   1.402   1.682 -0.2174  1.3261  1.0791
  291MOL0     H39219   7.238   1.622   1.734 -3.1109  1.8927  1.2608
  291MOL0     H39220   6.894   1.716   1.501 -0.1696  0.2163  0.0593
  291MOL0     H39221   6.843   1.761   1.666  1.1057  0.2424  1.5504
  291MOL0     H39222   7.069   1.908   1.564  0.5025 -0.3743 -0.1967
  291MOL0     H39223   6.901   1.942   1.480 -2.1783 -1.8313  1.1174
  291MOL0     H39224   6.899   2.105   1.641  3.2126  0.4532  0.2470
  291MOL0     H39225   6.800   1.970   1.686  0.9114 -1.2902 -0.1295
  291MOL0     H39226   6.972   1.908   1.847  0.4952  0.7943  1.7586
  291MOL0     H39227   7.088   2.023   1.767  0.5367 -2.6619 -0.9043
  291MOL0     H39228   6.972   2.214   1.871 -2.9942  1.0076  1.4172
  291MOL0     H39229   6.834   2.110   1.922 -1.4551 -3.6617 -0.9783
  291MOL0     H39230   6.956   2.003   2.090  1.2553 -0.3455 -0.9155
  291MOL0     H39231   7.108   2.087   2.050  0.6474 -1.1101 -1.3835
  291MOL0     H39232   6.867   2.238   2.131  0.3665 -0.5226 -0.3676
  291MOL0     H39233   6.983   2.166   2.255  0.5577 -3.1023 -0.6020
  291MOL0     H39234   7.028   2.361   2.022  0.4924  0.2585 -0.0267
  291MOL0     H39235   7.158   2.307   2.132 -0.4141 -0.7740 -2.3362
  291MOL0     H39236   7.093   2.357   2.413  2.1394  0.7830 -1.1571
  291MOL0     H39237   7.052   2.517   2.607  2.5378  0.0130  1.0641
  291MOL0     H39238   7.174   2.631   2.553  1.1175  0.2030  0.3053
  291MOL0     H39239   6.886   2.682   2.609  0.6335 -1.6013 -0.0780
  291MOL0     H39240   6.998   2.813   2.554  2.2505  0.1604  2.6246
  291MOL0     H39241   6.965   2.827   2.787  0.3025  0.3389  1.2947
  291MOL0     H39242   7.130   2.784   2.753  1.0934 -3.0102 -0.8527
  291MOL0     H39243   6.962   2.542   2.805 -0.7474  1.8911  0.1185
  291MOL0     H39244   7.006   2.643   2.950  0.8354 -2.0168  1.0142
  291MOL0     H39245   7.361   2.579   3.020  2.9016 -1.4051  0.4465
  291MOL0     H39246   7.532   2.413   3.129  0.7429  0.7888 -0.9000
  291MOL0     H39247   7.469   2.552   3.221 -2.1102  0.6207  0.0971
  291MOL0     H39248   7.472   2.386   3.293  1.0731  0.9093  0.6794
  291MOL0     H39249   7.477   2.035   3.350  0.6690 -2.5447 -0.3937
  291MOL0     H39250   7.547   1.892   3.553  2.9615  1.7975  1.9122
  291MOL0     H39251   7.456   2.061   3.971 -0.5841 -1.2904 -0.0125
  291MOL0     H39252   7.316   1.975   3.897 -0.2430  1.8735 -1.1622
  291MOL0     H39253   7.593   1.864   4.026  0.1812 -0.6125  0.3539
  291MOL0     H39254   7.448   1.866   4.120  0.0900 -3.4463  1.2743
  291MOL0     H39255   7.476   1.637   4.056 -3.9630 -2.9677 -0.4891
  291MOL0     H39256   7.477   1.662   3.887  2.1445 -1.3887  1.4329
  291MOL0     H39257   7.249   1.738   4.096 -0.5932  1.0291 -0.9357
  291MOL0     H39258   7.238   1.769   3.918  0.7736 -1.6325 -1.0963
  291MOL0     H39259   7.269   1.481   4.039 -0.9686 -0.6455 -0.0009
  291MOL0     H39260   7.273   1.531   3.866 -6.3631  3.1075 -3.9282
  291MOL0     H39261   7.043   1.639   3.893 -0.6836 -1.0850 -0.0281
  291MOL0     H39262   7.047   1.465   3.921 -0.8545  0.1123  0.3337
  291MOL0     H39263   7.049   1.672   4.146 -0.4891  0.2311 -0.3376
  291MOL0     H39264   7.038   1.497   4.161  3.2974  1.3930 -0.5990
  291MOL0     H39265   6.840   1.696   4.058  1.8173 -0.2555 -0.8772
  291MOL0     H39266   6.823   1.577   4.194 -1.8004 -2.8432 -0.0434
  291MOL0     H39267   7.371   2.182   3.809 -2.6850 -4.1561  0.9011
  291MOL0     H39268   7.285   2.306   3.622  0.4118  0.2208  4.0294
  291MOL0     H39269   7.070   2.194   3.087  1.0347 -1.6679 -0.3687
  291MOL0     H39270   7.024   2.333   2.895  0.3178 -0.1733  0.2762
  291MOL0     H39271   6.881   1.514   1.550  1.0642  1.8005 -0.9968
  291MOL0     H39272   6.958   1.267   1.535  4.6125 -1.8091 -4.6060
  291MOL0     H39273   7.329   1.092   1.189 -2.8549 -0.1983 -1.2782
  291MOL0     H39274   7.345   0.843   1.117  0.5896  0.1634  0.8714
  291MOL0     H39275   7.183   0.570   1.123  1.2710 -5.0655 -2.8132
  291MOL0     H39276   7.351   0.632   1.109 -1.1064  0.4580 -1.2505
  291MOL0     H39277   7.414   0.449   1.254 -0.1886 -1.0490  1.5120
  291MOL0     H39278   7.349   0.399   1.089 -2.6066  3.7195 -1.4705
  291MOL0     H39279   7.269   0.242   1.229  2.9993  1.5449 -0.9433
  291MOL0     H39280   7.133   0.344   1.194  2.6529 -0.6680 -3.1106
  291MOL0     H39281   7.160   0.449   1.430 -1.7169 -0.6108 -0.0360
  291MOL0     H39282   7.302   0.354   1.465 -0.1481  2.1675 -1.1523
  291MOL0     H39283   6.974   0.096   1.534  0.7811 -0.7012  0.9818
  291MOL0     H39284   7.220   0.729   1.506  4.3204 -2.4127 -1.0296
  291MOL0     H39285   7.180   0.964   1.563 -0.2346 -1.5330  0.8171
  292MOL0     O39286   4.109  11.208   0.092  0.0889 -0.2239  0.0598
  292MOL0     C39287   4.218  11.237   0.047 -0.4937 -0.0315  0.5199
  292MOL0     O39288   4.326  11.152   0.044 -0.0575  0.7906  0.3833
  292MOL0     C39289   4.321  11.046   0.128 -0.6143  0.1001 -0.6660
  292MOL0     C39290   4.294  11.059   0.264  0.5044  0.0795  1.4327
  292MOL0     C39291   4.314  10.956   0.350 -0.9868 -0.9265  0.7998
  292MOL0     C39292   4.356  10.831   0.295 -0.4243 -0.1776  0.3126
  292MOL0     O39293   4.362  10.725   0.385  0.2567 -0.3760 -0.5606
  292MOL0     C39294   4.407  10.741   0.522 -1.0804 -0.6756 -0.9018
  292MOL0     C39295   4.448  10.603   0.594  1.6914 -0.0592  0.1462
  292MOL0     C39296   4.316  10.516   0.615 -0.1238  0.1023  0.3793
  292MOL0     C39297   4.361  10.375   0.656 -0.4733 -0.2289  0.3272
  292MOL0     C39298   4.247  10.277   0.691 -0.6004 -0.2925 -0.1260
  292MOL0     C39299   4.305  10.157   0.772 -1.1582  0.7432 -0.7360
  292MOL0     C39300   4.219  10.039   0.812 -0.0454  1.1634  0.4025
  292MOL0     C39301   4.156  10.069   0.950 -1.3685 -0.4907 -1.0368
  292MOL0     N39302   4.085   9.947   1.003  0.5535  0.1834 -0.3467
  292MOL0     C39303   4.145   9.821   1.031  0.0682  0.7382  0.4285
  292MOL0     C39304   4.033   9.743   1.059 -0.3312 -0.1814  0.0343
  292MOL0     C39305   4.037   9.591   1.097  0.4968 -0.9058  0.1566
  292MOL0     C39306   3.983   9.585   1.250 -0.3045 -0.6140  0.2436
  292MOL0     C39307   3.976   9.433   1.298 -0.2316 -0.4363 -0.6572
  292MOL0     C39308   3.900   9.426   1.426  0.4522  0.4278  0.8686
  292MOL0     O39309   3.971   9.476   1.542  0.2824 -0.6628 -0.1722
  292MOL0     C39310   4.057   9.393   1.605  0.3457 -0.2522 -0.1884
  292MOL0     C39311   4.125   9.453   1.711 -0.1253  0.5831  0.0564
  292MOL0     C39312   4.222   9.392   1.795 -0.1576 -0.4500  0.0159
  292MOL0     C39313   4.303   9.480   1.896 -0.2491  0.5690  0.9626
  292MOL0     C39314   4.252   9.255   1.765  0.0486 -0.0423  1.2656
  292MOL0     C39315   4.356   9.180   1.836  0.5133  0.5882  0.1322
  292MOL0     O39316   4.331   9.050   1.854  0.5602 -0.0046 -0.5813
  292MOL0     C39317   4.427   8.987   1.940 -0.0415 -0.0340  0.7051
  292MOL0     C39318   4.493   8.870   1.914 -0.2263 -0.1867  0.4740
  292MOL0     C39319   4.584   8.809   1.995 -0.5534  0.6674 -0.5290
  292MOL0     C39320   4.601   8.867   2.127  0.3410 -0.8134 -0.0087
  292MOL0     O39321   4.685   8.800   2.208 -0.3855 -0.0102 -0.0650
  292MOL0     C39322   4.620   8.747   2.320  0.4347 -0.1508  0.1738
  292MOL0     C39323   4.723   8.670   2.400  0.1444  0.7521  0.6909
  292MOL0     C39324   4.832   8.752   2.463 -0.2701 -0.2475 -0.2576
  292MOL0     C39325   4.964   8.753   2.379  0.2746 -0.4315 -0.1584
  292MOL0     C39326   5.084   8.819   2.436 -0.6751 -0.3633 -0.0290
  292MOL0     C39327   5.216   8.815   2.358  0.3703  0.6798 -0.4409
  292MOL0     C39328   5.326   8.897   2.422  0.2439  0.2163  0.2136
  292MOL0     C39329   5.331   9.040   2.364  0.0864  0.7550  1.2827
  292MOL0    Cl39330   5.188   9.148   2.424 -0.5621  0.5409  0.0429
  292MOL0     C39331   4.524   8.980   2.164 -0.0333 -0.2023 -0.5041
  292MOL0     C39332   4.430   9.029   2.070 -0.1857  0.0799  0.0047
  292MOL0     O39333   4.457   9.241   1.861  0.7537 -0.5440  0.1546
  292MOL0     C39334   4.180   9.187   1.663  0.2877 -0.7603 -0.1375
  292MOL0     C39335   4.095   9.263   1.579 -0.1229  0.5938 -0.1214
  292MOL0     N39336   3.918   9.817   1.043 -0.8192 -0.3158  0.1481
  292MOL0     N39337   3.952   9.939   1.029 -0.2863 -0.0565  0.2896
  292MOL0     C39338   4.378  10.814   0.161  0.3558 -0.9870  0.3770
  292MOL0     C39339   4.366  10.919   0.074  0.9565 -0.1836  0.0428
  292MOL0     C39340   4.245  11.366  -0.024  0.2359 -0.1045  0.0001
  292MOL0     C39341   4.355  11.376  -0.101 -0.3034 -0.0053  0.4638
  292MOL0     C39342   4.375  11.486  -0.175  0.8543 -0.3844 -0.8273
  292MOL0     C39343   4.290  11.599  -0.168 -0.8280  0.3701 -0.7323
  292MOL0     O39344   4.318  11.724  -0.216  0.9251 -0.3503 -0.5731
  292MOL0     C39345   4.454  11.772  -0.197  0.7871  1.9934  0.4872
  292MOL0     C39346   4.451  11.925  -0.206 -0.4692 -0.5289 -0.2676
  292MOL0     C39347   4.528  11.978  -0.333 -0.0228  0.2252 -1.0101
  292MOL0     C39348   4.675  11.946  -0.331 -0.1475 -1.0777  0.5238
  292MOL0     C39349   4.735  12.014  -0.218  0.3565  0.2283 -0.5904
  292MOL0     C39350   4.798  12.075  -0.131  0.2168  0.2529 -0.3267
  292MOL0     C39351   4.173  11.582  -0.106 -0.3057  0.3552 -0.1991
  292MOL0     C39352   4.156  11.469  -0.028 -0.4979 -0.7959 -0.7850
  292MOL0     H39353   4.242  11.147   0.302  0.2055 -1.2815  4.3919
  292MOL0     H39354   4.295  10.966   0.456  0.5466  0.2295  1.0023
  292MOL0     H39355   4.484  10.818   0.526 -1.6451 -0.0781  3.1000
  292MOL0     H39356   4.337  10.784   0.595  0.7294 -1.7086  1.5668
  292MOL0     H39357   4.522  10.550   0.533 -0.0440  1.0544 -3.1481
  292MOL0     H39358   4.508  10.617   0.685  0.4390 -0.9685  1.1450
  292MOL0     H39359   4.257  10.554   0.699 -0.7059  0.8569 -0.3541
  292MOL0     H39360   4.250  10.510   0.528 -0.3696 -1.0114  0.6261
  292MOL0     H39361   4.422  10.340   0.573 -0.0801  0.6932  0.2172
  292MOL0     H39362   4.432  10.371   0.740  1.0529 -0.5633 -0.9394
  292MOL0     H39363   4.178  10.322   0.763  0.4667  0.1362  0.6760
  292MOL0     H39364   4.188  10.249   0.604 -2.5349 -1.2191  1.4059
  292MOL0     H39365   4.378  10.107   0.707 -1.2120  1.2576 -1.2001
  292MOL0     H39366   4.359  10.190   0.861 -0.8630 -2.3610  0.3714
  292MOL0     H39367   4.147  10.038   0.730 -0.4143  3.6494  0.6118
  292MOL0     H39368   4.278   9.948   0.825 -1.4928  0.0726 -0.3985
  292MOL0     H39369   4.086  10.152   0.961  0.9167  1.2491  1.1636
  292MOL0     H39370   4.236  10.090   1.021  2.3681 -0.4041 -4.8805
  292MOL0     H39371   4.252   9.804   1.020 -0.2476 -0.5864 -1.2308
  292MOL0     H39372   3.976   9.522   1.038 -0.1763 -0.1625 -0.0330
  292MOL0     H39373   4.145   9.579   1.083  0.5414  1.7855 -2.8255
  292MOL0     H39374   3.883   9.627   1.258 -0.5774 -0.6233 -2.4552
  292MOL0     H39375   4.053   9.645   1.309  0.4408  0.2077 -1.4053
  292MOL0     H39376   4.080   9.399   1.304 -0.8868 -2.5092 -0.2406
  292MOL0     H39377   3.925   9.376   1.220 -0.7219  1.0463 -1.4561
  292MOL0     H39378   3.879   9.319   1.435 -2.7522  0.5499 -2.7441
  292MOL0     H39379   3.801   9.470   1.413  0.4263 -0.1662 -1.3594
  292MOL0     H39380   4.095   9.555   1.732 -3.5925 -0.5630  1.4310
  292MOL0     H39381   4.392   9.527   1.853 -0.3959 -2.2754 -3.0085
  292MOL0     H39382   4.239   9.561   1.933 -2.3490 -0.2319 -0.7467
  292MOL0     H39383   4.338   9.421   1.982 -0.2392 -0.0074  0.5609
  292MOL0     H39384   4.484   8.813   1.822 -5.9474 -1.0612  1.2012
  292MOL0     H39385   4.640   8.721   1.964 -2.1184  0.1360 -1.9714
  292MOL0     H39386   4.577   8.834   2.368  1.5156  0.3638  0.2524
  292MOL0     H39387   4.528   8.691   2.305  2.1677 -2.9063 -1.0654
  292MOL0     H39388   4.676   8.605   2.474  3.3426  0.0502  2.2565
  292MOL0     H39389   4.769   8.596   2.333 -1.5581  1.1135 -0.9719
  292MOL0     H39390   4.857   8.696   2.554 -0.6387 -0.1308 -0.0860
  292MOL0     H39391   4.799   8.855   2.475  0.9175 -0.1342  2.9945
  292MOL0     H39392   4.988   8.647   2.370 -1.8521 -1.2094  2.4389
  292MOL0     H39393   4.946   8.783   2.275  0.8188  3.1189  0.6320
  292MOL0     H39394   5.094   8.762   2.529  0.3054 -1.5624 -0.8333
  292MOL0     H39395   5.049   8.922   2.451  1.8196  0.6923 -0.8392
  292MOL0     H39396   5.249   8.711   2.369 -1.9959 -0.1884 -0.8665
  292MOL0     H39397   5.194   8.844   2.255 -3.5516  1.2616  0.3871
  292MOL0     H39398   5.420   8.843   2.410 -0.7812 -1.7474  0.6949
  292MOL0     H39399   5.309   8.914   2.529  1.1271  2.0344  0.1077
  292MOL0     H39400   5.335   9.042   2.255 -3.9118 -2.0971  0.8644
  292MOL0     H39401   5.419   9.088   2.408  0.8775 -1.5235  2.3209
  292MOL0     H39402   4.535   9.040   2.253 -1.8732  1.1490 -1.1431
  292MOL0     H39403   4.365   9.109   2.104  1.5796  1.5074  0.1859
  292MOL0     H39404   4.213   9.088   1.631  0.1633 -0.2942 -1.8027
  292MOL0     H39405   4.068   9.228   1.479 -1.4055  1.7659 -0.2231
  292MOL0     H39406   4.403  10.717   0.118  0.0416 -0.8285 -0.1781
  292MOL0     H39407   4.385  10.897  -0.030 -2.4929  0.4633 -0.8415
  292MOL0     H39408   4.424  11.293  -0.108 -1.5914 -0.9357 -2.7637
  292MOL0     H39409   4.473  11.501  -0.220  1.9396 -0.0585  1.4708
  292MOL0     H39410   4.506  11.751  -0.103  4.1412  4.0032 -0.7184
  292MOL0     H39411   4.519  11.727  -0.273  0.6816  2.7968 -0.0893
  292MOL0     H39412   4.501  11.965  -0.118 -2.4926  1.6987 -0.0295
  292MOL0     H39413   4.347  11.959  -0.207 -0.8886 -1.5819  1.8640
  292MOL0     H39414   4.513  12.086  -0.341 -0.2097  0.1300 -2.1426
  292MOL0     H39415   4.483  11.942  -0.426 -1.1235  0.7432 -0.6915
  292MOL0     H39416   4.721  11.977  -0.425 -2.1651  2.7530  0.6118
  292MOL0     H39417   4.702  11.840  -0.330  1.0819 -0.8987 -2.7524
  292MOL0     H39418   4.842  12.136  -0.055 -0.2750  0.0738  0.1073
  292MOL0     H39419   4.096  11.659  -0.095 -0.1544  0.3675  0.8816
  292MOL0     H39420   4.063  11.483   0.027  2.2516  3.5046  3.6093
  293MOL0     O39421  10.666   9.395   4.260 -1.4294  0.6028 -0.1569
  293MOL0     C39422  10.573   9.364   4.326 -0.1672  0.5368 -0.2789
  293MOL0     O39423  10.487   9.260   4.304  0.5703 -0.4016 -0.9081
  293MOL0     C39424  10.507   9.189   4.193  0.2775 -0.2666 -0.9253
  293MOL0     C39425  10.409   9.194   4.095 -0.4536  1.0559  0.6654
  293MOL0     C39426  10.428   9.133   3.968 -0.7674  0.2343  0.5953
  293MOL0     C39427  10.544   9.050   3.950  0.8790  0.2952 -0.3531
  293MOL0     O39428  10.576   8.982   3.827  0.1451 -0.0000 -0.1757
  293MOL0     C39429  10.498   9.016   3.716  0.1157  0.5334 -0.0302
  293MOL0     C39430  10.528   8.919   3.599  0.6155  0.1832 -0.6442
  293MOL0     C39431  10.438   8.951   3.482  1.3903 -0.1356  0.0025
  293MOL0     C39432  10.488   8.877   3.357  0.1298 -0.6427 -0.2329
  293MOL0     C39433  10.396   8.900   3.237  0.1483  0.4766  0.0349
  293MOL0     C39434  10.412   9.045   3.183  0.8500  0.2783 -0.3039
  293MOL0     C39435  10.541   9.054   3.102 -0.3324  0.7164  0.5436
  293MOL0     C39436  10.559   9.186   3.033  0.5028  0.6682 -0.0946
  293MOL0     N39437  10.512   9.289   3.123  0.5108 -0.1402 -0.4794
  293MOL0     C39438  10.398   9.367   3.118 -0.3343  0.2487 -0.0234
  293MOL0     C39439  10.410   9.454   3.219  0.2709 -0.5990  1.1279
  293MOL0     C39440  10.312   9.561   3.260  0.1016 -0.7149  0.6898
  293MOL0     C39441  10.340   9.688   3.165  0.0543 -0.4880  1.4246
  293MOL0     C39442  10.472   9.768   3.197  0.5851  0.1731 -1.2882
  293MOL0     C39443  10.456   9.875   3.305  0.1414 -0.1078 -0.5797
  293MOL0     O39444  10.433   9.807   3.430  0.2234 -0.2042 -0.2266
  293MOL0     C39445  10.532   9.811   3.522 -0.4203 -0.3069 -0.5002
  293MOL0     C39446  10.552   9.684   3.584 -0.0698  0.7423  0.0374
  293MOL0     C39447  10.644   9.666   3.684 -0.3612 -0.3339  0.1250
  293MOL0     C39448  10.656   9.527   3.748  0.2608  0.4897 -0.1520
  293MOL0     C39449  10.712   9.777   3.732  0.2545 -0.7631 -0.1974
  293MOL0     C39450  10.797   9.772   3.856 -0.4669 -1.2072 -0.3794
  293MOL0     O39451  10.826   9.658   3.922  0.1538 -0.3214  0.0407
  293MOL0     C39452  10.938   9.659   4.003 -0.1934  0.8091 -0.2037
  293MOL0     C39453  10.930   9.612   4.135 -0.4484  0.2742 -0.8772
  293MOL0     C39454  11.043   9.606   4.225  0.4621  0.1937  0.8266
  293MOL0     C39455  11.167   9.633   4.183 -0.3586 -0.1009 -0.6544
  293MOL0     O39456  11.287   9.623   4.258  0.2472 -0.1250 -0.3748
  293MOL0     C39457  11.284   9.537   4.372 -0.3250  0.8163 -0.9507
  293MOL0     C39458  11.415   9.492   4.420 -0.4289 -1.1579  0.2707
  293MOL0     C39459  11.505   9.439   4.308  0.0242  0.2466  0.4143
  293MOL0     C39460  11.631   9.374   4.377 -0.2333  0.0983 -0.3698
  293MOL0     C39461  11.704   9.285   4.274 -0.2395 -0.2244 -0.3086
  293MOL0     C39462  11.851   9.319   4.285 -0.1594 -0.4030  0.0639
  293MOL0     C39463  11.920   9.242   4.181 -0.0126  0.7596  0.7002
  293MOL0     C39464  11.951   9.320   4.058 -0.5308 -0.3924 -0.5930
  293MOL0    Cl39465  12.074   9.435   4.107  0.1629  0.0666 -0.4743
  293MOL0     C39466  11.178   9.697   4.054  0.2309 -0.2070 -0.5462
  293MOL0     C39467  11.067   9.701   3.966  0.2207 -1.0351  0.0949
  293MOL0     O39468  10.845   9.876   3.883 -0.3742 -0.2267 -0.4695
  293MOL0     C39469  10.690   9.903   3.667  0.0031 -1.1537 -0.6909
  293MOL0     C39470  10.601   9.916   3.560 -0.8338 -0.6401 -0.7002
  293MOL0     N39471  10.529   9.438   3.286  1.0141 -0.8290  0.0954
  293MOL0     N39472  10.576   9.338   3.230 -0.1430  0.2407  0.7944
  293MOL0     C39473  10.626   9.029   4.060 -0.2070  0.0370  0.1114
  293MOL0     C39474  10.617   9.106   4.179  0.4665  0.3897 -0.0153
  293MOL0     C39475  10.549   9.453   4.438  0.7586 -1.2439 -0.1678
  293MOL0     C39476  10.638   9.557   4.474 -1.3775  0.2043  0.9673
  293MOL0     C39477  10.612   9.639   4.582 -0.5378 -0.2064  1.5565
  293MOL0     C39478  10.497   9.627   4.665 -0.1386  0.5837 -0.0381
  293MOL0     O39479  10.457   9.720   4.757  0.9987 -0.0734 -0.3090
  293MOL0     C39480  10.526   9.839   4.784  0.5608  0.2843  0.1849
  293MOL0     C39481  10.488   9.978   4.706  0.0185  0.3033 -0.0799
  293MOL0     C39482  10.591  10.090   4.717 -0.1075  1.0585 -0.0190
  293MOL0     C39483  10.583  10.136   4.858 -0.7482 -0.0668  0.7504
  293MOL0     C39484  10.696  10.224   4.900 -0.9909 -0.3250  0.7329
  293MOL0     C39485  10.801  10.277   4.921 -0.0106 -0.4027 -0.4383
  293MOL0     C39486  10.414   9.523   4.635  0.4467  0.2481  0.3719
  293MOL0     C39487  10.440   9.432   4.536  0.0993  0.4359  0.1169
  293MOL0     H39488  10.322   9.256   4.113 -0.0115  0.7591  4.8744
  293MOL0     H39489  10.367   9.145   3.879  0.5525 -0.7980 -0.4949
  293MOL0     H39490  10.391   8.995   3.729  0.3449 -0.1393  0.9469
  293MOL0     H39491  10.518   9.121   3.692  0.2832  0.2280 -1.2748
  293MOL0     H39492  10.634   8.912   3.571  1.2107 -1.0403  1.7048
  293MOL0     H39493  10.503   8.824   3.647  0.8771  0.7710  0.7026
  293MOL0     H39494  10.330   8.939   3.501  0.9545  3.0062  0.0247
  293MOL0     H39495  10.431   9.058   3.464 -3.8632 -0.3520 -1.0100
  293MOL0     H39496  10.593   8.899   3.336  0.6746 -2.0145  0.8711
  293MOL0     H39497  10.504   8.772   3.383  1.5807 -0.6109 -0.9164
  293MOL0     H39498  10.417   8.822   3.164  0.3191  0.2267  0.3485
  293MOL0     H39499  10.293   8.880   3.267 -0.0065  2.3925  0.9624
  293MOL0     H39500  10.321   9.064   3.124  1.5658 -1.8413 -2.2404
  293MOL0     H39501  10.426   9.117   3.263 -0.4554  1.4067 -1.0480
  293MOL0     H39502  10.620   9.023   3.171 -1.0221  0.4268  1.2055
  293MOL0     H39503  10.541   8.978   3.023 -0.4841  0.7652  0.4974
  293MOL0     H39504  10.504   9.189   2.939 -1.2335  3.2129  0.8956
  293MOL0     H39505  10.663   9.196   3.001  0.8030  1.9788  1.1962
  293MOL0     H39506  10.312   9.363   3.051 -1.1007 -1.9062  1.0197
  293MOL0     H39507  10.212   9.526   3.233  0.3031  1.6717 -4.5080
  293MOL0     H39508  10.305   9.581   3.367  0.1793  0.5954  0.4701
  293MOL0     H39509  10.252   9.753   3.160 -0.8206 -1.6867  0.3516
  293MOL0     H39510  10.356   9.644   3.066  0.7736  0.8320  0.9240
  293MOL0     H39511  10.487   9.831   3.109 -2.0556  1.9419 -0.5950
  293MOL0     H39512  10.554   9.699   3.220 -0.5896 -2.7061 -4.8156
  293MOL0     H39513  10.379   9.949   3.282  1.6211  1.1137 -1.7434
  293MOL0     H39514  10.550   9.931   3.313 -0.7887  1.2075  3.8139
  293MOL0     H39515  10.487   9.603   3.552 -1.3902  1.2591  1.3075
  293MOL0     H39516  10.606   9.535   3.845  0.6774 -3.7409  0.6191
  293MOL0     H39517  10.594   9.450   3.701  2.3765 -0.5484 -1.3692
  293MOL0     H39518  10.761   9.499   3.756  1.3848  4.2515  0.0624
  293MOL0     H39519  10.831   9.593   4.176  0.3731  0.5643  1.3741
  293MOL0     H39520  11.029   9.574   4.328  1.9986 -1.9046  0.4539
  293MOL0     H39521  11.241   9.604   4.447  0.2222  1.2002 -0.9748
  293MOL0     H39522  11.239   9.439   4.356  0.5494 -0.2604  2.5076
  293MOL0     H39523  11.461   9.584   4.459 -2.2173 -0.2997  0.4362
  293MOL0     H39524  11.399   9.421   4.502 -2.5303 -2.6751 -1.3525
  293MOL0     H39525  11.539   9.523   4.248  4.4751  1.3931  3.9318
  293MOL0     H39526  11.437   9.382   4.245 -1.7195 -0.0472  2.4388
  293MOL0     H39527  11.701   9.446   4.419  0.3674 -1.9122  2.3231
  293MOL0     H39528  11.600   9.321   4.468 -1.5020  1.4507  0.0206
  293MOL0     H39529  11.670   9.292   4.170  0.2025  1.0750 -0.3779
  293MOL0     H39530  11.676   9.183   4.302 -2.7391  0.1154 -1.2906
  293MOL0     H39531  11.859   9.426   4.265  0.4910  0.3668  3.7728
  293MOL0     H39532  11.874   9.290   4.388 -2.5556  0.6506  0.9765
  293MOL0     H39533  11.857   9.158   4.151  0.3904 -0.3027  2.6575
  293MOL0     H39534  12.010   9.203   4.228  3.0673  1.4470 -4.0138
  293MOL0     H39535  11.865   9.376   4.022 -0.6419  0.6596  1.1743
  293MOL0     H39536  11.984   9.258   3.974  1.4103 -1.3201  0.7560
  293MOL0     H39537  11.272   9.741   4.021  1.0136 -0.9881  0.5731
  293MOL0     H39538  11.075   9.731   3.862 -1.1269 -0.0150  0.2587
  293MOL0     H39539  10.735   9.994   3.705  1.3141 -2.9297  2.3912
  293MOL0     H39540  10.575  10.011   3.515  0.3655 -0.4084 -0.9429
  293MOL0     H39541  10.716   8.970   4.043  0.5475  1.6139 -1.8069
  293MOL0     H39542  10.680   9.105   4.266 -4.0896  3.2630  3.8224
  293MOL0     H39543  10.708   9.587   4.398  2.0937 -2.2331  2.9208
  293MOL0     H39544  10.675   9.728   4.583 -2.2807  1.2968 -2.2601
  293MOL0     H39545  10.515   9.850   4.892 -0.7289  2.7292 -0.1258
  293MOL0     H39546  10.634   9.824   4.771  0.1868 -1.8203 -0.7902
  293MOL0     H39547  10.392  10.016   4.743 -1.1268 -0.5706 -1.9784
  293MOL0     H39548  10.452   9.960   4.604 -2.2946 -2.0610  1.0269
  293MOL0     H39549  10.574  10.167   4.641 -0.0488 -1.5347 -2.8314
  293MOL0     H39550  10.688  10.044   4.696 -0.5750  0.7835 -1.6585
  293MOL0     H39551  10.570  10.055   4.930 -1.4970 -0.1055  0.5811
  293MOL0     H39552  10.491  10.193   4.878 -0.7896 -0.1171  0.7039
  293MOL0     H39553  10.898  10.314   4.949 -1.0377  2.8051 -0.7103
  293MOL0     H39554  10.324   9.516   4.695 -0.3948  2.2423 -0.5862
  293MOL0     H39555  10.370   9.350   4.525  2.1606 -1.3931 -0.3515
  294MOL0     O39556   9.362   5.891   6.868  0.5608  0.2058 -0.4108
  294MOL0     C39557   9.276   5.965   6.919  0.3634 -1.1305  1.4836
  294MOL0     O39558   9.211   5.942   7.043  0.1559 -0.0355  0.5806
  294MOL0     C39559   9.243   5.829   7.120 -0.9092 -0.2584  0.1927
  294MOL0     C39560   9.150   5.801   7.211 -0.6273  0.3307  0.0595
  294MOL0     C39561   9.169   5.699   7.303  0.1409  0.6774 -0.5743
  294MOL0     C39562   9.289   5.615   7.307  0.7222 -0.5987 -0.4920
  294MOL0     O39563   9.313   5.508   7.392  0.7524  0.4733 -0.3602
  294MOL0     C39564   9.305   5.535   7.531 -0.4359 -0.3216  0.1554
  294MOL0     C39565   9.178   5.495   7.603 -0.1416  0.5601 -0.1095
  294MOL0     C39566   9.155   5.344   7.586  0.3473 -0.0809 -0.0514
  294MOL0     C39567   9.019   5.301   7.649  0.1963 -0.1623 -0.1912
  294MOL0     C39568   9.012   5.149   7.654  0.5756  0.0246 -0.0813
  294MOL0     C39569   8.881   5.096   7.708  0.2009  0.8757  0.2464
  294MOL0     C39570   8.910   4.943   7.732  0.3035  0.3235  0.0598
  294MOL0     C39571   8.799   4.865   7.801 -1.1239  0.2592  0.0738
  294MOL0     N39572   8.695   4.804   7.706 -0.0632 -0.5218 -0.2081
  294MOL0     C39573   8.573   4.858   7.685 -0.2169  0.5211 -0.2079
  294MOL0     C39574   8.529   4.803   7.570  1.0649 -0.0779 -0.1265
  294MOL0     C39575   8.395   4.827   7.501  1.0651  0.2746  0.8751
  294MOL0     C39576   8.323   4.948   7.553 -0.6140  0.8043  0.2369
  294MOL0     C39577   8.184   4.961   7.495  0.5446 -0.2154 -0.0915
  294MOL0     C39578   8.091   5.059   7.564  0.2851  0.6769 -0.9708
  294MOL0     O39579   8.110   5.185   7.505  0.1338 -0.2139 -0.0611
  294MOL0     C39580   8.099   5.297   7.579  0.6290 -0.7087  0.4358
  294MOL0     C39581   8.207   5.386   7.579  0.6692  0.7595  0.1749
  294MOL0     C39582   8.194   5.513   7.636 -0.1089  0.0898  0.9205
  294MOL0     C39583   8.301   5.607   7.588 -0.7775 -0.1542 -0.0862
  294MOL0     C39584   8.084   5.549   7.708  0.4191 -0.2234  0.0785
  294MOL0     C39585   8.065   5.687   7.766  0.3189 -0.0517  0.1300
  294MOL0     O39586   7.955   5.693   7.854 -0.3918  0.2902  1.0782
  294MOL0     C39587   7.924   5.812   7.912 -0.5651  0.1039  0.4426
  294MOL0     C39588   7.820   5.887   7.870 -0.7180  0.1536 -0.6353
  294MOL0     C39589   7.791   6.006   7.925  0.6253  0.0243  0.1718
  294MOL0     C39590   7.869   6.060   8.025 -0.5880  0.9321 -0.1202
  294MOL0     O39591   7.850   6.185   8.068 -0.7992  0.3031 -0.4771
  294MOL0     C39592   7.903   6.222   8.205 -0.6983  1.1593 -0.3045
  294MOL0     C39593   7.841   6.353   8.245  0.0237 -0.0554  0.0396
  294MOL0     C39594   7.898   6.473   8.175 -0.3864 -0.4859  0.9913
  294MOL0     C39595   7.842   6.604   8.227 -0.0747 -0.1637 -0.5982
  294MOL0     C39596   7.905   6.666   8.358  0.1074  0.1084  0.1794
  294MOL0     C39597   7.830   6.802   8.399 -0.5616  0.5160 -0.6343
  294MOL0     C39598   7.867   6.857   8.538  0.8268 -0.1357 -0.2880
  294MOL0     C39599   7.823   7.007   8.544 -0.0041 -0.1032 -0.0643
  294MOL0    Cl39600   7.637   7.019   8.532 -0.1850 -0.6437 -0.2689
  294MOL0     C39601   7.973   5.974   8.076  0.6496 -0.4647 -0.6449
  294MOL0     C39602   8.010   5.851   8.019 -0.1491  0.3870 -0.4633
  294MOL0     O39603   8.137   5.783   7.748 -0.3582 -0.1528  1.0043
  294MOL0     C39604   7.990   5.445   7.741 -0.5256 -0.1590  0.0151
  294MOL0     C39605   7.998   5.323   7.672 -0.2660  0.4343 -0.5668
  294MOL0     N39606   8.626   4.716   7.520 -0.1696 -0.5525  0.2322
  294MOL0     N39607   8.719   4.710   7.611  0.5290  0.0161  0.3525
  294MOL0     C39608   9.385   5.645   7.206  0.7676 -0.2759 -0.5125
  294MOL0     C39609   9.363   5.755   7.114 -0.5050  0.4362  0.2409
  294MOL0     C39610   9.250   6.090   6.845 -0.1728  0.3658  1.0584
  294MOL0     C39611   9.209   6.206   6.918 -0.4281 -0.3049  0.4857
  294MOL0     C39612   9.187   6.330   6.849  0.0138 -1.0055  0.0458
  294MOL0     C39613   9.192   6.333   6.706  0.8923  0.4036  0.3739
  294MOL0     O39614   9.177   6.438   6.617  0.3421 -0.6369 -0.0110
  294MOL0     C39615   9.150   6.572   6.657  0.6091  0.2792  0.5527
  294MOL0     C39616   9.073   6.649   6.553  0.2969  0.5050  0.9061
  294MOL0     C39617   8.920   6.608   6.526  0.0170  0.5729 -0.8091
  294MOL0     C39618   8.857   6.685   6.413 -0.2010  0.0146  0.6384
  294MOL0     C39619   8.877   6.834   6.409  0.3131  0.4650  0.1879
  294MOL0     C39620   8.914   6.941   6.410 -0.5107 -1.0950 -0.3672
  294MOL0     C39621   9.226   6.216   6.636 -0.4550 -0.3905  0.6245
  294MOL0     C39622   9.256   6.100   6.706  0.4249 -0.0295  0.5659
  294MOL0     H39623   9.052   5.847   7.218 -3.4076 -4.8194 -0.5466
  294MOL0     H39624   9.087   5.666   7.366 -1.2505 -0.4721 -2.8536
  294MOL0     H39625   9.380   5.478   7.587 -0.2745 -1.1870 -0.8820
  294MOL0     H39626   9.327   5.640   7.551  2.5389 -1.0251  1.2229
  294MOL0     H39627   9.190   5.512   7.710 -1.6412 -1.8760  0.5147
  294MOL0     H39628   9.094   5.560   7.576 -4.2088 -0.7925  6.7966
  294MOL0     H39629   9.172   5.305   7.485 -1.7639 -1.9509  0.2394
  294MOL0     H39630   9.228   5.296   7.652  0.5550 -2.6124 -1.9561
  294MOL0     H39631   9.007   5.353   7.745 -2.5284 -2.8136  1.0627
  294MOL0     H39632   8.944   5.349   7.586  2.1875  2.2430 -0.9168
  294MOL0     H39633   9.032   5.110   7.554 -0.1895  1.5539 -0.8802
  294MOL0     H39634   9.094   5.119   7.720 -0.1443 -0.1249  0.7618
  294MOL0     H39635   8.857   5.148   7.801 -0.4565  0.5138  0.2840
  294MOL0     H39636   8.802   5.118   7.635  0.0380 -2.2014 -0.6174
  294MOL0     H39637   8.931   4.887   7.641  0.5294 -1.7342  1.3076
  294MOL0     H39638   8.994   4.927   7.801 -0.5523  1.5195  1.4422
  294MOL0     H39639   8.767   4.924   7.888 -2.9776  1.0083 -1.0643
  294MOL0     H39640   8.844   4.776   7.847  0.3940  0.7094 -0.4639
  294MOL0     H39641   8.533   4.942   7.740 -0.2590 -0.9440  2.1434
  294MOL0     H39642   8.416   4.839   7.394 -1.3679  0.1401  0.3264
  294MOL0     H39643   8.332   4.739   7.512  2.2656 -1.0156 -1.6926
  294MOL0     H39644   8.402   5.020   7.528  2.0776 -2.6040 -2.0318
  294MOL0     H39645   8.317   4.930   7.661  1.3305 -1.6998  0.0090
  294MOL0     H39646   8.145   4.859   7.507 -0.4403  0.2643  0.9243
  294MOL0     H39647   8.178   4.969   7.386 -3.8625  0.7255  0.0554
  294MOL0     H39648   8.098   5.066   7.673 -1.8133  2.4252 -0.8782
  294MOL0     H39649   7.987   5.031   7.547 -0.4068  2.5893 -0.2420
  294MOL0     H39650   8.283   5.358   7.506  0.3457  0.9666 -0.2494
  294MOL0     H39651   8.259   5.678   7.517  0.0045  0.9659  0.5316
  294MOL0     H39652   8.337   5.660   7.677 -0.4997  0.4413 -0.5525
  294MOL0     H39653   8.380   5.552   7.538 -0.9893  1.0734 -1.8657
  294MOL0     H39654   7.751   5.871   7.788 -1.0040  1.2948 -0.6329
  294MOL0     H39655   7.714   6.058   7.871 -2.2178 -2.4452  1.5309
  294MOL0     H39656   7.868   6.148   8.277  1.0368  1.2577  0.6928
  294MOL0     H39657   8.011   6.243   8.210 -0.0338 -1.8230 -0.0090
  294MOL0     H39658   7.734   6.355   8.221 -0.3349  1.6825  1.5355
  294MOL0     H39659   7.858   6.357   8.353  3.6568  0.7830 -0.4239
  294MOL0     H39660   7.876   6.459   8.068  1.9399  1.2930  0.1898
  294MOL0     H39661   8.006   6.487   8.181 -0.1189 -1.6448 -0.4119
  294MOL0     H39662   7.841   6.681   8.149  0.4806 -0.4944 -0.9387
  294MOL0     H39663   7.739   6.583   8.258  0.1124 -2.0662 -1.1341
  294MOL0     H39664   8.012   6.663   8.382 -0.1805 -0.5784  1.4606
  294MOL0     H39665   7.861   6.603   8.436 -3.2005  1.4636 -0.4228
  294MOL0     H39666   7.852   6.881   8.327  0.0966  0.7851 -0.1471
  294MOL0     H39667   7.722   6.781   8.398 -1.2554  3.5822  0.0432
  294MOL0     H39668   7.976   6.865   8.544  0.7890  1.4437 -1.1142
  294MOL0     H39669   7.823   6.798   8.619  0.4750 -2.9918 -2.4123
  294MOL0     H39670   7.870   7.072   8.470  0.8612 -0.6176  0.0181
  294MOL0     H39671   7.841   7.044   8.645 -0.2439  0.4373 -0.2145
  294MOL0     H39672   8.028   6.007   8.164 -0.4059 -1.7409  0.5483
  294MOL0     H39673   8.092   5.786   8.050 -0.7083  0.2081  0.6744
  294MOL0     H39674   7.902   5.468   7.801  0.1931  0.4704  0.8509
  294MOL0     H39675   7.919   5.252   7.692  0.5520 -0.4380 -0.3336
  294MOL0     H39676   9.482   5.596   7.198  0.8956 -0.9124  2.9472
  294MOL0     H39677   9.446   5.788   7.052 -0.4509  0.1971  0.1823
  294MOL0     H39678   9.200   6.212   7.026  0.0524  1.6251  0.4653
  294MOL0     H39679   9.174   6.418   6.912 -0.0162 -1.3186  0.4855
  294MOL0     H39680   9.099   6.587   6.752  0.9312 -1.9203  1.1222
  294MOL0     H39681   9.250   6.615   6.668  0.8033 -0.4944  2.1442
  294MOL0     H39682   9.117   6.624   6.456 -2.1608  1.9281 -0.6599
  294MOL0     H39683   9.095   6.755   6.573 -1.7078  0.6538  2.6505
  294MOL0     H39684   8.865   6.616   6.620  1.3323 -0.5140  0.0938
  294MOL0     H39685   8.914   6.505   6.489  0.1500 -1.4260  4.0256
  294MOL0     H39686   8.750   6.666   6.411 -0.1094 -0.8003 -2.6727
  294MOL0     H39687   8.899   6.642   6.321 -1.5185  1.1036 -0.5100
  294MOL0     H39688   8.940   7.045   6.419  1.0610 -1.6322  2.8486
  294MOL0     H39689   9.214   6.212   6.528 -1.4458 -0.5029  0.7325
  294MOL0     H39690   9.287   6.010   6.655 -1.3683 -0.6365  0.4680
  295MOL0     O39691   1.764   3.536   9.289 -0.7437  0.0033 -0.4977
  295MOL0     C39692   1.665   3.477   9.252 -0.0416 -0.1080  1.1024
  295MOL0     O39693   1.547   3.471   9.316  0.4710 -0.8525 -0.9861
  295MOL0     C39694   1.527   3.507   9.445 -0.0771 -0.6334  0.1332
  295MOL0     C39695   1.623   3.504   9.544  0.5766 -0.4744  0.1613
  295MOL0     C39696   1.606   3.549   9.669  1.3715 -0.9443 -0.3457
  295MOL0     C39697   1.473   3.601   9.708  0.0329  0.5989 -0.0745
  295MOL0     O39698   1.454   3.660   9.826 -0.2996  0.5366 -0.6296
  295MOL0     C39699   1.544   3.769   9.831  0.0650 -0.4379  0.3892
  295MOL0     C39700   1.513   3.859   9.934 -0.6237  0.2485  0.1790
  295MOL0     C39701   1.537   3.808  10.076 -0.3315 -0.7017  1.3900
  295MOL0     C39702   1.676   3.814  10.133 -0.5375 -0.3956  0.5430
  295MOL0     C39703   1.706   3.967  10.189 -0.1210 -0.8707 -0.1455
  295MOL0     C39704   1.843   4.001  10.259 -0.9634  0.3811 -0.2014
  295MOL0     C39705   1.882   3.897  10.361 -0.2214  0.5430 -0.3240
  295MOL0     C39706   1.965   3.948  10.477 -0.5125 -0.3800  0.1547
  295MOL0     N39707   2.107   3.963  10.449  1.3682 -0.0595 -0.9254
  295MOL0     C39708   2.192   4.047  10.517  0.0265  0.7219  0.3612
  295MOL0     C39709   2.310   4.040  10.462 -0.5486  0.4487 -0.5167
  295MOL0     C39710   2.436   4.114  10.503 -0.2351 -1.2570  0.1142
  295MOL0     C39711   2.458   4.107  10.654 -0.0555  0.1286  0.1375
  295MOL0     C39712   2.605   4.141  10.707  0.4881 -0.4279  0.4125
  295MOL0     C39713   2.613   4.132  10.863 -0.9066  0.0703 -0.1522
  295MOL0     O39714   2.577   3.998  10.906  0.4259  0.6452  0.0898
  295MOL0     C39715   2.531   3.985  11.036  0.2822 -0.2861 -0.1848
  295MOL0     C39716   2.443   3.883  11.072 -0.3024 -0.9856 -0.5122
  295MOL0     C39717   2.374   3.883  11.198 -0.3706  0.4628  0.1937
  295MOL0     C39718   2.278   3.771  11.229  0.0813 -0.1602  0.2238
  295MOL0     C39719   2.415   3.976  11.297 -0.6359 -1.2430  0.1143
  295MOL0     C39720   2.372   3.972  11.440 -0.7320  0.1923  0.3850
  295MOL0     O39721   2.231   3.986  11.468 -0.0363  0.1467  1.0352
  295MOL0     C39722   2.193   4.002  11.601  0.0495  1.1448  0.9016
  295MOL0     C39723   2.055   4.041  11.612 -1.3274  0.1646 -0.6767
  295MOL0     C39724   2.002   4.045  11.738 -0.5699  0.4591  0.0948
  295MOL0     C39725   2.064   4.003  11.852 -0.4467  0.7058  0.0374
  295MOL0     O39726   1.996   3.982  11.972 -0.0488  0.0749 -0.4514
  295MOL0     C39727   1.860   3.946  11.974 -0.3304 -0.6032 -0.3741
  295MOL0     C39728   1.833   3.926  12.127 -0.2842  0.5826  0.2875
  295MOL0     C39729   1.777   3.795  12.166 -0.0268  0.8236 -0.6778
  295MOL0     C39730   1.890   3.701  12.223 -0.7776 -0.4693  0.0455
  295MOL0     C39731   1.840   3.555  12.228  0.2017  0.5977  0.2279
  295MOL0     C39732   1.958   3.472  12.284 -0.1928  0.1455  0.7593
  295MOL0     C39733   1.933   3.319  12.290 -0.9534  0.1708 -0.5262
  295MOL0     C39734   1.886   3.258  12.152 -0.6074 -0.5548  0.5350
  295MOL0    Cl39735   2.027   3.262  12.047  0.1966  0.5112 -0.0598
  295MOL0     C39736   2.195   3.959  11.841 -0.1463  0.6025  0.3686
  295MOL0     C39737   2.259   3.953  11.714  0.4768 -0.5589 -0.2046
  295MOL0     O39738   2.468   3.967  11.516  0.8476 -0.5357 -0.1007
  295MOL0     C39739   2.509   4.076  11.257 -0.2017  0.1596 -0.1981
  295MOL0     C39740   2.573   4.081  11.136  0.9693 -0.3649  0.4460
  295MOL0     N39741   2.305   3.952  10.365  0.1674  0.1967 -0.6603
  295MOL0     N39742   2.185   3.913  10.348 -0.1131 -0.2815  0.6519
  295MOL0     C39743   1.371   3.602   9.608  0.1424  0.3144 -0.1255
  295MOL0     C39744   1.403   3.557   9.477  0.2016 -0.2366 -0.1387
  295MOL0     C39745   1.676   3.400   9.131  0.4782  0.2705  0.3525
  295MOL0     C39746   1.560   3.348   9.067  0.0008 -0.3151 -0.2448
  295MOL0     C39747   1.554   3.265   8.955  0.4169 -0.4515 -0.5243
  295MOL0     C39748   1.675   3.250   8.883 -0.4828  0.3137  1.4247
  295MOL0     O39749   1.664   3.176   8.770  0.6387  0.9451  0.2586
  295MOL0     C39750   1.772   3.175   8.681 -0.8889 -0.0002  0.2244
  295MOL0     C39751   1.728   3.126   8.550  0.3531 -0.5603  0.2218
  295MOL0     C39752   1.621   3.012   8.530 -0.3639  0.5405  0.3178
  295MOL0     C39753   1.479   3.064   8.561  0.9706  0.2604  0.2402
  295MOL0     C39754   1.383   2.963   8.514 -0.0468  0.0886  0.2885
  295MOL0     C39755   1.297   2.890   8.478 -0.9327 -0.0131  0.0283
  295MOL0     C39756   1.793   3.311   8.939  0.2758  0.0526  0.5087
  295MOL0     C39757   1.792   3.387   9.059 -0.5468 -0.7745  0.2909
  295MOL0     H39758   1.722   3.471   9.514  1.3729  1.5752  0.3672
  295MOL0     H39759   1.678   3.546   9.750 -0.1177  0.8954  1.1637
  295MOL0     H39760   1.647   3.733   9.837 -0.5884 -2.6144 -0.3541
  295MOL0     H39761   1.516   3.816   9.736 -0.2688 -3.1251 -0.9318
  295MOL0     H39762   1.555   3.957   9.908  0.5278 -0.7490 -1.9604
  295MOL0     H39763   1.405   3.875   9.933 -0.6436  0.1578  0.6368
  295MOL0     H39764   1.473   3.858  10.150 -1.0499  0.7868 -0.1738
  295MOL0     H39765   1.506   3.703  10.084  1.5684 -1.4974 -0.7919
  295MOL0     H39766   1.659   3.747  10.218 -2.4739 -2.6009 -1.4276
  295MOL0     H39767   1.752   3.769  10.068  0.9657  0.9881  1.3069
  295MOL0     H39768   1.683   4.027  10.100  0.0854  2.2316  1.7529
  295MOL0     H39769   1.625   3.997  10.257  2.6660  1.0314  2.5979
  295MOL0     H39770   1.926   4.008  10.188  1.4186 -1.3165  2.2305
  295MOL0     H39771   1.816   4.098  10.302  2.1875  0.7289  1.3151
  295MOL0     H39772   1.793   3.865  10.416 -0.8535  1.4793 -0.7803
  295MOL0     H39773   1.927   3.806  10.322 -0.0659  0.7316 -0.5868
  295MOL0     H39774   1.964   3.885  10.566  2.3746  0.4993  0.9159
  295MOL0     H39775   1.923   4.047  10.499  3.0991  1.5843 -0.9246
  295MOL0     H39776   2.166   4.096  10.610  1.9162 -2.9910  3.1490
  295MOL0     H39777   2.519   4.067  10.448 -0.9358 -2.7175  0.2825
  295MOL0     H39778   2.419   4.219  10.477 -2.4537 -1.4086  0.8168
  295MOL0     H39779   2.444   4.004  10.689  0.2081  0.2076  0.4814
  295MOL0     H39780   2.386   4.176  10.701 -0.0034 -0.2359  0.7716
  295MOL0     H39781   2.626   4.246  10.683  0.3861 -0.3493  0.6647
  295MOL0     H39782   2.678   4.074  10.662  0.6530  0.2995 -0.4272
  295MOL0     H39783   2.540   4.200  10.907 -2.2396  0.4082 -2.7337
  295MOL0     H39784   2.714   4.155  10.898 -2.1617  0.8331  3.4365
  295MOL0     H39785   2.415   3.824  10.986  2.7471  0.7159 -2.8775
  295MOL0     H39786   2.187   3.786  11.171  1.2136  0.5558 -1.4610
  295MOL0     H39787   2.329   3.685  11.185  0.0959  0.5651 -1.2473
  295MOL0     H39788   2.256   3.757  11.335  1.0188  0.6451  0.5457
  295MOL0     H39789   2.018   4.064  11.513  0.9471  0.7353 -1.4500
  295MOL0     H39790   1.907   4.095  11.749  0.8138  2.8849  2.2059
  295MOL0     H39791   1.788   4.018  11.935  2.3027  0.8548 -2.9297
  295MOL0     H39792   1.856   3.853  11.916 -2.3429 -0.3427 -0.7099
  295MOL0     H39793   1.932   3.924  12.174 -1.1572 -1.3370  2.2106
  295MOL0     H39794   1.778   4.009  12.174 -0.3639  0.3146  0.6770
  295MOL0     H39795   1.729   3.749  12.079  0.2944  1.6440 -1.3055
  295MOL0     H39796   1.695   3.807  12.237  1.7464  1.2339  1.3867
  295MOL0     H39797   1.974   3.700  12.153 -0.6968  1.0376  0.0922
  295MOL0     H39798   1.929   3.745  12.315  1.1212 -0.3193 -0.7868
  295MOL0     H39799   1.801   3.521  12.132 -0.4374 -0.6483  0.9083
  295MOL0     H39800   1.748   3.544  12.286 -0.3378  1.7508 -0.3617
  295MOL0     H39801   2.040   3.502  12.218 -1.8329  3.1078 -0.0841
  295MOL0     H39802   1.983   3.503  12.386 -1.3566  0.3270  1.0003
  295MOL0     H39803   1.861   3.305  12.371 -1.1289 -0.7735 -0.8301
  295MOL0     H39804   2.027   3.270  12.317  0.5358  3.0522 -0.1219
  295MOL0     H39805   1.801   3.315  12.113 -0.4585 -0.1888  0.7405
  295MOL0     H39806   1.855   3.154  12.166  0.3217 -0.7670  1.0698
  295MOL0     H39807   2.241   3.908  11.926  2.4706 -1.4435 -2.0814
  295MOL0     H39808   2.355   3.904  11.715  0.2310 -1.1114  1.9499
  295MOL0     H39809   2.546   4.138  11.338  0.6261  0.2889 -0.6607
  295MOL0     H39810   2.631   4.168  11.107  1.4693 -0.0855  2.2161
  295MOL0     H39811   1.271   3.637   9.629  0.4952  2.8703 -2.0859
  295MOL0     H39812   1.322   3.566   9.405  0.9121  2.2630 -0.7180
  295MOL0     H39813   1.470   3.358   9.126  1.9263  0.7393  2.7357
  295MOL0     H39814   1.459   3.224   8.924 -0.6815  1.1874  0.5071
  295MOL0     H39815   1.816   3.275   8.681  1.6237 -0.9595  2.8524
  295MOL0     H39816   1.854   3.116   8.724 -1.3487  0.2615  1.4994
  295MOL0     H39817   1.818   3.117   8.489 -1.2401  1.3368 -2.6321
  295MOL0     H39818   1.675   3.205   8.495  0.9957 -0.1671  0.1612
  295MOL0     H39819   1.638   2.925   8.594 -2.0512  0.1980  0.3564
  295MOL0     H39820   1.626   2.982   8.425 -1.4125  1.1273  0.0891
  295MOL0     H39821   1.459   3.158   8.508  1.3411 -2.5463 -5.7418
  295MOL0     H39822   1.460   3.070   8.668 -0.5334 -1.0176  0.0745
  295MOL0     H39823   1.229   2.812   8.449 -0.6773 -0.2560  0.0798
  295MOL0     H39824   1.891   3.311   8.892 -0.6848  1.1459 -1.6930
  295MOL0     H39825   1.883   3.422   9.105  1.0060 -3.5675 -0.4053
  296MOL0     O39826  10.643   0.567  10.972  0.3023  0.4080  0.5659
  296MOL0     C39827  10.656   0.480  11.059  1.2719 -0.1396 -0.0600
  296MOL0     O39828  10.581   0.364  11.065  0.5380  0.5051  0.8563
  296MOL0     C39829  10.461   0.356  10.990  0.0712  0.5976 -0.4975
  296MOL0     C39830  10.349   0.310  11.059  1.0896  0.6449 -0.5559
  296MOL0     C39831  10.236   0.283  10.987 -0.2044 -0.4527 -0.7731
  296MOL0     C39832  10.223   0.295  10.848  0.5344  0.6509 -0.7432
  296MOL0     O39833  10.092   0.280  10.796 -0.6825  0.1511  0.1029
  296MOL0     C39834  10.066   0.263  10.654 -0.5008  0.9435  0.7128
  296MOL0     C39835   9.921   0.227  10.627  0.5719  0.0440  0.3754
  296MOL0     C39836   9.889   0.294  10.488 -0.1772  0.3922 -0.4818
  296MOL0     C39837   9.760   0.254  10.432 -0.7928 -0.1481 -0.5587
  296MOL0     C39838   9.742   0.308  10.287 -1.1506 -0.2815  0.6608
  296MOL0     C39839   9.609   0.271  10.230  0.0536 -0.5074 -0.4100
  296MOL0     C39840   9.605   0.309  10.082 -0.0621 -0.0166  0.3699
  296MOL0     C39841   9.570   0.466  10.070 -0.1216  1.4449 -0.8057
  296MOL0     N39842   9.589   0.517   9.941  0.8510  0.3739 -0.8355
  296MOL0     C39843   9.708   0.553   9.892  0.6964  0.3830 -0.1146
  296MOL0     C39844   9.686   0.616   9.779  0.9768  0.8791 -0.5270
  296MOL0     C39845   9.798   0.682   9.704 -0.0665 -0.2963 -0.1576
  296MOL0     C39846   9.854   0.817   9.743 -1.0792  0.0975 -0.9916
  296MOL0     C39847   9.754   0.925   9.731 -0.5204 -0.2650  1.3946
  296MOL0     C39848   9.647   0.940   9.843 -0.0766  0.7507 -0.3061
  296MOL0     O39849   9.715   0.927   9.967  0.0025  0.0098 -0.4109
  296MOL0     C39850   9.657   0.868  10.073 -0.0761  0.0244 -0.3233
  296MOL0     C39851   9.733   0.828  10.189 -0.9336 -0.1804 -0.3189
  296MOL0     C39852   9.677   0.781  10.311 -0.1108  0.0581 -0.0152
  296MOL0     C39853   9.769   0.767  10.424 -0.1711  0.1422 -0.6175
  296MOL0     C39854   9.537   0.758  10.310  1.0984 -0.2063 -1.3023
  296MOL0     C39855   9.460   0.729  10.441  0.1889  0.4406 -0.2885
  296MOL0     O39856   9.344   0.793  10.471 -0.2586  0.3572 -0.3903
  296MOL0     C39857   9.316   0.833  10.603 -0.1501 -0.4971  0.9366
  296MOL0     C39858   9.413   0.842  10.702  0.2082  1.3327 -0.2516
  296MOL0     C39859   9.369   0.868  10.831 -0.6017 -0.7576 -0.1503
  296MOL0     C39860   9.238   0.896  10.870 -0.5339 -0.6592  0.6903
  296MOL0     O39861   9.191   0.916  10.996 -0.2059 -0.2311  0.1090
  296MOL0     C39862   9.274   0.879  11.113  0.2456  0.0952  0.2120
  296MOL0     C39863   9.349   0.988  11.181 -0.1210  0.8432 -0.5919
  296MOL0     C39864   9.262   1.092  11.250 -0.7231  0.0509 -0.5004
  296MOL0     C39865   9.339   1.226  11.259  0.5434  0.7487 -0.2258
  296MOL0     C39866   9.335   1.308  11.130  0.4673  0.8277  0.2135
  296MOL0     C39867   9.212   1.402  11.126  0.3435 -0.7781  0.2132
  296MOL0     C39868   9.217   1.469  10.991 -0.0991  0.2601  0.1435
  296MOL0     C39869   9.343   1.547  10.949 -0.1525  0.0075  0.3053
  296MOL0    Cl39870   9.315   1.622  10.784 -0.1560 -0.0067 -0.1511
  296MOL0     C39871   9.146   0.900  10.760 -0.3478 -0.2730 -0.2515
  296MOL0     C39872   9.183   0.862  10.631  0.0978  0.1713  0.0773
  296MOL0     O39873   9.493   0.629  10.500 -0.3675 -0.2037 -0.0530
  296MOL0     C39874   9.458   0.787  10.198  0.6022  0.1135  0.2022
  296MOL0     C39875   9.517   0.840  10.082 -0.0994  0.1257  0.5083
  296MOL0     N39876   9.545   0.604   9.760  0.5319 -1.4135 -0.0926
  296MOL0     N39877   9.488   0.538   9.856  0.2950 -1.3619  0.8184
  296MOL0     C39878  10.333   0.347  10.780  0.4943  0.0599  0.0730
  296MOL0     C39879  10.447   0.384  10.853  0.2503 -0.6998  0.0367
  296MOL0     C39880  10.775   0.474  11.144  0.3534 -0.0732 -0.5374
  296MOL0     C39881  10.802   0.366  11.223 -0.3927 -0.0360  0.1336
  296MOL0     C39882  10.925   0.347  11.285 -1.0469  0.7641  0.2765
  296MOL0     C39883  11.029   0.439  11.246  0.7044 -0.0251 -0.4137
  296MOL0     O39884  11.156   0.409  11.284 -0.1024 -0.3674 -0.4998
  296MOL0     C39885  11.263   0.506  11.267  0.2705  0.4601  1.1213
  296MOL0     C39886  11.391   0.453  11.333  0.4053 -0.8697 -0.6661
  296MOL0     C39887  11.428   0.309  11.294  0.0439  1.1283 -0.2669
  296MOL0     C39888  11.496   0.277  11.158  0.2897 -0.4236 -0.0501
  296MOL0     C39889  11.582   0.391  11.119  0.2961  0.5231 -0.0773
  296MOL0     C39890  11.649   0.487  11.089 -0.3613  0.3776 -0.0140
  296MOL0     C39891  11.006   0.563  11.180 -0.9585  1.1032 -0.2180
  296MOL0     C39892  10.873   0.586  11.134 -0.2597  0.0761  0.0380
  296MOL0     H39893  10.366   0.291  11.164  0.2944  0.5019 -0.4469
  296MOL0     H39894  10.161   0.230  11.044  0.0926 -0.2357 -0.1598
  296MOL0     H39895  10.102   0.349  10.596  2.2708  0.1095  1.0582
  296MOL0     H39896  10.127   0.182  10.614 -2.5530  0.0062 -0.6824
  296MOL0     H39897   9.903   0.119  10.619  1.3367 -0.1752  1.3850
  296MOL0     H39898   9.859   0.272  10.705  0.9381  0.8522  0.2075
  296MOL0     H39899   9.896   0.402  10.503 -0.3189  0.6129 -1.8917
  296MOL0     H39900   9.965   0.294  10.409  0.0936  3.3375 -0.3462
  296MOL0     H39901   9.744   0.146  10.440 -1.2448  0.0729  2.4713
  296MOL0     H39902   9.681   0.297  10.495  1.3760  1.0140  1.5010
  296MOL0     H39903   9.754   0.417  10.292  1.7126 -0.2755 -2.7706
  296MOL0     H39904   9.827   0.268  10.233 -0.3652  1.5253  0.4924
  296MOL0     H39905   9.598   0.162  10.231  0.4309 -0.5961 -2.3329
  296MOL0     H39906   9.517   0.304  10.280 -0.6195 -0.1031 -1.8802
  296MOL0     H39907   9.707   0.301  10.043  0.5147  2.0157  1.3219
  296MOL0     H39908   9.538   0.246  10.023 -0.7401 -0.8014  1.8915
  296MOL0     H39909   9.642   0.516  10.135  0.7152 -0.6740 -0.0190
  296MOL0     H39910   9.470   0.482  10.111  0.2341  1.8283 -0.0731
  296MOL0     H39911   9.806   0.538   9.937  0.3583 -0.4232  0.3746
  296MOL0     H39912   9.876   0.605   9.695 -0.7543 -0.9133 -1.1283
  296MOL0     H39913   9.760   0.669   9.602  0.5614 -2.2046 -0.1946
  296MOL0     H39914   9.937   0.844   9.678 -0.6717  0.9491 -0.1325
  296MOL0     H39915   9.896   0.805   9.842 -0.4742 -2.3459 -1.4834
  296MOL0     H39916   9.704   0.924   9.634  1.3916 -1.2669  0.3750
  296MOL0     H39917   9.813   1.016   9.737 -1.8756  0.9831 -1.9108
  296MOL0     H39918   9.577   0.857   9.829  1.4863 -0.4072 -1.6898
  296MOL0     H39919   9.587   1.031   9.843 -0.0157  0.8197  1.5390
  296MOL0     H39920   9.839   0.850  10.188 -1.0771  0.6957  0.9225
  296MOL0     H39921   9.872   0.763  10.387 -0.7637 -0.7434 -2.2583
  296MOL0     H39922   9.767   0.854  10.491  2.3151 -0.4301  0.2967
  296MOL0     H39923   9.766   0.671  10.475  5.8399 -0.5303 -0.7696
  296MOL0     H39924   9.513   0.813  10.671 -0.5331 -0.4651 -1.1315
  296MOL0     H39925   9.447   0.885  10.904 -1.9025  0.0743  1.0920
  296MOL0     H39926   9.208   0.834  11.188 -0.1238 -1.7543 -1.1267
  296MOL0     H39927   9.341   0.796  11.089 -1.0045 -0.9663  0.2757
  296MOL0     H39928   9.399   0.937  11.264 -1.6415 -0.7382 -0.5982
  296MOL0     H39929   9.418   1.041  11.115 -1.4829  0.2482 -2.5770
  296MOL0     H39930   9.257   1.058  11.354 -2.3376 -2.7342 -1.3917
  296MOL0     H39931   9.163   1.102  11.203 -0.2540  2.1144 -1.1747
  296MOL0     H39932   9.296   1.275  11.347 -1.1494 -2.0411  0.6470
  296MOL0     H39933   9.445   1.215  11.283  0.9045  3.3599 -0.3411
  296MOL0     H39934   9.350   1.250  11.039  0.6307 -1.5248  1.6565
  296MOL0     H39935   9.423   1.370  11.146  1.4663 -1.4496  6.5444
  296MOL0     H39936   9.130   1.332  11.147  0.0491  0.4030  3.6795
  296MOL0     H39937   9.217   1.469  11.212  1.1524 -2.1888  1.3113
  296MOL0     H39938   9.129   1.532  10.974  0.0636 -0.1792 -2.9304
  296MOL0     H39939   9.206   1.388  10.918 -2.7714 -0.6885  1.4826
  296MOL0     H39940   9.435   1.488  10.950  0.4938  0.7210 -3.4541
  296MOL0     H39941   9.346   1.624  11.027  3.8290  1.0468 -0.6159
  296MOL0     H39942   9.047   0.932  10.792 -0.7556  0.6385 -2.2759
  296MOL0     H39943   9.097   0.849  10.565 -0.0895 -1.3487  0.5800
  296MOL0     H39944   9.356   0.750  10.201  1.6947 -3.4474 -1.2500
  296MOL0     H39945   9.454   0.854   9.995 -1.3800 -0.9273  1.2201
  296MOL0     H39946  10.326   0.371  10.674 -2.0863 -0.1415  0.1507
  296MOL0     H39947  10.539   0.423  10.810  1.0693  0.1415  2.4240
  296MOL0     H39948  10.737   0.279  11.219 -1.5705  0.8596 -1.4926
  296MOL0     H39949  10.948   0.258  11.342  0.3434  2.5785  2.7727
  296MOL0     H39950  11.268   0.513  11.158 -0.9707 -2.2612  0.8293
  296MOL0     H39951  11.241   0.601  11.318  1.3574 -0.5139  3.5454
  296MOL0     H39952  11.378   0.462  11.441  1.6353  0.9063 -0.6242
  296MOL0     H39953  11.470   0.528  11.318 -3.3038  4.3526  2.3816
  296MOL0     H39954  11.346   0.236  11.287  0.2104  1.1168 -2.5856
  296MOL0     H39955  11.494   0.280  11.376  1.2609 -0.0107 -1.5937
  296MOL0     H39956  11.421   0.261  11.080 -1.8234 -2.0054  2.1405
  296MOL0     H39957  11.567   0.195  11.172 -0.6788 -1.1986  0.4947
  296MOL0     H39958  11.735   0.550  11.088 -0.0407 -0.0489  0.0983
  296MOL0     H39959  11.084   0.633  11.151 -0.5023 -0.1100 -2.0623
  296MOL0     H39960  10.857   0.674  11.073  0.3764  1.7984  2.2237
  297MOL0     O39961   4.468   5.394   1.974  0.4297  0.4583 -0.5952
  297MOL0     C39962   4.390   5.384   1.880 -0.2669  0.1756  0.1369
  297MOL0     O39963   4.271   5.317   1.876 -0.4558  0.0821  0.1308
  297MOL0     C39964   4.208   5.271   1.990  0.0413 -0.4144  0.0875
  297MOL0     C39965   4.108   5.178   1.969  0.0914 -0.1540 -0.9337
  297MOL0     C39966   4.042   5.126   2.079 -0.5057  0.0013 -0.1966
  297MOL0     C39967   4.065   5.162   2.216 -0.0946 -0.3512  0.2162
  297MOL0     O39968   3.993   5.095   2.311  0.4179  0.5386  0.1333
  297MOL0     C39969   4.077   5.042   2.422 -0.2180  0.9140 -0.1403
  297MOL0     C39970   4.052   5.123   2.546  0.0826 -0.2672  0.2135
  297MOL0     C39971   3.914   5.120   2.613 -0.3579 -0.1285 -0.5942
  297MOL0     C39972   3.919   5.191   2.751  0.1667  0.6100 -0.3749
  297MOL0     C39973   3.777   5.213   2.804  0.1679 -0.1565 -0.0787
  297MOL0     C39974   3.711   5.083   2.857  0.2110 -0.4583  0.0472
  297MOL0     C39975   3.780   5.022   2.980 -1.1988  0.2656 -0.0353
  297MOL0     C39976   3.851   5.123   3.076  0.7960  0.3381 -0.2723
  297MOL0     N39977   3.925   5.050   3.179 -0.1602 -0.1455 -0.4506
  297MOL0     C39978   3.889   5.048   3.311 -0.9947  0.1664  0.1014
  297MOL0     C39979   3.983   4.962   3.362  0.3707  0.5413 -0.5407
  297MOL0     C39980   4.008   4.911   3.504  0.9657  0.7166 -0.0011
  297MOL0     C39981   4.062   5.009   3.609  0.0210 -0.3381  0.3253
  297MOL0     C39982   4.215   5.010   3.610 -0.5549  0.8093  0.5601
  297MOL0     C39983   4.274   5.123   3.689 -1.0923  0.6395  0.3519
  297MOL0     O39984   4.252   5.098   3.823  0.1582 -0.4223  0.3112
  297MOL0     C39985   4.311   5.176   3.926  0.7186  0.3762 -0.3658
  297MOL0     C39986   4.298   5.128   4.052 -1.0847 -0.3471  0.7329
  297MOL0     C39987   4.355   5.178   4.164  0.7159  0.1937  0.6688
  297MOL0     C39988   4.336   5.099   4.294 -0.0547  1.6787 -0.7818
  297MOL0     C39989   4.429   5.295   4.144 -0.1922  0.7513 -1.1825
  297MOL0     C39990   4.476   5.365   4.264  0.2967 -0.5469 -0.0759
  297MOL0     O39991   4.415   5.345   4.386 -0.1701 -0.7088  1.1207
  297MOL0     C39992   4.461   5.413   4.498  0.1298 -0.0522 -0.5585
  297MOL0     C39993   4.479   5.556   4.495 -0.1343 -0.3705 -0.4933
  297MOL0     C39994   4.534   5.615   4.607 -0.0188 -0.3823  0.1515
  297MOL0     C39995   4.572   5.538   4.716 -0.6019 -0.0953 -0.9644
  297MOL0     O39996   4.633   5.605   4.817 -0.1529 -0.8510 -0.2594
  297MOL0     C39997   4.777   5.624   4.805  0.0197  0.2633 -0.1205
  297MOL0     C39998   4.816   5.632   4.952  1.1944  0.5243 -0.0356
  297MOL0     C39999   4.740   5.527   5.045 -0.1127 -1.5074 -0.4113
  297MOL0     C40000   4.799   5.538   5.184  0.7515 -0.1206  0.7379
  297MOL0     C40001   4.732   5.439   5.265 -0.2460 -0.2213 -0.2843
  297MOL0     C40002   4.589   5.487   5.310 -0.8688  0.5541 -0.3892
  297MOL0     C40003   4.551   5.414   5.434  1.2772 -0.9936  0.1588
  297MOL0     C40004   4.408   5.446   5.470  0.0941 -0.1577 -0.2781
  297MOL0    Cl40005   4.392   5.615   5.531  0.1051  0.6390 -0.1115
  297MOL0     C40006   4.545   5.403   4.718 -0.1129  1.3670  0.3661
  297MOL0     C40007   4.504   5.337   4.602 -0.6280  0.2569 -0.3277
  297MOL0     O40008   4.578   5.434   4.246  1.3265  0.2218 -0.6401
  297MOL0     C40009   4.450   5.354   4.016  0.1087 -1.0917 -0.8464
  297MOL0     C40010   4.385   5.290   3.907 -0.2571 -1.2693  0.2085
  297MOL0     N40011   4.084   4.936   3.265 -0.4314 -0.0667 -0.0837
  297MOL0     N40012   4.049   4.995   3.151 -0.1574 -0.3992  0.6361
  297MOL0     C40013   4.164   5.251   2.242  0.2567 -0.5613 -0.2473
  297MOL0     C40014   4.231   5.317   2.125  0.5059 -1.2471  0.4993
  297MOL0     C40015   4.416   5.476   1.765 -0.0939 -0.1531 -0.6875
  297MOL0     C40016   4.342   5.454   1.647 -1.0156 -0.4546 -0.5596
  297MOL0     C40017   4.354   5.551   1.551  0.0807  0.0089  0.7440
  297MOL0     C40018   4.437   5.668   1.561 -1.0384  1.3194  0.1019
  297MOL0     O40019   4.465   5.764   1.465  0.4645  0.1307  0.7327
  297MOL0     C40020   4.406   5.755   1.332  0.1381 -0.0163  0.5127
  297MOL0     C40021   4.492   5.658   1.249 -0.1554  1.0389 -0.8263
  297MOL0     C40022   4.468   5.677   1.097 -0.3291 -0.0881 -0.4197
  297MOL0     C40023   4.523   5.562   1.023 -0.0338 -0.0231  0.3655
  297MOL0     C40024   4.533   5.600   0.881 -0.1251  0.1025 -0.4765
  297MOL0     C40025   4.540   5.619   0.765  0.5664 -0.6370 -0.1559
  297MOL0     C40026   4.515   5.679   1.678  0.1574  0.3371 -0.3668
  297MOL0     C40027   4.504   5.583   1.783 -0.3688  0.4905 -0.4245
  297MOL0     H40028   4.088   5.141   1.869  0.0045 -1.1879 -0.5452
  297MOL0     H40029   3.982   5.043   2.043  2.0968 -1.2099 -2.0023
  297MOL0     H40030   4.057   4.935   2.438  2.6683  0.0939 -1.2889
  297MOL0     H40031   4.183   5.056   2.395  0.1968 -0.6634  0.5419
  297MOL0     H40032   4.116   5.081   2.623  1.9962  1.4749 -0.3515
  297MOL0     H40033   4.084   5.227   2.538 -0.0115  0.3084  4.8259
  297MOL0     H40034   3.841   5.166   2.546 -0.4701  0.0706 -0.3388
  297MOL0     H40035   3.876   5.018   2.626 -0.3005 -0.5294 -3.1531
  297MOL0     H40036   3.976   5.138   2.828  1.4917  0.9668 -1.0824
  297MOL0     H40037   3.962   5.291   2.743 -1.3303  1.2108 -1.4866
  297MOL0     H40038   3.776   5.282   2.889 -0.9893  0.5785 -0.6546
  297MOL0     H40039   3.716   5.259   2.726 -0.2637 -0.5044  0.0513
  297MOL0     H40040   3.604   5.102   2.872 -1.2352 -3.2286 -4.5243
  297MOL0     H40041   3.701   5.005   2.781 -0.4070  0.5687 -0.9683
  297MOL0     H40042   3.706   4.977   3.047 -1.4140 -0.4150 -0.7248
  297MOL0     H40043   3.852   4.950   2.942 -0.7380  0.2610  0.8125
  297MOL0     H40044   3.772   5.188   3.116  0.2669 -1.5496  1.9773
  297MOL0     H40045   3.922   5.186   3.021  0.8303 -1.4994 -2.4931
  297MOL0     H40046   3.810   5.110   3.351 -0.6219  0.0884  0.9959
  297MOL0     H40047   3.920   4.865   3.549 -1.2867  2.1448 -2.6300
  297MOL0     H40048   4.087   4.836   3.490  0.1875  0.2948 -2.6270
  297MOL0     H40049   4.025   4.979   3.708  1.5250 -0.4011  0.8889
  297MOL0     H40050   4.028   5.112   3.590  0.7066  0.6082  3.5427
  297MOL0     H40051   4.235   5.007   3.503 -1.9436  3.0517  0.1436
  297MOL0     H40052   4.271   4.924   3.647  1.0174  2.2024  1.5661
  297MOL0     H40053   4.246   5.219   3.644 -1.1254 -0.5270 -2.3133
  297MOL0     H40054   4.379   5.114   3.657 -1.4940 -0.7565 -0.6334
  297MOL0     H40055   4.234   5.041   4.064 -1.5832  0.2757  3.1198
  297MOL0     H40056   4.423   5.086   4.360 -1.2000 -4.2549  0.0963
  297MOL0     H40057   4.247   5.134   4.347 -0.7442  0.3386 -1.0152
  297MOL0     H40058   4.312   4.998   4.260 -1.1895  2.9089 -3.9824
  297MOL0     H40059   4.460   5.611   4.404 -0.1872  0.1462 -0.1725
  297MOL0     H40060   4.551   5.722   4.616  1.9526 -0.4278 -2.0007
  297MOL0     H40061   4.829   5.530   4.783 -0.4554 -0.2857  1.0257
  297MOL0     H40062   4.813   5.715   4.756 -0.0060  1.0790  1.3173
  297MOL0     H40063   4.925   5.624   4.949  1.0631 -1.2738 -1.6061
  297MOL0     H40064   4.787   5.734   4.979 -3.9540  0.0342 -2.5678
  297MOL0     H40065   4.756   5.428   5.000 -0.2086 -1.7630  0.1094
  297MOL0     H40066   4.631   5.533   5.043 -0.0897 -1.1396 -1.1043
  297MOL0     H40067   4.908   5.530   5.184  0.7259 -0.4683  1.0036
  297MOL0     H40068   4.774   5.635   5.229 -1.7517 -1.2882  2.0843
  297MOL0     H40069   4.800   5.411   5.347 -0.8622 -0.0921  0.2769
  297MOL0     H40070   4.726   5.343   5.213  2.9140 -0.6998  0.0201
  297MOL0     H40071   4.589   5.590   5.347  2.5108 -0.8314  4.6390
  297MOL0     H40072   4.527   5.475   5.222  1.1217  1.6175 -2.0262
  297MOL0     H40073   4.609   5.440   5.524 -0.0584  1.2412  0.4453
  297MOL0     H40074   4.558   5.307   5.409 -0.1479 -0.7721 -1.3579
  297MOL0     H40075   4.361   5.383   5.546  0.8049  2.0362  2.1624
  297MOL0     H40076   4.353   5.421   5.379 -3.1490 -0.4300  1.6069
  297MOL0     H40077   4.595   5.332   4.782 -0.3177  0.7368 -0.1602
  297MOL0     H40078   4.507   5.229   4.609  1.1421  0.3432  5.8654
  297MOL0     H40079   4.508   5.445   4.006 -1.7054 -0.0942 -3.3938
  297MOL0     H40080   4.405   5.330   3.808 -0.4805  1.8590  1.2967
  297MOL0     H40081   4.188   5.292   2.340 -0.5803  0.3568 -0.4061
  297MOL0     H40082   4.304   5.393   2.149  2.0870 -1.1720 -3.6744
  297MOL0     H40083   4.271   5.377   1.618  0.6511 -1.0774 -3.3588
  297MOL0     H40084   4.308   5.534   1.453  0.1898  3.0730  0.0551
  297MOL0     H40085   4.302   5.724   1.340  0.1867 -0.4307 -0.3979
  297MOL0     H40086   4.412   5.858   1.294 -2.8393  1.0646  2.5878
  297MOL0     H40087   4.472   5.553   1.271 -0.2685  1.2111 -0.0983
  297MOL0     H40088   4.600   5.671   1.262  0.1203 -0.0878 -1.7379
  297MOL0     H40089   4.510   5.770   1.058 -2.0930  0.8292 -0.2435
  297MOL0     H40090   4.361   5.679   1.076 -0.4747  0.2796  0.3068
  297MOL0     H40091   4.457   5.475   1.032 -1.4148  0.9138 -0.3880
  297MOL0     H40092   4.620   5.546   1.072  1.2873  1.1652 -1.7275
  297MOL0     H40093   4.542   5.616   0.658 -4.3394  1.4633 -0.5675
  297MOL0     H40094   4.591   5.756   1.686  2.2807 -1.7403  0.7528
  297MOL0     H40095   4.576   5.593   1.863 -0.2029 -1.6188 -0.2379
  298MOL0     O40096   5.078   6.359   6.522 -0.0802 -0.8500  0.6744
  298MOL0     C40097   5.184   6.389   6.474 -0.5969 -0.5941  0.2660
  298MOL0     O40098   5.302   6.391   6.539 -0.4932 -0.0850 -0.4214
  298MOL0     C40099   5.320   6.332   6.669 -0.4015 -0.6102  0.4671
  298MOL0     C40100   5.262   6.217   6.698 -0.3667  0.1038 -0.5382
  298MOL0     C40101   5.261   6.155   6.819 -0.0959 -0.4778  0.1143
  298MOL0     C40102   5.336   6.211   6.922 -0.5390  0.1867 -0.5677
  298MOL0     O40103   5.351   6.164   7.052 -0.2785 -0.1260  0.0699
  298MOL0     C40104   5.379   6.025   7.077 -0.3190  0.6225  0.1254
  298MOL0     C40105   5.422   5.987   7.218  0.8617  0.1655 -0.0298
  298MOL0     C40106   5.521   5.871   7.235  1.2572 -0.6915  0.1286
  298MOL0     C40107   5.566   5.855   7.381 -0.4961 -0.2021 -0.0204
  298MOL0     C40108   5.668   5.741   7.393  0.5918  0.4283  0.3350
  298MOL0     C40109   5.746   5.732   7.522  0.3474 -0.2209  0.1631
  298MOL0     C40110   5.839   5.859   7.526  0.0788  0.7402  0.4613
  298MOL0     C40111   5.942   5.861   7.638 -0.5650 -0.3236  1.0269
  298MOL0     N40112   6.006   5.991   7.637  0.4414  0.1124  1.1380
  298MOL0     C40113   5.983   6.096   7.722  0.4634  0.2843  0.2897
  298MOL0     C40114   6.063   6.190   7.680  0.8941  0.8272 -1.0711
  298MOL0     C40115   6.065   6.332   7.735 -0.5668 -0.1819 -0.7335
  298MOL0     C40116   6.158   6.340   7.871  0.1830 -0.0255 -0.2314
  298MOL0     C40117   6.088   6.280   7.997  0.8383  0.6534 -0.2337
  298MOL0     C40118   5.951   6.329   8.036  0.4584 -0.0680  0.0776
  298MOL0     O40119   5.906   6.245   8.138 -0.9506 -0.3832 -0.0237
  298MOL0     C40120   5.825   6.303   8.230 -0.0284  1.3119 -0.3234
  298MOL0     C40121   5.873   6.385   8.335 -0.1035  0.4382  0.5046
  298MOL0     C40122   5.786   6.447   8.427  0.0694  0.3359  0.1964
  298MOL0     C40123   5.857   6.520   8.539  0.3017  1.0716  0.5426
  298MOL0     C40124   5.646   6.424   8.412 -0.0927  0.2650  0.5484
  298MOL0     C40125   5.538   6.484   8.492  0.1958 -0.2232  0.4324
  298MOL0     O40126   5.413   6.466   8.450 -0.6844  0.2562  1.1796
  298MOL0     C40127   5.316   6.532   8.516 -0.2448 -0.9029 -0.2047
  298MOL0     C40128   5.219   6.464   8.593 -0.6580 -0.7321  0.1771
  298MOL0     C40129   5.116   6.526   8.663 -0.2016  0.1007 -0.4591
  298MOL0     C40130   5.099   6.662   8.651  0.8469  0.9231  0.3698
  298MOL0     O40131   5.000   6.728   8.709 -0.1923 -0.0438 -0.1023
  298MOL0     C40132   4.869   6.681   8.672 -0.1625  0.4918  0.3308
  298MOL0     C40133   4.758   6.784   8.695 -0.0963 -0.0290 -0.2903
  298MOL0     C40134   4.623   6.736   8.643  0.2598 -0.1738  0.1942
  298MOL0     C40135   4.604   6.802   8.503  0.0762 -0.7895  0.3547
  298MOL0     C40136   4.463   6.791   8.459  1.1629 -0.4657 -0.8133
  298MOL0     C40137   4.447   6.774   8.307 -0.3608  1.1071 -0.6315
  298MOL0     C40138   4.529   6.658   8.242  0.2225 -0.5387  0.2978
  298MOL0     C40139   4.473   6.632   8.105 -0.6053  0.9217  0.8310
  298MOL0    Cl40140   4.477   6.776   8.008 -0.2653 -0.5276 -0.1463
  298MOL0     C40141   5.194   6.729   8.589  0.2276 -0.2917  0.8790
  298MOL0     C40142   5.299   6.669   8.519  0.4489 -0.1161  1.3783
  298MOL0     O40143   5.563   6.544   8.596  0.0327  0.2800  0.2354
  298MOL0     C40144   5.602   6.343   8.302  0.3492  0.2809 -0.1977
  298MOL0     C40145   5.683   6.279   8.216 -0.3097 -0.2304  0.3072
  298MOL0     N40146   6.144   6.140   7.584  0.0934  0.0798  0.7413
  298MOL0     N40147   6.105   6.020   7.548  0.0234 -0.6052  0.9165
  298MOL0     C40148   5.404   6.341   6.895 -0.2916  0.4745  0.0913
  298MOL0     C40149   5.414   6.386   6.764 -0.0726  0.0427  0.4358
  298MOL0     C40150   5.188   6.438   6.341  0.7690 -0.3148 -0.2215
  298MOL0     C40151   5.059   6.458   6.270  0.4252  0.0085  0.2353
  298MOL0     C40152   5.052   6.503   6.143  0.0971 -0.3315 -0.1148
  298MOL0     C40153   5.174   6.531   6.080 -0.1186  0.6062  0.3064
  298MOL0     O40154   5.177   6.575   5.949 -0.4008 -0.1988  0.3710
  298MOL0     C40155   5.080   6.668   5.906  0.7632 -0.2915 -1.1264
  298MOL0     C40156   5.010   6.605   5.796  0.1145  0.0142 -0.6710
  298MOL0     C40157   5.086   6.615   5.661  0.0478 -0.5025  0.0562
  298MOL0     C40158   5.132   6.752   5.611 -0.6343 -0.8168  0.8579
  298MOL0     C40159   5.043   6.868   5.609 -0.0377 -0.6051 -0.4318
  298MOL0     C40160   4.969   6.965   5.603 -0.2869  0.7077 -0.1328
  298MOL0     C40161   5.299   6.505   6.142  0.1729 -0.1022 -0.0726
  298MOL0     C40162   5.309   6.460   6.271 -0.3497  1.0790 -0.6718
  298MOL0     H40163   5.207   6.157   6.627 -0.7577 -0.1931  0.0045
  298MOL0     H40164   5.209   6.061   6.832 -0.4505 -0.2813  0.1106
  298MOL0     H40165   5.287   5.970   7.057 -0.4819  1.4451 -1.5415
  298MOL0     H40166   5.446   5.983   7.001  2.4799  1.3638  1.9918
  298MOL0     H40167   5.465   6.077   7.264 -1.4065  2.0277 -1.3303
  298MOL0     H40168   5.338   5.964   7.284 -1.0492 -2.0980 -3.0105
  298MOL0     H40169   5.475   5.778   7.200 -1.7173 -2.2948  6.6779
  298MOL0     H40170   5.607   5.885   7.169 -0.7822 -0.4698 -2.6534
  298MOL0     H40171   5.614   5.951   7.404 -1.1205  0.4420 -1.3192
  298MOL0     H40172   5.485   5.839   7.453 -0.1916  2.1874  0.9810
  298MOL0     H40173   5.617   5.648   7.365  1.4309  0.5024 -1.5598
  298MOL0     H40174   5.733   5.767   7.309 -2.0771  2.4998 -1.2817
  298MOL0     H40175   5.677   5.740   7.606  0.0993  1.1505 -0.1379
  298MOL0     H40176   5.809   5.643   7.519  0.1188 -0.5983  3.5610
  298MOL0     H40177   5.894   5.880   7.433  2.8045  1.2639  2.0870
  298MOL0     H40178   5.778   5.944   7.558  0.2284  0.1696  2.3921
  298MOL0     H40179   6.017   5.786   7.611 -1.2028 -1.9397  3.4268
  298MOL0     H40180   5.887   5.843   7.731 -3.5271  2.2880 -0.0199
  298MOL0     H40181   5.910   6.101   7.802 -2.3720  0.9639 -2.1600
  298MOL0     H40182   6.100   6.401   7.658  0.5216  0.2487  0.1287
  298MOL0     H40183   5.964   6.374   7.742 -0.3817  0.3925 -1.3386
  298MOL0     H40184   6.180   6.446   7.887 -1.6483  0.5988 -1.4839
  298MOL0     H40185   6.250   6.288   7.843  0.5909  1.2136 -1.3450
  298MOL0     H40186   6.159   6.291   8.080  0.1796 -1.1925  0.6368
  298MOL0     H40187   6.081   6.174   7.973 -1.6682  1.3293 -2.9788
  298MOL0     H40188   5.876   6.317   7.957  1.2968 -1.8753 -0.4916
  298MOL0     H40189   5.953   6.431   8.075  0.2235 -0.3563  0.8668
  298MOL0     H40190   5.981   6.384   8.337 -0.0870  0.2335 -0.1714
  298MOL0     H40191   5.805   6.552   8.629 -0.7618  1.9657 -0.3506
  298MOL0     H40192   5.934   6.450   8.571 -3.4186 -2.0383  3.6613
  298MOL0     H40193   5.897   6.604   8.481  0.1916  1.1562  0.5894
  298MOL0     H40194   5.232   6.357   8.593  0.3264 -0.6249  0.1400
  298MOL0     H40195   5.051   6.463   8.722  0.3834 -0.9516 -0.9066
  298MOL0     H40196   4.872   6.645   8.568  0.7943 -0.3745  0.6401
  298MOL0     H40197   4.840   6.594   8.732  0.6971  1.2483  1.9046
  298MOL0     H40198   4.754   6.787   8.805  0.6277  1.5138 -0.2841
  298MOL0     H40199   4.776   6.874   8.636 -1.3789 -1.7868 -3.5893
  298MOL0     H40200   4.542   6.754   8.713 -0.2501  0.2934 -0.4985
  298MOL0     H40201   4.624   6.627   8.630 -0.2520  0.0433 -2.1808
  298MOL0     H40202   4.621   6.910   8.511 -3.7706 -0.0288 -0.0915
  298MOL0     H40203   4.675   6.756   8.434 -0.7647 -2.0544  0.3202
  298MOL0     H40204   4.414   6.886   8.485 -0.9655 -1.1533 -2.0877
  298MOL0     H40205   4.405   6.720   8.518 -0.1943 -0.4009 -2.0191
  298MOL0     H40206   4.340   6.770   8.283 -0.9608 -1.4532  1.9283
  298MOL0     H40207   4.481   6.863   8.253  2.7809 -0.0742 -0.8011
  298MOL0     H40208   4.528   6.566   8.302 -1.9588  0.4049  1.8294
  298MOL0     H40209   4.634   6.687   8.239  0.2048 -0.5118 -0.1211
  298MOL0     H40210   4.374   6.585   8.104  0.5274 -1.6711  0.9538
  298MOL0     H40211   4.544   6.564   8.057  0.1725  2.3308 -0.0665
  298MOL0     H40212   5.181   6.834   8.567 -1.5892 -1.0758 -2.5502
  298MOL0     H40213   5.372   6.725   8.462 -0.4576  0.5507  0.8526
  298MOL0     H40214   5.497   6.320   8.285  0.1995 -1.0891  2.1313
  298MOL0     H40215   5.636   6.227   8.133  0.0703  0.0804 -0.1047
  298MOL0     H40216   5.448   6.385   6.984  1.2895 -0.4712 -0.1820
  298MOL0     H40217   5.460   6.480   6.735  0.0136 -0.3017 -0.5897
  298MOL0     H40218   4.965   6.435   6.319 -0.6334  0.1136 -1.6414
  298MOL0     H40219   4.961   6.517   6.085  0.8264  1.8708 -0.8125
  298MOL0     H40220   5.006   6.699   5.980  0.5188 -3.0928 -0.0880
  298MOL0     H40221   5.132   6.761   5.881  3.2000 -1.0590  0.6578
  298MOL0     H40222   4.911   6.649   5.782  0.6233  1.1474 -0.8093
  298MOL0     H40223   4.993   6.497   5.811  1.5665 -0.6226 -3.0598
  298MOL0     H40224   5.013   6.574   5.590  0.6968  0.0801 -0.9592
  298MOL0     H40225   5.172   6.549   5.673 -1.9165 -2.7888  3.7026
  298MOL0     H40226   5.162   6.741   5.506  2.6337 -0.8958  1.6931
  298MOL0     H40227   5.225   6.785   5.659 -1.8997  4.0207  0.5340
  298MOL0     H40228   4.907   7.053   5.606 -0.4401  0.6556 -1.5123
  298MOL0     H40229   5.390   6.517   6.084  0.3941 -1.6598 -0.1113
  298MOL0     H40230   5.404   6.449   6.322 -0.3637  4.4959  0.2865
  299MOL0     O40231   3.220   2.151   0.139 -0.6188  0.4962 -0.5440
  299MOL0     C40232   3.207   2.097   0.246 -0.8052  0.2983  0.5685
  299MOL0     O40233   3.183   1.964   0.260 -0.1734  0.3654 -0.1465
  299MOL0     C40234   3.174   1.885   0.145  0.2930 -0.2298 -0.4873
  299MOL0     C40235   3.280   1.808   0.122 -0.7497  0.0710  0.8818
  299MOL0     C40236   3.259   1.689   0.048 -0.0257 -0.1647 -0.0014
  299MOL0     C40237   3.139   1.651   0.005 -0.2831  0.0161  0.1387
  299MOL0     O40238   3.132   1.524  -0.053  0.5580 -0.5077 -0.7337
  299MOL0     C40239   3.007   1.478  -0.102 -1.1856 -0.7685  0.7686
  299MOL0     C40240   3.013   1.354  -0.197 -0.0917 -0.2294 -0.2585
  299MOL0     C40241   3.120   1.358  -0.313  0.4514  1.2588 -0.1886
  299MOL0     C40242   3.269   1.356  -0.283 -0.5981 -0.2280  0.8738
  299MOL0     C40243   3.361   1.312  -0.404 -1.0149  0.5087  0.5529
  299MOL0     C40244   3.510   1.307  -0.380 -0.3666 -0.5839 -0.4040
  299MOL0     C40245   3.571   1.441  -0.330 -0.0773  0.7578  0.5511
  299MOL0     C40246   3.610   1.431  -0.180 -0.1630 -0.8077 -0.6572
  299MOL0     N40247   3.633   1.562  -0.102  0.2598  0.1997 -0.3477
  299MOL0     C40248   3.656   1.685  -0.157 -0.6478 -0.4892 -0.7157
  299MOL0     C40249   3.677   1.768  -0.057 -1.2618 -0.8767 -1.9615
  299MOL0     C40250   3.715   1.917  -0.053 -1.1240  0.9925 -0.3382
  299MOL0     C40251   3.624   2.002  -0.133  1.0205  0.5634  0.5011
  299MOL0     C40252   3.483   1.998  -0.080  0.5742 -0.4606 -0.9451
  299MOL0     C40253   3.383   2.113  -0.116  0.5453 -0.0885  0.9499
  299MOL0     O40254   3.408   2.158  -0.248 -0.3924  0.8203  0.1195
  299MOL0     C40255   3.317   2.246  -0.302  0.4287  0.0038  0.1377
  299MOL0     C40256   3.308   2.246  -0.435 -0.2513  0.9281  0.2394
  299MOL0     C40257   3.241   2.338  -0.513 -1.4117  0.7866  0.2557
  299MOL0     C40258   3.220   2.285  -0.650 -0.1106 -0.0962 -1.2275
  299MOL0     C40259   3.180   2.438  -0.449  0.2008  0.1589  0.3447
  299MOL0     C40260   3.087   2.535  -0.509 -0.0442 -0.9387  0.2721
  299MOL0     O40261   3.103   2.560  -0.647 -0.7345 -1.3622 -0.4410
  299MOL0     C40262   3.065   2.676  -0.709 -0.3984  0.1314  0.4971
  299MOL0     C40263   3.051   2.682  -0.847  0.3877  0.4062  0.9965
  299MOL0     C40264   3.025   2.807  -0.906  0.6350  0.7617 -1.2806
  299MOL0     C40265   3.009   2.926  -0.829  0.1656 -0.3137  0.2172
  299MOL0     O40266   2.967   3.043  -0.897 -0.2424 -0.4360  0.2577
  299MOL0     C40267   2.908   3.149  -0.805 -0.0987 -0.4216  0.4945
  299MOL0     C40268   2.884   3.273  -0.886 -0.0202  0.4866 -0.7279
  299MOL0     C40269   2.792   3.368  -0.815  0.1951  0.3787  0.1620
  299MOL0     C40270   2.857   3.430  -0.691 -0.0148  0.0553  0.4252
  299MOL0     C40271   2.959   3.545  -0.720 -0.0124  0.2378 -0.0795
  299MOL0     C40272   3.040   3.571  -0.588  0.4694  0.0110  0.1432
  299MOL0     C40273   3.152   3.472  -0.578  0.3677 -0.0723 -0.0469
  299MOL0     C40274   3.225   3.490  -0.448 -0.8206 -0.0336  0.3664
  299MOL0    Cl40275   3.344   3.350  -0.454  0.0768  0.7100 -0.2949
  299MOL0     C40276   3.038   2.920  -0.694  0.2385 -1.1738  0.9794
  299MOL0     C40277   3.066   2.800  -0.641 -0.8401  0.3076 -0.6018
  299MOL0     O40278   3.001   2.582  -0.439 -0.3478  0.1656 -0.1992
  299MOL0     C40279   3.195   2.446  -0.305 -0.5865 -0.0424  0.5599
  299MOL0     C40280   3.261   2.350  -0.227 -0.2416  0.4742  0.2627
  299MOL0     N40281   3.666   1.696   0.067 -1.4959  0.7846 -0.8650
  299MOL0     N40282   3.644   1.568   0.043  0.4940 -0.5090  0.0130
  299MOL0     C40283   3.031   1.748   0.005 -0.7402 -0.7748 -0.7845
  299MOL0     C40284   3.048   1.856   0.093 -0.1051 -0.1848  0.0804
  299MOL0     C40285   3.222   2.182   0.369  0.8744  0.5680  0.3797
  299MOL0     C40286   3.194   2.116   0.491  0.7173  0.0323  0.6997
  299MOL0     C40287   3.207   2.175   0.614 -0.8481 -0.1269 -0.3534
  299MOL0     C40288   3.263   2.303   0.623  0.0908 -0.5088 -0.4995
  299MOL0     O40289   3.282   2.348   0.750 -0.4258 -1.0704  0.1100
  299MOL0     C40290   3.313   2.484   0.772 -0.4227 -0.5767 -0.9869
  299MOL0     C40291   3.466   2.482   0.778  0.4742 -0.4343 -1.0173
  299MOL0     C40292   3.519   2.620   0.809  0.2989 -1.5010  0.7579
  299MOL0     C40293   3.622   2.668   0.700  0.4230 -1.3731 -0.1746
  299MOL0     C40294   3.640   2.815   0.697  0.5273  0.4655  0.4924
  299MOL0     C40295   3.640   2.926   0.666 -0.0530 -0.8298 -0.0191
  299MOL0     C40296   3.302   2.363   0.501 -0.6266 -0.0848 -0.4314
  299MOL0     C40297   3.279   2.308   0.373 -0.0834  0.0566  0.0122
  299MOL0     H40298   3.368   1.830   0.181  0.1479  0.2986 -0.4869
  299MOL0     H40299   3.344   1.626   0.022 -2.3931 -3.5235 -0.2282
  299MOL0     H40300   2.950   1.465  -0.010 -1.5248  1.3043  0.9138
  299MOL0     H40301   2.966   1.564  -0.156 -1.5462 -2.3054 -1.5638
  299MOL0     H40302   3.026   1.267  -0.131  3.0914 -0.3053 -0.8046
  299MOL0     H40303   2.918   1.339  -0.250  0.0739 -2.5519 -0.0256
  299MOL0     H40304   3.107   1.266  -0.372  1.6245  2.8270 -3.1255
  299MOL0     H40305   3.087   1.447  -0.368 -0.1404  2.1458  1.5464
  299MOL0     H40306   3.287   1.462  -0.260 -2.3429  0.1605  0.6039
  299MOL0     H40307   3.288   1.283  -0.204  1.3951 -2.8976 -1.8829
  299MOL0     H40308   3.341   1.207  -0.430  2.8368 -0.4609  0.8919
  299MOL0     H40309   3.334   1.375  -0.489 -0.2915  0.6615  0.4351
  299MOL0     H40310   3.558   1.223  -0.328  1.6827 -1.1665 -3.0126
  299MOL0     H40311   3.557   1.280  -0.475 -2.7748 -3.6840 -0.8730
  299MOL0     H40312   3.672   1.437  -0.371 -0.2090 -0.2090  0.2792
  299MOL0     H40313   3.505   1.522  -0.361  1.1058  0.9704 -1.5950
  299MOL0     H40314   3.700   1.371  -0.163 -0.6862 -0.9589  1.9574
  299MOL0     H40315   3.536   1.382  -0.116  1.8288 -0.8610  1.7374
  299MOL0     H40316   3.653   1.724  -0.258 -1.6491 -0.8140 -0.8230
  299MOL0     H40317   3.701   1.951   0.050  1.1961  0.9253  0.0564
  299MOL0     H40318   3.817   1.938  -0.085 -1.3237  2.1316 -0.2706
  299MOL0     H40319   3.628   1.988  -0.242 -3.9013 -4.6046  0.5638
  299MOL0     H40320   3.645   2.109  -0.119 -0.1918  0.7034  1.4328
  299MOL0     H40321   3.496   1.996   0.029  2.7536  0.0949 -1.1524
  299MOL0     H40322   3.437   1.903  -0.109 -0.3048  0.1050 -1.4530
  299MOL0     H40323   3.408   2.191  -0.043 -0.4615  2.4152 -1.2309
  299MOL0     H40324   3.278   2.084  -0.110 -0.4109  2.0919 -2.6022
  299MOL0     H40325   3.349   2.160  -0.487 -1.0711 -1.1574  2.8126
  299MOL0     H40326   3.143   2.208  -0.649  2.9700 -3.4407 -2.3319
  299MOL0     H40327   3.196   2.375  -0.708  2.7475  1.6717  0.0900
  299MOL0     H40328   3.316   2.241  -0.680  0.9073  1.9757 -1.2589
  299MOL0     H40329   3.057   2.596  -0.913  0.1780  2.4383 -1.8481
  299MOL0     H40330   3.009   2.818  -1.013  1.0312 -1.1786 -1.5804
  299MOL0     H40331   2.816   3.110  -0.761 -0.7975  2.4482  1.7967
  299MOL0     H40332   2.987   3.169  -0.731  2.8470 -3.0650 -1.6622
  299MOL0     H40333   2.977   3.322  -0.917  0.2099  0.4829 -0.0622
  299MOL0     H40334   2.834   3.240  -0.978 -0.3027  1.4382 -0.9242
  299MOL0     H40335   2.691   3.330  -0.796 -0.0561  1.4639  1.2087
  299MOL0     H40336   2.765   3.457  -0.872 -1.6201  1.5742  2.6562
  299MOL0     H40337   2.780   3.459  -0.620  0.5422 -0.3862  1.2228
  299MOL0     H40338   2.917   3.355  -0.639 -0.6770 -1.0077 -0.2996
  299MOL0     H40339   2.910   3.636  -0.753  0.0210 -0.2582 -1.5695
  299MOL0     H40340   3.033   3.520  -0.797 -2.2046 -3.3886 -1.2790
  299MOL0     H40341   3.088   3.668  -0.575 -0.8288  0.4512  2.0132
  299MOL0     H40342   2.960   3.563  -0.514 -0.9020 -1.8004 -1.4361
  299MOL0     H40343   3.229   3.476  -0.656  0.2296 -3.5746 -0.5415
  299MOL0     H40344   3.116   3.368  -0.584  1.0670 -0.2278 -2.9491
  299MOL0     H40345   3.154   3.489  -0.364 -1.7641 -2.8555 -0.3298
  299MOL0     H40346   3.283   3.582  -0.449  0.6173 -0.8973  0.8158
  299MOL0     H40347   3.027   3.002  -0.624  2.6766 -0.7058  0.9010
  299MOL0     H40348   3.072   2.799  -0.533 -3.9027  1.7645 -0.3378
  299MOL0     H40349   3.150   2.524  -0.244 -0.8070 -0.1956  0.5934
  299MOL0     H40350   3.262   2.372  -0.121 -0.2621 -2.2663  0.9258
  299MOL0     H40351   2.934   1.745  -0.043 -1.1323  3.1309 -0.5289
  299MOL0     H40352   2.963   1.923   0.103  1.7897  2.0674  2.5088
  299MOL0     H40353   3.150   2.017   0.486 -0.8030  0.7183 -0.6296
  299MOL0     H40354   3.186   2.137   0.713 -0.2216  0.9681  0.2089
  299MOL0     H40355   3.281   2.539   0.684 -1.0268 -2.4348 -1.9741
  299MOL0     H40356   3.272   2.515   0.869 -1.1630 -0.6622 -1.2657
  299MOL0     H40357   3.513   2.443   0.687 -1.7400 -1.9414 -1.5852
  299MOL0     H40358   3.504   2.422   0.861  1.3942 -0.8751 -1.7295
  299MOL0     H40359   3.565   2.629   0.908  0.3117  1.1875  0.5857
  299MOL0     H40360   3.441   2.696   0.797  3.6068  2.0125 -0.5762
  299MOL0     H40361   3.585   2.643   0.600  1.1504  1.8268 -1.3727
  299MOL0     H40362   3.706   2.604   0.729 -0.2473 -1.4386  1.8069
  299MOL0     H40363   3.619   3.022   0.624 -3.3716 -0.5397  1.9266
  299MOL0     H40364   3.344   2.463   0.497  0.6116 -0.5121  0.9018
  299MOL0     H40365   3.339   2.349   0.293 -0.3893 -1.5314 -1.0828
  300MOL0     O40366   5.634   5.641   1.483  0.1054 -0.0471 -0.0452
  300MOL0     C40367   5.536   5.706   1.526 -0.3140  0.2810  0.3543
  300MOL0     O40368   5.416   5.658   1.546 -0.2484  0.3478  0.4017
  300MOL0     C40369   5.415   5.516   1.536 -0.0411 -0.2963 -0.5901
  300MOL0     C40370   5.494   5.449   1.626  0.0421 -0.1505 -0.5741
  300MOL0     C40371   5.516   5.310   1.630 -1.0810 -0.3378  0.0510
  300MOL0     C40372   5.451   5.234   1.542  0.3721 -0.2746  1.3892
  300MOL0     O40373   5.466   5.094   1.541 -0.3638 -1.3505  0.3343
  300MOL0     C40374   5.363   4.999   1.570 -0.0995  0.3562 -0.8338
  300MOL0     C40375   5.331   4.990   1.721 -0.2171  0.8440  0.7519
  300MOL0     C40376   5.454   4.957   1.815  0.2151  0.1968 -0.8310
  300MOL0     C40377   5.417   4.891   1.948  0.1874  0.8383 -0.7041
  300MOL0     C40378   5.529   4.851   2.044 -0.7081 -0.7506  0.6603
  300MOL0     C40379   5.474   4.802   2.177  0.0319 -0.9175  1.7319
  300MOL0     C40380   5.578   4.758   2.287 -0.8445  0.6383 -0.2109
  300MOL0     C40381   5.522   4.769   2.425 -0.3335  0.5409 -0.3560
  300MOL0     N40382   5.426   4.670   2.455 -0.0920 -0.2273 -0.2255
  300MOL0     C40383   5.444   4.536   2.471 -0.1900  0.1673 -0.1515
  300MOL0     C40384   5.317   4.484   2.482 -0.4769 -0.1523 -0.2372
  300MOL0     C40385   5.276   4.343   2.504  0.6462 -0.0857 -0.3504
  300MOL0     C40386   5.169   4.300   2.404 -0.8647 -0.6698 -0.3153
  300MOL0     C40387   5.068   4.192   2.457  0.0127 -1.4276 -0.6992
  300MOL0     C40388   5.127   4.055   2.481 -0.6661  0.1742  0.2023
  300MOL0     O40389   5.170   4.047   2.616  0.3714  0.7046 -0.8336
  300MOL0     C40390   5.250   3.940   2.655 -0.5290 -0.3224  0.7520
  300MOL0     C40391   5.291   3.941   2.792  0.0677 -0.1752  0.1725
  300MOL0     C40392   5.352   3.826   2.846  0.2138  0.3248 -0.0526
  300MOL0     C40393   5.344   3.813   2.994 -0.3012  0.3018  0.6890
  300MOL0     C40394   5.397   3.720   2.756  0.3945 -0.0902  0.9608
  300MOL0     C40395   5.458   3.589   2.791 -0.6324  0.3326 -0.4754
  300MOL0     O40396   5.491   3.508   2.687 -0.0811  0.5548 -0.1168
  300MOL0     C40397   5.534   3.377   2.707 -0.7847 -0.2552 -0.0957
  300MOL0     C40398   5.485   3.291   2.807 -0.4374 -1.4072  0.4213
  300MOL0     C40399   5.514   3.155   2.807  0.4391 -0.7867  0.0705
  300MOL0     C40400   5.605   3.099   2.714  0.0043 -0.2239  0.1640
  300MOL0     O40401   5.634   2.967   2.709 -0.0221 -0.9302  0.2870
  300MOL0     C40402   5.566   2.897   2.603 -1.3612 -0.2697  0.5677
  300MOL0     C40403   5.436   2.823   2.641  0.0917 -0.8443  0.2297
  300MOL0     C40404   5.414   2.691   2.571 -0.5792 -0.9161  0.1506
  300MOL0     C40405   5.269   2.653   2.558 -0.0081 -0.0373  0.0337
  300MOL0     C40406   5.183   2.745   2.465 -0.5488 -0.0305  0.5812
  300MOL0     C40407   5.236   2.731   2.318 -0.9372  0.0679  0.7018
  300MOL0     C40408   5.135   2.808   2.218 -0.1153  0.1905  0.0656
  300MOL0     C40409   5.167   2.803   2.071  0.4013  0.6905  0.4742
  300MOL0    Cl40410   5.323   2.867   2.025 -0.5076  0.5856  0.2018
  300MOL0     C40411   5.663   3.181   2.626 -0.7783  0.9836 -0.8655
  300MOL0     C40412   5.627   3.317   2.617 -0.2419 -0.2951  0.0568
  300MOL0     O40413   5.502   3.576   2.907  0.0123  0.3979 -0.6237
  300MOL0     C40414   5.349   3.729   2.624  0.7183 -0.9470 -0.5862
  300MOL0     C40415   5.265   3.828   2.577 -0.0161  0.1662 -0.2865
  300MOL0     N40416   5.225   4.591   2.477 -0.9832  0.4239 -0.7305
  300MOL0     N40417   5.291   4.704   2.446 -0.3442  0.3282 -0.3373
  300MOL0     C40418   5.364   5.297   1.448 -0.2001  0.2124  0.5920
  300MOL0     C40419   5.349   5.437   1.437 -0.2638  0.3496 -0.7721
  300MOL0     C40420   5.558   5.849   1.536  0.9237 -0.0925 -0.7474
  300MOL0     C40421   5.466   5.942   1.598 -0.2567 -0.3060 -0.0363
  300MOL0     C40422   5.495   6.078   1.609  1.0774  0.1509  0.5986
  300MOL0     C40423   5.618   6.128   1.569  0.6252  1.1328 -0.1638
  300MOL0     O40424   5.649   6.260   1.593  0.3790 -0.5922  0.1800
  300MOL0     C40425   5.783   6.279   1.628  0.3771 -0.2064  0.1218
  300MOL0     C40426   5.860   6.323   1.501  0.1363 -0.2410  0.0881
  300MOL0     C40427   5.820   6.462   1.459  0.3487  0.0703  1.0962
  300MOL0     C40428   5.678   6.466   1.396 -0.4424 -0.1555 -0.3432
  300MOL0     C40429   5.660   6.596   1.326 -0.5358  0.4083  0.0828
  300MOL0     C40430   5.641   6.685   1.250 -0.6952 -0.0515  0.3888
  300MOL0     C40431   5.708   6.038   1.500  0.0046 -0.8280 -0.1921
  300MOL0     C40432   5.679   5.911   1.488  0.1755  0.4312  1.2859
  300MOL0     H40433   5.555   5.510   1.693  0.0951 -0.8972  0.0676
  300MOL0     H40434   5.588   5.254   1.689 -1.2203  1.0753  1.6419
  300MOL0     H40435   5.273   5.022   1.512  0.4073  0.0172 -1.7689
  300MOL0     H40436   5.405   4.908   1.526  2.4911  2.8918 -4.1072
  300MOL0     H40437   5.277   5.074   1.766  0.1199  0.7697  1.3105
  300MOL0     H40438   5.263   4.904   1.724 -2.6569  2.4426 -2.5321
  300MOL0     H40439   5.514   4.886   1.756  2.2537  1.0590  0.0880
  300MOL0     H40440   5.516   5.044   1.841  2.1946 -0.6957 -2.2297
  300MOL0     H40441   5.339   4.948   1.999 -1.6628 -2.3808  0.3401
  300MOL0     H40442   5.366   4.801   1.913  2.5321 -0.0175 -2.1185
  300MOL0     H40443   5.589   4.770   2.002  2.7022  0.7735  2.1623
  300MOL0     H40444   5.594   4.939   2.052 -1.4012 -0.0585 -0.9567
  300MOL0     H40445   5.418   4.890   2.211  1.0984  0.1188  0.8989
  300MOL0     H40446   5.400   4.730   2.141 -2.8378  2.6552 -0.1842
  300MOL0     H40447   5.609   4.654   2.276 -1.1949  0.6087 -0.9338
  300MOL0     H40448   5.670   4.817   2.280 -1.3853  1.5343  0.0454
  300MOL0     H40449   5.485   4.870   2.445 -3.3023 -0.4134 -0.5283
  300MOL0     H40450   5.602   4.747   2.497  0.4442 -1.8637 -1.8211
  300MOL0     H40451   5.538   4.482   2.472  0.1788  0.8003  0.7631
  300MOL0     H40452   5.360   4.273   2.496 -0.5138 -1.2940 -2.5168
  300MOL0     H40453   5.243   4.344   2.609  0.6600  0.7815 -0.3470
  300MOL0     H40454   5.231   4.256   2.324 -1.1112 -2.7005  0.5387
  300MOL0     H40455   5.115   4.384   2.360  0.2034 -0.7437 -1.8647
  300MOL0     H40456   4.986   4.176   2.385  0.3665 -1.4497 -1.1000
  300MOL0     H40457   5.021   4.217   2.552  0.6260  0.8959 -0.9458
  300MOL0     H40458   5.211   4.046   2.411 -2.0119  0.8547 -1.5618
  300MOL0     H40459   5.061   3.971   2.460  0.6326 -0.7435 -0.3794
  300MOL0     H40460   5.269   4.032   2.847  0.1830  0.4786 -0.8229
  300MOL0     H40461   5.444   3.833   3.035 -0.5319  0.8999  0.9783
  300MOL0     H40462   5.270   3.878   3.041 -0.6645  2.7502 -2.8525
  300MOL0     H40463   5.315   3.714   3.029  3.3299 -0.3116  2.4671
  300MOL0     H40464   5.407   3.333   2.870 -2.3612 -1.8191 -1.5709
  300MOL0     H40465   5.457   3.109   2.887 -0.5320  2.7666  1.6121
  300MOL0     H40466   5.555   2.972   2.524  3.1978  0.9148  0.7410
  300MOL0     H40467   5.638   2.826   2.561 -0.3800  1.1974 -0.3252
  300MOL0     H40468   5.445   2.799   2.747 -1.2886  2.4708  1.2357
  300MOL0     H40469   5.352   2.894   2.638  1.7361  1.2735  1.4046
  300MOL0     H40470   5.466   2.618   2.635 -1.8837 -3.3891 -1.4687
  300MOL0     H40471   5.461   2.701   2.472  0.9055  0.3942  0.9369
  300MOL0     H40472   5.269   2.553   2.513  0.8382  0.5203 -1.2600
  300MOL0     H40473   5.225   2.653   2.658 -2.9060 -0.2638 -1.1443
  300MOL0     H40474   5.180   2.848   2.501 -2.7313  0.2021 -0.0905
  300MOL0     H40475   5.080   2.711   2.480 -2.0401  3.7646 -0.0476
  300MOL0     H40476   5.334   2.780   2.316  0.9190 -3.3416  0.1575
  300MOL0     H40477   5.231   2.624   2.295 -1.4308  0.7559 -3.1616
  300MOL0     H40478   5.121   2.912   2.247 -0.0753 -0.2140  1.6249
  300MOL0     H40479   5.037   2.760   2.224 -0.3512 -0.2836 -4.2533
  300MOL0     H40480   5.096   2.862   2.012 -1.8289  1.3076  3.4878
  300MOL0     H40481   5.166   2.700   2.035 -0.0546  0.8598 -0.0048
  300MOL0     H40482   5.749   3.149   2.568 -0.2596 -0.7682  0.7674
  300MOL0     H40483   5.646   3.377   2.529 -4.1469 -0.8861 -1.4194
  300MOL0     H40484   5.347   3.645   2.555 -5.9392 -0.0517 -2.2285
  300MOL0     H40485   5.214   3.818   2.483  0.0379  2.1718 -0.5709
  300MOL0     H40486   5.295   5.239   1.388 -3.6524  1.0119  3.4345
  300MOL0     H40487   5.292   5.470   1.351  0.1809  0.2910 -1.0909
  300MOL0     H40488   5.368   5.908   1.630  0.1094  1.0022  2.7649
  300MOL0     H40489   5.418   6.141   1.652  2.3830  1.4651  1.0582
  300MOL0     H40490   5.787   6.349   1.712 -0.5722 -1.2166  1.0346
  300MOL0     H40491   5.833   6.190   1.668  4.6976  1.5703 -0.8167
  300MOL0     H40492   5.840   6.264   1.411 -0.3025 -0.2231  0.1729
  300MOL0     H40493   5.967   6.343   1.514  0.0662  1.3333 -1.3531
  300MOL0     H40494   5.897   6.498   1.389 -1.2150  0.3847 -0.5173
  300MOL0     H40495   5.819   6.535   1.540 -0.2327  3.5511 -1.8116
  300MOL0     H40496   5.592   6.460   1.464 -1.9878  0.6384 -2.1424
  300MOL0     H40497   5.652   6.379   1.335  1.0223 -1.4234  0.7640
  300MOL0     H40498   5.643   6.771   1.186  1.2796 -1.7501 -2.0465
  300MOL0     H40499   5.810   6.057   1.470 -0.6425 -0.4308 -2.2524
  300MOL0     H40500   5.741   5.836   1.440 -1.3615 -0.4497  0.6259
  301MOL0     O40501   7.880   1.954   6.716  0.6567  0.5223  0.2962
  301MOL0     C40502   7.941   1.870   6.789 -0.2290  0.3065  0.5863
  301MOL0     O40503   7.898   1.746   6.815  0.3902  0.0782 -1.0559
  301MOL0     C40504   7.784   1.700   6.751 -1.4014  1.1777 -0.1421
  301MOL0     C40505   7.784   1.569   6.688 -0.9135  0.0586 -0.8209
  301MOL0     C40506   7.656   1.519   6.641 -0.0703  0.2559 -0.1851
  301MOL0     C40507   7.543   1.598   6.653  0.2976  1.2048  0.1685
  301MOL0     O40508   7.421   1.565   6.598 -0.6413  0.5391 -0.0036
  301MOL0     C40509   7.408   1.581   6.455 -0.6515  0.4797  0.1115
  301MOL0     C40510   7.260   1.589   6.421 -0.8398 -0.3772 -1.2955
  301MOL0     C40511   7.188   1.453   6.411  0.5056 -0.6542 -0.1565
  301MOL0     C40512   7.024   1.473   6.428 -0.1820 -0.1371  0.1176
  301MOL0     C40513   6.947   1.360   6.368  0.6208  0.1031  0.3460
  301MOL0     C40514   6.966   1.339   6.215 -0.2056 -0.1761 -0.5010
  301MOL0     C40515   6.849   1.261   6.150  0.3621  0.1265 -0.2655
  301MOL0     C40516   6.844   1.122   6.211  0.2736 -0.0711  0.7853
  301MOL0     N40517   6.816   1.017   6.114 -0.0054 -0.2724  0.6359
  301MOL0     C40518   6.696   0.955   6.079  0.1952  0.5044  0.2376
  301MOL0     C40519   6.741   0.851   6.005  0.8502  0.9752  0.7722
  301MOL0     C40520   6.650   0.739   5.944 -0.5772  0.2700 -0.4565
  301MOL0     C40521   6.578   0.798   5.819  0.3582 -0.3944  0.1598
  301MOL0     C40522   6.556   0.712   5.698 -0.3518 -0.1128  0.7523
  301MOL0     C40523   6.469   0.596   5.717  0.4522  0.0136 -0.7766
  301MOL0     O40524   6.333   0.642   5.727 -0.0328 -0.1358  0.1079
  301MOL0     C40525   6.240   0.552   5.741  0.3767 -0.4020 -0.2636
  301MOL0     C40526   6.240   0.415   5.727  0.2030  0.0683 -0.3729
  301MOL0     C40527   6.124   0.333   5.732  0.2005  1.0343 -0.1092
  301MOL0     C40528   6.132   0.182   5.728 -0.6596 -0.0824  0.6153
  301MOL0     C40529   6.002   0.405   5.754 -0.5266  0.4600  0.2908
  301MOL0     C40530   5.877   0.331   5.784  0.0431  0.2524 -0.4882
  301MOL0     O40531   5.786   0.406   5.852 -0.1387 -0.4266  0.3275
  301MOL0     C40532   5.688   0.355   5.933  0.3190 -0.3174  0.0714
  301MOL0     C40533   5.610   0.449   5.992 -0.2289 -0.3049  0.7737
  301MOL0     C40534   5.533   0.427   6.102 -0.4096  0.4206  0.9345
  301MOL0     C40535   5.525   0.299   6.152  0.1393  0.0515  0.2363
  301MOL0     O40536   5.444   0.270   6.260  1.1468 -0.1006  0.0495
  301MOL0     C40537   5.356   0.163   6.243 -0.3580  0.6806  0.1781
  301MOL0     C40538   5.206   0.203   6.233 -0.1155  0.4212 -0.4305
  301MOL0     C40539   5.118   0.075   6.220  1.0502  0.1993 -1.2403
  301MOL0     C40540   4.959   0.114   6.218  0.0047  2.2318 -0.5129
  301MOL0     C40541   4.873  -0.016   6.206  1.3994 -0.1320  0.0617
  301MOL0     C40542   4.729   0.009   6.262  0.0737 -0.7551 -0.4980
  301MOL0     C40543   4.621  -0.103   6.253  0.3358 -0.6920  0.0294
  301MOL0     C40544   4.584  -0.123   6.102 -0.0070 -1.4576  1.0069
  301MOL0    Cl40545   4.452  -0.251   6.093  0.4134  0.4226  0.0777
  301MOL0     C40546   5.599   0.200   6.089 -0.5977 -0.0288  0.0804
  301MOL0     C40547   5.669   0.222   5.975 -0.1080 -0.5189  0.0626
  301MOL0     O40548   5.863   0.214   5.749  0.2443 -0.2624  0.1956
  301MOL0     C40549   6.003   0.548   5.754  0.1696  0.5406 -0.4740
  301MOL0     C40550   6.119   0.611   5.743 -0.1052  0.4088 -0.1644
  301MOL0     N40551   6.877   0.842   6.003 -0.5531 -0.1659 -0.6150
  301MOL0     N40552   6.924   0.940   6.077  0.8463 -0.8538  0.0750
  301MOL0     C40553   7.544   1.720   6.716 -0.6895  0.2236 -0.0097
  301MOL0     C40554   7.665   1.774   6.767 -0.7234  1.6591 -0.1382
  301MOL0     C40555   8.053   1.911   6.869 -0.1120 -0.7208 -0.0797
  301MOL0     C40556   8.091   2.049   6.877  0.9099  0.5140  0.1153
  301MOL0     C40557   8.208   2.090   6.950 -0.1731 -0.2185  0.1553
  301MOL0     C40558   8.300   1.992   6.998 -0.2731 -0.1101 -0.3931
  301MOL0     O40559   8.413   2.024   7.069 -0.4777 -0.8806  0.2310
  301MOL0     C40560   8.492   2.127   7.012  0.1955 -0.6558  0.2055
  301MOL0     C40561   8.597   2.151   7.117 -0.7250  0.6066  0.3434
  301MOL0     C40562   8.681   2.289   7.102 -0.3862  0.3043 -0.1355
  301MOL0     C40563   8.818   2.306   7.160  0.2031  0.4079  0.5083
  301MOL0     C40564   8.828   2.290   7.307  0.3833  0.1295 -0.0330
  301MOL0     C40565   8.812   2.266   7.421  0.9517 -0.8311 -0.2122
  301MOL0     C40566   8.263   1.850   6.991 -0.4215  0.5433 -0.0085
  301MOL0     C40567   8.140   1.817   6.932 -0.1504  0.5263 -0.0509
  301MOL0     H40568   7.875   1.509   6.682  0.4223  1.8550  0.2141
  301MOL0     H40569   7.652   1.422   6.592  0.2518 -1.2070  2.4840
  301MOL0     H40570   7.455   1.671   6.413  1.9778 -0.7738  0.1991
  301MOL0     H40571   7.452   1.491   6.411  1.4073  1.1681  0.6834
  301MOL0     H40572   7.209   1.661   6.486  0.5523  0.2567 -0.8789
  301MOL0     H40573   7.261   1.633   6.321  4.9572  1.5623 -0.7309
  301MOL0     H40574   7.199   1.405   6.313  0.7126 -0.0253 -0.4544
  301MOL0     H40575   7.222   1.376   6.480 -1.2154 -0.0782  1.4015
  301MOL0     H40576   7.006   1.483   6.535 -0.0338  0.5630  0.0821
  301MOL0     H40577   6.998   1.574   6.395 -0.1202 -0.6377 -1.5948
  301MOL0     H40578   6.986   1.268   6.411  0.7868 -0.2425 -0.5314
  301MOL0     H40579   6.841   1.373   6.394  0.2798 -1.4356 -0.1907
  301MOL0     H40580   6.966   1.431   6.157 -3.9686  0.9581  0.9551
  301MOL0     H40581   7.062   1.287   6.202  1.1444  2.1656 -0.3614
  301MOL0     H40582   6.763   1.320   6.182  1.5919  1.1826  1.2302
  301MOL0     H40583   6.869   1.266   6.042  2.3793  0.4232  0.0933
  301MOL0     H40584   6.770   1.119   6.291  0.1503 -0.2834  0.6628
  301MOL0     H40585   6.946   1.108   6.248  1.5724  2.1460 -1.5594
  301MOL0     H40586   6.595   0.991   6.097 -0.0349  0.4182 -0.7974
  301MOL0     H40587   6.713   0.664   5.897 -0.8083 -0.8508  0.9626
  301MOL0     H40588   6.587   0.698   6.024 -1.3589  1.9303 -0.1711
  301MOL0     H40589   6.644   0.880   5.788  0.9708 -0.2493  1.7653
  301MOL0     H40590   6.481   0.842   5.842 -0.5032 -1.1728 -1.7210
  301MOL0     H40591   6.652   0.668   5.668  0.9808  1.9578  1.6863
  301MOL0     H40592   6.520   0.781   5.621  1.1243  2.1530  1.9666
  301MOL0     H40593   6.483   0.556   5.818 -6.3781  1.6821  1.3829
  301MOL0     H40594   6.493   0.533   5.631 -1.6311 -1.1026 -0.6087
  301MOL0     H40595   6.324   0.353   5.698 -0.7856 -0.7495 -1.6012
  301MOL0     H40596   6.099   0.161   5.626 -1.7379 -1.7715  1.2668
  301MOL0     H40597   6.231   0.139   5.748  0.6608  0.5379 -3.6550
  301MOL0     H40598   6.070   0.122   5.795  0.2377 -1.0658  0.5933
  301MOL0     H40599   5.605   0.549   5.951 -3.4501 -0.6857 -0.0678
  301MOL0     H40600   5.477   0.505   6.154  0.8793  2.1128 -0.1072
  301MOL0     H40601   5.371   0.101   6.154  0.0449 -2.1087  2.0435
  301MOL0     H40602   5.373   0.102   6.332 -0.2929  3.3132  2.0961
  301MOL0     H40603   5.183   0.260   6.324 -0.1442  2.5746 -1.7194
  301MOL0     H40604   5.198   0.258   6.139  1.7382 -0.3276 -1.0759
  301MOL0     H40605   5.146   0.017   6.308 -1.0484 -1.2972 -1.4713
  301MOL0     H40606   5.135   0.024   6.125 -0.6388 -0.1561 -1.3889
  301MOL0     H40607   4.951   0.161   6.317  0.1915  1.0344  0.0921
  301MOL0     H40608   4.961   0.178   6.130  3.0106 -2.6572 -4.5148
  301MOL0     H40609   4.907  -0.098   6.270 -0.2110  1.0175  2.5518
  301MOL0     H40610   4.869  -0.048   6.101  1.1969 -2.1249  0.6260
  301MOL0     H40611   4.735   0.029   6.370  0.2357  0.0128 -0.6450
  301MOL0     H40612   4.692   0.102   6.218 -1.3422  0.5378  3.0678
  301MOL0     H40613   4.538  -0.072   6.317  1.1479  3.2659 -0.5345
  301MOL0     H40614   4.655  -0.202   6.284  4.4916  0.6758  0.4246
  301MOL0     H40615   4.680  -0.155   6.062  2.4708  5.4979 -0.0076
  301MOL0     H40616   4.559  -0.031   6.048 -1.9257 -2.2596  0.4416
  301MOL0     H40617   5.590   0.098   6.125 -0.3580 -0.5478 -1.2768
  301MOL0     H40618   5.728   0.146   5.925 -0.6120 -0.3980 -0.7422
  301MOL0     H40619   5.916   0.611   5.771 -1.7399 -1.1684 -3.1225
  301MOL0     H40620   6.115   0.720   5.742  0.1549  0.4149 -1.0748
  301MOL0     H40621   7.466   1.794   6.705 -0.3274  0.5747 -0.2546
  301MOL0     H40622   7.660   1.870   6.817  0.8960 -0.0251  3.6200
  301MOL0     H40623   8.017   2.122   6.847 -2.4219 -2.3898  0.5685
  301MOL0     H40624   8.217   2.197   6.965 -4.4979  0.5769 -1.4169
  301MOL0     H40625   8.535   2.098   6.916  2.5966  0.3173  0.9250
  301MOL0     H40626   8.431   2.217   7.004 -0.9313 -1.3192  0.9791
  301MOL0     H40627   8.674   2.073   7.116 -0.8049  0.4928 -1.4350
  301MOL0     H40628   8.555   2.161   7.217 -0.9504  2.3623  0.1199
  301MOL0     H40629   8.622   2.371   7.144 -0.7046  0.1060 -0.1828
  301MOL0     H40630   8.707   2.295   6.996  0.8958  0.0597  0.1500
  301MOL0     H40631   8.854   2.407   7.139  0.2297  0.0346 -1.3782
  301MOL0     H40632   8.881   2.239   7.100 -1.4409 -0.8388  0.1097
  301MOL0     H40633   8.800   2.254   7.527 -3.1353  0.6767 -0.3163
  301MOL0     H40634   8.337   1.788   7.041 -1.5677  1.9932  3.8928
  301MOL0     H40635   8.095   1.719   6.940 -0.5556  0.6007 -1.2387
  302MOL0     O40636   4.070   9.224   2.168 -0.7731  0.1032  0.8579
  302MOL0     C40637   3.998   9.229   2.067 -0.0593  0.5540  0.0376
  302MOL0     O40638   3.940   9.342   2.011  0.3476 -0.0107 -0.6975
  302MOL0     C40639   3.946   9.468   2.063  0.8407  0.0946  0.6717
  302MOL0     C40640   3.902   9.563   1.970 -0.1903  0.1013  0.8031
  302MOL0     C40641   3.897   9.704   1.997 -0.2872 -0.0803  0.4677
  302MOL0     C40642   3.933   9.752   2.123  0.4445  0.7402 -0.3053
  302MOL0     O40643   3.932   9.876   2.170 -0.6338 -0.7637 -0.9756
  302MOL0     C40644   3.815   9.962   2.142  0.9799 -0.4188 -0.1747
  302MOL0     C40645   3.807  10.074   2.224  0.1966 -0.1657 -1.0084
  302MOL0     C40646   3.665  10.134   2.219 -1.1495 -0.4840 -0.4273
  302MOL0     C40647   3.650  10.240   2.333 -0.2242  0.5397 -0.7679
  302MOL0     C40648   3.610  10.180   2.471 -0.2511 -0.2616 -0.4375
  302MOL0     C40649   3.619  10.286   2.583 -0.9118  0.3392  0.5261
  302MOL0     C40650   3.578  10.247   2.710 -0.2200 -0.6092 -0.3116
  302MOL0     C40651   3.447  10.171   2.728  0.7040 -0.0081 -0.2356
  302MOL0     N40652   3.429  10.141   2.867 -0.0404 -1.0340 -0.3069
  302MOL0     C40653   3.450  10.236   2.965 -0.0887 -0.1265  0.3098
  302MOL0     C40654   3.419  10.172   3.082 -0.7907 -0.3881  0.9103
  302MOL0     C40655   3.432  10.222   3.220 -0.5769 -0.6472 -0.3925
  302MOL0     C40656   3.357  10.356   3.229 -1.2826 -0.7414 -1.0654
  302MOL0     C40657   3.353  10.405   3.366  0.4280 -0.2498 -0.5206
  302MOL0     C40658   3.301  10.550   3.388 -0.4822  0.0537 -0.6454
  302MOL0     O40659   3.401  10.651   3.404  0.3181  0.1052  0.0673
  302MOL0     C40660   3.394  10.755   3.321  0.6293 -0.0305  0.6400
  302MOL0     C40661   3.512  10.831   3.308  0.5853 -0.4565 -0.4567
  302MOL0     C40662   3.527  10.929   3.211 -1.4998  0.3301 -0.7210
  302MOL0     C40663   3.664  11.001   3.222 -0.0320 -0.3606 -1.0745
  302MOL0     C40664   3.420  10.971   3.135  0.5603 -0.5719 -0.2547
  302MOL0     C40665   3.430  11.074   3.031 -0.6335 -0.5752 -0.5286
  302MOL0     O40666   3.313  11.129   2.994  0.1834 -0.2164  0.6969
  302MOL0     C40667   3.306  11.199   2.883 -0.8472 -0.5971 -0.0723
  302MOL0     C40668   3.228  11.169   2.773  0.9452  0.1549 -1.1125
  302MOL0     C40669   3.228  11.255   2.668 -1.9176  0.4091  0.4047
  302MOL0     C40670   3.306  11.375   2.655  0.7051  0.6451  0.0731
  302MOL0     O40671   3.307  11.443   2.541  0.4807 -0.0485 -0.2015
  302MOL0     C40672   3.304  11.586   2.555 -0.2756  0.2950 -0.9154
  302MOL0     C40673   3.215  11.638   2.441  0.1019  0.3783 -1.0715
  302MOL0     C40674   3.072  11.607   2.483 -0.0006 -0.3353 -0.2783
  302MOL0     C40675   3.001  11.479   2.426 -0.0778  0.4361 -0.3524
  302MOL0     C40676   2.852  11.459   2.456 -0.1118  0.1781 -0.4706
  302MOL0     C40677   2.807  11.342   2.374  0.1876  0.1966  0.1349
  302MOL0     C40678   2.657  11.336   2.359  0.2103  0.4745  0.9944
  302MOL0     C40679   2.606  11.266   2.233 -0.1033  0.5681  0.1352
  302MOL0    Cl40680   2.427  11.303   2.236  0.3409 -0.0254  0.0190
  302MOL0     C40681   3.381  11.411   2.769 -0.1450 -0.2394  0.3191
  302MOL0     C40682   3.378  11.324   2.886 -0.2740 -0.2933  0.3251
  302MOL0     O40683   3.539  11.116   2.990  0.5435  0.2825 -0.2723
  302MOL0     C40684   3.299  10.908   3.153  0.8082 -0.8111 -0.1783
  302MOL0     C40685   3.284  10.799   3.249 -0.0488 -0.5865  0.4810
  302MOL0     N40686   3.366  10.052   3.041 -0.3141 -1.6391 -0.7278
  302MOL0     N40687   3.370  10.034   2.921 -0.6894  0.0919 -0.0828
  302MOL0     C40688   3.977   9.649   2.225 -0.0903 -1.0252  0.5308
  302MOL0     C40689   3.984   9.515   2.187 -0.1487 -0.4236 -0.6324
  302MOL0     C40690   3.970   9.104   1.989 -0.6341  0.6482 -0.2276
  302MOL0     C40691   3.933   9.110   1.857  0.0922  0.2050  0.3986
  302MOL0     C40692   3.911   8.993   1.789 -0.3205 -0.2271  0.6667
  302MOL0     C40693   3.937   8.869   1.846  0.3039  0.9595  0.4726
  302MOL0     O40694   3.937   8.750   1.773 -0.7521  0.5871  0.5181
  302MOL0     C40695   3.879   8.742   1.641 -0.5292  1.4007 -0.4111
  302MOL0     C40696   3.975   8.785   1.525 -0.3452 -0.2533  0.4427
  302MOL0     C40697   4.100   8.699   1.500  0.1145 -0.2208  0.4197
  302MOL0     C40698   4.158   8.743   1.361 -0.2820  0.7288 -0.3535
  302MOL0     C40699   4.180   8.882   1.348  0.4035 -0.0160  0.7821
  302MOL0     C40700   4.180   9.002   1.311 -1.0120  0.8429 -0.0918
  302MOL0     C40701   3.971   8.858   1.976 -1.1142 -0.4392 -0.0304
  302MOL0     C40702   3.988   8.978   2.043 -0.1782 -0.1630 -0.5406
  302MOL0     H40703   3.874   9.544   1.867 -0.3560  0.8438  0.7031
  302MOL0     H40704   3.870   9.768   1.913  1.7785 -0.4466 -0.5220
  302MOL0     H40705   3.819   9.988   2.036 -1.9748 -0.3183 -0.3547
  302MOL0     H40706   3.729   9.895   2.154  1.6273 -0.8133  3.9302
  302MOL0     H40707   3.829  10.047   2.328 -2.3835  0.4067 -0.2439
  302MOL0     H40708   3.877  10.147   2.183 -1.6739  0.5550 -3.1095
  302MOL0     H40709   3.653  10.182   2.121 -0.8912  0.7012  0.1099
  302MOL0     H40710   3.587  10.058   2.228 -2.0731  0.5343  0.5889
  302MOL0     H40711   3.737  10.306   2.336  0.5362 -0.3417  3.2957
  302MOL0     H40712   3.571  10.309   2.302 -0.8775  0.6733  1.0426
  302MOL0     H40713   3.508  10.140   2.467  0.1966 -1.7019  1.2223
  302MOL0     H40714   3.670  10.094   2.504  0.5325  1.0646  1.8378
  302MOL0     H40715   3.717  10.334   2.588  1.1174 -3.3702  0.1111
  302MOL0     H40716   3.546  10.361   2.553  0.6021  1.3915 -0.7045
  302MOL0     H40717   3.641  10.172   2.759 -2.8566 -2.5560  0.3695
  302MOL0     H40718   3.567  10.341   2.764 -2.2219 -0.9549 -0.0353
  302MOL0     H40719   3.436  10.083   2.663  2.0226 -0.6262  0.3511
  302MOL0     H40720   3.378  10.244   2.684  1.0515 -1.0896 -2.7427
  302MOL0     H40721   3.494  10.335   2.955  2.7269 -0.6849  4.5986
  302MOL0     H40722   3.389  10.158   3.298 -4.0266  2.9317  0.9756
  302MOL0     H40723   3.540  10.231   3.234 -0.7993 -0.2552  1.3617
  302MOL0     H40724   3.254  10.359   3.191 -1.6996  3.5084 -0.1588
  302MOL0     H40725   3.407  10.428   3.165  2.3194 -0.8753  1.3200
  302MOL0     H40726   3.454  10.386   3.404  0.4083  1.3425  0.4072
  302MOL0     H40727   3.283  10.345   3.425  1.4369 -2.0237 -1.0165
  302MOL0     H40728   3.252  10.571   3.484 -1.7785 -0.9750 -1.0401
  302MOL0     H40729   3.213  10.559   3.323 -2.3564  0.0103  1.7662
  302MOL0     H40730   3.596  10.812   3.374  0.9560  1.6962 -0.2469
  302MOL0     H40731   3.690  11.015   3.327  0.6849 -1.9691 -1.0114
  302MOL0     H40732   3.739  10.934   3.179 -0.3647 -0.8659 -0.8665
  302MOL0     H40733   3.677  11.101   3.179  0.6447 -0.1768 -0.4684
  302MOL0     H40734   3.187  11.070   2.758  0.9881  0.3296 -2.5778
  302MOL0     H40735   3.177  11.238   2.574  1.6990  1.2202 -1.9002
  302MOL0     H40736   3.273  11.613   2.657  2.8721 -2.3120  0.9213
  302MOL0     H40737   3.404  11.625   2.539 -0.8104  1.7602 -0.8716
  302MOL0     H40738   3.227  11.747   2.440  2.4822  0.2146  0.9225
  302MOL0     H40739   3.231  11.599   2.340 -0.3192  2.3401 -1.9570
  302MOL0     H40740   3.018  11.685   2.430  3.5579  2.1208 -0.5733
  302MOL0     H40741   3.066  11.627   2.591  2.9791  0.8107 -0.2464
  302MOL0     H40742   3.015  11.491   2.318  2.4832 -4.3552 -0.7974
  302MOL0     H40743   3.055  11.387   2.448  0.7909  1.0688  0.2326
  302MOL0     H40744   2.801  11.550   2.421  1.9729  1.6370  0.0638
  302MOL0     H40745   2.825  11.441   2.560 -2.5650 -2.5316 -1.4264
  302MOL0     H40746   2.846  11.338   2.272 -2.2488 -0.8833 -0.8272
  302MOL0     H40747   2.843  11.249   2.419  0.9216  0.3492 -0.1304
  302MOL0     H40748   2.613  11.436   2.362 -0.5041  0.3074 -1.4807
  302MOL0     H40749   2.627  11.280   2.448 -1.5134 -2.0836 -1.0423
  302MOL0     H40750   2.619  11.157   2.232  1.4730  0.7254  1.1295
  302MOL0     H40751   2.645  11.314   2.143  2.6298  2.8637  2.3336
  302MOL0     H40752   3.425  11.510   2.781 -2.0826  0.6110  0.8871
  302MOL0     H40753   3.432  11.361   2.973  0.9679 -2.1808  0.3936
  302MOL0     H40754   3.209  10.940   3.101  0.5263 -3.0866 -1.2283
  302MOL0     H40755   3.184  10.756   3.263 -1.8512  3.4124  1.1475
  302MOL0     H40756   4.004   9.689   2.322  0.7810 -1.1682  0.3570
  302MOL0     H40757   4.010   9.444   2.265  1.6478 -3.1318 -3.4828
  302MOL0     H40758   3.903   9.199   1.802  0.3479 -0.7016 -1.2694
  302MOL0     H40759   3.880   9.014   1.688  0.2220  1.2187  0.7742
  302MOL0     H40760   3.860   8.637   1.618  0.4756  1.0632  0.2033
  302MOL0     H40761   3.779   8.782   1.656 -1.2594 -0.3217 -0.4416
  302MOL0     H40762   3.999   8.891   1.543 -1.7878  0.2077 -0.2259
  302MOL0     H40763   3.914   8.772   1.436 -0.2916  0.5441  0.2823
  302MOL0     H40764   4.076   8.593   1.489  2.4799 -0.5963 -2.2642
  302MOL0     H40765   4.173   8.720   1.578  2.4058 -1.5679 -1.2372
  302MOL0     H40766   4.073   8.717   1.297 -1.3737  0.9735  0.9533
  302MOL0     H40767   4.249   8.687   1.334  0.6391  1.6761  0.6856
  302MOL0     H40768   4.194   9.107   1.295 -1.6695  1.6403  3.6395
  302MOL0     H40769   3.981   8.763   2.028  1.4958 -1.2983 -1.8746
  302MOL0     H40770   4.015   8.974   2.148  0.8183 -3.8753 -0.8088
  303MOL0     O40771   3.482   1.945  10.593 -0.5047  0.1869 -0.3000
  303MOL0     C40772   3.493   2.063  10.553 -0.0988  0.3421 -0.3744
  303MOL0     O40773   3.605   2.129  10.542  0.1347  0.7712  0.3078
  303MOL0     C40774   3.734   2.093  10.580  0.1843 -0.9742 -0.2459
  303MOL0     C40775   3.777   1.963  10.607 -0.5684  0.3612 -0.3551
  303MOL0     C40776   3.900   1.929  10.657 -0.1776 -0.2433 -0.4247
  303MOL0     C40777   3.994   2.031  10.659  0.9738  0.5678 -0.5915
  303MOL0     O40778   4.113   2.001  10.706  0.0089  0.5162  0.1120
  303MOL0     C40779   4.232   2.068  10.646  0.3429  0.4399  0.1573
  303MOL0     C40780   4.341   1.970  10.621  1.2224 -0.0070 -0.1615
  303MOL0     C40781   4.358   1.882  10.747 -0.3910 -0.1532 -0.9738
  303MOL0     C40782   4.472   1.778  10.735  1.5534  0.0158  0.4769
  303MOL0     C40783   4.459   1.653  10.817  0.2108  0.3094 -0.4940
  303MOL0     C40784   4.594   1.583  10.791 -1.0771 -0.3185 -0.0309
  303MOL0     C40785   4.597   1.431  10.792  0.2950 -0.3564  0.3985
  303MOL0     C40786   4.586   1.376  10.936  0.9415 -0.4094  0.9984
  303MOL0     N40787   4.713   1.366  11.006 -0.0937  0.5655 -0.0908
  303MOL0     C40788   4.711   1.352  11.142  0.6129  0.5814  0.0506
  303MOL0     C40789   4.841   1.337  11.174 -0.0891  0.0034  0.3072
  303MOL0     C40790   4.908   1.324  11.310 -0.1604  0.6078 -0.3189
  303MOL0     C40791   4.882   1.453  11.397  0.4707 -0.2620  0.0172
  303MOL0     C40792   5.002   1.466  11.493  0.5473 -0.5303  0.2833
  303MOL0     C40793   4.972   1.371  11.618 -0.8230  0.1346 -0.0982
  303MOL0     O40794   5.040   1.242  11.612  0.3121 -0.1060 -0.0902
  303MOL0     C40795   4.980   1.143  11.670  0.0473  0.3658  0.1464
  303MOL0     C40796   4.881   1.140  11.768 -1.0898  0.1235  0.0077
  303MOL0     C40797   4.828   1.022  11.822  0.2641 -0.3346  0.5337
  303MOL0     C40798   4.729   1.047  11.935  1.2501 -0.0853  0.0875
  303MOL0     C40799   4.859   0.893  11.768 -1.0021 -0.0684 -0.2185
  303MOL0     C40800   4.797   0.764  11.821  0.3732 -1.2532 -0.0216
  303MOL0     O40801   4.797   0.656  11.739 -0.1760 -0.0786  0.0684
  303MOL0     C40802   4.771   0.529  11.785  0.5270  0.1974  0.5249
  303MOL0     C40803   4.811   0.466  11.911  0.0405 -0.2241 -0.7071
  303MOL0     C40804   4.764   0.337  11.943 -0.0866 -0.5655 -0.2186
  303MOL0     C40805   4.676   0.268  11.860 -0.3407 -0.0929  0.0397
  303MOL0     O40806   4.611   0.150  11.904  0.4736 -0.2303  0.1397
  303MOL0     C40807   4.539   0.070  11.817  0.2245 -0.0028 -0.0811
  303MOL0     C40808   4.640  -0.039  11.761  0.5990 -0.9727 -0.0037
  303MOL0     C40809   4.579  -0.176  11.697  0.6352  0.2047 -1.0210
  303MOL0     C40810   4.654  -0.312  11.699 -0.6380 -0.2570 -0.0837
  303MOL0     C40811   4.803  -0.274  11.663 -0.4989 -1.1859  1.2167
  303MOL0     C40812   4.879  -0.403  11.643 -0.1011 -0.2459  1.0617
  303MOL0     C40813   5.037  -0.407  11.607  0.8065 -0.7578  0.0543
  303MOL0     C40814   5.101  -0.334  11.493 -0.6402 -0.7441 -0.1814
  303MOL0    Cl40815   5.086  -0.438  11.344 -0.0226 -0.3079 -0.0082
  303MOL0     C40816   4.655   0.321  11.736 -0.0206 -0.5725  0.1774
  303MOL0     C40817   4.703   0.449  11.694  0.1655  0.0719  0.1518
  303MOL0     O40818   4.757   0.762  11.933  0.0534  0.5209 -0.0358
  303MOL0     C40819   4.969   0.888  11.673  0.0545 -0.4599  0.6913
  303MOL0     C40820   5.025   1.009  11.625  0.5694  0.0112 -1.0318
  303MOL0     N40821   4.919   1.333  11.058 -0.3101  0.1277  1.2235
  303MOL0     N40822   4.833   1.336  10.953 -0.1085 -0.0637  0.1983
  303MOL0     C40823   3.947   2.159  10.644 -0.3634 -0.3427  0.0714
  303MOL0     C40824   3.819   2.194  10.605 -0.9843  0.4475 -0.1676
  303MOL0     C40825   3.364   2.133  10.544 -0.3319  0.6087 -0.0346
  303MOL0     C40826   3.244   2.079  10.592 -0.7964 -0.0050 -0.3008
  303MOL0     C40827   3.133   2.156  10.585  0.5919  0.0350 -0.1186
  303MOL0     C40828   3.125   2.283  10.535 -0.1873 -0.4933  0.4289
  303MOL0     O40829   3.012   2.360  10.512  0.4063  0.0828 -0.2942
  303MOL0     C40830   2.879   2.325  10.560 -0.6138 -0.0743 -0.4345
  303MOL0     C40831   2.850   2.373  10.699  0.0168 -0.7438 -0.1180
  303MOL0     C40832   2.692   2.387  10.720 -0.2395  0.2725 -0.4688
  303MOL0     C40833   2.662   2.442  10.862  0.6264 -0.5586  0.7490
  303MOL0     C40834   2.693   2.583  10.880 -0.1264 -0.8852 -0.1573
  303MOL0     C40835   2.701   2.708  10.892  0.8853  1.7526 -0.1193
  303MOL0     C40836   3.242   2.335  10.481  0.2944  0.0604 -0.4264
  303MOL0     C40837   3.363   2.265  10.494 -0.5913 -0.1307  0.1086
  303MOL0     H40838   3.704   1.884  10.617 -1.4333  1.3960  2.7088
  303MOL0     H40839   3.923   1.824  10.675  0.9624  0.1262  0.3977
  303MOL0     H40840   4.216   2.121  10.551  2.8872  2.0407  0.5183
  303MOL0     H40841   4.265   2.141  10.720  1.6218 -1.9170  2.0585
  303MOL0     H40842   4.307   1.910  10.536  0.5313  1.3237 -0.8548
  303MOL0     H40843   4.439   2.010  10.592  1.6272 -0.9174 -0.0783
  303MOL0     H40844   4.372   1.943  10.837 -1.7150  1.8044 -2.0348
  303MOL0     H40845   4.264   1.832  10.773 -0.3655 -0.3773 -1.3106
  303MOL0     H40846   4.495   1.758  10.629 -0.9822  1.0357 -0.3389
  303MOL0     H40847   4.555   1.837  10.775  3.8404 -3.2219  0.8238
  303MOL0     H40848   4.451   1.670  10.925  2.5423  0.1778 -0.2375
  303MOL0     H40849   4.377   1.591  10.780  0.2237  0.8387 -1.4351
  303MOL0     H40850   4.625   1.614  10.691 -0.5371  0.3246  0.3277
  303MOL0     H40851   4.665   1.616  10.867 -1.2828 -0.7861  0.3715
  303MOL0     H40852   4.516   1.387  10.734  0.6323  0.1968 -0.5134
  303MOL0     H40853   4.695   1.398  10.757  0.7456  0.0375  1.2596
  303MOL0     H40854   4.541   1.277  10.950 -0.0978  0.0895  1.3272
  303MOL0     H40855   4.522   1.445  10.993 -2.5158 -2.1972 -0.4771
  303MOL0     H40856   4.621   1.371  11.200 -0.0074 -0.1334 -0.6452
  303MOL0     H40857   4.867   1.233  11.354  2.3580 -0.2689  0.3822
  303MOL0     H40858   5.011   1.287  11.310 -0.8547 -1.4259 -0.5765
  303MOL0     H40859   4.786   1.449  11.448  0.0994 -2.1393 -0.7471
  303MOL0     H40860   4.876   1.540  11.333 -1.6451 -1.5217 -1.6181
  303MOL0     H40861   5.014   1.569  11.527  0.3951  0.2207 -1.8495
  303MOL0     H40862   5.101   1.449  11.449 -0.7237 -0.6115 -2.7830
  303MOL0     H40863   4.863   1.365  11.617 -0.7496 -2.4271  0.8333
  303MOL0     H40864   5.006   1.420  11.710 -4.8848 -1.1650  2.3571
  303MOL0     H40865   4.839   1.233  11.805 -1.1957 -0.9433  2.7765
  303MOL0     H40866   4.641   0.982  11.929  1.4139 -0.2989  0.0039
  303MOL0     H40867   4.779   1.019  12.028  0.9426  1.9833  0.9223
  303MOL0     H40868   4.692   1.150  11.933  0.7380 -0.2731 -0.7560
  303MOL0     H40869   4.865   0.525  11.984  3.2913 -1.3925 -1.9691
  303MOL0     H40870   4.801   0.298  12.037  3.7270 -0.1775 -1.3491
  303MOL0     H40871   4.467   0.010  11.874 -2.0193  2.9821  0.4268
  303MOL0     H40872   4.486   0.122  11.736  2.1233  1.5835 -0.3798
  303MOL0     H40873   4.697   0.010  11.681 -2.3985  1.1852 -1.0228
  303MOL0     H40874   4.711  -0.065  11.839  0.6454 -1.4818 -0.2137
  303MOL0     H40875   4.558  -0.144  11.594 -0.6008 -0.4414 -0.9838
  303MOL0     H40876   4.481  -0.187  11.744 -0.1595  5.9407 -0.6263
  303MOL0     H40877   4.650  -0.366  11.794 -0.0465  2.5638  1.6555
  303MOL0     H40878   4.603  -0.372  11.623 -2.2610  1.5335 -0.4831
  303MOL0     H40879   4.846  -0.209  11.740  0.5657 -1.8629  1.2180
  303MOL0     H40880   4.797  -0.212  11.573 -1.1727 -2.6826  0.1754
  303MOL0     H40881   4.866  -0.439  11.745 -0.0379 -0.1790  1.0935
  303MOL0     H40882   4.818  -0.461  11.573  0.7028  1.5024 -1.2126
  303MOL0     H40883   5.072  -0.510  11.623  1.0359 -0.3354  2.5598
  303MOL0     H40884   5.080  -0.357  11.694 -1.1945 -1.2321  1.3831
  303MOL0     H40885   5.209  -0.321  11.501 -0.8220  0.6282  0.3054
  303MOL0     H40886   5.060  -0.234  11.471 -0.4666  0.0743  2.7774
  303MOL0     H40887   4.584   0.278  11.667 -0.5179  0.7288 -0.1538
  303MOL0     H40888   4.667   0.482  11.597 -0.7535 -2.3766 -0.4137
  303MOL0     H40889   5.014   0.813  11.609 -2.4557  0.0983 -1.9727
  303MOL0     H40890   5.102   1.006  11.548 -0.6993  0.2665 -2.3581
  303MOL0     H40891   4.017   2.242  10.653 -0.1303  0.2144 -4.4366
  303MOL0     H40892   3.786   2.298  10.599  0.6444  0.9142 -2.0462
  303MOL0     H40893   3.214   1.983  10.633 -3.9469  1.0040  0.0161
  303MOL0     H40894   3.038   2.120  10.625 -0.3014  0.2443 -1.9395
  303MOL0     H40895   2.815   2.390  10.499  0.5746  1.4256 -0.1615
  303MOL0     H40896   2.850   2.223  10.533  0.1971 -0.7283  1.0834
  303MOL0     H40897   2.888   2.474  10.714  1.2142 -1.0689 -0.8607
  303MOL0     H40898   2.894   2.299  10.766  1.0385 -3.2827 -3.3347
  303MOL0     H40899   2.646   2.290  10.698 -1.3497  1.0860 -1.8913
  303MOL0     H40900   2.653   2.454  10.643 -2.2004 -1.3533 -0.9955
  303MOL0     H40901   2.726   2.382  10.928  4.5046 -0.4559 -2.4835
  303MOL0     H40902   2.554   2.431  10.875  0.3157  2.0138  0.8330
  303MOL0     H40903   2.709   2.814  10.905  1.7631  1.5197  1.5716
  303MOL0     H40904   3.240   2.433  10.434 -1.9273  0.0915 -0.3985
  303MOL0     H40905   3.448   2.316  10.449 -0.1442 -2.6842 -2.2042
  304MOL0     O40906   6.086   6.904   1.706 -0.2125  0.0536 -0.2061
  304MOL0     C40907   6.079   7.005   1.642  0.3435 -0.0691  0.5752
  304MOL0     O40908   6.061   7.010   1.505 -0.2807 -0.1235 -0.0302
  304MOL0     C40909   6.076   6.908   1.412  0.1746 -0.2571  0.2740
  304MOL0     C40910   6.209   6.903   1.355  0.4435 -0.3228  0.7848
  304MOL0     C40911   6.223   6.822   1.239 -0.9652 -0.1019 -0.8630
  304MOL0     C40912   6.119   6.756   1.178  0.7745 -0.1342 -0.1054
  304MOL0     O40913   6.142   6.683   1.064 -0.5391  0.2589 -0.9003
  304MOL0     C40914   6.228   6.727   0.958 -0.0855 -0.5970 -0.2233
  304MOL0     C40915   6.315   6.621   0.908 -0.4042 -0.1073 -0.3488
  304MOL0     C40916   6.404   6.670   0.790  0.3405 -0.3391 -0.2193
  304MOL0     C40917   6.510   6.564   0.754  0.2451 -0.4622 -0.1125
  304MOL0     C40918   6.588   6.614   0.641 -0.7123  0.7104 -0.2385
  304MOL0     C40919   6.718   6.544   0.636  0.4038 -0.5222  0.1798
  304MOL0     C40920   6.796   6.614   0.522  0.4278 -1.0027  0.3824
  304MOL0     C40921   6.895   6.527   0.460 -0.4686  0.1673 -0.3300
  304MOL0     N40922   7.026   6.530   0.526 -0.2396  0.4739 -0.4140
  304MOL0     C40923   7.071   6.436   0.613 -0.3397  0.5695 -0.2188
  304MOL0     C40924   7.199   6.475   0.639 -0.4002 -0.2152  0.1289
  304MOL0     C40925   7.312   6.412   0.714 -0.0980 -0.6308 -0.5762
  304MOL0     C40926   7.363   6.292   0.627  0.2746 -0.2766 -0.0204
  304MOL0     C40927   7.422   6.339   0.488 -0.1180 -0.0733 -0.4492
  304MOL0     C40928   7.556   6.425   0.482  1.4641  1.6207 -0.8106
  304MOL0     O40929   7.669   6.333   0.504 -0.9033  0.5894  1.0012
  304MOL0     C40930   7.796   6.387   0.530  0.0625 -0.4491  0.7071
  304MOL0     C40931   7.834   6.517   0.487 -0.3273  0.1230 -0.2685
  304MOL0     C40932   7.967   6.557   0.517 -1.2024  0.8020 -0.6194
  304MOL0     C40933   7.998   6.698   0.480 -0.5024  0.6233  0.4194
  304MOL0     C40934   8.067   6.471   0.567  0.5524 -0.5173 -0.5778
  304MOL0     C40935   8.208   6.512   0.591 -0.4224  0.2739 -0.1505
  304MOL0     O40936   8.279   6.443   0.689 -0.3299 -0.2419  0.4561
  304MOL0     C40937   8.412   6.421   0.656 -0.0773 -0.3865 -0.3881
  304MOL0     C40938   8.445   6.292   0.623  0.0020 -0.0245 -1.3917
  304MOL0     C40939   8.576   6.253   0.605  0.9386 -0.2297 -0.2374
  304MOL0     C40940   8.677   6.345   0.616  0.0779 -0.6177  0.2843
  304MOL0     O40941   8.797   6.290   0.575  0.1012  0.2315  0.3039
  304MOL0     C40942   8.923   6.364   0.583  0.1345  0.2485  0.1108
  304MOL0     C40943   8.936   6.437   0.453  0.5178 -0.4892  0.2162
  304MOL0     C40944   9.034   6.555   0.450 -1.1021 -0.0230  0.3468
  304MOL0     C40945   9.178   6.523   0.457 -0.3066  1.1642 -1.1060
  304MOL0     C40946   9.283   6.623   0.424  0.3403 -0.3185  0.5605
  304MOL0     C40947   9.333   6.689   0.554 -0.4375 -0.6724  0.1596
  304MOL0     C40948   9.422   6.797   0.529 -0.3433 -0.1527 -0.0961
  304MOL0     C40949   9.453   6.867   0.655 -0.3776  0.2091 -0.5788
  304MOL0    Cl40950   9.561   6.998   0.611 -0.5106  0.1220  0.1819
  304MOL0     C40951   8.655   6.472   0.648  0.0202 -0.1948 -0.2755
  304MOL0     C40952   8.517   6.515   0.669  0.4343  0.1155 -0.0195
  304MOL0     O40953   8.255   6.606   0.528  0.7055  0.1732 -0.3780
  304MOL0     C40954   8.028   6.343   0.604  0.3433  1.8308 -1.3043
  304MOL0     C40955   7.893   6.307   0.588 -1.0403  0.2026 -0.2161
  304MOL0     N40956   7.224   6.602   0.585 -0.6710  1.2507  0.1691
  304MOL0     N40957   7.114   6.636   0.521  0.1343  0.2500  0.0395
  304MOL0     C40958   5.999   6.741   1.244  0.1845  0.3086  0.4669
  304MOL0     C40959   5.984   6.818   1.359 -0.5733  0.6397  0.2692
  304MOL0     C40960   6.088   7.136   1.709 -0.7140 -0.2703  0.3671
  304MOL0     C40961   6.052   7.262   1.647  0.1712  0.4799 -0.7525
  304MOL0     C40962   6.079   7.381   1.706  0.5584 -0.0976  1.1253
  304MOL0     C40963   6.132   7.387   1.835 -0.0506  0.5058 -0.5575
  304MOL0     O40964   6.153   7.509   1.910 -0.0853 -0.7807 -0.5315
  304MOL0     C40965   6.247   7.515   2.020  0.1543  0.5077 -0.2914
  304MOL0     C40966   6.324   7.649   2.011 -0.0680  0.9120  0.3733
  304MOL0     C40967   6.288   7.751   2.119  0.7374  0.5616 -0.0341
  304MOL0     C40968   6.391   7.777   2.229  1.0154 -1.1991  0.2171
  304MOL0     C40969   6.491   7.878   2.206  1.1405 -0.1121  0.6798
  304MOL0     C40970   6.577   7.963   2.183  0.5248  0.8369  0.3928
  304MOL0     C40971   6.158   7.268   1.897 -0.7742  0.9423 -0.1602
  304MOL0     C40972   6.140   7.145   1.839  0.5884  0.9924 -0.7427
  304MOL0     H40973   6.288   6.970   1.386 -1.0142 -0.6388  6.1082
  304MOL0     H40974   6.322   6.822   1.194  0.8150 -1.8865  2.6401
  304MOL0     H40975   6.168   6.789   0.891 -4.4813 -1.5121  2.4939
  304MOL0     H40976   6.298   6.794   1.010  1.8227 -3.1515  0.7157
  304MOL0     H40977   6.391   6.605   0.985 -1.4968  0.7065  0.9409
  304MOL0     H40978   6.254   6.533   0.888  0.0660 -1.1224  2.2497
  304MOL0     H40979   6.340   6.692   0.704  0.4890  0.8947 -0.0341
  304MOL0     H40980   6.462   6.757   0.821  2.9250 -0.9436 -2.8203
  304MOL0     H40981   6.573   6.541   0.841  0.5844  0.0942 -0.2078
  304MOL0     H40982   6.471   6.469   0.716  3.1134 -1.6315 -0.4141
  304MOL0     H40983   6.531   6.588   0.551 -1.0385 -0.4149  0.2734
  304MOL0     H40984   6.608   6.720   0.663 -0.0260  0.6103 -0.3577
  304MOL0     H40985   6.774   6.552   0.730  3.5645  1.4756 -1.7132
  304MOL0     H40986   6.699   6.439   0.614 -0.2929 -0.5657  0.9451
  304MOL0     H40987   6.730   6.649   0.443  1.9451  0.4626 -0.2862
  304MOL0     H40988   6.847   6.701   0.565 -1.0305 -0.0027  0.1285
  304MOL0     H40989   6.914   6.565   0.359  2.2578 -0.4917 -0.1456
  304MOL0     H40990   6.850   6.428   0.463  0.7261 -0.3931 -0.5340
  304MOL0     H40991   7.032   6.338   0.641  1.4038  0.3274  1.5747
  304MOL0     H40992   7.385   6.492   0.734 -1.0602  0.3303 -0.7955
  304MOL0     H40993   7.285   6.360   0.807 -0.1911 -0.7915 -0.6937
  304MOL0     H40994   7.278   6.232   0.594 -0.8693  2.9390 -3.6868
  304MOL0     H40995   7.439   6.238   0.684 -0.0978 -0.2220  0.5250
  304MOL0     H40996   7.337   6.387   0.439 -2.1647 -0.8230  2.1169
  304MOL0     H40997   7.456   6.251   0.433  1.9407 -0.0184  0.6652
  304MOL0     H40998   7.551   6.507   0.554 -0.7062  1.4914 -0.7757
  304MOL0     H40999   7.560   6.472   0.383 -0.4141  1.4149 -1.0059
  304MOL0     H41000   7.770   6.585   0.432  0.5064  1.1742  0.0494
  304MOL0     H41001   8.047   6.695   0.382  1.5457 -2.0827  1.4089
  304MOL0     H41002   7.899   6.743   0.469 -1.5900 -1.4294  1.2040
  304MOL0     H41003   8.054   6.749   0.559  1.0477 -1.8541  1.0136
  304MOL0     H41004   8.368   6.217   0.604  2.2971 -2.5359 -1.2826
  304MOL0     H41005   8.604   6.148   0.600  2.1329  0.0850 -0.2716
  304MOL0     H41006   8.913   6.429   0.670 -3.2118  0.7148 -0.4965
  304MOL0     H41007   9.008   6.298   0.605 -1.0118 -0.2960  3.6402
  304MOL0     H41008   8.963   6.369   0.372  2.0251 -0.0003  0.2871
  304MOL0     H41009   8.836   6.480   0.440  1.4102  1.6976  0.0636
  304MOL0     H41010   9.007   6.635   0.519  0.6163  3.0712 -2.3148
  304MOL0     H41011   9.011   6.603   0.354 -2.6347 -1.8794 -0.2761
  304MOL0     H41012   9.192   6.488   0.559 -2.5812  0.6938 -0.9083
  304MOL0     H41013   9.186   6.434   0.395 -0.0719 -0.1744  0.7729
  304MOL0     H41014   9.239   6.702   0.363  2.1587  0.1624 -0.2122
  304MOL0     H41015   9.378   6.592   0.380  2.0589  1.7969  2.5088
  304MOL0     H41016   9.245   6.720   0.610  0.4027 -0.0595  1.1813
  304MOL0     H41017   9.383   6.608   0.607  1.0743 -0.2839 -0.6010
  304MOL0     H41018   9.377   6.867   0.459 -2.1367 -0.4037  0.7614
  304MOL0     H41019   9.514   6.769   0.476 -1.2203 -2.3187 -0.5947
  304MOL0     H41020   9.494   6.798   0.729 -1.1005 -1.3235 -1.5597
  304MOL0     H41021   9.358   6.907   0.693 -1.5372  0.1448 -3.1665
  304MOL0     H41022   8.733   6.547   0.645  0.3106 -0.5174 -1.2165
  304MOL0     H41023   8.485   6.615   0.698 -2.2713 -1.1342  1.7371
  304MOL0     H41024   8.086   6.267   0.656 -1.1001  2.7409  1.8881
  304MOL0     H41025   7.868   6.202   0.603 -0.1639 -0.4461 -2.7750
  304MOL0     H41026   5.925   6.668   1.211  2.6242 -2.5451  0.8835
  304MOL0     H41027   5.888   6.837   1.406 -1.2150  1.8191 -1.4250
  304MOL0     H41028   6.005   7.258   1.549  2.5889 -0.2239 -1.9493
  304MOL0     H41029   6.060   7.480   1.666  0.8584  0.0150  1.2581
  304MOL0     H41030   6.196   7.516   2.117 -0.7135 -0.3046 -0.7306
  304MOL0     H41031   6.328   7.441   2.013  1.4682  1.5588  2.2135
  304MOL0     H41032   6.322   7.698   1.913  6.0615  1.9549  0.3903
  304MOL0     H41033   6.428   7.617   2.018 -0.1991  0.6471  1.2104
  304MOL0     H41034   6.188   7.736   2.162  0.3294 -1.4433 -1.4987
  304MOL0     H41035   6.290   7.853   2.081 -0.7290  0.3566 -0.7535
  304MOL0     H41036   6.434   7.683   2.263  0.9079 -1.7194 -1.0335
  304MOL0     H41037   6.342   7.800   2.325  0.9916 -3.8926  0.9106
  304MOL0     H41038   6.639   8.048   2.163  1.8041  0.0742  0.9853
  304MOL0     H41039   6.216   7.267   1.989  3.1329  0.8685 -2.3988
  304MOL0     H41040   6.157   7.060   1.904  1.4274  1.3337 -0.5045
  305MOL0     O41041   9.890  10.866  10.054  0.1853 -0.4045  0.0013
  305MOL0     C41042   9.898  10.745  10.031  0.2943  0.5754  1.0197
  305MOL0     O41043   9.815  10.673   9.951  0.6690 -0.3707 -0.0853
  305MOL0     C41044   9.708  10.744   9.897 -0.8660 -1.0850  0.3386
  305MOL0     C41045   9.590  10.760   9.969  0.0100 -0.5468 -1.0129
  305MOL0     C41046   9.478  10.839   9.916  0.1523  0.4043  0.4234
  305MOL0     C41047   9.491  10.890   9.784  0.5258  0.6436  0.4689
  305MOL0     O41048   9.400  10.987   9.746  0.1830  0.8522  0.3764
  305MOL0     C41049   9.275  10.926   9.712  0.0937 -0.0208  0.6887
  305MOL0     C41050   9.169  11.027   9.734  0.6246 -0.0228 -0.4147
  305MOL0     C41051   9.038  11.022   9.664 -0.2887 -0.4239  0.1627
  305MOL0     C41052   8.974  11.160   9.692 -0.0945  0.0582  0.1866
  305MOL0     C41053   8.826  11.146   9.650 -0.7960  0.5548  0.5058
  305MOL0     C41054   8.813  11.101   9.505 -0.3938  0.0621 -0.0657
  305MOL0     C41055   8.670  11.083   9.466  0.6825  0.0947  0.6018
  305MOL0     C41056   8.600  11.221   9.468  0.7848  0.2178  0.7924
  305MOL0     N41057   8.470  11.192   9.410 -0.6271  0.0200 -0.2583
  305MOL0     C41058   8.432  11.165   9.281  0.4205 -0.6672  0.0546
  305MOL0     C41059   8.298  11.154   9.282 -0.6273 -0.6136  0.0283
  305MOL0     C41060   8.199  11.123   9.179 -0.0922 -0.7269  0.2955
  305MOL0     C41061   8.137  11.252   9.123  0.8266 -0.4282  0.0281
  305MOL0     C41062   8.035  11.211   9.019 -0.3876  0.2178 -0.1001
  305MOL0     C41063   8.085  11.181   8.867 -0.7218  0.3821 -0.1699
  305MOL0     O41064   7.973  11.147   8.778 -0.9552 -0.8661  0.5021
  305MOL0     C41065   8.000  11.139   8.640  0.6041  0.5253  0.6556
  305MOL0     C41066   8.125  11.154   8.586 -1.0301  0.6676 -0.2746
  305MOL0     C41067   8.133  11.208   8.451 -0.0485  1.2185 -0.4083
  305MOL0     C41068   8.275  11.243   8.405 -0.1180  0.8919  0.9307
  305MOL0     C41069   8.011  11.226   8.370 -0.3772  1.1202 -0.5086
  305MOL0     C41070   8.013  11.279   8.228 -0.3639  0.0855 -0.0630
  305MOL0     O41071   8.132  11.309   8.171 -0.1052 -0.7310 -0.0867
  305MOL0     C41072   8.138  11.415   8.082  0.1377  0.5183 -0.0102
  305MOL0     C41073   8.036  11.507   8.045 -0.9966  0.8176 -0.4118
  305MOL0     C41074   8.061  11.595   7.945  0.5241  0.4160 -0.2183
  305MOL0     C41075   8.182  11.615   7.881 -0.2882  0.3907  1.0272
  305MOL0     O41076   8.175  11.700   7.772  0.7235  0.4096  0.2120
  305MOL0     C41077   8.297  11.761   7.723 -0.0764  0.3895 -0.3936
  305MOL0     C41078   8.327  11.705   7.578  0.4451  0.1305 -0.8339
  305MOL0     C41079   8.465  11.694   7.538 -0.4804 -0.0396 -0.3436
  305MOL0     C41080   8.550  11.588   7.627 -0.6826  0.0571  0.0605
  305MOL0     C41081   8.690  11.582   7.576 -0.0077 -0.2799  0.5198
  305MOL0     C41082   8.706  11.532   7.433 -0.0365  0.3460  0.1441
  305MOL0     C41083   8.860  11.516   7.397  0.0035 -1.1147 -0.2191
  305MOL0     C41084   8.854  11.447   7.264 -0.1714  0.3349 -0.4398
  305MOL0    Cl41085   8.835  11.275   7.255  0.3590  0.1720  0.2192
  305MOL0     C41086   8.280  11.518   7.913 -0.1003 -0.3477 -0.9979
  305MOL0     C41087   8.263  11.427   8.018 -0.2570 -0.9297 -0.8500
  305MOL0     O41088   7.903  11.273   8.181 -0.1620  0.1868 -0.4472
  305MOL0     C41089   7.882  11.206   8.435  0.5022  0.8186  0.6600
  305MOL0     C41090   7.877  11.157   8.566  1.1861 -0.4071 -0.3211
  305MOL0     N41091   8.261  11.163   9.418 -0.4698 -0.7036  0.3323
  305MOL0     N41092   8.366  11.184   9.492  0.5016  0.4086  0.2164
  305MOL0     C41093   9.612  10.889   9.714  0.4468 -0.3446 -0.5573
  305MOL0     C41094   9.721  10.810   9.767 -0.0379  0.3599 -0.8697
  305MOL0     C41095  10.017  10.665  10.088  0.4744  0.3270  0.4973
  305MOL0     C41096  10.021  10.526  10.080 -1.0165 -0.2337  0.0778
  305MOL0     C41097  10.125  10.459  10.142  0.8606 -0.6636 -0.5022
  305MOL0     C41098  10.227  10.532  10.210 -0.2226 -0.1397 -0.5771
  305MOL0     O41099  10.335  10.450  10.247  0.2847  0.1455 -0.1680
  305MOL0     C41100  10.458  10.517  10.292  0.0312 -0.0442  0.4614
  305MOL0     C41101  10.575  10.413  10.268 -0.2474 -0.5735 -0.5324
  305MOL0     C41102  10.701  10.496  10.259 -0.7329  0.0431 -0.0097
  305MOL0     C41103  10.837  10.413  10.269  0.6050 -0.3482 -0.0809
  305MOL0     C41104  10.949  10.502  10.251 -0.5359  0.4897 -0.3638
  305MOL0     C41105  11.049  10.571  10.259  0.2853  0.2308  0.3607
  305MOL0     C41106  10.221  10.672  10.223 -0.1680 -0.9136 -0.7156
  305MOL0     C41107  10.114  10.741  10.167  0.0902 -0.8848  0.3810
  305MOL0     H41108   9.586  10.735  10.074 -5.1331 -0.7450 -1.0403
  305MOL0     H41109   9.386  10.841   9.972  0.0184 -2.5986  0.5091
  305MOL0     H41110   9.267  10.916   9.604 -3.9510  2.4336  0.5810
  305MOL0     H41111   9.256  10.830   9.761  2.0486 -1.5548 -1.3781
  305MOL0     H41112   9.149  11.026   9.841  0.8549  2.3921 -0.2874
  305MOL0     H41113   9.214  11.125   9.715  3.1468 -1.1314 -0.6618
  305MOL0     H41114   9.061  11.011   9.557  0.8945 -1.4681  0.4975
  305MOL0     H41115   8.986  10.935   9.706 -1.0018 -0.2206 -0.2858
  305MOL0     H41116   8.969  11.196   9.796 -1.1613  0.3938  0.0362
  305MOL0     H41117   9.023  11.246   9.646  1.2067  1.3898  3.6734
  305MOL0     H41118   8.783  11.071   9.718  0.3755 -1.7069 -1.1095
  305MOL0     H41119   8.787  11.248   9.652 -1.5764  0.2534  1.9259
  305MOL0     H41120   8.862  11.159   9.426  1.8529 -2.9129 -1.0132
  305MOL0     H41121   8.859  11.003   9.491  5.2154  1.7643  3.2197
  305MOL0     H41122   8.670  11.030   9.370  2.9057  2.3125 -0.7439
  305MOL0     H41123   8.603  11.022   9.526  1.7190 -2.3646 -0.5966
  305MOL0     H41124   8.653  11.294   9.406  1.5213 -1.0898 -0.1727
  305MOL0     H41125   8.590  11.264   9.568  3.2998  3.1563 -0.0867
  305MOL0     H41126   8.498  11.182   9.196  1.1592 -0.8746  0.5813
  305MOL0     H41127   8.231  11.064   9.093  2.1507 -1.7177  1.6994
  305MOL0     H41128   8.122  11.066   9.232  0.5780 -0.0522  2.0768
  305MOL0     H41129   8.212  11.317   9.079 -0.8508  1.0712 -0.7580
  305MOL0     H41130   8.087  11.307   9.203  1.4069 -0.8851  0.7101
  305MOL0     H41131   7.968  11.298   9.014 -3.5393 -1.9748  0.5052
  305MOL0     H41132   7.972  11.128   9.055 -0.3782 -0.3985 -1.4407
  305MOL0     H41133   8.151  11.094   8.865  0.4558  1.2510 -0.5928
  305MOL0     H41134   8.148  11.264   8.832 -1.0412  0.6633 -0.0828
  305MOL0     H41135   8.218  11.135   8.640  0.3739  1.9057 -2.1403
  305MOL0     H41136   8.319  11.336   8.445  0.2933  1.5501 -0.9644
  305MOL0     H41137   8.348  11.179   8.455  1.9508  2.3544 -0.0467
  305MOL0     H41138   8.299  11.221   8.301  3.0771  3.0847  1.0363
  305MOL0     H41139   7.932  11.497   8.075 -1.5188  2.5733 -1.5062
  305MOL0     H41140   7.971  11.645   7.912  0.0180 -2.5027 -3.9526
  305MOL0     H41141   8.274  11.868   7.724 -3.2887 -0.2182  0.7975
  305MOL0     H41142   8.376  11.743   7.797 -2.0643 -3.4048  1.0619
  305MOL0     H41143   8.294  11.601   7.586  2.9210 -0.6544  0.1330
  305MOL0     H41144   8.271  11.761   7.503 -2.1229  0.2195  1.0268
  305MOL0     H41145   8.515  11.792   7.535  0.5080 -0.5541 -1.9745
  305MOL0     H41146   8.466  11.653   7.437 -3.7022  0.9847 -0.8943
  305MOL0     H41147   8.551  11.629   7.728  4.4376  3.3996 -1.0218
  305MOL0     H41148   8.501  11.490   7.626  2.2899 -1.5520 -0.6764
  305MOL0     H41149   8.741  11.517   7.647  0.7929  0.5320  0.7106
  305MOL0     H41150   8.735  11.682   7.581  0.2917 -0.4748  4.3646
  305MOL0     H41151   8.665  11.431   7.423 -0.5025  0.5127  0.3208
  305MOL0     H41152   8.659  11.595   7.357 -0.5977 -0.6288 -0.3433
  305MOL0     H41153   8.932  11.470   7.465  0.4205 -2.7571 -1.7080
  305MOL0     H41154   8.890  11.619   7.377  1.7347 -0.9454  2.6919
  305MOL0     H41155   8.951  11.475   7.223 -0.3099  2.2222  0.4377
  305MOL0     H41156   8.779  11.492   7.198 -0.6888 -3.9721 -3.1587
  305MOL0     H41157   8.350  11.505   7.831 -1.4748  0.1099 -2.2880
  305MOL0     H41158   8.338  11.356   8.051  0.2641  0.9391  2.4387
  305MOL0     H41159   7.789  11.228   8.383  1.2539  0.1057 -1.0667
  305MOL0     H41160   7.777  11.146   8.607  0.7408  0.4145 -1.1446
  305MOL0     H41161   9.628  10.950   9.626  0.9677  0.1613 -0.1170
  305MOL0     H41162   9.820  10.802   9.723  0.3847  2.3400 -0.3798
  305MOL0     H41163   9.948  10.459  10.037 -0.8819 -2.3196  2.8859
  305MOL0     H41164  10.142  10.352  10.137 -3.9863 -1.9374  2.6417
  305MOL0     H41165  10.475  10.616  10.249  1.7509  0.6040  2.4761
  305MOL0     H41166  10.460  10.543  10.398  2.7163 -3.7504  1.5086
  305MOL0     H41167  10.550  10.358  10.177 -3.7069  1.6745 -1.1424
  305MOL0     H41168  10.570  10.347  10.355  0.1807  1.4980  1.1303
  305MOL0     H41169  10.701  10.576  10.333 -1.2680  2.0128 -2.0479
  305MOL0     H41170  10.696  10.551  10.165 -0.5716 -3.5804 -2.3574
  305MOL0     H41171  10.833  10.334  10.193 -0.4684  0.5684 -1.0008
  305MOL0     H41172  10.835  10.356  10.362 -1.5340 -1.6300 -0.8341
  305MOL0     H41173  11.136  10.633  10.260 -0.6482  1.7750 -2.3992
  305MOL0     H41174  10.304  10.721  10.274  0.8612 -4.3783  1.2893
  305MOL0     H41175  10.121  10.849  10.174  2.9847 -1.0705  2.1265
  306MOL0     O41176  11.469   9.593  10.864 -0.2373  0.1964 -0.8352
  306MOL0     C41177  11.447   9.708  10.882 -0.6403 -0.5893  0.3705
  306MOL0     O41178  11.491   9.780  10.981 -0.5864  0.2006  0.4040
  306MOL0     C41179  11.567   9.723  11.079  1.1186  0.8159 -0.3957
  306MOL0     C41180  11.684   9.652  11.060 -0.8298 -0.6334  0.2142
  306MOL0     C41181  11.751   9.585  11.159 -0.6408 -0.0895 -0.5797
  306MOL0     C41182  11.703   9.591  11.294 -0.2349  0.4387  0.0644
  306MOL0     O41183  11.781   9.525  11.390  0.5198  0.5140  0.2658
  306MOL0     C41184  11.828   9.611  11.501  0.2103 -0.7475 -0.3818
  306MOL0     C41185  11.952   9.679  11.467  0.6813  0.0925  0.0964
  306MOL0     C41186  12.074   9.588  11.440  0.2291 -0.1337  0.1590
  306MOL0     C41187  12.175   9.687  11.373 -0.1764 -0.5574 -0.0889
  306MOL0     C41188  12.324   9.637  11.383  0.6152 -0.7022 -0.1092
  306MOL0     C41189  12.369   9.637  11.532 -0.3821 -0.5653  0.6122
  306MOL0     C41190  12.514   9.604  11.543  0.6906 -0.3018  0.1790
  306MOL0     C41191  12.602   9.704  11.456 -0.4462  1.2361  0.5006
  306MOL0     N41192  12.737   9.713  11.514  0.0566 -0.5193  0.2163
  306MOL0     C41193  12.857   9.677  11.454  0.7111 -0.4485 -1.3464
  306MOL0     C41194  12.957   9.720  11.535  0.2940 -0.1857 -0.9881
  306MOL0     C41195  13.105   9.696  11.506  0.1219 -0.3369  0.0165
  306MOL0     C41196  13.129   9.539  11.508 -0.1498  0.2199 -0.5929
  306MOL0     C41197  13.090   9.479  11.644  0.3254 -0.8195  0.1878
  306MOL0     C41198  13.137   9.332  11.640  0.9953 -0.0436 -0.1875
  306MOL0     O41199  13.278   9.328  11.656 -0.1844 -0.5013  0.3672
  306MOL0     C41200  13.351   9.201  11.653  0.3547 -0.8388  0.0784
  306MOL0     C41201  13.483   9.206  11.629 -0.0023  0.4245  0.3983
  306MOL0     C41202  13.561   9.092  11.624 -0.2541 -0.3118 -0.4604
  306MOL0     C41203  13.714   9.111  11.608 -0.5625 -0.1030  0.3292
  306MOL0     C41204  13.501   8.957  11.637  0.8588 -0.4169  0.9961
  306MOL0     C41205  13.576   8.828  11.624  0.5678  1.2480 -0.0225
  306MOL0     O41206  13.510   8.709  11.640 -0.7465 -0.7353  0.2970
  306MOL0     C41207  13.564   8.597  11.610  0.0004 -0.5177 -0.7722
  306MOL0     C41208  13.600   8.506  11.706 -0.0735 -0.5713  0.0629
  306MOL0     C41209  13.657   8.384  11.666  0.6255 -0.4139 -0.5098
  306MOL0     C41210  13.679   8.342  11.535  0.8231  0.4463  0.2839
  306MOL0     O41211  13.750   8.216  11.516  0.0639 -0.6510 -0.2942
  306MOL0     C41212  13.820   8.179  11.391  0.8521 -0.4530  0.9513
  306MOL0     C41213  13.854   8.030  11.411  0.0542 -0.2444 -0.1196
  306MOL0     C41214  13.974   8.009  11.516 -0.3076 -0.6940 -0.1767
  306MOL0     C41215  14.105   8.057  11.448 -0.5530 -0.1556  0.9669
  306MOL0     C41216  14.218   8.026  11.536 -0.4480  0.2689 -0.3504
  306MOL0     C41217  14.355   8.063  11.471  0.0410  0.2212  1.1155
  306MOL0     C41218  14.470   8.045  11.572  0.2971  0.1251  0.7295
  306MOL0     C41219  14.447   8.092  11.712 -0.3018 -0.0130  0.0966
  306MOL0    Cl41220  14.590   8.104  11.810  0.6572  0.2108 -0.2607
  306MOL0     C41221  13.636   8.436  11.440 -0.1039  0.4020  0.0120
  306MOL0     C41222  13.573   8.555  11.478 -0.1117  0.1101 -0.3392
  306MOL0     O41223  13.690   8.837  11.595 -0.3958 -0.0983 -0.5839
  306MOL0     C41224  13.355   8.955  11.645  0.1815  0.9180 -0.6267
  306MOL0     C41225  13.291   9.073  11.665 -0.9800  0.0848 -0.1443
  306MOL0     N41226  12.897   9.792  11.637  0.4437  0.1224 -0.2506
  306MOL0     N41227  12.766   9.784  11.620 -0.9769 -0.8980  0.3011
  306MOL0     C41228  11.593   9.673  11.322 -0.0890  0.2071 -0.0008
  306MOL0     C41229  11.517   9.741  11.214  0.4313 -0.7027 -0.4452
  306MOL0     C41230  11.370   9.788  10.776 -0.1539  0.6180  0.0294
  306MOL0     C41231  11.291   9.709  10.691  0.4344 -0.4516  1.0228
  306MOL0     C41232  11.214   9.778  10.598 -0.7736 -0.4782  0.2025
  306MOL0     C41233  11.233   9.908  10.574  0.2831 -0.0082  0.2464
  306MOL0     O41234  11.164   9.967  10.480  0.3473  0.4998  0.5283
  306MOL0     C41235  11.241  10.008  10.364  0.1618 -1.2660 -0.2660
  306MOL0     C41236  11.280   9.884  10.283 -0.0341  0.5630  0.9372
  306MOL0     C41237  11.165   9.793  10.220  0.4557  0.3276 -0.0366
  306MOL0     C41238  11.218   9.666  10.153  0.8768  0.5158 -0.2922
  306MOL0     C41239  11.189   9.548  10.238  0.0440  0.1458 -0.5777
  306MOL0     C41240  11.154   9.444  10.288  0.4459  0.4040  0.4065
  306MOL0     C41241  11.321   9.989  10.648 -0.5421  0.0875  0.5261
  306MOL0     C41242  11.394   9.925  10.750 -0.0832 -0.1373 -0.1605
  306MOL0     H41243  11.726   9.663  10.961 -0.6446 -2.1758  0.0978
  306MOL0     H41244  11.846   9.539  11.133  0.0226  1.4974 -1.0333
  306MOL0     H41245  11.754   9.684  11.532  0.7101 -0.9683  1.4308
  306MOL0     H41246  11.839   9.565  11.599 -0.6103 -2.1032 -0.9059
  306MOL0     H41247  11.941   9.735  11.374  2.2222  2.6424  1.3298
  306MOL0     H41248  11.973   9.758  11.540  0.3857  1.6757 -1.4447
  306MOL0     H41249  12.116   9.553  11.535 -0.0852  0.4502  0.5099
  306MOL0     H41250  12.060   9.493  11.388 -2.4784 -0.7967  1.8928
  306MOL0     H41251  12.158   9.693  11.265  1.0139 -1.1094 -0.3271
  306MOL0     H41252  12.171   9.787  11.417 -1.1262  0.0862 -1.5579
  306MOL0     H41253  12.339   9.539  11.335  1.2899  0.4804 -2.4780
  306MOL0     H41254  12.379   9.700  11.312 -2.0419 -2.1745 -3.8536
  306MOL0     H41255  12.344   9.732  11.581 -1.8980 -0.7851  0.3197
  306MOL0     H41256  12.311   9.558  11.580 -2.5420 -0.1992 -1.2198
  306MOL0     H41257  12.534   9.634  11.646 -1.4116  2.7923 -0.1597
  306MOL0     H41258  12.531   9.500  11.514 -3.2796 -0.8419 -0.8757
  306MOL0     H41259  12.559   9.804  11.454 -0.8855  1.1580  2.9994
  306MOL0     H41260  12.621   9.657  11.359  4.3973 -3.1472  3.0938
  306MOL0     H41261  12.867   9.618  11.363  0.7948 -2.6384  0.0215
  306MOL0     H41262  13.129   9.737  11.408  0.1478  1.6821  0.8092
  306MOL0     H41263  13.168   9.756  11.572  0.4206 -2.0201  1.3102
  306MOL0     H41264  13.233   9.520  11.482  0.1227  2.0309 -0.9518
  306MOL0     H41265  13.074   9.495  11.425 -0.5650 -0.0031 -0.2081
  306MOL0     H41266  12.981   9.484  11.641  0.3485 -0.5783 -0.3789
  306MOL0     H41267  13.127   9.534  11.731  1.2812  0.0121 -0.7180
  306MOL0     H41268  13.096   9.274  11.557 -0.9362  1.7982 -0.5935
  306MOL0     H41269  13.089   9.276  11.721  1.1247 -1.4533 -1.0448
  306MOL0     H41270  13.511   9.309  11.608  0.0075 -0.0174 -2.0017
  306MOL0     H41271  13.755   9.061  11.520  2.0898  2.1063  0.1798
  306MOL0     H41272  13.734   9.219  11.602 -1.1384 -0.0504 -1.3004
  306MOL0     H41273  13.767   9.089  11.701 -0.4377  1.9273  0.8012
  306MOL0     H41274  13.620   8.542  11.807  0.9466  2.2524 -1.0594
  306MOL0     H41275  13.689   8.315  11.744  1.4777  2.9025  2.2907
  306MOL0     H41276  13.752   8.172  11.306  0.0407 -3.0416  1.7137
  306MOL0     H41277  13.907   8.245  11.387  0.4466  0.2703  2.8296
  306MOL0     H41278  13.762   7.978  11.438 -1.4806  1.9810 -0.7939
  306MOL0     H41279  13.885   7.994  11.313 -0.8070  4.7607 -2.5754
  306MOL0     H41280  13.975   7.905  11.549 -5.4957 -0.5329  1.3328
  306MOL0     H41281  13.962   8.066  11.608 -0.5598 -1.4503  0.2688
  306MOL0     H41282  14.108   7.996  11.358  2.3196  0.2797  0.6625
  306MOL0     H41283  14.105   8.164  11.425 -3.0819 -0.9700 -4.4871
  306MOL0     H41284  14.209   7.919  11.558 -2.1917  0.5937  0.6537
  306MOL0     H41285  14.201   8.092  11.622  1.5180  2.0398 -1.2139
  306MOL0     H41286  14.364   8.004  11.379 -1.0847  2.3047 -0.4177
  306MOL0     H41287  14.362   8.167  11.439 -3.3657  0.9609  2.2877
  306MOL0     H41288  14.557   8.096  11.528  0.7948 -2.1287 -1.1231
  306MOL0     H41289  14.501   7.941  11.561 -3.2763 -1.0442  0.5391
  306MOL0     H41290  14.388   8.020  11.769 -0.1340 -0.0823  0.1848
  306MOL0     H41291  14.391   8.185  11.703  3.0177  1.9990 -1.8151
  306MOL0     H41292  13.656   8.422  11.334 -1.6887 -1.4375 -0.0841
  306MOL0     H41293  13.534   8.628  11.407 -0.2519  3.3985  2.8284
  306MOL0     H41294  13.293   8.866  11.656  1.0101  0.1944 -1.6164
  306MOL0     H41295  13.184   9.062  11.679 -0.8132 -1.7168 -0.1264
  306MOL0     H41296  11.561   9.688  11.425 -0.4556  4.7495 -0.5683
  306MOL0     H41297  11.427   9.797  11.238  1.5917  0.8072  0.6477
  306MOL0     H41298  11.281   9.601  10.691  1.7115 -0.7321 -2.8440
  306MOL0     H41299  11.146   9.735  10.525 -1.8377 -1.2544  1.6003
  306MOL0     H41300  11.186  10.073  10.295 -0.3701 -2.5342 -1.0652
  306MOL0     H41301  11.324  10.071  10.397 -0.7327  1.0146 -2.0377
  306MOL0     H41302  11.346   9.819  10.341 -0.2669 -0.4781  0.0580
  306MOL0     H41303  11.336   9.930  10.200 -0.2199 -0.0970  0.4434
  306MOL0     H41304  11.105   9.852  10.150  2.4172  0.3652 -1.7942
  306MOL0     H41305  11.097   9.772  10.303 -0.8047  2.1900 -0.5322
  306MOL0     H41306  11.326   9.667  10.135  0.7364 -0.3988 -1.3271
  306MOL0     H41307  11.171   9.649  10.055  2.2019 -0.2186 -0.8225
  306MOL0     H41308  11.118   9.347  10.314 -0.0485  0.5022  0.1001
  306MOL0     H41309  11.344  10.091  10.619  2.1129 -0.9590 -1.4757
  306MOL0     H41310  11.479   9.980  10.789 -1.6542  1.5487  1.1177
  307MOL0     O41311   7.608   2.351   8.487 -0.1343  0.1088 -0.3840
  307MOL0     C41312   7.682   2.269   8.551  0.6040  0.4148  0.5926
  307MOL0     O41313   7.636   2.150   8.600  0.2672 -0.7402  0.5932
  307MOL0     C41314   7.506   2.131   8.610 -0.5182  0.8111  0.3597
  307MOL0     C41315   7.442   2.022   8.553  0.3173  0.3593 -0.3925
  307MOL0     C41316   7.301   2.010   8.560  0.3684  0.0010 -0.8405
  307MOL0     C41317   7.222   2.089   8.647  0.8973 -0.2345 -0.6221
  307MOL0     O41318   7.086   2.078   8.670  0.7062 -0.0132  0.1349
  307MOL0     C41319   7.028   1.951   8.714 -0.7361 -0.3970  0.5146
  307MOL0     C41320   6.906   1.981   8.802 -0.7440 -0.2056 -1.2298
  307MOL0     C41321   6.803   1.863   8.829  0.2380 -0.1826 -0.5137
  307MOL0     C41322   6.727   1.807   8.704  0.0282  0.5854  0.1160
  307MOL0     C41323   6.803   1.688   8.647  0.1659 -0.3593  0.1782
  307MOL0     C41324   6.731   1.612   8.531 -0.4500  1.1182 -0.1461
  307MOL0     C41325   6.821   1.489   8.486  0.3408 -0.9876 -1.2016
  307MOL0     C41326   6.804   1.455   8.338 -0.6742 -0.0102 -0.3298
  307MOL0     N41327   6.916   1.362   8.300  0.1069  1.0979  0.6984
  307MOL0     C41328   6.896   1.229   8.323 -0.8940  1.0469  1.1148
  307MOL0     C41329   7.016   1.171   8.291 -0.2639 -1.1393  0.0491
  307MOL0     C41330   7.053   1.024   8.267  1.2765  0.0310  0.2584
  307MOL0     C41331   7.024   0.935   8.389  0.3817 -0.1314 -0.1578
  307MOL0     C41332   6.895   0.848   8.377 -0.6102  0.0208  0.5361
  307MOL0     C41333   6.849   0.791   8.511  0.4321  0.6110 -0.0844
  307MOL0     O41334   6.949   0.706   8.571  0.6002 -0.0453 -0.9451
  307MOL0     C41335   6.947   0.575   8.536  1.0140  0.0730 -0.7913
  307MOL0     C41336   7.063   0.505   8.514 -0.4388  0.2651 -0.5479
  307MOL0     C41337   7.073   0.371   8.473  0.3247 -0.1144 -0.4090
  307MOL0     C41338   7.212   0.315   8.431 -0.1264  0.3164 -0.4948
  307MOL0     C41339   6.953   0.296   8.478 -0.1563  0.5720 -0.3406
  307MOL0     C41340   6.947   0.154   8.444  0.8351  0.4102 -0.4719
  307MOL0     O41341   6.830   0.103   8.408 -0.2647 -0.0801 -0.0466
  307MOL0     C41342   6.821  -0.029   8.388 -0.3251 -0.6454  1.0477
  307MOL0     C41343   6.698  -0.079   8.416 -0.6411 -0.3249 -0.7665
  307MOL0     C41344   6.667  -0.210   8.404  0.1062  0.5562  0.2765
  307MOL0     C41345   6.755  -0.297   8.338  0.5208 -0.0468 -0.7394
  307MOL0     O41346   6.709  -0.426   8.320  0.2925  0.7897 -0.8016
  307MOL0     C41347   6.697  -0.465   8.186  0.1949  0.0943 -0.2128
  307MOL0     C41348   6.562  -0.527   8.157  0.0144  0.3602 -0.8834
  307MOL0     C41349   6.441  -0.430   8.161  0.0342 -0.1165  0.3463
  307MOL0     C41350   6.312  -0.511   8.144  0.7332  0.2561  0.3325
  307MOL0     C41351   6.184  -0.438   8.178  0.4555  0.5345  1.2401
  307MOL0     C41352   6.134  -0.449   8.327  0.0997  0.2923  0.3308
  307MOL0     C41353   5.994  -0.378   8.356  0.1633  0.7400  0.1500
  307MOL0     C41354   5.988  -0.229   8.342 -0.7240  0.8307  0.2287
  307MOL0    Cl41355   6.128  -0.174   8.456 -0.3224  0.1508 -0.1509
  307MOL0     C41356   6.886  -0.246   8.289 -0.1240  0.1134  0.1922
  307MOL0     C41357   6.898  -0.102   8.306 -1.4719 -0.7183 -0.2273
  307MOL0     O41358   7.051   0.092   8.458 -0.4524 -0.1782 -1.8506
  307MOL0     C41359   6.832   0.359   8.526  0.0758  0.2266 -0.8394
  307MOL0     C41360   6.832   0.499   8.547  0.3412  1.0149 -0.2606
  307MOL0     N41361   7.106   1.272   8.258 -0.1454 -0.4251 -0.0557
  307MOL0     N41362   7.046   1.383   8.248  0.2936  0.3111  0.6038
  307MOL0     C41363   7.287   2.199   8.701 -0.0416 -1.7692 -0.6219
  307MOL0     C41364   7.426   2.221   8.677 -0.0826 -0.9917 -0.4270
  307MOL0     C41365   7.825   2.298   8.534 -0.2773  0.0058  0.6287
  307MOL0     C41366   7.906   2.188   8.550  0.0857  0.1254  0.0826
  307MOL0     C41367   8.040   2.204   8.524 -0.6726 -0.0835 -0.2381
  307MOL0     C41368   8.096   2.329   8.494  1.0616  0.2132  0.6607
  307MOL0     O41369   8.224   2.362   8.476 -0.7183  0.0938  0.4801
  307MOL0     C41370   8.324   2.257   8.467 -0.3131  0.5022 -1.2812
  307MOL0     C41371   8.446   2.296   8.385 -0.3600 -0.0012 -0.6254
  307MOL0     C41372   8.503   2.435   8.418  0.0906 -0.0674 -0.0104
  307MOL0     C41373   8.642   2.455   8.353 -0.0713 -0.0721  0.5553
  307MOL0     C41374   8.614   2.525   8.222  1.3607  0.0008 -0.2336
  307MOL0     C41375   8.570   2.560   8.115  0.4439  0.0298 -0.0428
  307MOL0     C41376   8.017   2.441   8.511  0.3581 -0.2320 -0.9429
  307MOL0     C41377   7.875   2.428   8.516 -0.5397 -0.2052 -0.3976
  307MOL0     H41378   7.513   1.956   8.505  1.2416  0.3920  0.8614
  307MOL0     H41379   7.247   1.925   8.521  2.8870 -0.7504 -2.9538
  307MOL0     H41380   6.999   1.900   8.621  2.3937  2.3708 -2.2468
  307MOL0     H41381   7.101   1.887   8.765 -2.2695 -3.4137 -0.7853
  307MOL0     H41382   6.938   2.020   8.899  1.7155 -1.0348 -1.6464
  307MOL0     H41383   6.847   2.069   8.774  1.9562  2.4012  0.6510
  307MOL0     H41384   6.855   1.783   8.881  0.1043 -0.7118 -1.1784
  307MOL0     H41385   6.727   1.891   8.902  0.8629 -1.2356  0.5700
  307MOL0     H41386   6.630   1.765   8.731  0.7291 -1.9305 -1.0339
  307MOL0     H41387   6.724   1.886   8.629 -1.4736 -0.6155 -1.1618
  307MOL0     H41388   6.905   1.714   8.617 -0.2402  0.6329 -0.3890
  307MOL0     H41389   6.818   1.619   8.730 -0.2717  2.0347  2.3623
  307MOL0     H41390   6.635   1.576   8.567 -0.6314  0.6079 -1.1068
  307MOL0     H41391   6.722   1.676   8.443  0.4199 -0.2372 -1.2577
  307MOL0     H41392   6.922   1.530   8.500  0.2685 -1.1919  0.0004
  307MOL0     H41393   6.805   1.397   8.543  0.6120 -0.2082  0.1814
  307MOL0     H41394   6.793   1.539   8.269 -2.4749 -0.3199 -0.4697
  307MOL0     H41395   6.712   1.397   8.326 -1.9470  2.0871 -1.3206
  307MOL0     H41396   6.812   1.167   8.352 -1.5173  0.9770 -0.7232
  307MOL0     H41397   6.997   0.992   8.179  1.4797  1.6375 -0.4909
  307MOL0     H41398   7.161   1.020   8.256  1.1302 -1.5607 -0.9932
  307MOL0     H41399   7.030   0.990   8.483 -0.0808  0.5979 -0.5464
  307MOL0     H41400   7.101   0.858   8.401 -0.3404 -0.5498  2.2014
  307MOL0     H41401   6.924   0.763   8.314  0.4934 -0.1693  1.2793
  307MOL0     H41402   6.814   0.910   8.337  0.6894  2.3627  1.3541
  307MOL0     H41403   6.755   0.737   8.496 -1.9252  2.5913  5.0219
  307MOL0     H41404   6.823   0.871   8.581 -2.2668 -0.2131 -0.0369
  307MOL0     H41405   7.154   0.563   8.527  0.2291 -1.0073  0.7394
  307MOL0     H41406   7.256   0.263   8.517 -0.0669  3.1948  1.3429
  307MOL0     H41407   7.195   0.255   8.342 -0.2668 -0.2180 -0.1163
  307MOL0     H41408   7.282   0.395   8.405  0.7118 -0.0724  0.4995
  307MOL0     H41409   6.632  -0.018   8.477  1.3947  0.4862  0.7668
  307MOL0     H41410   6.566  -0.235   8.434 -0.6555  1.2060 -1.6067
  307MOL0     H41411   6.705  -0.378   8.120 -0.4850 -2.2403 -3.6524
  307MOL0     H41412   6.776  -0.529   8.144 -1.7679 -1.7257 -1.3863
  307MOL0     H41413   6.568  -0.577   8.060 -1.3865  1.6457 -1.6636
  307MOL0     H41414   6.536  -0.608   8.226 -2.3343 -0.5839 -2.7626
  307MOL0     H41415   6.462  -0.366   8.075  2.6513 -1.5435 -0.1815
  307MOL0     H41416   6.444  -0.375   8.256 -4.5513 -0.3952  0.9011
  307MOL0     H41417   6.307  -0.558   8.045  2.1981 -1.6239  1.0950
  307MOL0     H41418   6.322  -0.592   8.217  2.9982  1.0828  1.0245
  307MOL0     H41419   6.104  -0.473   8.112 -0.8285 -1.2671  3.5577
  307MOL0     H41420   6.199  -0.335   8.146 -0.6898  0.0864 -0.9613
  307MOL0     H41421   6.125  -0.555   8.351 -1.0397  0.8335  2.6704
  307MOL0     H41422   6.215  -0.410   8.389 -0.5883  1.8265  0.3370
  307MOL0     H41423   5.958  -0.405   8.456  1.2567 -2.1345 -0.1376
  307MOL0     H41424   5.915  -0.419   8.292  0.5062 -1.5644  1.0851
  307MOL0     H41425   5.907  -0.179   8.396  0.7379  2.5445  0.9254
  307MOL0     H41426   6.001  -0.192   8.239  0.0650  1.4549  0.5436
  307MOL0     H41427   6.960  -0.302   8.232  0.1117  0.7082 -0.0970
  307MOL0     H41428   6.986  -0.049   8.272 -0.7769  0.2857  2.7765
  307MOL0     H41429   6.746   0.297   8.551 -1.0985  2.3645  0.7147
  307MOL0     H41430   6.745   0.544   8.595  0.7975  1.8934 -0.2326
  307MOL0     H41431   7.223   2.276   8.744  2.3299 -0.6764  1.1964
  307MOL0     H41432   7.470   2.312   8.715  0.6044  0.3379 -3.9914
  307MOL0     H41433   7.872   2.086   8.568 -2.1276  0.8688  0.4291
  307MOL0     H41434   8.095   2.111   8.534  3.1422  1.7235 -2.2604
  307MOL0     H41435   8.351   2.221   8.566 -4.3437 -1.2041 -0.6231
  307MOL0     H41436   8.276   2.169   8.425 -2.7004  0.7678  0.6659
  307MOL0     H41437   8.436   2.280   8.277  0.0346 -2.0552 -0.4054
  307MOL0     H41438   8.524   2.226   8.418  2.7004  3.7340  0.9150
  307MOL0     H41439   8.507   2.455   8.526 -2.8461  3.1271 -0.3397
  307MOL0     H41440   8.425   2.507   8.391  0.6237  1.4406  2.1884
  307MOL0     H41441   8.697   2.361   8.347  1.5824  0.8310  1.0146
  307MOL0     H41442   8.706   2.519   8.414  0.3543  0.3230 -0.2852
  307MOL0     H41443   8.536   2.575   8.014 -6.3436 -1.6778  1.4484
  307MOL0     H41444   8.054   2.543   8.502  1.3047 -0.6357 -1.7620
  307MOL0     H41445   7.807   2.512   8.501  1.6218  1.8943  0.7820
  308MOL0     O41446   1.346   2.742   9.204  0.6341 -0.1179  0.0234
  308MOL0     C41447   1.398   2.854   9.184  0.4786 -0.2743 -0.0832
  308MOL0     O41448   1.361   2.937   9.094  0.1001  0.1594  0.3708
  308MOL0     C41449   1.240   2.910   9.032 -0.2316  0.2341  0.1326
  308MOL0     C41450   1.248   2.925   8.891 -0.4067 -0.2300  0.6486
  308MOL0     C41451   1.137   2.900   8.808 -0.9600 -0.4630 -0.6973
  308MOL0     C41452   1.014   2.872   8.869  1.0612  0.8740  0.0991
  308MOL0     O41453   0.915   2.858   8.780  0.3336 -0.4584  0.3840
  308MOL0     C41454   0.847   2.734   8.790 -0.4662 -0.5286 -0.9382
  308MOL0     C41455   0.789   2.703   8.646 -0.3451  0.7106 -0.2568
  308MOL0     C41456   0.883   2.619   8.562  0.0429  0.3648  0.6706
  308MOL0     C41457   0.816   2.585   8.424 -0.0256 -0.4460 -0.1022
  308MOL0     C41458   0.909   2.506   8.340  0.8728 -0.2518  0.2295
  308MOL0     C41459   0.848   2.491   8.205 -0.4928  0.1364  0.2338
  308MOL0     C41460   0.949   2.411   8.117  0.3443 -0.3866  0.0306
  308MOL0     C41461   0.908   2.390   7.973  0.1847 -0.3870  0.0320
  308MOL0     N41462   0.915   2.520   7.906  0.4626  0.8244 -0.9713
  308MOL0     C41463   1.025   2.605   7.888 -0.3837 -0.6943  0.5233
  308MOL0     C41464   0.977   2.723   7.842  0.7491  1.1802 -0.4542
  308MOL0     C41465   1.055   2.841   7.808  0.3702  0.4775 -0.0496
  308MOL0     C41466   1.135   2.882   7.931 -0.3828  0.2302 -0.0455
  308MOL0     C41467   1.200   3.019   7.916  0.1536  0.1275 -0.0077
  308MOL0     C41468   1.326   3.006   7.834  0.1773 -0.3395  0.1646
  308MOL0     O41469   1.413   2.889   7.854 -0.0088  0.4013  0.4243
  308MOL0     C41470   1.528   2.908   7.920  0.0850 -0.2747 -0.2842
  308MOL0     C41471   1.650   2.930   7.854 -0.1883  0.2438  1.1566
  308MOL0     C41472   1.774   2.955   7.917  0.0680  0.9620  0.2332
  308MOL0     C41473   1.893   2.984   7.823  0.2492 -0.4261 -0.0706
  308MOL0     C41474   1.783   2.931   8.059  0.0925 -0.7021  0.3864
  308MOL0     C41475   1.909   2.938   8.130  0.0478 -0.3688 -0.4213
  308MOL0     O41476   1.901   2.996   8.247  0.4214  0.2839 -0.4463
  308MOL0     C41477   2.002   2.997   8.341 -0.1003 -0.4651  0.0721
  308MOL0     C41478   2.018   2.878   8.419 -0.5580 -0.7401  0.9864
  308MOL0     C41479   2.114   2.881   8.522 -0.6039 -0.4717 -0.8943
  308MOL0     C41480   2.183   2.991   8.560 -0.2321 -0.6324  0.4868
  308MOL0     O41481   2.268   2.977   8.670  0.0749  0.1835 -0.2423
  308MOL0     C41482   2.202   2.962   8.806  0.1981 -1.2758  0.6187
  308MOL0     C41483   2.169   3.101   8.861  0.0875  0.0661  0.9810
  308MOL0     C41484   2.154   3.097   9.012 -0.6799  0.1607  0.0598
  308MOL0     C41485   2.182   3.234   9.062  0.1371 -1.1178  0.4951
  308MOL0     C41486   2.125   3.246   9.203 -0.4990  0.0767  0.1952
  308MOL0     C41487   2.136   3.392   9.257 -0.3975  0.3546 -0.2152
  308MOL0     C41488   2.084   3.405   9.393 -0.4417 -0.9923 -0.9116
  308MOL0     C41489   2.097   3.559   9.429  0.0394 -0.4176  0.3508
  308MOL0    Cl41490   1.997   3.589   9.573  0.1335 -0.3399  0.2820
  308MOL0     C41491   2.170   3.109   8.479  0.5169 -0.2944 -0.7097
  308MOL0     C41492   2.081   3.112   8.373  0.5384  0.1927 -0.1679
  308MOL0     O41493   2.008   2.892   8.081 -0.2447 -0.1760 -0.3437
  308MOL0     C41494   1.665   2.892   8.124 -0.5857  0.8288 -0.6445
  308MOL0     C41495   1.540   2.884   8.055  0.9831 -0.8749 -0.2203
  308MOL0     N41496   0.838   2.712   7.854 -0.3360 -0.8107 -0.3473
  308MOL0     N41497   0.804   2.589   7.884  0.2675 -0.2175  1.4286
  308MOL0     C41498   1.006   2.861   9.010 -0.2236  1.0568 -0.4079
  308MOL0     C41499   1.118   2.881   9.093 -0.3322  0.0006  0.7335
  308MOL0     C41500   1.502   2.892   9.284 -0.2136 -0.8284  0.6559
  308MOL0     C41501   1.567   3.020   9.269 -0.5075  0.8893  0.4627
  308MOL0     C41502   1.649   3.071   9.370 -0.1488  0.0825  0.5932
  308MOL0     C41503   1.676   2.991   9.475  0.7000  0.0968 -0.6875
  308MOL0     O41504   1.745   3.054   9.569 -0.4255  0.3741 -0.5626
  308MOL0     C41505   1.847   2.984   9.637  0.2482  0.7091  0.2398
  308MOL0     C41506   1.937   3.060   9.743 -0.8700 -0.2979  0.0573
  308MOL0     C41507   2.034   3.160   9.672 -0.3293  0.1198  0.6827
  308MOL0     C41508   2.165   3.179   9.747  0.3767 -0.0667  0.1633
  308MOL0     C41509   2.281   3.177   9.657  0.2752  0.4012  0.0024
  308MOL0     C41510   2.380   3.165   9.576 -0.0956 -1.0958  0.0304
  308MOL0     C41511   1.617   2.869   9.489 -0.1373 -1.3311 -0.0806
  308MOL0     C41512   1.537   2.815   9.397  0.4687  0.1723  0.4560
  308MOL0     H41513   1.341   2.955   8.843 -1.8025  0.7996 -1.5807
  308MOL0     H41514   1.156   2.907   8.701  1.3384  3.1782 -0.2279
  308MOL0     H41515   0.907   2.654   8.835 -0.0091 -0.9163 -2.2076
  308MOL0     H41516   0.759   2.739   8.855 -0.1696 -0.9719 -0.4913
  308MOL0     H41517   0.692   2.656   8.662  0.6526 -0.6899  2.3472
  308MOL0     H41518   0.779   2.803   8.603  1.8858  2.4755  2.8846
  308MOL0     H41519   0.974   2.678   8.542  0.7413 -0.5928  0.9654
  308MOL0     H41520   0.915   2.531   8.618 -1.8879 -1.1975 -0.5298
  308MOL0     H41521   0.719   2.541   8.450 -0.8499  1.1166 -0.3907
  308MOL0     H41522   0.795   2.680   8.373  0.7091  0.8863  1.9277
  308MOL0     H41523   1.004   2.561   8.338  0.5479  0.3433  0.6400
  308MOL0     H41524   0.922   2.408   8.386 -2.2707 -0.8506  0.0352
  308MOL0     H41525   0.752   2.440   8.215 -2.3475  2.9473 -1.5960
  308MOL0     H41526   0.843   2.593   8.164  1.0959  0.0720 -0.1894
  308MOL0     H41527   1.046   2.460   8.129 -1.3615  2.8379  1.9294
  308MOL0     H41528   0.956   2.313   8.165 -5.5596 -2.1830 -1.9215
  308MOL0     H41529   0.805   2.357   7.961 -1.0430  3.3960 -1.5074
  308MOL0     H41530   0.986   2.321   7.939  1.2949  1.3066 -1.0356
  308MOL0     H41531   1.131   2.582   7.895 -0.0332  1.3328  2.8471
  308MOL0     H41532   1.119   2.807   7.725 -0.8959 -1.7771 -0.1989
  308MOL0     H41533   0.990   2.920   7.771 -1.5206 -0.0980  1.8548
  308MOL0     H41534   1.205   2.803   7.961 -1.7713  0.0836  3.2478
  308MOL0     H41535   1.067   2.892   8.016 -0.7059 -1.2739 -0.1020
  308MOL0     H41536   1.235   3.051   8.015 -2.7625  3.0975  0.2227
  308MOL0     H41537   1.128   3.093   7.881 -0.6891 -1.9723 -3.0706
  308MOL0     H41538   1.385   3.098   7.848 -0.0825  0.1716 -1.8527
  308MOL0     H41539   1.296   3.001   7.729  3.8532 -1.1763 -0.9826
  308MOL0     H41540   1.644   2.951   7.748  0.1856  3.7883  1.7189
  308MOL0     H41541   1.866   3.035   7.730  0.8596 -0.9808 -0.5571
  308MOL0     H41542   1.975   3.036   7.873 -2.1974  0.4725  3.3785
  308MOL0     H41543   1.929   2.883   7.802  1.2892 -0.3611  1.2796
  308MOL0     H41544   1.955   2.790   8.412 -0.2452 -1.2616  3.6684
  308MOL0     H41545   2.130   2.798   8.591  2.6290  0.1871 -0.6957
  308MOL0     H41546   2.105   2.912   8.796 -0.4749  0.1498 -0.2735
  308MOL0     H41547   2.274   2.907   8.868  5.0894  1.3701 -2.0529
  308MOL0     H41548   2.248   3.167   8.823  1.2525 -2.8972 -2.2697
  308MOL0     H41549   2.079   3.148   8.818  0.3008  0.9498  1.4668
  308MOL0     H41550   2.235   3.033   9.046 -0.3359  0.1834 -0.6986
  308MOL0     H41551   2.054   3.062   9.041  0.4506  0.0323  4.5607
  308MOL0     H41552   2.286   3.267   9.059  0.5230 -2.3833 -2.3480
  308MOL0     H41553   2.129   3.295   8.988 -0.1600 -2.5200 -0.4694
  308MOL0     H41554   2.185   3.194   9.278 -0.0755  1.0445  0.5484
  308MOL0     H41555   2.020   3.216   9.196 -0.5551 -0.6356  2.9614
  308MOL0     H41556   2.241   3.424   9.261 -0.0131 -0.9437  2.4397
  308MOL0     H41557   2.090   3.463   9.188 -0.8580  2.2062  1.8881
  308MOL0     H41558   2.135   3.349   9.472  2.0085  1.9512 -0.1945
  308MOL0     H41559   1.976   3.386   9.388 -0.6939 -0.0287  0.2566
  308MOL0     H41560   2.042   3.612   9.350 -3.8096 -2.4037  1.4459
  308MOL0     H41561   2.201   3.593   9.425  0.1119 -0.4392  1.7081
  308MOL0     H41562   2.230   3.197   8.502 -2.7649  2.0579 -0.5030
  308MOL0     H41563   2.068   3.202   8.314 -1.6839  0.0297 -0.0169
  308MOL0     H41564   1.682   2.861   8.226 -1.1729  1.6135 -0.2973
  308MOL0     H41565   1.451   2.850   8.107  0.7306  1.7050  1.2309
  308MOL0     H41566   0.914   2.815   9.045  0.6179  0.6523  1.3625
  308MOL0     H41567   1.111   2.867   9.200  2.4789 -0.4814  0.9302
  308MOL0     H41568   1.541   3.069   9.176 -1.9348 -1.0769 -0.2306
  308MOL0     H41569   1.683   3.173   9.361 -1.3080  0.4468  0.2086
  308MOL0     H41570   1.798   2.905   9.695 -0.5415  0.7708 -0.3157
  308MOL0     H41571   1.914   2.938   9.564  0.5274  1.5166 -0.0160
  308MOL0     H41572   1.992   2.979   9.792 -2.5842 -0.2032  2.2777
  308MOL0     H41573   1.886   3.099   9.831 -0.4758 -1.5203  0.8572
  308MOL0     H41574   1.975   3.252   9.670 -2.5104 -1.1437  2.1130
  308MOL0     H41575   2.051   3.133   9.567 -2.9512 -1.4899  0.5771
  308MOL0     H41576   2.176   3.102   9.825  1.7375  1.3767  1.4688
  308MOL0     H41577   2.167   3.272   9.805  1.7762 -1.2980  2.2132
  308MOL0     H41578   2.469   3.160   9.517  0.3780 -2.2971  0.8194
  308MOL0     H41579   1.629   2.827   9.589 -0.4775 -3.4808 -0.9038
  308MOL0     H41580   1.486   2.719   9.406  1.7810 -0.7245 -1.1013
  309MOL0     O41581   7.020   4.967   4.231  0.3408 -0.5272  0.2055
  309MOL0     C41582   7.041   4.861   4.290  0.2844 -0.8017 -0.4581
  309MOL0     O41583   7.000   4.736   4.248  0.6207  0.5340 -0.0471
  309MOL0     C41584   6.956   4.701   4.117  0.2495 -0.7512 -0.2430
  309MOL0     C41585   6.886   4.780   4.024  0.2852 -0.2763  0.5010
  309MOL0     C41586   6.827   4.718   3.915 -0.0211 -0.3507 -0.0662
  309MOL0     C41587   6.839   4.581   3.891 -0.4941  0.0492 -1.2656
  309MOL0     O41588   6.769   4.528   3.788  0.3342 -0.5235  0.2615
  309MOL0     C41589   6.832   4.426   3.702  0.8850 -0.2444  0.0622
  309MOL0     C41590   6.964   4.457   3.626  1.4564 -0.6982 -0.9177
  309MOL0     C41591   6.998   4.347   3.537  0.5119  0.9426  0.3705
  309MOL0     C41592   7.100   4.377   3.423  1.0671  0.2415  0.5633
  309MOL0     C41593   7.102   4.250   3.339  0.3147  0.0098  0.2198
  309MOL0     C41594   7.205   4.278   3.217  0.2186  0.3536 -0.2808
  309MOL0     C41595   7.212   4.148   3.130 -1.0711  0.2390  0.8739
  309MOL0     C41596   7.083   4.103   3.068 -0.0855  0.6518  0.2627
  309MOL0     N41597   7.092   3.971   3.007  0.0245  0.8315  0.1922
  309MOL0     C41598   7.205   3.927   2.935  0.0490 -0.0269  0.5972
  309MOL0     C41599   7.203   3.795   2.939 -0.2610  0.9108  0.2520
  309MOL0     C41600   7.310   3.702   2.880  0.4701  0.7496 -0.5503
  309MOL0     C41601   7.313   3.665   2.740 -0.2186  0.0114 -0.0560
  309MOL0     C41602   7.325   3.782   2.653 -0.0611 -0.1232 -0.8934
  309MOL0     C41603   7.379   3.747   2.512 -0.1557  0.5224  0.7128
  309MOL0     O41604   7.484   3.656   2.498  0.5965 -0.0152  0.5733
  309MOL0     C41605   7.610   3.693   2.500  0.1865  0.1093  0.6735
  309MOL0     C41606   7.690   3.617   2.575 -0.5908  1.2993 -0.6207
  309MOL0     C41607   7.829   3.639   2.601  0.3129 -0.7577 -0.3401
  309MOL0     C41608   7.911   3.546   2.689 -0.3766 -0.0012  0.6666
  309MOL0     C41609   7.885   3.759   2.536 -0.0619  0.1330  0.4508
  309MOL0     C41610   8.024   3.800   2.547  0.4050  0.1423  0.8286
  309MOL0     O41611   8.043   3.928   2.586 -0.1147  0.2306  0.4235
  309MOL0     C41612   8.174   3.976   2.578  0.1688  0.1228 -0.6697
  309MOL0     C41613   8.242   4.008   2.696  0.2970 -0.0225 -0.2592
  309MOL0     C41614   8.373   4.068   2.693  0.2591 -0.6097 -0.0613
  309MOL0     C41615   8.434   4.068   2.567 -0.3718  0.1120  0.0724
  309MOL0     O41616   8.569   4.118   2.569 -0.1340  0.1842 -0.5035
  309MOL0     C41617   8.627   4.189   2.456 -0.0345 -0.1487  0.0392
  309MOL0     C41618   8.779   4.161   2.436  0.0808  0.3978  0.6574
  309MOL0     C41619   8.864   4.214   2.557 -0.7068  0.2797 -0.2383
  309MOL0     C41620   9.018   4.197   2.542 -0.3404 -0.0461  0.8454
  309MOL0     C41621   9.110   4.249   2.651  0.2926  0.0989  0.0435
  309MOL0     C41622   9.255   4.294   2.610  0.4352 -0.6704 -0.2007
  309MOL0     C41623   9.345   4.171   2.555  0.4572  0.6456  0.1819
  309MOL0     C41624   9.477   4.205   2.502  0.5571 -0.0975  0.3935
  309MOL0    Cl41625   9.464   4.249   2.338 -0.1482 -0.2931 -0.0526
  309MOL0     C41626   8.366   4.039   2.451 -0.9792 -0.1879  0.5960
  309MOL0     C41627   8.230   3.987   2.455 -0.3199 -0.5630 -0.5796
  309MOL0     O41628   8.117   3.712   2.542 -0.1211 -0.5327  0.1555
  309MOL0     C41629   7.798   3.846   2.458 -0.0335 -0.2087 -0.3657
  309MOL0     C41630   7.666   3.808   2.445  0.3732  0.0395 -0.2060
  309MOL0     N41631   7.093   3.752   3.007 -0.1462  0.0841  0.2760
  309MOL0     N41632   7.023   3.860   3.050  0.7412 -0.4091 -0.0241
  309MOL0     C41633   6.931   4.510   3.975 -0.0112  0.0438 -0.3430
  309MOL0     C41634   6.984   4.570   4.091  0.3253 -0.0116  0.5871
  309MOL0     C41635   7.097   4.879   4.422 -0.0530  0.3315 -0.4232
  309MOL0     C41636   7.162   4.772   4.484  1.5631  0.6712  0.4264
  309MOL0     C41637   7.225   4.791   4.600 -0.3672 -0.2018  0.5603
  309MOL0     C41638   7.224   4.910   4.675 -0.6074 -0.5699 -0.7185
  309MOL0     O41639   7.295   4.919   4.789  0.1326 -0.3935 -0.3584
  309MOL0     C41640   7.293   4.803   4.878 -0.4199  0.3683 -0.0661
  309MOL0     C41641   7.348   4.852   5.028 -1.0611  0.1057  0.0290
  309MOL0     C41642   7.343   4.729   5.121  1.2474 -0.9902  0.2686
  309MOL0     C41643   7.395   4.761   5.264  0.1512 -0.0500 -0.4345
  309MOL0     C41644   7.535   4.781   5.270 -0.3612 -0.1484  0.0018
  309MOL0     C41645   7.655   4.805   5.289 -0.1545 -0.7440 -0.0229
  309MOL0     C41646   7.161   5.020   4.615 -0.3212 -0.2048  0.0516
  309MOL0     C41647   7.093   5.006   4.489 -1.2748 -0.1098 -0.4778
  309MOL0     H41648   6.877   4.886   4.043  2.0434 -0.1756  0.9825
  309MOL0     H41649   6.759   4.769   3.847 -3.8642 -2.4062  1.9503
  309MOL0     H41650   6.847   4.334   3.759  1.2064 -0.6399 -0.6505
  309MOL0     H41651   6.750   4.418   3.629 -0.5877  4.2460  0.9177
  309MOL0     H41652   6.952   4.554   3.577  3.5262  0.7080  1.1146
  309MOL0     H41653   7.043   4.475   3.700  0.8512 -1.9002  0.0582
  309MOL0     H41654   7.032   4.266   3.603  3.4567 -0.3310 -2.4572
  309MOL0     H41655   6.905   4.309   3.494 -1.4148  3.0641  2.3359
  309MOL0     H41656   7.059   4.457   3.361 -0.6212 -2.1683 -1.6382
  309MOL0     H41657   7.194   4.406   3.471  1.4955  1.0414 -0.7151
  309MOL0     H41658   7.139   4.164   3.396 -1.4108 -0.2747  0.9761
  309MOL0     H41659   7.001   4.240   3.297 -0.2681  1.5679  1.1660
  309MOL0     H41660   7.175   4.362   3.154 -1.0774 -0.0636 -0.2486
  309MOL0     H41661   7.306   4.298   3.254 -0.6068  2.9153  0.7907
  309MOL0     H41662   7.282   4.185   3.055 -1.8627  2.6571  1.2470
  309MOL0     H41663   7.262   4.066   3.184 -2.8079  0.4246  2.9069
  309MOL0     H41664   7.061   4.168   2.983  1.0079  1.4934  0.6048
  309MOL0     H41665   7.004   4.110   3.143  3.1802 -1.3311  4.3111
  309MOL0     H41666   7.284   3.996   2.911 -1.6501  1.7386 -0.1705
  309MOL0     H41667   7.410   3.740   2.905  0.1550  0.1745  1.7822
  309MOL0     H41668   7.316   3.604   2.928  0.2229  1.8616  1.9102
  309MOL0     H41669   7.219   3.613   2.723 -1.6305  2.9344 -1.8344
  309MOL0     H41670   7.400   3.601   2.719 -1.5374 -2.5581  1.7319
  309MOL0     H41671   7.398   3.844   2.705  3.1524 -2.8029 -1.8760
  309MOL0     H41672   7.231   3.839   2.656 -0.2986 -0.5566  0.8896
  309MOL0     H41673   7.393   3.843   2.462 -3.3960 -0.3805 -2.3586
  309MOL0     H41674   7.301   3.691   2.460  2.8254 -3.3249 -0.0726
  309MOL0     H41675   7.660   3.530   2.632 -0.3933  3.5874  3.3487
  309MOL0     H41676   7.852   3.494   2.765  1.8284 -3.9619 -0.0756
  309MOL0     H41677   7.961   3.475   2.623  0.4905 -1.3574  2.6675
  309MOL0     H41678   7.983   3.608   2.743 -0.5590 -0.5502  1.5713
  309MOL0     H41679   8.193   3.996   2.792  1.8732  2.4473  0.9586
  309MOL0     H41680   8.425   4.111   2.778 -2.9585  3.3857  0.1593
  309MOL0     H41681   8.573   4.170   2.363 -2.1647  1.5492  0.8272
  309MOL0     H41682   8.625   4.297   2.473  0.4970 -0.1080 -0.1509
  309MOL0     H41683   8.785   4.052   2.423 -3.0627  0.4957 -3.3928
  309MOL0     H41684   8.815   4.204   2.342 -3.4624  0.2165 -0.9085
  309MOL0     H41685   8.837   4.153   2.643  0.8399  1.8019  1.3976
  309MOL0     H41686   8.836   4.318   2.576 -2.1428 -0.6292  3.4933
  309MOL0     H41687   9.043   4.096   2.511 -0.7637 -0.5369  2.0591
  309MOL0     H41688   9.035   4.270   2.462  1.3033 -1.0108  0.2573
  309MOL0     H41689   9.127   4.176   2.730 -2.8700  1.9235  2.6512
  309MOL0     H41690   9.067   4.335   2.703  1.8070 -0.2780  2.0636
  309MOL0     H41691   9.252   4.375   2.535  0.6048 -2.0131 -1.7185
  309MOL0     H41692   9.306   4.331   2.699 -2.0092 -2.4612  2.0699
  309MOL0     H41693   9.286   4.122   2.476  1.1866 -0.7359  0.4513
  309MOL0     H41694   9.342   4.094   2.633 -0.8106  0.7479  0.2520
  309MOL0     H41695   9.550   4.124   2.507 -0.1624 -0.8578 -0.7096
  309MOL0     H41696   9.512   4.291   2.559 -2.0498  0.6063  1.0458
  309MOL0     H41697   8.412   4.062   2.356  0.1515  0.4128  1.2653
  309MOL0     H41698   8.181   3.954   2.364  1.0129 -2.9004 -0.5304
  309MOL0     H41699   7.838   3.936   2.413  2.5257 -0.1471  1.7833
  309MOL0     H41700   7.595   3.859   2.380 -0.7096 -2.2000 -0.8949
  309MOL0     H41701   6.960   4.407   3.958 -2.8779 -0.9388  0.1904
  309MOL0     H41702   7.042   4.520   4.168  3.2053  2.2363  0.0470
  309MOL0     H41703   7.158   4.673   4.440 -0.0210  0.3329  1.2556
  309MOL0     H41704   7.270   4.698   4.633 -2.2190 -0.0339  4.0188
  309MOL0     H41705   7.195   4.755   4.885 -0.5750  0.6586 -0.2467
  309MOL0     H41706   7.367   4.734   4.837  0.0684  1.3705 -0.9275
  309MOL0     H41707   7.294   4.936   5.071  0.6761  1.7871 -0.9425
  309MOL0     H41708   7.453   4.882   5.021 -1.1793  1.6603  3.3472
  309MOL0     H41709   7.395   4.640   5.086  4.7588  0.6141  0.9420
  309MOL0     H41710   7.244   4.685   5.107  1.6705 -1.8657 -0.0224
  309MOL0     H41711   7.377   4.676   5.331 -2.0525  3.2899  3.6750
  309MOL0     H41712   7.355   4.856   5.300 -3.1959 -1.0967 -1.0963
  309MOL0     H41713   7.751   4.852   5.281 -0.8583  0.6802 -0.5070
  309MOL0     H41714   7.152   5.119   4.659  0.4813  0.1802 -0.6183
  309MOL0     H41715   7.040   5.092   4.450 -0.7438  0.3848 -0.1094
  310MOL0     O41716   8.891   0.642   3.400  0.1354 -0.7325  0.2332
  310MOL0     C41717   8.790   0.610   3.457 -0.9323 -0.3666 -0.3676
  310MOL0     O41718   8.700   0.696   3.517 -0.6034 -0.8098  0.3338
  310MOL0     C41719   8.741   0.824   3.523 -0.0958 -0.3190  0.3659
  310MOL0     C41720   8.778   0.912   3.416  0.5397 -0.0232  0.8180
  310MOL0     C41721   8.809   1.046   3.440 -1.1988  0.5973 -0.2569
  310MOL0     C41722   8.805   1.096   3.569  1.5128  0.3944 -0.4176
  310MOL0     O41723   8.829   1.232   3.588 -0.8624 -0.1275 -0.5205
  310MOL0     C41724   8.950   1.270   3.529 -0.1334 -0.6995 -1.0850
  310MOL0     C41725   8.989   1.383   3.620 -0.4747  1.3112 -0.7081
  310MOL0     C41726   9.133   1.421   3.588 -0.1950 -0.3378 -0.5551
  310MOL0     C41727   9.186   1.524   3.684  0.1677 -1.0186 -0.8942
  310MOL0     C41728   9.098   1.660   3.689 -0.6702 -0.2080  0.5584
  310MOL0     C41729   9.204   1.776   3.648 -0.3456  1.9214 -0.9976
  310MOL0     C41730   9.136   1.911   3.660 -0.4951  0.4506 -0.9037
  310MOL0     C41731   9.114   1.971   3.806  0.4885 -0.2692  0.7865
  310MOL0     N41732   9.102   2.120   3.812  0.6883  0.9199 -0.8054
  310MOL0     C41733   9.133   2.219   3.719 -1.0104  0.9380 -0.1960
  310MOL0     C41734   9.100   2.339   3.773 -0.5883  0.3046  0.3618
  310MOL0     C41735   9.121   2.463   3.699 -1.1330  0.7649 -0.5449
  310MOL0     C41736   9.103   2.570   3.797  0.5211  0.1934 -0.3954
  310MOL0     C41737   9.217   2.593   3.902  0.3793 -0.3717  0.3473
  310MOL0     C41738   9.175   2.566   4.058  1.1009 -0.3262  0.1920
  310MOL0     O41739   9.052   2.638   4.104  0.6665  0.7583 -0.1759
  310MOL0     C41740   8.958   2.561   4.182 -0.0592 -0.6213  0.5809
  310MOL0     C41741   8.850   2.500   4.119  1.2137  0.0673  0.7426
  310MOL0     C41742   8.754   2.425   4.192  0.4580 -0.3665 -0.4225
  310MOL0     C41743   8.634   2.376   4.123 -0.2257 -0.7968  0.5080
  310MOL0     C41744   8.776   2.401   4.334  0.1582  0.2506 -0.1639
  310MOL0     C41745   8.693   2.318   4.423 -0.4485 -0.3812  0.5551
  310MOL0     O41746   8.604   2.243   4.363 -0.0633  0.8305  0.1685
  310MOL0     C41747   8.491   2.191   4.424 -0.1741 -0.2290 -0.2242
  310MOL0     C41748   8.398   2.157   4.326  0.1509 -0.1464  0.2127
  310MOL0     C41749   8.275   2.110   4.371  1.0788 -0.0990 -0.4415
  310MOL0     C41750   8.236   2.091   4.501 -0.0006  0.1915 -0.3713
  310MOL0     O41751   8.122   2.037   4.548 -0.5709  0.5438 -0.0620
  310MOL0     C41752   8.004   2.105   4.514  1.5415 -0.6551 -0.4977
  310MOL0     C41753   7.939   2.106   4.645  0.0594 -1.1606 -0.5004
  310MOL0     C41754   7.838   2.221   4.666  0.3427 -0.2073 -0.3393
  310MOL0     C41755   7.696   2.188   4.614  0.0598 -0.3704 -0.5838
  310MOL0     C41756   7.580   2.291   4.665 -0.3799  1.4232  0.1388
  310MOL0     C41757   7.628   2.433   4.656 -0.5368  0.4398 -0.2619
  310MOL0     C41758   7.510   2.537   4.670  0.7011 -0.0228  0.0476
  310MOL0     C41759   7.560   2.675   4.645  0.2877 -0.9151 -1.1662
  310MOL0    Cl41760   7.560   2.694   4.474  0.4650  0.5071 -0.1090
  310MOL0     C41761   8.329   2.130   4.599 -0.1813  0.6378  0.2186
  310MOL0     C41762   8.461   2.169   4.565 -0.2399 -1.1390 -0.3619
  310MOL0     O41763   8.703   2.342   4.543  0.2565  0.1169 -0.0525
  310MOL0     C41764   8.887   2.471   4.393  0.1452  0.3992 -0.4559
  310MOL0     C41765   8.976   2.547   4.312  0.0308  0.7256 -1.0014
  310MOL0     N41766   9.039   2.306   3.895  0.3114 -0.1641  0.5053
  310MOL0     N41767   9.026   2.176   3.909  0.1764  0.4043  1.1267
  310MOL0     C41768   8.766   1.016   3.675 -0.0408  0.9055 -0.2692
  310MOL0     C41769   8.724   0.881   3.652 -0.3252  0.1397 -0.6397
  310MOL0     C41770   8.763   0.467   3.461 -0.0561  0.4374  0.6015
  310MOL0     C41771   8.861   0.377   3.410  0.3252 -0.3614 -0.2897
  310MOL0     C41772   8.835   0.239   3.438 -1.0666  0.1943  0.6092
  310MOL0     C41773   8.716   0.200   3.502  0.0779  0.3684 -0.8779
  310MOL0     O41774   8.707   0.061   3.531  0.1683 -0.1046  0.2614
  310MOL0     C41775   8.582  -0.003   3.565  1.5890  0.2084 -0.4247
  310MOL0     C41776   8.544   0.021   3.720 -0.0581  0.8828  0.4547
  310MOL0     C41777   8.397   0.046   3.723 -0.2521 -0.0505 -0.0675
  310MOL0     C41778   8.312  -0.075   3.683 -0.0606 -0.3461  0.3577
  310MOL0     C41779   8.348  -0.197   3.755  0.7583 -0.0918 -0.1621
  310MOL0     C41780   8.400  -0.290   3.813  1.0617 -0.3684  0.3446
  310MOL0     C41781   8.623   0.288   3.543 -1.0746 -0.2030  0.8400
  310MOL0     C41782   8.644   0.421   3.533 -0.5043 -0.1142  0.1270
  310MOL0     H41783   8.773   0.874   3.315 -0.3013  3.5167 -0.6265
  310MOL0     H41784   8.825   1.117   3.359 -0.0049  1.5029  0.7269
  310MOL0     H41785   9.028   1.194   3.523  0.9648 -0.1072  2.8582
  310MOL0     H41786   8.922   1.315   3.433 -1.5721  0.9065  0.0327
  310MOL0     H41787   8.937   1.478   3.604 -2.7671  0.0854 -0.8568
  310MOL0     H41788   8.973   1.348   3.722 -2.1125 -3.8869 -2.4614
  310MOL0     H41789   9.199   1.334   3.584 -0.3840 -0.4702 -3.7405
  310MOL0     H41790   9.133   1.465   3.487  0.8159  3.2196  0.8552
  310MOL0     H41791   9.195   1.491   3.788 -1.5367 -1.7500 -0.9472
  310MOL0     H41792   9.289   1.537   3.652  1.0953 -1.6822  1.5725
  310MOL0     H41793   9.026   1.652   3.607  0.3118 -0.6377 -0.2868
  310MOL0     H41794   9.053   1.688   3.785 -0.2502  2.6229  0.0038
  310MOL0     H41795   9.284   1.775   3.722 -0.6579 -0.9877 -0.5658
  310MOL0     H41796   9.244   1.756   3.548 -1.8500  0.9319 -1.4460
  310MOL0     H41797   9.195   1.986   3.605  0.5458 -0.1958 -0.6977
  310MOL0     H41798   9.040   1.905   3.608 -2.6118 -0.5845  2.8120
  310MOL0     H41799   9.183   1.935   3.883  0.7993  1.0221  1.1413
  310MOL0     H41800   9.019   1.934   3.847  1.0168 -1.4565  0.9964
  310MOL0     H41801   9.163   2.199   3.617  1.4961 -0.7384  0.7594
  310MOL0     H41802   9.217   2.467   3.646 -0.5692 -2.9654 -0.0751
  310MOL0     H41803   9.037   2.461   3.629 -1.4834 -2.1199 -0.1314
  310MOL0     H41804   9.006   2.559   3.846  0.4085  0.5483 -0.5400
  310MOL0     H41805   9.100   2.662   3.738 -2.5176 -0.1025 -0.8606
  310MOL0     H41806   9.269   2.689   3.893  3.7418 -2.0296  0.5902
  310MOL0     H41807   9.296   2.520   3.882  0.3379 -0.6239  1.0683
  310MOL0     H41808   9.255   2.580   4.131 -0.3083 -2.8335  2.3553
  310MOL0     H41809   9.149   2.462   4.039 -1.9110  0.9948 -5.0121
  310MOL0     H41810   8.827   2.518   4.014  2.0983  0.5784  0.6258
  310MOL0     H41811   8.543   2.403   4.177 -0.7239  2.5985 -1.7440
  310MOL0     H41812   8.632   2.416   4.021  1.3903  0.9150  1.0962
  310MOL0     H41813   8.644   2.268   4.105 -2.5932 -0.8525 -0.8322
  310MOL0     H41814   8.404   2.167   4.218  3.0599 -0.5631  0.2583
  310MOL0     H41815   8.202   2.078   4.298  0.6169 -0.2077  0.0538
  310MOL0     H41816   8.031   2.208   4.492 -3.3934  0.8262 -0.7745
  310MOL0     H41817   7.944   2.062   4.433 -1.2213  1.2362  0.4065
  310MOL0     H41818   7.884   2.015   4.672 -0.9432  0.4796  3.6694
  310MOL0     H41819   8.010   2.110   4.729  0.6085 -1.3350 -0.9465
  310MOL0     H41820   7.866   2.298   4.594  1.6055 -2.4696 -2.4168
  310MOL0     H41821   7.826   2.250   4.771 -1.0558  0.8056 -0.7452
  310MOL0     H41822   7.710   2.176   4.506  2.4667  0.3954 -0.4136
  310MOL0     H41823   7.677   2.085   4.647  1.5066 -1.6470 -3.3478
  310MOL0     H41824   7.561   2.270   4.770 -1.8596  1.7676 -0.0352
  310MOL0     H41825   7.492   2.277   4.600  0.2612 -4.1254 -0.0005
  310MOL0     H41826   7.711   2.454   4.724 -1.3039 -2.5665  1.8201
  310MOL0     H41827   7.670   2.454   4.558  0.3118 -2.2935 -0.5751
  310MOL0     H41828   7.463   2.527   4.769  0.1161  1.2939 -0.0787
  310MOL0     H41829   7.427   2.524   4.599 -1.8589  2.7229  2.2654
  310MOL0     H41830   7.660   2.676   4.690 -0.9528 -4.3124  2.2621
  310MOL0     H41831   7.495   2.753   4.687  1.3741 -1.4599  1.8280
  310MOL0     H41832   8.299   2.125   4.703  0.2575 -1.3836  0.2779
  310MOL0     H41833   8.532   2.165   4.646  0.8559  2.7751 -0.9243
  310MOL0     H41834   8.907   2.460   4.499  1.0323 -3.6114 -0.8943
  310MOL0     H41835   9.063   2.597   4.352  0.1518  0.0884 -0.4569
  310MOL0     H41836   8.766   1.052   3.777  1.7732  0.7872 -0.1963
  310MOL0     H41837   8.686   0.818   3.732 -1.9932 -1.0604 -2.2943
  310MOL0     H41838   8.956   0.414   3.372 -1.1027  1.2376 -2.5511
  310MOL0     H41839   8.900   0.166   3.390  0.4985  2.4677 -0.8939
  310MOL0     H41840   8.497   0.040   3.512 -0.4265 -1.5634  1.1899
  310MOL0     H41841   8.580  -0.106   3.531  4.4690 -0.9509  2.3626
  310MOL0     H41842   8.600   0.100   3.771  2.8749 -1.3246  0.9500
  310MOL0     H41843   8.581  -0.065   3.778  0.4520  0.3180 -0.6731
  310MOL0     H41844   8.375   0.138   3.668  0.9505 -0.0336 -0.5483
  310MOL0     H41845   8.379   0.055   3.830  3.9539 -0.0225  0.8087
  310MOL0     H41846   8.312  -0.090   3.575 -1.9107 -2.0534  0.5286
  310MOL0     H41847   8.211  -0.054   3.721  0.3128  1.8145  0.3224
  310MOL0     H41848   8.452  -0.371   3.859  3.0107 -0.4222 -1.7702
  310MOL0     H41849   8.526   0.264   3.585  0.0913 -2.3234  2.5218
  310MOL0     H41850   8.572   0.488   3.577 -0.4965 -0.6726  1.0087
  311MOL0     O41851  11.468  11.128   9.480  0.1910  0.4134 -0.0194
  311MOL0     C41852  11.570  11.140   9.409 -0.2722 -0.1685  0.1402
  311MOL0     O41853  11.570  11.175   9.273  0.1368  0.2159  0.0158
  311MOL0     C41854  11.449  11.230   9.238 -0.4944 -0.1445 -0.9961
  311MOL0     C41855  11.442  11.367   9.231  0.1296  0.5247 -0.0998
  311MOL0     C41856  11.317  11.418   9.185  0.3622  0.5172 -0.7599
  311MOL0     C41857  11.216  11.334   9.129 -0.5672 -0.1437  0.9262
  311MOL0     O41858  11.097  11.388   9.085 -0.4167  0.9077  0.5846
  311MOL0     C41859  11.042  11.500   9.133  1.2682 -0.0812  0.2417
  311MOL0     C41860  10.988  11.590   9.023 -0.2490 -0.1238 -1.0013
  311MOL0     C41861  11.095  11.599   8.908  1.1722 -0.1660  0.6698
  311MOL0     C41862  11.212  11.686   8.949  0.4057 -0.8344  0.0323
  311MOL0     C41863  11.244  11.801   8.856  0.8952  0.2227  0.0751
  311MOL0     C41864  11.175  11.933   8.905  0.0484 -0.0210 -0.3551
  311MOL0     C41865  11.247  11.991   9.026 -0.0010  0.0833 -0.2159
  311MOL0     C41866  11.157  12.053   9.135  0.3184 -0.1379 -0.3469
  311MOL0     N41867  11.074  11.958   9.208 -0.2474  0.8454 -0.0216
  311MOL0     C41868  10.941  11.925   9.207  0.6466  0.2046  0.4322
  311MOL0     C41869  10.918  11.816   9.284 -0.0024  0.2519  1.3043
  311MOL0     C41870  10.789  11.738   9.301 -0.3420  0.9441 -0.0783
  311MOL0     C41871  10.688  11.812   9.379  0.3411 -0.7368  0.3838
  311MOL0     C41872  10.543  11.788   9.321 -1.0590  0.1901  0.2012
  311MOL0     C41873  10.527  11.873   9.199 -0.9511 -0.5117  0.0775
  311MOL0     O41874  10.397  11.870   9.140 -0.3215 -0.4328  0.4491
  311MOL0     C41875  10.302  11.970   9.173 -0.0559  0.4529 -0.2169
  311MOL0     C41876  10.215  11.932   9.277  0.0708 -0.4316  0.6218
  311MOL0     C41877  10.129  12.031   9.337  0.3509  0.2001 -0.0936
  311MOL0     C41878  10.032  11.982   9.443  0.4556 -0.4206  0.8636
  311MOL0     C41879  10.115  12.165   9.286 -0.0102 -0.7514 -0.1187
  311MOL0     C41880  10.043  12.279   9.351 -0.4320 -0.3755 -0.2475
  311MOL0     O41881  10.066  12.406   9.314 -0.6069 -0.2902 -1.3472
  311MOL0     C41882   9.996  12.507   9.380  0.0449 -0.1587  0.1953
  311MOL0     C41883   9.887  12.566   9.318 -0.1598  0.7815  0.3393
  311MOL0     C41884   9.819  12.671   9.369  0.1004  0.7067  0.6242
  311MOL0     C41885   9.867  12.740   9.479  1.2917  0.2083 -0.3407
  311MOL0     O41886   9.797  12.849   9.534 -0.4445 -0.4355 -0.6278
  311MOL0     C41887   9.830  12.917   9.656  0.2829 -0.4224 -0.8904
  311MOL0     C41888   9.760  12.853   9.783  0.3525  0.2911 -1.0311
  311MOL0     C41889   9.607  12.851   9.764  0.7297 -1.0876  1.0712
  311MOL0     C41890   9.525  12.958   9.851  0.1382  0.9056 -0.3018
  311MOL0     C41891   9.388  12.994   9.785 -0.4141 -0.0451 -0.5807
  311MOL0     C41892   9.319  13.103   9.862  0.0428  0.0229 -0.4747
  311MOL0     C41893   9.392  13.240   9.857 -0.4357 -0.2244  0.1462
  311MOL0     C41894   9.337  13.330   9.964 -0.4279  0.5151 -0.7339
  311MOL0    Cl41895   9.154  13.351   9.968 -0.1522  0.0775  0.1404
  311MOL0     C41896   9.985  12.692   9.537 -0.3110  0.2350 -0.7037
  311MOL0     C41897  10.048  12.573   9.497  0.8993  0.4023 -0.0306
  311MOL0     O41898   9.947  12.251   9.426  0.5617 -0.5164 -0.1003
  311MOL0     C41899  10.194  12.195   9.168 -0.3161  0.7479 -1.4567
  311MOL0     C41900  10.293  12.099   9.120  0.6196 -0.0587  0.0859
  311MOL0     N41901  11.045  11.785   9.338  0.3700 -0.1859  0.2977
  311MOL0     N41902  11.132  11.875   9.301  0.5757 -0.2376  0.3817
  311MOL0     C41903  11.241  11.198   9.123  0.7926  0.3015 -0.8893
  311MOL0     C41904  11.357  11.144   9.181 -0.2585  0.3435 -0.1916
  311MOL0     C41905  11.702  11.095   9.462 -0.0052  0.5197 -0.1614
  311MOL0     C41906  11.707  11.062   9.597 -0.1749  0.3452  0.5968
  311MOL0     C41907  11.830  11.023   9.652  1.2759  1.1872 -0.0382
  311MOL0     C41908  11.945  11.029   9.577  0.5368  0.5258 -0.6098
  311MOL0     O41909  12.061  10.983   9.633 -0.8427 -0.9412  0.3315
  311MOL0     C41910  12.076  10.991   9.775  0.0413  0.2543  0.2516
  311MOL0     C41911  12.228  10.980   9.794  0.9311 -0.5537  0.1043
  311MOL0     C41912  12.283  11.006   9.941 -0.5267  0.0397  0.2588
  311MOL0     C41913  12.437  11.010   9.927 -0.3474  0.5192 -0.7960
  311MOL0     C41914  12.495  10.887   9.881 -0.2827  0.7291 -0.3524
  311MOL0     C41915  12.546  10.782   9.841  0.1034 -0.5280 -0.7316
  311MOL0     C41916  11.944  11.054   9.440  0.3289 -0.9094 -0.3819
  311MOL0     C41917  11.821  11.093   9.386  0.8046  0.0921 -0.5193
  311MOL0     H41918  11.534  11.417   9.260  2.7888 -1.8563 -3.6633
  311MOL0     H41919  11.306  11.525   9.174 -0.1719  0.4007 -1.4082
  311MOL0     H41920  10.955  11.486   9.198  1.8920 -0.7511  0.9549
  311MOL0     H41921  11.100  11.552   9.211 -1.0291 -1.3390  2.9792
  311MOL0     H41922  10.905  11.539   8.972 -0.8844 -0.0645 -0.0439
  311MOL0     H41923  10.948  11.687   9.055 -1.0926  0.6702 -4.1168
  311MOL0     H41924  11.119  11.502   8.864 -0.8626  0.0840 -1.1786
  311MOL0     H41925  11.051  11.657   8.826  5.8790  2.4250 -0.4277
  311MOL0     H41926  11.190  11.717   9.051  0.8054  0.1166 -0.1652
  311MOL0     H41927  11.299  11.620   8.952 -0.2974 -1.8354 -0.6478
  311MOL0     H41928  11.352  11.805   8.866  0.7568  1.2507  1.6462
  311MOL0     H41929  11.218  11.780   8.752 -1.5145 -0.7128  0.7965
  311MOL0     H41930  11.172  12.016   8.834 -2.2482  1.3283  1.1907
  311MOL0     H41931  11.080  11.906   8.953  1.5431  0.9653  3.4723
  311MOL0     H41932  11.310  11.910   9.063  2.1316  2.0471  0.7655
  311MOL0     H41933  11.314  12.070   8.990 -0.0271  0.2741  0.1464
  311MOL0     H41934  11.112  12.146   9.099  2.3511 -0.1595 -3.3067
  311MOL0     H41935  11.228  12.082   9.214 -0.7215  2.0853 -0.1465
  311MOL0     H41936  10.868  11.973   9.142  1.5849 -1.7224 -2.2225
  311MOL0     H41937  10.750  11.717   9.201 -1.2083  0.7365  0.2932
  311MOL0     H41938  10.809  11.637   9.340 -0.0227  1.4480  1.0918
  311MOL0     H41939  10.710  11.920   9.380  2.0407 -1.0142 -1.0933
  311MOL0     H41940  10.687  11.780   9.483 -0.6005 -5.4447 -0.8668
  311MOL0     H41941  10.479  11.836   9.395 -0.1460  0.1602  1.0380
  311MOL0     H41942  10.517  11.683   9.310 -0.3644  0.0325 -0.0015
  311MOL0     H41943  10.595  11.848   9.117  0.1255  0.4541  0.6449
  311MOL0     H41944  10.555  11.977   9.218 -1.6131 -0.2389 -0.3948
  311MOL0     H41945  10.236  11.835   9.323 -0.1259 -0.8787 -0.2122
  311MOL0     H41946  10.028  12.032   9.540 -1.9159 -0.8236  1.0311
  311MOL0     H41947   9.928  11.993   9.412 -0.3996 -3.4436  2.2279
  311MOL0     H41948  10.053  11.876   9.460 -0.0427 -0.5971  0.3802
  311MOL0     H41949   9.862  12.511   9.228  0.6748 -0.6471  0.9356
  311MOL0     H41950   9.728  12.695   9.313  0.7256 -1.6420 -1.6102
  311MOL0     H41951   9.937  12.931   9.675  0.4900 -2.5674 -0.2814
  311MOL0     H41952   9.783  13.015   9.668 -0.4668 -1.0730  3.0245
  311MOL0     H41953   9.786  12.748   9.799 -1.0332 -0.0644 -0.9651
  311MOL0     H41954   9.779  12.915   9.872 -1.2486  0.4708 -0.7750
  311MOL0     H41955   9.569  12.751   9.786 -0.0094 -0.5260  2.4455
  311MOL0     H41956   9.587  12.869   9.658  1.9997  0.8419  1.1123
  311MOL0     H41957   9.504  12.912   9.948  2.0259  0.9968  0.1914
  311MOL0     H41958   9.589  13.044   9.876 -1.8247  2.1923  0.6016
  311MOL0     H41959   9.324  12.905   9.792 -2.1276  1.2687  3.9032
  311MOL0     H41960   9.396  13.014   9.678 -0.0970  1.0490 -0.3592
  311MOL0     H41961   9.219  13.116   9.819 -0.5247  1.4987  1.1562
  311MOL0     H41962   9.297  13.071   9.964 -4.1228  0.6830 -0.9878
  311MOL0     H41963   9.368  13.297   9.767 -0.0662  1.5319  1.1173
  311MOL0     H41964   9.499  13.237   9.877 -0.7266 -0.9115  1.7445
  311MOL0     H41965   9.392  13.423   9.952  2.2451 -0.7417  0.8807
  311MOL0     H41966   9.363  13.294  10.064 -2.3869 -1.4282 -0.8271
  311MOL0     H41967  10.028  12.740   9.624  0.3101 -1.3469 -0.1020
  311MOL0     H41968  10.131  12.536   9.555  1.2417  1.8200  0.4322
  311MOL0     H41969  10.184  12.296   9.131  1.4154  1.5486  0.1020
  311MOL0     H41970  10.376  12.124   9.055 -1.5861  1.6852 -2.2097
  311MOL0     H41971  11.154  11.138   9.097 -1.7809  3.1417  0.4837
  311MOL0     H41972  11.381  11.038   9.181  0.7549  0.5585 -1.0004
  311MOL0     H41973  11.624  11.071   9.667  1.0859  1.4831  2.0300
  311MOL0     H41974  11.828  10.989   9.755 -2.9604 -1.7191 -0.7977
  311MOL0     H41975  12.034  11.078   9.828  3.8108  1.6596  1.2322
  311MOL0     H41976  12.032  10.899   9.813  0.8351 -1.0573 -1.8496
  311MOL0     H41977  12.275  11.053   9.728 -1.3938 -0.6240 -1.7277
  311MOL0     H41978  12.265  10.887   9.751  1.3929 -0.6883  0.7637
  311MOL0     H41979  12.250  10.918   9.997  0.3646  0.2555  1.1501
  311MOL0     H41980  12.243  11.099   9.981 -2.0399 -1.2883  1.9719
  311MOL0     H41981  12.470  11.024  10.030  0.9965 -1.3845 -0.9230
  311MOL0     H41982  12.468  11.099   9.871  0.8134  0.0149 -0.9872
  311MOL0     H41983  12.600  10.692   9.819 -1.4522 -2.9629  3.9253
  311MOL0     H41984  12.038  11.049   9.386  0.9624 -3.9017  0.7902
  311MOL0     H41985  11.812  11.103   9.278  1.0356  2.1785 -0.3861
  312MOL0     O41986   6.233  11.056   6.910  0.7586 -0.3876 -0.3943
  312MOL0     C41987   6.248  11.138   6.997  0.1086 -0.7991  0.5206
  312MOL0     O41988   6.367  11.168   7.067  0.1150 -0.7662  0.0170
  312MOL0     C41989   6.486  11.110   7.044  0.6304  1.5103 -0.0150
  312MOL0     C41990   6.608  11.183   7.069  0.3736 -0.3826 -0.1779
  312MOL0     C41991   6.734  11.124   7.058 -0.5256 -0.5823  0.1238
  312MOL0     C41992   6.749  10.992   7.026  0.0977 -0.0175 -0.2807
  312MOL0     O41993   6.864  10.922   7.028 -0.1923 -0.0159  0.5759
  312MOL0     C41994   6.967  10.952   7.135  1.0992  1.1196 -0.0853
  312MOL0     C41995   7.057  10.824   7.127 -0.1554  0.4283  0.0366
  312MOL0     C41996   7.177  10.833   7.220 -0.7185  0.3880  0.1476
  312MOL0     C41997   7.281  10.928   7.166  0.0115  0.8985  0.2399
  312MOL0     C41998   7.411  10.933   7.253 -0.9859  0.9890  0.2049
  312MOL0     C41999   7.385  10.925   7.401 -1.0474  0.4109 -0.3469
  312MOL0     C42000   7.502  10.952   7.499 -0.1075 -0.1934  0.2073
  312MOL0     C42001   7.458  10.953   7.645  0.0767  0.7335 -1.0275
  312MOL0     N42002   7.536  11.042   7.728  0.1891 -0.1379 -0.6801
  312MOL0     C42003   7.659  11.094   7.699  0.4478  0.1588 -0.1508
  312MOL0     C42004   7.682  11.193   7.790 -0.8955  0.3355  0.5050
  312MOL0     C42005   7.796  11.287   7.784  0.1623 -0.4665 -0.3714
  312MOL0     C42006   7.774  11.405   7.676  0.4854  0.7821  0.2126
  312MOL0     C42007   7.892  11.492   7.639 -0.8077  0.0630 -0.3250
  312MOL0     C42008   8.030  11.423   7.611  1.7556  0.5106 -0.5544
  312MOL0     O42009   8.018  11.288   7.566 -0.8538  0.2595 -0.2540
  312MOL0     C42010   8.125  11.207   7.568  0.7690 -0.2309  0.2447
  312MOL0     C42011   8.108  11.073   7.602  0.2851  0.1699  0.1483
  312MOL0     C42012   8.211  10.982   7.560 -0.0749  0.8938  0.7092
  312MOL0     C42013   8.180  10.834   7.574 -0.7023 -0.6046 -0.1602
  312MOL0     C42014   8.339  11.041   7.514 -0.0976 -0.0131 -0.7758
  312MOL0     C42015   8.456  10.969   7.461  0.0741  0.7795 -0.1257
  312MOL0     O42016   8.578  11.040   7.437 -0.1646 -0.2488  0.9027
  312MOL0     C42017   8.672  10.949   7.395  0.2221  0.2798 -0.7223
  312MOL0     C42018   8.727  10.853   7.480  0.4078 -0.0833 -0.8327
  312MOL0     C42019   8.841  10.785   7.443  0.2270  0.1488  0.2580
  312MOL0     C42020   8.881  10.785   7.314 -0.5007  0.0927 -0.1398
  312MOL0     O42021   8.997  10.721   7.285  0.2804 -0.4053 -0.4178
  312MOL0     C42022   9.007  10.661   7.152 -0.2416  0.0215  0.6505
  312MOL0     C42023   9.107  10.544   7.168 -0.7109  0.2804  0.9563
  312MOL0     C42024   9.118  10.460   7.037  0.3454  0.4071  0.6321
  312MOL0     C42025   9.216  10.341   7.053  0.8980 -0.2780 -0.0806
  312MOL0     C42026   9.185  10.217   6.971  0.8092 -0.9726 -0.4129
  312MOL0     C42027   9.166  10.245   6.829  0.0935  0.7492  0.4909
  312MOL0     C42028   9.136  10.112   6.761  0.8008  0.1890 -0.1340
  312MOL0     C42029   9.085  10.150   6.613 -1.1832 -0.1362 -0.2504
  312MOL0    Cl42030   8.905  10.174   6.601  0.5380 -0.4028  0.2672
  312MOL0     C42031   8.813  10.868   7.212 -1.0271  0.2774  0.3769
  312MOL0     C42032   8.704  10.941   7.258  0.4194 -1.6242 -0.5973
  312MOL0     O42033   8.432  10.856   7.421  0.6192  0.1268 -0.5555
  312MOL0     C42034   8.359  11.181   7.519 -0.1466 -0.4895  0.5281
  312MOL0     C42035   8.240  11.259   7.526 -1.0945  0.4754  0.1863
  312MOL0     N42036   7.569  11.204   7.873  0.3670  0.1722 -0.1751
  312MOL0     N42037   7.486  11.116   7.834 -0.4993  1.0348  0.6075
  312MOL0     C42038   6.632  10.930   6.986  0.3881 -0.3294 -0.3564
  312MOL0     C42039   6.501  10.982   6.991  0.5805 -0.7290 -1.5510
  312MOL0     C42040   6.128  11.212   7.048  0.1531 -0.5115  0.1441
  312MOL0     C42041   6.131  11.302   7.159  0.7227  0.6212  0.2970
  312MOL0     C42042   6.020  11.385   7.193 -0.8473 -0.3704  0.4490
  312MOL0     C42043   5.904  11.372   7.116 -0.8210  0.4231 -1.0290
  312MOL0     O42044   5.787  11.428   7.159 -0.6644  0.1252 -0.3558
  312MOL0     C42045   5.789  11.581   7.159  0.1489  0.4422 -0.8024
  312MOL0     C42046   5.789  11.643   7.019  0.0043  0.1590  0.0178
  312MOL0     C42047   5.777  11.784   7.009  0.2646 -0.1939  0.3593
  312MOL0     C42048   5.742  11.834   6.872 -0.1586 -0.9547 -0.0148
  312MOL0     C42049   5.675  11.963   6.870 -0.6320 -0.4580  0.4389
  312MOL0     C42050   5.608  12.065   6.852 -0.5334 -0.5158 -0.1883
  312MOL0     C42051   5.897  11.287   7.007 -0.0272 -0.0931  0.3968
  312MOL0     C42052   6.009  11.210   6.973  0.3230  0.8940  0.2226
  312MOL0     H42053   6.598  11.288   7.096 -0.5733 -0.2825 -0.8473
  312MOL0     H42054   6.821  11.184   7.079 -0.4691  0.2274 -2.0812
  312MOL0     H42055   7.011  11.049   7.116  0.5826  1.4234  0.2324
  312MOL0     H42056   6.916  10.951   7.232 -0.1756  0.7783 -0.7247
  312MOL0     H42057   6.992  10.743   7.160 -1.0132  1.7425  1.7700
  312MOL0     H42058   7.087  10.808   7.023 -1.7686  0.7559 -0.4979
  312MOL0     H42059   7.144  10.846   7.324  1.5079 -1.8792  1.2564
  312MOL0     H42060   7.226  10.735   7.218  0.7486  1.1072 -0.2225
  312MOL0     H42061   7.313  10.914   7.063 -1.0030  4.5421 -0.7194
  312MOL0     H42062   7.239  11.029   7.175 -1.2401  0.4943 -0.8137
  312MOL0     H42063   7.475  10.848   7.226 -0.3297  1.6483 -0.3668
  312MOL0     H42064   7.478  11.016   7.226  0.0977 -0.4090 -1.7076
  312MOL0     H42065   7.310  10.999   7.434 -0.5612  0.4816  0.6362
  312MOL0     H42066   7.345  10.829   7.434  0.6571  0.5597  2.4878
  312MOL0     H42067   7.578  10.880   7.468 -0.5908 -0.4448 -0.3865
  312MOL0     H42068   7.538  11.052   7.473  3.6492 -1.5808 -0.5419
  312MOL0     H42069   7.456  10.852   7.686  0.4689  0.0197 -2.6537
  312MOL0     H42070   7.354  10.984   7.657 -0.0650  0.0200 -0.3477
  312MOL0     H42071   7.733  11.071   7.623  0.4416  1.9256 -0.7343
  312MOL0     H42072   7.803  11.352   7.871  2.1837 -0.2748 -0.6230
  312MOL0     H42073   7.889  11.232   7.765 -0.0335 -0.8490 -0.2214
  312MOL0     H42074   7.687  11.466   7.698  0.5432  1.9464 -2.3767
  312MOL0     H42075   7.746  11.349   7.586  0.1267  0.1435  0.7140
  312MOL0     H42076   7.897  11.584   7.699 -0.0052  1.9552 -3.1075
  312MOL0     H42077   7.858  11.522   7.540 -2.3984  0.8872  0.4414
  312MOL0     H42078   8.089  11.432   7.703 -0.6775  2.5637  0.9592
  312MOL0     H42079   8.077  11.485   7.533  0.1067 -0.3616 -2.3181
  312MOL0     H42080   8.017  11.027   7.639  0.3550 -0.5082 -0.4978
  312MOL0     H42081   8.258  10.800   7.643  1.8897 -1.3749 -3.2155
  312MOL0     H42082   8.086  10.813   7.625  0.9516 -1.4088  2.7417
  312MOL0     H42083   8.194  10.779   7.480 -3.0700 -2.6257  0.5927
  312MOL0     H42084   8.697  10.844   7.583  4.1057  1.4709  0.5732
  312MOL0     H42085   8.884  10.732   7.527  1.0754  3.5989  2.1409
  312MOL0     H42086   8.917  10.616   7.109 -0.9158  2.1262 -0.2680
  312MOL0     H42087   9.055  10.720   7.074 -1.2887 -0.1384 -0.1325
  312MOL0     H42088   9.205  10.586   7.191  0.5945 -1.1268 -1.6214
  312MOL0     H42089   9.084  10.479   7.253  0.6893 -2.7150 -0.7815
  312MOL0     H42090   9.146  10.527   6.956 -2.1303 -1.7939 -2.3017
  312MOL0     H42091   9.019  10.418   7.014  1.5161 -2.0693 -0.2305
  312MOL0     H42092   9.321  10.372   7.043  0.3728  1.7048 -0.0145
  312MOL0     H42093   9.223  10.308   7.157  0.1445 -3.3443 -0.9096
  312MOL0     H42094   9.097  10.169   7.016  0.7683 -2.0152 -1.5785
  312MOL0     H42095   9.270  10.150   6.982  0.2165 -1.5543  0.8403
  312MOL0     H42096   9.088  10.316   6.799  1.4804  1.9718 -0.3738
  312MOL0     H42097   9.264  10.277   6.793  0.7727 -0.8888  0.8378
  312MOL0     H42098   9.055  10.055   6.808 -1.0835  1.2362 -1.9481
  312MOL0     H42099   9.226  10.050   6.763  1.9709  1.8160  1.9868
  312MOL0     H42100   9.110  10.074   6.540 -1.5085 -0.8464  0.3604
  312MOL0     H42101   9.140  10.242   6.591  2.6625 -2.4937 -1.2968
  312MOL0     H42102   8.858  10.903   7.120 -0.5802  1.6502  1.0893
  312MOL0     H42103   8.669  11.022   7.195  0.1518  1.4174  3.1087
  312MOL0     H42104   8.449  11.231   7.482 -0.1360 -1.2733 -0.5547
  312MOL0     H42105   8.252  11.366   7.512 -1.5866  0.5924  0.6407
  312MOL0     H42106   6.650  10.831   6.945  0.4433 -0.6388  0.3937
  312MOL0     H42107   6.428  10.913   6.950  0.8591 -1.1505 -1.3478
  312MOL0     H42108   6.225  11.297   7.214  1.5744  3.7911 -0.7106
  312MOL0     H42109   6.030  11.449   7.281  6.9153 -1.7617  1.3006
  312MOL0     H42110   5.698  11.627   7.199 -0.7677 -0.5559 -1.6711
  312MOL0     H42111   5.875  11.600   7.224 -1.3049 -1.8961  2.0426
  312MOL0     H42112   5.699  11.602   6.971 -0.1486  2.6093 -1.9807
  312MOL0     H42113   5.874  11.611   6.958 -0.6170  0.7334 -1.1770
  312MOL0     H42114   5.877  11.823   7.029  0.5973 -1.2002  0.6804
  312MOL0     H42115   5.705  11.828   7.080 -0.8927 -1.2923 -0.1004
  312MOL0     H42116   5.688  11.756   6.817 -0.5008  0.0772 -1.1972
  312MOL0     H42117   5.834  11.864   6.820 -1.6540  3.4566 -0.5327
  312MOL0     H42118   5.562  12.157   6.820 -0.5909 -1.0298 -1.6543
  312MOL0     H42119   5.807  11.285   6.946  0.2626  0.6181 -0.0820
  312MOL0     H42120   6.002  11.167   6.874  1.5860 -2.7600  1.5411
  313MOL0     O42121   9.402   5.841   9.635  0.0901 -0.4731 -0.9810
  313MOL0     C42122   9.487   5.761   9.673  0.0483 -0.7777  0.5226
  313MOL0     O42123   9.620   5.782   9.656 -0.2858  0.0739  0.5944
  313MOL0     C42124   9.670   5.892   9.597 -0.1967 -1.1104  1.1861
  313MOL0     C42125   9.776   5.956   9.660  0.2140 -0.4232  0.7408
  313MOL0     C42126   9.845   6.061   9.598 -0.0276  0.3455 -0.0074
  313MOL0     C42127   9.797   6.111   9.480  0.3738 -0.6088  0.3192
  313MOL0     O42128   9.864   6.207   9.407  0.6599 -0.1571 -0.0205
  313MOL0     C42129  10.003   6.170   9.383 -0.0920  0.8576 -0.9401
  313MOL0     C42130  10.054   6.207   9.233  0.0915  0.0188 -0.0183
  313MOL0     C42131   9.979   6.147   9.109 -0.0653  0.4645  0.3721
  313MOL0     C42132   9.982   5.997   9.086 -0.1196  0.1721  0.5940
  313MOL0     C42133   9.936   5.952   8.949 -0.6747 -0.3998 -0.9526
  313MOL0     C42134   9.959   5.804   8.921 -0.0213  1.3211 -0.7813
  313MOL0     C42135   9.876   5.758   8.805  0.3903  0.0088 -0.1963
  313MOL0     C42136   9.913   5.618   8.740 -0.2387  0.4774 -0.8509
  313MOL0     N42137   9.838   5.602   8.614  0.6141  0.0255  0.2356
  313MOL0     C42138   9.892   5.566   8.487  0.5928  0.0906 -0.8736
  313MOL0     C42139   9.790   5.545   8.402 -0.3831  0.2785 -0.8039
  313MOL0     C42140   9.800   5.521   8.252  0.1638  0.5873 -0.8559
  313MOL0     C42141   9.730   5.634   8.180 -0.0411  0.5030  0.2826
  313MOL0     C42142   9.689   5.622   8.037 -0.2419  0.3520 -0.3507
  313MOL0     C42143   9.570   5.529   8.003 -0.3392 -0.4038  0.1938
  313MOL0     O42144   9.443   5.571   8.072  0.7605 -0.0442  0.0202
  313MOL0     C42145   9.362   5.652   7.997  0.1583  0.7336  0.5489
  313MOL0     C42146   9.401   5.727   7.882 -0.5904 -0.0330  0.1052
  313MOL0     C42147   9.308   5.801   7.813 -0.2207 -0.5376 -0.3951
  313MOL0     C42148   9.362   5.895   7.708 -0.1701 -0.6839  0.8467
  313MOL0     C42149   9.171   5.796   7.854  0.4633  0.4142  0.7797
  313MOL0     C42150   9.073   5.898   7.810 -0.1997 -0.6847  0.2090
  313MOL0     O42151   8.968   5.914   7.887  1.0804 -0.1612 -0.5394
  313MOL0     C42152   8.852   5.990   7.865 -0.5047  0.1133 -0.4866
  313MOL0     C42153   8.747   5.955   7.957  0.3301 -0.8132 -0.4690
  313MOL0     C42154   8.620   6.017   7.946  0.6248  0.8279 -0.3751
  313MOL0     C42155   8.588   6.098   7.833  0.0820 -0.0313 -0.3619
  313MOL0     O42156   8.465   6.158   7.833  0.0065 -0.1153  0.7668
  313MOL0     C42157   8.441   6.249   7.725 -0.6475  0.0610  0.8216
  313MOL0     C42158   8.313   6.311   7.750  0.9016  0.7011  0.0731
  313MOL0     C42159   8.297   6.430   7.653 -0.5491  0.4679 -0.4333
  313MOL0     C42160   8.230   6.404   7.525 -0.3834 -0.2307  0.9114
  313MOL0     C42161   8.285   6.473   7.403  1.0571  0.2197 -0.4720
  313MOL0     C42162   8.404   6.392   7.351  0.7396 -0.6277  0.2815
  313MOL0     C42163   8.473   6.454   7.226  0.0625  0.2844 -0.1827
  313MOL0     C42164   8.554   6.352   7.152  0.0867  0.2400  0.4198
  313MOL0    Cl42165   8.434   6.252   7.059 -0.1803  0.3618 -0.1504
  313MOL0     C42166   8.686   6.121   7.738  0.4995 -0.1549  0.1758
  313MOL0     C42167   8.827   6.078   7.756  0.4698  0.2711  0.6409
  313MOL0     O42168   9.101   5.965   7.716  0.0452 -0.0233  0.4636
  313MOL0     C42169   9.128   5.708   7.956  1.0261 -0.5125  0.3191
  313MOL0     C42170   9.227   5.646   8.031  0.6381  0.1782 -0.4011
  313MOL0     N42171   9.678   5.548   8.476  0.0152 -0.0880  0.6644
  313MOL0     N42172   9.702   5.578   8.598  0.7913 -0.3056  0.1762
  313MOL0     C42173   9.685   6.059   9.427 -0.7464 -0.0527  0.5785
  313MOL0     C42174   9.618   5.949   9.478 -0.8963 -0.1132  0.2412
  313MOL0     C42175   9.454   5.649   9.750  0.0078  0.6000  0.2594
  313MOL0     C42176   9.327   5.640   9.810 -0.8612 -0.5592  1.0688
  313MOL0     C42177   9.305   5.534   9.900  0.8825  0.1515 -0.8646
  313MOL0     C42178   9.392   5.426   9.915  0.9986 -0.1558  1.1096
  313MOL0     O42179   9.339   5.340   9.997 -0.4863 -0.0527  0.5223
  313MOL0     C42180   9.359   5.198   9.975 -0.7899 -0.9418 -0.2181
  313MOL0     C42181   9.453   5.148  10.092  0.4239  0.3150 -0.1859
  313MOL0     C42182   9.374   5.139  10.230  0.1214  0.2383  0.2838
  313MOL0     C42183   9.480   5.141  10.344 -0.2415 -0.3239  0.6651
  313MOL0     C42184   9.559   5.019  10.335 -0.3913 -0.0184 -0.2241
  313MOL0     C42185   9.621   4.922  10.320 -0.4282  0.1217 -0.1740
  313MOL0     C42186   9.523   5.436   9.859 -0.2655  0.0162  0.1571
  313MOL0     C42187   9.551   5.552   9.785  0.3201 -0.0307 -0.5004
  313MOL0     H42188   9.808   5.919   9.757 -0.4390  1.2103  1.6190
  313MOL0     H42189   9.932   6.110   9.641 -0.6786  1.2884  0.2653
  313MOL0     H42190  10.065   6.222   9.457  1.0954 -0.5094 -0.9216
  313MOL0     H42191  10.013   6.063   9.403 -0.1396  1.0924  0.3769
  313MOL0     H42192  10.043   6.315   9.225  1.9488  0.1047 -2.7502
  313MOL0     H42193  10.159   6.175   9.233 -0.2888 -1.5609  2.4594
  313MOL0     H42194   9.876   6.182   9.121  0.0811  1.3577 -0.8108
  313MOL0     H42195  10.025   6.201   9.026 -0.1150 -1.1613 -0.7534
  313MOL0     H42196  10.086   5.963   9.088 -0.0346  0.2051 -1.3152
  313MOL0     H42197   9.921   5.949   9.164 -0.4595  0.8925  0.7811
  313MOL0     H42198   9.830   5.978   8.942 -0.5811 -0.1016 -1.2447
  313MOL0     H42199   9.978   6.015   8.870  2.1941 -2.5185 -1.2816
  313MOL0     H42200  10.066   5.795   8.900  0.1087  0.6084  0.1075
  313MOL0     H42201   9.922   5.743   9.004  1.5378  2.2827  0.6888
  313MOL0     H42202   9.767   5.769   8.813  0.5493  0.3000  2.1555
  313MOL0     H42203   9.913   5.835   8.736  2.9618 -1.3537 -0.4731
  313MOL0     H42204   9.880   5.543   8.813  1.5493 -0.4260 -0.9150
  313MOL0     H42205  10.021   5.606   8.734  0.1713  2.2716  1.4935
  313MOL0     H42206   9.995   5.579   8.457  0.6543  1.0015 -0.3021
  313MOL0     H42207   9.907   5.521   8.228  0.3395 -0.2601 -0.1398
  313MOL0     H42208   9.742   5.429   8.241  1.0322 -0.4041  1.8660
  313MOL0     H42209   9.795   5.722   8.187 -0.7726  1.0989 -0.2038
  313MOL0     H42210   9.643   5.653   8.243  0.7484  1.3578  1.1409
  313MOL0     H42211   9.771   5.593   7.970 -0.0988 -0.9670  0.3592
  313MOL0     H42212   9.675   5.726   8.005 -2.0983  0.1648 -0.2283
  313MOL0     H42213   9.598   5.433   8.047  0.4524  0.4666  1.6505
  313MOL0     H42214   9.554   5.512   7.896  2.4847  0.5424 -0.4725
  313MOL0     H42215   9.507   5.737   7.861 -0.4066 -0.0183  1.0049
  313MOL0     H42216   9.470   5.883   7.701 -0.2218 -0.3532 -0.8156
  313MOL0     H42217   9.315   5.869   7.613 -3.4367  0.7286  1.9323
  313MOL0     H42218   9.350   6.000   7.735  2.9449  0.3485 -1.2310
  313MOL0     H42219   8.764   5.877   8.030  0.0878  0.9539  1.5798
  313MOL0     H42220   8.548   5.988   8.021  1.6512 -2.7304 -0.6192
  313MOL0     H42221   8.526   6.317   7.715 -0.7408  0.0214 -0.3255
  313MOL0     H42222   8.430   6.195   7.631 -1.1040  0.8154  0.4308
  313MOL0     H42223   8.225   6.246   7.743 -0.9506  3.2442 -3.6835
  313MOL0     H42224   8.319   6.352   7.851 -0.2345  0.0740  0.4052
  313MOL0     H42225   8.394   6.477   7.635 -0.5210 -0.7437 -4.3124
  313MOL0     H42226   8.232   6.505   7.700  1.8688  1.6238  1.2802
  313MOL0     H42227   8.224   6.295   7.518  1.4042 -0.3414  0.6252
  313MOL0     H42228   8.127   6.442   7.530 -0.4565 -0.5660  2.0840
  313MOL0     H42229   8.308   6.578   7.424 -0.9597  1.2107 -2.7475
  313MOL0     H42230   8.205   6.468   7.328  1.5369 -3.9647 -0.9534
  313MOL0     H42231   8.482   6.379   7.427  2.5092 -0.7028 -1.4700
  313MOL0     H42232   8.382   6.293   7.310  1.0934 -0.0683 -1.3284
  313MOL0     H42233   8.535   6.537   7.261  2.6320 -2.0103  1.1695
  313MOL0     H42234   8.394   6.493   7.161  0.4718 -0.1598 -0.9561
  313MOL0     H42235   8.619   6.307   7.227 -0.0828  1.4641  1.3315
  313MOL0     H42236   8.617   6.409   7.083 -0.6513 -0.4553 -0.8795
  313MOL0     H42237   8.661   6.162   7.641 -2.6140  3.9465  2.4171
  313MOL0     H42238   8.902   6.091   7.679  3.8869 -2.2861  3.2179
  313MOL0     H42239   9.026   5.707   7.991  0.5577  2.0785 -0.7834
  313MOL0     H42240   9.184   5.592   8.115 -0.8719  2.0411  0.1094
  313MOL0     H42241   9.656   6.094   9.328  4.4936 -0.1353 -1.2991
  313MOL0     H42242   9.535   5.900   9.428 -3.3231  0.4991  3.3486
  313MOL0     H42243   9.251   5.710   9.778 -2.1743 -1.6139  1.7511
  313MOL0     H42244   9.216   5.517   9.961  0.2223  0.5668 -1.6882
  313MOL0     H42245   9.265   5.144   9.980  0.0153 -2.4156 -0.3863
  313MOL0     H42246   9.395   5.177   9.874 -1.1792  2.5064 -1.2225
  313MOL0     H42247   9.543   5.208  10.106 -0.0500  0.6148  1.9210
  313MOL0     H42248   9.478   5.047  10.058 -0.8084 -1.1860  2.9714
  313MOL0     H42249   9.324   5.042  10.243  0.5673  0.2364  2.4649
  313MOL0     H42250   9.301   5.219  10.235  2.1876  2.2424  0.2537
  313MOL0     H42251   9.442   5.154  10.446  1.8079  2.5052  1.2137
  313MOL0     H42252   9.544   5.229  10.328 -1.1629  0.3565  0.6630
  313MOL0     H42253   9.700   4.850  10.324 -0.8093 -0.2366  2.7275
  313MOL0     H42254   9.594   5.359   9.888 -0.8423 -1.1699 -1.4724
  313MOL0     H42255   9.653   5.563   9.750 -0.0900 -1.2143 -2.2150
  314MOL0     O42256  10.823   0.839   4.217 -0.0420 -0.0641 -0.6906
  314MOL0     C42257  10.780   0.723   4.192 -0.6604 -0.0191 -1.1670
  314MOL0     O42258  10.701   0.688   4.095  0.2941  0.2291  1.4825
  314MOL0     C42259  10.721   0.758   3.978  0.3756  0.4092 -0.4917
  314MOL0     C42260  10.767   0.686   3.868  0.6243 -0.7672  1.1003
  314MOL0     C42261  10.778   0.761   3.747 -0.1066  0.5098 -0.2126
  314MOL0     C42262  10.745   0.893   3.728  0.2667 -0.8234  0.0046
  314MOL0     O42263  10.748   0.956   3.606 -0.0194  0.0393  0.4961
  314MOL0     C42264  10.675   0.891   3.502  0.3023 -0.0840  0.2979
  314MOL0     C42265  10.526   0.934   3.490  0.5358 -0.4779 -0.3476
  314MOL0     C42266  10.490   1.080   3.494  0.2785  0.4026  1.3235
  314MOL0     C42267  10.462   1.154   3.629  0.2028  0.6021  0.0945
  314MOL0     C42268  10.526   1.304   3.594  0.5963 -0.0107  0.0142
  314MOL0     C42269  10.677   1.314   3.614  0.9552 -0.1364 -0.6397
  314MOL0     C42270  10.730   1.435   3.538  0.5711 -0.7904 -0.3135
  314MOL0     C42271  10.787   1.412   3.395  0.8768 -0.5596 -0.4395
  314MOL0     N42272  10.694   1.391   3.287 -0.0686 -0.3020 -0.7838
  314MOL0     C42273  10.597   1.473   3.244  0.9244  0.3055  0.0534
  314MOL0     C42274  10.534   1.416   3.141  0.5872 -0.7053  0.5592
  314MOL0     C42275  10.435   1.488   3.046  0.9104  0.2519  0.2956
  314MOL0     C42276  10.319   1.395   3.022 -0.4263 -0.0861 -0.2966
  314MOL0     C42277  10.201   1.466   2.969  0.0184 -0.3304 -0.0944
  314MOL0     C42278  10.114   1.372   2.892 -0.2099 -0.3883 -0.6669
  314MOL0     O42279   9.979   1.421   2.892 -0.0127 -0.3265 -0.3111
  314MOL0     C42280   9.944   1.530   2.816  0.5125 -0.2707  1.0145
  314MOL0     C42281   9.908   1.655   2.876  1.3080  1.0818 -0.1758
  314MOL0     C42282   9.854   1.756   2.797  0.5899 -0.0975 -0.5436
  314MOL0     C42283   9.793   1.877   2.869 -0.2651  0.3022 -0.2277
  314MOL0     C42284   9.867   1.750   2.659  0.5048  0.3070 -0.4343
  314MOL0     C42285   9.838   1.852   2.568 -0.0750 -0.0880  0.2265
  314MOL0     O42286   9.929   1.864   2.459  0.7042 -0.6282 -0.9946
  314MOL0     C42287   9.885   1.959   2.364 -0.8990  0.0704 -0.0140
  314MOL0     C42288   9.802   1.919   2.258  0.2710  0.6446  0.6442
  314MOL0     C42289   9.777   2.010   2.152  0.6106 -0.7651  0.2683
  314MOL0     C42290   9.827   2.135   2.146  0.7197  0.5813  1.4651
  314MOL0     O42291   9.794   2.201   2.025 -0.3732  0.3094 -0.5586
  314MOL0     C42292   9.810   2.351   2.030 -0.8775 -0.1918 -0.5205
  314MOL0     C42293   9.751   2.427   1.911 -0.8374  0.3667  0.1800
  314MOL0     C42294   9.761   2.577   1.870  0.0168 -0.0887  0.3616
  314MOL0     C42295   9.903   2.613   1.822 -0.2531 -0.3936  0.1433
  314MOL0     C42296   9.903   2.766   1.781 -0.2551  0.2701  0.2839
  314MOL0     C42297  10.036   2.822   1.733  0.0572 -0.6868 -0.5908
  314MOL0     C42298  10.134   2.882   1.834 -0.1719 -0.4309 -0.0838
  314MOL0     C42299  10.277   2.876   1.795 -0.3250  0.1946  0.7980
  314MOL0    Cl42300  10.316   2.699   1.833 -0.7132 -0.4388 -0.0191
  314MOL0     C42301   9.922   2.170   2.243  0.8797 -0.1572  0.5061
  314MOL0     C42302   9.951   2.082   2.349 -0.7096  0.0723  0.1486
  314MOL0     O42303   9.742   1.925   2.583  0.2647 -0.2001 -0.3603
  314MOL0     C42304   9.902   1.633   2.597 -0.0759  0.8486 -0.1288
  314MOL0     C42305   9.939   1.519   2.672  0.1808 -0.0039 -0.0456
  314MOL0     N42306  10.594   1.303   3.117 -0.2265 -0.1012 -0.9228
  314MOL0     N42307  10.696   1.287   3.204  0.6840 -0.1935 -0.3307
  314MOL0     C42308  10.708   0.966   3.844  0.3033 -0.0902  0.1249
  314MOL0     C42309  10.694   0.901   3.969  0.1576  0.5753 -0.0034
  314MOL0     C42310  10.813   0.618   4.287  0.1385  1.2407  0.2177
  314MOL0     C42311  10.854   0.651   4.413 -0.6594 -0.6273  0.0398
  314MOL0     C42312  10.866   0.560   4.516 -0.5587 -0.1269  0.0374
  314MOL0     C42313  10.833   0.425   4.488 -0.6777 -0.3326 -0.1135
  314MOL0     O42314  10.847   0.323   4.587  0.3569 -0.1047  0.0674
  314MOL0     C42315  10.907   0.349   4.713  0.0824  0.2243 -0.0912
  314MOL0     C42316  10.942   0.221   4.785  0.8361 -0.9670  0.3298
  314MOL0     C42317  11.043   0.135   4.699  1.4939 -0.2152 -0.1898
  314MOL0     C42318  11.165   0.205   4.649 -0.0401  0.3020  0.6193
  314MOL0     C42319  11.219   0.296   4.750  0.3058 -0.4494 -0.7959
  314MOL0     C42320  11.253   0.360   4.840  0.0827 -0.4950 -0.1380
  314MOL0     C42321  10.799   0.384   4.372 -0.2418 -0.4961  0.1393
  314MOL0     C42322  10.789   0.482   4.262  0.0681  0.7732 -0.2053
  314MOL0     H42323  10.792   0.581   3.877 -0.5664 -1.5993 -3.2397
  314MOL0     H42324  10.797   0.704   3.656  0.9944 -1.8774  1.4180
  314MOL0     H42325  10.716   0.904   3.401  1.7490 -1.0454  0.7359
  314MOL0     H42326  10.676   0.783   3.512 -0.9198 -0.1985 -0.5320
  314MOL0     H42327  10.499   0.895   3.391  3.5562 -1.8447 -0.7427
  314MOL0     H42328  10.468   0.884   3.568 -0.0496  1.8134  0.7675
  314MOL0     H42329  10.574   1.121   3.437 -0.1142 -0.8576 -0.2608
  314MOL0     H42330  10.398   1.098   3.437  1.0893 -0.2480 -0.2623
  314MOL0     H42331  10.358   1.147   3.661 -0.2476  2.4963 -0.8073
  314MOL0     H42332  10.522   1.104   3.706 -2.7588 -2.9381  0.3756
  314MOL0     H42333  10.499   1.331   3.491  3.7927 -2.2286 -1.5594
  314MOL0     H42334  10.466   1.368   3.660 -0.8341  0.8642 -2.0465
  314MOL0     H42335  10.684   1.348   3.718 -2.2921 -0.3713 -0.2688
  314MOL0     H42336  10.739   1.226   3.594  2.6839  0.4663  1.6146
  314MOL0     H42337  10.662   1.520   3.525  0.6674 -0.5961  0.4079
  314MOL0     H42338  10.815   1.474   3.595  1.3422 -0.3893 -1.6787
  314MOL0     H42339  10.856   1.328   3.402  2.0315  0.3321 -0.9094
  314MOL0     H42340  10.843   1.499   3.362  0.1183  0.1082  0.0089
  314MOL0     H42341  10.571   1.571   3.283  1.1608  0.8823 -1.2023
  314MOL0     H42342  10.407   1.585   3.090  0.6123  0.6253 -0.6927
  314MOL0     H42343  10.480   1.526   2.954 -1.3368  3.3025  0.3045
  314MOL0     H42344  10.295   1.354   3.120 -1.1713 -0.9400 -0.8061
  314MOL0     H42345  10.359   1.316   2.957  1.6221  0.7098 -0.0553
  314MOL0     H42346  10.244   1.548   2.911  1.4343 -0.3536  0.8727
  314MOL0     H42347  10.142   1.512   3.049 -1.5885 -0.8484 -0.9391
  314MOL0     H42348  10.127   1.276   2.943  1.4821 -1.4822 -2.9974
  314MOL0     H42349  10.156   1.349   2.794  1.1028  3.5237 -1.1739
  314MOL0     H42350   9.909   1.648   2.984 -0.7991 -2.4315 -0.2355
  314MOL0     H42351   9.830   1.970   2.825  1.3018 -1.0088 -1.8293
  314MOL0     H42352   9.684   1.880   2.876 -0.2473  5.2957  2.0700
  314MOL0     H42353   9.825   1.896   2.972 -1.3944 -0.6971  0.3261
  314MOL0     H42354   9.755   1.822   2.266  2.1645 -0.3565  0.4087
  314MOL0     H42355   9.717   1.969   2.072 -0.0368  0.1009  0.2946
  314MOL0     H42356   9.757   2.390   2.117  1.9639  0.9685  0.7967
  314MOL0     H42357   9.912   2.384   2.054 -0.0650 -1.4540 -2.0343
  314MOL0     H42358   9.793   2.375   1.825 -0.1687  0.3780  0.4881
  314MOL0     H42359   9.645   2.401   1.911 -0.3449 -2.0270  2.2326
  314MOL0     H42360   9.731   2.641   1.953 -3.9335  0.4799 -1.2877
  314MOL0     H42361   9.687   2.592   1.790  0.5710  0.6775 -0.0184
  314MOL0     H42362   9.970   2.590   1.906 -1.9283  0.1165  1.7018
  314MOL0     H42363   9.934   2.552   1.737  0.6175  1.8565 -1.2234
  314MOL0     H42364   9.852   2.817   1.863 -1.8847 -0.7468 -0.0679
  314MOL0     H42365   9.839   2.780   1.693 -1.3091 -0.0971  0.9802
  314MOL0     H42366  10.085   2.742   1.677  2.8762  0.2487  0.4018
  314MOL0     H42367  10.007   2.899   1.660 -1.8454 -2.7285 -2.1249
  314MOL0     H42368  10.117   2.834   1.931 -4.1833  0.7471  0.0104
  314MOL0     H42369  10.097   2.983   1.852 -0.0435  0.1738 -2.7870
  314MOL0     H42370  10.342   2.949   1.842 -0.7959  1.2934 -0.2047
  314MOL0     H42371  10.269   2.893   1.687 -0.7037 -0.0550  0.7845
  314MOL0     H42372   9.989   2.255   2.243 -0.0649  0.5971  0.1309
  314MOL0     H42373  10.010   2.120   2.432 -2.3248  0.1283  1.3182
  314MOL0     H42374   9.889   1.614   2.491  0.4143 -1.7404  0.2147
  314MOL0     H42375   9.974   1.427   2.624  4.0810  0.6386  1.1804
  314MOL0     H42376  10.680   1.070   3.835 -0.0290 -0.2573 -0.9245
  314MOL0     H42377  10.675   0.954   4.062  0.6420  2.0654 -0.7232
  314MOL0     H42378  10.874   0.756   4.434 -1.0052  0.3154 -3.7206
  314MOL0     H42379  10.909   0.598   4.608  1.6268  0.1597 -1.0409
  314MOL0     H42380  10.993   0.416   4.704  0.4661 -0.4077 -1.3892
  314MOL0     H42381  10.829   0.394   4.776  1.3123 -1.0843  2.5434
  314MOL0     H42382  10.848   0.168   4.805 -0.7480  1.5120 -0.0647
  314MOL0     H42383  10.987   0.250   4.881  0.7144  1.1962 -0.2072
  314MOL0     H42384  10.991   0.074   4.625  1.3096 -1.2233  0.7429
  314MOL0     H42385  11.091   0.058   4.760 -1.0823 -1.0898  0.8518
  314MOL0     H42386  11.146   0.272   4.564 -1.6535  1.4208  1.7877
  314MOL0     H42387  11.244   0.133   4.630  2.4119  3.2411 -1.2649
  314MOL0     H42388  11.280   0.424   4.921  1.3744  0.8725 -1.5760
  314MOL0     H42389  10.764   0.281   4.363 -0.3261 -0.5307  0.7850
  314MOL0     H42390  10.753   0.440   4.168  3.4160 -1.7463 -0.5601
  315MOL0     O42391   4.538   2.344  10.625 -0.0152 -0.1284  0.0333
  315MOL0     C42392   4.647   2.375  10.672 -0.0663  0.1852  0.0765
  315MOL0     O42393   4.736   2.469  10.628  1.1354  0.5458 -0.2279
  315MOL0     C42394   4.688   2.556  10.530  0.4242 -0.3672 -1.0035
  315MOL0     C42395   4.768   2.583  10.422  0.8328 -0.3675  0.3315
  315MOL0     C42396   4.739   2.683  10.331  0.3038  0.1554  1.4149
  315MOL0     C42397   4.619   2.759  10.340  0.1408 -1.1193 -1.0062
  315MOL0     O42398   4.595   2.855  10.250 -0.3729 -0.8913 -0.1227
  315MOL0     C42399   4.491   2.956  10.279  0.2078  0.1282  0.1707
  315MOL0     C42400   4.457   3.032  10.147  1.1947 -0.3730 -1.3777
  315MOL0     C42401   4.562   3.109  10.079  0.4128  0.6912 -0.0301
  315MOL0     C42402   4.616   3.239  10.145 -0.5361  0.7799  0.8585
  315MOL0     C42403   4.719   3.313  10.065  0.0317  0.0795 -0.6744
  315MOL0     C42404   4.757   3.450  10.128  0.5927 -0.5797 -0.4349
  315MOL0     C42405   4.893   3.506  10.097  0.6842  0.0160  0.7191
  315MOL0     C42406   4.993   3.489  10.211 -0.0955 -0.1290 -1.0455
  315MOL0     N42407   5.138   3.510  10.181 -0.4692 -0.7790  0.0555
  315MOL0     C42408   5.236   3.564  10.267  0.4502  0.2798 -0.5735
  315MOL0     C42409   5.356   3.525  10.203 -0.1660 -0.2930  0.2097
  315MOL0     C42410   5.489   3.568  10.271 -0.0605  1.0740 -0.3613
  315MOL0     C42411   5.544   3.447  10.346  0.1006  0.0665 -0.4702
  315MOL0     C42412   5.666   3.471  10.438  1.2597  1.2789  0.5281
  315MOL0     C42413   5.737   3.346  10.488  0.4067  1.0120 -0.9561
  315MOL0     O42414   5.641   3.243  10.492  0.1541  0.4268 -0.5564
  315MOL0     C42415   5.679   3.123  10.432 -0.6243 -0.5099  0.4753
  315MOL0     C42416   5.715   3.109  10.302 -0.5937 -0.6999  0.0748
  315MOL0     C42417   5.745   2.982  10.239  0.0027 -0.0693 -0.9631
  315MOL0     C42418   5.803   2.992  10.097  0.2451  0.6150  0.1602
  315MOL0     C42419   5.714   2.863  10.316 -0.0821  0.3762  1.0976
  315MOL0     C42420   5.739   2.725  10.273 -0.4146 -0.1937  0.7452
  315MOL0     O42421   5.668   2.626  10.335  0.2436 -0.0906 -0.6628
  315MOL0     C42422   5.709   2.504  10.284 -0.3634 -0.7980 -0.2139
  315MOL0     C42423   5.621   2.434  10.206  1.1635 -0.3996  0.6515
  315MOL0     C42424   5.651   2.294  10.182 -0.0294  0.2191 -0.8842
  315MOL0     C42425   5.773   2.227  10.222  0.8721  0.0058  0.5372
  315MOL0     O42426   5.815   2.108  10.180  0.1797  0.0439  0.3195
  315MOL0     C42427   5.796   2.088  10.046 -0.3863  0.9032  0.2359
  315MOL0     C42428   5.831   1.944  10.015  0.6688 -0.1627 -0.0688
  315MOL0     C42429   5.816   1.931   9.857  0.1404 -1.2308 -1.1819
  315MOL0     C42430   5.820   1.780   9.833  0.7699  0.2262 -0.3491
  315MOL0     C42431   5.798   1.740   9.683  0.2330  0.4104  0.5242
  315MOL0     C42432   5.860   1.603   9.644 -0.3969 -0.4206 -0.4295
  315MOL0     C42433   6.009   1.582   9.668 -0.4166 -0.1451  0.3565
  315MOL0     C42434   6.054   1.429   9.669  0.6348 -0.7222  0.4231
  315MOL0    Cl42435   6.017   1.356   9.521  0.2370  0.1744  0.2860
  315MOL0     C42436   5.858   2.314  10.300 -0.0826  0.2313  0.5168
  315MOL0     C42437   5.822   2.443  10.332 -0.3082  0.8443  0.0076
  315MOL0     O42438   5.843   2.706  10.202  0.5104  0.0703 -0.0090
  315MOL0     C42439   5.646   2.880  10.438 -0.3454  0.0923  0.3625
  315MOL0     C42440   5.643   3.009  10.497  0.7201  0.1705 -0.0195
  315MOL0     N42441   5.333   3.473  10.080  0.1927  0.0211  1.2928
  315MOL0     N42442   5.205   3.440  10.082 -0.0527 -0.1552  0.7593
  315MOL0     C42443   4.538   2.724  10.452 -0.5147 -0.5442  0.9012
  315MOL0     C42444   4.576   2.633  10.549  0.4640 -0.4158  0.7450
  315MOL0     C42445   4.700   2.298  10.785  0.3463  0.6553 -0.6222
  315MOL0     C42446   4.631   2.188  10.829  0.5175  1.4313 -0.6477
  315MOL0     C42447   4.680   2.109  10.929  0.1023  0.0205  0.2139
  315MOL0     C42448   4.799   2.136  10.995  0.4415 -0.0633 -0.0739
  315MOL0     O42449   4.857   2.070  11.092 -0.6520  0.7963  0.8249
  315MOL0     C42450   4.798   1.942  11.130 -0.1137 -0.1206  0.4669
  315MOL0     C42451   4.842   1.849  11.014 -1.1435  0.0426  0.5740
  315MOL0     C42452   4.991   1.804  11.031  0.4910  0.9038 -0.1888
  315MOL0     C42453   5.074   1.777  10.907  1.2650  0.5573  0.6293
  315MOL0     C42454   5.090   1.896  10.823  0.3297 -0.9655 -1.3115
  315MOL0     C42455   5.120   2.001  10.772 -0.4566 -0.1662  0.1246
  315MOL0     C42456   4.869   2.243  10.948  0.4549 -1.0446 -0.3389
  315MOL0     C42457   4.823   2.329  10.845  0.4306 -0.3540  0.1916
  315MOL0     H42458   4.853   2.518  10.403  0.1142 -0.6178 -2.3578
  315MOL0     H42459   4.807   2.695  10.247 -0.8856 -1.4419  0.1416
  315MOL0     H42460   4.393   2.917  10.305  0.7218 -1.5746 -0.3024
  315MOL0     H42461   4.526   3.023  10.358 -3.2731  2.9085 -0.4096
  315MOL0     H42462   4.427   2.959  10.070  0.8567  0.1120 -1.7143
  315MOL0     H42463   4.374   3.103  10.154  2.6410  1.2470  3.6918
  315MOL0     H42464   4.642   3.036  10.061 -2.0378 -1.9709 -0.8702
  315MOL0     H42465   4.523   3.147   9.985 -0.4347  3.0434  1.1941
  315MOL0     H42466   4.530   3.305  10.159 -0.8209  1.0031 -1.4346
  315MOL0     H42467   4.669   3.216  10.238 -0.8275  0.6138  0.9856
  315MOL0     H42468   4.807   3.251  10.048  0.7862  1.1231 -0.6993
  315MOL0     H42469   4.682   3.324   9.963  2.0287 -0.6086 -1.5281
  315MOL0     H42470   4.685   3.519  10.085  1.1795  1.9913  2.3839
  315MOL0     H42471   4.740   3.462  10.236  0.5763  6.4672 -0.7766
  315MOL0     H42472   4.936   3.477  10.000 -0.5390 -0.2386  0.2312
  315MOL0     H42473   4.882   3.615  10.090  1.4534  0.0527 -0.1774
  315MOL0     H42474   4.983   3.389  10.252 -0.7155 -0.3176 -1.6247
  315MOL0     H42475   4.964   3.565  10.284  1.1396 -0.8836  0.2619
  315MOL0     H42476   5.231   3.632  10.351  2.1145 -1.4928  1.0452
  315MOL0     H42477   5.569   3.605  10.206  1.4132 -1.3769 -0.0329
  315MOL0     H42478   5.470   3.648  10.343  0.4992 -3.4300  5.4985
  315MOL0     H42479   5.576   3.369  10.275  2.6210 -0.9789  1.6257
  315MOL0     H42480   5.464   3.399  10.404  1.1352  0.0102  0.9771
  315MOL0     H42481   5.618   3.524  10.521 -2.4292 -1.5359  0.4120
  315MOL0     H42482   5.741   3.538  10.395 -0.0247  1.7640 -1.0478
  315MOL0     H42483   5.786   3.349  10.585 -0.4563 -0.4422 -0.4472
  315MOL0     H42484   5.816   3.324  10.416  3.6205  0.3255  2.4939
  315MOL0     H42485   5.748   3.198  10.248 -0.1710 -1.2216 -0.5392
  315MOL0     H42486   5.763   2.903  10.047  0.1002  0.4802  0.5154
  315MOL0     H42487   5.775   3.084  10.045 -0.2179  0.6953  0.5491
  315MOL0     H42488   5.911   2.970  10.100  0.1511  0.2637  1.5841
  315MOL0     H42489   5.532   2.480  10.165  2.1247 -1.3851 -2.8285
  315MOL0     H42490   5.579   2.230  10.132 -1.1754  1.5561 -0.9827
  315MOL0     H42491   5.701   2.120  10.003 -0.0722  1.1308 -0.2854
  315MOL0     H42492   5.874   2.144   9.994  0.4884 -2.8327 -2.9084
  315MOL0     H42493   5.928   1.918  10.058 -0.4689 -1.2538  1.9949
  315MOL0     H42494   5.767   1.875  10.071  2.8526  0.0022  2.8042
  315MOL0     H42495   5.906   1.980   9.818  2.5584  0.2776  5.0598
  315MOL0     H42496   5.727   1.985   9.822  0.0215 -2.0331 -2.1607
  315MOL0     H42497   5.910   1.734   9.875  0.8713  0.7720  0.0368
  315MOL0     H42498   5.733   1.737   9.886 -1.6915  0.1446 -4.0956
  315MOL0     H42499   5.848   1.816   9.622 -0.6705  2.4172  2.1572
  315MOL0     H42500   5.689   1.732   9.675 -0.0357  0.6881  3.0039
  315MOL0     H42501   5.805   1.527   9.700  0.2050 -0.1251  0.5892
  315MOL0     H42502   5.847   1.585   9.537 -2.1029  4.8893 -1.4169
  315MOL0     H42503   6.040   1.630   9.761  1.5333 -2.3453  0.9395
  315MOL0     H42504   6.074   1.641   9.604  1.7358  0.0431  2.5580
  315MOL0     H42505   5.992   1.384   9.747  0.4392 -2.0866 -0.4831
  315MOL0     H42506   6.158   1.433   9.703  0.3829 -0.5345  1.1935
  315MOL0     H42507   5.951   2.271  10.335  0.4555  0.9423  0.0046
  315MOL0     H42508   5.896   2.501  10.387  1.7971 -0.8886 -0.8461
  315MOL0     H42509   5.628   2.785  10.485  3.1493 -0.4917  0.8277
  315MOL0     H42510   5.602   3.025  10.597  1.8156  1.6524  0.2243
  315MOL0     H42511   4.438   2.767  10.455  0.4558  1.8336  0.8663
  315MOL0     H42512   4.501   2.609  10.623 -4.2599  1.6825 -2.8262
  315MOL0     H42513   4.532   2.175  10.786  1.1043  1.0517 -1.9420
  315MOL0     H42514   4.610   2.037  10.971 -0.8830  0.3496 -0.8037
  315MOL0     H42515   4.834   1.904  11.226 -1.0966 -2.9937 -0.2002
  315MOL0     H42516   4.690   1.952  11.141 -0.1081 -0.1756  0.5756
  315MOL0     H42517   4.831   1.911  10.925 -1.8010  1.0698  1.3422
  315MOL0     H42518   4.766   1.771  11.001 -0.7332  0.0627 -2.9738
  315MOL0     H42519   4.996   1.717  11.097  3.5015 -0.1224 -1.5659
  315MOL0     H42520   5.038   1.885  11.088 -1.6546  1.3216  1.1084
  315MOL0     H42521   5.023   1.708  10.839  2.4162  1.3270 -1.1042
  315MOL0     H42522   5.169   1.733  10.937  1.6081  2.0444  1.8560
  315MOL0     H42523   5.120   2.102  10.738 -3.5387 -0.1795 -0.1495
  315MOL0     H42524   4.961   2.271  10.998  0.8022 -2.5935 -0.0676
  315MOL0     H42525   4.879   2.410  10.798 -2.4206  0.1203 -2.7839
  316MOL0     O42526   5.283   5.617   2.188 -0.9166 -0.1110  0.5867
  316MOL0     C42527   5.231   5.712   2.132 -0.1141 -0.6728 -0.7202
  316MOL0     O42528   5.098   5.739   2.148  0.1615 -0.2851 -0.6706
  316MOL0     C42529   5.019   5.642   2.217  0.2884 -0.1265 -0.0023
  316MOL0     C42530   5.049   5.562   2.326  0.7206 -0.9598 -0.0174
  316MOL0     C42531   4.956   5.460   2.364 -0.1676 -0.1230 -0.5182
  316MOL0     C42532   4.829   5.441   2.301 -0.5690 -0.4070 -0.2928
  316MOL0     O42533   4.746   5.346   2.358 -0.6822  0.4476 -0.9779
  316MOL0     C42534   4.633   5.309   2.284  0.5949  0.8081  0.1178
  316MOL0     C42535   4.558   5.188   2.353 -0.2257 -0.0808 -1.2337
  316MOL0     C42536   4.664   5.098   2.424 -0.8017 -0.4449 -0.8671
  316MOL0     C42537   4.597   4.971   2.487 -0.1921  0.9560  0.4483
  316MOL0     C42538   4.515   4.990   2.616  0.3361 -0.4820  0.5312
  316MOL0     C42539   4.469   4.865   2.702  0.8284  0.3437  0.1022
  316MOL0     C42540   4.385   4.916   2.819 -0.5076  0.4146  0.1138
  316MOL0     C42541   4.343   4.810   2.911 -0.4678 -0.6524  0.3479
  316MOL0     N42542   4.259   4.725   2.839 -0.7418 -0.2718  0.2066
  316MOL0     C42543   4.140   4.783   2.797  0.2178  0.3071 -0.8868
  316MOL0     C42544   4.087   4.684   2.726  0.6214 -0.3723  0.7567
  316MOL0     C42545   3.971   4.678   2.635  0.9968  0.1883 -0.7569
  316MOL0     C42546   3.839   4.718   2.707  0.0361 -0.5013 -0.2046
  316MOL0     C42547   3.721   4.648   2.650 -0.5375  0.6538  1.2334
  316MOL0     C42548   3.599   4.728   2.686  0.2977 -0.1891 -0.0910
  316MOL0     O42549   3.562   4.693   2.820  0.6317 -0.4232 -1.1170
  316MOL0     C42550   3.466   4.771   2.887  0.2300 -0.4965 -0.6643
  316MOL0     C42551   3.419   4.721   3.003 -0.1430  0.2598  0.1559
  316MOL0     C42552   3.320   4.784   3.073 -0.2680  0.3565  0.0009
  316MOL0     C42553   3.263   4.709   3.191 -0.4640  0.1802  0.0094
  316MOL0     C42554   3.272   4.907   3.033 -0.1242 -0.0469  0.0819
  316MOL0     C42555   3.168   4.992   3.102  0.7356  0.9839  0.2530
  316MOL0     O42556   3.067   5.041   3.022  0.1948 -0.2956  0.5728
  316MOL0     C42557   2.971   5.125   3.065 -0.6812 -0.8166  0.5092
  316MOL0     C42558   2.869   5.063   3.127  0.0733  0.0909 -0.1556
  316MOL0     C42559   2.765   5.139   3.175 -0.1444 -0.8302 -0.2125
  316MOL0     C42560   2.757   5.279   3.150 -0.5432  0.3117 -0.0943
  316MOL0     O42561   2.653   5.354   3.197 -0.2273  0.2477  0.6163
  316MOL0     C42562   2.527   5.319   3.132  0.3322  0.2437 -0.5510
  316MOL0     C42563   2.426   5.423   3.174 -0.1699 -0.2509  0.1529
  316MOL0     C42564   2.449   5.553   3.098 -0.3215 -0.5540  0.7613
  316MOL0     C42565   2.340   5.656   3.136  0.3034  0.3586  0.0358
  316MOL0     C42566   2.377   5.786   3.072  0.4135  0.1869  0.6784
  316MOL0     C42567   2.351   5.771   2.915 -0.3540 -0.2455  0.2174
  316MOL0     C42568   2.209   5.829   2.889 -0.0655  0.2813 -0.0300
  316MOL0     C42569   2.183   5.837   2.730 -0.3475  0.4384  1.1034
  316MOL0    Cl42570   2.310   5.918   2.632  0.1692 -0.1213  0.2735
  316MOL0     C42571   2.865   5.341   3.077 -0.5228  0.4783 -0.1373
  316MOL0     C42572   2.971   5.258   3.036 -0.0672  0.4826  0.2280
  316MOL0     O42573   3.173   5.015   3.217  0.3808  0.5338 -1.1526
  316MOL0     C42574   3.328   4.966   2.916 -0.1622 -0.6809 -0.0721
  316MOL0     C42575   3.416   4.894   2.839  0.3564  0.1014 -0.0300
  316MOL0     N42576   4.171   4.573   2.723  0.0273  0.8153 -0.0777
  316MOL0     N42577   4.274   4.592   2.803  0.5440  0.5289 -0.6014
  316MOL0     C42578   4.803   5.531   2.194 -0.1873 -1.0210  0.5749
  316MOL0     C42579   4.893   5.636   2.166  1.1177  0.0675 -0.3609
  316MOL0     C42580   5.314   5.816   2.065  0.6533 -0.5725  0.0640
  316MOL0     C42581   5.459   5.819   2.082 -0.0280  0.1821 -0.1952
  316MOL0     C42582   5.536   5.929   2.036  0.3850  0.3878 -0.5125
  316MOL0     C42583   5.465   6.037   1.973 -0.1406  0.4436  0.5360
  316MOL0     O42584   5.541   6.150   1.939  0.2588 -0.3129 -0.2237
  316MOL0     C42585   5.500   6.283   1.967 -0.4585 -0.3129  0.1446
  316MOL0     C42586   5.609   6.373   2.026  0.9813  0.5048  0.0547
  316MOL0     C42587   5.623   6.332   2.171 -0.7504  0.1732 -0.1086
  316MOL0     C42588   5.711   6.202   2.191 -0.2649 -0.4125 -0.7405
  316MOL0     C42589   5.848   6.243   2.220 -0.0321 -0.1818 -0.4225
  316MOL0     C42590   5.970   6.251   2.220  0.3387 -0.5882  0.5848
  316MOL0     C42591   5.323   6.039   1.972 -0.3824  0.2542  1.0527
  316MOL0     C42592   5.250   5.923   2.001 -0.1578 -0.4915 -0.0310
  316MOL0     H42593   5.134   5.558   2.393  1.9420 -1.8263 -1.5730
  316MOL0     H42594   4.981   5.391   2.444  1.5003  1.2052  0.1562
  316MOL0     H42595   4.572   5.397   2.259  0.1737 -0.0173 -1.9437
  316MOL0     H42596   4.658   5.273   2.184 -5.3196  1.4167 -1.9905
  316MOL0     H42597   4.490   5.229   2.428  1.1516  1.8184 -0.9432
  316MOL0     H42598   4.502   5.127   2.281 -1.4388 -2.0424  1.2280
  316MOL0     H42599   4.741   5.063   2.354 -1.6073 -0.7310 -1.6375
  316MOL0     H42600   4.720   5.156   2.497 -0.3577  0.5858 -1.9955
  316MOL0     H42601   4.536   4.938   2.402  1.6151  0.1292 -0.5818
  316MOL0     H42602   4.668   4.890   2.503  1.3175  2.4006  1.3421
  316MOL0     H42603   4.578   5.048   2.684  0.9016  0.9745 -1.1493
  316MOL0     H42604   4.428   5.055   2.602 -0.2595 -0.9702  1.8196
  316MOL0     H42605   4.415   4.787   2.648 -0.3824  0.7015  0.7739
  316MOL0     H42606   4.556   4.811   2.741  1.4556  0.7221 -0.7401
  316MOL0     H42607   4.446   4.993   2.867 -1.9061  1.5466  0.1512
  316MOL0     H42608   4.307   4.975   2.769  0.6008  0.8489 -1.1624
  316MOL0     H42609   4.288   4.850   2.998  1.6343  2.0611  0.5566
  316MOL0     H42610   4.429   4.750   2.940 -0.2657 -1.4225 -1.7106
  316MOL0     H42611   4.105   4.885   2.812 -0.8112  0.3011 -2.8933
  316MOL0     H42612   3.983   4.746   2.551 -0.6465  1.6948  0.1554
  316MOL0     H42613   3.968   4.574   2.600 -0.2306 -1.5701  3.8007
  316MOL0     H42614   3.819   4.824   2.688  2.9513  0.6295  2.2990
  316MOL0     H42615   3.843   4.711   2.816  0.7641  1.0841 -0.0920
  316MOL0     H42616   3.713   4.540   2.662 -1.2568  0.1287 -2.8415
  316MOL0     H42617   3.724   4.650   2.541  0.4086 -1.5916  1.1599
  316MOL0     H42618   3.520   4.712   2.612  2.0794  1.3779 -2.4858
  316MOL0     H42619   3.617   4.836   2.680 -4.0469  0.6654 -1.8497
  316MOL0     H42620   3.461   4.623   3.022 -2.5109 -0.7338  0.5072
  316MOL0     H42621   3.154   4.701   3.184 -0.6584  1.5014  1.0803
  316MOL0     H42622   3.307   4.609   3.202 -1.0848 -0.1978 -0.8359
  316MOL0     H42623   3.285   4.766   3.282 -0.6426  2.8195 -1.5171
  316MOL0     H42624   2.867   4.955   3.142  3.9748  0.0075  0.8929
  316MOL0     H42625   2.682   5.098   3.231  1.1928 -1.3821  1.4643
  316MOL0     H42626   2.543   5.325   3.024  2.0660  0.3012 -0.3180
  316MOL0     H42627   2.483   5.225   3.167 -0.9119  0.4788 -1.4216
  316MOL0     H42628   2.324   5.390   3.149 -0.2784  0.7941 -0.8951
  316MOL0     H42629   2.425   5.432   3.283 -5.3968 -1.5752  0.5235
  316MOL0     H42630   2.461   5.533   2.991  0.3809  1.8438  0.3519
  316MOL0     H42631   2.543   5.575   3.148  0.7448 -3.2712  0.1446
  316MOL0     H42632   2.239   5.623   3.109 -0.2094  2.9211 -1.5842
  316MOL0     H42633   2.320   5.668   3.243 -3.3647 -0.4980 -0.4186
  316MOL0     H42634   2.483   5.813   3.079 -0.0087  2.6861 -1.1169
  316MOL0     H42635   2.325   5.873   3.113 -1.0561 -1.2297  1.9329
  316MOL0     H42636   2.418   5.842   2.867  1.2536 -1.1346  1.0512
  316MOL0     H42637   2.362   5.673   2.867  0.7696 -1.4647  2.7929
  316MOL0     H42638   2.189   5.931   2.924  0.9152 -0.6069  3.5042
  316MOL0     H42639   2.124   5.769   2.924  0.4721 -0.6149 -0.2330
  316MOL0     H42640   2.091   5.895   2.721 -2.5268 -2.6114  2.1914
  316MOL0     H42641   2.177   5.737   2.687  1.8240 -0.3521  2.4426
  316MOL0     H42642   2.864   5.444   3.043  2.7826  0.5504 -0.3124
  316MOL0     H42643   3.059   5.293   2.983  2.1160 -2.2059  1.8279
  316MOL0     H42644   3.285   5.061   2.884 -0.2562 -0.9631 -0.7878
  316MOL0     H42645   3.454   4.921   2.741 -3.3508  0.6802 -1.4467
  316MOL0     H42646   4.705   5.529   2.146 -0.3489  0.9042  0.7599
  316MOL0     H42647   4.873   5.701   2.082 -0.3518 -2.2960 -1.9934
  316MOL0     H42648   5.504   5.730   2.124  3.2780  1.0937 -1.5289
  316MOL0     H42649   5.643   5.942   2.034  0.2640  1.6171 -0.1109
  316MOL0     H42650   5.483   6.335   1.873  0.3890 -4.0044 -2.2330
  316MOL0     H42651   5.409   6.287   2.029 -1.1555  1.1310 -0.8993
  316MOL0     H42652   5.589   6.480   2.012  4.0672  0.8503 -3.1560
  316MOL0     H42653   5.701   6.368   1.967  0.3331  2.4076 -1.1797
  316MOL0     H42654   5.526   6.328   2.222 -0.5753  5.6487  1.2581
  316MOL0     H42655   5.664   6.418   2.225 -0.6417  0.6884 -0.9940
  316MOL0     H42656   5.708   6.140   2.101  1.6457  0.2275 -1.2871
  316MOL0     H42657   5.664   6.136   2.263 -1.3361  1.9847  0.9057
  316MOL0     H42658   6.077   6.261   2.214  0.3751 -1.7118 -3.1939
  316MOL0     H42659   5.270   6.121   1.924  1.0480  0.6975  0.1982
  316MOL0     H42660   5.143   5.922   1.981  0.1701 -1.3508 -1.9073
  317MOL0     O42661   4.130   0.743   0.656  0.1554 -0.2053 -0.3089
  317MOL0     C42662   4.241   0.710   0.605  0.2965 -0.1594 -1.2322
  317MOL0     O42663   4.315   0.785   0.522 -0.0387 -0.2206  1.1521
  317MOL0     C42664   4.264   0.905   0.472 -0.3229  0.3473 -0.0562
  317MOL0     C42665   4.329   1.027   0.494  0.2924  1.4026  0.6042
  317MOL0     C42666   4.283   1.155   0.451 -0.0953  0.1926 -0.0299
  317MOL0     C42667   4.171   1.154   0.363 -0.3572  1.0088 -0.1995
  317MOL0     O42668   4.153   1.269   0.303  0.6811 -0.0948  0.2429
  317MOL0     C42669   4.027   1.290   0.234  0.2092 -0.4501  0.6671
  317MOL0     C42670   3.978   1.430   0.205  0.8777  0.1558 -0.2605
  317MOL0     C42671   3.866   1.462   0.303 -0.0301 -0.2430 -0.0014
  317MOL0     C42672   3.912   1.456   0.449 -0.1155  0.6129 -0.7570
  317MOL0     C42673   3.863   1.568   0.529  0.4250 -0.0224 -0.5005
  317MOL0     C42674   3.875   1.528   0.677  0.0667 -0.8721 -0.7641
  317MOL0     C42675   3.815   1.651   0.759 -0.1876  0.8912  0.1219
  317MOL0     C42676   3.810   1.622   0.904 -0.0603  0.5873 -0.8244
  317MOL0     N42677   3.926   1.620   0.983 -0.0060 -0.1059 -0.3766
  317MOL0     C42678   3.938   1.554   1.098  1.6129 -0.4856  0.8359
  317MOL0     C42679   4.060   1.591   1.140  0.0801 -0.7758 -0.4958
  317MOL0     C42680   4.144   1.541   1.250  0.4783  0.3267 -0.1197
  317MOL0     C42681   4.193   1.393   1.221  0.8811  0.2649 -0.8657
  317MOL0     C42682   4.279   1.352   1.346 -0.2231 -0.4766  0.3092
  317MOL0     C42683   4.348   1.216   1.320 -0.2437  0.3741  0.6147
  317MOL0     O42684   4.259   1.102   1.293 -0.0139 -0.1818 -0.7302
  317MOL0     C42685   4.295   0.970   1.325  0.0648  0.0359  0.4560
  317MOL0     C42686   4.214   0.873   1.268 -0.1162 -0.2639  0.7265
  317MOL0     C42687   4.239   0.733   1.285  0.2656  0.7251 -0.9636
  317MOL0     C42688   4.139   0.642   1.220 -1.0527 -0.1528 -0.5534
  317MOL0     C42689   4.353   0.691   1.350 -0.4405 -0.5743 -0.5563
  317MOL0     C42690   4.395   0.544   1.353 -0.1813 -0.0545 -0.4829
  317MOL0     O42691   4.398   0.492   1.485 -0.1346  0.5052  0.0557
  317MOL0     C42692   4.362   0.364   1.509  0.6698 -0.5025  0.1815
  317MOL0     C42693   4.391   0.299   1.629  0.5654 -0.7887 -0.7385
  317MOL0     C42694   4.327   0.178   1.656 -0.2539  0.3729  0.9974
  317MOL0     C42695   4.267   0.101   1.556 -0.2482  0.1418  0.3292
  317MOL0     O42696   4.217  -0.026   1.580 -0.2561 -0.6381  0.1123
  317MOL0     C42697   4.256  -0.095   1.702 -0.3210  0.2375 -0.0815
  317MOL0     C42698   4.191  -0.228   1.704 -0.5032  1.7354 -1.3644
  317MOL0     C42699   4.266  -0.309   1.806 -0.2286  0.4261  0.1229
  317MOL0     C42700   4.193  -0.438   1.851 -0.4478  0.4731 -0.3841
  317MOL0     C42701   4.288  -0.546   1.913 -0.2462 -0.5628 -0.0762
  317MOL0     C42702   4.201  -0.673   1.934  0.0776  0.3390 -0.8049
  317MOL0     C42703   4.295  -0.783   1.986 -0.7977 -0.1185  0.3400
  317MOL0     C42704   4.229  -0.917   2.019 -0.0625  0.4269  0.1811
  317MOL0    Cl42705   4.094  -0.910   2.146  0.2909 -0.1823 -0.0246
  317MOL0     C42706   4.240   0.159   1.432  0.2350 -0.0561  0.5302
  317MOL0     C42707   4.273   0.294   1.420 -0.2847 -0.0242 -0.1301
  317MOL0     O42708   4.431   0.487   1.250  0.0139 -0.8540 -0.9244
  317MOL0     C42709   4.441   0.790   1.404  0.2310  0.9367 -0.2510
  317MOL0     C42710   4.407   0.925   1.392 -0.8733  0.4860  0.0940
  317MOL0     N42711   4.118   1.676   1.048  0.3963 -0.5251 -0.6840
  317MOL0     N42712   4.031   1.700   0.956 -0.2049  0.5818 -0.0747
  317MOL0     C42713   4.101   1.031   0.336  1.1515 -1.1506  0.1760
  317MOL0     C42714   4.158   0.907   0.389 -0.0879  0.1454 -0.3171
  317MOL0     C42715   4.302   0.593   0.665  0.0806 -0.5623 -0.8106
  317MOL0     C42716   4.233   0.514   0.765 -0.0823  0.7551  0.8181
  317MOL0     C42717   4.293   0.396   0.809  0.2044 -0.1785 -0.5239
  317MOL0     C42718   4.420   0.344   0.775  0.8025  0.0080  0.9841
  317MOL0     O42719   4.484   0.234   0.826 -0.0145  0.1415 -0.3448
  317MOL0     C42720   4.399   0.157   0.911 -0.4536 -0.0390  0.0486
  317MOL0     C42721   4.457   0.016   0.929  0.0662 -0.8770 -0.3020
  317MOL0     C42722   4.414  -0.085   0.820  0.2371  0.2713  0.6877
  317MOL0     C42723   4.490  -0.051   0.681  0.5929  0.0858  0.5854
  317MOL0     C42724   4.485  -0.163   0.583  0.4629  0.0776  0.6827
  317MOL0     C42725   4.483  -0.259   0.504  0.2224  0.7230  0.5786
  317MOL0     C42726   4.492   0.429   0.683  0.3644  0.8485 -0.2818
  317MOL0     C42727   4.435   0.548   0.634 -0.1463 -0.1850  0.5680
  317MOL0     H42728   4.417   1.029   0.558  2.6384  0.8559 -2.3613
  317MOL0     H42729   4.339   1.243   0.482  1.0174 -0.5534  0.1285
  317MOL0     H42730   4.039   1.248   0.134 -3.3028 -0.7890  0.2609
  317MOL0     H42731   3.952   1.223   0.278 -0.2861  0.4038  1.1562
  317MOL0     H42732   4.066   1.495   0.205 -0.2745  1.7776 -0.3147
  317MOL0     H42733   3.931   1.443   0.107 -0.0329 -2.3188 -0.2120
  317MOL0     H42734   3.841   1.567   0.287 -1.1181 -0.2019  1.6934
  317MOL0     H42735   3.773   1.406   0.289 -0.6654  0.2937  1.8444
  317MOL0     H42736   3.881   1.360   0.492 -0.2309  0.5725 -0.9297
  317MOL0     H42737   4.022   1.452   0.452 -0.1397 -1.8888  0.4643
  317MOL0     H42738   3.921   1.661   0.521  1.3666 -0.2260  2.5912
  317MOL0     H42739   3.761   1.588   0.494  1.1139  0.6366 -2.2444
  317MOL0     H42740   3.822   1.438   0.710 -0.6512 -0.7361 -1.5083
  317MOL0     H42741   3.981   1.510   0.696 -0.1248 -2.5901 -1.1483
  317MOL0     H42742   3.881   1.736   0.741  2.3809 -0.6997  1.4631
  317MOL0     H42743   3.715   1.673   0.720  1.4216  2.2407 -3.7963
  317MOL0     H42744   3.756   1.526   0.903  1.3148 -0.2309  0.4292
  317MOL0     H42745   3.742   1.689   0.957 -2.3619 -0.8290 -1.8038
  317MOL0     H42746   3.882   1.468   1.136 -2.3426  1.3134 -0.3281
  317MOL0     H42747   4.231   1.606   1.261 -1.1665  2.5505  0.2491
  317MOL0     H42748   4.080   1.562   1.336 -1.0136  4.0617 -1.9342
  317MOL0     H42749   4.243   1.377   1.125  1.3130  0.6300 -0.7083
  317MOL0     H42750   4.108   1.325   1.231  1.3922 -0.3555 -0.7009
  317MOL0     H42751   4.217   1.363   1.435 -3.9034  3.4380 -2.3688
  317MOL0     H42752   4.369   1.410   1.369 -0.6333 -0.8162  3.1692
  317MOL0     H42753   4.405   1.206   1.414 -0.0934  0.2455  0.5101
  317MOL0     H42754   4.423   1.229   1.242 -2.9784 -1.1678 -2.4988
  317MOL0     H42755   4.138   0.915   1.202 -0.7952 -3.4083 -0.6495
  317MOL0     H42756   4.040   0.647   1.267  0.6475 -2.3406  3.8349
  317MOL0     H42757   4.129   0.673   1.116 -2.2206  0.1125 -0.3814
  317MOL0     H42758   4.166   0.536   1.213  0.0320  0.2006 -2.5267
  317MOL0     H42759   4.457   0.348   1.699 -0.9214 -4.2704  3.6506
  317MOL0     H42760   4.348   0.130   1.751 -2.3399 -0.2988  1.1497
  317MOL0     H42761   4.365  -0.107   1.703 -0.2657  0.7386  0.6031
  317MOL0     H42762   4.229  -0.028   1.784  3.0617  0.6750  0.8245
  317MOL0     H42763   4.089  -0.202   1.735  0.2972  0.5825  2.6713
  317MOL0     H42764   4.188  -0.295   1.617 -1.6001 -0.7789  0.4715
  317MOL0     H42765   4.285  -0.250   1.897  2.4548  0.3268 -0.2804
  317MOL0     H42766   4.364  -0.327   1.760 -0.7113  1.7644 -1.5416
  317MOL0     H42767   4.108  -0.406   1.911 -1.9384  3.0982 -3.5733
  317MOL0     H42768   4.146  -0.481   1.762 -0.8142 -0.8740  0.4313
  317MOL0     H42769   4.315  -0.508   2.012  0.0464  0.4870 -0.5443
  317MOL0     H42770   4.374  -0.556   1.847  0.2008  5.3566 -0.8824
  317MOL0     H42771   4.121  -0.648   2.005  1.0796  0.7822  0.1870
  317MOL0     H42772   4.143  -0.698   1.844  2.8924  2.0226 -3.2734
  317MOL0     H42773   4.357  -0.756   2.073 -0.5653  0.8669 -0.1217
  317MOL0     H42774   4.357  -0.806   1.899  1.4159  0.7513  1.5758
  317MOL0     H42775   4.307  -0.986   2.054 -0.5873  0.7163  1.9808
  317MOL0     H42776   4.190  -0.965   1.928  2.0033 -0.5736 -0.2447
  317MOL0     H42777   4.180   0.107   1.357  0.7003  0.3888 -0.1599
  317MOL0     H42778   4.236   0.355   1.338 -0.8894  2.4552  1.8494
  317MOL0     H42779   4.537   0.762   1.446  1.6120  2.9705 -1.8800
  317MOL0     H42780   4.490   0.989   1.419  0.0813  0.7813 -3.1213
  317MOL0     H42781   4.017   1.025   0.267  0.9750 -1.4740  0.4177
  317MOL0     H42782   4.134   0.807   0.353  2.5314 -0.2465 -1.1706
  317MOL0     H42783   4.132   0.536   0.796 -0.3980 -0.1454  0.4760
  317MOL0     H42784   4.220   0.339   0.866 -2.2354  2.4857 -0.7386
  317MOL0     H42785   4.385   0.208   1.007 -1.6720 -2.1150  1.0281
  317MOL0     H42786   4.308   0.150   0.851  0.0558  0.5266 -0.8039
  317MOL0     H42787   4.403  -0.020   1.017  1.9538  0.8614  1.6592
  317MOL0     H42788   4.564   0.014   0.948  0.0022 -0.5688  0.1010
  317MOL0     H42789   4.308  -0.093   0.796  0.8502 -3.4143 -1.7033
  317MOL0     H42790   4.444  -0.185   0.852 -1.9447 -0.1203  1.6810
  317MOL0     H42791   4.592  -0.016   0.699 -0.3177  2.6893  1.1359
  317MOL0     H42792   4.442   0.033   0.629  0.3252 -0.3691  0.0895
  317MOL0     H42793   4.494  -0.329   0.424 -1.2970  1.7807 -0.6171
  317MOL0     H42794   4.596   0.413   0.657  0.4142  0.6112  0.0659
  317MOL0     H42795   4.511   0.595   0.572  2.0962 -3.7968  0.2614
  318MOL0     O42796   6.623   3.783   9.166 -0.2258  0.3711 -0.7069
  318MOL0     C42797   6.734   3.740   9.133 -0.5974 -0.5764  0.2907
  318MOL0     O42798   6.753   3.627   9.056 -0.9035 -0.0740  0.1234
  318MOL0     C42799   6.650   3.560   9.003 -0.3157 -0.0343  0.5498
  318MOL0     C42800   6.525   3.546   9.062  0.4121 -0.7010  0.0135
  318MOL0     C42801   6.421   3.465   9.003 -0.3673 -0.3725  0.4164
  318MOL0     C42802   6.445   3.404   8.876  0.5523  0.0665 -0.6457
  318MOL0     O42803   6.339   3.339   8.803 -0.5773  0.0538 -0.2437
  318MOL0     C42804   6.296   3.408   8.680  1.4008 -0.1227 -0.3283
  318MOL0     C42805   6.365   3.336   8.570 -0.0193  0.3621  0.5345
  318MOL0     C42806   6.280   3.331   8.442  0.4685 -0.8023  0.1723
  318MOL0     C42807   6.325   3.212   8.349 -1.4684  0.4565 -0.4572
  318MOL0     C42808   6.253   3.206   8.224  0.4300  0.6915  1.7545
  318MOL0     C42809   6.279   3.092   8.124  0.9390  0.3062 -0.1422
  318MOL0     C42810   6.269   2.957   8.179  0.7884  0.4009 -0.0755
  318MOL0     C42811   6.400   2.893   8.219 -0.4519  0.7093  0.3460
  318MOL0     N42812   6.371   2.781   8.312 -0.3774  0.7730  0.9892
  318MOL0     C42813   6.394   2.649   8.290  0.5872 -0.2890 -0.1049
  318MOL0     C42814   6.362   2.586   8.405 -0.3331  0.3058 -0.0589
  318MOL0     C42815   6.349   2.441   8.409  0.7703 -0.5187 -0.1538
  318MOL0     C42816   6.255   2.384   8.296  0.5915  1.0648 -0.1322
  318MOL0     C42817   6.184   2.252   8.343  0.1540  0.7871 -0.3194
  318MOL0     C42818   6.116   2.187   8.232  0.1478 -0.7043  0.3517
  318MOL0     O42819   6.202   2.139   8.125  0.9653 -0.5401  0.0404
  318MOL0     C42820   6.231   2.010   8.124 -0.1919 -0.0483  0.0410
  318MOL0     C42821   6.225   1.924   8.234 -0.7599 -0.3797  0.5790
  318MOL0     C42822   6.305   1.805   8.240  0.3915 -0.3971  0.0805
  318MOL0     C42823   6.308   1.722   8.366  0.5458  0.3476  0.4579
  318MOL0     C42824   6.367   1.764   8.115 -0.2517  0.4285 -0.9617
  318MOL0     C42825   6.465   1.647   8.109 -0.3482  0.1354  0.2769
  318MOL0     O42826   6.470   1.564   8.001  0.2284  0.3735 -0.4299
  318MOL0     C42827   6.584   1.495   7.961  1.1422 -0.4792 -1.7384
  318MOL0     C42828   6.582   1.367   7.903 -0.1747  0.4237 -0.7451
  318MOL0     C42829   6.699   1.309   7.858 -0.7123  0.2918  0.4956
  318MOL0     C42830   6.824   1.371   7.874  0.6892 -0.1412 -0.2110
  318MOL0     O42831   6.951   1.327   7.852 -0.8519 -0.8810  0.4021
  318MOL0     C42832   6.981   1.192   7.883 -0.4778 -0.4285  0.1709
  318MOL0     C42833   7.128   1.189   7.850  0.3138  0.1117  0.1959
  318MOL0     C42834   7.186   1.049   7.823  0.6202 -1.3126  0.0703
  318MOL0     C42835   7.196   0.971   7.954 -0.3131 -0.1231  0.7031
  318MOL0     C42836   7.266   0.827   7.941  0.3174  0.0637 -0.0812
  318MOL0     C42837   7.269   0.751   8.068  0.5429  0.3014 -0.3641
  318MOL0     C42838   7.351   0.620   8.052  0.2901 -0.1275  0.2084
  318MOL0     C42839   7.361   0.532   8.178  0.0250  1.6221  0.0661
  318MOL0    Cl42840   7.430   0.605   8.319 -0.0100  0.2864 -0.0012
  318MOL0     C42841   6.824   1.509   7.913  0.4902 -0.3095 -1.2376
  318MOL0     C42842   6.703   1.566   7.955  0.3801 -0.1247 -0.2273
  318MOL0     O42843   6.550   1.657   8.197 -0.6092  0.0179  0.2442
  318MOL0     C42844   6.363   1.844   8.001  0.1996 -0.7813 -0.8042
  318MOL0     C42845   6.304   1.966   8.008 -0.2417  0.9536 -0.5320
  318MOL0     N42846   6.313   2.685   8.487  0.4863 -0.4244 -0.4122
  318MOL0     N42847   6.315   2.806   8.433 -0.1979  0.3322 -0.2501
  318MOL0     C42848   6.569   3.414   8.819 -0.8164  0.0490  0.1788
  318MOL0     C42849   6.668   3.492   8.882 -0.9464 -1.2076 -0.5877
  318MOL0     C42850   6.837   3.837   9.161  0.3791  0.8222 -0.1323
  318MOL0     C42851   6.948   3.820   9.087 -0.3902 -0.4749  0.1302
  318MOL0     C42852   7.060   3.897   9.115  0.3625 -0.3675 -0.3014
  318MOL0     C42853   7.059   3.999   9.212 -0.0990  0.5181 -0.0260
  318MOL0     O42854   7.165   4.080   9.246  0.1335  0.2062  0.0795
  318MOL0     C42855   7.299   4.053   9.204  0.9139 -0.8204 -0.0880
  318MOL0     C42856   7.393   4.168   9.257  0.8782  0.2212  0.3979
  318MOL0     C42857   7.400   4.182   9.413  0.2192 -0.3010  0.5325
  318MOL0     C42858   7.508   4.293   9.462  0.9617  0.4446  0.4628
  318MOL0     C42859   7.626   4.220   9.502 -0.3314  0.3885 -0.5677
  318MOL0     C42860   7.731   4.157   9.533  0.9132  0.0736 -1.3076
  318MOL0     C42861   6.942   4.022   9.282  0.5891 -0.9060 -0.2099
  318MOL0     C42862   6.831   3.939   9.263  0.6715  0.5223 -0.0356
  318MOL0     H42863   6.504   3.602   9.152 -1.8947 -0.8642 -0.3569
  318MOL0     H42864   6.333   3.439   9.061 -0.4549  0.1531  0.5199
  318MOL0     H42865   6.188   3.395   8.670  1.2805  1.3401 -1.0865
  318MOL0     H42866   6.321   3.514   8.679  0.0641  0.2044 -1.0854
  318MOL0     H42867   6.455   3.389   8.537  1.2188 -0.7777  1.9161
  318MOL0     H42868   6.385   3.232   8.599 -1.3863 -0.1576 -0.2684
  318MOL0     H42869   6.173   3.322   8.463 -0.0579  0.6294 -1.6327
  318MOL0     H42870   6.300   3.422   8.385 -0.5512  0.7173  2.1460
  318MOL0     H42871   6.433   3.216   8.338 -1.3513 -0.8510  0.0445
  318MOL0     H42872   6.292   3.128   8.411 -2.1655 -0.2161 -1.6941
  318MOL0     H42873   6.146   3.208   8.245  0.1332  1.8034  0.2498
  318MOL0     H42874   6.282   3.298   8.173  0.4975 -0.6936 -0.8594
  318MOL0     H42875   6.214   3.105   8.037 -0.5669 -0.3767  0.8496
  318MOL0     H42876   6.378   3.103   8.079  1.3582  1.8109  1.0370
  318MOL0     H42877   6.212   2.969   8.272 -1.4130 -1.6053 -1.0657
  318MOL0     H42878   6.217   2.893   8.108  1.2563  1.0957 -1.0731
  318MOL0     H42879   6.467   2.950   8.284 -0.5455  1.2057  0.0108
  318MOL0     H42880   6.457   2.876   8.127  0.3217 -0.6342  1.0404
  318MOL0     H42881   6.423   2.599   8.198 -3.4390 -0.1618 -1.6028
  318MOL0     H42882   6.450   2.401   8.398  0.1898 -2.1250  0.1538
  318MOL0     H42883   6.316   2.410   8.508  1.7507 -2.6380 -0.4257
  318MOL0     H42884   6.296   2.380   8.195 -1.3060  0.2588 -0.9137
  318MOL0     H42885   6.176   2.458   8.279 -1.6538 -1.3777 -0.9241
  318MOL0     H42886   6.108   2.291   8.411 -1.4505 -0.9038 -1.0619
  318MOL0     H42887   6.259   2.181   8.379  0.4559 -0.1179 -2.5386
  318MOL0     H42888   6.049   2.259   8.183  1.1189 -1.6075 -2.5543
  318MOL0     H42889   6.046   2.112   8.271 -2.0188  1.9691  1.9102
  318MOL0     H42890   6.176   1.963   8.323 -0.2754  0.8447  0.3227
  318MOL0     H42891   6.215   1.734   8.423  0.2899  0.9502 -0.0866
  318MOL0     H42892   6.320   1.615   8.346 -1.2542  0.1692  0.1745
  318MOL0     H42893   6.396   1.737   8.429  0.7619 -0.4783  0.3646
  318MOL0     H42894   6.487   1.314   7.892  0.4564 -0.4852 -2.1628
  318MOL0     H42895   6.696   1.210   7.815  0.7598  0.8899 -1.1378
  318MOL0     H42896   6.968   1.182   7.991 -0.3375  1.5154  0.4040
  318MOL0     H42897   6.922   1.114   7.833  2.5583 -3.6760  1.2874
  318MOL0     H42898   7.151   1.258   7.768  2.1042 -1.4060 -0.6537
  318MOL0     H42899   7.189   1.233   7.930 -1.4254  0.0510  1.6056
  318MOL0     H42900   7.277   1.054   7.764 -0.1534  1.5640 -1.0628
  318MOL0     H42901   7.120   0.997   7.752 -1.3530  0.2214  0.6884
  318MOL0     H42902   7.252   1.029   8.028  1.4603 -0.2873 -0.4323
  318MOL0     H42903   7.093   0.965   7.990 -0.8265  2.7687 -0.0735
  318MOL0     H42904   7.368   0.847   7.907  0.3078  0.7223  0.2622
  318MOL0     H42905   7.214   0.761   7.871  1.9559 -1.5590  0.1880
  318MOL0     H42906   7.320   0.816   8.140  0.8528 -1.2884  0.9150
  318MOL0     H42907   7.167   0.723   8.095  1.2535 -1.4018  0.7205
  318MOL0     H42908   7.447   0.644   8.007 -0.2525 -0.0601 -0.9525
  318MOL0     H42909   7.310   0.560   7.970 -1.0453  0.9122  0.0761
  318MOL0     H42910   7.417   0.443   8.147 -0.4115  0.5830  2.0357
  318MOL0     H42911   7.266   0.485   8.208  2.2831 -1.4096  3.3735
  318MOL0     H42912   6.916   1.564   7.894  0.0663  0.3585 -1.3736
  318MOL0     H42913   6.701   1.671   7.980  2.2765 -0.3069  0.8758
  318MOL0     H42914   6.431   1.826   7.918  0.9410  2.7711 -1.1367
  318MOL0     H42915   6.336   2.036   7.930  3.3368  2.7650  2.2450
  318MOL0     H42916   6.591   3.367   8.724  1.2888  1.6325 -0.1790
  318MOL0     H42917   6.764   3.487   8.831 -0.1256  2.9185  0.2141
  318MOL0     H42918   6.949   3.751   9.003  0.3525  0.0987 -0.3423
  318MOL0     H42919   7.147   3.881   9.051  1.2542  2.8773 -0.1038
  318MOL0     H42920   7.313   3.959   9.258 -0.0381 -0.0533  1.5735
  318MOL0     H42921   7.302   4.046   9.095 -0.7882  2.5490 -0.4792
  318MOL0     H42922   7.371   4.264   9.211  3.3091 -1.1844 -4.4190
  318MOL0     H42923   7.496   4.144   9.229  0.6359  0.4682 -0.7478
  318MOL0     H42924   7.422   4.085   9.457 -0.1849 -0.5947  0.0988
  318MOL0     H42925   7.301   4.221   9.440  0.0689  0.4911 -0.9893
  318MOL0     H42926   7.479   4.350   9.550  2.9600  0.0553  1.4326
  318MOL0     H42927   7.523   4.362   9.378 -0.0617 -0.2178 -0.2975
  318MOL0     H42928   7.823   4.107   9.557  0.5421  0.5378  1.5244
  318MOL0     H42929   6.942   4.105   9.351 -0.8801  0.1013 -1.3526
  318MOL0     H42930   6.753   3.954   9.337  2.1313  0.8735  1.4927
  319MOL0     O42931   5.113   7.855  11.486 -0.2067 -0.0973 -0.1547
  319MOL0     C42932   5.118   7.730  11.480  0.7979 -0.0091 -0.1155
  319MOL0     O42933   5.214   7.654  11.421  0.4807 -0.1092 -0.3116
  319MOL0     C42934   5.326   7.715  11.365  0.6588 -0.8873 -0.4627
  319MOL0     C42935   5.360   7.654  11.245  0.5375  0.0641  0.3068
  319MOL0     C42936   5.476   7.684  11.171 -0.5666 -0.4012 -0.5626
  319MOL0     C42937   5.556   7.790  11.214 -0.0787 -0.4087 -0.1091
  319MOL0     O42938   5.660   7.839  11.146 -0.3945 -0.2491  0.1902
  319MOL0     C42939   5.740   7.768  11.043  0.9821 -0.1235 -0.9178
  319MOL0     C42940   5.865   7.706  11.104  0.5842 -0.2302 -0.5096
  319MOL0     C42941   5.966   7.815  11.148 -0.1774  0.9959  0.6884
  319MOL0     C42942   6.079   7.825  11.036  0.3517  0.0469  0.2090
  319MOL0     C42943   6.107   7.971  11.019 -0.0208  0.1837  0.0462
  319MOL0     C42944   6.230   8.016  10.936  0.1580 -0.3430  0.4819
  319MOL0     C42945   6.230   8.167  10.908 -1.1231 -0.7869  0.3585
  319MOL0     C42946   6.246   8.250  11.042  0.3823 -0.4800 -0.1725
  319MOL0     N42947   6.206   8.393  11.043 -0.2430  0.2230 -0.3316
  319MOL0     C42948   6.118   8.462  10.962 -0.1568 -0.5044  0.0532
  319MOL0     C42949   6.131   8.589  11.006  0.6449  0.7020  0.7455
  319MOL0     C42950   6.033   8.691  10.973  0.4828 -0.3916  0.5322
  319MOL0     C42951   6.092   8.831  10.965  0.5718 -0.2611  0.2834
  319MOL0     C42952   5.991   8.950  10.944  0.4333 -0.0189 -0.6513
  319MOL0     C42953   5.919   8.982  11.078  0.5437 -0.9227  0.4836
  319MOL0     O42954   5.897   9.124  11.091  1.2346 -0.2067  0.4552
  319MOL0     C42955   5.989   9.194  11.163 -0.1353  0.5892 -0.2481
  319MOL0     C42956   6.092   9.140  11.239 -0.7430  0.2845 -0.6652
  319MOL0     C42957   6.203   9.217  11.284 -0.4016  0.2824  0.7006
  319MOL0     C42958   6.343   9.154  11.319  0.7328 -0.3061  0.0989
  319MOL0     C42959   6.188   9.357  11.298 -0.3168  0.2644  1.0849
  319MOL0     C42960   6.284   9.453  11.365  0.0571 -0.4890 -0.2339
  319MOL0     O42961   6.347   9.565  11.294  0.1759 -0.1660  0.6029
  319MOL0     C42962   6.420   9.649  11.371 -0.4361  0.4448  0.4468
  319MOL0     C42963   6.555   9.616  11.391 -0.6334  1.7000  1.0115
  319MOL0     C42964   6.621   9.695  11.484  1.2273  0.5407 -0.4667
  319MOL0     C42965   6.555   9.791  11.562  0.8045  0.6542 -0.0579
  319MOL0     O42966   6.639   9.860  11.648  0.2720  0.4002 -0.2320
  319MOL0     C42967   6.575   9.946  11.743  0.4119 -0.2168  0.9533
  319MOL0     C42968   6.699  10.020  11.808 -0.3580 -0.4018  0.7981
  319MOL0     C42969   6.752  10.130  11.714 -0.7428 -0.1635  0.4923
  319MOL0     C42970   6.888  10.181  11.762  0.6842 -0.6339 -0.1688
  319MOL0     C42971   6.946  10.300  11.680  0.1101 -0.0236  1.2004
  319MOL0     C42972   6.888  10.436  11.713 -0.6092 -1.1471 -0.2758
  319MOL0     C42973   6.931  10.537  11.609  0.6628  0.0506 -0.8631
  319MOL0     C42974   6.834  10.543  11.495 -0.0907 -1.2756 -0.6875
  319MOL0    Cl42975   6.916  10.647  11.374 -0.3200 -0.0246 -0.5226
  319MOL0     C42976   6.417   9.812  11.546 -0.5257 -0.0542 -0.2743
  319MOL0     C42977   6.360   9.746  11.445  0.1250  0.2780  0.6021
  319MOL0     O42978   6.311   9.429  11.488  0.6933  0.3291 -0.2097
  319MOL0     C42979   6.077   9.418  11.229  0.2931  0.2494  0.4505
  319MOL0     C42980   5.988   9.337  11.156 -0.1100 -1.4172  0.5673
  319MOL0     N42981   6.224   8.594  11.111 -0.8145  0.3970  0.3076
  319MOL0     N42982   6.278   8.477  11.118 -0.3998 -0.6898 -0.4486
  319MOL0     C42983   5.521   7.847  11.336 -1.0079 -0.4400  0.0407
  319MOL0     C42984   5.405   7.816  11.407  0.5624 -0.3998 -0.1179
  319MOL0     C42985   5.001   7.656  11.544 -0.4482  0.5545  0.3153
  319MOL0     C42986   4.981   7.516  11.526  0.7219 -0.0616  0.2129
  319MOL0     C42987   4.869   7.463  11.595 -0.5881  0.7218  0.3694
  319MOL0     C42988   4.778   7.530  11.677  0.6513  0.6084 -0.5185
  319MOL0     O42989   4.672   7.476  11.741  0.4164  0.6632  0.2970
  319MOL0     C42990   4.687   7.348  11.816  0.0018  0.3374  0.3994
  319MOL0     C42991   4.784   7.346  11.939 -0.2542  0.1482 -0.7722
  319MOL0     C42992   4.768   7.467  12.028  0.3470  0.2860  0.0518
  319MOL0     C42993   4.887   7.492  12.124 -0.0578 -0.0677  0.0922
  319MOL0     C42994   4.862   7.434  12.253 -0.4278 -0.4688  0.4876
  319MOL0     C42995   4.861   7.386  12.365 -0.5507  0.2701  0.2142
  319MOL0     C42996   4.800   7.670  11.690 -0.0636 -0.4023  0.1049
  319MOL0     C42997   4.913   7.726  11.625  0.6891 -0.4866  0.8483
  319MOL0     H42998   5.291   7.574  11.221  0.5607 -1.2995  4.0566
  319MOL0     H42999   5.500   7.627  11.081  0.2522 -1.4717  0.3001
  319MOL0     H43000   5.671   7.693  11.004  3.2106 -2.1514 -1.1511
  319MOL0     H43001   5.757   7.840  10.962 -1.1156  0.4124 -0.9516
  319MOL0     H43002   5.828   7.656  11.194 -4.3523  5.8153  1.6139
  319MOL0     H43003   5.902   7.642  11.023 -0.5571  2.2557 -3.1984
  319MOL0     H43004   5.925   7.913  11.172  1.2037  1.2682  2.0448
  319MOL0     H43005   6.017   7.779  11.238 -0.5077  0.0466  0.5079
  319MOL0     H43006   6.171   7.773  11.064  0.9329  0.0950 -1.4826
  319MOL0     H43007   6.041   7.782  10.943 -1.3104  2.2972 -0.2406
  319MOL0     H43008   6.024   8.022  10.970 -1.1113 -1.3874  0.1734
  319MOL0     H43009   6.133   7.997  11.122  2.6880  0.0195 -0.5050
  319MOL0     H43010   6.316   7.986  10.997  2.2933  4.4711  0.2508
  319MOL0     H43011   6.237   7.962  10.841  1.1706 -0.3802  0.5704
  319MOL0     H43012   6.310   8.197  10.840 -0.9557  2.6283  1.8791
  319MOL0     H43013   6.136   8.181  10.854 -0.1890 -0.5675 -1.2699
  319MOL0     H43014   6.353   8.248  11.064  0.3878 -0.9385 -0.2378
  319MOL0     H43015   6.181   8.211  11.122  0.0942  1.5432  0.6520
  319MOL0     H43016   6.042   8.425  10.893 -0.3807  1.7353 -1.0000
  319MOL0     H43017   5.983   8.667  10.878 -0.3287 -1.6982  1.2644
  319MOL0     H43018   5.950   8.689  11.044  0.3127  2.1661  0.5110
  319MOL0     H43019   6.165   8.828  10.884 -2.4479 -1.8596 -2.6185
  319MOL0     H43020   6.145   8.853  11.058 -0.2431 -0.7254  0.8742
  319MOL0     H43021   5.925   8.916  10.863  0.5419 -1.4096 -0.1810
  319MOL0     H43022   6.043   9.040  10.909 -0.6751  0.5330 -0.9359
  319MOL0     H43023   5.968   8.930  11.161 -0.3787 -0.0844  1.5746
  319MOL0     H43024   5.818   8.939  11.076  0.0402  0.2471  0.1815
  319MOL0     H43025   6.096   9.034  11.262 -0.5670  0.8338  2.2557
  319MOL0     H43026   6.421   9.210  11.268  0.5815 -2.3837 -2.6197
  319MOL0     H43027   6.368   9.154  11.426  0.5794  2.0562  0.2039
  319MOL0     H43028   6.350   9.053  11.280  1.1909 -0.6968  1.1379
  319MOL0     H43029   6.610   9.550  11.325 -0.8432  0.8927  1.6196
  319MOL0     H43030   6.727   9.677  11.504  0.5667 -1.0568  2.0775
  319MOL0     H43031   6.520  10.026  11.693  1.2808 -0.6068 -0.7031
  319MOL0     H43032   6.514   9.892  11.816 -2.0867  1.4037  0.1692
  319MOL0     H43033   6.671  10.057  11.907  0.0165  1.8000  0.1284
  319MOL0     H43034   6.773   9.940  11.822 -1.5025 -1.3730  1.4673
  319MOL0     H43035   6.676  10.208  11.704  0.8861  1.7891  2.4623
  319MOL0     H43036   6.765  10.097  11.610  3.5079  0.5843  0.6065
  319MOL0     H43037   6.878  10.240  11.854 -0.9397 -0.2517 -0.5480
  319MOL0     H43038   6.969  10.108  11.773  0.1203 -1.5647 -1.8322
  319MOL0     H43039   6.927  10.276  11.574  0.0508 -2.6028  1.7335
  319MOL0     H43040   7.052  10.300  11.702  0.5792 -3.2953 -0.4501
  319MOL0     H43041   6.779  10.445  11.723 -0.3269  1.8357  0.9006
  319MOL0     H43042   6.935  10.463  11.808  0.8934  1.7457 -1.7191
  319MOL0     H43043   7.032  10.514  11.574 -0.0104 -2.0658 -1.5225
  319MOL0     H43044   6.932  10.640  11.646  1.3536  1.8785 -5.3427
  319MOL0     H43045   6.745  10.580  11.548  0.6688  0.5023 -0.5958
  319MOL0     H43046   6.799  10.450  11.448  0.4992 -0.4662 -2.8561
  319MOL0     H43047   6.369   9.897  11.594  1.7040  0.6127  0.9148
  319MOL0     H43048   6.253   9.748  11.426  0.4788 -0.2436 -1.7035
  319MOL0     H43049   6.068   9.525  11.213 -2.2191  0.0591  0.2117
  319MOL0     H43050   5.924   9.413  11.114  3.8780  1.9586  0.0018
  319MOL0     H43051   5.599   7.918  11.362 -1.3308  1.8722 -4.3703
  319MOL0     H43052   5.367   7.864  11.497 -4.4775 -3.9179  0.0093
  319MOL0     H43053   5.038   7.453  11.457 -0.3524 -0.6674 -0.1438
  319MOL0     H43054   4.859   7.358  11.572 -0.6220  0.8724 -0.3175
  319MOL0     H43055   4.594   7.310  11.858 -0.0634 -0.8503 -0.7633
  319MOL0     H43056   4.716   7.270  11.745 -3.5403 -1.3489  0.6083
  319MOL0     H43057   4.884   7.353  11.895 -0.2590  2.8607 -0.5731
  319MOL0     H43058   4.776   7.250  11.990  0.7493 -1.0003 -2.6788
  319MOL0     H43059   4.687   7.426  12.089  2.8293 -1.4425  2.4487
  319MOL0     H43060   4.729   7.556  11.977 -4.3171 -0.9982  0.9114
  319MOL0     H43061   4.885   7.597  12.154 -2.2227 -0.0443  0.0308
  319MOL0     H43062   4.981   7.453  12.084 -1.2125 -4.3780  1.0268
  319MOL0     H43063   4.841   7.348  12.463  2.8873  0.9205  1.2990
  319MOL0     H43064   4.727   7.731  11.741 -1.1168 -2.6401  1.4283
  319MOL0     H43065   4.919   7.835  11.626  2.1484 -0.5318  3.1073
  320MOL0     O43066   9.497  10.301   4.422 -0.6885 -0.6545  0.2299
  320MOL0     C43067   9.584  10.327   4.501 -0.5670  0.7846  0.8678
  320MOL0     O43068   9.592  10.291   4.639  0.2668 -0.8237 -0.5109
  320MOL0     C43069   9.495  10.213   4.689  0.0676 -0.3286 -0.2596
  320MOL0     C43070   9.482  10.228   4.828 -0.0950  0.0733 -0.5009
  320MOL0     C43071   9.394  10.142   4.906 -0.5801 -0.0888 -0.4048
  320MOL0     C43072   9.321  10.040   4.840 -0.8537  0.9922  0.9571
  320MOL0     O43073   9.234   9.977   4.913 -0.5885 -0.2592  0.4160
  320MOL0     C43074   9.095  10.025   4.893 -0.2214  0.3013 -0.1140
  320MOL0     C43075   9.005   9.971   4.990 -0.2603  0.5837 -0.2220
  320MOL0     C43076   9.029  10.016   5.137  0.9579  0.5103 -0.4842
  320MOL0     C43077   8.948   9.921   5.238 -0.2908  0.3385  0.2471
  320MOL0     C43078   8.870  10.007   5.340 -0.0154  0.9599 -0.1410
  320MOL0     C43079   8.761  10.078   5.273  0.5637  0.1388 -0.1119
  320MOL0     C43080   8.631  10.076   5.360 -0.2498 -0.2527  0.4082
  320MOL0     C43081   8.646  10.183   5.462  0.0420  0.0901 -0.3548
  320MOL0     N43082   8.504  10.210   5.512  0.3784 -1.0436 -0.0133
  320MOL0     C43083   8.436  10.331   5.504  0.2286 -0.3710  0.1826
  320MOL0     C43084   8.336  10.317   5.591 -0.2058  0.2542 -0.2443
  320MOL0     C43085   8.245  10.430   5.627  0.3995  0.7682  0.5976
  320MOL0     C43086   8.269  10.483   5.765 -1.0393 -0.6736 -0.6770
  320MOL0     C43087   8.420  10.513   5.782  0.1011  0.4242 -0.2055
  320MOL0     C43088   8.499  10.406   5.864 -0.6112 -0.2869 -0.3968
  320MOL0     O43089   8.640  10.451   5.901  0.8165 -0.3941  0.7444
  320MOL0     C43090   8.747  10.424   5.822 -0.0242  0.0745 -0.5516
  320MOL0     C43091   8.830  10.530   5.783 -0.0299  0.7543  0.2039
  320MOL0     C43092   8.940  10.511   5.705  0.0559 -0.6021  0.0489
  320MOL0     C43093   9.023  10.638   5.695 -0.0046  0.5684  0.2586
  320MOL0     C43094   8.977  10.380   5.662 -0.1201 -0.4323  0.6609
  320MOL0     C43095   9.116  10.342   5.608  0.4472 -0.0650  0.9175
  320MOL0     O43096   9.120  10.217   5.543 -0.3641  0.0212 -0.8550
  320MOL0     C43097   9.241  10.174   5.496  0.2305  0.0491 -0.9682
  320MOL0     C43098   9.287  10.047   5.526 -0.8058  0.6576  0.2096
  320MOL0     C43099   9.379   9.982   5.459 -0.1187  0.2945 -0.4706
  320MOL0     C43100   9.455  10.052   5.366  0.0786 -0.3971  0.3801
  320MOL0     O43101   9.571  10.003   5.313 -0.1239  0.0604  0.0247
  320MOL0     C43102   9.575   9.868   5.274  0.3038  0.5631 -0.0473
  320MOL0     C43103   9.693   9.852   5.185  0.1988  0.3526  0.2121
  320MOL0     C43104   9.661   9.922   5.047 -0.3161 -1.3404  0.0509
  320MOL0     C43105   9.799   9.953   4.978  0.3218  0.1465 -0.1297
  320MOL0     C43106   9.841  10.094   5.000  0.2602 -0.7207 -0.3990
  320MOL0     C43107   9.971  10.138   4.946  0.4559 -0.1680  0.1326
  320MOL0     C43108   9.982  10.290   4.928 -0.3292  0.1783  0.5767
  320MOL0     C43109  10.123  10.331   4.925 -0.6665  0.7400 -0.5196
  320MOL0    Cl43110  10.117  10.514   4.959 -0.1931 -0.3008  0.0688
  320MOL0     C43111   9.421  10.185   5.347 -0.1279 -0.3845  0.4772
  320MOL0     C43112   9.311  10.241   5.407  0.1105 -0.1602  0.0104
  320MOL0     O43113   9.211  10.418   5.622 -0.6983  0.0000 -0.2702
  320MOL0     C43114   8.898  10.276   5.703  0.3476 -0.5249 -0.2750
  320MOL0     C43115   8.781  10.295   5.775 -0.7936 -1.6385  0.3350
  320MOL0     N43116   8.323  10.186   5.630 -0.0582 -1.0719 -1.4808
  320MOL0     N43117   8.423  10.132   5.581  0.0154 -0.3731 -0.1703
  320MOL0     C43118   9.332  10.011   4.706 -0.3325 -0.3681 -0.7629
  320MOL0     C43119   9.426  10.097   4.638  0.4536  1.3155  0.3543
  320MOL0     C43120   9.698  10.399   4.450  0.0283 -0.7435  0.0872
  320MOL0     C43121   9.807  10.424   4.537 -0.6603 -0.0538  0.7343
  320MOL0     C43122   9.918  10.506   4.499  0.4979 -0.5972  0.7626
  320MOL0     C43123   9.926  10.564   4.371 -0.4307 -0.0266 -0.1041
  320MOL0     O43124  10.024  10.646   4.317  0.3334  0.2351  0.1557
  320MOL0     C43125  10.112  10.740   4.387  0.2106 -0.7734 -0.0355
  320MOL0     C43126  10.036  10.827   4.492  0.9646 -0.0098  0.8279
  320MOL0     C43127   9.919  10.895   4.429  0.7717 -0.6537 -0.4553
  320MOL0     C43128   9.859  11.012   4.520 -0.5781  0.9996  0.8185
  320MOL0     C43129   9.802  11.116   4.438 -0.3948  0.9096  0.3328
  320MOL0     C43130   9.758  11.214   4.382 -0.0628  0.1158 -0.1131
  320MOL0     C43131   9.813  10.542   4.285  0.3243 -0.0722  0.0081
  320MOL0     C43132   9.696  10.474   4.323  0.8113 -0.2571  0.8592
  320MOL0     H43133   9.534  10.305   4.885  3.1507 -2.0234 -0.3560
  320MOL0     H43134   9.391  10.134   5.015 -0.9802 -0.5343 -0.4422
  320MOL0     H43135   9.083  10.131   4.916  0.4633  0.2540  0.5048
  320MOL0     H43136   9.071   9.998   4.790  0.6116  3.8281 -1.3743
  320MOL0     H43137   8.899   9.968   4.962 -0.6663 -0.1188  1.2870
  320MOL0     H43138   9.018   9.863   4.980 -1.6662  0.2542  1.1318
  320MOL0     H43139   9.134   9.988   5.148  1.8121  3.1861 -1.1450
  320MOL0     H43140   9.024  10.125   5.147  2.6209  0.6374 -0.8336
  320MOL0     H43141   8.890   9.850   5.178 -0.7983  1.1950 -0.3055
  320MOL0     H43142   9.027   9.881   5.302  1.7337  1.2745 -1.5329
  320MOL0     H43143   8.826   9.942   5.417 -1.5105  1.8893 -0.1646
  320MOL0     H43144   8.934  10.078   5.394  0.3392  0.8957 -0.4705
  320MOL0     H43145   8.790  10.176   5.235  1.5064 -0.2656 -0.4652
  320MOL0     H43146   8.740  10.017   5.184 -1.2007  2.5322 -1.4783
  320MOL0     H43147   8.550  10.113   5.298  1.3217  3.3806  0.2552
  320MOL0     H43148   8.611   9.981   5.411 -2.1766  0.5151  1.1658
  320MOL0     H43149   8.703  10.268   5.423  1.0215  0.3069  1.4091
  320MOL0     H43150   8.700  10.148   5.550 -0.8090  0.9423  0.5305
  320MOL0     H43151   8.470  10.424   5.460 -0.7241 -0.2102 -0.2205
  320MOL0     H43152   8.261  10.511   5.555  1.6071  0.0863  0.0565
  320MOL0     H43153   8.144  10.392   5.612 -0.1396  2.8626 -1.6841
  320MOL0     H43154   8.231  10.432   5.854 -0.9438  1.7780  0.8404
  320MOL0     H43155   8.240  10.588   5.773  3.9212  1.1983 -3.0055
  320MOL0     H43156   8.419  10.604   5.842 -0.6607 -0.4124  1.1015
  320MOL0     H43157   8.463  10.541   5.686  0.3766  2.0309  0.3673
  320MOL0     H43158   8.502  10.309   5.815 -1.4212  0.0242 -1.0709
  320MOL0     H43159   8.449  10.385   5.959 -2.3504  2.1080 -0.6883
  320MOL0     H43160   8.800  10.627   5.822 -0.6647  0.4142  0.5736
  320MOL0     H43161   8.987  10.718   5.759 -0.4075 -1.2417  2.3995
  320MOL0     H43162   9.122  10.617   5.738 -0.3655 -0.0173  0.8225
  320MOL0     H43163   9.036  10.664   5.589 -0.1511  4.3135  1.0454
  320MOL0     H43164   9.237   9.992   5.605 -0.8981 -1.8661 -1.4904
  320MOL0     H43165   9.414   9.886   5.495 -0.5274  0.3293  0.0345
  320MOL0     H43166   9.588   9.795   5.355 -0.0585 -1.6216 -1.8510
  320MOL0     H43167   9.490   9.844   5.209  1.2474 -1.2024 -0.6978
  320MOL0     H43168   9.790   9.881   5.228  0.4877 -2.0716  1.3199
  320MOL0     H43169   9.712   9.746   5.170  0.8922  0.1729  2.1188
  320MOL0     H43170   9.592  10.006   5.058  1.2511 -0.1688  1.7309
  320MOL0     H43171   9.611   9.855   4.977 -0.8468  0.9554 -1.9031
  320MOL0     H43172   9.873   9.879   5.009 -0.5389 -1.2903 -1.3556
  320MOL0     H43173   9.780   9.939   4.871  2.2025 -0.8908 -0.3778
  320MOL0     H43174   9.844  10.114   5.108  3.6149  0.9236 -0.6494
  320MOL0     H43175   9.767  10.154   4.947 -0.9942 -1.1765  0.7802
  320MOL0     H43176  10.050  10.097   5.009  0.0906  0.3761  0.9576
  320MOL0     H43177   9.975  10.096   4.845 -1.0242 -0.2046  0.0597
  320MOL0     H43178   9.934  10.352   5.004  1.1477  2.0389  0.0754
  320MOL0     H43179   9.943  10.317   4.829 -0.1579  0.9646  0.7179
  320MOL0     H43180  10.166  10.303   4.828 -3.6202 -2.2321 -1.1720
  320MOL0     H43181  10.180  10.280   5.003  0.7715  3.0640  0.0443
  320MOL0     H43182   9.477  10.236   5.269  0.2282 -0.8102  0.4439
  320MOL0     H43183   9.277  10.341   5.382 -2.2933 -0.1078  2.9234
  320MOL0     H43184   8.926  10.171   5.699 -2.2274 -1.3100  0.4596
  320MOL0     H43185   8.722  10.207   5.798 -0.1801 -2.2828 -0.4360
  320MOL0     H43186   9.273   9.933   4.659 -3.6818  1.5396 -0.0778
  320MOL0     H43187   9.458  10.086   4.535  2.8940  0.1696  1.1540
  320MOL0     H43188   9.824  10.387   4.638  0.0919  2.6911  1.7125
  320MOL0     H43189  10.000  10.526   4.569 -1.3190  0.3045  2.7613
  320MOL0     H43190  10.195  10.695   4.442 -0.2032  0.7869  1.9746
  320MOL0     H43191  10.140  10.811   4.308 -2.4565 -0.4645 -0.8160
  320MOL0     H43192  10.104  10.909   4.518  0.1730 -0.4696  5.0725
  320MOL0     H43193  10.004  10.780   4.586  1.5393  0.0785  1.0714
  320MOL0     H43194   9.841  10.826   4.394 -1.3611  1.6558 -0.5539
  320MOL0     H43195   9.954  10.949   4.341  1.5118 -2.0009 -1.0207
  320MOL0     H43196   9.941  11.057   4.576  1.4213  0.7273 -1.6786
  320MOL0     H43197   9.785  10.971   4.589 -1.5748 -0.4450 -1.0214
  320MOL0     H43198   9.718  11.304   4.340  1.8394  1.7236  1.3143
  320MOL0     H43199   9.826  10.586   4.187  2.0387 -0.2865  0.1032
  320MOL0     H43200   9.617  10.463   4.250  0.2667  2.9767  0.8187
  321MOL0     O43201   8.058   5.502   4.657  0.4945  0.7083  0.5812
  321MOL0     C43202   8.076   5.592   4.578 -0.2378  0.3311 -0.1687
  321MOL0     O43203   8.196   5.662   4.560  0.6873 -0.3455  0.3477
  321MOL0     C43204   8.299   5.634   4.643 -0.4485  0.1897  0.4280
  321MOL0     C43205   8.350   5.726   4.735 -0.0066  0.2483  0.4571
  321MOL0     C43206   8.450   5.683   4.814 -0.6793 -0.3481  0.2365
  321MOL0     C43207   8.520   5.562   4.794  0.0962 -0.7296 -0.1714
  321MOL0     O43208   8.632   5.533   4.870 -0.3774  0.2162 -0.2446
  321MOL0     C43209   8.685   5.622   4.972 -1.0597 -0.2102 -0.4041
  321MOL0     C43210   8.769   5.729   4.908 -0.4319  0.5147  0.0745
  321MOL0     C43211   8.914   5.684   4.869  0.7385  0.6550  0.1535
  321MOL0     C43212   8.930   5.554   4.786  0.0075 -0.3688  0.0803
  321MOL0     C43213   8.877   5.574   4.650  0.3537  0.1474 -0.5587
  321MOL0     C43214   8.916   5.460   4.556 -0.4203  0.2932  1.0685
  321MOL0     C43215   8.861   5.489   4.411  0.7051 -0.6175 -0.8996
  321MOL0     C43216   8.905   5.375   4.316 -0.9974 -0.1617 -0.4830
  321MOL0     N43217   8.830   5.383   4.197 -0.2789 -0.5272  1.0068
  321MOL0     C43218   8.862   5.337   4.068 -0.2637 -0.1784  1.2374
  321MOL0     C43219   8.742   5.334   4.001 -0.7832  0.2738 -0.6779
  321MOL0     C43220   8.724   5.281   3.867 -0.4687 -0.1409  0.9853
  321MOL0     C43221   8.746   5.125   3.860  0.3273  0.5193  0.0689
  321MOL0     C43222   8.660   5.027   3.935 -0.6746  0.0294  0.1938
  321MOL0     C43223   8.519   5.060   3.949  0.6639 -0.4998  0.3552
  321MOL0     O43224   8.453   5.074   3.818 -0.6592 -0.4786  0.2071
  321MOL0     C43225   8.321   5.095   3.822  0.1976  0.1858 -0.2845
  321MOL0     C43226   8.248   5.111   3.709  0.3651  0.4314  0.3200
  321MOL0     C43227   8.108   5.143   3.712  0.2555 -0.4883  0.4929
  321MOL0     C43228   8.042   5.169   3.579 -0.0021  0.2668 -1.0975
  321MOL0     C43229   8.033   5.161   3.839 -0.4704  0.0467  1.2231
  321MOL0     C43230   7.888   5.204   3.851  0.4632 -0.0398  0.2867
  321MOL0     O43231   7.835   5.174   3.971  0.5658 -0.3175  0.1235
  321MOL0     C43232   7.703   5.212   3.986 -0.0765  0.6149 -1.0251
  321MOL0     C43233   7.604   5.130   3.946  0.4223 -0.6096  0.3734
  321MOL0     C43234   7.470   5.149   3.969 -0.7643  0.4599 -0.1957
  321MOL0     C43235   7.421   5.257   4.043 -0.8883  0.5768 -0.5981
  321MOL0     O43236   7.293   5.285   4.069 -0.1707 -1.2600  1.0642
  321MOL0     C43237   7.182   5.209   4.013 -1.0467  0.1333  0.3508
  321MOL0     C43238   7.053   5.286   4.026  1.6082  0.2870 -1.1554
  321MOL0     C43239   7.045   5.421   3.956 -0.0387  0.0077  0.4794
  321MOL0     C43240   6.907   5.502   3.977 -0.1774  0.2472  0.8041
  321MOL0     C43241   6.890   5.560   4.120 -0.9272 -0.4106  0.0345
  321MOL0     C43242   6.750   5.540   4.165  0.2274  0.1961  0.4914
  321MOL0     C43243   6.736   5.560   4.321 -0.2271 -0.2204 -0.4924
  321MOL0     C43244   6.607   5.519   4.380  0.5556  0.3538  0.1935
  321MOL0    Cl43245   6.579   5.591   4.530 -0.4219 -0.1820  0.0396
  321MOL0     C43246   7.516   5.349   4.084 -0.4029  1.3994 -0.5317
  321MOL0     C43247   7.656   5.325   4.059  1.0413 -0.4426  1.0278
  321MOL0     O43248   7.831   5.257   3.756  0.6481  0.6613 -0.0807
  321MOL0     C43249   8.118   5.149   3.954 -0.2884 -0.2524 -0.3110
  321MOL0     C43250   8.249   5.120   3.940 -0.6657  0.3414  0.7034
  321MOL0     N43251   8.646   5.398   4.081 -0.6800 -0.2711  1.2261
  321MOL0     N43252   8.701   5.430   4.194 -0.4767 -0.5564 -0.8148
  321MOL0     C43253   8.475   5.473   4.708  0.2904  1.2623 -0.3959
  321MOL0     C43254   8.357   5.506   4.627 -0.6829  0.4292  0.0834
  321MOL0     C43255   7.961   5.625   4.493 -0.0789  0.1928 -0.3798
  321MOL0     C43256   7.845   5.540   4.486  0.5670 -1.1091 -0.2551
  321MOL0     C43257   7.723   5.584   4.418 -0.3462  0.8537 -0.0037
  321MOL0     C43258   7.704   5.707   4.359  0.0596 -1.0701 -0.1640
  321MOL0     O43259   7.597   5.749   4.285 -0.9183  0.0318  0.6356
  321MOL0     C43260   7.464   5.720   4.322 -0.1535 -0.6131  0.4627
  321MOL0     C43261   7.379   5.753   4.203 -0.7432  0.4104  0.1180
  321MOL0     C43262   7.246   5.802   4.247 -0.7631  0.7797  0.2900
  321MOL0     C43263   7.142   5.826   4.138  0.4607  0.1788 -0.2960
  321MOL0     C43264   7.023   5.902   4.189  0.0237 -0.3864  0.6693
  321MOL0     C43265   6.932   5.971   4.226  0.1773 -0.0822  0.6237
  321MOL0     C43266   7.821   5.791   4.366 -0.0521 -0.3971  0.2775
  321MOL0     C43267   7.946   5.748   4.428  0.4438 -0.3463 -0.2920
  321MOL0     H43268   8.300   5.822   4.741 -0.4855  0.0600 -0.4167
  321MOL0     H43269   8.474   5.749   4.897 -0.2368  3.3542 -2.5669
  321MOL0     H43270   8.600   5.651   5.034 -0.5020  1.4474 -0.3649
  321MOL0     H43271   8.760   5.576   5.038  0.5805  4.6686  1.5729
  321MOL0     H43272   8.716   5.765   4.819 -1.0480 -2.4400 -0.8684
  321MOL0     H43273   8.782   5.813   4.977  0.1097  2.1383 -1.8926
  321MOL0     H43274   8.947   5.766   4.804  0.2140 -1.8039 -3.5466
  321MOL0     H43275   8.975   5.676   4.959  0.4455  2.7690  0.5824
  321MOL0     H43276   9.037   5.528   4.791  0.5467  1.9583  3.2651
  321MOL0     H43277   8.875   5.469   4.827  0.4586 -1.1576 -0.8788
  321MOL0     H43278   8.768   5.586   4.654 -0.0680 -2.6970 -1.2625
  321MOL0     H43279   8.902   5.672   4.608 -0.4554  0.1305 -1.0947
  321MOL0     H43280   9.025   5.452   4.549 -0.5593 -0.5197 -0.7880
  321MOL0     H43281   8.872   5.363   4.584 -1.7517  0.2916 -0.8606
  321MOL0     H43282   8.752   5.496   4.415  0.8702  2.8322  1.4060
  321MOL0     H43283   8.906   5.583   4.377  2.5546 -0.6644  1.1672
  321MOL0     H43284   8.904   5.279   4.368 -2.7132  1.0623  1.9664
  321MOL0     H43285   9.009   5.383   4.284 -0.9361 -3.3422 -1.3715
  321MOL0     H43286   8.949   5.296   4.018  0.3071  2.8516 -0.5044
  321MOL0     H43287   8.630   5.314   3.823 -1.6307 -3.2352  0.8557
  321MOL0     H43288   8.801   5.324   3.802 -1.2937  0.1869  0.2111
  321MOL0     H43289   8.851   5.094   3.864  0.6735  1.4305 -1.0702
  321MOL0     H43290   8.712   5.106   3.757 -0.8293 -2.2749  0.8734
  321MOL0     H43291   8.701   5.003   4.034  1.0319 -0.3267 -0.5517
  321MOL0     H43292   8.669   4.926   3.894 -4.4215 -2.4727  4.5883
  321MOL0     H43293   8.510   5.145   4.016 -2.5757 -1.1671  0.9433
  321MOL0     H43294   8.465   4.977   3.996 -0.8627 -0.4520 -1.1901
  321MOL0     H43295   8.302   5.110   3.615  0.5247 -0.9089  0.4019
  321MOL0     H43296   8.097   5.120   3.499 -0.0443 -2.4274  0.3897
  321MOL0     H43297   7.940   5.130   3.573  0.1475  0.1527 -5.4934
  321MOL0     H43298   8.043   5.275   3.551 -2.4946  0.3578 -1.1241
  321MOL0     H43299   7.626   5.032   3.903  0.2520 -0.0527 -1.0344
  321MOL0     H43300   7.393   5.076   3.944 -2.5771  2.2660 -0.1446
  321MOL0     H43301   7.213   5.196   3.909  1.7063 -1.2324  1.2624
  321MOL0     H43302   7.174   5.114   4.066 -3.1744  1.2906  2.2644
  321MOL0     H43303   6.974   5.226   3.982 -1.2058  2.3506  0.6847
  321MOL0     H43304   7.037   5.305   4.133 -0.3622 -1.0622 -1.1647
  321MOL0     H43305   7.050   5.396   3.850  1.6254 -1.2883  0.8267
  321MOL0     H43306   7.126   5.487   3.989 -1.2188  0.0959  3.4740
  321MOL0     H43307   6.889   5.576   3.899 -1.9920  0.9730  1.8563
  321MOL0     H43308   6.826   5.430   3.960 -1.6439  1.7804  1.0754
  321MOL0     H43309   6.906   5.668   4.109  0.3172 -0.5731  0.1739
  321MOL0     H43310   6.970   5.521   4.183  0.8168  0.8142 -1.3148
  321MOL0     H43311   6.689   5.606   4.103  1.4413  0.1482 -0.8182
  321MOL0     H43312   6.731   5.432   4.157  0.0801  0.3006 -0.7616
  321MOL0     H43313   6.736   5.668   4.342  0.2086 -0.2675 -0.2386
  321MOL0     H43314   6.816   5.510   4.377  0.7451  1.6164 -0.1353
  321MOL0     H43315   6.602   5.412   4.400  0.1831  0.7397  2.4472
  321MOL0     H43316   6.531   5.545   4.305 -0.2772 -0.9610  0.5490
  321MOL0     H43317   7.488   5.422   4.159  1.6863  2.1370 -0.4016
  321MOL0     H43318   7.729   5.397   4.096  0.0709 -0.0336  2.2531
  321MOL0     H43319   8.074   5.182   4.048  0.7452 -2.8886  1.2054
  321MOL0     H43320   8.292   5.106   4.038 -1.1061 -1.5613  0.6755
  321MOL0     H43321   8.528   5.379   4.698 -0.4818  0.4597  2.1495
  321MOL0     H43322   8.324   5.426   4.562  0.3734 -1.0062  1.2468
  321MOL0     H43323   7.853   5.440   4.529 -1.5694 -1.6006 -0.8713
  321MOL0     H43324   7.642   5.512   4.410 -1.1081  1.6026  0.8866
  321MOL0     H43325   7.468   5.612   4.339  2.8921 -0.6593  0.0044
  321MOL0     H43326   7.427   5.781   4.406 -2.3323 -1.1308 -0.0672
  321MOL0     H43327   7.366   5.671   4.131  0.5494 -1.6160  2.0738
  321MOL0     H43328   7.422   5.831   4.141  0.6511  1.1140  1.8907
  321MOL0     H43329   7.275   5.893   4.299  1.1645 -0.0297  0.7329
  321MOL0     H43330   7.206   5.728   4.317 -3.0654 -1.5763 -3.1577
  321MOL0     H43331   7.106   5.729   4.103 -0.6855  0.6841 -0.5553
  321MOL0     H43332   7.191   5.877   4.055 -2.7544 -0.2081 -2.5872
  321MOL0     H43333   6.844   6.030   4.238 -0.4129 -0.4925 -1.3282
  321MOL0     H43334   7.808   5.880   4.306 -0.3339  0.1937  1.1958
  321MOL0     H43335   8.025   5.822   4.429  0.3138 -0.2108  0.0124
  322MOL0     O43336   6.958   3.491   7.266 -0.2318  0.3631  0.1307
  322MOL0     C43337   6.845   3.498   7.311  1.1834  0.0794  0.9176
  322MOL0     O43338   6.761   3.393   7.328  0.1252  0.1183  1.2544
  322MOL0     C43339   6.815   3.273   7.307 -0.8955  0.1390  0.0799
  322MOL0     C43340   6.829   3.240   7.167 -0.0467 -0.2530 -0.4666
  322MOL0     C43341   6.878   3.115   7.134 -0.0773  0.8600 -0.1334
  322MOL0     C43342   6.926   3.030   7.233  0.5447 -0.5933 -0.6614
  322MOL0     O43343   6.963   2.908   7.186 -0.5790  0.3467 -0.3371
  322MOL0     C43344   6.990   2.799   7.279 -0.1859  0.8167  0.3951
  322MOL0     C43345   6.846   2.756   7.316  1.5531 -0.3350  0.2602
  322MOL0     C43346   6.793   2.647   7.233  0.3327  0.0567 -0.1879
  322MOL0     C43347   6.675   2.579   7.310  0.1903  0.3014  0.1051
  322MOL0     C43348   6.602   2.465   7.230  0.3406 -0.4508 -0.2558
  322MOL0     C43349   6.479   2.524   7.160  0.3455  0.8688 -0.4592
  322MOL0     C43350   6.392   2.405   7.097 -1.2548 -0.3352 -1.2342
  322MOL0     C43351   6.282   2.453   7.002 -0.2307  0.0134  0.0416
  322MOL0     N43352   6.167   2.524   7.045  0.0827  0.1572  1.1157
  322MOL0     C43353   6.042   2.469   7.036 -0.4663  0.8348 -0.4133
  322MOL0     C43354   5.957   2.573   7.044  0.4910  0.2497 -1.0461
  322MOL0     C43355   5.811   2.580   7.015  0.9235 -0.1161 -0.8189
  322MOL0     C43356   5.719   2.481   7.083 -0.8136 -0.7327 -0.6278
  322MOL0     C43357   5.572   2.494   7.036  0.0988 -0.6161 -0.7527
  322MOL0     C43358   5.488   2.371   7.074  1.1452  0.4191 -0.7456
  322MOL0     O43359   5.496   2.271   6.960 -0.3330 -0.5082  0.0365
  322MOL0     C43360   5.546   2.152   7.001 -0.4443 -0.1176  0.4852
  322MOL0     C43361   5.482   2.077   7.093 -0.0405 -1.0315 -0.8378
  322MOL0     C43362   5.533   1.954   7.143 -0.4292  0.3435  0.0345
  322MOL0     C43363   5.441   1.867   7.224 -0.3069 -0.4849 -0.4038
  322MOL0     C43364   5.659   1.911   7.083  0.9008 -0.0007 -0.4696
  322MOL0     C43365   5.733   1.796   7.143 -0.1354 -0.2326 -0.0024
  322MOL0     O43366   5.795   1.710   7.047  0.7902 -0.2910  0.1178
  322MOL0     C43367   5.918   1.642   7.072 -0.1060 -0.0793 -0.7682
  322MOL0     C43368   5.969   1.560   6.974  0.0372  0.1517 -0.3677
  322MOL0     C43369   6.090   1.489   6.986 -0.3799  0.5601 -0.5194
  322MOL0     C43370   6.165   1.511   7.105  1.0939  0.2320  0.2434
  322MOL0     O43371   6.266   1.424   7.119 -0.1370  0.2388 -0.1148
  322MOL0     C43372   6.294   1.387   7.258  0.5518  0.1770  0.1722
  322MOL0     C43373   6.403   1.274   7.261  1.1703  0.2821  0.1411
  322MOL0     C43374   6.399   1.194   7.396 -0.5700 -0.2230 -0.1571
  322MOL0     C43375   6.474   1.057   7.381  0.4872 -0.6139 -0.7498
  322MOL0     C43376   6.443   0.975   7.508 -0.9853 -0.0741  0.2417
  322MOL0     C43377   6.471   1.037   7.641 -0.4217 -0.8716 -0.5195
  322MOL0     C43378   6.415   0.968   7.774 -0.2701  1.0580 -0.5911
  322MOL0     C43379   6.264   1.004   7.778  0.3453 -0.3478  0.2172
  322MOL0    Cl43380   6.234   1.178   7.785  0.1908  0.1917 -0.3808
  322MOL0     C43381   6.136   1.616   7.185  1.1882  0.3930 -0.5013
  322MOL0     C43382   6.007   1.682   7.171 -0.3412  0.4471  0.7971
  322MOL0     O43383   5.736   1.784   7.263 -0.3564 -0.0324  0.3476
  322MOL0     C43384   5.700   1.966   6.966 -0.2397 -0.4885 -0.1423
  322MOL0     C43385   5.648   2.089   6.926  0.1443 -0.2428  0.6051
  322MOL0     N43386   6.031   2.690   7.060 -0.3370 -0.5709  0.2488
  322MOL0     N43387   6.153   2.653   7.065  0.0367  0.1729  0.1765
  322MOL0     C43388   6.903   3.069   7.367 -0.1113  0.4851  0.1137
  322MOL0     C43389   6.850   3.186   7.402  0.0411  0.2508  0.1380
  322MOL0     C43390   6.784   3.626   7.319  0.2905 -0.6515  0.5655
  322MOL0     C43391   6.652   3.642   7.376 -0.3354  0.6704 -0.1261
  322MOL0     C43392   6.590   3.760   7.409  0.5934  0.0141  0.2634
  322MOL0     C43393   6.668   3.880   7.389  0.4724 -0.0109 -0.0969
  322MOL0     O43394   6.636   4.006   7.430  0.0603 -0.1918  0.3876
  322MOL0     C43395   6.506   4.028   7.495  0.2735  0.1004 -0.3782
  322MOL0     C43396   6.487   4.161   7.566  0.0046 -0.8134 -0.1554
  322MOL0     C43397   6.382   4.140   7.676 -0.1225  0.3125 -0.6145
  322MOL0     C43398   6.375   4.264   7.751  1.0709  0.2162  0.2749
  322MOL0     C43399   6.483   4.269   7.855  0.3875  0.1146 -0.8264
  322MOL0     C43400   6.585   4.290   7.917 -0.4781  0.2093 -0.5046
  322MOL0     C43401   6.786   3.872   7.312 -0.0948 -1.0154  0.5082
  322MOL0     C43402   6.853   3.749   7.298  0.1419  0.9248  0.3591
  322MOL0     H43403   6.805   3.319   7.097  1.9777  0.6089 -0.2737
  322MOL0     H43404   6.895   3.080   7.033  3.2848  0.5434  0.4117
  322MOL0     H43405   7.032   2.713   7.226  1.4471 -0.5060  3.5828
  322MOL0     H43406   7.056   2.830   7.361 -3.0980  1.6326  2.5956
  322MOL0     H43407   6.857   2.723   7.420 -2.7722 -0.1990  0.9418
  322MOL0     H43408   6.766   2.830   7.315  1.8432  0.0456  1.7274
  322MOL0     H43409   6.752   2.692   7.143  2.4835  0.3440 -1.0738
  322MOL0     H43410   6.870   2.574   7.205  0.5641  0.4154 -0.4796
  322MOL0     H43411   6.702   2.536   7.407 -2.8469 -1.3201  0.3386
  322MOL0     H43412   6.614   2.665   7.341 -0.7622 -0.2629 -0.1585
  322MOL0     H43413   6.664   2.428   7.148  0.1432 -0.9147 -0.2040
  322MOL0     H43414   6.575   2.383   7.298  0.6310 -1.4101 -1.2598
  322MOL0     H43415   6.418   2.573   7.237  1.7520  2.2964 -0.1919
  322MOL0     H43416   6.498   2.609   7.093 -0.8821  1.9817  0.5229
  322MOL0     H43417   6.455   2.335   7.041  0.3553 -0.0005  0.0754
  322MOL0     H43418   6.347   2.354   7.183  0.8285 -2.6165 -1.3827
  322MOL0     H43419   6.245   2.363   6.951 -0.9696 -0.2827  1.0752
  322MOL0     H43420   6.336   2.514   6.928  0.4645  1.3174  1.5667
  322MOL0     H43421   6.015   2.369   7.004 -3.7395  1.5059 -0.0668
  322MOL0     H43422   5.771   2.680   7.035  1.0416  0.1557 -1.8817
  322MOL0     H43423   5.804   2.561   6.907 -1.2101  0.2398 -0.7993
  322MOL0     H43424   5.716   2.487   7.192 -2.0756  1.5160 -0.7099
  322MOL0     H43425   5.752   2.381   7.054 -2.5560 -0.6968 -3.0030
  322MOL0     H43426   5.569   2.492   6.926 -2.0851 -1.9002 -0.7225
  322MOL0     H43427   5.522   2.589   7.054  0.2836 -0.0792 -2.7861
  322MOL0     H43428   5.387   2.411   7.085  1.4892  2.0425 -2.7926
  322MOL0     H43429   5.511   2.333   7.173 -1.4640 -2.6678 -1.1630
  322MOL0     H43430   5.391   2.119   7.133 -1.9611 -6.4416  1.3946
  322MOL0     H43431   5.389   1.932   7.294  0.4664 -0.2919  0.0054
  322MOL0     H43432   5.368   1.829   7.152  1.1732 -2.1010 -1.1314
  322MOL0     H43433   5.501   1.782   7.257 -0.2774 -0.3676 -0.1583
  322MOL0     H43434   5.893   1.543   6.898 -1.2813  3.3950  0.0790
  322MOL0     H43435   6.108   1.418   6.906 -0.3575 -0.4554  0.3772
  322MOL0     H43436   6.351   1.463   7.311 -1.3031  0.2367  2.2223
  322MOL0     H43437   6.205   1.360   7.317 -0.0506  2.9006  0.6158
  322MOL0     H43438   6.385   1.208   7.176  0.6259  2.5557 -1.6030
  322MOL0     H43439   6.499   1.324   7.247  0.2098  1.5831 -2.2893
  322MOL0     H43440   6.296   1.173   7.426 -0.7753  2.3097  1.2413
  322MOL0     H43441   6.435   1.255   7.480 -2.6828  2.5641 -1.0997
  322MOL0     H43442   6.449   1.006   7.287  2.1325 -0.1905 -1.4474
  322MOL0     H43443   6.579   1.084   7.373  0.2723  0.1981 -0.9652
  322MOL0     H43444   6.503   0.884   7.502 -0.0381  0.5434  0.0575
  322MOL0     H43445   6.338   0.946   7.513 -0.6527 -1.3579  0.0766
  322MOL0     H43446   6.581   1.034   7.640 -0.3387 -0.3638  1.7383
  322MOL0     H43447   6.446   1.144   7.645 -0.9623 -1.0437  2.1858
  322MOL0     H43448   6.467   1.002   7.864 -2.2911 -2.5024  2.2014
  322MOL0     H43449   6.419   0.859   7.766  0.1310  1.2055 -2.8652
  322MOL0     H43450   6.217   0.951   7.862  0.0600 -1.5661 -0.6895
  322MOL0     H43451   6.210   0.962   7.693  0.4234 -3.4956  1.5750
  322MOL0     H43452   6.191   1.647   7.274  2.1523 -2.3416 -0.0634
  322MOL0     H43453   5.981   1.745   7.255  0.8252 -0.3824  1.8191
  322MOL0     H43454   5.796   1.939   6.923  2.2373  3.4933  2.2573
  322MOL0     H43455   5.694   2.139   6.841 -0.7251  0.7304  0.6931
  322MOL0     H43456   6.937   2.997   7.440  0.3969 -0.3458 -0.9268
  322MOL0     H43457   6.838   3.220   7.505  1.7318  1.0514  0.1126
  322MOL0     H43458   6.594   3.551   7.392 -0.5716  1.2095  2.6423
  322MOL0     H43459   6.489   3.756   7.450  0.3382 -1.5545 -0.4458
  322MOL0     H43460   6.420   4.003   7.433 -0.7847  1.1342  0.6302
  322MOL0     H43461   6.506   3.951   7.573  1.4829  1.4519  1.0263
  322MOL0     H43462   6.452   4.226   7.485 -0.5596  1.1738  1.6014
  322MOL0     H43463   6.586   4.190   7.604 -0.7033  2.2944 -0.3831
  322MOL0     H43464   6.415   4.055   7.737  1.7036  0.5280 -1.2177
  322MOL0     H43465   6.285   4.122   7.630 -0.7130  2.2376 -0.1863
  322MOL0     H43466   6.285   4.261   7.813 -0.9227 -2.7530 -2.3895
  322MOL0     H43467   6.374   4.349   7.682 -1.7385 -0.4770 -0.6864
  322MOL0     H43468   6.664   4.303   7.988  1.2491  2.3903 -2.6397
  322MOL0     H43469   6.847   3.959   7.287 -2.2164 -0.1888 -2.3662
  322MOL0     H43470   6.953   3.755   7.255  0.8643 -1.6878  1.4870
  323MOL0     O43471   3.642   2.892   7.381  0.2668 -0.1654  0.1000
  323MOL0     C43472   3.694   2.798   7.316  0.0444 -0.0175 -0.3981
  323MOL0     O43473   3.789   2.708   7.359 -0.2254 -0.4544 -0.0330
  323MOL0     C43474   3.797   2.663   7.487 -0.2413  1.1057  0.2882
  323MOL0     C43475   3.676   2.635   7.558 -0.1881 -0.9729  0.4438
  323MOL0     C43476   3.678   2.584   7.692  0.3429 -0.0177 -0.1212
  323MOL0     C43477   3.798   2.574   7.754 -0.4925 -0.0133 -0.1948
  323MOL0     O43478   3.799   2.551   7.888  0.1054  0.2331  1.0194
  323MOL0     C43479   3.859   2.653   7.965 -0.5258 -0.4351  0.4684
  323MOL0     C43480   3.851   2.641   8.117  0.3601 -0.6254 -0.2911
  323MOL0     C43481   3.916   2.513   8.168 -0.5832  0.6429  0.1325
  323MOL0     C43482   3.970   2.514   8.315 -0.3742  0.5381  0.8494
  323MOL0     C43483   4.010   2.380   8.376  0.3373 -0.1322 -0.4308
  323MOL0     C43484   4.071   2.411   8.507  0.1805  0.9065 -0.0725
  323MOL0     C43485   4.088   2.285   8.584  0.4228 -0.4243  0.2404
  323MOL0     C43486   4.156   2.312   8.722 -0.2217  0.5864  0.5785
  323MOL0     N43487   4.221   2.193   8.778  0.7098  0.7138  0.1678
  323MOL0     C43488   4.148   2.080   8.788 -0.0806 -0.1491  0.0367
  323MOL0     C43489   4.229   1.981   8.753 -0.3055 -0.8440 -0.6498
  323MOL0     C43490   4.212   1.831   8.745 -0.0169  0.2348  0.0553
  323MOL0     C43491   4.080   1.780   8.793 -0.1911 -0.2577 -0.7420
  323MOL0     C43492   4.097   1.632   8.822 -0.6588  0.2916 -0.0961
  323MOL0     C43493   3.966   1.575   8.882  0.1121 -0.5846  0.8838
  323MOL0     O43494   3.931   1.634   9.013 -1.0290 -0.1300  0.0365
  323MOL0     C43495   3.813   1.603   9.069 -0.2060 -0.3056  0.3952
  323MOL0     C43496   3.721   1.514   9.019  0.6545  0.8559 -0.0897
  323MOL0     C43497   3.596   1.497   9.090 -0.7157 -0.8158 -0.2263
  323MOL0     C43498   3.497   1.410   9.003 -0.7393 -0.0280 -0.5558
  323MOL0     C43499   3.580   1.565   9.217 -0.3766 -0.1786 -0.6194
  323MOL0     C43500   3.463   1.551   9.306  0.9210 -0.0035  0.5503
  323MOL0     O43501   3.469   1.613   9.421  0.7929  0.5348  0.2172
  323MOL0     C43502   3.366   1.610   9.509 -0.7476  0.2122  0.0220
  323MOL0     C43503   3.377   1.706   9.613  0.9361 -0.2922 -0.0074
  323MOL0     C43504   3.276   1.715   9.705  0.8737 -1.1811  0.8440
  323MOL0     C43505   3.172   1.623   9.714  0.6725 -0.0332  0.2824
  323MOL0     O43506   3.078   1.627   9.818 -0.3491  0.0958  0.1717
  323MOL0     C43507   2.981   1.524   9.830  0.1596  0.3089 -0.3535
  323MOL0     C43508   2.877   1.570   9.947 -0.3775  0.7084  0.3053
  323MOL0     C43509   2.794   1.457  10.003  0.6963  0.1697 -0.6638
  323MOL0     C43510   2.691   1.511  10.105 -0.0824 -0.1833 -0.0994
  323MOL0     C43511   2.601   1.404  10.167  0.1083  0.0086 -1.4095
  323MOL0     C43512   2.481   1.469  10.235  0.1255 -0.3727 -0.8684
  323MOL0     C43513   2.416   1.361  10.332  0.9227  0.8867 -0.0783
  323MOL0     C43514   2.300   1.415  10.411  0.1782  0.4365 -1.2513
  323MOL0    Cl43515   2.182   1.505  10.305  0.0440  0.2199 -0.1735
  323MOL0     C43516   3.165   1.525   9.614  0.3051 -0.0279  0.1345
  323MOL0     C43517   3.263   1.517   9.523 -0.1569 -0.3721  0.2213
  323MOL0     O43518   3.384   1.459   9.273 -0.0497 -0.0522 -0.5287
  323MOL0     C43519   3.685   1.654   9.265  0.3622 -0.8115 -0.4834
  323MOL0     C43520   3.803   1.663   9.199 -0.3305  0.9408  0.2008
  323MOL0     N43521   4.356   2.039   8.738 -0.1747  0.6816  0.3842
  323MOL0     N43522   4.351   2.169   8.753 -0.1463  0.6197 -1.0424
  323MOL0     C43523   3.918   2.581   7.677  0.1109 -1.0540 -0.0494
  323MOL0     C43524   3.922   2.620   7.542  0.7561  0.6332 -0.6850
  323MOL0     C43525   3.649   2.795   7.176 -0.2669 -0.6924  0.5005
  323MOL0     C43526   3.511   2.823   7.150 -0.3894  0.7729 -0.2524
  323MOL0     C43527   3.463   2.845   7.023  0.3842  0.5386  0.0715
  323MOL0     C43528   3.555   2.815   6.915  0.8901 -0.2477  1.0180
  323MOL0     O43529   3.522   2.827   6.781 -0.5418 -0.5104 -0.5205
  323MOL0     C43530   3.401   2.888   6.750  0.6517  0.0486 -0.7936
  323MOL0     C43531   3.397   2.930   6.608 -0.2241 -0.9492  0.6068
  323MOL0     C43532   3.259   3.005   6.580  0.9873  0.5201 -0.2898
  323MOL0     C43533   3.202   2.993   6.427 -0.6726  0.0447  0.0996
  323MOL0     C43534   3.320   2.981   6.336 -0.2381  0.1026  0.1773
  323MOL0     C43535   3.430   2.977   6.281 -0.1875 -0.0246 -1.0558
  323MOL0     C43536   3.689   2.795   6.942  0.7937 -0.6285  0.7925
  323MOL0     C43537   3.737   2.783   7.066 -0.7845  0.2281 -0.4029
  323MOL0     H43538   3.584   2.652   7.503 -0.2635 -0.1176  0.8114
  323MOL0     H43539   3.586   2.562   7.745  1.9176 -2.2947  1.8702
  323MOL0     H43540   3.964   2.679   7.948 -0.6300  1.2880  2.1726
  323MOL0     H43541   3.816   2.748   7.935  0.4023 -0.1169  0.1078
  323MOL0     H43542   3.898   2.724   8.169  1.0417 -1.7567  0.9700
  323MOL0     H43543   3.744   2.638   8.142 -0.1714 -1.3140 -2.3810
  323MOL0     H43544   3.856   2.422   8.163  1.2450 -0.6695  0.7885
  323MOL0     H43545   4.002   2.490   8.104 -1.3430 -1.2313 -0.2834
  323MOL0     H43546   4.066   2.567   8.310  0.8328 -1.4380  1.6984
  323MOL0     H43547   3.891   2.565   8.372 -1.3192 -0.9714  0.9416
  323MOL0     H43548   3.914   2.332   8.397 -1.0490  1.2726 -3.0007
  323MOL0     H43549   4.090   2.326   8.324 -0.1121 -1.2561  0.0198
  323MOL0     H43550   4.163   2.467   8.490 -0.0332  2.2903  2.7959
  323MOL0     H43551   4.003   2.474   8.564 -1.7449 -0.6979 -0.4707
  323MOL0     H43552   3.992   2.237   8.603  0.7490 -1.7817 -1.3561
  323MOL0     H43553   4.143   2.211   8.525 -2.1256 -0.5133 -2.2493
  323MOL0     H43554   4.076   2.337   8.793  1.1472  2.4594  1.5312
  323MOL0     H43555   4.219   2.400   8.709 -0.5420  0.7434  0.0599
  323MOL0     H43556   4.041   2.077   8.807  0.1729 -1.4869  1.3602
  323MOL0     H43557   4.229   1.786   8.647 -1.1397 -0.3280  0.1045
  323MOL0     H43558   4.287   1.784   8.809  0.7623 -1.4471 -2.0104
  323MOL0     H43559   3.996   1.801   8.727  0.2279  3.6153 -0.3219
  323MOL0     H43560   4.058   1.826   8.890  0.2126 -1.5340 -0.0246
  323MOL0     H43561   4.176   1.605   8.893 -3.3120 -0.5749  2.7918
  323MOL0     H43562   4.118   1.570   8.735  0.4846  1.0694 -0.3899
  323MOL0     H43563   3.985   1.468   8.896 -0.4606 -0.7886  0.1475
  323MOL0     H43564   3.885   1.587   8.809  1.4437 -0.7066 -0.6849
  323MOL0     H43565   3.723   1.447   8.933 -2.1513  1.8011 -1.0058
  323MOL0     H43566   3.535   1.373   8.907  0.7774  0.2448 -0.0880
  323MOL0     H43567   3.477   1.322   9.066  1.8283  1.1974  2.2647
  323MOL0     H43568   3.409   1.475   8.997 -0.7671 -0.0992 -0.9342
  323MOL0     H43569   3.447   1.788   9.613  2.0001 -1.1072  2.1009
  323MOL0     H43570   3.270   1.797   9.776 -1.1078  2.6190 -3.1470
  323MOL0     H43571   2.925   1.494   9.741  0.6056 -1.2987 -0.1279
  323MOL0     H43572   3.029   1.430   9.860 -0.2367 -0.2063 -1.2844
  323MOL0     H43573   2.942   1.616  10.023 -0.2798  1.0312  0.0318
  323MOL0     H43574   2.809   1.645   9.907  1.1771  1.1118 -1.8116
  323MOL0     H43575   2.854   1.383  10.057 -1.6731  1.5697  4.4727
  323MOL0     H43576   2.739   1.415   9.919 -0.0250  1.8644 -1.0888
  323MOL0     H43577   2.748   1.553  10.189 -0.9787 -1.1899  1.0541
  323MOL0     H43578   2.631   1.586  10.052  3.1617  0.6971 -2.8506
  323MOL0     H43579   2.662   1.336  10.227  0.2029 -2.8963 -4.5376
  323MOL0     H43580   2.563   1.339  10.088  1.1297  0.7354 -2.5243
  323MOL0     H43581   2.519   1.553  10.294  1.8912 -1.6950  0.0014
  323MOL0     H43582   2.410   1.514  10.165  3.1798  4.7906 -1.1668
  323MOL0     H43583   2.483   1.332  10.413  1.0936 -2.7494 -1.3475
  323MOL0     H43584   2.388   1.272  10.276 -0.1387  1.6325 -0.7702
  323MOL0     H43585   2.347   1.485  10.481  0.0445 -1.8551  1.2741
  323MOL0     H43586   2.255   1.325  10.454 -1.4686  0.9997 -1.7434
  323MOL0     H43587   3.092   1.445   9.610 -3.1098  2.6529  2.2350
  323MOL0     H43588   3.244   1.430   9.460 -1.6869 -1.6375  2.2978
  323MOL0     H43589   3.669   1.711   9.356 -0.4683 -0.1095 -1.0499
  323MOL0     H43590   3.892   1.712   9.235  0.0090  0.8431 -0.4800
  323MOL0     H43591   4.009   2.553   7.728  0.2233  1.6876  1.4478
  323MOL0     H43592   4.012   2.625   7.482 -0.0668 -0.7161 -2.1025
  323MOL0     H43593   3.441   2.838   7.231  0.2682  3.7194 -0.0988
  323MOL0     H43594   3.358   2.867   7.006  0.1708  1.4715  2.2449
  323MOL0     H43595   3.320   2.816   6.770  1.7682 -0.8920  0.5116
  323MOL0     H43596   3.387   2.973   6.817 -0.8258  0.5200 -1.6592
  323MOL0     H43597   3.403   2.839   6.548  2.6326 -1.0502  0.9174
  323MOL0     H43598   3.479   2.992   6.571 -1.1334 -2.0503 -3.7893
  323MOL0     H43599   3.292   3.106   6.602 -0.1311  0.3131  2.7463
  323MOL0     H43600   3.177   2.965   6.641  1.5522  0.6332  0.5593
  323MOL0     H43601   3.141   3.080   6.401  0.5210  0.6930 -0.6567
  323MOL0     H43602   3.142   2.902   6.419  1.9380 -1.7439 -0.6103
  323MOL0     H43603   3.524   2.963   6.231 -0.7401  0.4990 -2.2839
  323MOL0     H43604   3.762   2.793   6.862 -1.0175  2.2302 -1.1129
  323MOL0     H43605   3.842   2.767   7.088 -1.0451  2.2856  3.2036
  324MOL0     O43606   8.897   5.240  10.029 -0.5145 -1.2269  0.4297
  324MOL0     C43607   8.801   5.212   9.955  0.3074  0.0389  0.2944
  324MOL0     O43608   8.813   5.153   9.834 -0.0096 -0.2368  0.5353
  324MOL0     C43609   8.932   5.113   9.781  0.7115  0.2216 -0.3619
  324MOL0     C43610   9.020   5.030   9.854  0.6405 -0.5315  0.3359
  324MOL0     C43611   9.143   4.991   9.806  0.1031 -0.6871  0.1228
  324MOL0     C43612   9.176   5.032   9.669  0.2816  0.8870 -0.3221
  324MOL0     O43613   9.298   4.995   9.621  0.0183 -0.2661 -0.2434
  324MOL0     C43614   9.360   5.083   9.521  0.4113 -0.2806 -0.2862
  324MOL0     C43615   9.488   5.022   9.476 -0.4855 -0.2010 -0.5200
  324MOL0     C43616   9.478   4.876   9.430 -0.0072 -0.0266  0.7900
  324MOL0     C43617   9.420   4.863   9.294  0.0130 -0.0998  0.3886
  324MOL0     C43618   9.412   4.720   9.242  0.7679  0.5481  0.6914
  324MOL0     C43619   9.551   4.687   9.188  0.7799  0.0196 -0.4829
  324MOL0     C43620   9.567   4.731   9.045 -0.0382 -0.6225  0.2450
  324MOL0     C43621   9.707   4.698   8.994  0.3736  0.1206 -0.1321
  324MOL0     N43622   9.750   4.753   8.861 -0.3553 -0.2215  0.0963
  324MOL0     C43623   9.750   4.691   8.734  0.4802 -0.6202  0.9216
  324MOL0     C43624   9.755   4.799   8.649 -0.1970  0.4593 -0.5983
  324MOL0     C43625   9.759   4.800   8.502  0.5797 -0.2732 -0.5257
  324MOL0     C43626   9.889   4.855   8.436  0.6584  0.2313 -0.1513
  324MOL0     C43627  10.008   4.750   8.454  0.4037  0.1471  0.6968
  324MOL0     C43628  10.131   4.795   8.373  0.1466  0.1590 -1.2368
  324MOL0     O43629  10.101   4.827   8.236  0.1566 -0.0582 -0.2193
  324MOL0     C43630  10.212   4.826   8.158  0.7189 -0.5279 -0.0216
  324MOL0     C43631  10.325   4.909   8.182  0.3870  0.2654  0.3367
  324MOL0     C43632  10.434   4.913   8.089  0.3860  0.2313 -0.4527
  324MOL0     C43633  10.542   5.010   8.106 -0.2480 -0.2665  0.6168
  324MOL0     C43634  10.431   4.822   7.983  0.5414 -0.3234 -0.7984
  324MOL0     C43635  10.536   4.807   7.873 -0.6643 -1.2813  0.0404
  324MOL0     O43636  10.571   4.679   7.839  0.4423 -0.3835  0.2190
  324MOL0     C43637  10.671   4.641   7.746 -0.2699 -1.0654 -0.8153
  324MOL0     C43638  10.728   4.520   7.780 -0.1058 -1.1914 -1.0570
  324MOL0     C43639  10.817   4.461   7.691 -0.0199  0.4020 -0.4946
  324MOL0     C43640  10.856   4.523   7.573 -0.5105 -0.4335 -0.0251
  324MOL0     O43641  10.939   4.441   7.506 -0.5698  0.2853  0.3235
  324MOL0     C43642  11.052   4.502   7.437  0.1206  0.1327  0.2730
  324MOL0     C43643  11.138   4.377   7.388 -0.0243 -0.8172 -0.1966
  324MOL0     C43644  11.295   4.396   7.391 -0.4376 -0.5039 -0.3244
  324MOL0     C43645  11.358   4.389   7.532 -1.5066  0.7014  0.2004
  324MOL0     C43646  11.333   4.497   7.640  0.0456  0.2707  0.5738
  324MOL0     C43647  11.378   4.638   7.592 -0.9629 -0.5807  0.0247
  324MOL0     C43648  11.398   4.737   7.712 -0.2795 -0.1043  0.2667
  324MOL0     C43649  11.262   4.761   7.780  0.4930  0.4331 -0.0210
  324MOL0    Cl43650  11.297   4.893   7.890  0.3386 -0.1970 -0.6358
  324MOL0     C43651  10.809   4.649   7.540  0.5335 -0.2473  0.2385
  324MOL0     C43652  10.718   4.717   7.630  0.6291 -0.0252  0.5974
  324MOL0     O43653  10.561   4.909   7.807  0.1421  0.2370 -0.5147
  324MOL0     C43654  10.323   4.733   7.970 -0.1019  0.1473  1.3034
  324MOL0     C43655  10.216   4.740   8.047  0.2605 -0.5270 -0.6741
  324MOL0     N43656   9.765   4.915   8.717  0.6882 -0.0984  0.0804
  324MOL0     N43657   9.756   4.892   8.847 -0.0747 -0.0076  0.7586
  324MOL0     C43658   9.085   5.109   9.588  0.3154 -0.0333  0.1489
  324MOL0     C43659   8.963   5.144   9.647  0.3207  0.5728 -0.1310
  324MOL0     C43660   8.664   5.255   9.997 -0.1329  0.4110 -0.1077
  324MOL0     C43661   8.632   5.290  10.132  0.1272  0.7131  0.4414
  324MOL0     C43662   8.506   5.331  10.168 -0.2039  0.8714  0.2286
  324MOL0     C43663   8.394   5.342  10.076 -0.4888 -0.9714 -0.4405
  324MOL0     O43664   8.268   5.368  10.118  0.5556 -0.3344  0.5543
  324MOL0     C43665   8.150   5.346  10.040 -0.7944  0.5400 -0.3392
  324MOL0     C43666   8.087   5.469   9.987 -0.8157  0.4087  0.7678
  324MOL0     C43667   8.037   5.571  10.080  0.0650 -0.5484  0.1326
  324MOL0     C43668   7.984   5.698  10.012  0.8218  0.1890 -0.4151
  324MOL0     C43669   8.086   5.793   9.965 -0.4886 -0.7454 -0.5721
  324MOL0     C43670   8.163   5.875   9.915  0.1663 -0.0054 -0.5924
  324MOL0     C43671   8.430   5.303   9.935 -1.0797 -0.1027  0.0659
  324MOL0     C43672   8.562   5.257   9.904  0.3172  0.1428  0.4997
  324MOL0     H43673   8.985   5.002   9.953 -0.6934 -1.3165 -0.3369
  324MOL0     H43674   9.205   4.933   9.873 -0.9161 -2.0320 -0.0601
  324MOL0     H43675   9.295   5.088   9.434 -1.0354 -0.2880  0.7605
  324MOL0     H43676   9.364   5.185   9.562 -2.9697  0.1170 -0.6320
  324MOL0     H43677   9.518   5.074   9.384  0.5058  1.5050  0.7281
  324MOL0     H43678   9.569   5.036   9.547 -1.3455  0.3436  0.3791
  324MOL0     H43679   9.580   4.836   9.432  0.1542  0.3753  2.7982
  324MOL0     H43680   9.410   4.820   9.495  0.6877  0.8095  2.2811
  324MOL0     H43681   9.315   4.889   9.310 -0.4245 -1.2845 -0.4030
  324MOL0     H43682   9.458   4.942   9.227  0.4811 -2.2059 -1.9917
  324MOL0     H43683   9.394   4.650   9.323 -2.1463 -1.8877 -1.7883
  324MOL0     H43684   9.334   4.714   9.165  3.0383  0.5107 -1.7514
  324MOL0     H43685   9.617   4.745   9.253 -2.1634  0.8356  2.0159
  324MOL0     H43686   9.578   4.582   9.207  3.9386  0.8724  0.3694
  324MOL0     H43687   9.487   4.705   8.975  1.3313  0.4932 -1.8367
  324MOL0     H43688   9.555   4.839   9.056 -0.2535 -0.4550 -1.3457
  324MOL0     H43689   9.715   4.589   9.003 -1.6939 -0.0326  0.2908
  324MOL0     H43690   9.773   4.740   9.070 -1.5968  0.1395  1.6544
  324MOL0     H43691   9.727   4.589   8.703 -1.4572 -0.5201  1.8642
  324MOL0     H43692   9.736   4.704   8.455 -3.4384 -0.5022  1.4945
  324MOL0     H43693   9.673   4.866   8.484 -0.7495 -0.8720  2.8931
  324MOL0     H43694   9.917   4.951   8.481 -1.7652  0.6023  0.7256
  324MOL0     H43695   9.866   4.870   8.330 -2.2730 -2.1968  0.0160
  324MOL0     H43696   9.980   4.650   8.419 -3.0191  1.9932 -2.5229
  324MOL0     H43697  10.038   4.741   8.559  2.3161 -1.8602  0.0685
  324MOL0     H43698  10.189   4.703   8.378 -0.3730 -0.2172 -1.8808
  324MOL0     H43699  10.177   4.880   8.422 -5.7499  2.1409  1.8557
  324MOL0     H43700  10.339   4.989   8.255  0.6202  2.1287 -1.6532
  324MOL0     H43701  10.527   5.090   8.034  1.6604  0.1671  0.6520
  324MOL0     H43702  10.542   5.053   8.207  1.8763 -0.7260  0.8588
  324MOL0     H43703  10.644   4.974   8.090  0.9369  2.4882  1.3778
  324MOL0     H43704  10.698   4.479   7.875  1.7849  0.9416  0.5685
  324MOL0     H43705  10.854   4.365   7.725 -2.2075 -0.2031  0.3153
  324MOL0     H43706  11.026   4.568   7.354  0.1284 -2.3419 -1.8581
  324MOL0     H43707  11.115   4.556   7.508 -1.5689 -2.4267  4.0437
  324MOL0     H43708  11.109   4.291   7.450 -1.5015  0.7192  1.3589
  324MOL0     H43709  11.106   4.348   7.288  0.5897  4.5332 -2.2437
  324MOL0     H43710  11.333   4.486   7.343  1.6275 -0.2796  1.5467
  324MOL0     H43711  11.344   4.321   7.327  2.6102  1.5571 -0.6081
  324MOL0     H43712  11.328   4.295   7.579  0.8979 -1.1069 -1.5691
  324MOL0     H43713  11.465   4.403   7.516 -1.8649  1.1058 -2.2465
  324MOL0     H43714  11.378   4.463   7.733  2.2902  0.1031 -0.4988
  324MOL0     H43715  11.227   4.491   7.663 -1.1042  0.3645 -3.7754
  324MOL0     H43716  11.476   4.624   7.546 -0.8527  0.0374  0.0709
  324MOL0     H43717  11.307   4.662   7.512  0.6315 -1.9814 -1.9135
  324MOL0     H43718  11.426   4.834   7.669 -0.8303  0.8011  1.8840
  324MOL0     H43719  11.478   4.708   7.781 -0.6843  3.0015  2.2058
  324MOL0     H43720  11.227   4.679   7.842  0.1055  0.7268  0.1542
  324MOL0     H43721  11.173   4.780   7.720  1.4098  3.2149 -0.6724
  324MOL0     H43722  10.835   4.687   7.442 -3.0481  1.8799 -0.0503
  324MOL0     H43723  10.671   4.811   7.601 -1.7120 -0.8403  1.5210
  324MOL0     H43724  10.323   4.660   7.891  0.5287  2.1381 -0.6456
  324MOL0     H43725  10.138   4.667   8.031 -0.8008  1.1729 -4.4600
  324MOL0     H43726   9.093   5.153   9.489 -1.6533  0.0843 -0.0076
  324MOL0     H43727   8.887   5.198   9.592 -2.4443 -3.7774 -1.1100
  324MOL0     H43728   8.711   5.302  10.206  1.8477 -1.6185 -0.8896
  324MOL0     H43729   8.487   5.349  10.274  1.6758 -0.1341  0.7893
  324MOL0     H43730   8.155   5.272   9.959 -1.3535 -0.1063  0.1963
  324MOL0     H43731   8.090   5.299  10.119 -0.0424  1.0327  0.5429
  324MOL0     H43732   8.002   5.417   9.942  0.3519 -1.5143  0.6711
  324MOL0     H43733   8.153   5.519   9.915 -2.3394  2.0365  0.4475
  324MOL0     H43734   8.113   5.602  10.153  0.5176 -0.3283 -0.4323
  324MOL0     H43735   7.955   5.516  10.127  0.4477 -1.1881  0.0532
  324MOL0     H43736   7.916   5.748  10.081  0.1346 -3.0752  1.4613
  324MOL0     H43737   7.929   5.656   9.927  0.1686  1.6272 -0.7382
  324MOL0     H43738   8.217   5.954   9.867 -1.3171  1.3875 -0.0787
  324MOL0     H43739   8.366   5.298   9.848  1.4612  2.5771 -2.1691
  324MOL0     H43740   8.595   5.222   9.807  1.2774 -3.5639  1.9901
  325MOL0     O43741   5.175   9.235   6.047  0.1786  0.5925 -0.0872
  325MOL0     C43742   5.255   9.149   6.066 -0.2864  0.2487 -0.3459
  325MOL0     O43743   5.312   9.068   5.972  0.6273  0.3419 -0.2572
  325MOL0     C43744   5.291   9.040   5.834  0.0778 -0.0936 -0.2156
  325MOL0     C43745   5.371   8.958   5.749 -0.3111  0.3706  0.6815
  325MOL0     C43746   5.346   8.933   5.615 -1.1287 -0.6347  0.5892
  325MOL0     C43747   5.234   8.993   5.558 -0.0055  0.5486 -0.5555
  325MOL0     O43748   5.193   8.981   5.424  0.2239 -0.0761  0.4172
  325MOL0     C43749   5.262   8.889   5.337 -0.3772 -0.6368 -0.3729
  325MOL0     C43750   5.195   8.896   5.206 -0.8629  0.3180 -0.0317
  325MOL0     C43751   5.194   8.758   5.135 -0.8639  0.2760  0.2546
  325MOL0     C43752   5.333   8.727   5.067 -0.2896  0.2171 -0.2602
  325MOL0     C43753   5.318   8.614   4.975  0.0307 -0.4440  0.6291
  325MOL0     C43754   5.445   8.545   4.916 -0.1969  0.8241 -0.0033
  325MOL0     C43755   5.510   8.460   5.018  0.0465 -0.6688 -0.4800
  325MOL0     C43756   5.650   8.446   5.004 -0.4560 -0.5094  0.2057
  325MOL0     N43757   5.678   8.386   4.869 -0.6797  0.0213 -0.3225
  325MOL0     C43758   5.723   8.458   4.769  0.4117 -0.0618 -0.1549
  325MOL0     C43759   5.707   8.373   4.662 -0.1382  0.3682 -0.1940
  325MOL0     C43760   5.727   8.397   4.509 -0.3419  0.8612 -0.0960
  325MOL0     C43761   5.797   8.280   4.437  0.6301 -0.4042  0.5139
  325MOL0     C43762   5.793   8.282   4.287 -0.4022  0.8514  0.0218
  325MOL0     C43763   5.927   8.285   4.215 -0.0638 -0.2282 -0.9516
  325MOL0     O43764   6.014   8.378   4.279 -0.0509  0.6911  0.0606
  325MOL0     C43765   6.065   8.489   4.217  0.6790 -0.0335 -0.3315
  325MOL0     C43766   6.119   8.589   4.298  0.3606  0.4231  0.7109
  325MOL0     C43767   6.170   8.712   4.247  0.0241  0.5092  0.0050
  325MOL0     C43768   6.195   8.823   4.346 -0.2973  0.5397  0.4594
  325MOL0     C43769   6.183   8.725   4.106  1.5822 -0.6267  0.8551
  325MOL0     C43770   6.236   8.840   4.037  0.9940  0.1406  0.6057
  325MOL0     O43771   6.214   8.844   3.897  0.2476  0.5293 -0.0328
  325MOL0     C43772   6.268   8.951   3.840  0.4881  0.1480 -0.4416
  325MOL0     C43773   6.187   9.055   3.810  0.3152 -0.4158 -0.7675
  325MOL0     C43774   6.237   9.171   3.743  0.5776  0.4226 -0.5137
  325MOL0     C43775   6.377   9.192   3.732 -0.2753  0.8703  0.3359
  325MOL0     O43776   6.428   9.301   3.676  0.9811  0.4821 -0.1476
  325MOL0     C43777   6.566   9.348   3.701 -1.1158  0.1845 -0.9229
  325MOL0     C43778   6.583   9.484   3.633  0.9794 -1.5839  0.3195
  325MOL0     C43779   6.521   9.610   3.702  0.2787 -0.2630 -0.2486
  325MOL0     C43780   6.584   9.740   3.644  0.3358 -0.9034 -0.6845
  325MOL0     C43781   6.534   9.783   3.504 -0.5520  0.5244 -0.1521
  325MOL0     C43782   6.390   9.769   3.488 -0.5312 -0.2655 -0.8501
  325MOL0     C43783   6.341   9.837   3.364  0.0710  0.4949 -0.2605
  325MOL0     C43784   6.317   9.986   3.386 -0.0117 -1.2118  0.6122
  325MOL0    Cl43785   6.236  10.051   3.252  0.1636  0.1983  0.2918
  325MOL0     C43786   6.460   9.080   3.773 -0.1997 -1.0245 -0.6174
  325MOL0     C43787   6.406   8.963   3.821 -0.2487 -0.2475 -0.1453
  325MOL0     O43788   6.307   8.914   4.100  0.5499 -0.4035 -0.3749
  325MOL0     C43789   6.121   8.624   4.024  0.4993  1.0737  0.5062
  325MOL0     C43790   6.063   8.502   4.079 -0.0109 -0.3299 -1.1874
  325MOL0     N43791   5.665   8.244   4.712  0.4923  0.0557  1.3207
  325MOL0     N43792   5.637   8.261   4.838  0.1978  0.1703  0.0464
  325MOL0     C43793   5.156   9.081   5.636 -0.5009 -0.7701  0.3815
  325MOL0     C43794   5.195   9.114   5.764  0.6931 -0.0001 -0.3590
  325MOL0     C43795   5.324   9.127   6.195  0.2180 -0.1944 -0.1300
  325MOL0     C43796   5.269   9.180   6.316 -0.7669  0.1807 -0.2999
  325MOL0     C43797   5.333   9.166   6.441  0.1483 -0.1577 -0.1529
  325MOL0     C43798   5.456   9.099   6.453  0.1985 -0.0866  0.2084
  325MOL0     O43799   5.515   9.063   6.572  1.1515  0.1254 -0.2450
  325MOL0     C43800   5.654   9.087   6.588 -0.5230  0.5442 -0.8910
  325MOL0     C43801   5.721   8.993   6.693  0.1096  1.1554 -0.0945
  325MOL0     C43802   5.634   8.997   6.829  0.2538 -0.7668  0.2956
  325MOL0     C43803   5.679   8.907   6.942 -0.2409 -0.2255  0.4826
  325MOL0     C43804   5.644   8.773   6.905  0.6232  0.9004 -0.9518
  325MOL0     C43805   5.600   8.662   6.883 -0.9315  0.8636  0.9990
  325MOL0     C43806   5.512   9.052   6.335 -0.4611 -0.2589 -0.5908
  325MOL0     C43807   5.448   9.072   6.216 -0.1784 -0.4298  0.9763
  325MOL0     H43808   5.463   8.909   5.779 -0.6133 -0.4890  0.2268
  325MOL0     H43809   5.424   8.872   5.572  0.7489  0.5499  2.1478
  325MOL0     H43810   5.369   8.911   5.331  0.2669 -1.8762  3.6043
  325MOL0     H43811   5.257   8.786   5.375 -0.6464 -1.2587 -1.9850
  325MOL0     H43812   5.092   8.929   5.226 -0.9044 -0.1863  0.6388
  325MOL0     H43813   5.246   8.966   5.140  4.6753 -2.6828  0.4442
  325MOL0     H43814   5.173   8.677   5.205 -3.4323  2.2861  1.9775
  325MOL0     H43815   5.114   8.745   5.062 -0.5815 -2.9109  0.3534
  325MOL0     H43816   5.359   8.814   5.006  2.7472 -0.1577  0.3134
  325MOL0     H43817   5.397   8.711   5.154  2.5087 -0.8338 -2.3366
  325MOL0     H43818   5.245   8.540   5.010 -2.1177  1.4019  0.3195
  325MOL0     H43819   5.264   8.660   4.892 -2.2244  0.8861  2.6851
  325MOL0     H43820   5.407   8.496   4.825 -2.7286  3.4348 -0.5046
  325MOL0     H43821   5.519   8.613   4.873  0.8821  0.0013  0.5218
  325MOL0     H43822   5.490   8.499   5.118 -1.2606 -2.9815  0.2483
  325MOL0     H43823   5.447   8.370   5.021 -0.8506 -0.0287  1.6185
  325MOL0     H43824   5.691   8.378   5.079 -0.0353  0.7397  1.1334
  325MOL0     H43825   5.699   8.544   5.006 -1.8406  0.2063  0.1748
  325MOL0     H43826   5.756   8.561   4.758  3.7625 -1.1911 -2.4109
  325MOL0     H43827   5.630   8.421   4.463 -1.4956  0.9582  2.2291
  325MOL0     H43828   5.784   8.488   4.485  1.5498 -0.8375 -2.4646
  325MOL0     H43829   5.741   8.190   4.463 -1.1072  0.6365  0.5504
  325MOL0     H43830   5.902   8.276   4.468  0.7109  0.9108  0.4801
  325MOL0     H43831   5.730   8.362   4.247 -3.1364 -1.2857 -0.2260
  325MOL0     H43832   5.742   8.188   4.266  1.3363 -0.6753  2.1039
  325MOL0     H43833   5.899   8.297   4.110  0.5790 -0.2461 -1.1245
  325MOL0     H43834   5.977   8.191   4.239 -1.9266 -0.9103  0.5568
  325MOL0     H43835   6.113   8.582   4.406  2.8551  1.5600  1.0001
  325MOL0     H43836   6.153   8.813   4.446 -4.0550  0.4593 -0.9764
  325MOL0     H43837   6.303   8.833   4.362 -0.3082  0.0497  0.8648
  325MOL0     H43838   6.138   8.911   4.316 -0.9884 -0.1249 -0.2269
  325MOL0     H43839   6.081   9.047   3.832  0.6348 -1.2858  0.5715
  325MOL0     H43840   6.173   9.240   3.689  0.0182  0.0870 -0.2857
  325MOL0     H43841   6.581   9.346   3.809 -0.2669 -5.6536 -0.8063
  325MOL0     H43842   6.636   9.275   3.659 -1.3475  1.0480 -2.9388
  325MOL0     H43843   6.689   9.511   3.626  0.3668  1.6960  1.5136
  325MOL0     H43844   6.535   9.484   3.535  3.5346  0.8813 -1.0737
  325MOL0     H43845   6.549   9.599   3.807  1.2017 -0.9999 -0.5529
  325MOL0     H43846   6.414   9.613   3.682  0.1947 -0.2004  0.2042
  325MOL0     H43847   6.571   9.823   3.714  3.6791 -0.3737 -0.4842
  325MOL0     H43848   6.692   9.745   3.625 -0.1462  0.8877 -3.6415
  325MOL0     H43849   6.601   9.720   3.444  1.0636  1.5251  0.5237
  325MOL0     H43850   6.555   9.889   3.487  0.9056  0.3903  0.6028
  325MOL0     H43851   6.377   9.661   3.478  2.6914 -1.0220  1.6704
  325MOL0     H43852   6.340   9.806   3.578  2.7858  0.6610  0.7530
  325MOL0     H43853   6.250   9.781   3.341  1.5694 -0.7060 -4.1274
  325MOL0     H43854   6.410   9.812   3.282  2.9669  0.9937  1.8952
  325MOL0     H43855   6.412  10.038   3.398  0.2188 -1.1260 -1.3075
  325MOL0     H43856   6.257   9.998   3.477 -0.7033  1.1784 -0.0907
  325MOL0     H43857   6.568   9.084   3.769 -0.2199  2.8979 -0.9884
  325MOL0     H43858   6.487   8.899   3.854  0.0594 -0.2253 -0.8455
  325MOL0     H43859   6.121   8.622   3.916 -1.5388 -0.2598  0.4713
  325MOL0     H43860   6.054   8.419   4.010 -0.5339 -1.5692  0.3134
  325MOL0     H43861   5.077   9.133   5.583 -0.3238 -0.3214  0.5553
  325MOL0     H43862   5.123   9.188   5.799 -1.0122 -1.3985 -0.7878
  325MOL0     H43863   5.181   9.243   6.315  0.2796  1.6896  0.1282
  325MOL0     H43864   5.286   9.184   6.536 -0.2469  3.0568 -0.8514
  325MOL0     H43865   5.713   9.091   6.496  1.3528 -1.8201  0.1080
  325MOL0     H43866   5.667   9.187   6.629 -1.1184  1.3236 -2.5149
  325MOL0     H43867   5.826   9.021   6.709  0.2484 -0.4376  2.3210
  325MOL0     H43868   5.726   8.890   6.659  2.6175  1.1925 -0.0187
  325MOL0     H43869   5.530   8.971   6.809 -0.2146  1.2745 -0.0967
  325MOL0     H43870   5.647   9.100   6.863 -1.6823 -0.6910  0.9285
  325MOL0     H43871   5.637   8.938   7.038 -0.0351  4.3564 -0.6824
  325MOL0     H43872   5.786   8.922   6.957 -0.1378  0.5527 -0.9085
  325MOL0     H43873   5.581   8.560   6.860  0.9375  0.5881  0.5048
  325MOL0     H43874   5.602   8.992   6.325  0.0303  0.8934 -4.9869
  325MOL0     H43875   5.499   9.037   6.127 -1.2645 -2.8406  1.2359
  326MOL0     O43876   9.451  11.094   8.192  0.2349  0.0083 -0.0218
  326MOL0     C43877   9.496  10.983   8.222  0.4034 -0.0711 -1.2200
  326MOL0     O43878   9.541  10.952   8.345 -0.0563  1.0824 -0.5436
  326MOL0     C43879   9.560  11.052   8.436  0.2673 -0.0325 -0.1797
  326MOL0     C43880   9.603  11.185   8.405  1.1261 -0.0252 -0.7062
  326MOL0     C43881   9.599  11.287   8.491 -0.9817 -0.8831 -0.2893
  326MOL0     C43882   9.585  11.267   8.628  0.1133 -0.0928  0.5890
  326MOL0     O43883   9.582  11.374   8.717 -0.5959 -0.5790 -0.4114
  326MOL0     C43884   9.698  11.387   8.804  0.1032  0.5104  0.5941
  326MOL0     C43885   9.679  11.505   8.899 -0.4605 -0.3217 -0.2276
  326MOL0     C43886   9.795  11.535   8.991 -0.1977 -0.8740  0.4988
  326MOL0     C43887   9.748  11.655   9.081  1.0525  0.0043  0.5706
  326MOL0     C43888   9.839  11.693   9.204 -0.5815 -0.1870 -0.5335
  326MOL0     C43889   9.773  11.770   9.320 -0.6345  0.5039 -0.3882
  326MOL0     C43890   9.658  11.697   9.393  0.2276 -0.0344 -0.4405
  326MOL0     C43891   9.614  11.763   9.524 -0.6242  0.0213  0.1760
  326MOL0     N43892   9.710  11.735   9.629  1.2171 -0.2006  1.0226
  326MOL0     C43893   9.731  11.607   9.690  0.2482 -0.2751  0.0396
  326MOL0     C43894   9.820  11.634   9.784 -0.1078  1.0319  0.0841
  326MOL0     C43895   9.874  11.535   9.886  0.0789  1.3025  0.5957
  326MOL0     C43896   9.793  11.537  10.016  0.8627  0.1216  0.6917
  326MOL0     C43897   9.846  11.419  10.097 -0.0474  0.7490  0.2562
  326MOL0     C43898   9.801  11.426  10.249  1.0041 -0.7967 -0.0184
  326MOL0     O43899   9.661  11.431  10.278 -0.3852 -0.7449  0.3667
  326MOL0     C43900   9.619  11.407  10.410  0.1721 -0.0740 -1.1648
  326MOL0     C43901   9.706  11.370  10.519 -0.0408  0.8017 -0.1509
  326MOL0     C43902   9.654  11.335  10.646  0.0280 -0.1168  0.5389
  326MOL0     C43903   9.733  11.261  10.747  0.2766  0.4888 -0.0378
  326MOL0     C43904   9.518  11.369  10.676  0.6725 -0.3489 -0.8110
  326MOL0     C43905   9.451  11.333  10.803 -0.3555 -0.2061 -1.6544
  326MOL0     O43906   9.330  11.273  10.827  0.1555 -0.0039 -0.2740
  326MOL0     C43907   9.291  11.214  10.949 -0.1066  0.1385 -0.2504
  326MOL0     C43908   9.155  11.199  10.972 -0.2422  0.6646  0.2041
  326MOL0     C43909   9.099  11.133  11.083  0.1180  0.0955  0.2596
  326MOL0     C43910   9.191  11.081  11.172 -0.8386 -0.4365 -0.4979
  326MOL0     O43911   9.162  11.030  11.299  0.5295 -1.1355 -0.0747
  326MOL0     C43912   9.025  10.985  11.312 -0.0946 -0.6435  0.2560
  326MOL0     C43913   8.996  10.893  11.433  0.5819  0.7175 -0.0321
  326MOL0     C43914   9.012  10.966  11.574  0.3641 -0.7636  0.3967
  326MOL0     C43915   8.949  10.885  11.682 -0.0507 -0.3651 -0.6146
  326MOL0     C43916   8.976  10.939  11.822  0.1639 -0.2898 -0.9795
  326MOL0     C43917   8.933  11.085  11.854 -0.1361  0.2825  0.5074
  326MOL0     C43918   8.960  11.135  12.000  0.3380  0.7281  0.8272
  326MOL0     C43919   8.902  11.050  12.117  0.3110 -0.1176  0.6641
  326MOL0    Cl43920   8.726  11.028  12.100 -0.2982  0.0300  0.2685
  326MOL0     C43921   9.330  11.082  11.145 -0.1591  0.2151  0.1049
  326MOL0     C43922   9.370  11.153  11.038 -1.4215  0.2162  0.7268
  326MOL0     O43923   9.510  11.388  10.901  0.3587  0.3801  0.0866
  326MOL0     C43924   9.437  11.405  10.571  0.2317  0.4368  0.6766
  326MOL0     C43925   9.486  11.425  10.441  0.1946  0.4462 -1.2576
  326MOL0     N43926   9.852  11.769   9.789  0.0488  0.2426 -0.3575
  326MOL0     N43927   9.780  11.831   9.696 -0.4863  0.5924  0.3636
  326MOL0     C43928   9.550  11.140   8.677 -0.3644  0.3819  0.7449
  326MOL0     C43929   9.541  11.035   8.574 -0.4439  0.5315 -0.0371
  326MOL0     C43930   9.500  10.878   8.121 -0.5924  0.0815  0.6033
  326MOL0     C43931   9.557  10.751   8.142 -0.7770 -0.6896  0.1138
  326MOL0     C43932   9.564  10.658   8.041 -0.6209  0.9151 -0.1590
  326MOL0     C43933   9.529  10.689   7.908  0.4006  0.3045 -0.3423
  326MOL0     O43934   9.536  10.574   7.830 -0.2871 -0.5377  0.0613
  326MOL0     C43935   9.601  10.599   7.701  1.0370  0.9737 -0.4655
  326MOL0     C43936   9.603  10.469   7.616  0.0331 -0.5143  0.7503
  326MOL0     C43937   9.682  10.347   7.665  0.1292 -1.1193  0.6300
  326MOL0     C43938   9.828  10.359   7.616 -0.5302 -0.1812 -0.8315
  326MOL0     C43939   9.907  10.254   7.678  1.6407 -0.3440  0.4130
  326MOL0     C43940   9.970  10.168   7.728 -0.2974  0.5919 -0.7492
  326MOL0     C43941   9.465  10.812   7.876  0.1021  0.0143  0.7333
  326MOL0     C43942   9.450  10.897   7.989 -0.5866 -0.8247 -0.5071
  326MOL0     H43943   9.626  11.215   8.304  3.8056 -0.6876 -0.3724
  326MOL0     H43944   9.630  11.386   8.460 -0.7173 -1.3953 -1.7761
  326MOL0     H43945   9.709  11.290   8.853 -2.2776 -2.1964 -3.5606
  326MOL0     H43946   9.777  11.410   8.732  2.1463  0.0219  2.5841
  326MOL0     H43947   9.678  11.595   8.837  5.6493 -0.0487 -0.5672
  326MOL0     H43948   9.583  11.505   8.951  0.6884  0.0881  2.0626
  326MOL0     H43949   9.796  11.452   9.061 -7.3918 -1.1420  1.0934
  326MOL0     H43950   9.884  11.563   8.934 -0.7566  2.2104  0.9187
  326MOL0     H43951   9.727  11.738   9.013 -0.1040 -1.8226 -1.4296
  326MOL0     H43952   9.654  11.620   9.126  0.3546  1.8986  0.6610
  326MOL0     H43953   9.885  11.603   9.246  2.5053  0.3265 -2.4384
  326MOL0     H43954   9.918  11.762   9.172 -0.4940 -0.1572 -0.2567
  326MOL0     H43955   9.850  11.775   9.397 -1.1944 -0.7237  0.2827
  326MOL0     H43956   9.746  11.870   9.284 -1.2472  0.6448  0.4280
  326MOL0     H43957   9.569  11.695   9.330 -0.0264 -1.1911 -0.0709
  326MOL0     H43958   9.682  11.592   9.409 -0.3566 -0.0800  0.2169
  326MOL0     H43959   9.514  11.725   9.545 -0.2753 -1.3106 -0.3930
  326MOL0     H43960   9.606  11.872   9.526  2.8857  0.3998  1.1928
  326MOL0     H43961   9.670  11.524   9.657 -1.4103  0.6099  0.7771
  326MOL0     H43962   9.887  11.433   9.849 -1.3102  1.5131 -0.5670
  326MOL0     H43963   9.979  11.562   9.900  1.3588 -2.6971  0.0702
  326MOL0     H43964   9.685  11.538  10.000  0.5219  1.2501  2.7053
  326MOL0     H43965   9.808  11.628  10.075  0.1315  2.7422 -2.8148
  326MOL0     H43966   9.955  11.422  10.094 -0.0350  1.4880  1.1001
  326MOL0     H43967   9.809  11.330  10.045  2.5366  0.9973 -2.2043
  326MOL0     H43968   9.847  11.504  10.309 -0.2103 -0.5018  0.5598
  326MOL0     H43969   9.854  11.335  10.281 -0.1020 -1.8315 -1.0103
  326MOL0     H43970   9.811  11.366  10.494  0.2909 -2.4205  1.2537
  326MOL0     H43971   9.734  11.318  10.840 -4.2520 -0.1762  0.6197
  326MOL0     H43972   9.694  11.164  10.778  0.0280  0.8674  0.8612
  326MOL0     H43973   9.834  11.239  10.711  0.3789 -5.2285  2.6658
  326MOL0     H43974   9.088  11.248  10.902 -0.4778  0.2910  0.1694
  326MOL0     H43975   8.992  11.142  11.101 -0.0249 -0.0316 -0.4820
  326MOL0     H43976   8.951  11.066  11.304 -0.3675 -1.0630 -2.1728
  326MOL0     H43977   8.998  10.920  11.228 -0.7283 -2.3611  1.7232
  326MOL0     H43978   8.894  10.853  11.425  0.5306  0.7675  0.3516
  326MOL0     H43979   9.061  10.806  11.421  0.2742  0.4209  0.4197
  326MOL0     H43980   8.960  11.062  11.572  1.0986 -0.3685 -1.0392
  326MOL0     H43981   9.121  10.975  11.581  0.4477 -0.0694 -1.3233
  326MOL0     H43982   8.840  10.892  11.675 -0.3624 -1.6738  1.9806
  326MOL0     H43983   8.975  10.779  11.676 -0.9164 -0.7779  1.8066
  326MOL0     H43984   9.084  10.937  11.838 -0.0953 -2.8050  1.3130
  326MOL0     H43985   8.927  10.870  11.892  1.2821  1.5845  1.8434
  326MOL0     H43986   8.994  11.143  11.784 -1.5673 -2.9131 -3.8059
  326MOL0     H43987   8.829  11.101  11.825  0.6856  0.8050 -2.5457
  326MOL0     H43988   8.937  11.241  12.014 -0.2896  1.1266 -2.4484
  326MOL0     H43989   9.069  11.128  12.013  0.5480  4.6308  2.3456
  326MOL0     H43990   8.926  11.109  12.206  3.3340  0.7389 -0.5793
  326MOL0     H43991   8.954  10.954  12.123 -2.9883 -2.0134  1.3604
  326MOL0     H43992   9.406  11.045  11.212 -0.1071 -0.3886 -0.2842
  326MOL0     H43993   9.476  11.155  11.016 -2.2471 -2.3863 -5.1962
  326MOL0     H43994   9.331  11.419  10.587 -0.2669 -1.1977 -0.8758
  326MOL0     H43995   9.413  11.462  10.369 -3.1343 -1.0208  1.0847
  326MOL0     H43996   9.550  11.114   8.782  0.2169 -3.4716 -0.0733
  326MOL0     H43997   9.516  10.935   8.609  0.9878 -0.4901 -1.7549
  326MOL0     H43998   9.593  10.724   8.241 -2.1142  1.4149  1.2483
  326MOL0     H43999   9.610  10.562   8.061 -1.7137  0.0549 -1.5539
  326MOL0     H44000   9.546  10.670   7.639 -2.9595  0.1120  1.7341
  326MOL0     H44001   9.699  10.641   7.723 -0.1120  2.4451  2.3768
  326MOL0     H44002   9.640  10.491   7.516 -1.7955  4.9117  0.9569
  326MOL0     H44003   9.498  10.439   7.616  0.3965 -1.8618 -0.0505
  326MOL0     H44004   9.643  10.251   7.631  0.1088  0.0374 -2.9961
  326MOL0     H44005   9.685  10.347   7.774  1.2250 -2.0628  0.6214
  326MOL0     H44006   9.872  10.455   7.645  1.1264 -1.6131  1.9046
  326MOL0     H44007   9.842  10.355   7.508  3.5046  0.7675 -0.5125
  326MOL0     H44008  10.038  10.095   7.767  0.5718  1.2518 -1.0288
  326MOL0     H44009   9.428  10.832   7.776  1.7751 -3.5046 -0.7657
  326MOL0     H44010   9.399  10.992   7.970 -1.2067 -1.2422 -0.9524
  327MOL0     O44011   1.033   9.429   1.447 -0.3816  0.1406 -0.2588
  327MOL0     C44012   1.030   9.337   1.360  0.4610 -0.9153  1.1664
  327MOL0     O44013   1.106   9.223   1.351  0.3387  0.2376 -0.2197
  327MOL0     C44014   1.198   9.230   1.455 -0.3798  0.3060  0.9570
  327MOL0     C44015   1.186   9.152   1.571 -0.4462  0.1036 -0.2958
  327MOL0     C44016   1.286   9.138   1.662  0.4923 -0.9131 -0.0383
  327MOL0     C44017   1.402   9.217   1.640 -0.4029  0.7324  0.3211
  327MOL0     O44018   1.479   9.207   1.752 -0.1168  0.1760 -0.0730
  327MOL0     C44019   1.617   9.233   1.727  0.0176  0.1713  0.4017
  327MOL0     C44020   1.693   9.164   1.838 -0.0226 -0.2320  0.3847
  327MOL0     C44021   1.830   9.233   1.883  0.1770  0.2241  0.7371
  327MOL0     C44022   1.810   9.374   1.929  1.1620  0.5235  0.6098
  327MOL0     C44023   1.920   9.426   2.016  0.3652  1.1132 -0.8522
  327MOL0     C44024   1.938   9.355   2.153  0.4150  0.2737 -0.7622
  327MOL0     C44025   1.840   9.410   2.262 -1.0015 -0.6774 -0.0788
  327MOL0     C44026   1.842   9.307   2.378  0.3387 -0.0427  0.6837
  327MOL0     N44027   1.977   9.294   2.428  0.4211  0.1602 -0.2637
  327MOL0     C44028   2.021   9.163   2.443  0.2156 -0.2588 -0.1504
  327MOL0     C44029   2.108   9.170   2.542  0.6009  0.6468  0.0380
  327MOL0     C44030   2.181   9.057   2.603  0.3716 -0.7794  0.1892
  327MOL0     C44031   2.117   8.984   2.728 -0.2916 -0.9658 -0.0645
  327MOL0     C44032   2.091   9.068   2.848  0.4073  0.0087  0.2532
  327MOL0     C44033   2.059   8.974   2.973  1.3895 -0.1671 -0.8949
  327MOL0     O44034   2.002   9.042   3.090 -0.2917  0.1562  0.0964
  327MOL0     C44035   1.967   8.959   3.194  0.6580 -0.5588 -0.2342
  327MOL0     C44036   1.945   8.825   3.185  0.4806  0.1266  0.3973
  327MOL0     C44037   1.901   8.739   3.279 -0.2921  0.3104  0.4446
  327MOL0     C44038   1.900   8.593   3.251  0.1916  0.3566  0.1247
  327MOL0     C44039   1.864   8.793   3.406  0.1164 -0.5498  0.7648
  327MOL0     C44040   1.794   8.722   3.517  1.0210 -0.0248  0.0496
  327MOL0     O44041   1.782   8.790   3.635  0.4298 -0.2979  0.1605
  327MOL0     C44042   1.714   8.730   3.736 -0.0211  0.4738  0.0519
  327MOL0     C44043   1.767   8.737   3.863 -1.0969 -0.8031  0.3949
  327MOL0     C44044   1.699   8.713   3.982 -1.0907 -0.5660 -0.0447
  327MOL0     C44045   1.564   8.669   3.973 -0.0143 -0.1630 -0.2185
  327MOL0     O44046   1.508   8.614   4.090  0.8139 -0.2313 -0.0932
  327MOL0     C44047   1.371   8.571   4.089  0.9598  0.2246  0.2992
  327MOL0     C44048   1.346   8.503   4.221 -0.2534 -0.3828 -0.3819
  327MOL0     C44049   1.360   8.610   4.337 -0.5922  1.0035 -0.1145
  327MOL0     C44050   1.311   8.546   4.473  0.0352 -0.0462 -0.1567
  327MOL0     C44051   1.329   8.643   4.586  0.1683 -0.0830 -0.3268
  327MOL0     C44052   1.265   8.607   4.719  0.7203 -0.2872  0.1204
  327MOL0     C44053   1.313   8.468   4.771  1.1201 -0.3522  0.2784
  327MOL0     C44054   1.456   8.423   4.779 -0.3019  0.4296  0.2658
  327MOL0    Cl44055   1.549   8.558   4.870 -0.6273  0.0287 -0.1388
  327MOL0     C44056   1.505   8.675   3.845  0.2515 -0.6217  0.6908
  327MOL0     C44057   1.577   8.707   3.728  0.9695  0.6806  0.8640
  327MOL0     O44058   1.763   8.605   3.507 -0.6655 -0.7879 -0.7291
  327MOL0     C44059   1.898   8.930   3.428 -0.6989  0.2322 -0.2470
  327MOL0     C44060   1.945   9.016   3.315 -0.1952 -0.1266  0.7400
  327MOL0     N44061   2.121   9.298   2.580 -0.3379 -0.3785 -0.3255
  327MOL0     N44062   2.043   9.372   2.513 -0.6221 -0.2650  0.1726
  327MOL0     C44063   1.420   9.286   1.521  0.2972 -0.4286  0.4025
  327MOL0     C44064   1.319   9.280   1.427  0.3240 -0.6432  0.4961
  327MOL0     C44065   0.924   9.345   1.260  0.3549 -0.7198 -0.6972
  327MOL0     C44066   0.796   9.406   1.265 -0.1878 -0.6505  0.0913
  327MOL0     C44067   0.686   9.383   1.179 -0.1347 -0.4066  0.3317
  327MOL0     C44068   0.717   9.297   1.069  0.8384 -0.3460 -0.8622
  327MOL0     O44069   0.617   9.269   0.970  0.3128 -0.2129 -0.5808
  327MOL0     C44070   0.528   9.162   1.007 -0.2744 -0.2368  0.0978
  327MOL0     C44071   0.402   9.156   0.923 -0.0455 -0.4163 -0.5284
  327MOL0     C44072   0.300   9.066   0.998 -0.1638  0.7922 -0.1409
  327MOL0     C44073   0.332   8.919   1.000 -0.1245 -0.2084  0.6596
  327MOL0     C44074   0.334   8.855   0.866 -1.0051  0.8628 -0.7307
  327MOL0     C44075   0.356   8.780   0.770  0.0667 -0.6728  0.1197
  327MOL0     C44076   0.847   9.259   1.043  0.0106 -0.1303 -0.6827
  327MOL0     C44077   0.948   9.271   1.142 -0.1153  0.8130 -0.4082
  327MOL0     H44078   1.085   9.112   1.580 -0.5014  0.3407  0.1942
  327MOL0     H44079   1.268   9.086   1.756 -2.5417 -2.1076 -1.1589
  327MOL0     H44080   1.643   9.197   1.628 -2.1037  0.6130 -0.3590
  327MOL0     H44081   1.644   9.340   1.726 -0.1941  0.2555  1.4913
  327MOL0     H44082   1.631   9.171   1.928  0.6896  2.0437  0.7704
  327MOL0     H44083   1.693   9.057   1.816 -1.3807 -0.0103 -0.8623
  327MOL0     H44084   1.876   9.168   1.958  1.4005  0.0220 -0.1551
  327MOL0     H44085   1.909   9.238   1.808 -0.8498  0.6280 -0.3587
  327MOL0     H44086   1.809   9.430   1.835  1.4125  0.7892  0.7603
  327MOL0     H44087   1.715   9.376   1.982  1.8418  1.7998  1.8666
  327MOL0     H44088   2.016   9.419   1.964  2.2336 -2.2131  2.6141
  327MOL0     H44089   1.902   9.532   2.033 -3.1177  0.6470 -0.7904
  327MOL0     H44090   1.909   9.250   2.142 -0.8317  0.6531 -1.2584
  327MOL0     H44091   2.038   9.363   2.198 -0.9325  2.0966  2.2427
  327MOL0     H44092   1.879   9.508   2.290  1.4056 -1.3415 -0.8761
  327MOL0     H44093   1.738   9.431   2.228 -1.7853 -0.3799  2.2878
  327MOL0     H44094   1.808   9.219   2.324  0.3953  0.4925 -0.2520
  327MOL0     H44095   1.778   9.332   2.463 -2.0929  0.4673 -1.1631
  327MOL0     H44096   1.983   9.080   2.384 -0.0688  0.0094 -0.3415
  327MOL0     H44097   2.186   8.975   2.531  2.6020 -2.9850  2.6679
  327MOL0     H44098   2.283   9.089   2.630  0.5717  1.2760 -2.5262
  327MOL0     H44099   2.185   8.907   2.766 -1.6477 -1.6723  1.0212
  327MOL0     H44100   2.032   8.932   2.682  1.1148 -2.0539 -1.6002
  327MOL0     H44101   2.004   9.132   2.832 -1.1724 -2.0652  0.1584
  327MOL0     H44102   2.176   9.134   2.872 -0.4504  0.0499  3.7688
  327MOL0     H44103   2.155   8.928   3.000 -0.7344 -3.0839  2.7393
  327MOL0     H44104   2.000   8.891   2.935  1.1522 -0.2864 -0.2887
  327MOL0     H44105   1.973   8.781   3.089 -0.5283  2.0777 -0.8581
  327MOL0     H44106   1.795   8.565   3.235 -0.9582  4.1672 -0.1445
  327MOL0     H44107   1.966   8.554   3.173  2.8376 -0.1471  2.4592
  327MOL0     H44108   1.941   8.550   3.343 -0.3469  0.9583  0.6555
  327MOL0     H44109   1.864   8.784   3.870 -0.7733 -1.3369 -0.3394
  327MOL0     H44110   1.741   8.730   4.080 -2.8699  2.1338  0.3675
  327MOL0     H44111   1.307   8.660   4.086  1.0164  0.3894  2.4534
  327MOL0     H44112   1.351   8.507   4.002 -2.1201  0.0501  1.0132
  327MOL0     H44113   1.243   8.467   4.210 -0.7323  0.6233  0.6640
  327MOL0     H44114   1.419   8.424   4.245 -1.9388 -2.1627 -0.8739
  327MOL0     H44115   1.301   8.694   4.299  1.1157  1.5092 -1.8430
  327MOL0     H44116   1.467   8.628   4.352 -0.9919  1.7556  2.1856
  327MOL0     H44117   1.205   8.527   4.452 -1.0765 -1.2641  5.1148
  327MOL0     H44118   1.372   8.458   4.493  0.1989 -0.5904 -2.7330
  327MOL0     H44119   1.276   8.733   4.553 -1.3111 -1.4312 -1.8611
  327MOL0     H44120   1.432   8.674   4.603 -0.3909  3.5659 -2.5661
  327MOL0     H44121   1.298   8.684   4.790 -0.5046 -0.4639  0.9182
  327MOL0     H44122   1.156   8.609   4.714  0.7801  0.1580 -1.6986
  327MOL0     H44123   1.247   8.389   4.732  2.4030 -2.5501  2.2470
  327MOL0     H44124   1.279   8.475   4.875 -0.3694  0.0519 -0.2065
  327MOL0     H44125   1.496   8.396   4.681  0.2308  0.3565  0.4987
  327MOL0     H44126   1.458   8.327   4.832 -1.1436 -0.2676 -0.9111
  327MOL0     H44127   1.406   8.632   3.837 -0.3774  0.8779  0.0066
  327MOL0     H44128   1.537   8.707   3.626  0.5343  0.9533  1.0297
  327MOL0     H44129   1.888   8.980   3.523  2.1867  1.9466 -0.7340
  327MOL0     H44130   1.967   9.122   3.322  0.3748 -0.2070  0.2078
  327MOL0     H44131   1.508   9.344   1.496 -1.6354  2.0929 -1.0792
  327MOL0     H44132   1.346   9.318   1.329 -1.2777 -2.8908 -0.9046
  327MOL0     H44133   0.796   9.487   1.337  2.1800 -0.2631 -0.2592
  327MOL0     H44134   0.592   9.436   1.193 -0.6828 -0.9409 -1.1676
  327MOL0     H44135   0.591   9.073   0.995  1.3030  0.6700  1.2119
  327MOL0     H44136   0.502   9.179   1.112  2.6150 -0.3811  0.9171
  327MOL0     H44137   0.425   9.099   0.833  0.6000  0.4240 -0.9074
  327MOL0     H44138   0.368   9.258   0.903  0.8123  0.0333  0.2113
  327MOL0     H44139   0.199   9.076   0.957  0.1316 -1.6706 -1.6603
  327MOL0     H44140   0.286   9.106   1.099 -0.6282  4.0874 -1.3879
  327MOL0     H44141   0.258   8.870   1.063  0.7136  1.1955  2.8221
  327MOL0     H44142   0.426   8.901   1.054 -0.7633  0.2552  1.9304
  327MOL0     H44143   0.397   8.722   0.690 -0.0108  3.2746 -3.0750
  327MOL0     H44144   0.885   9.201   0.960 -1.9059 -0.4504 -1.4025
  327MOL0     H44145   1.035   9.218   1.106 -1.9013 -2.2333 -0.5377
  328MOL0     O44146   5.600   4.742   5.089 -0.3627 -1.0433 -0.4556
  328MOL0     C44147   5.659   4.823   5.029 -0.1048 -0.0611  0.4011
  328MOL0     O44148   5.643   4.954   5.063 -0.3415 -0.3539 -0.0281
  328MOL0     C44149   5.536   4.998   5.136 -0.4387 -0.1683  0.5623
  328MOL0     C44150   5.545   5.129   5.191  0.2592  0.2177 -0.1412
  328MOL0     C44151   5.445   5.194   5.277 -1.2651 -0.1121 -0.0194
  328MOL0     C44152   5.338   5.125   5.314  0.4819  0.7745 -0.7338
  328MOL0     O44153   5.246   5.184   5.388 -0.0419 -0.7836 -0.4032
  328MOL0     C44154   5.123   5.116   5.424  0.4424 -0.7912 -0.8846
  328MOL0     C44155   5.071   5.174   5.556 -0.8242 -0.0253  0.4714
  328MOL0     C44156   5.144   5.104   5.670  0.2135  0.0992  0.4469
  328MOL0     C44157   5.084   5.146   5.808  0.5389  0.2585 -1.5297
  328MOL0     C44158   5.185   5.134   5.919 -0.2432  0.4468  0.2572
  328MOL0     C44159   5.129   5.200   6.038  0.0738 -0.2676  0.3348
  328MOL0     C44160   5.235   5.173   6.148 -0.2088  0.3266 -0.1894
  328MOL0     C44161   5.245   5.019   6.178  0.1854 -0.0202 -0.1303
  328MOL0     N44162   5.347   4.996   6.275  0.7030  1.2028  0.1009
  328MOL0     C44163   5.331   4.928   6.390  0.7940  0.9904  0.6441
  328MOL0     C44164   5.453   4.904   6.449  0.9029 -0.4029 -0.1923
  328MOL0     C44165   5.470   4.821   6.575  0.5700 -0.1759  0.5139
  328MOL0     C44166   5.607   4.830   6.635 -1.0908  0.3061  0.4633
  328MOL0     C44167   5.608   4.741   6.758 -0.1944  0.5962  0.3908
  328MOL0     C44168   5.749   4.717   6.814 -0.3039  0.0119  0.3187
  328MOL0     O44169   5.839   4.821   6.782  0.3156 -0.2485  0.2985
  328MOL0     C44170   5.868   4.917   6.880  0.7185  0.1548  0.1421
  328MOL0     C44171   5.891   5.050   6.843  0.2719 -1.3447 -0.1917
  328MOL0     C44172   5.935   5.148   6.939  0.2982 -0.1711 -0.1933
  328MOL0     C44173   5.952   5.285   6.891 -0.2083 -0.0744  0.1804
  328MOL0     C44174   5.947   5.106   7.078 -0.8589 -0.1609  0.8757
  328MOL0     C44175   5.972   5.196   7.189  0.3055  0.0436 -1.0928
  328MOL0     O44176   5.976   5.148   7.317  0.2921  0.5419 -0.5024
  328MOL0     C44177   6.026   5.229   7.414 -0.1388  0.4650  0.3117
  328MOL0     C44178   5.957   5.339   7.459 -1.2683 -0.0971 -0.3425
  328MOL0     C44179   6.011   5.418   7.562 -0.4904 -0.0849  0.2480
  328MOL0     C44180   6.142   5.393   7.619  0.6539 -0.3159 -0.0435
  328MOL0     O44181   6.182   5.483   7.711 -0.3330  0.2360 -0.9110
  328MOL0     C44182   6.248   5.422   7.827 -0.5256  1.1069  0.4805
  328MOL0     C44183   6.320   5.514   7.923  0.8703 -0.2676 -0.2529
  328MOL0     C44184   6.219   5.592   8.016 -0.3161  0.2962  0.3725
  328MOL0     C44185   6.114   5.515   8.101 -0.2504  0.0356  0.0848
  328MOL0     C44186   6.035   5.583   8.207 -0.5685  0.1997 -0.0810
  328MOL0     C44187   6.128   5.616   8.335 -1.0833  0.0823  1.0969
  328MOL0     C44188   6.030   5.683   8.435 -0.2510  0.4148  0.6650
  328MOL0     C44189   6.106   5.783   8.525  0.4054  0.6619 -0.2896
  328MOL0    Cl44190   5.987   5.866   8.639  0.3098 -0.1775  0.0483
  328MOL0     C44191   6.211   5.286   7.552  0.2059  0.0952  0.8636
  328MOL0     C44192   6.160   5.196   7.459  0.4104 -0.2733 -0.1039
  328MOL0     O44193   5.990   5.318   7.160  0.9769 -0.0061 -0.3213
  328MOL0     C44194   5.923   4.971   7.102 -0.3084 -0.5246 -0.9697
  328MOL0     C44195   5.889   4.881   7.015 -0.8152  1.0556 -0.4647
  328MOL0     N44196   5.539   4.990   6.371 -0.4397  0.1904  0.9019
  328MOL0     N44197   5.475   5.028   6.265  0.4185  1.0252  0.1930
  328MOL0     C44198   5.317   4.993   5.258  0.2350 -0.6116  0.1002
  328MOL0     C44199   5.419   4.940   5.183 -0.5192  0.1622 -0.4405
  328MOL0     C44200   5.755   4.796   4.916  0.9327  0.4347 -0.5634
  328MOL0     C44201   5.831   4.897   4.868  0.3887  0.0265 -0.9550
  328MOL0     C44202   5.915   4.873   4.763 -1.9134 -0.3288  0.1266
  328MOL0     C44203   5.931   4.747   4.700 -0.0816 -0.5205 -0.6626
  328MOL0     O44204   6.003   4.730   4.581  0.5117  0.4112 -0.6438
  328MOL0     C44205   6.053   4.837   4.505  0.2454 -0.5559  0.5686
  328MOL0     C44206   5.948   4.873   4.392  0.2580 -0.5207  0.6755
  328MOL0     C44207   5.866   5.000   4.415  0.8707  0.6753  0.2164
  328MOL0     C44208   5.933   5.134   4.429  1.0243  0.0482 -0.2880
  328MOL0     C44209   6.027   5.149   4.321 -1.4440  0.4529  0.1243
  328MOL0     C44210   6.098   5.144   4.224 -1.3491  0.6346  0.1683
  328MOL0     C44211   5.849   4.650   4.748  0.4918  0.7605 -0.3309
  328MOL0     C44212   5.768   4.668   4.860  0.2349 -0.1148 -0.3804
  328MOL0     H44213   5.633   5.177   5.151  0.4997 -1.1579 -1.3302
  328MOL0     H44214   5.460   5.291   5.325 -5.3156  1.0401 -0.7003
  328MOL0     H44215   5.043   5.125   5.350  0.3102 -1.7416 -0.8678
  328MOL0     H44216   5.135   5.008   5.441 -0.2493 -0.8543 -0.7611
  328MOL0     H44217   5.095   5.280   5.569  0.6011 -0.4041  1.0730
  328MOL0     H44218   4.963   5.160   5.571 -0.4292 -1.9833  1.8662
  328MOL0     H44219   5.142   4.995   5.663 -0.8918 -0.1009  2.7863
  328MOL0     H44220   5.248   5.138   5.674 -0.4268  2.5197 -1.4761
  328MOL0     H44221   5.060   5.252   5.798 -0.4000  0.5077  2.1719
  328MOL0     H44222   4.990   5.096   5.833  2.3517 -3.4892 -1.5527
  328MOL0     H44223   5.202   5.027   5.934  2.4169  0.9549  1.5819
  328MOL0     H44224   5.285   5.177   5.901 -0.6703  1.0989 -0.6208
  328MOL0     H44225   5.123   5.309   6.029 -0.5117 -0.0066  3.1160
  328MOL0     H44226   5.032   5.159   6.068 -0.8313 -1.2846 -3.4337
  328MOL0     H44227   5.333   5.209   6.117 -1.0271  0.9840 -2.2030
  328MOL0     H44228   5.209   5.228   6.239 -1.7265  1.1314 -1.0734
  328MOL0     H44229   5.288   4.955   6.101 -0.8838 -1.2773  0.2675
  328MOL0     H44230   5.147   4.980   6.207  0.4433 -0.8268 -0.3253
  328MOL0     H44231   5.239   4.891   6.434  1.0167  0.0300  0.3414
  328MOL0     H44232   5.388   4.861   6.635  0.9863  0.1440  0.8762
  328MOL0     H44233   5.451   4.719   6.540  0.1464 -0.1743  0.7382
  328MOL0     H44234   5.630   4.933   6.663 -3.4644  0.7661  0.9155
  328MOL0     H44235   5.688   4.798   6.569  1.4149  0.9952  2.9922
  328MOL0     H44236   5.570   4.640   6.739  1.8191 -1.1681  4.5244
  328MOL0     H44237   5.548   4.786   6.838  0.6045  1.0572  0.7462
  328MOL0     H44238   5.784   4.632   6.755 -1.5244  1.9695 -3.5887
  328MOL0     H44239   5.753   4.697   6.921  0.1928  0.0534  0.3072
  328MOL0     H44240   5.879   5.082   6.740 -1.2730  0.2181  0.4265
  328MOL0     H44241   5.870   5.347   6.929  0.4274 -0.0208  1.5432
  328MOL0     H44242   6.035   5.341   6.937  0.6295  0.4749 -1.8923
  328MOL0     H44243   5.974   5.285   6.784 -1.5305 -2.0470 -0.1442
  328MOL0     H44244   5.866   5.369   7.407 -1.1980  4.5523  1.7443
  328MOL0     H44245   5.966   5.512   7.589 -2.3355 -0.3578 -1.5857
  328MOL0     H44246   6.163   5.382   7.882 -2.5268 -0.6461 -3.4702
  328MOL0     H44247   6.305   5.336   7.792 -0.6483  1.7724 -1.5234
  328MOL0     H44248   6.389   5.450   7.978 -1.1620 -2.7299 -0.3953
  328MOL0     H44249   6.380   5.586   7.866 -0.0566  2.0634  1.5617
  328MOL0     H44250   6.165   5.670   7.962 -1.6133 -1.0438 -0.3636
  328MOL0     H44251   6.287   5.640   8.086  1.3351  0.3523 -1.1927
  328MOL0     H44252   6.045   5.454   8.043  3.0724 -2.8903 -1.1357
  328MOL0     H44253   6.171   5.439   8.156 -1.9737  0.3787  2.4854
  328MOL0     H44254   5.944   5.525   8.226 -1.9461  1.4415 -2.3829
  328MOL0     H44255   6.003   5.680   8.167  1.9047  3.2831  4.4705
  328MOL0     H44256   6.169   5.537   8.399  0.7774  1.7259  2.0745
  328MOL0     H44257   6.203   5.693   8.316 -2.2876  0.9506 -0.3434
  328MOL0     H44258   5.975   5.604   8.487  2.1300 -1.7988  0.0109
  328MOL0     H44259   5.956   5.735   8.374  1.5001  0.2420 -1.7429
  328MOL0     H44260   6.157   5.854   8.460  2.4655 -1.0173 -0.6356
  328MOL0     H44261   6.186   5.730   8.578  1.3159  1.1481 -1.1364
  328MOL0     H44262   6.317   5.289   7.575 -0.1562 -0.1603  2.7148
  328MOL0     H44263   6.221   5.115   7.419  0.3374  0.6463 -2.2233
  328MOL0     H44264   5.955   4.938   7.200 -1.2018  1.1650 -0.0694
  328MOL0     H44265   5.886   4.777   7.047 -1.9013  0.7626 -1.4542
  328MOL0     H44266   5.223   4.944   5.282 -0.4101  0.5964  0.1406
  328MOL0     H44267   5.394   4.837   5.158 -1.0738  0.0919  0.3771
  328MOL0     H44268   5.829   4.998   4.909 -0.4841  0.0831 -1.1268
  328MOL0     H44269   5.986   4.950   4.735 -1.1526 -0.8643  0.5412
  328MOL0     H44270   6.088   4.927   4.556  3.5948 -0.2619 -1.9146
  328MOL0     H44271   6.132   4.800   4.439 -0.4897 -2.1532  0.5315
  328MOL0     H44272   5.864   4.803   4.385 -0.1632  0.0418 -0.1121
  328MOL0     H44273   5.993   4.894   4.295 -0.7081  2.7744  0.8371
  328MOL0     H44274   5.809   4.992   4.508  0.6046 -1.5990 -0.0788
  328MOL0     H44275   5.798   5.001   4.330 -0.3562  0.2193  1.1705
  328MOL0     H44276   5.990   5.144   4.522  0.1427  0.1431  0.2573
  328MOL0     H44277   5.864   5.219   4.429 -0.5063 -1.1241  1.7534
  328MOL0     H44278   6.168   5.146   4.144 -1.3489 -0.1490  0.1429
  328MOL0     H44279   5.854   4.561   4.686 -2.1104  1.6010 -1.9229
  328MOL0     H44280   5.703   4.589   4.896 -0.0998  1.0381  1.6866
  329MOL0     O44281   2.694   7.387   6.198 -0.0263  0.1901 -0.4559
  329MOL0     C44282   2.773   7.309   6.148  0.6091  0.7305  1.0674
  329MOL0     O44283   2.906   7.326   6.105  0.6757 -0.0790  1.0623
  329MOL0     C44284   2.955   7.446   6.124 -0.7677  0.2010  0.0597
  329MOL0     C44285   3.091   7.447   6.120  0.2321  0.7308  0.1191
  329MOL0     C44286   3.172   7.558   6.126  0.1265  0.3715 -0.3391
  329MOL0     C44287   3.117   7.683   6.132 -0.2213 -0.2026 -0.4240
  329MOL0     O44288   3.206   7.787   6.161  0.4238  0.4304  0.8310
  329MOL0     C44289   3.196   7.902   6.073 -0.2102 -0.0586 -0.7512
  329MOL0     C44290   3.335   7.960   6.053 -0.3444  1.2390  0.2841
  329MOL0     C44291   3.456   7.875   6.115  0.4784  0.1184  0.0530
  329MOL0     C44292   3.572   7.862   6.023  0.2702  0.9917 -0.9251
  329MOL0     C44293   3.560   7.719   5.955  0.2995 -1.1214  0.3679
  329MOL0     C44294   3.670   7.671   5.862  0.4384 -0.4856  0.0934
  329MOL0     C44295   3.685   7.753   5.737 -0.4465  0.7632  1.1157
  329MOL0     C44296   3.776   7.671   5.631  1.2138  0.7950 -0.6617
  329MOL0     N44297   3.894   7.607   5.698  0.2350 -0.7480  0.5762
  329MOL0     C44298   3.901   7.500   5.781 -0.2824 -0.2163  0.4436
  329MOL0     C44299   4.028   7.499   5.822 -0.5143 -0.1263  0.1318
  329MOL0     C44300   4.071   7.406   5.931 -0.2188 -0.6685  0.2662
  329MOL0     C44301   4.108   7.485   6.061  0.3085  0.1453 -0.0852
  329MOL0     C44302   4.202   7.404   6.155  0.1362 -0.2513 -0.5948
  329MOL0     C44303   4.236   7.486   6.290  0.5662 -0.9672  0.6249
  329MOL0     O44304   4.127   7.461   6.374  0.0475 -0.8077 -0.2439
  329MOL0     C44305   4.098   7.552   6.469 -0.5237  0.2314  0.8692
  329MOL0     C44306   4.021   7.491   6.567 -0.2567  0.1438  1.6512
  329MOL0     C44307   3.998   7.555   6.687  0.1525 -0.3840  0.2570
  329MOL0     C44308   3.901   7.485   6.780 -0.5635  0.0358  0.3146
  329MOL0     C44309   4.051   7.685   6.708 -0.1410 -0.0708  1.6131
  329MOL0     C44310   4.033   7.756   6.838  0.1444 -0.1025 -0.5825
  329MOL0     O44311   4.031   7.889   6.831  0.3691  0.9930  0.3533
  329MOL0     C44312   4.041   7.956   6.944  0.5188 -0.8894  0.4846
  329MOL0     C44313   4.159   8.027   6.973  0.3691 -1.4554  0.6953
  329MOL0     C44314   4.163   8.116   7.079 -0.0600 -0.5581 -0.2759
  329MOL0     C44315   4.060   8.131   7.171 -0.4583 -0.8060 -0.0053
  329MOL0     O44316   4.084   8.204   7.294  0.1843  0.8274 -0.5464
  329MOL0     C44317   4.212   8.209   7.355 -0.2171  0.4896  0.3606
  329MOL0     C44318   4.206   8.268   7.497 -0.8590  0.0875 -0.4709
  329MOL0     C44319   4.209   8.420   7.483 -0.0919  0.0387 -0.9758
  329MOL0     C44320   4.208   8.487   7.621 -0.9274 -0.4918  0.4199
  329MOL0     C44321   4.257   8.628   7.599 -0.2288  0.4213  0.4045
  329MOL0     C44322   4.263   8.695   7.736 -0.1536  0.3526 -1.5118
  329MOL0     C44323   4.392   8.643   7.808 -0.0082 -0.3764 -0.4480
  329MOL0     C44324   4.430   8.748   7.913 -0.2737 -0.5208  0.1644
  329MOL0    Cl44325   4.548   8.667   8.030  0.0450 -0.0064 -0.4255
  329MOL0     C44326   3.939   8.066   7.135 -0.8937 -1.0443  0.3553
  329MOL0     C44327   3.927   7.979   7.026  0.5859 -0.3977 -0.6967
  329MOL0     O44328   4.047   7.695   6.946  0.0265  0.3243 -0.7539
  329MOL0     C44329   4.124   7.753   6.603  0.5424  0.3778 -0.5501
  329MOL0     C44330   4.146   7.685   6.484 -0.0478 -0.0098 -0.1453
  329MOL0     N44331   4.097   7.607   5.774 -0.9381  0.6336  0.3189
  329MOL0     N44332   4.014   7.671   5.707 -0.1566 -0.6282  0.1696
  329MOL0     C44333   2.980   7.699   6.135  0.0430 -0.7667 -0.0945
  329MOL0     C44334   2.898   7.583   6.121  0.3062 -0.2066  0.2788
  329MOL0     C44335   2.706   7.180   6.118 -0.6205  0.7375  0.0270
  329MOL0     C44336   2.773   7.075   6.052 -0.0694 -0.4196 -0.7338
  329MOL0     C44337   2.712   6.949   6.048 -0.7972  0.4588  0.6408
  329MOL0     C44338   2.585   6.937   6.093  0.6968  0.4228 -0.5517
  329MOL0     O44339   2.509   6.829   6.096  0.6680  0.0780  0.0648
  329MOL0     C44340   2.564   6.705   6.046  0.2835  0.2499  0.5751
  329MOL0     C44341   2.473   6.583   6.046 -0.3259  0.3017  0.0848
  329MOL0     C44342   2.337   6.602   5.980  0.3065 -0.1411 -0.1254
  329MOL0     C44343   2.239   6.488   5.978  0.5489 -0.7379 -0.3642
  329MOL0     C44344   2.299   6.372   5.931 -0.4273 -0.8543  0.3294
  329MOL0     C44345   2.359   6.275   5.897  0.1469 -0.9017 -0.0438
  329MOL0     C44346   2.512   7.045   6.147 -0.6995 -0.4083 -0.4442
  329MOL0     C44347   2.575   7.166   6.162 -1.1077 -0.4159 -0.2650
  329MOL0     H44348   3.142   7.351   6.118 -0.5693  0.2303  1.6504
  329MOL0     H44349   3.278   7.537   6.135  0.3565  0.6467 -2.1437
  329MOL0     H44350   3.161   7.895   5.969 -1.9622  0.5331 -0.2393
  329MOL0     H44351   3.131   7.980   6.114 -0.6412  1.3142 -3.7412
  329MOL0     H44352   3.353   7.993   5.950  1.7673  0.9046  0.5099
  329MOL0     H44353   3.343   8.054   6.109 -1.2533  0.3850  1.9111
  329MOL0     H44354   3.474   7.938   6.202  3.2488  2.2905 -1.9173
  329MOL0     H44355   3.417   7.779   6.152 -0.5672  1.2801  2.1052
  329MOL0     H44356   3.559   7.930   5.938 -2.6698  0.5633 -0.9314
  329MOL0     H44357   3.666   7.870   6.077 -0.1371  1.7191 -0.2933
  329MOL0     H44358   3.554   7.641   6.031 -2.0504 -0.8623  0.5300
  329MOL0     H44359   3.465   7.719   5.900  0.3284 -0.9778  0.3162
  329MOL0     H44360   3.764   7.698   5.912 -0.1096 -0.4128  1.1122
  329MOL0     H44361   3.661   7.563   5.852  0.1178 -0.2944 -2.4660
  329MOL0     H44362   3.586   7.765   5.692  0.0681 -2.8406 -1.3606
  329MOL0     H44363   3.726   7.854   5.751  2.1636 -0.0163 -0.2907
  329MOL0     H44364   3.823   7.742   5.562  0.4485  1.4839 -0.4862
  329MOL0     H44365   3.715   7.598   5.577  1.6897  2.6503 -3.9732
  329MOL0     H44366   3.820   7.431   5.800 -0.0828 -0.4213  0.5582
  329MOL0     H44367   3.989   7.336   5.948  1.1604 -2.6229 -0.7679
  329MOL0     H44368   4.155   7.344   5.898 -2.4744 -3.8330 -0.0021
  329MOL0     H44369   4.014   7.511   6.110  0.2344 -0.2901  0.0055
  329MOL0     H44370   4.155   7.580   6.031  1.5953 -0.6419 -0.6831
  329MOL0     H44371   4.301   7.403   6.108  0.0269 -2.8682 -0.8898
  329MOL0     H44372   4.175   7.299   6.167  4.5664 -1.3737  1.8710
  329MOL0     H44373   4.250   7.589   6.254 -1.2397 -2.0555 -4.0015
  329MOL0     H44374   4.333   7.457   6.330  1.4694  2.4350  1.1965
  329MOL0     H44375   3.991   7.387   6.558 -1.9149  0.7880 -4.4165
  329MOL0     H44376   3.939   7.441   6.873 -1.1490 -2.6100 -0.6085
  329MOL0     H44377   3.824   7.553   6.818  0.2647 -0.1401  2.4140
  329MOL0     H44378   3.853   7.408   6.719  0.1076 -1.7604  1.9507
  329MOL0     H44379   4.238   8.024   6.899 -0.6846  3.9201 -1.1072
  329MOL0     H44380   4.253   8.176   7.093 -0.1367 -0.1727 -1.3906
  329MOL0     H44381   4.255   8.109   7.365 -1.7464 -1.2768 -6.2836
  329MOL0     H44382   4.273   8.275   7.294 -1.1518  0.0287 -1.1193
  329MOL0     H44383   4.119   8.227   7.549 -1.0161  0.8932 -0.0815
  329MOL0     H44384   4.298   8.245   7.553 -1.7884  1.0400  1.5479
  329MOL0     H44385   4.112   8.439   7.435 -2.0323 -1.0966  2.1786
  329MOL0     H44386   4.298   8.447   7.425 -0.6448  1.0473 -1.3836
  329MOL0     H44387   4.109   8.493   7.667 -2.1499 -0.3093 -2.0687
  329MOL0     H44388   4.272   8.427   7.687 -2.4664 -1.9577  0.6440
  329MOL0     H44389   4.184   8.685   7.540 -0.2362  0.4120  0.4051
  329MOL0     H44390   4.352   8.632   7.544 -1.0494 -4.3755 -1.8463
  329MOL0     H44391   4.275   8.802   7.717 -2.9516  0.5656 -2.5605
  329MOL0     H44392   4.180   8.678   7.805  1.9482  0.4239  1.2103
  329MOL0     H44393   4.482   8.634   7.747  1.3028 -1.7477  1.5548
  329MOL0     H44394   4.373   8.544   7.852 -1.2315  1.1372  2.8172
  329MOL0     H44395   4.343   8.783   7.970 -0.2395  1.2048 -0.7933
  329MOL0     H44396   4.491   8.821   7.860 -2.3856 -1.0592 -3.2669
  329MOL0     H44397   3.853   8.081   7.201  1.2606  1.3801  2.8697
  329MOL0     H44398   3.830   7.933   7.012  0.0126 -0.7545  3.1851
  329MOL0     H44399   4.168   7.852   6.614 -3.2352  1.9987  1.8170
  329MOL0     H44400   4.202   7.742   6.411  0.8428  1.1179  1.3727
  329MOL0     H44401   2.946   7.802   6.141  0.2227 -0.7224  0.1851
  329MOL0     H44402   2.792   7.607   6.122  0.8050  2.9984 -2.4154
  329MOL0     H44403   2.869   7.087   6.004  0.5901 -1.2090  0.3321
  329MOL0     H44404   2.763   6.865   6.002  3.0253  2.0309  1.6152
  329MOL0     H44405   2.573   6.725   5.938 -0.5029  1.6137  0.7320
  329MOL0     H44406   2.653   6.678   6.103  1.0839  1.2194 -0.1753
  329MOL0     H44407   2.453   6.551   6.148  2.6923 -4.1608 -0.4182
  329MOL0     H44408   2.521   6.498   5.995 -1.1091 -2.8218  4.0960
  329MOL0     H44409   2.353   6.627   5.875  2.1500  1.4377  0.4758
  329MOL0     H44410   2.286   6.690   6.021 -0.7390 -0.1830 -1.2662
  329MOL0     H44411   2.170   6.521   5.900  3.4470  1.6974 -2.1266
  329MOL0     H44412   2.187   6.476   6.073  3.4422  0.1567  1.4489
  329MOL0     H44413   2.418   6.190   5.869  0.2306 -1.1444  0.8465
  329MOL0     H44414   2.412   7.036   6.187 -1.2025 -0.0631 -1.5951
  329MOL0     H44415   2.516   7.249   6.201 -1.1387 -0.7886  0.5102
  330MOL0     O44416   5.391   9.492  11.163  0.0394  0.3707 -0.6056
  330MOL0     C44417   5.309   9.575  11.203  0.0054  0.9117 -0.2642
  330MOL0     O44418   5.245   9.665  11.123  0.5342  0.6116 -0.6183
  330MOL0     C44419   5.277   9.670  10.994 -0.4001  0.0200 -0.2082
  330MOL0     C44420   5.361   9.767  10.943 -0.4056  0.1295 -0.0948
  330MOL0     C44421   5.419   9.764  10.808  0.1479  1.0337  0.1477
  330MOL0     C44422   5.364   9.672  10.723  0.4625 -0.2166 -0.6172
  330MOL0     O44423   5.401   9.652  10.590  0.0279  0.7062 -0.8337
  330MOL0     C44424   5.533   9.701  10.558  0.0495 -0.4411  0.7970
  330MOL0     C44425   5.583   9.630  10.435 -0.1592  0.0514  0.3811
  330MOL0     C44426   5.722   9.675  10.384 -0.4007  0.5110  0.4654
  330MOL0     C44427   5.826   9.598  10.483  0.3579  0.3604  0.0968
  330MOL0     C44428   5.973   9.641  10.448 -0.0477  0.0714 -0.5443
  330MOL0     C44429   5.991   9.765  10.529 -0.4038 -0.2997 -0.7005
  330MOL0     C44430   6.127   9.834  10.508  0.4608  0.0625  0.1858
  330MOL0     C44431   6.150   9.966  10.573 -1.0067  0.2970 -0.1736
  330MOL0     N44432   6.178   9.955  10.715  0.8255 -0.2102 -0.4223
  330MOL0     C44433   6.298   9.952  10.779 -0.6401 -0.4025 -1.0166
  330MOL0     C44434   6.276   9.912  10.908 -0.0591  0.6931 -0.5265
  330MOL0     C44435   6.374   9.903  11.023 -1.0427 -0.5198  0.3539
  330MOL0     C44436   6.381   9.750  11.057 -0.7145 -0.8910  0.6346
  330MOL0     C44437   6.415   9.646  10.945  0.0490 -0.1628  0.2114
  330MOL0     C44438   6.555   9.667  10.880 -0.4785  0.1911 -0.6879
  330MOL0     O44439   6.594   9.538  10.822  0.3300  0.2107 -0.4725
  330MOL0     C44440   6.722   9.535  10.769  0.6844 -0.1863 -1.0375
  330MOL0     C44441   6.776   9.408  10.757  0.3686  0.8995  0.4176
  330MOL0     C44442   6.904   9.391  10.697  0.2926 -0.1329 -0.3209
  330MOL0     C44443   6.955   9.245  10.687  0.6098  0.3011 -0.0600
  330MOL0     C44444   6.978   9.499  10.643  0.9813 -0.2336  0.7505
  330MOL0     C44445   7.114   9.502  10.579  0.3646 -0.3329  0.3502
  330MOL0     O44446   7.170   9.628  10.537  0.2124 -0.5372 -0.0502
  330MOL0     C44447   7.296   9.619  10.480  1.2840  0.0196  0.8009
  330MOL0     C44448   7.406   9.606  10.557  0.1603 -0.1737  0.6753
  330MOL0     C44449   7.533   9.616  10.492 -0.9882 -0.9052  0.2899
  330MOL0     C44450   7.544   9.657  10.361 -0.2157  0.7207 -0.3207
  330MOL0     O44451   7.670   9.670  10.300 -0.4242 -0.5575 -0.8790
  330MOL0     C44452   7.777   9.587  10.353 -0.1492  0.9462 -0.3558
  330MOL0     C44453   7.888   9.578  10.237  0.3001  0.0924 -0.6504
  330MOL0     C44454   7.946   9.712  10.197 -0.4627 -0.7097 -0.4017
  330MOL0     C44455   7.920   9.749  10.049 -0.4995  0.2026  0.0941
  330MOL0     C44456   7.977   9.887  10.022  0.6461 -0.1276 -0.1231
  330MOL0     C44457   7.956   9.946   9.879  0.0087  0.6117 -0.1503
  330MOL0     C44458   7.818  10.008   9.851  0.6156  0.5214  0.4828
  330MOL0     C44459   7.808  10.156   9.848 -0.8231 -0.2013  0.9178
  330MOL0    Cl44460   7.916  10.222   9.718  0.3771 -0.1923  0.3683
  330MOL0     C44461   7.427   9.700  10.300  0.0426  0.2685 -0.1732
  330MOL0     C44462   7.306   9.674  10.355 -0.3726 -1.1600  0.2060
  330MOL0     O44463   7.173   9.397  10.564 -0.9035  0.3131  0.6994
  330MOL0     C44464   6.912   9.620  10.645  0.3818  0.1235  0.7163
  330MOL0     C44465   6.787   9.641  10.709  0.4939  0.3960  0.1531
  330MOL0     N44466   6.140   9.899  10.914  0.3752  0.5014 -0.3522
  330MOL0     N44467   6.081   9.912  10.802  0.9056 -0.0338  0.0047
  330MOL0     C44468   5.271   9.578  10.774  0.2345 -1.0295 -0.1896
  330MOL0     C44469   5.229   9.576  10.910  0.8627  0.4887  0.4986
  330MOL0     C44470   5.255   9.562  11.344 -0.1703  0.4711 -0.3164
  330MOL0     C44471   5.158   9.650  11.394 -0.3416  1.1618 -0.6300
  330MOL0     C44472   5.106   9.650  11.522  0.4774 -0.1724  1.0815
  330MOL0     C44473   5.139   9.545  11.609 -0.2381 -0.2083  0.1667
  330MOL0     O44474   5.097   9.529  11.739 -0.6496  0.0327  0.3282
  330MOL0     C44475   5.012   9.623  11.786 -0.5355 -0.6526 -0.2470
  330MOL0     C44476   4.979   9.593  11.935 -0.0979 -0.5343  0.1497
  330MOL0     C44477   5.107   9.618  12.017 -0.0361 -0.1104  0.6515
  330MOL0     C44478   5.082   9.645  12.158  0.5181 -0.7942  0.0741
  330MOL0     C44479   5.018   9.777  12.173 -1.0450 -0.0925 -0.1699
  330MOL0     C44480   4.968   9.883  12.162 -0.6851 -0.2077  0.9479
  330MOL0     C44481   5.245   9.462  11.559 -0.0646 -0.2133 -1.1752
  330MOL0     C44482   5.302   9.468  11.431  0.6303  0.1117  0.7675
  330MOL0     H44483   5.405   9.829  11.021  0.8089 -3.3084  2.1817
  330MOL0     H44484   5.494   9.826  10.760  0.6613 -1.7102 -2.9587
  330MOL0     H44485   5.545   9.806  10.528 -0.9656 -0.9632 -1.6563
  330MOL0     H44486   5.597   9.682  10.644  0.3726  0.2405  0.7138
  330MOL0     H44487   5.575   9.524  10.461  0.7975 -0.0493  0.2864
  330MOL0     H44488   5.509   9.648  10.356 -1.1080  1.1538  1.4743
  330MOL0     H44489   5.750   9.657  10.280  0.4344  0.3271  0.7089
  330MOL0     H44490   5.739   9.783  10.387 -4.1936  1.3791 -2.3419
  330MOL0     H44491   5.800   9.617  10.588 -0.5839 -2.8032  0.5329
  330MOL0     H44492   5.823   9.489  10.476 -0.3355  0.3622  0.2828
  330MOL0     H44493   6.046   9.570  10.488 -3.8090 -2.1001  3.3282
  330MOL0     H44494   5.989   9.657  10.341 -0.8103  1.9495 -0.4075
  330MOL0     H44495   5.911   9.835  10.505 -0.3406  0.4328  1.0263
  330MOL0     H44496   5.963   9.732  10.630 -1.3009 -1.2112 -1.2278
  330MOL0     H44497   6.207   9.763  10.529  0.0111 -0.8297 -0.9810
  330MOL0     H44498   6.144   9.842  10.400 -3.2735  2.6248 -0.4107
  330MOL0     H44499   6.061  10.029  10.561 -1.7241 -0.1548  2.3176
  330MOL0     H44500   6.242  10.013  10.537  1.4807 -2.6795  1.7714
  330MOL0     H44501   6.398   9.964  10.738  0.3765 -0.4195  1.3076
  330MOL0     H44502   6.477   9.934  11.004 -0.0200 -3.0405  1.2704
  330MOL0     H44503   6.340   9.962  11.109 -0.0998  0.2302  0.2271
  330MOL0     H44504   6.284   9.739  11.105 -1.5935  2.0516 -0.2213
  330MOL0     H44505   6.466   9.742  11.126  1.5554  1.7708 -1.5644
  330MOL0     H44506   6.334   9.642  10.872  0.6204  2.5238 -0.6619
  330MOL0     H44507   6.422   9.545  10.987 -2.0703 -0.0645  0.9318
  330MOL0     H44508   6.631   9.694  10.954  1.4203 -0.3830 -2.3678
  330MOL0     H44509   6.555   9.753  10.812  3.3667  0.2058 -0.8638
  330MOL0     H44510   6.729   9.327  10.811  0.6567  0.4401 -0.0182
  330MOL0     H44511   7.048   9.221  10.738 -0.5499  0.1286  2.0645
  330MOL0     H44512   6.896   9.164  10.729  0.5720  0.4918  0.2587
  330MOL0     H44513   6.963   9.233  10.578 -0.5093  3.1194 -0.5445
  330MOL0     H44514   7.410   9.583  10.663 -0.1332  1.0172  0.9615
  330MOL0     H44515   7.618   9.609  10.560 -1.5974  0.6196  1.2838
  330MOL0     H44516   7.823   9.629  10.442  1.6443  3.6651 -2.4040
  330MOL0     H44517   7.735   9.490  10.383  1.6853  0.5377  1.0614
  330MOL0     H44518   7.969   9.514  10.275 -0.6045 -0.0128  1.1978
  330MOL0     H44519   7.849   9.528  10.148 -2.1601  1.3747 -0.3613
  330MOL0     H44520   8.055   9.707  10.192 -0.3708  0.9070 -0.3556
  330MOL0     H44521   7.908   9.781  10.272  1.9194 -1.8788  2.0840
  330MOL0     H44522   7.971   9.677   9.985  1.8266  1.4275  0.4461
  330MOL0     H44523   7.814   9.746  10.022 -0.0697 -3.5759 -1.9025
  330MOL0     H44524   8.086   9.890  10.033  0.9238  1.3424 -2.5005
  330MOL0     H44525   7.938   9.966  10.086  2.2739  1.4556 -0.9879
  330MOL0     H44526   8.039  10.017   9.871 -0.1062  0.5880 -1.8728
  330MOL0     H44527   7.973   9.861   9.812  1.5357 -1.5239  2.7311
  330MOL0     H44528   7.757   9.972   9.934  0.0912 -0.5154 -0.3184
  330MOL0     H44529   7.781   9.959   9.761  3.1980 -1.9635  0.6180
  330MOL0     H44530   7.848  10.194   9.943  2.2913 -1.6617  0.3374
  330MOL0     H44531   7.707  10.196   9.838 -0.0766  1.9294  1.3084
  330MOL0     H44532   7.443   9.728  10.196 -1.1045  1.5980 -0.0241
  330MOL0     H44533   7.211   9.700  10.309  0.3827 -0.8485 -1.2061
  330MOL0     H44534   6.962   9.698  10.588  1.8810 -0.5472  1.0647
  330MOL0     H44535   6.737   9.737  10.703  3.0631  2.2039  3.8632
  330MOL0     H44536   5.243   9.506  10.697 -1.2495 -0.4932 -0.1958
  330MOL0     H44537   5.158   9.498  10.934 -3.2667  3.4233 -0.9352
  330MOL0     H44538   5.125   9.727  11.325 -0.4065  0.3278 -1.5679
  330MOL0     H44539   5.049   9.736  11.555  0.5176  0.1793  0.2471
  330MOL0     H44540   5.049   9.725  11.777  2.0735 -1.7404 -3.6179
  330MOL0     H44541   4.920   9.616  11.728  0.1852 -0.0634 -1.5040
  330MOL0     H44542   4.948   9.489  11.937 -0.3976 -0.4338  1.2813
  330MOL0     H44543   4.892   9.652  11.965  0.3852 -0.0670  0.6757
  330MOL0     H44544   5.170   9.690  11.965  0.0873 -1.4668 -1.1988
  330MOL0     H44545   5.159   9.522  12.009 -0.9081 -0.6153  0.8823
  330MOL0     H44546   5.171   9.646  12.222  0.3351  0.6053  0.3299
  330MOL0     H44547   5.010   9.567  12.185 -1.9353  0.1144 -3.1953
  330MOL0     H44548   4.917   9.975  12.143  1.0142  0.3315 -1.4264
  330MOL0     H44549   5.296   9.403  11.636  0.9885  0.3707 -1.4117
  330MOL0     H44550   5.386   9.410  11.393  3.3901  3.2520  1.5789
  331MOL0     O44551   1.722   6.451   3.546 -0.4692  0.3515  0.0001
  331MOL0     C44552   1.828   6.403   3.580 -0.6140 -0.1763  0.0439
  331MOL0     O44553   1.949   6.473   3.581  0.7711  0.1004 -0.8169
  331MOL0     C44554   1.965   6.608   3.554  0.0352 -0.5053  0.7764
  331MOL0     C44555   2.099   6.656   3.531 -0.0747  0.3577 -0.4093
  331MOL0     C44556   2.131   6.790   3.506  0.4471 -0.7898  0.1658
  331MOL0     C44557   2.025   6.887   3.492 -0.0923  0.8568 -0.4775
  331MOL0     O44558   2.076   7.013   3.481  0.1207  0.6291  0.5388
  331MOL0     C44559   1.985   7.119   3.462 -0.3724 -0.1385  0.1188
  331MOL0     C44560   2.060   7.246   3.417  0.6326 -0.4631  0.3763
  331MOL0     C44561   2.101   7.332   3.536  0.8321 -0.4991 -0.1428
  331MOL0     C44562   2.194   7.457   3.497  0.5379 -0.0745  0.1604
  331MOL0     C44563   2.248   7.539   3.613  0.1177  0.3390  0.2129
  331MOL0     C44564   2.351   7.635   3.559  0.4923  0.3266  0.5120
  331MOL0     C44565   2.400   7.725   3.669 -0.0365 -0.8097  0.4787
  331MOL0     C44566   2.500   7.821   3.623  0.2515 -0.2475 -0.3022
  331MOL0     N44567   2.613   7.754   3.549 -0.2974  0.4566 -0.7876
  331MOL0     C44568   2.712   7.659   3.594  0.9506  0.2039  0.2955
  331MOL0     C44569   2.781   7.633   3.481 -0.4066 -0.4045  0.5561
  331MOL0     C44570   2.914   7.556   3.488  0.0002 -0.8728  0.0113
  331MOL0     C44571   2.882   7.399   3.497 -0.0995  0.5936 -0.4522
  331MOL0     C44572   2.773   7.350   3.391 -0.1387 -0.2394  0.0093
  331MOL0     C44573   2.814   7.365   3.236 -0.5391 -0.0176  0.5660
  331MOL0     O44574   2.732   7.287   3.146  0.0214  0.5061 -0.4546
  331MOL0     C44575   2.611   7.331   3.121  0.7377 -0.6563 -0.0844
  331MOL0     C44576   2.552   7.465   3.128 -0.6607  0.7247 -0.1398
  331MOL0     C44577   2.410   7.496   3.109  0.4390  0.2674 -0.0788
  331MOL0     C44578   2.376   7.636   3.099 -0.7274  0.5512 -0.2368
  331MOL0     C44579   2.324   7.391   3.070  0.4074 -0.0633 -0.0995
  331MOL0     C44580   2.176   7.394   3.045  0.2573 -0.7878  0.8840
  331MOL0     O44581   2.109   7.289   2.987 -0.2982  0.3437  0.2703
  331MOL0     C44582   1.975   7.278   3.004 -1.2915 -0.3493 -0.3916
  331MOL0     C44583   1.934   7.155   3.047 -0.1898 -0.2215  1.4732
  331MOL0     C44584   1.798   7.135   3.044 -0.1770  0.3180  0.3275
  331MOL0     C44585   1.699   7.227   3.004  0.8469 -0.7912  0.4404
  331MOL0     O44586   1.569   7.194   3.017 -0.0799 -1.0984  0.5121
  331MOL0     C44587   1.484   7.196   2.905  0.3939 -0.3213 -0.6720
  331MOL0     C44588   1.345   7.167   2.971 -0.1416 -0.4520 -0.7792
  331MOL0     C44589   1.337   7.048   3.062  0.4138 -0.0889 -0.2668
  331MOL0     C44590   1.199   6.999   3.095  0.2241  0.3834  0.2465
  331MOL0     C44591   1.096   7.097   3.160 -0.2079  0.5669  0.3905
  331MOL0     C44592   1.137   7.110   3.309  0.1736  0.1253  0.1440
  331MOL0     C44593   1.069   7.230   3.377  0.5541 -0.6013 -1.0743
  331MOL0     C44594   1.114   7.270   3.523 -0.3079 -0.1603 -0.0749
  331MOL0    Cl44595   1.113   7.135   3.635  0.1266 -0.4719 -0.0126
  331MOL0     C44596   1.737   7.351   2.967 -0.8101  0.3443 -0.7294
  331MOL0     C44597   1.877   7.377   2.968 -0.0224 -0.7028 -0.3916
  331MOL0     O44598   2.114   7.490   3.098 -0.0988  0.5594 -0.6314
  331MOL0     C44599   2.380   7.262   3.077 -0.1987  0.3295 -0.1160
  331MOL0     C44600   2.517   7.229   3.098 -0.1379  0.0106  0.7519
  331MOL0     N44601   2.714   7.688   3.371  0.3539  0.7703  0.2648
  331MOL0     N44602   2.623   7.762   3.412  0.1975  0.6504  0.0844
  331MOL0     C44603   1.901   6.841   3.509 -0.0239 -0.9761 -0.7455
  331MOL0     C44604   1.868   6.706   3.524  0.1852  0.5045 -1.4689
  331MOL0     C44605   1.835   6.270   3.635 -0.5383  0.6140  0.5881
  331MOL0     C44606   1.732   6.172   3.640 -0.2750 -0.5625  0.2245
  331MOL0     C44607   1.747   6.047   3.702  0.6992 -0.8011 -0.1638
  331MOL0     C44608   1.868   6.016   3.759 -0.0942 -0.1766 -0.6128
  331MOL0     O44609   1.897   5.896   3.814 -0.6051  0.1515  0.0435
  331MOL0     C44610   1.926   5.887   3.958  0.1706  0.5019  0.0508
  331MOL0     C44611   1.808   5.908   4.063  0.6055  0.2895 -0.3948
  331MOL0     C44612   1.796   6.050   4.116  0.0286 -0.9609 -0.3901
  331MOL0     C44613   1.758   6.064   4.263 -0.3108 -0.1798 -1.1531
  331MOL0     C44614   1.874   6.015   4.348 -0.3833 -0.4925 -0.2816
  331MOL0     C44615   1.968   5.973   4.411 -0.2012 -0.2096 -0.0960
  331MOL0     C44616   1.979   6.101   3.736 -0.4480  0.2612 -0.9081
  331MOL0     C44617   1.961   6.219   3.676 -0.2805 -0.3070  0.1177
  331MOL0     H44618   2.176   6.588   3.565 -3.1445 -2.6348  1.2193
  331MOL0     H44619   2.231   6.829   3.521 -0.3765  1.8029 -0.7026
  331MOL0     H44620   1.908   7.086   3.391 -0.6513  2.4938 -0.9217
  331MOL0     H44621   1.941   7.143   3.559  1.4134 -0.1040  0.9499
  331MOL0     H44622   2.154   7.228   3.366 -0.5383  0.1431 -2.1484
  331MOL0     H44623   2.002   7.315   3.356 -2.4616 -0.9761  2.5002
  331MOL0     H44624   2.017   7.383   3.583 -0.4122 -0.2907 -2.4735
  331MOL0     H44625   2.162   7.272   3.604  0.0949 -2.3274 -1.0309
  331MOL0     H44626   2.277   7.428   3.432 -1.8892 -0.3906 -3.0478
  331MOL0     H44627   2.135   7.532   3.443 -1.5608 -1.5085  0.3597
  331MOL0     H44628   2.167   7.599   3.655  0.1619  0.9175 -0.5025
  331MOL0     H44629   2.295   7.473   3.687 -0.1467 -1.2485 -0.9988
  331MOL0     H44630   2.431   7.577   3.511 -0.6419 -3.4298  2.6837
  331MOL0     H44631   2.305   7.696   3.481 -2.7367 -0.8095  1.3825
  331MOL0     H44632   2.310   7.779   3.700 -0.5542 -1.1368 -0.4307
  331MOL0     H44633   2.435   7.677   3.761  0.1183  0.4591  1.0961
  331MOL0     H44634   2.546   7.865   3.712  0.0218 -0.1377 -0.2375
  331MOL0     H44635   2.445   7.898   3.567  0.1296  0.7495  1.1289
  331MOL0     H44636   2.725   7.612   3.690  1.8351  0.2301  0.1976
  331MOL0     H44637   2.980   7.576   3.403  2.1257  1.8963  2.1299
  331MOL0     H44638   2.971   7.579   3.578  0.0995 -2.6430  0.4306
  331MOL0     H44639   2.828   7.377   3.589 -5.0982 -2.2533 -3.5959
  331MOL0     H44640   2.970   7.334   3.500 -1.2851 -1.0682 -0.1603
  331MOL0     H44641   2.678   7.396   3.417 -0.6635 -0.4801 -1.3837
  331MOL0     H44642   2.765   7.241   3.404  1.6193 -0.6995 -2.1212
  331MOL0     H44643   2.918   7.331   3.231 -0.6268 -0.4555  1.3888
  331MOL0     H44644   2.811   7.469   3.204 -0.8726 -0.1023  0.3180
  331MOL0     H44645   2.618   7.548   3.152  0.7924 -0.4506  0.0985
  331MOL0     H44646   2.269   7.656   3.108 -0.8274  2.7305 -4.0104
  331MOL0     H44647   2.433   7.692   3.173 -0.6656 -1.3543  1.2543
  331MOL0     H44648   2.391   7.658   2.993  0.3892  1.0937  0.0186
  331MOL0     H44649   2.007   7.083   3.084 -0.5457  0.4573  3.6345
  331MOL0     H44650   1.781   7.037   3.088  4.4695 -0.0936  1.7963
  331MOL0     H44651   1.485   7.290   2.850  0.0944 -0.8360 -1.5817
  331MOL0     H44652   1.508   7.111   2.840 -1.7111 -0.0573 -1.8800
  331MOL0     H44653   1.312   7.248   3.036  0.8457 -2.5112  2.5256
  331MOL0     H44654   1.278   7.152   2.886  0.2572 -0.9888 -1.0061
  331MOL0     H44655   1.399   7.069   3.150 -1.6751 -0.7976  1.4716
  331MOL0     H44656   1.388   6.962   3.019 -1.1689 -1.5421  0.6376
  331MOL0     H44657   1.158   6.952   3.005 -1.9846  0.0423  1.3711
  331MOL0     H44658   1.201   6.907   3.155  2.7682 -0.0675 -0.4111
  331MOL0     H44659   0.990   7.071   3.152 -0.4756  0.8778  2.3022
  331MOL0     H44660   1.105   7.195   3.111  2.5058  0.0781 -0.2631
  331MOL0     H44661   1.080   7.025   3.349 -3.7112  1.1682 -2.6187
  331MOL0     H44662   1.245   7.100   3.323  0.1713  1.1693  1.0372
  331MOL0     H44663   0.962   7.211   3.368  0.0591  2.0907 -1.5909
  331MOL0     H44664   1.089   7.322   3.322  1.7382 -0.6175 -0.7069
  331MOL0     H44665   1.042   7.344   3.558 -0.6493 -0.6947  0.3748
  331MOL0     H44666   1.220   7.293   3.511  0.3736 -3.3457 -1.2500
  331MOL0     H44667   1.667   7.423   2.928 -1.4142 -0.3088 -0.8759
  331MOL0     H44668   1.925   7.467   2.932 -0.9622  0.8156  1.9504
  331MOL0     H44669   2.323   7.171   3.063 -0.5658  0.6548 -0.7768
  331MOL0     H44670   2.548   7.126   3.100  3.3039  0.7522 -2.7705
  331MOL0     H44671   1.825   6.918   3.514  1.0653  0.0586  1.0397
  331MOL0     H44672   1.765   6.674   3.537 -0.0672  1.2328 -1.6305
  331MOL0     H44673   1.633   6.182   3.595 -1.5236  1.1476  3.0361
  331MOL0     H44674   1.678   5.964   3.698  1.0763 -1.3987  2.8648
  331MOL0     H44675   1.950   5.781   3.973  1.9851  0.6113 -1.6154
  331MOL0     H44676   2.012   5.943   3.996  1.7269  0.4182 -3.0545
  331MOL0     H44677   1.819   5.841   4.148 -0.9086 -1.1466 -1.2877
  331MOL0     H44678   1.720   5.897   3.999 -0.6194  2.3986  0.8266
  331MOL0     H44679   1.717   6.108   4.068 -0.0300 -1.7975 -1.3509
  331MOL0     H44680   1.893   6.098   4.104 -0.5605  1.5847  3.4009
  331MOL0     H44681   1.671   6.002   4.284 -1.3507  1.6484  0.2052
  331MOL0     H44682   1.737   6.170   4.276 -1.8493 -0.5777 -0.2404
  331MOL0     H44683   2.046   5.944   4.478 -1.6028 -1.6052  0.9968
  331MOL0     H44684   2.073   6.062   3.776 -2.4791 -3.2870  0.8959
  331MOL0     H44685   2.057   6.270   3.669  0.3354 -1.0789  2.1034
  332MOL0     O44686   7.886   9.709   7.803 -0.3871 -0.6694  0.0220
  332MOL0     C44687   7.990   9.773   7.814 -0.1424 -0.6836  0.4481
  332MOL0     O44688   7.999   9.916   7.829 -0.8983  0.4289 -0.3216
  332MOL0     C44689   7.878   9.976   7.820  0.3068  0.1461  0.0946
  332MOL0     C44690   7.769   9.946   7.915 -0.5801  0.8911 -0.0427
  332MOL0     C44691   7.653  10.027   7.914 -0.2338 -0.3544  0.5162
  332MOL0     C44692   7.629  10.127   7.815  0.0824 -0.3362  0.3124
  332MOL0     O44693   7.507  10.192   7.826 -0.2451 -0.3085  0.2809
  332MOL0     C44694   7.423  10.172   7.711  0.4133  0.0736  0.0667
  332MOL0     C44695   7.284  10.220   7.724 -0.4800  0.3388  0.2754
  332MOL0     C44696   7.235  10.163   7.858  0.4897  0.1411 -1.1352
  332MOL0     C44697   7.085  10.191   7.869 -0.3470 -0.6495 -0.0933
  332MOL0     C44698   7.032  10.126   8.000  0.5663  0.7624  0.1620
  332MOL0     C44699   7.065  10.208   8.124 -0.0359 -0.8130  0.6931
  332MOL0     C44700   7.006  10.134   8.245 -0.1447 -0.0618 -0.4613
  332MOL0     C44701   7.007  10.204   8.381 -0.1331 -0.7714  0.2018
  332MOL0     N44702   6.908  10.149   8.470  0.0197 -0.5514  0.3039
  332MOL0     C44703   6.895  10.022   8.499  0.3467  0.6221  0.4556
  332MOL0     C44704   6.761  10.003   8.547  0.3100 -0.6523 -0.8654
  332MOL0     C44705   6.709   9.866   8.596 -0.3035 -0.0381 -0.1863
  332MOL0     C44706   6.814   9.786   8.675 -0.4777 -0.1185 -0.2486
  332MOL0     C44707   6.768   9.658   8.729  1.3583  0.8565 -0.4329
  332MOL0     C44708   6.779   9.539   8.634  0.5654  0.2909  0.3956
  332MOL0     O44709   6.698   9.543   8.516 -0.7628  0.1403 -0.1151
  332MOL0     C44710   6.692   9.419   8.442  0.6646  0.2832  0.0850
  332MOL0     C44711   6.686   9.425   8.305  0.3800 -0.6738 -0.1931
  332MOL0     C44712   6.658   9.312   8.224  1.4733  0.8341  0.2690
  332MOL0     C44713   6.644   9.337   8.072  0.2327  1.0062  0.2146
  332MOL0     C44714   6.650   9.180   8.288  0.3472 -0.2517 -0.1048
  332MOL0     C44715   6.633   9.063   8.202 -0.6130 -0.2334  1.0212
  332MOL0     O44716   6.555   8.964   8.260  0.3901 -0.1481  0.7267
  332MOL0     C44717   6.527   8.852   8.192  0.3654 -0.5814  0.2775
  332MOL0     C44718   6.457   8.861   8.065  0.5854  0.5361 -1.4223
  332MOL0     C44719   6.413   8.746   7.998 -0.0023 -0.0269 -0.4770
  332MOL0     C44720   6.440   8.627   8.057 -0.0012  0.1178 -0.8582
  332MOL0     O44721   6.415   8.498   8.007  0.2227  0.5316 -0.4360
  332MOL0     C44722   6.454   8.472   7.872 -0.4491  0.1253  0.4343
  332MOL0     C44723   6.573   8.373   7.879 -0.2421 -0.4354  0.5799
  332MOL0     C44724   6.563   8.241   7.956 -0.3472 -0.9113 -0.6119
  332MOL0     C44725   6.709   8.185   7.948  0.6854  0.8928 -0.2024
  332MOL0     C44726   6.732   8.082   8.060  0.8348 -0.2384  0.3286
  332MOL0     C44727   6.680   7.944   8.025  1.0134  0.8609 -0.4062
  332MOL0     C44728   6.729   7.840   8.124  0.4583  0.2282  1.2773
  332MOL0     C44729   6.625   7.744   8.182  0.1761 -0.6994  0.6060
  332MOL0    Cl44730   6.599   7.605   8.076 -0.6324  0.4831  0.3100
  332MOL0     C44731   6.513   8.625   8.180  0.1860 -0.8575 -0.0874
  332MOL0     C44732   6.555   8.734   8.243 -0.3952 -0.2951 -0.8410
  332MOL0     O44733   6.692   9.056   8.085  0.9462 -0.1919  0.5087
  332MOL0     C44734   6.640   9.176   8.428 -0.3499  0.3397  0.6472
  332MOL0     C44735   6.671   9.291   8.506  0.9907  0.1793  0.4153
  332MOL0     N44736   6.701  10.125   8.534  0.2691 -0.6943 -0.3643
  332MOL0     N44737   6.789  10.210   8.500 -0.0413 -0.3277 -0.1583
  332MOL0     C44738   7.723  10.146   7.721 -0.2703  0.1449  0.0748
  332MOL0     C44739   7.854  10.083   7.729 -0.1677  0.5515 -0.2274
  332MOL0     C44740   8.126   9.700   7.812 -0.9272 -0.4016 -0.3996
  332MOL0     C44741   8.126   9.566   7.795  0.9656  1.0321 -0.7931
  332MOL0     C44742   8.245   9.483   7.792  0.4873  0.3664  0.9284
  332MOL0     C44743   8.369   9.542   7.793 -0.9314  0.7326 -0.1322
  332MOL0     O44744   8.470   9.454   7.792  0.1874  0.0576 -0.4163
  332MOL0     C44745   8.593   9.517   7.763  0.7154 -0.2145  0.2310
  332MOL0     C44746   8.704   9.426   7.724  0.2800 -0.7165 -1.0526
  332MOL0     C44747   8.817   9.507   7.663  0.1996 -0.2859 -0.3903
  332MOL0     C44748   8.923   9.406   7.623 -0.3277 -0.4794  0.2604
  332MOL0     C44749   8.967   9.307   7.727 -0.7333 -0.8761 -0.2557
  332MOL0     C44750   9.006   9.221   7.805  0.2321  0.8846 -0.0265
  332MOL0     C44751   8.371   9.679   7.798  0.3612 -0.8105 -0.3407
  332MOL0     C44752   8.252   9.762   7.818 -0.3310 -0.4398 -1.0401
  332MOL0     H44753   7.800   9.870   7.986  1.9502  0.8882 -1.0474
  332MOL0     H44754   7.569  10.018   7.983  0.4366  2.3749  1.7969
  332MOL0     H44755   7.461  10.212   7.617 -2.0858 -3.2447 -2.6084
  332MOL0     H44756   7.432  10.064   7.702  2.6059  0.1167  1.1255
  332MOL0     H44757   7.287  10.328   7.736 -2.7455  0.8541 -2.7432
  332MOL0     H44758   7.235  10.193   7.630 -2.8704  0.1924  1.4932
  332MOL0     H44759   7.246  10.054   7.858  0.9096 -0.2136  5.6649
  332MOL0     H44760   7.291  10.210   7.940  1.3997  0.5118 -1.9412
  332MOL0     H44761   7.071  10.299   7.862  0.3509 -0.6104 -5.0225
  332MOL0     H44762   7.020  10.150   7.791 -0.1877 -1.4283  0.1741
  332MOL0     H44763   6.923  10.117   8.008  0.4602  0.2343 -1.4091
  332MOL0     H44764   7.068  10.023   8.011 -1.4982 -0.3814 -2.4914
  332MOL0     H44765   7.174  10.210   8.130  0.0327  1.0601 -0.3853
  332MOL0     H44766   7.029  10.311   8.119  0.6920 -0.5068  1.4731
  332MOL0     H44767   6.905  10.102   8.219  0.1328  0.1187 -1.8917
  332MOL0     H44768   7.079  10.056   8.266  1.0484  1.9056  3.7206
  332MOL0     H44769   6.999  10.311   8.362 -0.8724 -0.6363  1.1670
  332MOL0     H44770   7.105  10.190   8.429  1.6997 -0.4443 -3.1745
  332MOL0     H44771   6.957   9.935   8.482 -0.0761 -0.2529  3.0404
  332MOL0     H44772   6.627   9.885   8.665 -1.7619 -1.2005 -1.5386
  332MOL0     H44773   6.670   9.816   8.507  0.9156  1.7725 -1.8451
  332MOL0     H44774   6.857   9.846   8.756 -1.6396  0.4604 -0.0430
  332MOL0     H44775   6.892   9.767   8.601  0.9532 -0.9080  1.3864
  332MOL0     H44776   6.664   9.661   8.761  1.6835  1.7607  0.5820
  332MOL0     H44777   6.829   9.640   8.818  1.4428  2.0912 -0.2361
  332MOL0     H44778   6.757   9.454   8.700  0.4107 -0.3677 -0.4759
  332MOL0     H44779   6.884   9.528   8.604  0.4107  0.7014 -0.3316
  332MOL0     H44780   6.704   9.514   8.245  0.5521 -1.2858 -1.0817
  332MOL0     H44781   6.719   9.278   8.020 -1.8857 -2.5701  0.8842
  332MOL0     H44782   6.550   9.296   8.035  1.8317 -1.1320 -1.6724
  332MOL0     H44783   6.646   9.438   8.030 -0.3542  0.9716  0.0930
  332MOL0     H44784   6.428   8.957   8.024  1.9026  2.5197  1.9036
  332MOL0     H44785   6.366   8.754   7.900  0.8477 -3.1056 -1.2702
  332MOL0     H44786   6.365   8.432   7.822  0.8180  0.0268 -1.8868
  332MOL0     H44787   6.483   8.564   7.821 -0.5557  1.0905  2.0251
  332MOL0     H44788   6.609   8.355   7.777  0.2121  2.2786  0.1961
  332MOL0     H44789   6.653   8.419   7.938  0.5518 -1.4812  0.3583
  332MOL0     H44790   6.490   8.177   7.906  0.2874 -0.6383 -1.9379
  332MOL0     H44791   6.545   8.265   8.061  0.8753 -1.8939 -0.1460
  332MOL0     H44792   6.736   8.128   7.859  0.5616 -1.3645  1.1159
  332MOL0     H44793   6.787   8.262   7.946 -1.7263  3.5223  0.1440
  332MOL0     H44794   6.685   8.128   8.147 -1.3322  0.5929 -1.2166
  332MOL0     H44795   6.840   8.068   8.075  0.3737 -1.8151  2.7289
  332MOL0     H44796   6.572   7.934   8.014  1.0427  1.7023 -1.6767
  332MOL0     H44797   6.715   7.914   7.925 -2.4758  0.6515 -1.7003
  332MOL0     H44798   6.780   7.873   8.215  0.2878 -2.4994  2.4551
  332MOL0     H44799   6.812   7.789   8.074 -0.5294  1.4177 -1.8123
  332MOL0     H44800   6.527   7.787   8.204 -0.0269 -2.2187  3.0638
  332MOL0     H44801   6.652   7.709   8.283  0.8194  0.9392  1.0372
  332MOL0     H44802   6.534   8.522   8.209  0.9095 -0.7750 -0.3100
  332MOL0     H44803   6.613   8.723   8.334  0.3172 -1.1653 -1.3881
  332MOL0     H44804   6.618   9.077   8.465  1.4493  0.2669  1.6373
  332MOL0     H44805   6.655   9.281   8.613 -0.2185 -4.1606  0.0322
  332MOL0     H44806   7.704  10.201   7.629 -1.8151 -1.1251 -0.4189
  332MOL0     H44807   7.926  10.128   7.662 -0.3894  0.7662 -0.3233
  332MOL0     H44808   8.029   9.519   7.803  2.2576 -1.7685 -0.1430
  332MOL0     H44809   8.230   9.376   7.800  0.9880  0.2841  0.7677
  332MOL0     H44810   8.570   9.571   7.671 -3.4259 -3.5290 -1.0404
  332MOL0     H44811   8.628   9.577   7.848  1.9162 -1.5281  0.7093
  332MOL0     H44812   8.673   9.349   7.654  1.0033 -2.6252  0.6252
  332MOL0     H44813   8.741   9.376   7.814  0.2387  1.2116  0.0933
  332MOL0     H44814   8.862   9.580   7.731  1.1723  0.4346 -1.7653
  332MOL0     H44815   8.788   9.551   7.567 -0.1830 -2.0264 -1.1268
  332MOL0     H44816   9.017   9.458   7.602  0.9366 -2.5853  0.4465
  332MOL0     H44817   8.889   9.342   7.541 -0.3749 -1.2489  0.8706
  332MOL0     H44818   9.015   9.165   7.896  0.5724  0.3171 -0.4063
  332MOL0     H44819   8.470   9.722   7.813 -0.5371  1.4829 -0.6077
  332MOL0     H44820   8.268   9.867   7.843 -0.7415 -0.3334 -1.2086
  333MOL0     O44821   7.885   6.667   7.188  0.0901  0.1114  0.3615
  333MOL0     C44822   7.898   6.601   7.084 -0.8263  0.1161 -0.3976
  333MOL0     O44823   7.901   6.664   6.956  0.4520  0.5153  0.4330
  333MOL0     C44824   7.823   6.778   6.945 -0.6378 -0.4613 -0.8202
  333MOL0     C44825   7.698   6.782   6.889  0.4819  0.4060 -0.4134
  333MOL0     C44826   7.621   6.904   6.897 -0.8177  0.3696  0.5146
  333MOL0     C44827   7.661   7.021   6.955  0.3125 -0.2331 -0.1265
  333MOL0     O44828   7.556   7.115   6.965 -0.5278 -0.0018  0.0393
  333MOL0     C44829   7.570   7.230   7.046  0.3510 -0.3946  0.6889
  333MOL0     C44830   7.631   7.347   6.969  0.1266  0.3812 -0.3370
  333MOL0     C44831   7.665   7.475   7.047  0.0340 -0.3726  1.0722
  333MOL0     C44832   7.531   7.549   7.087 -0.1143 -0.6272 -0.1079
  333MOL0     C44833   7.466   7.608   6.967 -0.0164  0.1684 -0.6869
  333MOL0     C44834   7.345   7.706   6.988 -0.2735  0.0806  0.5773
  333MOL0     C44835   7.388   7.844   7.053  0.3903  0.8368  0.1705
  333MOL0     C44836   7.330   7.979   6.991  0.0676 -1.3259  0.6914
  333MOL0     N44837   7.431   8.045   6.907 -0.3782 -0.7154 -0.3428
  333MOL0     C44838   7.473   8.012   6.780  0.8448  0.3108 -0.5463
  333MOL0     C44839   7.556   8.108   6.734 -0.2601  0.2363 -0.3631
  333MOL0     C44840   7.636   8.107   6.603  0.6705 -0.7079 -0.1294
  333MOL0     C44841   7.654   8.252   6.559 -0.6479  0.1637  0.1382
  333MOL0     C44842   7.738   8.275   6.427 -0.1006 -0.3909  0.3385
  333MOL0     C44843   7.676   8.221   6.303 -0.4578 -0.6218  0.4626
  333MOL0     O44844   7.545   8.257   6.308  0.5869  0.0669 -0.4102
  333MOL0     C44845   7.519   8.372   6.248 -0.0611 -0.9787 -0.7158
  333MOL0     C44846   7.498   8.390   6.118 -0.0189 -1.1960  0.6742
  333MOL0     C44847   7.447   8.515   6.063 -0.3180 -0.3954  0.5562
  333MOL0     C44848   7.421   8.519   5.908  0.3140  0.1953  0.8170
  333MOL0     C44849   7.428   8.631   6.145 -0.5154 -0.3412 -1.1549
  333MOL0     C44850   7.416   8.772   6.098 -0.0642 -0.6523 -0.6458
  333MOL0     O44851   7.382   8.779   5.968  0.8581 -0.7131 -0.5777
  333MOL0     C44852   7.356   8.900   5.905 -0.4156 -0.4144 -0.9370
  333MOL0     C44853   7.288   9.014   5.967  0.7261 -0.1036  0.1877
  333MOL0     C44854   7.260   9.135   5.898  0.0223 -0.2123 -0.4253
  333MOL0     C44855   7.287   9.139   5.762 -0.8905 -0.4768 -0.0168
  333MOL0     O44856   7.235   9.243   5.678 -0.6322 -0.5551 -0.1938
  333MOL0     C44857   7.161   9.352   5.732  0.0815 -0.4514  0.5788
  333MOL0     C44858   7.080   9.419   5.629  0.8220 -0.2987  0.6485
  333MOL0     C44859   6.938   9.384   5.613  0.7487  0.1875 -0.5836
  333MOL0     C44860   6.925   9.233   5.559 -0.9483 -0.1672 -0.4964
  333MOL0     C44861   6.794   9.212   5.481 -1.1238  0.2728 -0.5197
  333MOL0     C44862   6.673   9.167   5.557  0.1231  0.5472  0.0201
  333MOL0     C44863   6.618   9.272   5.661 -0.4851 -0.6442  0.6496
  333MOL0     C44864   6.506   9.219   5.751  1.2601 -0.3969  0.9918
  333MOL0    Cl44865   6.419   9.364   5.813 -0.5627  0.2079 -0.3149
  333MOL0     C44866   7.370   9.033   5.704  0.2705  0.5761  0.0982
  333MOL0     C44867   7.400   8.916   5.778  0.7017  0.6691  0.7526
  333MOL0     O44868   7.429   8.869   6.176  0.1266 -0.3708 -1.2046
  333MOL0     C44869   7.458   8.610   6.281  0.1653 -0.1873  0.1707
  333MOL0     C44870   7.495   8.486   6.331  0.0570  0.0137  0.1850
  333MOL0     N44871   7.551   8.209   6.830 -0.0728  0.1490 -0.8778
  333MOL0     N44872   7.476   8.168   6.932 -1.0118  0.0225  0.5853
  333MOL0     C44873   7.787   7.025   7.006 -0.9432  1.2993 -0.4022
  333MOL0     C44874   7.867   6.903   7.007 -0.2390  0.0672 -0.1551
  333MOL0     C44875   7.941   6.454   7.090 -0.7870  0.5153 -0.1613
  333MOL0     C44876   7.992   6.388   6.979 -0.0555 -0.1742  0.4328
  333MOL0     C44877   8.012   6.251   6.972  0.1480  0.2488 -0.1192
  333MOL0     C44878   7.989   6.171   7.085 -0.0406  0.5659  0.1992
  333MOL0     O44879   8.009   6.037   7.069  0.2191 -1.1286 -0.7708
  333MOL0     C44880   7.993   5.956   7.192  0.5576 -0.9199 -0.0686
  333MOL0     C44881   8.014   5.812   7.184  0.1782 -0.4205  1.0406
  333MOL0     C44882   8.144   5.784   7.112  1.1643  1.4848  0.8928
  333MOL0     C44883   8.166   5.631   7.083  0.8543  0.5580 -0.6358
  333MOL0     C44884   8.302   5.599   7.038  0.0759  0.1800  0.5613
  333MOL0     C44885   8.403   5.554   6.989 -0.9444 -0.0823 -1.2909
  333MOL0     C44886   7.954   6.233   7.207  0.0501 -0.5306  0.5206
  333MOL0     C44887   7.923   6.375   7.202  0.2943  0.3788  0.0397
  333MOL0     H44888   7.664   6.684   6.857 -3.0658  0.6490  2.0288
  333MOL0     H44889   7.518   6.917   6.863 -0.6615  0.7589  0.1796
  333MOL0     H44890   7.472   7.274   7.070  0.6005  0.3760  0.3232
  333MOL0     H44891   7.628   7.213   7.137  0.8199  1.0754  0.6890
  333MOL0     H44892   7.724   7.329   6.913  1.2573  0.6996  1.3730
  333MOL0     H44893   7.565   7.393   6.895 -0.3492  0.8004  0.3410
  333MOL0     H44894   7.729   7.442   7.129  0.2966 -3.5987 -0.2711
  333MOL0     H44895   7.715   7.544   6.978  0.3991 -1.5501  0.1131
  333MOL0     H44896   7.467   7.491   7.153 -0.6343 -0.9890 -0.9167
  333MOL0     H44897   7.556   7.630   7.157 -2.8656 -0.9853  1.4360
  333MOL0     H44898   7.530   7.674   6.907 -1.7971  1.9891 -0.7312
  333MOL0     H44899   7.422   7.536   6.897 -2.4585  1.7135 -0.8896
  333MOL0     H44900   7.309   7.743   6.891  0.8486  0.4855  0.3017
  333MOL0     H44901   7.257   7.658   7.031  0.6275 -4.4342 -2.0141
  333MOL0     H44902   7.346   7.839   7.155 -1.6564 -1.1237 -0.6609
  333MOL0     H44903   7.497   7.845   7.057  0.5977 -3.1319 -0.1870
  333MOL0     H44904   7.303   8.042   7.076  4.7184 -0.1241  1.5586
  333MOL0     H44905   7.237   7.959   6.937  0.2972 -0.3774 -0.0882
  333MOL0     H44906   7.447   7.918   6.733  1.8920  0.8350 -2.2619
  333MOL0     H44907   7.727   8.053   6.632  0.2251 -2.5067 -1.8467
  333MOL0     H44908   7.583   8.053   6.524  0.6633 -0.3750 -0.3587
  333MOL0     H44909   7.709   8.303   6.639  2.9550 -0.5219 -1.6746
  333MOL0     H44910   7.554   8.297   6.562  0.0117  1.7515 -0.2653
  333MOL0     H44911   7.839   8.236   6.439  0.2412  0.0726 -0.8245
  333MOL0     H44912   7.750   8.383   6.414  0.9385 -0.3497  1.4256
  333MOL0     H44913   7.677   8.112   6.309 -1.8823 -0.5757  3.1195
  333MOL0     H44914   7.735   8.263   6.221  0.2788 -0.9754  0.7992
  333MOL0     H44915   7.517   8.302   6.058  1.6109 -1.0053  0.8698
  333MOL0     H44916   7.320   8.553   5.883 -0.5305 -3.3166 -1.1429
  333MOL0     H44917   7.486   8.586   5.851 -1.4614 -1.0788 -2.9899
  333MOL0     H44918   7.414   8.414   5.878 -4.6447  0.9935 -2.0175
  333MOL0     H44919   7.271   9.006   6.074 -0.9493  1.6298  0.1118
  333MOL0     H44920   7.219   9.218   5.956  0.3528  0.7610 -1.5479
  333MOL0     H44921   7.098   9.318   5.815  0.6020  1.0707  1.6532
  333MOL0     H44922   7.228   9.432   5.766 -2.5848  2.0775  0.3559
  333MOL0     H44923   7.089   9.527   5.646 -0.8326  0.2086 -1.2810
  333MOL0     H44924   7.131   9.405   5.534 -0.0833  1.1618 -0.0947
  333MOL0     H44925   6.880   9.447   5.546  0.8479 -2.1892 -3.0825
  333MOL0     H44926   6.883   9.393   5.707  2.7988  2.3621  0.5308
  333MOL0     H44927   7.015   9.199   5.506  0.9010  2.2078  0.9393
  333MOL0     H44928   6.931   9.170   5.648 -1.3745  0.4321 -0.0367
  333MOL0     H44929   6.805   9.145   5.395 -2.2929 -0.0240 -0.4585
  333MOL0     H44930   6.771   9.309   5.436 -3.7074  0.8934  1.8590
  333MOL0     H44931   6.598   9.148   5.479  1.1773 -0.2794 -0.8268
  333MOL0     H44932   6.685   9.072   5.611 -4.9515 -0.6414 -0.4507
  333MOL0     H44933   6.563   9.351   5.609  0.0671 -0.0881  0.8922
  333MOL0     H44934   6.692   9.319   5.726 -2.3491  2.4093  0.7614
  333MOL0     H44935   6.527   9.156   5.838  0.5042 -0.0765  1.4132
  333MOL0     H44936   6.432   9.170   5.687  0.8340  0.5317  0.7493
  333MOL0     H44937   7.390   9.054   5.599 -3.6019  0.0300 -0.8979
  333MOL0     H44938   7.437   8.821   5.740  0.5606  0.1040  1.9761
  333MOL0     H44939   7.454   8.689   6.355 -3.4151  0.1624 -0.2268
  333MOL0     H44940   7.519   8.465   6.435  0.0683  0.6004  0.3067
  333MOL0     H44941   7.833   7.116   7.043  1.2916 -0.0805  0.4355
  333MOL0     H44942   7.968   6.892   7.046  0.8235 -0.4356 -2.8591
  333MOL0     H44943   8.022   6.442   6.890  0.6772 -1.6702 -0.2683
  333MOL0     H44944   8.047   6.200   6.883  1.0584 -0.1806  0.4755
  333MOL0     H44945   8.061   5.993   7.269  4.4011 -0.3527 -3.4072
  333MOL0     H44946   7.888   5.968   7.222  0.5278  1.9863 -1.0714
  333MOL0     H44947   7.929   5.760   7.138  0.1241  1.5620 -1.3446
  333MOL0     H44948   8.010   5.776   7.287  1.2043  1.7213  1.8846
  333MOL0     H44949   8.229   5.805   7.178  0.5316  2.6646  1.3737
  333MOL0     H44950   8.155   5.835   7.015 -0.2867 -2.4745 -1.5674
  333MOL0     H44951   8.085   5.602   7.016 -2.6451  0.5463  3.1976
  333MOL0     H44952   8.137   5.573   7.170  1.8546 -1.2370 -1.4498
  333MOL0     H44953   8.497   5.515   6.954  1.0859  1.0700  2.2972
  333MOL0     H44954   7.957   6.183   7.303  0.6805 -1.0595  0.2271
  333MOL0     H44955   7.893   6.422   7.294 -1.8110 -0.9174  0.0881
  334MOL0     O44956   4.921   4.678   6.278  0.2130  0.5659  0.0511
  334MOL0     C44957   4.899   4.551   6.281 -0.3123  0.6560  0.3074
  334MOL0     O44958   4.980   4.446   6.229  0.9421  0.6230  0.4673
  334MOL0     C44959   5.110   4.478   6.185  0.7413 -0.0358  0.1969
  334MOL0     C44960   5.199   4.577   6.232 -0.5502  0.3517 -0.0263
  334MOL0     C44961   5.318   4.609   6.168 -0.0477  0.0527  0.1309
  334MOL0     C44962   5.370   4.526   6.063  0.2623  0.3294 -0.1892
  334MOL0     O44963   5.495   4.560   6.015  0.5500 -0.0306 -0.2350
  334MOL0     C44964   5.573   4.460   5.967 -0.1257  0.5626 -0.2764
  334MOL0     C44965   5.698   4.533   5.905 -1.3867 -0.1705 -0.3306
  334MOL0     C44966   5.805   4.450   5.849  0.5377  0.1515 -0.5852
  334MOL0     C44967   5.916   4.537   5.794  1.1986  0.8526 -0.5592
  334MOL0     C44968   6.032   4.447   5.752 -0.9011 -0.2062 -0.7607
  334MOL0     C44969   6.159   4.530   5.741  1.4836  0.2040 -1.1020
  334MOL0     C44970   6.253   4.458   5.639  0.2324 -0.4818 -0.4296
  334MOL0     C44971   6.391   4.514   5.622 -0.6952  0.4769 -0.4122
  334MOL0     N44972   6.477   4.442   5.530 -0.2104 -0.4867 -1.2610
  334MOL0     C44973   6.619   4.422   5.549 -0.5643 -0.8614 -0.0538
  334MOL0     C44974   6.646   4.350   5.437  0.6170  0.3490 -0.7858
  334MOL0     C44975   6.792   4.317   5.414 -0.5381 -0.3826  0.8278
  334MOL0     C44976   6.848   4.400   5.298  1.4731  0.4041  0.0187
  334MOL0     C44977   6.864   4.548   5.328  0.9391 -0.7125 -0.0062
  334MOL0     C44978   6.962   4.572   5.440  0.3577 -0.6942 -0.6080
  334MOL0     O44979   6.998   4.711   5.447 -0.5718 -0.8741  0.1964
  334MOL0     C44980   6.906   4.807   5.470 -0.8562 -0.5959 -0.3521
  334MOL0     C44981   6.942   4.929   5.419 -0.3342 -0.0478  0.0528
  334MOL0     C44982   6.860   5.040   5.434 -0.3929 -1.0898  0.1184
  334MOL0     C44983   6.897   5.176   5.370 -0.2764 -0.3986 -0.0414
  334MOL0     C44984   6.735   5.029   5.493 -0.0550  0.2322 -0.2264
  334MOL0     C44985   6.650   5.142   5.524  0.2403  0.6996  0.3342
  334MOL0     O44986   6.572   5.182   5.421 -0.4914 -0.6757  0.0943
  334MOL0     C44987   6.463   5.250   5.469  0.0198 -0.7333 -0.4413
  334MOL0     C44988   6.343   5.185   5.502  0.7988 -0.0084 -0.2311
  334MOL0     C44989   6.237   5.268   5.541 -0.5627 -0.2808 -0.4064
  334MOL0     C44990   6.247   5.406   5.542 -0.5459 -0.3999 -0.4722
  334MOL0     O44991   6.145   5.493   5.561 -0.0258  0.0162  0.1797
  334MOL0     C44992   6.039   5.443   5.644 -1.3437 -0.1645 -0.3615
  334MOL0     C44993   5.943   5.560   5.655 -0.3427  0.1281  0.1289
  334MOL0     C44994   5.861   5.598   5.534 -0.6083  0.3817  0.2307
  334MOL0     C44995   5.787   5.733   5.558  0.1198  0.2930  1.0493
  334MOL0     C44996   5.734   5.784   5.429 -0.1868  0.8197  0.3914
  334MOL0     C44997   5.667   5.916   5.446 -0.5405  0.1306 -0.4659
  334MOL0     C44998   5.590   5.959   5.322 -0.9348  0.2434 -0.4933
  334MOL0     C44999   5.670   6.014   5.199 -1.1639  0.1642 -0.2294
  334MOL0    Cl45000   5.753   6.169   5.241 -0.9424  0.4641 -0.2262
  334MOL0     C45001   6.359   5.469   5.496 -0.1040  0.2241  1.4073
  334MOL0     C45002   6.469   5.394   5.463 -0.3467 -0.0995 -0.1735
  334MOL0     O45003   6.650   5.172   5.644 -0.0915 -0.3918 -0.0455
  334MOL0     C45004   6.688   4.903   5.536 -0.6005 -0.0034  0.4255
  334MOL0     C45005   6.777   4.791   5.524 -0.0160  0.6862  0.2956
  334MOL0     N45006   6.529   4.328   5.358 -0.5689 -0.3906  0.2464
  334MOL0     N45007   6.434   4.369   5.429 -0.5501 -0.0847  0.8045
  334MOL0     C45008   5.292   4.421   6.020 -0.2266 -0.7852  0.5534
  334MOL0     C45009   5.166   4.398   6.081 -0.0474 -0.2678 -0.9524
  334MOL0     C45010   4.798   4.508   6.386  0.6207  0.0940 -0.3185
  334MOL0     C45011   4.806   4.378   6.443  0.4337  0.7035 -0.0050
  334MOL0     C45012   4.703   4.328   6.523 -0.2367 -0.3126  0.2100
  334MOL0     C45013   4.588   4.405   6.553 -0.5397  0.0128 -0.5756
  334MOL0     O45014   4.498   4.371   6.651 -0.1906 -0.1524  0.5565
  334MOL0     C45015   4.513   4.238   6.701  0.2095  0.9252 -0.0138
  334MOL0     C45016   4.381   4.183   6.777  0.2565  0.4329  0.2002
  334MOL0     C45017   4.359   4.231   6.924  0.0571 -0.3039  0.7503
  334MOL0     C45018   4.438   4.130   7.019  0.0245 -0.4727  1.3459
  334MOL0     C45019   4.359   4.046   7.103 -0.1452  0.1465 -1.3875
  334MOL0     C45020   4.293   3.981   7.185 -0.3751  0.2548  0.1063
  334MOL0     C45021   4.589   4.531   6.495  0.1841 -0.3401  0.0579
  334MOL0     C45022   4.686   4.582   6.415  0.1750 -0.5559  0.3422
  334MOL0     H45023   5.171   4.629   6.323 -0.6648 -1.6438  1.1550
  334MOL0     H45024   5.375   4.697   6.196  1.4213 -1.0765  0.7784
  334MOL0     H45025   5.607   4.396   6.050  2.4688  1.6082 -0.4363
  334MOL0     H45026   5.528   4.405   5.884  1.2885 -1.7011  0.3697
  334MOL0     H45027   5.657   4.592   5.822 -3.0398 -2.2466 -1.0941
  334MOL0     H45028   5.746   4.590   5.985  0.7635 -1.0114 -0.9527
  334MOL0     H45029   5.842   4.382   5.926  0.0199 -2.6052 -2.6121
  334MOL0     H45030   5.762   4.379   5.778  1.0653 -2.3424  1.4434
  334MOL0     H45031   5.876   4.586   5.704  1.8683 -0.5593 -1.6512
  334MOL0     H45032   5.945   4.613   5.867  3.5581 -3.1737  3.0729
  334MOL0     H45033   6.043   4.367   5.826 -1.8370 -0.1498 -0.5453
  334MOL0     H45034   6.004   4.401   5.657  2.1109 -0.4997 -1.6048
  334MOL0     H45035   6.128   4.626   5.700  1.1972  0.0617 -1.2198
  334MOL0     H45036   6.211   4.541   5.837 -1.1156  0.0214  0.3996
  334MOL0     H45037   6.269   4.356   5.677  1.0933  0.8142  3.0210
  334MOL0     H45038   6.206   4.460   5.540  2.4459  0.2452 -1.5358
  334MOL0     H45039   6.440   4.535   5.718 -1.4044  3.2215 -0.5644
  334MOL0     H45040   6.383   4.613   5.575 -0.2839 -0.5453 -2.7671
  334MOL0     H45041   6.677   4.459   5.633  1.1987 -3.1953 -0.1756
  334MOL0     H45042   6.858   4.319   5.501  1.2741  0.8671 -0.5070
  334MOL0     H45043   6.780   4.215   5.378  1.1281 -0.8510  1.4803
  334MOL0     H45044   6.790   4.376   5.208 -1.6387 -2.4283  2.5200
  334MOL0     H45045   6.941   4.351   5.269 -0.3972 -1.4234 -3.4750
  334MOL0     H45046   6.769   4.600   5.341  0.0997 -1.7211 -1.7319
  334MOL0     H45047   6.904   4.592   5.236  0.3265  2.6216  1.2028
  334MOL0     H45048   7.050   4.510   5.418  0.2012 -1.2331  0.2376
  334MOL0     H45049   6.923   4.529   5.532  0.8634 -2.3020 -1.1161
  334MOL0     H45050   7.033   4.936   5.360 -1.1562  2.7157 -0.9876
  334MOL0     H45051   6.973   5.212   5.440  0.5088  1.8139 -1.9167
  334MOL0     H45052   6.942   5.166   5.270 -2.4640 -4.3041 -0.8397
  334MOL0     H45053   6.824   5.257   5.361 -0.6460 -0.5926  1.0734
  334MOL0     H45054   6.351   5.077   5.502  2.2232  0.0406 -2.1892
  334MOL0     H45055   6.143   5.222   5.573 -0.1968 -1.8428 -1.4686
  334MOL0     H45056   5.995   5.359   5.589 -1.9885  0.8576 -1.4702
  334MOL0     H45057   6.083   5.418   5.741  3.2774  0.6182 -2.0315
  334MOL0     H45058   5.881   5.551   5.745 -1.2867  1.2576 -0.3827
  334MOL0     H45059   6.004   5.643   5.693 -2.0368  0.5279  2.1746
  334MOL0     H45060   5.795   5.511   5.531  3.7990 -3.4728  1.8241
  334MOL0     H45061   5.921   5.608   5.443  2.1370 -1.6046  1.6725
  334MOL0     H45062   5.718   5.733   5.643  0.4508  0.4529  1.3182
  334MOL0     H45063   5.876   5.789   5.590  1.2858 -2.2944  2.6999
  334MOL0     H45064   5.670   5.701   5.400  0.6464 -0.4875  2.1363
  334MOL0     H45065   5.812   5.794   5.353  0.5519  0.7535  1.1320
  334MOL0     H45066   5.605   5.910   5.536  1.2493 -0.5253  0.7967
  334MOL0     H45067   5.739   5.991   5.478  0.7938 -1.1596 -0.3322
  334MOL0     H45068   5.512   6.034   5.336  0.0877  1.0315  1.2498
  334MOL0     H45069   5.541   5.866   5.289 -0.3626 -0.0841 -0.4352
  334MOL0     H45070   5.598   6.028   5.118 -1.8392 -0.8281  0.1905
  334MOL0     H45071   5.736   5.930   5.176 -2.6783 -1.6443  1.6975
  334MOL0     H45072   6.369   5.576   5.484  3.9335 -0.1554  0.0346
  334MOL0     H45073   6.556   5.442   5.419 -0.3064  1.4095  1.4634
  334MOL0     H45074   6.588   4.889   5.575 -2.7323 -2.6988 -5.0471
  334MOL0     H45075   6.740   4.693   5.551 -0.4267  0.1361 -2.0622
  334MOL0     H45076   5.328   4.351   5.946 -2.1153 -1.3439  0.1144
  334MOL0     H45077   5.110   4.313   6.044 -1.3396  1.8945 -4.5495
  334MOL0     H45078   4.899   4.322   6.445 -0.1987 -0.3701 -0.2479
  334MOL0     H45079   4.714   4.230   6.568  0.1593 -0.7335 -0.7884
  334MOL0     H45080   4.531   4.165   6.621 -1.3688 -0.2032  0.6280
  334MOL0     H45081   4.599   4.220   6.766 -1.2286 -0.0924  1.7010
  334MOL0     H45082   4.374   4.074   6.780  1.9696  0.3209  3.0435
  334MOL0     H45083   4.296   4.215   6.716  0.5593 -0.4548 -0.7178
  334MOL0     H45084   4.255   4.233   6.956 -0.1301 -1.5608  0.2773
  334MOL0     H45085   4.405   4.331   6.921 -3.7595  1.6930 -3.2577
  334MOL0     H45086   4.490   4.199   7.087  1.8696 -0.7771  0.3209
  334MOL0     H45087   4.503   4.061   6.965 -1.5679 -1.0204  0.0631
  334MOL0     H45088   4.258   3.912   7.259  1.3275 -2.6206 -1.6034
  334MOL0     H45089   4.501   4.585   6.527 -0.5187 -1.0090 -0.7067
  334MOL0     H45090   4.686   4.682   6.372 -1.0123 -1.1325 -1.0699
  335MOL0     O45091   5.010   3.209   4.009  0.2071 -0.4403 -0.5627
  335MOL0     C45092   4.917   3.203   4.085 -0.9068 -0.5577  0.5883
  335MOL0     O45093   4.925   3.242   4.215 -0.3692  0.2524 -0.3233
  335MOL0     C45094   5.022   3.324   4.270  0.4429 -0.1459 -1.7654
  335MOL0     C45095   5.152   3.285   4.269  0.5218 -0.0534 -0.5318
  335MOL0     C45096   5.255   3.351   4.336 -0.5036 -0.3759  0.3388
  335MOL0     C45097   5.219   3.462   4.413  1.1091 -0.5162 -0.6473
  335MOL0     O45098   5.297   3.547   4.482  0.1363 -0.2802  0.3962
  335MOL0     C45099   5.372   3.488   4.589  0.0584 -0.1749  0.4563
  335MOL0     C45100   5.314   3.537   4.725 -0.2932 -0.5073 -0.0830
  335MOL0     C45101   5.183   3.459   4.772 -0.9734  0.5907 -0.6837
  335MOL0     C45102   5.073   3.530   4.845 -0.1805 -0.1242  0.3679
  335MOL0     C45103   4.964   3.431   4.889  0.0323 -0.3106 -0.2590
  335MOL0     C45104   4.859   3.509   4.974  0.0945 -0.4474  0.4282
  335MOL0     C45105   4.755   3.410   5.010  0.1261  0.3075  0.5318
  335MOL0     C45106   4.651   3.469   5.104  0.0979 -0.4066 -0.0657
  335MOL0     N45107   4.557   3.358   5.122  0.8092  0.1302  0.2067
  335MOL0     C45108   4.588   3.253   5.208 -0.4794  0.0223  1.4881
  335MOL0     C45109   4.469   3.184   5.225 -0.1964 -0.2897  0.1164
  335MOL0     C45110   4.452   3.076   5.331 -0.1451 -1.1216 -0.2610
  335MOL0     C45111   4.450   2.938   5.283  0.3026  0.3483  0.7277
  335MOL0     C45112   4.403   2.838   5.392 -0.4587 -0.1775  0.0907
  335MOL0     C45113   4.377   2.693   5.344 -0.8046 -0.0082 -0.3262
  335MOL0     O45114   4.344   2.628   5.469  0.3254 -0.7258  0.9524
  335MOL0     C45115   4.370   2.497   5.491  0.5078  0.5225  0.3336
  335MOL0     C45116   4.276   2.417   5.562 -0.7727  0.1527  0.2275
  335MOL0     C45117   4.293   2.280   5.573  0.7784  0.1700 -0.5623
  335MOL0     C45118   4.177   2.207   5.633  0.6434 -0.2473 -0.3547
  335MOL0     C45119   4.407   2.218   5.534 -0.5723  0.8582 -0.7635
  335MOL0     C45120   4.444   2.079   5.569  0.3404 -0.0300 -0.1978
  335MOL0     O45121   4.540   2.056   5.655 -1.1394  0.1753 -0.5898
  335MOL0     C45122   4.559   1.937   5.726 -0.2597 -0.4784  1.1843
  335MOL0     C45123   4.685   1.883   5.749 -0.4998  0.4481 -0.5172
  335MOL0     C45124   4.694   1.753   5.814  0.6474 -1.6842 -0.0052
  335MOL0     C45125   4.589   1.672   5.847  0.0067 -0.8599 -0.3410
  335MOL0     O45126   4.618   1.543   5.889  0.0339  0.0528 -0.4829
  335MOL0     C45127   4.516   1.473   5.960 -0.3402  0.3932 -1.1846
  335MOL0     C45128   4.587   1.342   6.002  0.0994 -0.7129  0.6706
  335MOL0     C45129   4.708   1.374   6.116  0.4441  1.3571  0.8053
  335MOL0     C45130   4.674   1.310   6.248  0.0444  0.3228  0.8784
  335MOL0     C45131   4.792   1.328   6.345 -0.0912 -0.4348 -0.1864
  335MOL0     C45132   4.821   1.467   6.409  0.8264 -0.5058 -0.0326
  335MOL0     C45133   4.951   1.476   6.491 -0.0279 -0.1110  0.1689
  335MOL0     C45134   4.959   1.598   6.581 -0.0924  0.1764 -0.6543
  335MOL0    Cl45135   4.822   1.608   6.680  0.0917  0.1264 -0.0469
  335MOL0     C45136   4.464   1.732   5.833 -0.5916  1.0476  0.3900
  335MOL0     C45137   4.448   1.858   5.773  0.7921 -0.7272  0.1900
  335MOL0     O45138   4.373   1.996   5.508  0.3932 -0.7800 -0.2331
  335MOL0     C45139   4.515   2.292   5.474 -0.0379  0.5178  0.5443
  335MOL0     C45140   4.496   2.433   5.461  0.3045  0.3735  0.4201
  335MOL0     N45141   4.376   3.271   5.182  0.2345  0.4398  0.3469
  335MOL0     N45142   4.425   3.359   5.095 -0.3154 -1.7130  0.0852
  335MOL0     C45143   5.080   3.506   4.416 -0.4383  0.0278 -0.1401
  335MOL0     C45144   4.982   3.437   4.347 -0.3186  0.2338 -0.8517
  335MOL0     C45145   4.795   3.141   4.050  0.1107 -0.5076  0.7497
  335MOL0     C45146   4.783   3.069   3.925  0.3785  0.2288 -0.1533
  335MOL0     C45147   4.665   3.001   3.897 -0.0204 -0.3593  0.2266
  335MOL0     C45148   4.555   3.009   3.982 -0.0162  0.2494  0.7468
  335MOL0     O45149   4.434   2.949   3.956  0.1946 -0.2424 -0.6508
  335MOL0     C45150   4.412   2.864   3.844 -0.2476  0.8303 -0.6318
  335MOL0     C45151   4.267   2.851   3.824  0.3245 -0.4498  0.2222
  335MOL0     C45152   4.225   2.741   3.720 -0.3746  0.8229  0.1137
  335MOL0     C45153   4.286   2.782   3.585  0.0839 -0.1865  0.1163
  335MOL0     C45154   4.247   2.688   3.477  0.9818  0.7886 -0.4801
  335MOL0     C45155   4.214   2.617   3.382  0.6463 -0.1151 -0.1657
  335MOL0     C45156   4.560   3.083   4.104 -0.3582  0.6772  0.4627
  335MOL0     C45157   4.685   3.151   4.137  0.2836  0.5583  0.0320
  335MOL0     H45158   5.168   3.201   4.201  1.0384  0.5339 -1.1592
  335MOL0     H45159   5.359   3.322   4.330 -1.1369 -2.4676 -2.8382
  335MOL0     H45160   5.366   3.380   4.571 -0.8227 -0.4392  2.1541
  335MOL0     H45161   5.478   3.504   4.570  0.3202 -1.3246  0.9087
  335MOL0     H45162   5.397   3.542   4.796 -2.8450 -2.6588  3.3789
  335MOL0     H45163   5.272   3.636   4.708  1.4930  0.9133  2.9727
  335MOL0     H45164   5.137   3.424   4.679 -1.8686  3.2564 -1.3260
  335MOL0     H45165   5.217   3.374   4.833 -1.2858  0.7457 -0.2879
  335MOL0     H45166   5.102   3.595   4.928 -1.2998 -0.5161  1.0918
  335MOL0     H45167   5.034   3.605   4.775  1.5458  2.4992  2.0415
  335MOL0     H45168   4.924   3.386   4.797 -0.3658  2.4558 -1.5419
  335MOL0     H45169   4.987   3.348   4.957 -4.0267 -0.3224  1.3634
  335MOL0     H45170   4.908   3.553   5.062  3.7252 -1.1331 -1.0642
  335MOL0     H45171   4.805   3.589   4.924  0.0056  1.3171  3.1256
  335MOL0     H45172   4.695   3.392   4.920  1.9605 -1.4834 -0.4215
  335MOL0     H45173   4.798   3.313   5.035 -1.1915 -0.7752 -1.1485
  335MOL0     H45174   4.594   3.547   5.053  1.4306 -0.3956 -1.5948
  335MOL0     H45175   4.700   3.510   5.192 -0.3942  2.2929 -0.9530
  335MOL0     H45176   4.684   3.226   5.249 -0.2154 -3.2821 -0.8399
  335MOL0     H45177   4.530   3.093   5.407  0.8317  3.0066 -1.9254
  335MOL0     H45178   4.361   3.089   5.390  1.0719  0.0624  1.4448
  335MOL0     H45179   4.546   2.905   5.241  0.1297  0.2806  0.3789
  335MOL0     H45180   4.371   2.930   5.207  0.4652 -0.3703  0.6280
  335MOL0     H45181   4.308   2.883   5.423 -2.4236 -2.3001 -2.3422
  335MOL0     H45182   4.476   2.829   5.473  2.0479 -2.0687 -2.2020
  335MOL0     H45183   4.463   2.651   5.291 -0.8215  1.3999 -1.5072
  335MOL0     H45184   4.300   2.682   5.267 -1.8365 -1.0497  0.7915
  335MOL0     H45185   4.182   2.463   5.590 -0.9391  3.0324 -4.1827
  335MOL0     H45186   4.159   2.253   5.730  3.4024 -0.0600  0.1502
  335MOL0     H45187   4.094   2.228   5.565  3.5777 -0.2557 -4.2760
  335MOL0     H45188   4.180   2.097   5.634 -0.0994 -0.4968 -4.6719
  335MOL0     H45189   4.774   1.935   5.716  0.8762 -1.6576 -0.2961
  335MOL0     H45190   4.797   1.730   5.836  0.5438 -4.3654 -1.8093
  335MOL0     H45191   4.490   1.539   6.043 -0.4017  1.4175 -1.9916
  335MOL0     H45192   4.425   1.453   5.902  0.4130 -0.1814 -2.1985
  335MOL0     H45193   4.510   1.281   6.051 -1.1835  2.0318  2.3374
  335MOL0     H45194   4.633   1.287   5.920 -0.9963  0.1845 -0.5883
  335MOL0     H45195   4.726   1.481   6.127  0.6685  1.5186 -0.9769
  335MOL0     H45196   4.802   1.330   6.082 -1.9979 -2.9138 -1.3045
  335MOL0     H45197   4.578   1.348   6.285 -1.7787 -2.5967 -0.4399
  335MOL0     H45198   4.660   1.206   6.216 -1.1190  0.2664  1.4909
  335MOL0     H45199   4.880   1.281   6.301 -1.4727 -0.3731 -3.3328
  335MOL0     H45200   4.762   1.258   6.423  0.6055 -1.3943 -0.7675
  335MOL0     H45201   4.835   1.532   6.322  1.9960  0.1813  0.6444
  335MOL0     H45202   4.733   1.502   6.462  2.2505  0.5800  1.7226
  335MOL0     H45203   5.037   1.458   6.427 -0.5997 -0.4840 -0.5084
  335MOL0     H45204   4.948   1.393   6.563 -1.9087  0.2320  0.5435
  335MOL0     H45205   4.966   1.695   6.531  2.0967  0.5956  0.3773
  335MOL0     H45206   5.049   1.586   6.642 -1.1850  0.0453  0.9934
  335MOL0     H45207   4.375   1.686   5.876 -1.2277 -0.3096 -2.1480
  335MOL0     H45208   4.352   1.909   5.777  0.5394 -1.2280  3.2946
  335MOL0     H45209   4.607   2.242   5.444 -0.0657  1.3133 -0.9386
  335MOL0     H45210   4.560   2.496   5.399 -0.8830  3.0894  1.7995
  335MOL0     H45211   5.040   3.593   4.468  1.1117 -0.2523  1.6130
  335MOL0     H45212   4.876   3.461   4.352 -0.2549  0.4736 -0.6650
  335MOL0     H45213   4.864   3.060   3.853  0.1444  0.4135 -0.4373
  335MOL0     H45214   4.660   2.955   3.799  1.0834  2.3795 -1.2183
  335MOL0     H45215   4.456   2.903   3.752 -0.2433  0.8204 -0.6341
  335MOL0     H45216   4.447   2.764   3.869  0.6684  0.9890 -1.1982
  335MOL0     H45217   4.232   2.945   3.779 -0.6577 -0.2033  1.4356
  335MOL0     H45218   4.207   2.838   3.915 -1.7001  0.6322 -0.8642
  335MOL0     H45219   4.116   2.742   3.713 -0.6143 -2.2401  1.9088
  335MOL0     H45220   4.259   2.639   3.740 -2.7277  0.1694  1.0842
  335MOL0     H45221   4.395   2.783   3.589  0.0612  0.7566  1.4786
  335MOL0     H45222   4.239   2.876   3.555  0.4890  0.3809  1.2190
  335MOL0     H45223   4.172   2.566   3.297 -2.4849 -0.8223  1.6285
  335MOL0     H45224   4.472   3.092   4.167 -0.8991  1.8358 -0.4296
  335MOL0     H45225   4.680   3.206   4.230 -2.7247  0.9367 -0.2441
  336MOL0     O45226  11.401   4.832  10.524  0.4494  0.3884  0.0892
  336MOL0     C45227  11.474   4.754  10.581  0.0854 -0.2427 -0.3593
  336MOL0     O45228  11.469   4.614  10.558  0.2434 -0.2453  0.4651
  336MOL0     C45229  11.405   4.568  10.448 -0.9237  1.5187 -0.0104
  336MOL0     C45230  11.293   4.480  10.463  0.1454  1.0155  0.8554
  336MOL0     C45231  11.213   4.450  10.353  0.5171  0.2438 -0.2637
  336MOL0     C45232  11.233   4.504  10.227 -0.3243 -1.1996 -0.9482
  336MOL0     O45233  11.149   4.467  10.128  0.2291  0.0558  0.0231
  336MOL0     C45234  11.168   4.515   9.997  0.1691 -0.6628 -0.4939
  336MOL0     C45235  11.120   4.654   9.964  0.2305 -0.1772  0.2224
  336MOL0     C45236  11.191   4.714   9.840 -0.5186  0.4840 -0.3606
  336MOL0     C45237  11.109   4.820   9.768  0.1241 -0.7302  0.1635
  336MOL0     C45238  11.117   4.953   9.836  0.1148 -0.2887  0.3080
  336MOL0     C45239  10.981   5.027   9.821  0.2364 -0.6279 -0.0909
  336MOL0     C45240  10.969   5.162   9.892 -0.4915 -0.4810  0.5553
  336MOL0     C45241  10.829   5.223   9.883 -0.0753 -0.9072  0.1500
  336MOL0     N45242  10.809   5.329   9.990 -0.3083  0.0488  0.0840
  336MOL0     C45243  10.866   5.451  10.007 -0.3333 -0.1741  0.1869
  336MOL0     C45244  10.831   5.483  10.131 -0.2380 -0.0426  0.8081
  336MOL0     C45245  10.880   5.605  10.207  0.6724  0.8959  0.2273
  336MOL0     C45246  11.025   5.592  10.248 -0.2009 -0.4893 -0.1335
  336MOL0     C45247  11.066   5.462  10.321  0.7482  0.1830 -1.4884
  336MOL0     C45248  11.133   5.362  10.212 -0.2716  0.7053 -0.6417
  336MOL0     O45249  11.184   5.248  10.285  0.6136  0.0094  0.6543
  336MOL0     C45250  11.271   5.172  10.214  0.6471  0.0622  0.7831
  336MOL0     C45251  11.296   5.187  10.078 -0.3760 -0.3298 -0.8994
  336MOL0     C45252  11.391   5.110  10.013 -0.1256  0.2620  0.7950
  336MOL0     C45253  11.409   5.132   9.867  0.4194  0.0700  0.8172
  336MOL0     C45254  11.447   5.004  10.085  0.0379 -0.5480  0.2415
  336MOL0     C45255  11.555   4.911  10.026  0.4851 -1.0419 -0.0417
  336MOL0     O45256  11.558   4.781  10.071 -0.5577  0.0972  0.4177
  336MOL0     C45257  11.618   4.690   9.986  0.1405 -0.3319  0.3658
  336MOL0     C45258  11.568   4.672   9.853  0.1838  0.2660 -0.1146
  336MOL0     C45259  11.630   4.585   9.768 -0.0544  0.0216  0.2531
  336MOL0     C45260  11.746   4.512   9.812  0.0146  1.7116 -0.5156
  336MOL0     O45261  11.814   4.443   9.716  0.3604  0.3035 -0.3634
  336MOL0     C45262  11.947   4.411   9.736 -0.3543  0.3747 -0.5519
  336MOL0     C45263  12.011   4.372   9.603 -0.3848  0.3850 -0.4944
  336MOL0     C45264  11.986   4.469   9.493 -1.0535  0.1366  0.8491
  336MOL0     C45265  12.040   4.416   9.365  0.1075 -0.9729  0.9869
  336MOL0     C45266  12.053   4.520   9.249 -0.5327  0.1473  0.9711
  336MOL0     C45267  12.098   4.472   9.100  0.7708 -0.0723 -0.5342
  336MOL0     C45268  11.975   4.427   9.020 -0.1418  0.4260  0.6104
  336MOL0     C45269  12.004   4.395   8.871 -0.4965  0.2624 -0.0945
  336MOL0    Cl45270  12.147   4.310   8.846  0.0117  0.5600 -0.2364
  336MOL0     C45271  11.785   4.519   9.946 -0.6266 -0.1486 -0.1365
  336MOL0     C45272  11.726   4.618  10.029 -0.4434 -0.1071  0.5552
  336MOL0     O45273  11.637   4.962   9.948 -0.2293 -0.0708  1.0553
  336MOL0     C45274  11.409   4.980  10.212  0.3110  0.4119  1.0890
  336MOL0     C45275  11.319   5.057  10.271 -0.4197 -0.1755 -0.1564
  336MOL0     N45276  10.745   5.392  10.181  0.1200  0.7426  0.5934
  336MOL0     N45277  10.734   5.297  10.088  0.2306  0.6882 -1.2695
  336MOL0     C45278  11.340   4.593  10.217 -0.3793 -0.3046  0.6695
  336MOL0     C45279  11.431   4.619  10.317 -0.7756 -0.4748  1.0225
  336MOL0     C45280  11.549   4.803  10.699  0.1574  0.2113 -0.6147
  336MOL0     C45281  11.613   4.719  10.794 -0.4098  0.5863 -0.2115
  336MOL0     C45282  11.651   4.768  10.914  0.0130  0.7839  1.7009
  336MOL0     C45283  11.651   4.901  10.946  0.7183  0.0248  0.5577
  336MOL0     O45284  11.719   4.948  11.054  0.0323 -0.1702 -0.3029
  336MOL0     C45285  11.750   5.087  11.070 -0.5539  0.0912  1.5190
  336MOL0     C45286  11.870   5.101  11.168  0.5053  0.1914  0.6036
  336MOL0     C45287  11.829   5.087  11.316  0.1664  0.1436  0.3130
  336MOL0     C45288  11.915   5.170  11.415  0.2328 -0.0797  0.0941
  336MOL0     C45289  12.056   5.152  11.387 -1.0229 -0.0044 -0.4753
  336MOL0     C45290  12.174   5.145  11.355 -0.0459  0.7313 -1.0342
  336MOL0     C45291  11.581   4.988  10.856  0.2425 -0.1841 -0.3870
  336MOL0     C45292  11.524   4.933  10.741 -0.2988  1.0479  0.0001
  336MOL0     H45293  11.272   4.458  10.568 -0.5801  4.1756  1.4870
  336MOL0     H45294  11.138   4.372  10.356  1.6432 -1.0849 -2.9905
  336MOL0     H45295  11.272   4.505   9.964 -0.3260 -0.0693 -2.3967
  336MOL0     H45296  11.105   4.462   9.925 -1.8058  1.5639 -0.5414
  336MOL0     H45297  11.013   4.671   9.950 -0.3467  1.1577  4.5729
  336MOL0     H45298  11.139   4.716  10.052 -1.1303  0.1471  0.3123
  336MOL0     H45299  11.281   4.757   9.885 -0.1126 -1.3395  0.6861
  336MOL0     H45300  11.235   4.640   9.773  1.3254  1.0670  0.1487
  336MOL0     H45301  11.149   4.832   9.667  0.3218  0.1143  0.3315
  336MOL0     H45302  11.003   4.797   9.756  0.1737 -0.1736 -1.5081
  336MOL0     H45303  11.130   4.937   9.944 -0.0241  1.0509  0.5502
  336MOL0     H45304  11.198   5.011   9.791  1.1323 -2.1923 -0.4116
  336MOL0     H45305  10.958   5.031   9.714  2.2411 -0.3261 -0.5432
  336MOL0     H45306  10.905   4.965   9.870 -2.3057  1.9552 -0.5216
  336MOL0     H45307  10.999   5.158   9.998 -1.1100  0.9803  0.8116
  336MOL0     H45308  11.039   5.232   9.846 -0.3017  0.6684  2.4895
  336MOL0     H45309  10.753   5.146   9.897 -1.5655  0.1006 -1.7724
  336MOL0     H45310  10.816   5.269   9.784  0.4186  1.7655  1.2582
  336MOL0     H45311  10.942   5.499   9.946  1.2496  1.6117  3.3490
  336MOL0     H45312  10.879   5.687  10.134 -1.0812 -0.1495 -1.0146
  336MOL0     H45313  10.815   5.627  10.292  1.0015  1.0968  0.4295
  336MOL0     H45314  11.045   5.683  10.306  1.8394 -0.6649 -0.4638
  336MOL0     H45315  11.081   5.602  10.154 -1.5569  0.8002 -0.8519
  336MOL0     H45316  10.980   5.414  10.368  1.4586 -0.9938 -1.3246
  336MOL0     H45317  11.147   5.480  10.392  1.3861  1.1554 -2.4247
  336MOL0     H45318  11.221   5.415  10.174 -0.0135  0.3701 -0.5227
  336MOL0     H45319  11.070   5.324  10.131 -0.6533 -2.6766  1.0709
  336MOL0     H45320  11.247   5.264  10.019 -0.7277  0.0579 -0.1148
  336MOL0     H45321  11.496   5.195   9.848  0.0178  1.8615  4.1006
  336MOL0     H45322  11.409   5.034   9.818 -0.6262 -0.7887  2.4437
  336MOL0     H45323  11.325   5.189   9.827 -0.1156 -1.5848 -0.5156
  336MOL0     H45324  11.487   4.726   9.804  2.6240  1.0421 -3.6441
  336MOL0     H45325  11.590   4.574   9.668  0.0529  4.9321 -0.5945
  336MOL0     H45326  12.001   4.495   9.781  1.4541 -0.1091 -1.6829
  336MOL0     H45327  11.945   4.321   9.798 -0.6561 -2.6284 -4.5052
  336MOL0     H45328  12.119   4.358   9.615 -0.0841  3.1100  0.7877
  336MOL0     H45329  11.973   4.272   9.577  2.7035 -0.6438 -1.5525
  336MOL0     H45330  12.026   4.568   9.515 -0.8837 -0.0200  1.2510
  336MOL0     H45331  11.879   4.484   9.479 -0.7511  0.7550 -1.0929
  336MOL0     H45332  12.142   4.378   9.366  0.7167  0.0586 -2.9947
  336MOL0     H45333  11.989   4.327   9.327  0.7623 -0.8853 -0.1500
  336MOL0     H45334  12.126   4.590   9.290 -2.5998  1.3439  2.8488
  336MOL0     H45335  11.961   4.580   9.242  0.1727  1.6457  3.2352
  336MOL0     H45336  12.144   4.563   9.060  1.5603 -0.9140 -1.6102
  336MOL0     H45337  12.178   4.397   9.096  1.5724  0.8251 -2.0392
  336MOL0     H45338  11.891   4.496   9.026  1.2177  2.4750 -1.8616
  336MOL0     H45339  11.942   4.330   9.058  0.7697 -0.4125 -0.6560
  336MOL0     H45340  12.027   4.489   8.819  3.8092 -0.5726 -0.0310
  336MOL0     H45341  11.917   4.344   8.829  0.2829 -2.6195  1.5106
  336MOL0     H45342  11.869   4.456   9.974 -0.1716 -0.4775 -2.1132
  336MOL0     H45343  11.760   4.641  10.129  0.8829  0.3770  0.0128
  336MOL0     H45344  11.448   4.891  10.260 -1.0087 -0.5950  0.3577
  336MOL0     H45345  11.278   5.026  10.367 -1.7516  0.9995 -0.3141
  336MOL0     H45346  11.367   4.651  10.129  0.7334 -0.4720  0.8841
  336MOL0     H45347  11.522   4.676  10.300 -0.3394 -1.7602 -1.4352
  336MOL0     H45348  11.623   4.613  10.773  0.3595  0.1746  1.9989
  336MOL0     H45349  11.692   4.706  10.993  1.1282 -2.4799 -1.2166
  336MOL0     H45350  11.782   5.125  10.973 -4.3442 -3.1173 -1.2939
  336MOL0     H45351  11.660   5.138  11.107 -2.7658 -1.1819 -1.6989
  336MOL0     H45352  11.906   5.204  11.159 -1.2477  0.8052  0.1132
  336MOL0     H45353  11.939   5.022  11.135 -0.1463 -0.0420 -0.2558
  336MOL0     H45354  11.834   4.986  11.359 -0.7914  0.7372  1.8994
  336MOL0     H45355  11.723   5.115  11.310  0.1533  0.1576  0.6138
  336MOL0     H45356  11.901   5.138  11.519  2.2575  5.1050  2.3120
  336MOL0     H45357  11.877   5.273  11.413 -0.9957 -0.4306  2.3421
  336MOL0     H45358  12.276   5.134  11.323  0.0874 -0.8676 -0.1729
  336MOL0     H45359  11.570   5.093  10.879 -0.9273 -0.5130  0.6267
  336MOL0     H45360  11.456   4.997  10.686 -0.8598  1.0781  0.7142
  337MOL0     O45361   3.127   9.079   8.429  1.0730 -0.6549  0.6085
  337MOL0     C45362   3.127   9.161   8.522  0.2370  0.4892 -0.2694
  337MOL0     O45363   3.233   9.232   8.558  0.3637 -0.1514 -0.3720
  337MOL0     C45364   3.338   9.254   8.470  0.4986 -0.7152  0.9110
  337MOL0     C45365   3.313   9.266   8.326  0.3938  0.1389  0.4957
  337MOL0     C45366   3.415   9.282   8.244  0.5691  0.1545  0.3024
  337MOL0     C45367   3.548   9.274   8.288 -0.4439 -0.0756 -0.6768
  337MOL0     O45368   3.641   9.280   8.188 -0.5504  0.3967  0.2428
  337MOL0     C45369   3.764   9.223   8.218  0.1319  0.3319 -0.3681
  337MOL0     C45370   3.827   9.201   8.082  1.0590  0.0385  0.5706
  337MOL0     C45371   3.944   9.108   8.101 -1.5136  0.4467 -0.1115
  337MOL0     C45372   4.009   9.072   7.962  0.2709 -0.9634  0.6126
  337MOL0     C45373   4.168   9.033   7.960 -0.4592 -0.2664 -0.1935
  337MOL0     C45374   4.247   9.154   7.988 -0.1346 -1.2704  0.9291
  337MOL0     C45375   4.396   9.133   7.995  0.5998  0.3017 -0.3755
  337MOL0     C45376   4.437   9.037   8.111  0.8963 -0.2386  1.0774
  337MOL0     N45377   4.436   9.110   8.242  0.3936  0.2957 -0.4426
  337MOL0     C45378   4.539   9.140   8.326 -0.7676 -0.2850  0.0530
  337MOL0     C45379   4.474   9.172   8.439  0.0320  1.2244  0.6775
  337MOL0     C45380   4.547   9.195   8.569  0.6508 -0.0098  0.0189
  337MOL0     C45381   4.604   9.066   8.629 -0.4479  0.2038  0.3187
  337MOL0     C45382   4.534   9.021   8.759  0.2820 -0.4193  0.0682
  337MOL0     C45383   4.477   8.880   8.764  0.0559  0.0796  0.7317
  337MOL0     O45384   4.594   8.796   8.776  0.0698 -0.6723  0.7762
  337MOL0     C45385   4.549   8.669   8.804 -0.8595  0.0408  0.4960
  337MOL0     C45386   4.497   8.585   8.703 -0.1956 -0.0725 -0.6141
  337MOL0     C45387   4.450   8.453   8.727 -0.7896 -1.1808 -0.7866
  337MOL0     C45388   4.399   8.372   8.611  0.3060  0.1593 -0.1311
  337MOL0     C45389   4.457   8.403   8.863  0.3959 -0.2611  1.0412
  337MOL0     C45390   4.430   8.263   8.889  0.0190  1.0826 -0.5710
  337MOL0     O45391   4.323   8.220   8.953 -0.7608  1.4113  0.3198
  337MOL0     C45392   4.290   8.083   8.972  0.7704 -0.0433  0.2349
  337MOL0     C45393   4.359   7.968   8.946  0.2241 -0.3232 -0.0295
  337MOL0     C45394   4.307   7.838   8.967 -0.4535  0.7737 -1.5551
  337MOL0     C45395   4.179   7.819   8.993  1.4576 -0.5961 -0.8108
  337MOL0     O45396   4.130   7.690   8.974 -0.2289 -0.3693  0.3332
  337MOL0     C45397   4.001   7.673   9.012  1.8765 -0.6678  1.4218
  337MOL0     C45398   3.942   7.529   8.988  0.0765 -0.2872  0.0126
  337MOL0     C45399   4.006   7.413   9.075  0.6479 -0.2280  0.0132
  337MOL0     C45400   4.038   7.443   9.223  0.0846 -0.0205 -0.3903
  337MOL0     C45401   4.093   7.316   9.298  0.0139 -0.0051 -0.1876
  337MOL0     C45402   4.232   7.266   9.251 -0.7862 -0.3759  0.6788
  337MOL0     C45403   4.278   7.137   9.335 -0.3594 -0.8401  0.1669
  337MOL0     C45404   4.243   6.996   9.268 -1.1394 -0.1024 -0.0727
  337MOL0    Cl45405   4.078   6.987   9.192 -0.6363  0.3588 -0.0917
  337MOL0     C45406   4.105   7.932   9.031  0.0196 -0.7747  0.0640
  337MOL0     C45407   4.155   8.069   9.016 -0.3258  0.7666  0.8506
  337MOL0     O45408   4.529   8.187   8.867  0.1906 -0.2323  0.1493
  337MOL0     C45409   4.503   8.490   8.960  0.5511  0.4034 -0.2827
  337MOL0     C45410   4.542   8.624   8.931 -0.5179  0.5262 -0.2140
  337MOL0     N45411   4.335   9.153   8.421 -0.0994  0.1209  0.3164
  337MOL0     N45412   4.318   9.133   8.299 -0.1209  0.0584 -0.6752
  337MOL0     C45413   3.571   9.251   8.431  0.3802 -0.8329  0.4577
  337MOL0     C45414   3.469   9.262   8.518  0.5918 -0.4751 -0.3587
  337MOL0     C45415   3.008   9.167   8.611  0.4140 -0.3130  0.2254
  337MOL0     C45416   2.976   9.278   8.677 -0.2549 -0.4477  0.5925
  337MOL0     C45417   2.855   9.286   8.756  0.2573  0.4198 -0.3553
  337MOL0     C45418   2.775   9.178   8.778 -0.7026 -0.2775 -0.8958
  337MOL0     O45419   2.693   9.194   8.887  0.0124 -0.2943  0.9710
  337MOL0     C45420   2.664   9.079   8.958  0.2639  0.4933 -0.2802
  337MOL0     C45421   2.517   9.041   8.937 -0.6854  0.0550  0.8710
  337MOL0     C45422   2.422   9.159   8.939 -0.4267 -0.4664 -1.3085
  337MOL0     C45423   2.277   9.112   8.939 -0.5333  0.1745 -0.3849
  337MOL0     C45424   2.241   9.042   8.814 -0.2232 -0.0408  0.5809
  337MOL0     C45425   2.207   8.981   8.716 -0.3671  0.8565  0.4597
  337MOL0     C45426   2.801   9.061   8.697  0.2800 -0.8804  0.4000
  337MOL0     C45427   2.912   9.062   8.612 -0.7668  0.8330  0.7245
  337MOL0     H45428   3.210   9.276   8.292  0.1096  2.3807  1.8144
  337MOL0     H45429   3.381   9.301   8.143  1.5103  2.1511  0.3062
  337MOL0     H45430   3.822   9.285   8.288 -1.1049  0.0343  0.9666
  337MOL0     H45431   3.748   9.126   8.266  0.3949 -0.4601 -1.8200
  337MOL0     H45432   3.754   9.160   8.012  1.0793  3.6960 -1.9104
  337MOL0     H45433   3.856   9.293   8.030  1.1756 -1.8327 -2.9437
  337MOL0     H45434   4.010   9.155   8.174 -2.5183  0.0622  1.0834
  337MOL0     H45435   3.923   9.013   8.152  1.2971 -1.1931 -1.7732
  337MOL0     H45436   3.941   8.996   7.923 -0.8403  1.3863 -2.3955
  337MOL0     H45437   3.995   9.152   7.888  1.2343 -3.3095 -2.3041
  337MOL0     H45438   4.187   8.959   8.038 -1.1298  0.5652  0.7868
  337MOL0     H45439   4.194   9.000   7.859 -0.4179 -2.4230  0.4669
  337MOL0     H45440   4.219   9.221   7.906 -2.5158 -0.6671  2.1697
  337MOL0     H45441   4.214   9.209   8.077  2.0844 -0.6859  1.4594
  337MOL0     H45442   4.428   9.083   7.903  0.9352 -0.6891  0.2626
  337MOL0     H45443   4.448   9.229   8.001  1.3939 -0.1915  1.7467
  337MOL0     H45444   4.530   9.001   8.065 -1.5898 -2.6185 -2.5230
  337MOL0     H45445   4.374   8.948   8.110  0.1378 -0.0123 -4.8470
  337MOL0     H45446   4.646   9.134   8.307 -0.4671  3.3000 -0.1444
  337MOL0     H45447   4.637   9.256   8.556  0.9503 -0.0987  1.4914
  337MOL0     H45448   4.478   9.243   8.638 -0.0989 -0.0559 -0.6791
  337MOL0     H45449   4.710   9.077   8.652 -0.5240 -1.5110  1.7183
  337MOL0     H45450   4.604   8.993   8.546 -2.6985  0.1066  0.3218
  337MOL0     H45451   4.446   9.087   8.767  0.6314  0.2027 -1.0078
  337MOL0     H45452   4.608   9.037   8.837  3.1495  0.3297 -2.6027
  337MOL0     H45453   4.417   8.866   8.673  3.6386 -1.6341 -1.5827
  337MOL0     H45454   4.417   8.869   8.855 -0.1992 -1.6607  0.3839
  337MOL0     H45455   4.508   8.616   8.600 -0.3291 -1.3432 -1.0243
  337MOL0     H45456   4.394   8.263   8.625 -2.0020 -0.3175 -3.4302
  337MOL0     H45457   4.299   8.411   8.589  0.7821  1.2644 -0.3872
  337MOL0     H45458   4.464   8.387   8.525  1.7312  2.4113  1.2475
  337MOL0     H45459   4.456   7.993   8.904 -0.8466  3.6975 -0.5382
  337MOL0     H45460   4.361   7.745   8.951  4.3789  3.0070 -0.3722
  337MOL0     H45461   3.981   7.705   9.115  0.5344 -5.1483  2.7879
  337MOL0     H45462   3.940   7.733   8.943  0.4858 -0.9360  2.3804
  337MOL0     H45463   3.837   7.532   9.019  0.7473  0.2253  2.4901
  337MOL0     H45464   3.936   7.497   8.884  0.6824  1.5463 -0.6329
  337MOL0     H45465   4.104   7.394   9.031  0.9667  0.6081  0.3385
  337MOL0     H45466   3.938   7.327   9.074 -3.1831  2.5135  1.2201
  337MOL0     H45467   4.110   7.525   9.220  0.9382 -0.0450  5.7157
  337MOL0     H45468   3.949   7.488   9.269  1.5781  1.9730  0.7449
  337MOL0     H45469   4.023   7.233   9.282  1.8372 -1.5332 -0.6989
  337MOL0     H45470   4.112   7.330   9.405  1.0364 -0.9963 -0.2154
  337MOL0     H45471   4.224   7.257   9.142  4.0912  1.5186 -0.1146
  337MOL0     H45472   4.311   7.338   9.273 -2.0103  0.0643  4.3049
  337MOL0     H45473   4.228   7.128   9.432 -0.4871 -1.8068  0.0291
  337MOL0     H45474   4.386   7.135   9.355  0.2564 -0.8069 -2.7675
  337MOL0     H45475   4.257   6.921   9.346  0.6868 -2.1180 -2.2071
  337MOL0     H45476   4.313   6.977   9.186 -3.0634 -1.0053 -1.5908
  337MOL0     H45477   4.002   7.918   9.062  0.6337 -2.8810  1.3493
  337MOL0     H45478   4.089   8.153   9.040  0.5994  1.3806  1.3087
  337MOL0     H45479   4.507   8.468   9.066  0.9677 -0.2437 -0.4312
  337MOL0     H45480   4.582   8.682   9.014  0.3284 -0.4205  0.0610
  337MOL0     H45481   3.670   9.258   8.474  0.4807  0.3907  0.0699
  337MOL0     H45482   3.488   9.263   8.625 -0.7796 -0.8383 -0.0952
  337MOL0     H45483   3.035   9.367   8.657  0.0750 -0.8069 -0.0770
  337MOL0     H45484   2.815   9.374   8.806  1.0491  1.4555 -1.4631
  337MOL0     H45485   2.732   8.997   8.932  1.1023  1.4779 -1.2349
  337MOL0     H45486   2.664   9.101   9.065 -1.3421  1.5877 -0.4648
  337MOL0     H45487   2.484   8.952   8.992  0.5752 -0.8179  0.2606
  337MOL0     H45488   2.514   9.013   8.832 -0.4542  1.6405  0.4167
  337MOL0     H45489   2.420   9.229   8.855 -2.9481  2.2441  0.7781
  337MOL0     H45490   2.449   9.222   9.025  0.8651 -4.5098  1.5685
  337MOL0     H45491   2.209   9.194   8.961  0.2675  1.4701 -2.5471
  337MOL0     H45492   2.263   9.044   9.024  0.1766  0.0648 -0.3530
  337MOL0     H45493   2.173   8.933   8.627 -3.1289 -1.7357  2.6488
  337MOL0     H45494   2.739   8.973   8.705  1.9401 -2.2204 -0.8240
  337MOL0     H45495   2.924   8.980   8.542  0.5306  1.5362  0.0887
  338MOL0     O45496   9.862   6.010   1.143 -0.0417  0.3678  0.0288
  338MOL0     C45497   9.920   5.904   1.107 -0.6807 -0.1169 -0.1301
  338MOL0     O45498   9.860   5.780   1.103 -0.6312  0.1341 -0.2238
  338MOL0     C45499   9.728   5.780   1.139 -0.1375  0.2851 -0.1503
  338MOL0     C45500   9.696   5.722   1.260 -0.6631  0.6295  0.1378
  338MOL0     C45501   9.566   5.700   1.303  0.4212 -0.1292  0.5149
  338MOL0     C45502   9.457   5.743   1.237 -0.7526 -0.4745 -0.0533
  338MOL0     O45503   9.334   5.726   1.285  0.3020  0.3872 -0.1046
  338MOL0     C45504   9.226   5.724   1.180 -0.7884 -0.3469 -0.5898
  338MOL0     C45505   9.093   5.668   1.226 -0.2538  0.3435 -0.4201
  338MOL0     C45506   9.096   5.530   1.296 -0.0317  0.3608 -0.8074
  338MOL0     C45507   8.953   5.470   1.298 -0.0374 -0.9515  0.5783
  338MOL0     C45508   8.963   5.322   1.339 -0.8183 -0.4613 -0.3774
  338MOL0     C45509   8.823   5.267   1.373 -0.7367 -1.1873 -0.1212
  338MOL0     C45510   8.822   5.119   1.425  0.1831  0.8940  0.5479
  338MOL0     C45511   8.873   5.030   1.313  0.2589  0.2169 -0.0188
  338MOL0     N45512   8.800   4.900   1.318 -0.0410 -1.0756 -0.4849
  338MOL0     C45513   8.672   4.895   1.265  0.1066  0.6796  0.4777
  338MOL0     C45514   8.651   4.759   1.265 -0.6497  0.3226  0.2613
  338MOL0     C45515   8.515   4.694   1.225  0.2743 -0.0210 -0.4146
  338MOL0     C45516   8.513   4.666   1.071 -0.1720  0.0166  0.5315
  338MOL0     C45517   8.367   4.605   1.049 -0.2534 -0.0514  0.1114
  338MOL0     C45518   8.342   4.463   1.095  0.5355 -0.2225 -0.2091
  338MOL0     O45519   8.407   4.360   1.016 -0.2044  0.1811 -0.2863
  338MOL0     C45520   8.373   4.340   0.883 -0.0321  0.3796 -0.5676
  338MOL0     C45521   8.259   4.388   0.825 -0.1917  0.0695  1.1277
  338MOL0     C45522   8.213   4.350   0.702  0.3875  0.2494 -0.6038
  338MOL0     C45523   8.072   4.416   0.668  0.0923  0.7975 -0.3182
  338MOL0     C45524   8.290   4.263   0.618 -0.6331 -0.4788 -0.6333
  338MOL0     C45525   8.256   4.223   0.484 -0.3252  0.4617  0.8739
  338MOL0     O45526   8.372   4.184   0.406  0.2460 -0.6511  0.5096
  338MOL0     C45527   8.342   4.140   0.285  0.2105  1.1567  0.0562
  338MOL0     C45528   8.334   4.006   0.261 -0.4431 -0.6751  0.5454
  338MOL0     C45529   8.315   3.964   0.128  0.2249  0.4264  0.2936
  338MOL0     C45530   8.281   4.054   0.025 -0.4583  0.1189  0.6928
  338MOL0     O45531   8.249   4.016  -0.112 -0.4331 -0.0450 -0.1939
  338MOL0     C45532   8.238   3.873  -0.140 -0.3390 -0.2187 -0.4972
  338MOL0     C45533   8.115   3.795  -0.078 -1.1605  0.2074  0.6180
  338MOL0     C45534   7.982   3.851  -0.086 -0.6537  0.9673  0.1439
  338MOL0     C45535   7.875   3.756  -0.137  0.4341  0.9600  0.3792
  338MOL0     C45536   7.731   3.810  -0.155 -0.4171 -0.2124 -0.2384
  338MOL0     C45537   7.644   3.692  -0.193  0.0391  0.3383  1.1166
  338MOL0     C45538   7.622   3.663  -0.338  0.3825 -0.6405 -0.3252
  338MOL0     C45539   7.595   3.520  -0.368  0.3253 -0.1315  0.1340
  338MOL0    Cl45540   7.748   3.431  -0.376 -0.0962 -0.1317  0.3694
  338MOL0     C45541   8.281   4.196   0.061 -0.2774  1.4728 -0.5363
  338MOL0     C45542   8.323   4.235   0.186  1.2895 -0.4102 -0.1904
  338MOL0     O45543   8.136   4.215   0.449  0.1937 -0.5166 -0.3107
  338MOL0     C45544   8.400   4.206   0.684  0.9215  0.2560 -0.5381
  338MOL0     C45545   8.443   4.245   0.819  0.1637 -0.5098  0.6514
  338MOL0     N45546   8.751   4.693   1.324 -0.2670 -0.1325 -0.9411
  338MOL0     N45547   8.851   4.776   1.352  0.1191 -0.7688 -0.5070
  338MOL0     C45548   9.494   5.807   1.113  0.3816  1.0863 -0.9388
  338MOL0     C45549   9.626   5.830   1.062  0.1669  0.3611  0.7901
  338MOL0     C45550  10.068   5.923   1.070  0.1092  0.0538  0.2643
  338MOL0     C45551  10.127   5.816   1.010  0.6502  0.4095  0.2921
  338MOL0     C45552  10.259   5.822   0.970 -0.0542 -0.0343  0.7936
  338MOL0     C45553  10.341   5.938   1.002  1.0963  0.4726  0.3812
  338MOL0     O45554  10.472   5.929   0.968 -0.2138  0.1609 -0.1834
  338MOL0     C45555  10.558   6.043   0.985 -0.2509  0.1818 -0.1562
  338MOL0     C45556  10.523   6.146   0.880 -0.1413  0.4353 -0.8524
  338MOL0     C45557  10.543   6.105   0.736  0.1851 -0.2732 -0.0060
  338MOL0     C45558  10.676   6.152   0.675 -0.3649 -0.0311  0.8068
  338MOL0     C45559  10.794   6.080   0.719  0.8896  0.5920  0.4281
  338MOL0     C45560  10.892   6.014   0.756  0.1246 -0.2376 -0.5490
  338MOL0     C45561  10.280   6.046   1.075  0.4508 -0.7981  0.7633
  338MOL0     C45562  10.141   6.039   1.105 -0.6356  0.4376 -0.6279
  338MOL0     H45563   9.770   5.658   1.308 -3.1253 -1.2822  1.6481
  338MOL0     H45564   9.553   5.646   1.396 -0.2504  0.8572  1.0165
  338MOL0     H45565   9.216   5.822   1.132  3.6893  1.4537  1.5684
  338MOL0     H45566   9.257   5.656   1.099  0.8040 -0.0817 -0.2427
  338MOL0     H45567   9.067   5.754   1.287  2.1271  2.6133 -2.3694
  338MOL0     H45568   9.022   5.660   1.143 -0.8233 -0.3422  0.1194
  338MOL0     H45569   9.166   5.467   1.240  1.3787 -0.5846  1.8200
  338MOL0     H45570   9.134   5.547   1.398 -2.2306  0.5883  0.0163
  338MOL0     H45571   8.900   5.529   1.372 -0.6133  0.3479 -0.8101
  338MOL0     H45572   8.912   5.495   1.200  1.1386  3.2046  0.9788
  338MOL0     H45573   9.008   5.285   1.246 -0.8212  2.3043 -1.5652
  338MOL0     H45574   9.026   5.305   1.427 -2.3898 -3.1829  0.3256
  338MOL0     H45575   8.776   5.326   1.452 -0.1052 -0.6400 -0.1450
  338MOL0     H45576   8.754   5.267   1.289 -0.5049  1.8888 -0.4199
  338MOL0     H45577   8.894   5.110   1.506 -1.3491 -1.5743  1.7607
  338MOL0     H45578   8.724   5.090   1.465  0.5780  0.5844  1.3015
  338MOL0     H45579   8.979   5.005   1.328  0.6264  0.0533 -2.5544
  338MOL0     H45580   8.843   5.065   1.214 -4.0033 -3.3381 -0.2994
  338MOL0     H45581   8.608   4.980   1.240  0.0724  0.7506  0.7989
  338MOL0     H45582   8.520   4.602   1.283  2.7595 -0.6366 -1.5014
  338MOL0     H45583   8.434   4.762   1.257  2.0137  2.4238 -0.9086
  338MOL0     H45584   8.582   4.589   1.034  0.9648  0.3144  1.9416
  338MOL0     H45585   8.531   4.752   1.007  0.4974 -1.8167 -1.9255
  338MOL0     H45586   8.339   4.606   0.943 -2.1018  0.5541  0.5682
  338MOL0     H45587   8.297   4.670   1.102  0.5347  1.1857 -0.3154
  338MOL0     H45588   8.233   4.455   1.098  0.3267  1.9067 -0.4099
  338MOL0     H45589   8.380   4.449   1.197  0.5709  2.5066  0.2267
  338MOL0     H45590   8.195   4.454   0.882 -0.5730  0.5841  0.1308
  338MOL0     H45591   8.089   4.489   0.589  0.1094  1.3535  0.1927
  338MOL0     H45592   8.005   4.342   0.624  2.5359 -1.8830  0.1203
  338MOL0     H45593   8.020   4.464   0.751 -0.0952  0.0598  0.0035
  338MOL0     H45594   8.364   3.931   0.333 -1.4461 -2.4652 -0.8199
  338MOL0     H45595   8.328   3.858   0.105  0.3000  0.9250 -2.2985
  338MOL0     H45596   8.244   3.862  -0.248 -0.8528  0.8446 -0.6420
  338MOL0     H45597   8.339   3.843  -0.110 -0.9891 -0.4965  1.5922
  338MOL0     H45598   8.102   3.701  -0.133 -0.4506  0.7354 -0.4910
  338MOL0     H45599   8.143   3.769   0.025 -1.1031  0.7139  0.7296
  338MOL0     H45600   7.980   3.926  -0.166  1.5920 -0.9436 -1.8632
  338MOL0     H45601   7.948   3.910  -0.001 -0.3381  1.6243 -0.1779
  338MOL0     H45602   7.913   3.703  -0.224  0.2820 -1.6906  1.8284
  338MOL0     H45603   7.862   3.680  -0.059 -3.8943  3.3115  2.3202
  338MOL0     H45604   7.726   3.898  -0.220  2.7477  1.5323  1.6529
  338MOL0     H45605   7.708   3.857  -0.059  0.9696 -2.4140  1.2541
  338MOL0     H45606   7.679   3.606  -0.136 -3.9837 -1.9666  0.5115
  338MOL0     H45607   7.544   3.714  -0.154  0.0675  1.2324  0.7102
  338MOL0     H45608   7.697   3.696  -0.410 -2.0750  1.1503 -2.2189
  338MOL0     H45609   7.539   3.731  -0.354  1.0640  0.7285  1.5741
  338MOL0     H45610   7.549   3.510  -0.467  4.1357  0.1047 -1.8507
  338MOL0     H45611   7.524   3.480  -0.296 -1.0873 -1.4033 -1.8592
  338MOL0     H45612   8.278   4.275  -0.014 -0.2472  1.5466 -0.4613
  338MOL0     H45613   8.345   4.339   0.209  1.4495 -1.1049  3.5588
  338MOL0     H45614   8.460   4.125   0.643  0.7181 -0.4310  0.5054
  338MOL0     H45615   8.533   4.216   0.873  0.3667  2.4464  2.0763
  338MOL0     H45616   9.414   5.844   1.049  2.0894  0.9983 -3.2354
  338MOL0     H45617   9.644   5.880   0.967  2.4703 -0.4794  0.7200
  338MOL0     H45618  10.069   5.729   0.981  0.5020  1.7313 -4.1331
  338MOL0     H45619  10.309   5.740   0.919 -3.4631 -1.4885 -0.5509
  338MOL0     H45620  10.547   6.075   1.089 -3.3958 -0.3374 -0.2443
  338MOL0     H45621  10.662   6.010   0.975 -0.1934  0.2917  0.0665
  338MOL0     H45622  10.588   6.232   0.898  2.1682 -1.6724  1.8838
  338MOL0     H45623  10.419   6.166   0.906  0.2852  0.9345  0.5629
  338MOL0     H45624  10.465   6.153   0.676  0.8056 -0.3854 -0.9221
  338MOL0     H45625  10.511   6.000   0.729  1.0572 -1.2112  5.4156
  338MOL0     H45626  10.691   6.260   0.687  2.7648 -0.0116 -1.8197
  338MOL0     H45627  10.660   6.145   0.567  0.4056  1.7623  0.5306
  338MOL0     H45628  10.970   5.955   0.799  1.6306  0.3969 -2.2680
  338MOL0     H45629  10.342   6.133   1.094 -1.2358  0.9310 -1.1124
  338MOL0     H45630  10.095   6.127   1.150 -1.1890  0.3886 -1.0851
  339MOL0     O45631   2.902   5.876  11.263 -0.3117 -0.2726  0.6263
  339MOL0     C45632   2.877   5.807  11.163  0.2725 -1.1674 -0.8142
  339MOL0     O45633   2.926   5.829  11.042 -0.9943  0.7369  0.4810
  339MOL0     C45634   2.993   5.944  11.012  0.1399  1.0426 -0.5331
  339MOL0     C45635   2.951   6.011  10.889  0.1229  0.5357 -0.0541
  339MOL0     C45636   3.016   6.116  10.835  0.6200 -0.6108 -0.4162
  339MOL0     C45637   3.125   6.171  10.905  0.1037 -0.1756  0.2597
  339MOL0     O45638   3.184   6.283  10.853 -0.1620  0.2393 -0.1974
  339MOL0     C45639   3.290   6.347  10.925  0.3480  0.1686  0.4392
  339MOL0     C45640   3.344   6.466  10.829 -0.6669  0.2348 -0.2839
  339MOL0     C45641   3.233   6.569  10.816 -0.0160  0.4100 -0.1610
  339MOL0     C45642   3.282   6.714  10.792 -0.3843  1.1373  0.0228
  339MOL0     C45643   3.169   6.804  10.739  1.0900 -0.1626  0.4533
  339MOL0     C45644   3.215   6.949  10.712 -0.2877 -0.5541  0.7558
  339MOL0     C45645   3.282   6.980  10.573  0.1255  1.3288  1.0489
  339MOL0     C45646   3.377   7.098  10.561 -0.2388  0.2261 -0.1490
  339MOL0     N45647   3.328   7.226  10.605 -0.2618  0.4732  0.4079
  339MOL0     C45648   3.372   7.290  10.716  0.1942  0.2247  0.5698
  339MOL0     C45649   3.354   7.423  10.691 -0.0894 -0.3605 -0.0249
  339MOL0     C45650   3.403   7.544  10.781 -0.1541 -0.1279  0.0019
  339MOL0     C45651   3.505   7.618  10.698 -0.3720 -0.9171  0.1442
  339MOL0     C45652   3.610   7.717  10.772  0.4293  0.3135  0.3047
  339MOL0     C45653   3.663   7.808  10.668  0.6909 -0.6105  0.2568
  339MOL0     O45654   3.762   7.897  10.729  0.1069  0.3444  0.3129
  339MOL0     C45655   3.813   7.999  10.655 -0.7500  0.4076 -0.1369
  339MOL0     C45656   3.858   7.985  10.525 -0.1663 -0.8269  0.2791
  339MOL0     C45657   3.930   8.094  10.457  0.7457  1.4963 -0.7764
  339MOL0     C45658   3.995   8.052  10.327  0.5431  0.2630 -0.2837
  339MOL0     C45659   3.940   8.224  10.518  0.5887  0.4768 -0.1191
  339MOL0     C45660   3.996   8.350  10.453 -0.0222  0.4491 -0.3622
  339MOL0     O45661   4.010   8.463  10.532  1.0263 -0.4649  0.4864
  339MOL0     C45662   4.071   8.579  10.475  0.8037  0.1983 -0.4440
  339MOL0     C45663   4.203   8.615  10.505  0.6774  0.3069  0.0640
  339MOL0     C45664   4.264   8.723  10.432  0.0069  0.4559  0.4755
  339MOL0     C45665   4.191   8.799  10.348  0.1960 -0.6152  0.0596
  339MOL0     O45666   4.271   8.874  10.268 -0.0291 -0.9996 -0.4573
  339MOL0     C45667   4.216   8.978  10.177 -0.7640  0.0273 -0.0284
  339MOL0     C45668   4.234   9.120  10.227  0.0273 -0.0603 -0.2340
  339MOL0     C45669   4.226   9.220  10.117  0.3928 -0.0941 -0.4474
  339MOL0     C45670   4.236   9.360  10.173 -0.6020 -0.1131  0.7068
  339MOL0     C45671   4.260   9.472  10.069  0.5842 -0.3645 -0.2262
  339MOL0     C45672   4.356   9.586  10.125  0.4626  0.4798 -0.2673
  339MOL0     C45673   4.385   9.693  10.030 -0.1664  0.1614  0.6772
  339MOL0     C45674   4.355   9.828  10.092  0.1698  0.2347  0.5605
  339MOL0    Cl45675   4.490   9.884  10.197  0.1662 -0.5923  0.4285
  339MOL0     C45676   4.054   8.774  10.330  0.2822  0.0269 -0.9757
  339MOL0     C45677   3.995   8.664  10.395  0.0285 -0.0142  0.5387
  339MOL0     O45678   4.036   8.348  10.332  0.4409 -0.2956 -0.0191
  339MOL0     C45679   3.881   8.228  10.645 -0.4891 -0.5510 -0.5287
  339MOL0     C45680   3.835   8.117  10.717  0.9238  0.0726  0.7788
  339MOL0     N45681   3.281   7.438  10.574  0.1781  0.2892 -0.4168
  339MOL0     N45682   3.252   7.321  10.536  0.8449  0.4730  0.9849
  339MOL0     C45683   3.166   6.116  11.031  0.6814 -1.3522  0.8501
  339MOL0     C45684   3.100   6.005  11.083  0.6013  0.4760 -0.0816
  339MOL0     C45685   2.808   5.676  11.190  0.7251 -0.1106 -0.0718
  339MOL0     C45686   2.717   5.630  11.088 -0.1256  0.2567  0.3200
  339MOL0     C45687   2.665   5.499  11.084 -0.4518 -0.9793  0.2470
  339MOL0     C45688   2.685   5.419  11.195 -0.9761 -0.2192 -0.5415
  339MOL0     O45689   2.632   5.289  11.198  0.3704  0.1933  0.3431
  339MOL0     C45690   2.551   5.267  11.315 -0.9159  0.1319  0.0852
  339MOL0     C45691   2.547   5.121  11.364 -0.4685 -0.0761  0.0527
  339MOL0     C45692   2.696   5.081  11.390  0.4229 -0.1787 -0.7037
  339MOL0     C45693   2.706   4.936  11.441  0.5833 -0.2797  0.2882
  339MOL0     C45694   2.836   4.903  11.512  0.2996  0.6073  0.6317
  339MOL0     C45695   2.934   4.876  11.585 -0.1531 -0.3277  0.3666
  339MOL0     C45696   2.768   5.464  11.303 -0.1810 -0.1922  0.3634
  339MOL0     C45697   2.837   5.589  11.292  0.3910  0.2319  0.4057
  339MOL0     H45698   2.863   5.969  10.840 -0.5252  3.3062 -1.4463
  339MOL0     H45699   2.985   6.154  10.738  1.6288  3.4001  0.6372
  339MOL0     H45700   3.261   6.378  11.025 -0.1883 -3.1043  1.4426
  339MOL0     H45701   3.367   6.270  10.939  1.4394  0.6289 -2.2687
  339MOL0     H45702   3.437   6.505  10.872 -1.2956  3.6382 -1.7215
  339MOL0     H45703   3.357   6.417  10.733  2.6198  5.2190 -2.8033
  339MOL0     H45704   3.181   6.540  10.724  0.6480  0.4235 -0.5461
  339MOL0     H45705   3.170   6.569  10.905  0.5172  1.3825  0.2403
  339MOL0     H45706   3.303   6.754  10.891 -1.6620  1.9534 -0.0081
  339MOL0     H45707   3.376   6.717  10.737 -1.0640  0.1814 -1.2559
  339MOL0     H45708   3.116   6.768  10.650  0.9817 -0.5336  0.6651
  339MOL0     H45709   3.090   6.809  10.815 -0.4625 -1.6370 -0.9834
  339MOL0     H45710   3.136   7.023  10.729  0.2191  0.3203 -0.4719
  339MOL0     H45711   3.290   6.971  10.789 -0.4455  0.9111  0.5284
  339MOL0     H45712   3.352   6.900  10.546  1.4544  2.0065  2.3177
  339MOL0     H45713   3.211   6.986  10.490  1.5433  0.0274 -0.3187
  339MOL0     H45714   3.414   7.098  10.458  0.9544 -2.3624  0.1951
  339MOL0     H45715   3.459   7.066  10.626 -0.4474 -1.6874 -0.7489
  339MOL0     H45716   3.414   7.259  10.811 -1.3062  0.6128  1.3878
  339MOL0     H45717   3.317   7.604  10.811 -1.6993 -3.1862  2.2411
  339MOL0     H45718   3.456   7.514  10.872 -1.3346 -1.0517  0.4023
  339MOL0     H45719   3.454   7.664  10.613  3.0187  0.4077 -1.3664
  339MOL0     H45720   3.578   7.551  10.653  1.4938  1.9538 -1.4419
  339MOL0     H45721   3.690   7.673  10.832  1.6513  0.6426 -1.0309
  339MOL0     H45722   3.557   7.779  10.845 -0.9326  0.2638 -0.6130
  339MOL0     H45723   3.582   7.863  10.620  1.1491  0.8094  1.0569
  339MOL0     H45724   3.717   7.752  10.591 -1.2293 -0.7031 -1.0890
  339MOL0     H45725   3.846   7.881  10.496 -0.8699 -0.4455 -0.8522
  339MOL0     H45726   4.100   8.075  10.343  0.1334  0.6357  2.3745
  339MOL0     H45727   3.982   7.944  10.315 -0.7763  0.1617  1.4939
  339MOL0     H45728   3.960   8.103  10.237  1.3897 -5.1666 -4.1964
  339MOL0     H45729   4.255   8.555  10.579 -0.5588  0.2566  0.9341
  339MOL0     H45730   4.369   8.749  10.441  0.3101 -0.8505  0.9306
  339MOL0     H45731   4.287   8.965  10.094  1.0326 -4.0279  1.8647
  339MOL0     H45732   4.114   8.965  10.142 -0.2385  0.6159 -1.8785
  339MOL0     H45733   4.164   9.134  10.309  1.7376  1.8104  1.0140
  339MOL0     H45734   4.332   9.127  10.276  0.0732 -1.5943 -0.0786
  339MOL0     H45735   4.130   9.221  10.065 -2.1660  0.4477  3.8133
  339MOL0     H45736   4.314   9.203  10.053  0.6175  1.4165 -0.5732
  339MOL0     H45737   4.148   9.387  10.232 -1.5001 -1.3137 -0.0208
  339MOL0     H45738   4.323   9.362  10.239  1.3685  1.6590 -1.7444
  339MOL0     H45739   4.168   9.523  10.039  0.6796 -0.6540 -1.0241
  339MOL0     H45740   4.298   9.436   9.973 -1.8788  3.5421 -2.9529
  339MOL0     H45741   4.307   9.628  10.212 -1.7543  1.1383 -1.7490
  339MOL0     H45742   4.453   9.538  10.142 -1.0813 -2.3069  1.4720
  339MOL0     H45743   4.311   9.691   9.950  0.6784  2.6000 -0.2425
  339MOL0     H45744   4.487   9.694   9.989 -0.9134 -1.8596 -1.4390
  339MOL0     H45745   4.253   9.842  10.131  0.2738  2.0866  0.2736
  339MOL0     H45746   4.351   9.902  10.012  1.5881 -2.3972 -2.1140
  339MOL0     H45747   3.996   8.834  10.260 -0.1332  2.0361  0.9641
  339MOL0     H45748   3.894   8.630  10.374  1.7918 -3.4049 -4.0604
  339MOL0     H45749   3.894   8.324  10.694  1.9850 -1.2510  0.3336
  339MOL0     H45750   3.798   8.117  10.819  0.0192 -0.1509  0.4605
  339MOL0     H45751   3.252   6.153  11.085  0.3418  0.7801  0.0341
  339MOL0     H45752   3.138   5.956  11.171 -1.5953  4.1957  3.2777
  339MOL0     H45753   2.699   5.689  10.999  0.9856  0.1973  0.0339
  339MOL0     H45754   2.613   5.474  10.992 -1.3731  0.8637  0.2302
  339MOL0     H45755   2.575   5.335  11.397 -2.0695 -0.9056  1.3421
  339MOL0     H45756   2.451   5.301  11.284  0.1259  0.8407 -2.7845
  339MOL0     H45757   2.507   5.053  11.288 -1.9631  1.2227 -0.3623
  339MOL0     H45758   2.480   5.105  11.449 -0.7079 -0.1494 -0.1490
  339MOL0     H45759   2.741   5.142  11.469 -0.2901 -1.1320  0.4761
  339MOL0     H45760   2.753   5.091  11.297  0.5739 -1.8650 -0.8285
  339MOL0     H45761   2.692   4.871  11.354 -0.5863 -0.6229  0.7170
  339MOL0     H45762   2.629   4.915  11.516  1.7254  1.1124  1.9318
  339MOL0     H45763   3.029   4.862  11.633  0.3441 -2.3528 -1.0393
  339MOL0     H45764   2.811   5.411  11.387  2.0676  1.0487  0.0988
  339MOL0     H45765   2.917   5.600  11.364  1.6466 -0.8421 -0.7617
  340MOL0     O45766   6.970   2.338  11.295 -0.3193  0.4695 -0.3559
  340MOL0     C45767   7.000   2.428  11.376 -0.3338  0.8223 -0.1801
  340MOL0     O45768   6.911   2.495  11.454 -0.5550  0.7998  0.2511
  340MOL0     C45769   6.782   2.440  11.451  0.2175 -0.5942  0.2887
  340MOL0     C45770   6.669   2.494  11.383 -0.2347 -0.6291  0.3716
  340MOL0     C45771   6.546   2.428  11.398 -0.6051  0.0405 -0.2036
  340MOL0     C45772   6.528   2.304  11.461 -0.7033  1.6317 -0.1420
  340MOL0     O45773   6.409   2.247  11.489 -0.2983 -0.1178  0.3259
  340MOL0     C45774   6.302   2.275  11.400 -0.2902 -0.7437 -0.2503
  340MOL0     C45775   6.203   2.164  11.408 -0.2485 -0.4215  0.6933
  340MOL0     C45776   6.108   2.190  11.527 -0.2839 -0.6598 -0.7719
  340MOL0     C45777   5.974   2.119  11.513  1.5665 -1.1312  0.2600
  340MOL0     C45778   5.916   2.129  11.645 -0.0165 -0.7377  0.6526
  340MOL0     C45779   5.787   2.050  11.665 -0.5652 -0.1489  0.7343
  340MOL0     C45780   5.735   2.075  11.803  0.6520  0.4395 -0.3717
  340MOL0     C45781   5.608   1.998  11.844  0.1051 -0.4812  0.3805
  340MOL0     N45782   5.497   2.054  11.758 -0.4066  0.0386  0.4863
  340MOL0     C45783   5.464   2.192  11.756 -0.4460  1.0097  0.4754
  340MOL0     C45784   5.363   2.203  11.664 -0.1077  0.6960  1.0094
  340MOL0     C45785   5.295   2.319  11.618 -0.2445 -0.6359 -0.1821
  340MOL0     C45786   5.161   2.351  11.701 -0.4506  0.1606 -0.1998
  340MOL0     C45787   5.091   2.473  11.645 -0.2150 -0.0168 -0.2230
  340MOL0     C45788   4.979   2.538  11.744 -1.0782 -0.2429  0.3800
  340MOL0     O45789   5.052   2.597  11.855 -0.2478 -0.6127 -0.2068
  340MOL0     C45790   4.971   2.664  11.948 -0.0467 -1.5315 -0.1371
  340MOL0     C45791   4.828   2.652  11.970  0.9071 -0.1674 -0.8892
  340MOL0     C45792   4.758   2.732  12.059 -0.2530  0.0845 -0.5191
  340MOL0     C45793   4.613   2.716  12.060  0.2756  0.0357 -0.1678
  340MOL0     C45794   4.832   2.824  12.141 -0.2980  0.7149 -0.1021
  340MOL0     C45795   4.772   2.911  12.246  0.4450 -0.3558 -0.9591
  340MOL0     O45796   4.856   2.984  12.338  0.0844  0.2895  0.0704
  340MOL0     C45797   4.832   3.115  12.370 -0.1145  0.5894  0.5296
  340MOL0     C45798   4.947   3.200  12.383  0.3398 -0.4490  1.0323
  340MOL0     C45799   4.932   3.332  12.428 -0.3743  0.1983  0.8671
  340MOL0     C45800   4.808   3.376  12.481 -0.6477 -0.3961 -0.5952
  340MOL0     O45801   4.812   3.500  12.531 -0.4692 -0.4094 -0.0652
  340MOL0     C45802   4.699   3.589  12.511  0.2565  0.9999  0.2867
  340MOL0     C45803   4.719   3.725  12.567  0.3824 -0.5185 -0.5063
  340MOL0     C45804   4.792   3.727  12.705  0.1880  0.2072  0.1803
  340MOL0     C45805   4.782   3.867  12.757  0.3168 -0.0991 -0.7342
  340MOL0     C45806   4.828   3.883  12.901  1.1859 -0.2048  0.6251
  340MOL0     C45807   4.970   3.833  12.913  0.2299 -0.2247 -0.6991
  340MOL0     C45808   5.009   3.863  13.060  0.7668 -0.3256  0.3325
  340MOL0     C45809   5.163   3.829  13.075 -0.3397  0.1482  0.1613
  340MOL0    Cl45810   5.171   3.650  13.082  0.6447  0.3238  0.1127
  340MOL0     C45811   4.704   3.283  12.488  0.9198  0.3423 -0.8241
  340MOL0     C45812   4.720   3.155  12.434 -0.1249  0.0505  0.2613
  340MOL0     O45813   4.647   2.917  12.258  0.5688 -0.1027 -0.6859
  340MOL0     C45814   4.970   2.825  12.129 -0.0607  0.2057 -0.9238
  340MOL0     C45815   5.040   2.752  12.037 -0.0020  0.5494 -0.9345
  340MOL0     N45816   5.337   2.071  11.621 -0.4325  0.0026  0.1368
  340MOL0     N45817   5.423   1.987  11.672  0.0253  0.1125 -0.0906
  340MOL0     C45818   6.643   2.255  11.524 -0.2584  0.3055  1.3673
  340MOL0     C45819   6.771   2.319  11.522  1.0640 -0.0858 -0.2290
  340MOL0     C45820   7.140   2.450  11.394 -0.6180  0.4054  0.1068
  340MOL0     C45821   7.246   2.378  11.321 -0.2851  0.4477  0.0948
  340MOL0     C45822   7.374   2.423  11.329 -0.6594  0.1233  0.3758
  340MOL0     C45823   7.412   2.528  11.415  0.7825 -0.0263  1.8242
  340MOL0     O45824   7.537   2.583  11.414  0.0205  0.6054  0.5078
  340MOL0     C45825   7.633   2.537  11.312  0.3617 -0.9025 -0.8393
  340MOL0     C45826   7.746   2.647  11.307 -0.5019  0.7082 -0.0620
  340MOL0     C45827   7.782   2.719  11.443 -0.8419 -0.6380 -0.0779
  340MOL0     C45828   7.782   2.874  11.432  0.3764 -0.5329 -0.7666
  340MOL0     C45829   7.824   2.940  11.559  0.6410  1.0153  1.3023
  340MOL0     C45830   7.839   2.986  11.663 -0.3947  0.5980  0.9289
  340MOL0     C45831   7.314   2.594  11.488 -0.5535  0.5726  0.0643
  340MOL0     C45832   7.179   2.552  11.478 -0.7920  0.2407 -0.2638
  340MOL0     H45833   6.674   2.590  11.332  0.5272 -1.0809 -0.4277
  340MOL0     H45834   6.459   2.467  11.348  0.2864  2.9333  0.3236
  340MOL0     H45835   6.251   2.370  11.419 -0.2536 -0.4460 -1.5711
  340MOL0     H45836   6.348   2.280  11.301  2.6120  1.7390  1.0651
  340MOL0     H45837   6.135   2.172  11.322 -2.0573  1.7833  2.2201
  340MOL0     H45838   6.248   2.065  11.399 -1.4242 -0.9950  0.8227
  340MOL0     H45839   6.159   2.151  11.615 -1.1433 -2.1375 -0.8944
  340MOL0     H45840   6.090   2.296  11.544  0.3389 -0.6934  0.1471
  340MOL0     H45841   5.906   2.165  11.441  1.5144  0.0534  1.0477
  340MOL0     H45842   5.985   2.014  11.484 -1.0036 -1.0596 -1.2234
  340MOL0     H45843   5.982   2.092  11.724  2.3600 -0.7318 -1.2422
  340MOL0     H45844   5.897   2.234  11.670 -0.7620 -1.1611  1.9830
  340MOL0     H45845   5.725   2.073  11.577  0.2407 -0.8321 -0.0392
  340MOL0     H45846   5.826   1.950  11.639  2.0283  0.7415  0.9064
  340MOL0     H45847   5.813   2.041  11.871  1.0076  0.0422 -0.9652
  340MOL0     H45848   5.713   2.182  11.808 -0.2357  0.5863 -4.2102
  340MOL0     H45849   5.568   2.028  11.941 -3.9157  0.3319 -1.3218
  340MOL0     H45850   5.623   1.891  11.828  2.8431  0.1614 -2.1151
  340MOL0     H45851   5.503   2.272  11.818  0.2538 -0.4810  2.0425
  340MOL0     H45852   5.372   2.395  11.629  0.3438 -1.5470  2.6413
  340MOL0     H45853   5.290   2.313  11.509  0.7306  1.9917 -0.4398
  340MOL0     H45854   5.194   2.386  11.799 -1.1145  0.5416 -0.1095
  340MOL0     H45855   5.096   2.263  11.709 -1.3651  0.7669 -0.7576
  340MOL0     H45856   5.061   2.448  11.543 -0.0152 -1.2181  0.0006
  340MOL0     H45857   5.165   2.554  11.644  0.8831 -0.9791  0.2241
  340MOL0     H45858   4.911   2.458  11.776  0.1378 -1.2037  0.6521
  340MOL0     H45859   4.929   2.625  11.700  1.3655  2.1300  1.9504
  340MOL0     H45860   4.768   2.584  11.910  3.9144 -3.5686 -0.3312
  340MOL0     H45861   4.588   2.693  12.164 -2.1319  3.0929  0.0575
  340MOL0     H45862   4.557   2.807  12.038 -0.5882 -0.3582  0.3613
  340MOL0     H45863   4.560   2.641  12.001 -0.2580 -0.1127  0.4926
  340MOL0     H45864   5.045   3.171  12.348 -0.0519 -0.7810  0.1864
  340MOL0     H45865   5.013   3.404  12.435  0.6342 -0.6709 -0.9950
  340MOL0     H45866   4.690   3.602  12.403 -0.8146  1.3296  0.4089
  340MOL0     H45867   4.609   3.536  12.544 -0.0672  1.0419 -0.5101
  340MOL0     H45868   4.774   3.786  12.495 -2.0896  0.7751 -1.4560
  340MOL0     H45869   4.621   3.768  12.589 -1.7189 -3.7869 -2.5685
  340MOL0     H45870   4.897   3.697  12.697  0.3462  0.1999  1.9067
  340MOL0     H45871   4.740   3.654  12.768  0.3249  0.7082  0.8718
  340MOL0     H45872   4.831   3.926  12.679  0.4498  1.1585  0.2627
  340MOL0     H45873   4.674   3.881  12.759  0.2405 -0.7824  0.4031
  340MOL0     H45874   4.759   3.837  12.974  1.8514 -2.8452 -0.3100
  340MOL0     H45875   4.830   3.988  12.932  1.4209  0.2532 -0.8899
  340MOL0     H45876   4.995   3.730  12.886  1.5854  0.1142 -0.8475
  340MOL0     H45877   5.026   3.891  12.839 -1.3735  1.9648 -0.2946
  340MOL0     H45878   4.947   3.815  13.136  1.3401  1.7737  2.2261
  340MOL0     H45879   4.991   3.969  13.076 -0.9383 -0.2625 -1.6110
  340MOL0     H45880   5.199   3.866  13.171 -0.2209 -2.2058  1.0857
  340MOL0     H45881   5.223   3.869  12.993  0.2848  3.2389  1.9699
  340MOL0     H45882   4.609   3.309  12.532  0.9943 -0.1383 -0.3820
  340MOL0     H45883   4.629   3.096  12.440 -0.8459  1.0987  0.0727
  340MOL0     H45884   5.026   2.902  12.182 -1.6706  1.5185 -1.0755
  340MOL0     H45885   5.148   2.739  12.035 -0.0529 -0.1468 -4.1856
  340MOL0     H45886   6.632   2.158  11.572  0.2364 -1.1899 -1.3373
  340MOL0     H45887   6.855   2.259  11.557 -0.6443 -2.6255 -0.2526
  340MOL0     H45888   7.234   2.307  11.240 -1.1454  0.1816  0.4451
  340MOL0     H45889   7.449   2.367  11.274 -1.8861  0.2948 -1.6007
  340MOL0     H45890   7.681   2.441  11.336 -0.5121 -1.4854 -1.3356
  340MOL0     H45891   7.575   2.526  11.219 -2.1139 -0.4952  0.5725
  340MOL0     H45892   7.719   2.706  11.219 -1.5832 -0.6347 -0.6807
  340MOL0     H45893   7.834   2.590  11.275 -0.1725  1.4100 -0.4259
  340MOL0     H45894   7.887   2.694  11.462 -0.3218  0.5360 -1.2569
  340MOL0     H45895   7.707   2.698  11.519 -2.7962  2.8884 -0.8271
  340MOL0     H45896   7.681   2.905  11.404 -1.1619 -1.6714  2.9429
  340MOL0     H45897   7.853   2.913  11.358  1.6803  0.8851  1.1289
  340MOL0     H45898   7.865   3.016  11.762  2.6437  1.0577  0.0776
  340MOL0     H45899   7.349   2.668  11.559 -0.6770 -0.0644  0.8029
  340MOL0     H45900   7.103   2.614  11.523 -0.5916 -0.1710  0.6547
  341MOL0     O45901   6.070   3.672   0.510  0.5529  0.2138 -0.2284
  341MOL0     C45902   5.959   3.700   0.546  0.1365  1.1022 -0.3159
  341MOL0     O45903   5.929   3.803   0.626 -0.3554 -0.0687 -0.1931
  341MOL0     C45904   6.029   3.906   0.653  1.1638  0.9811  0.6070
  341MOL0     C45905   6.006   4.046   0.641 -0.6372 -0.1551 -0.7958
  341MOL0     C45906   6.121   4.139   0.645  0.0519 -0.0439  0.4292
  341MOL0     C45907   6.253   4.091   0.660  0.5916 -0.2350  1.3829
  341MOL0     O45908   6.366   4.171   0.674 -0.0917  0.5329  0.5763
  341MOL0     C45909   6.379   4.245   0.795  0.5484 -0.1920  0.1836
  341MOL0     C45910   6.447   4.389   0.765  0.2040 -0.1223  0.6903
  341MOL0     C45911   6.604   4.389   0.783 -0.6140 -0.5272  0.4924
  341MOL0     C45912   6.666   4.370   0.645  0.7310  0.0920  0.4683
  341MOL0     C45913   6.819   4.394   0.634  0.2508 -0.5319  0.5044
  341MOL0     C45914   6.863   4.531   0.588  0.6181 -0.2777  0.0609
  341MOL0     C45915   7.011   4.533   0.567 -0.2003  0.6046 -0.2649
  341MOL0     C45916   7.063   4.674   0.528  0.2115  0.0522  0.2073
  341MOL0     N45917   7.207   4.685   0.512 -0.5381  0.2880 -0.1858
  341MOL0     C45918   7.279   4.683   0.397 -0.6561 -0.4782  0.0669
  341MOL0     C45919   7.412   4.702   0.425 -0.4765 -0.9277  0.0798
  341MOL0     C45920   7.526   4.725   0.332  0.4238 -0.0332  0.2684
  341MOL0     C45921   7.553   4.876   0.271 -0.0597  0.2171 -0.8935
  341MOL0     C45922   7.709   4.916   0.263  0.2546  0.3207 -0.4156
  341MOL0     C45923   7.768   4.948   0.405 -0.8838  0.4227  0.4043
  341MOL0     O45924   7.913   4.973   0.382  0.2230 -0.0487  0.2293
  341MOL0     C45925   7.948   5.107   0.370 -0.2395 -0.0877 -0.0763
  341MOL0     C45926   7.909   5.220   0.451  0.2471  0.2380  0.1693
  341MOL0     C45927   7.971   5.340   0.434 -0.3303  0.2092  0.0754
  341MOL0     C45928   7.926   5.437   0.543 -1.2313  0.2904  0.2806
  341MOL0     C45929   8.074   5.357   0.335  0.5471 -0.1379 -0.7582
  341MOL0     C45930   8.149   5.487   0.329  0.0946 -0.0501  0.2474
  341MOL0     O45931   8.181   5.562   0.442  0.0033 -0.1277  0.6071
  341MOL0     C45932   8.258   5.675   0.431 -0.3047 -0.4944 -0.2650
  341MOL0     C45933   8.241   5.776   0.531 -0.9609 -0.0388  0.4287
  341MOL0     C45934   8.321   5.896   0.524 -0.4805  0.3765 -0.3047
  341MOL0     C45935   8.401   5.932   0.418  0.4011  0.4047 -0.8026
  341MOL0     O45936   8.456   6.052   0.412 -0.5479  0.0988  0.0659
  341MOL0     C45937   8.583   6.076   0.340 -0.2472  0.6748 -0.0081
  341MOL0     C45938   8.556   6.135   0.195  0.4869 -0.5108 -0.7460
  341MOL0     C45939   8.676   6.110   0.099 -0.4939 -0.0373  0.3243
  341MOL0     C45940   8.650   6.150  -0.053  0.1072  0.6109 -0.0455
  341MOL0     C45941   8.621   6.297  -0.070  0.6629 -0.0816  0.3920
  341MOL0     C45942   8.514   6.305  -0.188 -0.0035 -0.3114 -0.4604
  341MOL0     C45943   8.448   6.442  -0.189  1.0696 -0.5191  0.3594
  341MOL0     C45944   8.334   6.452  -0.290 -0.2223  0.5816  0.4733
  341MOL0    Cl45945   8.393   6.503  -0.452  0.5965 -0.0697 -0.1348
  341MOL0     C45946   8.417   5.829   0.330  0.1862  0.3059 -0.0753
  341MOL0     C45947   8.360   5.702   0.338 -0.6810 -0.8621 -0.9109
  341MOL0     O45948   8.175   5.520   0.212 -0.1641  0.6010 -0.4405
  341MOL0     C45949   8.113   5.251   0.254  0.1769 -0.1710  0.2567
  341MOL0     C45950   8.046   5.125   0.268 -0.2065 -0.8505 -0.2098
  341MOL0     N45951   7.420   4.717   0.569  0.2215 -0.0074  0.0267
  341MOL0     N45952   7.297   4.712   0.617  0.2400  0.0847 -0.2144
  341MOL0     C45953   6.265   3.962   0.688  0.4650  0.4463  0.2761
  341MOL0     C45954   6.161   3.872   0.691 -0.0921  0.6713 -0.1528
  341MOL0     C45955   5.849   3.601   0.503 -0.8598 -0.6369  0.0028
  341MOL0     C45956   5.853   3.532   0.381  0.0395  0.7993 -0.7045
  341MOL0     C45957   5.740   3.458   0.334 -0.2766  1.2825  0.1827
  341MOL0     C45958   5.627   3.454   0.418  0.1187  0.4277  0.8953
  341MOL0     O45959   5.510   3.387   0.390  0.0086 -0.2913  0.4179
  341MOL0     C45960   5.494   3.290   0.284  0.0815  0.7414 -0.8985
  341MOL0     C45961   5.350   3.245   0.281  0.1452 -0.4541 -0.6580
  341MOL0     C45962   5.281   3.340   0.173 -0.0200  0.0008  0.1226
  341MOL0     C45963   5.133   3.349   0.191  0.4134 -0.1254 -0.3361
  341MOL0     C45964   5.083   3.444   0.091  0.1112 -1.1269  0.0592
  341MOL0     C45965   5.039   3.509  -0.003 -1.0634 -0.3986 -0.1217
  341MOL0     C45966   5.636   3.501   0.544 -0.3976 -0.1410  0.3991
  341MOL0     C45967   5.744   3.582   0.584  0.1496  0.3811 -0.6351
  341MOL0     H45968   5.903   4.080   0.629 -1.0824 -1.4742 -0.8295
  341MOL0     H45969   6.106   4.246   0.633  1.6354  0.0577 -0.9812
  341MOL0     H45970   6.279   4.261   0.835  0.9825 -0.0784  1.2331
  341MOL0     H45971   6.421   4.184   0.875  0.4685 -0.7574 -0.2051
  341MOL0     H45972   6.416   4.423   0.666  1.9984  1.1981  0.5258
  341MOL0     H45973   6.404   4.460   0.836  2.4683  0.5055  1.5362
  341MOL0     H45974   6.652   4.484   0.810  2.7378 -1.6117 -1.0052
  341MOL0     H45975   6.642   4.324   0.862  0.9082  0.5308  0.6971
  341MOL0     H45976   6.650   4.266   0.617  0.0150  1.2837 -4.7216
  341MOL0     H45977   6.613   4.421   0.563 -0.2744 -4.7616 -2.2948
  341MOL0     H45978   6.855   4.373   0.735 -3.3156  4.0432  3.1588
  341MOL0     H45979   6.849   4.319   0.560 -0.1181  0.1156 -0.3249
  341MOL0     H45980   6.815   4.571   0.498 -0.4224  1.7291  1.4278
  341MOL0     H45981   6.843   4.598   0.672 -0.6342  0.8089 -1.0627
  341MOL0     H45982   7.059   4.501   0.660 -1.4290  2.7678  1.2061
  341MOL0     H45983   7.043   4.458   0.495  1.3730 -0.0438  1.0617
  341MOL0     H45984   7.029   4.749   0.600  1.2381  3.0412 -2.1646
  341MOL0     H45985   7.030   4.704   0.428  1.7876  2.2556  0.2663
  341MOL0     H45986   7.244   4.649   0.300 -0.5287 -1.6549  0.4230
  341MOL0     H45987   7.617   4.698   0.386  1.4891 -0.5496 -1.6989
  341MOL0     H45988   7.516   4.660   0.244  0.2643  1.1897 -0.6525
  341MOL0     H45989   7.505   4.944   0.341  2.9159 -0.2218  1.8216
  341MOL0     H45990   7.512   4.877   0.170 -0.2458 -1.2259 -0.8621
  341MOL0     H45991   7.722   5.000   0.195 -3.9813  0.2366 -1.5561
  341MOL0     H45992   7.758   4.835   0.207 -2.5519 -0.1655 -2.3338
  341MOL0     H45993   7.757   4.866   0.476  1.4402 -0.0749  0.2507
  341MOL0     H45994   7.712   5.035   0.441 -1.0610  0.3699  0.2614
  341MOL0     H45995   7.837   5.212   0.532  0.8975 -0.1029  0.7313
  341MOL0     H45996   8.015   5.467   0.598 -0.8933 -2.5199  1.4146
  341MOL0     H45997   7.876   5.519   0.491 -2.7048  0.3910  1.7799
  341MOL0     H45998   7.858   5.390   0.614 -0.8727 -2.2860 -0.9475
  341MOL0     H45999   8.175   5.759   0.616  1.4855 -1.4651  2.1369
  341MOL0     H46000   8.302   5.964   0.607  1.4996  1.9037 -1.0317
  341MOL0     H46001   8.648   6.152   0.384 -1.3152  0.0592  2.8829
  341MOL0     H46002   8.636   5.980   0.337  0.2126  0.8167  2.0672
  341MOL0     H46003   8.466   6.090   0.150 -0.6417  3.0009 -2.3486
  341MOL0     H46004   8.522   6.235   0.222 -4.4964 -2.7813  3.1395
  341MOL0     H46005   8.696   6.002   0.093 -2.0848 -0.3046 -1.3138
  341MOL0     H46006   8.757   6.172   0.136 -0.9442  1.4220 -1.0238
  341MOL0     H46007   8.733   6.125  -0.119  0.9854  0.9314  0.9267
  341MOL0     H46008   8.576   6.076  -0.085  1.1716 -0.5946  0.2291
  341MOL0     H46009   8.717   6.344  -0.093 -0.7311  1.9019 -1.7792
  341MOL0     H46010   8.580   6.336   0.024 -1.2969 -1.2930  0.1078
  341MOL0     H46011   8.560   6.286  -0.285 -0.9469 -2.7795 -0.4838
  341MOL0     H46012   8.440   6.227  -0.169  0.3892 -0.5710  0.0203
  341MOL0     H46013   8.518   6.523  -0.212  1.2388 -0.7985 -0.1326
  341MOL0     H46014   8.413   6.458  -0.086 -0.2753 -0.6793 -0.0470
  341MOL0     H46015   8.263   6.527  -0.253 -1.4051 -0.1814 -0.1832
  341MOL0     H46016   8.273   6.362  -0.288 -1.1134  1.1916  2.3573
  341MOL0     H46017   8.493   5.858   0.258 -1.7375  3.0882 -1.1311
  341MOL0     H46018   8.410   5.631   0.274 -0.4083 -1.9212  0.4362
  341MOL0     H46019   8.198   5.256   0.186  0.6758  1.7904  0.9696
  341MOL0     H46020   8.074   5.034   0.215 -0.1023 -0.4981 -0.7623
  341MOL0     H46021   6.369   3.935   0.701  0.9661  2.4253  0.5832
  341MOL0     H46022   6.183   3.768   0.709 -1.1773  0.3962 -0.3109
  341MOL0     H46023   5.937   3.532   0.312 -0.8759  0.7022 -1.8368
  341MOL0     H46024   5.744   3.392   0.248  0.2995 -1.0901  1.8859
  341MOL0     H46025   5.538   3.322   0.189 -1.8555 -1.9621 -2.8937
  341MOL0     H46026   5.553   3.199   0.300  0.0970  0.6815 -1.2890
  341MOL0     H46027   5.303   3.253   0.379  1.1141  0.6633 -0.2439
  341MOL0     H46028   5.343   3.146   0.236 -0.3969  0.1169 -1.8930
  341MOL0     H46029   5.306   3.317   0.069 -0.6988  0.8125 -0.2369
  341MOL0     H46030   5.320   3.440   0.192  4.7597 -1.3334 -1.2422
  341MOL0     H46031   5.117   3.384   0.293  2.5807  1.5619 -0.4940
  341MOL0     H46032   5.092   3.248   0.179  2.7475 -1.1079 -0.6099
  341MOL0     H46033   4.990   3.565  -0.080 -0.1037  0.3957 -0.1751
  341MOL0     H46034   5.559   3.473   0.615 -0.0039  2.3655  1.9439
  341MOL0     H46035   5.731   3.631   0.681  1.9742  0.0205 -0.1797
  342MOL0     O46036   2.807   7.882   4.679 -0.0503 -1.2021  0.0174
  342MOL0     C46037   2.811   7.974   4.596  0.1713  1.1601  0.2773
  342MOL0     O46038   2.822   7.957   4.459  0.0718 -0.1512 -0.4795
  342MOL0     C46039   2.822   7.828   4.423 -0.7004  0.0414 -0.2089
  342MOL0     C46040   2.947   7.775   4.394  0.1411  0.1967 -0.5794
  342MOL0     C46041   2.949   7.636   4.363  0.0267 -0.5432  0.6182
  342MOL0     C46042   2.839   7.566   4.328 -1.1335  0.7827 -0.2230
  342MOL0     O46043   2.848   7.441   4.271 -0.3189  0.6972  0.4002
  342MOL0     C46044   2.894   7.437   4.133 -0.9453  0.9559  0.9260
  342MOL0     C46045   2.992   7.330   4.096  0.1698 -0.1737 -0.3409
  342MOL0     C46046   3.112   7.317   4.198 -0.2284 -0.8058  0.1239
  342MOL0     C46047   3.145   7.172   4.246  0.5040 -0.3090  0.4087
  342MOL0     C46048   3.051   7.128   4.358  0.4441 -0.3496 -0.3941
  342MOL0     C46049   3.079   7.193   4.492  0.3995  0.8501  0.6543
  342MOL0     C46050   3.226   7.183   4.543 -0.2363  0.2356 -0.9032
  342MOL0     C46051   3.272   7.044   4.576  0.0880  1.0358  0.7723
  342MOL0     N46052   3.205   6.997   4.704 -0.6206  0.1435  0.4976
  342MOL0     C46053   3.207   7.048   4.828  1.0670  0.2303  0.0572
  342MOL0     C46054   3.109   6.992   4.901  0.1508  1.1847  0.8458
  342MOL0     C46055   3.062   7.030   5.040  0.1223 -0.3974  0.3924
  342MOL0     C46056   3.130   6.945   5.143  0.7996 -1.0968 -0.3630
  342MOL0     C46057   3.278   6.968   5.166 -0.3390  0.4726 -0.5981
  342MOL0     C46058   3.311   6.908   5.304 -0.0034 -0.2595  0.1138
  342MOL0     O46059   3.450   6.936   5.334 -0.1965  0.2619 -0.5067
  342MOL0     C46060   3.498   6.917   5.455  0.5082 -1.2753 -0.9833
  342MOL0     C46061   3.638   6.913   5.470  0.5044 -0.8932  0.1732
  342MOL0     C46062   3.703   6.885   5.594 -0.0059 -0.5230  1.1662
  342MOL0     C46063   3.852   6.869   5.589 -0.0005 -0.4310 -0.0203
  342MOL0     C46064   3.625   6.867   5.708  0.2902  0.3398 -0.1770
  342MOL0     C46065   3.671   6.841   5.855 -0.2522 -0.3159  0.0563
  342MOL0     O46066   3.564   6.871   5.950 -0.0220  0.4257  0.0307
  342MOL0     C46067   3.573   6.815   6.073  0.4091  0.2249  0.6749
  342MOL0     C46068   3.472   6.737   6.124  1.3270  0.3967 -0.1077
  342MOL0     C46069   3.475   6.689   6.262 -0.3334  0.1110 -0.4296
  342MOL0     C46070   3.580   6.725   6.348 -0.1221  0.1192  0.0125
  342MOL0     O46071   3.588   6.681   6.475 -0.5938  0.7733  0.1555
  342MOL0     C46072   3.478   6.653   6.562 -0.7595  0.0455  0.1439
  342MOL0     C46073   3.464   6.509   6.587  0.0140  0.4739  0.3740
  342MOL0     C46074   3.337   6.467   6.658  0.3973  1.1858  0.0875
  342MOL0     C46075   3.299   6.314   6.677 -0.6672 -0.4010  0.6842
  342MOL0     C46076   3.156   6.296   6.740  0.1705  0.9768  0.7438
  342MOL0     C46077   3.149   6.344   6.882 -0.4445 -0.2793 -0.6653
  342MOL0     C46078   3.018   6.290   6.950  0.2447  0.3106  0.4024
  342MOL0     C46079   3.037   6.273   7.101  0.7071  0.4757  0.4465
  342MOL0    Cl46080   3.058   6.430   7.173  0.0185 -0.3957 -0.4627
  342MOL0     C46081   3.686   6.790   6.283  0.1376  0.0160  0.9477
  342MOL0     C46082   3.682   6.843   6.153  0.0807 -0.1569  1.3542
  342MOL0     O46083   3.773   6.784   5.873 -0.4681  0.7856  0.2645
  342MOL0     C46084   3.482   6.862   5.694  0.6667 -0.9575  0.2112
  342MOL0     C46085   3.418   6.902   5.574  0.8727  0.6882 -0.0599
  342MOL0     N46086   3.040   6.906   4.815 -0.0140 -0.0870 -0.2307
  342MOL0     N46087   3.107   6.902   4.700 -0.1027 -0.8383  0.7298
  342MOL0     C46088   2.714   7.630   4.331 -0.0742 -0.0804 -0.6419
  342MOL0     C46089   2.699   7.759   4.391 -0.9055  0.4882 -0.2451
  342MOL0     C46090   2.801   8.110   4.647 -0.7926 -0.3486  0.2533
  342MOL0     C46091   2.759   8.218   4.560 -0.1370  0.5726  0.0827
  342MOL0     C46092   2.746   8.344   4.614 -0.0012 -1.3073 -0.2818
  342MOL0     C46093   2.781   8.373   4.750 -0.3006  0.9170  0.7178
  342MOL0     O46094   2.763   8.498   4.815 -0.4781  0.0414 -0.5742
  342MOL0     C46095   2.802   8.619   4.749 -0.3822  0.3936 -0.7771
  342MOL0     C46096   2.752   8.741   4.835  0.3148  0.2606 -0.2905
  342MOL0     C46097   2.600   8.739   4.828  0.1883  0.1753 -0.3639
  342MOL0     C46098   2.542   8.861   4.894 -0.6397 -0.0908 -1.3063
  342MOL0     C46099   2.578   8.993   4.842  0.3412 -0.5822 -0.1056
  342MOL0     C46100   2.613   9.100   4.793  0.9633 -0.1512 -0.4382
  342MOL0     C46101   2.815   8.264   4.830 -0.2578 -0.4514 -0.8783
  342MOL0     C46102   2.831   8.133   4.779  0.5192  0.7807  0.6074
  342MOL0     H46103   3.037   7.835   4.403 -1.5868  2.9424 -0.3857
  342MOL0     H46104   3.047   7.589   4.356  0.4288  0.1932  1.0840
  342MOL0     H46105   2.803   7.430   4.073 -1.5485 -0.9624  1.9984
  342MOL0     H46106   2.944   7.531   4.107 -1.0107  0.7329 -0.0129
  342MOL0     H46107   2.934   7.237   4.085  0.3836 -0.5325  1.3140
  342MOL0     H46108   3.023   7.361   3.996 -2.9610 -1.5652 -1.8862
  342MOL0     H46109   3.196   7.345   4.134 -1.4999 -1.4747 -1.9467
  342MOL0     H46110   3.108   7.390   4.279  1.8308 -1.8879  1.2607
  342MOL0     H46111   3.127   7.114   4.154  0.0732  2.4920 -1.3948
  342MOL0     H46112   3.251   7.155   4.267  0.4508 -0.2950  0.6910
  342MOL0     H46113   2.949   7.152   4.326  0.3950 -0.8420 -0.6057
  342MOL0     H46114   3.042   7.020   4.375  1.0489 -0.7949 -2.6020
  342MOL0     H46115   3.061   7.301   4.486  0.2023  0.7905  0.1483
  342MOL0     H46116   3.002   7.149   4.557  1.2071 -0.6085  0.6524
  342MOL0     H46117   3.294   7.216   4.464 -0.2554  0.6026 -0.7681
  342MOL0     H46118   3.231   7.251   4.629 -0.1904  1.9352 -2.1990
  342MOL0     H46119   3.380   7.039   4.591 -0.0964  2.0856  2.9582
  342MOL0     H46120   3.236   6.973   4.502 -1.6194  1.0670  1.5301
  342MOL0     H46121   3.260   7.130   4.877  1.2087  0.9187 -1.2227
  342MOL0     H46122   3.066   7.138   5.050  3.9965  0.1560 -3.6846
  342MOL0     H46123   2.956   7.002   5.042 -0.1187  0.2290 -1.5461
  342MOL0     H46124   3.115   6.844   5.104 -0.2015 -0.9986 -0.2713
  342MOL0     H46125   3.078   6.958   5.239  2.3642  3.9007  0.0871
  342MOL0     H46126   3.310   7.072   5.168  0.5251  0.2195 -0.7076
  342MOL0     H46127   3.335   6.918   5.086  1.8210  1.1536  0.4420
  342MOL0     H46128   3.296   6.800   5.311 -1.3367 -0.1438 -0.5383
  342MOL0     H46129   3.251   6.943   5.389  1.1563 -0.8218  1.1831
  342MOL0     H46130   3.692   6.938   5.380  2.9119 -0.4161  1.6560
  342MOL0     H46131   3.878   6.764   5.605  2.2148  0.4318  2.9643
  342MOL0     H46132   3.901   6.902   5.496 -0.7925  1.4793  0.1956
  342MOL0     H46133   3.892   6.929   5.671 -1.0583 -1.1854  1.0884
  342MOL0     H46134   3.392   6.710   6.056 -1.9062  0.9529  3.2061
  342MOL0     H46135   3.386   6.639   6.298 -1.8597  1.0389 -2.6861
  342MOL0     H46136   3.497   6.705   6.656 -0.9192  1.1536 -0.4259
  342MOL0     H46137   3.393   6.702   6.513 -1.6818 -1.1661  0.4862
  342MOL0     H46138   3.461   6.454   6.492 -1.7576  0.5198  0.3663
  342MOL0     H46139   3.553   6.473   6.638  0.1422  1.3407  0.7781
  342MOL0     H46140   3.258   6.532   6.619 -1.1686 -1.3000 -1.0979
  342MOL0     H46141   3.350   6.501   6.762 -4.6740  0.8845  1.0542
  342MOL0     H46142   3.319   6.263   6.583  2.3657  0.1397  0.9298
  342MOL0     H46143   3.373   6.255   6.732  0.5062 -1.7307 -2.1170
  342MOL0     H46144   3.131   6.189   6.733  1.4586  0.7537 -1.4892
  342MOL0     H46145   3.078   6.337   6.676 -1.0616  1.1856  2.3120
  342MOL0     H46146   3.238   6.302   6.930 -0.0680  3.3190  2.2576
  342MOL0     H46147   3.148   6.453   6.893  1.0604 -0.2058 -1.0825
  342MOL0     H46148   2.996   6.194   6.902  0.2373  0.9348 -0.8714
  342MOL0     H46149   2.939   6.364   6.937  1.3829  1.4246 -0.4930
  342MOL0     H46150   3.123   6.211   7.129  0.4027  1.1697  3.2415
  342MOL0     H46151   2.950   6.229   7.150  0.5133 -0.0826 -0.3721
  342MOL0     H46152   3.785   6.787   6.328  0.3429 -2.6180  0.4705
  342MOL0     H46153   3.760   6.912   6.125 -1.2786  0.8193 -0.2075
  342MOL0     H46154   3.413   6.844   5.775 -0.0205 -1.5654 -0.4984
  342MOL0     H46155   3.310   6.906   5.581  0.7160 -1.3798 -0.6992
  342MOL0     H46156   2.632   7.568   4.298  1.5317 -2.8471  0.1972
  342MOL0     H46157   2.611   7.821   4.407 -0.1311  1.3275  0.9655
  342MOL0     H46158   2.728   8.197   4.458 -4.2009 -3.4559  1.7676
  342MOL0     H46159   2.719   8.428   4.551 -0.5272 -2.0749 -1.1114
  342MOL0     H46160   2.909   8.626   4.728  0.0757  1.8830  1.6556
  342MOL0     H46161   2.756   8.619   4.650 -1.1617  0.0900 -0.4199
  342MOL0     H46162   2.799   8.831   4.793 -2.4715  0.1597 -4.3083
  342MOL0     H46163   2.782   8.734   4.939 -2.7626 -0.5322  0.6673
  342MOL0     H46164   2.570   8.650   4.883  1.3084 -1.2427 -1.9543
  342MOL0     H46165   2.568   8.736   4.724  2.7956 -1.0876 -1.2371
  342MOL0     H46166   2.571   8.875   4.999 -1.8530 -0.1256 -0.9493
  342MOL0     H46167   2.434   8.843   4.892 -0.1374 -4.8802  0.9854
  342MOL0     H46168   2.617   9.198   4.751  0.5985  0.7525  1.5333
  342MOL0     H46169   2.848   8.296   4.928  2.0211 -2.1153 -1.0231
  342MOL0     H46170   2.863   8.048   4.839  2.1633 -0.5063 -1.9280
  343MOL0     O46171   5.383   8.370   4.025 -0.7430  0.5046  0.2356
  343MOL0     C46172   5.296   8.381   3.942 -0.3378 -0.0993  0.2807
  343MOL0     O46173   5.261   8.284   3.858 -0.5433 -0.2017 -0.5889
  343MOL0     C46174   5.311   8.160   3.866  0.3872 -0.7298  0.2705
  343MOL0     C46175   5.206   8.060   3.873  0.3152 -0.2742  0.2610
  343MOL0     C46176   5.240   7.922   3.880  0.9261  0.2988 -0.4814
  343MOL0     C46177   5.375   7.883   3.889  0.1680 -0.3914  0.2540
  343MOL0     O46178   5.410   7.744   3.888 -0.0311  0.2092  0.6057
  343MOL0     C46179   5.546   7.704   3.906 -0.0912 -0.4453  0.8640
  343MOL0     C46180   5.550   7.547   3.916 -0.0361  0.2437 -0.2607
  343MOL0     C46181   5.484   7.488   4.047 -0.5993  0.0740  0.3680
  343MOL0     C46182   5.549   7.350   4.088 -0.4302 -0.9428 -0.6048
  343MOL0     C46183   5.521   7.322   4.234 -0.7181  0.4180 -0.8740
  343MOL0     C46184   5.574   7.178   4.271 -0.9371  0.3235  0.5614
  343MOL0     C46185   5.566   7.144   4.422 -0.9449  0.9536  0.0369
  343MOL0     C46186   5.633   7.012   4.463 -0.0587 -0.0037 -0.6923
  343MOL0     N46187   5.633   6.907   4.364  0.8395  0.3818 -0.3612
  343MOL0     C46188   5.730   6.882   4.264 -0.6007 -0.1689 -0.4283
  343MOL0     C46189   5.675   6.788   4.195 -0.5732 -0.2836  0.8806
  343MOL0     C46190   5.728   6.722   4.064  0.6629  0.0694 -1.6113
  343MOL0     C46191   5.698   6.567   4.043  0.3662 -0.7525 -0.9398
  343MOL0     C46192   5.765   6.474   4.149  0.9765  1.1741  0.8057
  343MOL0     C46193   5.893   6.519   4.223 -0.0226 -0.3365  0.8574
  343MOL0     O46194   5.982   6.412   4.266  0.8812  0.6332 -0.2745
  343MOL0     C46195   6.065   6.340   4.186  0.2791 -0.4868 -0.0579
  343MOL0     C46196   6.064   6.353   4.045 -0.6594 -0.5327  0.1887
  343MOL0     C46197   6.162   6.287   3.967 -0.9806 -0.5658 -0.1026
  343MOL0     C46198   6.139   6.306   3.816  0.0422 -0.1856  0.1084
  343MOL0     C46199   6.260   6.206   4.035  0.1486  0.5847  0.5484
  343MOL0     C46200   6.369   6.131   3.959  0.6262 -0.6044  1.1161
  343MOL0     O46201   6.457   6.064   4.039 -0.4737  0.5583 -0.3539
  343MOL0     C46202   6.570   6.018   3.978 -0.8757  0.3967  0.2300
  343MOL0     C46203   6.572   5.879   3.965 -0.4765  0.6121  0.3247
  343MOL0     C46204   6.676   5.814   3.892 -0.2034  0.3134  0.6410
  343MOL0     C46205   6.779   5.892   3.837  0.2150  0.1516  0.2235
  343MOL0     O46206   6.875   5.814   3.780 -0.3640  0.4388 -0.1615
  343MOL0     C46207   6.987   5.867   3.711  0.4388  1.3293 -1.2839
  343MOL0     C46208   7.091   5.754   3.669 -0.2422  0.2275 -0.4340
  343MOL0     C46209   7.179   5.714   3.787 -0.0626  0.9731  0.2690
  343MOL0     C46210   7.313   5.644   3.755 -0.3950  0.9177  0.3382
  343MOL0     C46211   7.306   5.490   3.749 -0.7975  0.2278 -0.0862
  343MOL0     C46212   7.215   5.430   3.634  0.6519 -0.3004  0.7746
  343MOL0     C46213   7.280   5.452   3.497 -0.9380 -0.7869 -0.2456
  343MOL0     C46214   7.181   5.416   3.386  0.3261 -1.1159 -0.2781
  343MOL0    Cl46215   7.151   5.243   3.373  0.0464  0.4561 -0.5051
  343MOL0     C46216   6.777   6.034   3.847 -0.5345  0.5935 -0.2081
  343MOL0     C46217   6.675   6.091   3.924 -0.0920 -0.2718  1.0807
  343MOL0     O46218   6.375   6.146   3.831 -0.4559  0.1236 -0.0699
  343MOL0     C46219   6.255   6.192   4.177  0.5440  0.1384  0.2417
  343MOL0     C46220   6.163   6.259   4.248  0.6606  0.0612  0.0292
  343MOL0     N46221   5.547   6.750   4.242  0.1296  1.2662  0.1206
  343MOL0     N46222   5.524   6.824   4.340  0.2686  0.1826 -0.6772
  343MOL0     C46223   5.474   7.982   3.875 -0.6058 -0.1887 -0.6230
  343MOL0     C46224   5.442   8.118   3.874  0.1736 -0.1751  1.3254
  343MOL0     C46225   5.222   8.509   3.945 -0.0008  0.4372  0.0360
  343MOL0     C46226   5.291   8.631   3.952 -0.5783  0.7601 -0.1143
  343MOL0     C46227   5.222   8.750   3.935 -0.2044 -0.0294 -0.2367
  343MOL0     C46228   5.079   8.750   3.938  0.0079  0.3655  0.3258
  343MOL0     O46229   5.001   8.861   3.949 -0.2768 -0.1109  0.1444
  343MOL0     C46230   5.066   8.979   4.008 -0.5128 -0.8128  0.2845
  343MOL0     C46231   4.954   9.062   4.061  0.3290 -0.4694 -0.5757
  343MOL0     C46232   4.937   9.199   3.982  0.1775 -0.3927 -0.5164
  343MOL0     C46233   4.892   9.319   4.066  0.5876  0.3792 -0.7406
  343MOL0     C46234   4.795   9.288   4.177 -0.6272  0.2134 -0.3291
  343MOL0     C46235   4.697   9.259   4.247  0.3559  0.8531 -0.0712
  343MOL0     C46236   5.011   8.629   3.943  0.3808  0.1194 -0.3640
  343MOL0     C46237   5.085   8.515   3.935 -0.2358  0.5431  0.2343
  343MOL0     H46238   5.106   8.100   3.860  1.1174  1.5755 -0.5908
  343MOL0     H46239   5.160   7.849   3.880 -1.0095  2.1542  2.8432
  343MOL0     H46240   5.607   7.723   3.817 -0.0826 -2.8605  0.2692
  343MOL0     H46241   5.592   7.752   3.993  0.9793  1.4561 -0.6860
  343MOL0     H46242   5.502   7.507   3.826 -1.3959 -2.5649  1.5867
  343MOL0     H46243   5.655   7.516   3.913  1.1313  3.6127  1.0297
  343MOL0     H46244   5.486   7.568   4.122 -2.1380  1.1868 -0.7062
  343MOL0     H46245   5.378   7.472   4.030 -0.3303 -0.8910 -0.4541
  343MOL0     H46246   5.516   7.265   4.028  1.7168 -2.0936 -0.2541
  343MOL0     H46247   5.656   7.368   4.077 -1.0072  3.6283 -0.7281
  343MOL0     H46248   5.579   7.391   4.295  3.6082 -3.2684 -0.2784
  343MOL0     H46249   5.420   7.344   4.270 -0.3887 -0.6472  0.8160
  343MOL0     H46250   5.527   7.106   4.204 -0.1395 -1.6372  2.0164
  343MOL0     H46251   5.682   7.187   4.253 -0.5775  4.8250  3.3826
  343MOL0     H46252   5.608   7.214   4.495  2.9021 -0.6454 -0.3561
  343MOL0     H46253   5.459   7.133   4.441 -0.8351 -2.6061 -0.7748
  343MOL0     H46254   5.582   6.961   4.544  1.9785 -2.7407 -0.9876
  343MOL0     H46255   5.738   7.038   4.482 -0.3292  0.5903  0.0535
  343MOL0     H46256   5.827   6.928   4.244 -0.1676 -0.4699  0.8879
  343MOL0     H46257   5.689   6.769   3.973 -1.0908 -1.2424 -1.5920
  343MOL0     H46258   5.837   6.726   4.067  0.9092 -3.0745  2.6448
  343MOL0     H46259   5.710   6.547   3.936 -2.0719  0.5406 -1.5404
  343MOL0     H46260   5.592   6.555   4.068  0.7359 -2.7447 -0.1154
  343MOL0     H46261   5.789   6.391   4.082 -0.4055  0.6421  0.9329
  343MOL0     H46262   5.691   6.431   4.217  1.2472 -0.7339 -0.0378
  343MOL0     H46263   5.866   6.570   4.315  2.2375 -0.2946  1.5506
  343MOL0     H46264   5.960   6.575   4.157  0.3000 -1.2426  0.3946
  343MOL0     H46265   5.999   6.418   3.987  1.6278  0.7537 -1.1096
  343MOL0     H46266   6.065   6.386   3.806 -1.6091 -1.9168 -2.4706
  343MOL0     H46267   6.229   6.337   3.762  0.6854 -0.5308  0.9513
  343MOL0     H46268   6.099   6.216   3.769 -1.3833 -0.2670  1.4049
  343MOL0     H46269   6.497   5.819   4.016  0.8999 -1.3836  0.0858
  343MOL0     H46270   6.686   5.706   3.899 -0.0637  0.4324  3.6823
  343MOL0     H46271   6.936   5.904   3.622 -0.5944  0.8906 -0.8781
  343MOL0     H46272   7.042   5.949   3.759  0.3667  1.2891 -1.1326
  343MOL0     H46273   7.027   5.677   3.623  0.9552 -0.3068 -1.2586
  343MOL0     H46274   7.149   5.797   3.587 -0.1245  0.5737 -0.1701
  343MOL0     H46275   7.114   5.642   3.837  0.7042 -1.7884 -2.4443
  343MOL0     H46276   7.196   5.808   3.842 -2.5485  2.4154 -1.2300
  343MOL0     H46277   7.366   5.689   3.671  0.8730  3.9852  2.5611
  343MOL0     H46278   7.381   5.672   3.837 -0.1409  1.2884  0.0055
  343MOL0     H46279   7.272   5.449   3.845  1.5117  0.7141  1.0121
  343MOL0     H46280   7.406   5.448   3.737 -0.3752  0.6629  1.6796
  343MOL0     H46281   7.203   5.323   3.648  0.1692 -0.2665  0.6290
  343MOL0     H46282   7.113   5.468   3.627  1.3376  1.4581 -0.6285
  343MOL0     H46283   7.369   5.392   3.480 -0.9724 -0.0418 -3.8664
  343MOL0     H46284   7.321   5.553   3.501 -0.2925 -1.0869  0.9385
  343MOL0     H46285   7.218   5.453   3.290 -0.4726  0.0518 -0.1681
  343MOL0     H46286   7.081   5.457   3.404 -0.0500 -1.7195 -0.9563
  343MOL0     H46287   6.855   6.095   3.803  0.8140 -1.1379 -0.3647
  343MOL0     H46288   6.671   6.199   3.934 -0.9637 -0.0457 -1.0099
  343MOL0     H46289   6.334   6.136   4.226  0.4856 -1.1580 -1.0715
  343MOL0     H46290   6.159   6.250   4.356 -1.1586 -1.3840 -0.1162
  343MOL0     H46291   5.576   7.950   3.856 -0.6736 -0.4515 -0.5471
  343MOL0     H46292   5.522   8.192   3.869 -1.0658  1.4499  3.6572
  343MOL0     H46293   5.397   8.629   3.974 -0.8295  2.4055  1.4320
  343MOL0     H46294   5.271   8.847   3.929  0.7096 -0.1101  3.4737
  343MOL0     H46295   5.135   8.965   4.091 -0.2089  2.1763  0.6208
  343MOL0     H46296   5.110   9.032   3.923 -0.7800  0.6447  1.0395
  343MOL0     H46297   4.975   9.096   4.163 -0.1417  2.5197 -1.3679
  343MOL0     H46298   4.856   9.013   4.060  0.3487 -0.5286  0.0021
  343MOL0     H46299   4.869   9.182   3.899  0.4716  0.5900 -0.9712
  343MOL0     H46300   5.026   9.233   3.928  2.4384 -0.6024  2.7782
  343MOL0     H46301   4.847   9.397   4.004  0.6090 -0.1312 -1.4125
  343MOL0     H46302   4.974   9.374   4.112 -1.5805  2.0229  1.4135
  343MOL0     H46303   4.611   9.231   4.304 -1.0008  0.4592 -2.2016
  343MOL0     H46304   4.903   8.622   3.943  0.3213  0.7042  0.8597
  343MOL0     H46305   5.037   8.418   3.926  2.1217 -0.7372  0.6883
  344MOL0     O46306  10.723   6.804   9.652  0.2244 -0.8042 -0.8327
  344MOL0     C46307  10.781   6.877   9.733 -0.4788 -0.1115  0.4480
  344MOL0     O46308  10.855   6.823   9.838 -0.2189  0.0733  0.5613
  344MOL0     C46309  10.869   6.687   9.849 -0.7184  0.1434 -0.7266
  344MOL0     C46310  10.934   6.604   9.751  0.2467  0.5672  0.7456
  344MOL0     C46311  10.950   6.468   9.766  0.4669  0.9750  0.3697
  344MOL0     C46312  10.902   6.406   9.881 -0.0090 -0.5988  0.3262
  344MOL0     O46313  10.911   6.269   9.891 -0.4768  0.0798 -0.0345
  344MOL0     C46314  11.049   6.210   9.893  0.1129 -0.5694  0.2872
  344MOL0     C46315  11.042   6.061   9.928  0.2455  0.3472 -1.0108
  344MOL0     C46316  11.167   5.991   9.971  0.6676  0.3628  1.0654
  344MOL0     C46317  11.146   5.842   9.964 -0.3654 -0.1692 -0.0655
  344MOL0     C46318  11.257   5.759  10.041  0.2753 -0.0741  0.0688
  344MOL0     C46319  11.395   5.809  10.001 -0.0682  0.0427  0.2027
  344MOL0     C46320  11.432   5.793   9.853 -1.1972  0.6732 -0.0874
  344MOL0     C46321  11.442   5.650   9.804 -1.1650  0.4974  1.1519
  344MOL0     N46322  11.314   5.595   9.770 -0.5568  0.2552  1.2241
  344MOL0     C46323  11.228   5.630   9.667  0.6062  0.1778  0.1938
  344MOL0     C46324  11.122   5.547   9.675 -1.4725  0.3076  0.9078
  344MOL0     C46325  10.996   5.560   9.593 -0.8897  0.4598  0.0105
  344MOL0     C46326  11.024   5.575   9.443  0.7934  0.1703 -1.2376
  344MOL0     C46327  10.888   5.570   9.363  0.9393 -0.5737  0.3249
  344MOL0     C46328  10.897   5.530   9.213  0.6415 -0.5574 -1.2197
  344MOL0     O46329  10.773   5.546   9.149  0.3397  0.1686 -0.4220
  344MOL0     C46330  10.776   5.557   9.020  0.5785 -0.7833  0.5023
  344MOL0     C46331  10.752   5.438   8.946 -0.4766 -1.2365 -0.6226
  344MOL0     C46332  10.752   5.444   8.809 -0.2463  0.1762 -0.7723
  344MOL0     C46333  10.720   5.313   8.741  0.1656 -0.2263  0.4248
  344MOL0     C46334  10.784   5.565   8.744 -0.0280  0.8698 -0.3632
  344MOL0     C46335  10.793   5.569   8.589 -0.5839 -0.9264  0.5045
  344MOL0     O46336  10.846   5.689   8.535  0.4011  0.5532  0.3284
  344MOL0     C46337  10.781   5.731   8.420  0.1193 -0.1173  0.7171
  344MOL0     C46338  10.848   5.715   8.298 -0.0404  0.2989 -0.8330
  344MOL0     C46339  10.787   5.749   8.177 -0.1941 -0.2450 -0.8092
  344MOL0     C46340  10.667   5.817   8.182  0.0576  0.7691 -0.5541
  344MOL0     O46341  10.597   5.850   8.071  0.2292 -0.1259 -0.3240
  344MOL0     C46342  10.674   5.909   7.965  0.3555  0.2187 -0.7703
  344MOL0     C46343  10.667   5.818   7.840  0.0377 -0.4637 -0.4983
  344MOL0     C46344  10.740   5.884   7.725  0.1534  0.5907  0.8825
  344MOL0     C46345  10.746   5.795   7.600  0.3415  0.6903  0.0122
  344MOL0     C46346  10.844   5.853   7.499  0.3864 -0.2591 -0.1206
  344MOL0     C46347  10.889   5.754   7.388 -1.1330 -0.0023 -0.9350
  344MOL0     C46348  10.777   5.729   7.280 -0.4558  0.2763 -0.7336
  344MOL0     C46349  10.820   5.786   7.139  0.7505  0.4245 -0.5658
  344MOL0    Cl46350  10.946   5.675   7.073 -0.3936  0.0600 -0.3305
  344MOL0     C46351  10.600   5.840   8.296  0.1298 -0.0312  0.9766
  344MOL0     C46352  10.653   5.796   8.421  0.8020  0.0177  0.4356
  344MOL0     O46353  10.723   5.486   8.522 -0.2155  0.5222  0.8005
  344MOL0     C46354  10.802   5.682   8.823 -0.0743  0.1866 -0.2060
  344MOL0     C46355  10.780   5.682   8.957  0.6175 -1.4276 -0.2821
  344MOL0     N46356  11.149   5.456   9.772 -0.1967  0.2971 -1.3217
  344MOL0     N46357  11.260   5.491   9.832  0.3041  0.5912 -0.1839
  344MOL0     C46358  10.848   6.489   9.976 -0.6003  0.1850  0.0892
  344MOL0     C46359  10.824   6.625   9.964  0.6537 -0.8786  0.1632
  344MOL0     C46360  10.764   7.019   9.722  0.7376  0.2940  0.2565
  344MOL0     C46361  10.828   7.114   9.808  0.8100  0.0051 -0.2850
  344MOL0     C46362  10.815   7.246   9.769 -0.8038  0.3021 -0.2088
  344MOL0     C46363  10.735   7.301   9.671  0.6843  0.2421  0.5656
  344MOL0     O46364  10.729   7.435   9.629 -0.3058  0.5416  0.3205
  344MOL0     C46365  10.829   7.523   9.668 -0.0688  0.3299  1.0393
  344MOL0     C46366  10.843   7.642   9.564  0.3442  0.2475 -0.2082
  344MOL0     C46367  10.911   7.772   9.623  0.2779 -0.0841 -0.0882
  344MOL0     C46368  10.828   7.863   9.706 -0.1950  0.2557 -1.3952
  344MOL0     C46369  10.817   7.817   9.846 -0.5480 -0.1826 -0.5208
  344MOL0     C46370  10.801   7.824   9.962  0.5543  0.0862  0.7903
  344MOL0     C46371  10.680   7.198   9.593  0.4165 -0.3658  0.3619
  344MOL0     C46372  10.690   7.062   9.611  0.4896  0.0298 -0.4867
  344MOL0     H46373  10.955   6.652   9.655 -1.2890  2.6499  1.3881
  344MOL0     H46374  11.007   6.414   9.692 -2.7191 -3.3445  0.7142
  344MOL0     H46375  11.100   6.230   9.799  2.2262  1.8286  1.8422
  344MOL0     H46376  11.107   6.266   9.967 -1.3209 -0.8568  1.6913
  344MOL0     H46377  10.955   6.045   9.992  1.4630  0.8417  0.8431
  344MOL0     H46378  11.029   6.015   9.829 -1.3499 -4.5144  1.1644
  344MOL0     H46379  11.249   6.023   9.906  1.9466 -3.5553  0.4295
  344MOL0     H46380  11.196   6.024  10.071 -0.5378  0.3425  1.4373
  344MOL0     H46381  11.056   5.825  10.023 -0.4259  0.7250  0.1106
  344MOL0     H46382  11.138   5.812   9.859 -0.9314 -0.1327 -0.0332
  344MOL0     H46383  11.248   5.770  10.149 -2.1764 -0.7270  0.0092
  344MOL0     H46384  11.255   5.649  10.035 -0.2645 -0.1488  1.3518
  344MOL0     H46385  11.405   5.916  10.021  2.3433 -0.0974  0.0686
  344MOL0     H46386  11.463   5.767  10.075 -1.2905  0.2467  1.4780
  344MOL0     H46387  11.374   5.852   9.781  0.3554  0.5105 -1.5570
  344MOL0     H46388  11.531   5.837   9.837 -2.2602  3.4169  0.3304
  344MOL0     H46389  11.489   5.592   9.884  1.2744  2.8962  1.5811
  344MOL0     H46390  11.488   5.663   9.706 -3.0988  0.2263  0.1526
  344MOL0     H46391  11.241   5.709   9.594 -0.5841 -0.8217 -1.1466
  344MOL0     H46392  10.935   5.471   9.613 -0.7852  0.5007  0.5182
  344MOL0     H46393  10.934   5.638   9.638 -4.1272 -1.7062 -0.3917
  344MOL0     H46394  11.088   5.495   9.408 -0.3806 -0.6725 -1.5346
  344MOL0     H46395  11.071   5.672   9.425  1.7873 -0.0484  0.0067
  344MOL0     H46396  10.842   5.667   9.345  1.0604 -0.8467 -1.6894
  344MOL0     H46397  10.818   5.500   9.410 -0.4390 -0.0437 -0.8762
  344MOL0     H46398  10.913   5.422   9.210  1.6430 -0.4111 -3.6983
  344MOL0     H46399  10.979   5.576   9.158  0.0850  2.0484 -0.0281
  344MOL0     H46400  10.736   5.340   8.988 -1.2646 -1.1779 -0.7713
  344MOL0     H46401  10.809   5.271   8.692 -0.4451  0.7615 -1.6303
  344MOL0     H46402  10.681   5.236   8.808  1.2538 -0.1606  1.1682
  344MOL0     H46403  10.633   5.323   8.676  3.5090  2.9440 -4.2154
  344MOL0     H46404  10.947   5.670   8.299 -0.6231 -1.0456 -0.0315
  344MOL0     H46405  10.841   5.727   8.085  1.6970 -1.0758  0.4363
  344MOL0     H46406  10.626   6.002   7.933  0.0119 -0.3066 -1.8337
  344MOL0     H46407  10.778   5.928   7.995  0.0588  1.0967 -0.2662
  344MOL0     H46408  10.703   5.716   7.860  1.5120  0.1431  0.0941
  344MOL0     H46409  10.564   5.802   7.804  1.3458  0.7359 -5.4546
  344MOL0     H46410  10.842   5.896   7.763  0.1091  0.7970  0.9384
  344MOL0     H46411  10.708   5.986   7.700 -3.4576 -0.2543  1.5844
  344MOL0     H46412  10.767   5.690   7.624  2.2012  0.9451 -0.4054
  344MOL0     H46413  10.651   5.788   7.545 -0.1933  0.3492  0.9526
  344MOL0     H46414  10.928   5.888   7.559  1.0294  0.2434 -1.2805
  344MOL0     H46415  10.796   5.943   7.461 -0.2615  0.7805  2.8949
  344MOL0     H46416  10.986   5.774   7.341  0.8293 -1.0272  2.3693
  344MOL0     H46417  10.892   5.662   7.448 -0.9868  1.6816  1.7919
  344MOL0     H46418  10.682   5.779   7.301 -3.0450 -3.7502 -1.7460
  344MOL0     H46419  10.764   5.620   7.281 -2.2349  0.4174  1.8273
  344MOL0     H46420  10.851   5.891   7.139 -3.0136  1.7234  1.7040
  344MOL0     H46421  10.732   5.774   7.075  0.4587  1.6498 -0.4236
  344MOL0     H46422  10.499   5.878   8.294 -1.8399 -4.5868  0.2674
  344MOL0     H46423  10.598   5.805   8.515  1.9888  2.6271  0.9761
  344MOL0     H46424  10.812   5.780   8.777  0.2975  1.0036  1.5440
  344MOL0     H46425  10.780   5.771   9.020  3.0201 -2.8140  1.8642
  344MOL0     H46426  10.835   6.436  10.070  0.9428 -0.5141 -0.0631
  344MOL0     H46427  10.776   6.687  10.040  3.1720 -0.5649  1.6041
  344MOL0     H46428  10.889   7.091   9.895 -0.9172  0.9726  1.2494
  344MOL0     H46429  10.870   7.320   9.827  0.7569 -1.7449  1.0419
  344MOL0     H46430  10.818   7.562   9.769 -1.0750  2.7838  0.0459
  344MOL0     H46431  10.928   7.477   9.659 -1.8680 -3.5392 -1.7842
  344MOL0     H46432  10.741   7.665   9.531 -0.7261  1.4162  3.4440
  344MOL0     H46433  10.904   7.618   9.476 -2.6428 -1.7828 -1.8872
  344MOL0     H46434  10.940   7.841   9.543  2.2235 -1.8244 -0.9854
  344MOL0     H46435  11.006   7.744   9.671  1.0438  1.4566 -0.6068
  344MOL0     H46436  10.730   7.888   9.664 -0.9698 -2.7521 -1.6689
  344MOL0     H46437  10.875   7.961   9.708 -4.4503  2.6767  3.5582
  344MOL0     H46438  10.803   7.818  10.069  1.8265 -1.7997  0.7081
  344MOL0     H46439  10.634   7.238   9.503  0.1267  2.0591  1.4914
  344MOL0     H46440  10.645   6.989   9.544 -0.8230 -0.1697  0.5621
  345MOL0     O46441   4.467   4.728   9.057 -0.1747 -0.2966  0.7202
  345MOL0     C46442   4.513   4.750   8.940  0.1945  1.0429  0.3285
  345MOL0     O46443   4.432   4.772   8.825 -0.5897 -0.7079 -0.1822
  345MOL0     C46444   4.297   4.793   8.847 -1.0776 -0.4945 -0.1556
  345MOL0     C46445   4.217   4.696   8.792  0.1706 -0.2509  0.1297
  345MOL0     C46446   4.078   4.695   8.809 -0.0490  0.3149  0.9062
  345MOL0     C46447   4.021   4.793   8.901 -0.4628  0.1772 -0.1434
  345MOL0     O46448   3.890   4.778   8.925 -0.3539 -0.6659 -0.6500
  345MOL0     C46449   3.810   4.885   8.974  1.2765 -0.1879 -0.9848
  345MOL0     C46450   3.662   4.834   8.960 -0.8963 -0.7442  0.5335
  345MOL0     C46451   3.563   4.932   9.023  0.4007 -0.7382  1.0005
  345MOL0     C46452   3.489   5.021   8.919 -0.1919 -1.3416 -0.8576
  345MOL0     C46453   3.462   5.162   8.972  0.8161 -1.0102 -1.0823
  345MOL0     C46454   3.399   5.246   8.863 -0.5059  0.1036 -0.6068
  345MOL0     C46455   3.339   5.364   8.943 -0.5652  0.1990 -0.2125
  345MOL0     C46456   3.265   5.462   8.853 -0.3008  0.0251 -0.1256
  345MOL0     N46457   3.145   5.397   8.790 -0.0833  0.5458  0.0109
  345MOL0     C46458   3.110   5.394   8.659  0.0064  0.2431  0.1781
  345MOL0     C46459   2.978   5.367   8.663 -0.2556  0.3355  0.4959
  345MOL0     C46460   2.883   5.391   8.549  0.4214  0.4568 -0.0229
  345MOL0     C46461   2.807   5.519   8.551  0.4905 -0.1354 -0.1730
  345MOL0     C46462   2.882   5.646   8.605  0.3692 -0.5171 -0.0662
  345MOL0     C46463   2.794   5.769   8.575 -0.7921 -0.4142 -0.2581
  345MOL0     O46464   2.800   5.810   8.438 -0.0443  0.4801 -1.2260
  345MOL0     C46465   2.685   5.868   8.396  0.5176 -0.9638 -0.4934
  345MOL0     C46466   2.571   5.794   8.368 -0.1556 -0.1564  0.2420
  345MOL0     C46467   2.448   5.856   8.322  0.2506  0.1454  0.2076
  345MOL0     C46468   2.326   5.773   8.310 -0.0979 -0.3611  0.1285
  345MOL0     C46469   2.454   5.992   8.301 -1.0861  0.4060 -0.1218
  345MOL0     C46470   2.342   6.069   8.255 -0.1922  0.3235 -0.2151
  345MOL0     O46471   2.217   6.026   8.275 -0.3665  0.3218 -0.3341
  345MOL0     C46472   2.113   6.104   8.234  0.5782 -0.4071 -0.3063
  345MOL0     C46473   2.054   6.100   8.108  0.2098 -0.0768 -0.4023
  345MOL0     C46474   1.944   6.187   8.084 -1.2075 -0.9076 -0.1024
  345MOL0     C46475   1.886   6.258   8.190  0.3600 -0.5289  0.7267
  345MOL0     O46476   1.786   6.342   8.159 -0.2109 -0.5825  0.3140
  345MOL0     C46477   1.775   6.475   8.214  0.4591 -0.0585 -0.4986
  345MOL0     C46478   1.694   6.572   8.128 -0.0792  0.1961  0.0980
  345MOL0     C46479   1.700   6.717   8.179 -0.1054  1.1883  0.4705
  345MOL0     C46480   1.619   6.811   8.097 -0.2296 -0.3106 -0.1500
  345MOL0     C46481   1.638   6.958   8.141 -0.1500 -0.1392 -0.6282
  345MOL0     C46482   1.611   6.979   8.287  1.2099 -0.0434 -0.5001
  345MOL0     C46483   1.619   7.123   8.316  0.6456 -0.6094  0.0456
  345MOL0     C46484   1.637   7.171   8.463  0.0350 -0.5095  1.0848
  345MOL0    Cl46485   1.754   7.072   8.554  0.4695 -0.1816  0.0439
  345MOL0     C46486   1.942   6.257   8.317 -0.0231 -0.1640  0.9831
  345MOL0     C46487   2.056   6.185   8.335 -0.7770 -0.0319 -0.7616
  345MOL0     O46488   2.362   6.175   8.191 -0.2851 -0.4806 -0.2986
  345MOL0     C46489   2.574   6.055   8.316 -0.3936  0.2861 -0.5882
  345MOL0     C46490   2.694   6.003   8.367  0.9174  0.6428  0.0263
  345MOL0     N46491   2.937   5.345   8.789 -0.5923  0.1046 -0.4634
  345MOL0     N46492   3.040   5.343   8.863 -0.2637 -0.7947 -0.2880
  345MOL0     C46493   4.107   4.896   8.945  0.0376  0.4859  0.0477
  345MOL0     C46494   4.247   4.889   8.924 -0.0753 -0.5152 -0.4299
  345MOL0     C46495   4.661   4.721   8.918  0.5183  0.2434 -1.4322
  345MOL0     C46496   4.716   4.729   8.794 -0.2357  1.0281 -0.1278
  345MOL0     C46497   4.853   4.695   8.774  0.0879 -0.8061  0.9609
  345MOL0     C46498   4.934   4.668   8.882  0.5691  0.3134  0.9818
  345MOL0     O46499   5.068   4.663   8.852  0.1702 -0.2965  0.1641
  345MOL0     C46500   5.118   4.531   8.820 -0.7121 -0.2886  0.1854
  345MOL0     C46501   5.259   4.541   8.759 -0.3741  0.8310  0.0660
  345MOL0     C46502   5.362   4.596   8.858 -0.2807 -0.6113  0.6962
  345MOL0     C46503   5.508   4.577   8.795  1.3862 -0.6409 -0.6749
  345MOL0     C46504   5.532   4.643   8.668  0.1977 -0.1122 -0.1641
  345MOL0     C46505   5.557   4.695   8.562 -0.4032  0.8500 -0.6401
  345MOL0     C46506   4.880   4.645   9.005  0.5637 -0.6409 -1.1371
  345MOL0     C46507   4.744   4.674   9.020 -0.5521  0.6555 -0.0643
  345MOL0     H46508   4.258   4.614   8.735 -2.7722  0.1881 -2.9780
  345MOL0     H46509   4.020   4.614   8.767 -0.9976  1.5008 -0.1029
  345MOL0     H46510   3.844   4.908   9.076  1.8874  0.0234 -1.2347
  345MOL0     H46511   3.819   4.969   8.905  1.7745 -0.6307 -1.4647
  345MOL0     H46512   3.636   4.826   8.854  1.2931 -0.3782 -0.0744
  345MOL0     H46513   3.653   4.733   9.001  1.0443 -0.8520  0.7964
  345MOL0     H46514   3.495   4.867   9.079 -1.0130 -1.6090 -1.5573
  345MOL0     H46515   3.616   4.998   9.092  1.6007 -0.9390  0.2883
  345MOL0     H46516   3.553   5.035   8.831  2.8981 -1.5031  1.1950
  345MOL0     H46517   3.394   4.971   8.899 -2.6948  1.6195  2.2778
  345MOL0     H46518   3.404   5.162   9.065  2.3636 -2.6497 -0.0557
  345MOL0     H46519   3.547   5.218   9.012 -1.6017  1.8777  0.4174
  345MOL0     H46520   3.468   5.287   8.789  0.4713 -0.5911 -0.0935
  345MOL0     H46521   3.325   5.191   8.804 -1.6447 -0.5480  1.3464
  345MOL0     H46522   3.282   5.332   9.031 -0.0952 -0.9319 -0.3026
  345MOL0     H46523   3.419   5.428   8.980 -0.5691 -0.8837  1.8089
  345MOL0     H46524   3.339   5.480   8.774 -0.7305  1.7202 -0.1803
  345MOL0     H46525   3.240   5.554   8.907 -3.3320 -0.4234 -0.6052
  345MOL0     H46526   3.158   5.427   8.568 -1.6424 -0.8016 -1.1231
  345MOL0     H46527   2.942   5.385   8.457 -0.1633  3.1974 -0.6633
  345MOL0     H46528   2.800   5.319   8.552 -1.0196  2.0551 -0.3263
  345MOL0     H46529   2.727   5.499   8.624  0.4532 -2.0755 -0.6805
  345MOL0     H46530   2.764   5.536   8.452  1.2750  1.2284 -0.2967
  345MOL0     H46531   2.977   5.664   8.554  0.9401 -1.1093  0.7612
  345MOL0     H46532   2.918   5.620   8.705 -0.8003 -2.5898 -0.1158
  345MOL0     H46533   2.827   5.859   8.627 -2.8706  1.8540 -2.5372
  345MOL0     H46534   2.693   5.744   8.608 -1.4898  0.9573 -1.2300
  345MOL0     H46535   2.582   5.687   8.378  2.0690 -0.0128 -0.1625
  345MOL0     H46536   2.333   5.669   8.343 -0.0283 -0.9891 -1.7577
  345MOL0     H46537   2.256   5.812   8.385 -0.8320 -3.3945  1.1522
  345MOL0     H46538   2.289   5.775   8.208  0.9764  6.0586 -0.5649
  345MOL0     H46539   2.099   6.035   8.034 -0.0879 -0.7570  0.0113
  345MOL0     H46540   1.888   6.189   7.991 -1.8481  0.5630  0.2761
  345MOL0     H46541   1.718   6.472   8.308 -0.7273 -2.5838 -1.1919
  345MOL0     H46542   1.870   6.525   8.236 -1.3210  2.1877  3.0889
  345MOL0     H46543   1.744   6.573   8.031  0.9706  0.1189  0.6218
  345MOL0     H46544   1.589   6.541   8.128 -0.1233  0.2552  1.8341
  345MOL0     H46545   1.806   6.745   8.175  0.3761  0.4998  4.3148
  345MOL0     H46546   1.681   6.722   8.287  0.4075 -2.0938  0.8239
  345MOL0     H46547   1.640   6.793   7.991  2.5120  0.0191  0.2606
  345MOL0     H46548   1.513   6.790   8.114 -0.3253  0.8514  0.8799
  345MOL0     H46549   1.577   7.024   8.079 -0.7005 -0.8733 -0.8666
  345MOL0     H46550   1.743   6.984   8.127  0.0601  0.3836  1.4818
  345MOL0     H46551   1.518   6.935   8.324  1.6765 -1.8218 -1.3387
  345MOL0     H46552   1.681   6.922   8.348  0.9069 -0.6801 -0.7389
  345MOL0     H46553   1.528   7.165   8.271  1.0444  0.5208  0.2581
  345MOL0     H46554   1.701   7.170   8.260 -0.2508 -0.3308 -1.0805
  345MOL0     H46555   1.543   7.183   8.516 -1.3479  1.4957 -1.6143
  345MOL0     H46556   1.681   7.270   8.452 -0.5712 -0.3668 -0.2992
  345MOL0     H46557   1.908   6.329   8.390  0.4677  2.0633 -0.8542
  345MOL0     H46558   2.114   6.199   8.425 -0.0041  1.9246 -1.4985
  345MOL0     H46559   2.585   6.155   8.277  2.3935  0.5230  0.5416
  345MOL0     H46560   2.776   6.075   8.373  0.3417  1.5419 -1.9414
  345MOL0     H46561   4.077   4.979   9.008 -3.4912  0.3945 -1.2618
  345MOL0     H46562   4.304   4.960   8.983 -1.6881  0.1389  0.3788
  345MOL0     H46563   4.668   4.754   8.700 -0.7439 -2.2809 -0.9003
  345MOL0     H46564   4.911   4.718   8.685 -1.4269  0.0521  0.1455
  345MOL0     H46565   5.109   4.472   8.911 -1.7645 -3.3212 -1.7312
  345MOL0     H46566   5.053   4.473   8.754  0.1208 -1.4027  0.3122
  345MOL0     H46567   5.259   4.598   8.666 -0.8675 -0.5145 -0.7959
  345MOL0     H46568   5.287   4.438   8.732  1.9806  0.5729  2.9630
  345MOL0     H46569   5.360   4.528   8.945  0.1275 -1.6512 -0.0853
  345MOL0     H46570   5.328   4.695   8.888 -1.4793 -1.2779  1.6957
  345MOL0     H46571   5.531   4.470   8.789 -1.4855 -1.3459 -0.7160
  345MOL0     H46572   5.572   4.626   8.868 -5.8416  2.9853  4.4887
  345MOL0     H46573   5.583   4.739   8.468 -0.1274  0.1018 -0.9250
  345MOL0     H46574   4.951   4.620   9.083 -0.4132  2.0020  0.7543
  345MOL0     H46575   4.705   4.651   9.119  1.3009  2.4977  1.1784
  346MOL0     O46576  10.781   7.567   8.852  0.2401  0.0726  0.5612
  346MOL0     C46577  10.732   7.654   8.917  0.3659 -0.5513 -0.6909
  346MOL0     O46578  10.783   7.693   9.038  0.6627 -0.7553 -0.8240
  346MOL0     C46579  10.894   7.631   9.092 -0.5673 -0.4970  0.1680
  346MOL0     C46580  10.895   7.494   9.112 -0.0885  0.1135 -0.4575
  346MOL0     C46581  10.996   7.427   9.178  0.3652  0.0938 -0.1929
  346MOL0     C46582  11.087   7.501   9.254  0.6808 -0.0380  0.4557
  346MOL0     O46583  11.185   7.426   9.320  0.4824  0.2622  0.8640
  346MOL0     C46584  11.309   7.487   9.343 -0.0085 -0.6409  0.0917
  346MOL0     C46585  11.402   7.496   9.222 -0.4478 -0.2065  0.2143
  346MOL0     C46586  11.533   7.569   9.260 -0.1451 -0.0429 -0.0020
  346MOL0     C46587  11.642   7.478   9.333 -1.0908 -0.7826  0.5310
  346MOL0     C46588  11.782   7.532   9.310 -0.0514 -0.1968 -0.3519
  346MOL0     C46589  11.805   7.681   9.374 -0.4392  0.3034  0.6482
  346MOL0     C46590  11.812   7.673   9.529  0.7757  0.2454  0.4063
  346MOL0     C46591  11.880   7.790   9.576 -0.0878 -1.5117  0.7210
  346MOL0     N46592  11.856   7.810   9.718 -0.2520 -0.8043 -0.2636
  346MOL0     C46593  11.860   7.927   9.793 -0.1748  0.0086 -0.6056
  346MOL0     C46594  11.832   7.881   9.920  0.0582  0.2543  1.6243
  346MOL0     C46595  11.809   7.962  10.043  1.5499  0.1496  0.1938
  346MOL0     C46596  11.919   8.037  10.105  0.3399 -0.1733  0.9122
  346MOL0     C46597  11.903   8.128  10.219 -0.5187  0.0236 -0.2945
  346MOL0     C46598  11.822   8.246  10.183  0.1778  0.5167 -0.6397
  346MOL0     O46599  11.852   8.378  10.224 -0.6501  0.0966  0.2682
  346MOL0     C46600  11.810   8.422  10.350  0.7499  0.8036 -0.2630
  346MOL0     C46601  11.762   8.551  10.368  0.4483 -0.2802 -0.1533
  346MOL0     C46602  11.724   8.608  10.485  0.3204  0.4440  0.0455
  346MOL0     C46603  11.679   8.757  10.488 -1.1671  0.6042 -0.3640
  346MOL0     C46604  11.695   8.518  10.598  0.4956 -0.1785 -1.1629
  346MOL0     C46605  11.636   8.570  10.737 -0.7712 -0.0263  0.2974
  346MOL0     O46606  11.620   8.477  10.830  0.0771 -0.3608  0.9346
  346MOL0     C46607  11.596   8.516  10.964 -0.5713 -0.2425  0.3383
  346MOL0     C46608  11.571   8.636  11.024  0.0275  0.1027 -0.5825
  346MOL0     C46609  11.524   8.646  11.157 -0.9901 -0.7083 -0.2349
  346MOL0     C46610  11.505   8.529  11.236 -0.1716 -0.7462 -0.4549
  346MOL0     O46611  11.464   8.522  11.367 -0.2867  0.2862  0.4224
  346MOL0     C46612  11.472   8.638  11.451  0.0045  0.0884  0.1995
  346MOL0     C46613  11.487   8.608  11.607  1.1863  0.3475  0.1072
  346MOL0     C46614  11.501   8.728  11.693  0.3162  0.5223 -0.1926
  346MOL0     C46615  11.367   8.805  11.695 -0.7065 -0.5973 -0.4395
  346MOL0     C46616  11.368   8.929  11.785 -0.9695  0.2126  0.6412
  346MOL0     C46617  11.236   9.007  11.773  0.2043 -0.4907 -0.1468
  346MOL0     C46618  11.117   8.923  11.823 -0.0735  0.5215 -0.3453
  346MOL0     C46619  10.992   9.002  11.814 -0.4364 -0.1374 -0.6753
  346MOL0    Cl46620  10.911   8.997  11.647 -0.4746  0.0128  0.3570
  346MOL0     C46621  11.530   8.409  11.162  0.0070 -0.1556  0.7197
  346MOL0     C46622  11.575   8.399  11.034  0.1421  0.4519 -0.1754
  346MOL0     O46623  11.581   8.684  10.733  0.0423 -0.4662 -0.0486
  346MOL0     C46624  11.728   8.382  10.584  0.5038  0.5074  0.5997
  346MOL0     C46625  11.796   8.338  10.466  0.1916  0.0234 -0.2808
  346MOL0     N46626  11.798   7.743   9.911 -0.3077 -0.4163 -0.8069
  346MOL0     N46627  11.830   7.700   9.791 -0.2843 -0.0179 -0.2750
  346MOL0     C46628  11.089   7.645   9.235  0.3590  0.6211  1.0705
  346MOL0     C46629  10.995   7.707   9.150  0.2677  0.5035  0.1152
  346MOL0     C46630  10.611   7.723   8.877 -0.0170 -0.5022  0.2397
  346MOL0     C46631  10.550   7.685   8.751  0.1209 -0.3474 -0.0703
  346MOL0     C46632  10.430   7.760   8.719 -0.2313 -0.7466 -0.3213
  346MOL0     C46633  10.365   7.862   8.795  0.2824 -0.1084 -0.1586
  346MOL0     O46634  10.246   7.922   8.756 -0.1582  0.1241 -0.2395
  346MOL0     C46635  10.145   7.922   8.848  0.1278 -0.3020 -0.3733
  346MOL0     C46636  10.026   8.011   8.790 -0.8345  0.4948 -0.1621
  346MOL0     C46637  10.052   8.164   8.798  0.2763 -0.5323 -0.7692
  346MOL0     C46638   9.931   8.245   8.745 -0.1744  0.1444 -0.2032
  346MOL0     C46639   9.933   8.283   8.602  0.6400  0.0013  0.5234
  346MOL0     C46640   9.911   8.295   8.480  0.3223 -0.0669 -0.8454
  346MOL0     C46641  10.442   7.899   8.904  0.4930  0.5820 -1.1353
  346MOL0     C46642  10.556   7.832   8.948  0.3223 -0.0304  0.9716
  346MOL0     H46643  10.816   7.441   9.061 -0.7844  0.8921 -0.2045
  346MOL0     H46644  10.997   7.319   9.184 -0.5469 -0.0664 -2.1837
  346MOL0     H46645  11.294   7.587   9.384 -1.5638 -0.4618 -0.8312
  346MOL0     H46646  11.356   7.429   9.422  1.5933 -0.4664 -0.6994
  346MOL0     H46647  11.424   7.397   9.181 -0.2968 -0.1870  0.2485
  346MOL0     H46648  11.359   7.558   9.142 -0.3027  1.1717  1.1686
  346MOL0     H46649  11.576   7.626   9.178 -2.1105  1.4923 -0.0225
  346MOL0     H46650  11.510   7.654   9.326 -3.0028  0.4041 -1.4567
  346MOL0     H46651  11.611   7.472   9.437  2.1286 -2.4791  1.5155
  346MOL0     H46652  11.626   7.374   9.303 -0.7255 -0.6885 -0.0239
  346MOL0     H46653  11.856   7.462   9.352  0.0554 -0.0129 -0.2336
  346MOL0     H46654  11.814   7.525   9.205  0.6361  1.4981 -0.2912
  346MOL0     H46655  11.907   7.714   9.351  0.6218 -1.3443  2.6431
  346MOL0     H46656  11.740   7.759   9.334  1.0516  0.6307 -1.3057
  346MOL0     H46657  11.711   7.675   9.570  0.0624  0.3596 -1.2738
  346MOL0     H46658  11.867   7.586   9.566 -1.5998 -1.6378 -0.2356
  346MOL0     H46659  11.819   7.872   9.537 -0.8179 -1.1150  2.5800
  346MOL0     H46660  11.985   7.806   9.549 -0.7936  2.0556 -0.3789
  346MOL0     H46661  11.876   8.031   9.769 -0.9632  0.5430  1.0219
  346MOL0     H46662  11.728   8.032  10.022 -1.1903 -3.1710 -1.2243
  346MOL0     H46663  11.776   7.892  10.120  1.5000 -0.2601 -0.1953
  346MOL0     H46664  11.958   8.094  10.020  0.1116 -3.0431 -1.2823
  346MOL0     H46665  11.987   7.954  10.129  2.4275  0.0527 -3.2696
  346MOL0     H46666  11.999   8.165  10.256 -0.2682  0.2451 -1.1294
  346MOL0     H46667  11.853   8.066  10.293 -2.8113  0.0670 -1.7287
  346MOL0     H46668  11.716   8.218  10.184 -0.0312  1.2825  0.7622
  346MOL0     H46669  11.838   8.263  10.076 -0.9609 -3.5268 -1.6198
  346MOL0     H46670  11.774   8.621  10.286 -0.0579 -0.0387 -0.0273
  346MOL0     H46671  11.570   8.760  10.479 -1.2336 -2.6788 -2.6093
  346MOL0     H46672  11.706   8.809  10.580  0.5769 -0.3459 -0.2928
  346MOL0     H46673  11.724   8.813  10.406 -0.8510  1.0311  0.0983
  346MOL0     H46674  11.582   8.731  10.973 -0.4050 -0.1718 -1.1877
  346MOL0     H46675  11.523   8.744  11.205  0.5230 -1.0392  0.5193
  346MOL0     H46676  11.547   8.710  11.418  2.2956 -1.7846  1.0652
  346MOL0     H46677  11.376   8.690  11.441 -0.0240 -0.2569 -1.4341
  346MOL0     H46678  11.402   8.559  11.655  1.6627 -1.2139 -0.5684
  346MOL0     H46679  11.577   8.545  11.606 -0.0939 -1.5840 -1.7929
  346MOL0     H46680  11.584   8.789  11.657  1.6258 -1.0139  0.1149
  346MOL0     H46681  11.528   8.705  11.796 -0.4869  2.0144  0.3804
  346MOL0     H46682  11.344   8.841  11.594  1.4411  3.3145  0.2667
  346MOL0     H46683  11.294   8.748  11.753 -1.8273  1.5301  0.3141
  346MOL0     H46684  11.445   8.998  11.749 -1.1958 -1.4607 -3.5560
  346MOL0     H46685  11.370   8.910  11.893 -0.6136 -1.5319  0.3665
  346MOL0     H46686  11.245   9.101  11.828  0.4838  1.7938 -3.7614
  346MOL0     H46687  11.216   9.025  11.667  0.5299  0.7937 -0.0079
  346MOL0     H46688  11.130   8.891  11.927 -2.1121 -0.6503 -0.3852
  346MOL0     H46689  11.101   8.831  11.766 -0.2317 -1.6417  2.8970
  346MOL0     H46690  11.010   9.107  11.839 -2.4862 -0.0508  0.6931
  346MOL0     H46691  10.936   8.962  11.899  2.3094 -0.0769  1.3145
  346MOL0     H46692  11.512   8.315  11.213 -0.5787 -1.6837 -2.0570
  346MOL0     H46693  11.594   8.301  10.991  0.1135  0.7931 -0.9817
  346MOL0     H46694  11.711   8.305  10.658  0.8197 -0.4272 -0.2667
  346MOL0     H46695  11.841   8.240  10.461  1.9621  0.8376 -1.3201
  346MOL0     H46696  11.162   7.709   9.284  1.6802 -0.1394  0.1553
  346MOL0     H46697  10.973   7.814   9.150 -2.4612  0.0161  0.4792
  346MOL0     H46698  10.591   7.607   8.686 -1.3437 -2.4499  1.3936
  346MOL0     H46699  10.393   7.728   8.622 -1.6547 -1.5986  0.4697
  346MOL0     H46700  10.100   7.825   8.870 -2.7628  0.8489 -0.8342
  346MOL0     H46701  10.174   7.964   8.945  0.8533 -0.5980 -0.4495
  346MOL0     H46702   9.931   7.980   8.835 -0.8321 -0.1027 -0.5564
  346MOL0     H46703  10.025   7.971   8.688  0.7427  1.5748 -0.6424
  346MOL0     H46704  10.138   8.200   8.741  2.2771  1.8493  3.2844
  346MOL0     H46705  10.066   8.187   8.904 -0.7641 -1.0098 -0.5115
  346MOL0     H46706   9.912   8.336   8.804 -0.4685 -1.1464  1.7744
  346MOL0     H46707   9.849   8.174   8.752  1.3421 -1.5875  0.9561
  346MOL0     H46708   9.882   8.303   8.377 -2.6353 -3.9130 -0.5253
  346MOL0     H46709  10.400   7.972   8.972 -0.7738 -3.5572  3.0052
  346MOL0     H46710  10.606   7.870   9.036  0.7014 -0.3694  0.9057
  347MOL0     O46711   1.781   5.749  10.753  0.1327  0.0510  0.6856
  347MOL0     C46712   1.740   5.671  10.826  0.0149  0.1718 -0.2494
  347MOL0     O46713   1.806   5.551  10.859  0.1839 -0.5329  0.5432
  347MOL0     C46714   1.937   5.542  10.826  0.8708 -1.2061 -0.5136
  347MOL0     C46715   2.011   5.522  10.937  0.3621 -0.2801  1.0423
  347MOL0     C46716   2.151   5.487  10.915 -0.2274  0.7343  0.6584
  347MOL0     C46717   2.211   5.474  10.790  0.4007 -0.0619  0.3956
  347MOL0     O46718   2.337   5.433  10.774 -0.4892  0.3426  0.6305
  347MOL0     C46719   2.391   5.420  10.644 -0.2220  0.3166  0.2857
  347MOL0     C46720   2.528   5.342  10.656  0.1599  0.3293 -0.0858
  347MOL0     C46721   2.535   5.240  10.768  0.4478  1.5086  0.1255
  347MOL0     C46722   2.427   5.121  10.740  0.7043 -0.4784  0.8541
  347MOL0     C46723   2.454   4.998  10.823  0.7437  0.7673  0.0027
  347MOL0     C46724   2.460   5.024  10.980  0.5334  0.2704  0.7439
  347MOL0     C46725   2.317   5.025  11.054 -0.3749 -0.4222 -0.1418
  347MOL0     C46726   2.225   5.131  11.000  0.4735  0.1297  0.8804
  347MOL0     N46727   2.115   5.141  11.090 -0.0618 -0.6305 -0.8073
  347MOL0     C46728   1.980   5.123  11.072  0.1403  0.3945  0.2946
  347MOL0     C46729   1.924   5.175  11.186 -0.0299 -0.7204  1.1146
  347MOL0     C46730   1.777   5.183  11.221  0.3824  0.9244 -0.3268
  347MOL0     C46731   1.730   5.059  11.302  0.0221 -0.0041  1.1388
  347MOL0     C46732   1.569   5.049  11.306 -0.3884  0.1271 -0.0163
  347MOL0     C46733   1.536   4.909  11.367 -0.3249  0.2746 -0.7814
  347MOL0     O46734   1.590   4.809  11.282  0.3157 -0.2405  0.1468
  347MOL0     C46735   1.589   4.680  11.330  1.2480  0.3878 -0.0474
  347MOL0     C46736   1.564   4.570  11.245  0.6021 -0.4605 -0.3191
  347MOL0     C46737   1.580   4.434  11.288 -0.6015 -0.4845  0.1609
  347MOL0     C46738   1.536   4.331  11.192  0.7434  0.3644  0.6692
  347MOL0     C46739   1.623   4.406  11.419  0.3080  0.5255  1.1831
  347MOL0     C46740   1.645   4.272  11.471  0.2550 -0.3052  0.2729
  347MOL0     O46741   1.652   4.249  11.613 -0.1485  0.1309 -0.0428
  347MOL0     C46742   1.623   4.117  11.664 -0.1626  0.0944 -0.2133
  347MOL0     C46743   1.680   4.000  11.625 -0.4472 -0.2913  1.4162
  347MOL0     C46744   1.637   3.879  11.673  0.4162  1.0063  0.3527
  347MOL0     C46745   1.543   3.874  11.780 -1.2462 -0.4108  0.4775
  347MOL0     O46746   1.507   3.755  11.842  0.1570  0.3076  0.0183
  347MOL0     C46747   1.517   3.633  11.775 -0.2312 -0.0024  1.2542
  347MOL0     C46748   1.619   3.546  11.850 -0.8400  0.9861 -0.8984
  347MOL0     C46749   1.722   3.490  11.761 -1.2340  0.2082  0.1549
  347MOL0     C46750   1.672   3.355  11.696 -0.4360  0.3426  0.3064
  347MOL0     C46751   1.688   3.233  11.788 -0.1647  0.6629  0.3822
  347MOL0     C46752   1.673   3.118  11.699  0.4944 -0.1014 -0.0958
  347MOL0     C46753   1.700   2.981  11.776  0.3761  0.1468  0.4966
  347MOL0     C46754   1.742   2.873  11.671  0.6035  0.9653 -0.3462
  347MOL0    Cl46755   1.913   2.876  11.621  0.2242  0.7942 -0.2344
  347MOL0     C46756   1.487   3.988  11.826  0.1278 -0.3237  0.1345
  347MOL0     C46757   1.524   4.112  11.763 -0.4864 -0.2324 -1.2830
  347MOL0     O46758   1.676   4.187  11.385 -0.2836  0.1345 -0.1354
  347MOL0     C46759   1.645   4.517  11.499  0.0145  0.4509 -0.0599
  347MOL0     C46760   1.632   4.655  11.456  0.2191  0.8407  0.0284
  347MOL0     N46761   2.028   5.221  11.268 -0.6259 -0.3540  0.4493
  347MOL0     N46762   2.136   5.195  11.215  0.0686 -0.0015 -0.8356
  347MOL0     C46763   2.123   5.491  10.677  0.4861 -0.4353 -0.1620
  347MOL0     C46764   1.989   5.530  10.700  0.8020 -0.4591  0.2901
  347MOL0     C46765   1.596   5.698  10.866  0.9026 -0.5691  1.1709
  347MOL0     C46766   1.521   5.801  10.797 -1.2199 -0.3983 -0.4645
  347MOL0     C46767   1.404   5.853  10.867 -0.0189 -0.6911  1.0784
  347MOL0     C46768   1.348   5.780  10.968  0.0589  0.1914 -0.2182
  347MOL0     O46769   1.241   5.824  11.045  0.0702  0.1351  0.5965
  347MOL0     C46770   1.284   5.900  11.157 -0.5993 -0.4064  0.1933
  347MOL0     C46771   1.168   5.971  11.224 -0.5275 -0.0964  0.3957
  347MOL0     C46772   1.110   6.077  11.124  0.7348 -0.1325 -0.9312
  347MOL0     C46773   0.998   6.157  11.190  0.1784  0.2653 -0.3758
  347MOL0     C46774   0.892   6.070  11.234  0.6618 -0.4208  0.4225
  347MOL0     C46775   0.795   6.019  11.285  0.1958 -0.6259 -0.2422
  347MOL0     C46776   1.414   5.663  11.022 -0.1336 -0.2647  0.3359
  347MOL0     C46777   1.541   5.627  10.976 -0.1220 -0.9379  0.2119
  347MOL0     H46778   1.948   5.507  11.024 -0.0870 -0.8375  0.6343
  347MOL0     H46779   2.200   5.440  11.000 -0.4193 -3.4542 -1.2911
  347MOL0     H46780   2.314   5.369  10.585 -2.6588  2.1853  1.6602
  347MOL0     H46781   2.421   5.516  10.600 -1.2343  0.8893  0.8232
  347MOL0     H46782   2.549   5.308  10.554  2.8925  1.4138  0.0248
  347MOL0     H46783   2.605   5.417  10.679  2.4328 -1.7785 -0.4738
  347MOL0     H46784   2.635   5.195  10.768 -0.5294 -0.8804  1.5544
  347MOL0     H46785   2.520   5.293  10.863  2.8239 -0.0486  1.4997
  347MOL0     H46786   2.324   5.157  10.745  1.3549  1.2921  2.9424
  347MOL0     H46787   2.436   5.085  10.637 -1.5319 -1.4007  0.9390
  347MOL0     H46788   2.378   4.922  10.806  1.8456  0.0089 -1.8823
  347MOL0     H46789   2.549   4.954  10.789 -0.0593  1.5147 -3.6013
  347MOL0     H46790   2.528   4.948  11.020 -0.8489 -2.3148 -1.4946
  347MOL0     H46791   2.524   5.110  11.001  3.7979 -1.7243 -0.1413
  347MOL0     H46792   2.269   4.927  11.047  0.1138 -0.6352 -5.8228
  347MOL0     H46793   2.331   5.050  11.159 -2.0233  2.9101 -0.6123
  347MOL0     H46794   2.178   5.092  10.909  0.5147 -2.9366  2.0569
  347MOL0     H46795   2.286   5.220  10.980  1.5829 -0.9099 -0.6090
  347MOL0     H46796   1.935   5.084  10.982  2.4844  1.0112 -1.2197
  347MOL0     H46797   1.754   5.275  11.276 -0.0672  0.8914 -0.4590
  347MOL0     H46798   1.713   5.177  11.132 -0.5368 -2.9477  0.4126
  347MOL0     H46799   1.772   5.056  11.403 -0.0002 -2.5675  1.1305
  347MOL0     H46800   1.757   4.963  11.259  0.6254  0.8722 -0.5334
  347MOL0     H46801   1.541   5.060  11.200 -0.7121  1.0834  0.1611
  347MOL0     H46802   1.522   5.126  11.368 -3.3236 -0.0790 -1.7749
  347MOL0     H46803   1.428   4.903  11.386 -0.2567 -0.2904 -0.5525
  347MOL0     H46804   1.584   4.899  11.465  1.0341 -0.3824 -1.4905
  347MOL0     H46805   1.528   4.591  11.145 -1.8014  0.5623  0.6906
  347MOL0     H46806   1.511   4.366  11.092 -0.8883 -0.4635  0.7447
  347MOL0     H46807   1.610   4.255  11.163 -1.0484 -1.3947  0.4798
  347MOL0     H46808   1.441   4.295  11.231  0.6237  0.6379  0.6290
  347MOL0     H46809   1.760   3.997  11.552 -1.9677  1.7030 -0.4853
  347MOL0     H46810   1.685   3.789  11.636  0.4962  0.4898  1.6455
  347MOL0     H46811   1.419   3.587  11.791  0.1664 -0.6973  1.7582
  347MOL0     H46812   1.538   3.645  11.668  3.4984 -2.0963  1.5794
  347MOL0     H46813   1.668   3.618  11.917 -0.4727 -1.5443  1.7716
  347MOL0     H46814   1.571   3.479  11.921  2.7503 -1.8645 -0.8483
  347MOL0     H46815   1.808   3.465  11.824 -2.4424 -2.9636  0.7450
  347MOL0     H46816   1.742   3.567  11.686 -0.9723  0.1186  0.1335
  347MOL0     H46817   1.571   3.355  11.654  0.3556 -1.7130 -1.8044
  347MOL0     H46818   1.742   3.344  11.613  1.0931 -1.8018  1.7826
  347MOL0     H46819   1.619   3.250  11.872  0.3016  2.6610  0.4160
  347MOL0     H46820   1.786   3.230  11.836  0.5675  2.1034 -0.9413
  347MOL0     H46821   1.575   3.121  11.651  0.9342  2.2966 -0.9795
  347MOL0     H46822   1.744   3.116  11.615  0.6737 -1.4114  0.0576
  347MOL0     H46823   1.617   2.957  11.843  1.0340 -2.3087  0.5600
  347MOL0     H46824   1.782   2.980  11.850  0.8856  0.3331 -0.0560
  347MOL0     H46825   1.672   2.877  11.586  1.0160  0.1126 -0.7373
  347MOL0     H46826   1.719   2.777  11.717 -0.3248  0.7673 -1.1648
  347MOL0     H46827   1.408   3.983  11.900  1.3810 -1.5910  1.4471
  347MOL0     H46828   1.486   4.207  11.801 -0.5548 -0.1068 -1.6640
  347MOL0     H46829   1.683   4.510  11.600  3.7890 -1.2594 -1.3962
  347MOL0     H46830   1.672   4.736  11.516  3.3641 -2.1036  2.3100
  347MOL0     H46831   2.153   5.468  10.575  0.6593  2.3326 -0.8270
  347MOL0     H46832   1.927   5.548  10.612  0.4613  2.7174  1.0529
  347MOL0     H46833   1.572   5.856  10.718  1.3495  1.8072  2.4827
  347MOL0     H46834   1.386   5.957  10.843  1.6300 -0.3022  1.3724
  347MOL0     H46835   1.325   5.826  11.226  1.4591 -0.4391 -0.9697
  347MOL0     H46836   1.363   5.975  11.141  0.8134 -1.0106  3.5410
  347MOL0     H46837   1.213   6.015  11.313  3.0156 -1.2425 -0.6472
  347MOL0     H46838   1.082   5.904  11.236 -2.2905  1.9342 -0.1980
  347MOL0     H46839   1.070   6.020  11.039  1.0760 -1.3463 -0.2985
  347MOL0     H46840   1.193   6.140  11.091  1.9686 -2.0025 -1.5969
  347MOL0     H46841   0.959   6.244  11.137 -0.0930  1.6133  1.8789
  347MOL0     H46842   1.040   6.178  11.289 -1.0024 -2.3272  0.7780
  347MOL0     H46843   0.725   5.976  11.354 -0.8921 -1.4381 -1.8092
  347MOL0     H46844   1.358   5.620  11.104 -3.6276  0.6714 -1.3965
  347MOL0     H46845   1.613   5.554  11.012  0.6692 -1.7586 -2.7881
  348MOL0     O46846   6.764   9.234   3.950  0.0221 -0.3609 -0.3262
  348MOL0     C46847   6.851   9.195   4.024 -0.8549 -0.5840  0.1710
  348MOL0     O46848   6.985   9.226   4.023 -0.4569  0.1419  0.2332
  348MOL0     C46849   7.047   9.298   3.919 -0.5803 -0.8435 -0.6924
  348MOL0     C46850   6.988   9.330   3.794 -0.1895  0.4264  0.7062
  348MOL0     C46851   7.070   9.405   3.708 -0.0183  0.5231  0.3602
  348MOL0     C46852   7.199   9.436   3.734  0.4777 -0.6790 -0.4005
  348MOL0     O46853   7.266   9.522   3.644  0.1179 -0.2360  0.0234
  348MOL0     C46854   7.407   9.493   3.617 -1.6232 -0.2977 -0.7657
  348MOL0     C46855   7.435   9.359   3.543  1.1648  0.0901 -0.8467
  348MOL0     C46856   7.377   9.355   3.400  0.2745  0.2286  0.3974
  348MOL0     C46857   7.460   9.445   3.309  0.6341  0.3649 -0.2928
  348MOL0     C46858   7.431   9.409   3.166 -0.0250  0.6013 -0.2495
  348MOL0     C46859   7.307   9.479   3.106  0.9839  0.3884  0.4613
  348MOL0     C46860   7.271   9.413   2.967  0.5013 -0.2960  0.4850
  348MOL0     C46861   7.155   9.489   2.897 -0.3565  0.1397 -0.6489
  348MOL0     N46862   7.100   9.409   2.782 -0.2161  0.8826  0.4720
  348MOL0     C46863   7.166   9.415   2.659  0.1961  0.4241  0.1366
  348MOL0     C46864   7.137   9.300   2.595 -0.1465  0.7778  0.2450
  348MOL0     C46865   7.175   9.267   2.454 -0.2263  0.2454 -0.0205
  348MOL0     C46866   7.068   9.193   2.376 -0.0819  0.5619 -0.4230
  348MOL0     C46867   6.946   9.276   2.355  0.6334 -0.5850  0.4230
  348MOL0     C46868   6.825   9.205   2.292 -0.6009 -0.0893  1.3280
  348MOL0     O46869   6.701   9.277   2.317  0.4426  0.2975  0.3330
  348MOL0     C46870   6.581   9.209   2.316 -0.6147  0.1582  1.0641
  348MOL0     C46871   6.481   9.239   2.402 -0.2375  0.5016 -0.6855
  348MOL0     C46872   6.362   9.162   2.404  0.8822  0.1961 -0.4953
  348MOL0     C46873   6.262   9.192   2.514  0.4902 -0.4385  0.3681
  348MOL0     C46874   6.346   9.047   2.316  0.9774 -0.0431 -0.2401
  348MOL0     C46875   6.230   8.962   2.308 -0.4873  0.1891  0.1912
  348MOL0     O46876   6.112   9.022   2.277  0.6908  0.0552  0.3782
  348MOL0     C46877   5.997   8.949   2.235  0.3417  0.4002  0.4234
  348MOL0     C46878   5.986   8.821   2.184 -0.2939  0.7287  0.4725
  348MOL0     C46879   5.858   8.757   2.159 -0.1927 -0.5408 -0.4651
  348MOL0     C46880   5.742   8.831   2.191  0.9322 -0.4249  0.5659
  348MOL0     O46881   5.608   8.802   2.203 -0.0484  0.3923 -0.2408
  348MOL0     C46882   5.573   8.658   2.187  0.8054 -0.9288 -0.2364
  348MOL0     C46883   5.559   8.627   2.038  0.0244 -0.1466 -0.1959
  348MOL0     C46884   5.554   8.478   1.993 -0.1336  0.5638 -0.1708
  348MOL0     C46885   5.583   8.382   2.101  0.7241  0.3670 -0.0143
  348MOL0     C46886   5.562   8.247   2.048  0.2111  0.0627  0.7301
  348MOL0     C46887   5.572   8.137   2.152  0.4686  1.0593 -1.2180
  348MOL0     C46888   5.440   8.127   2.230 -0.6966  0.7717 -0.3282
  348MOL0     C46889   5.397   7.992   2.271 -0.1911  0.2205  0.9474
  348MOL0    Cl46890   5.523   7.886   2.351 -0.3477 -0.0115 -0.3154
  348MOL0     C46891   5.758   8.963   2.239 -0.4730 -0.8936  0.5873
  348MOL0     C46892   5.884   9.014   2.266 -0.6999 -0.1435  0.6211
  348MOL0     O46893   6.251   8.850   2.347  0.3523  0.0465  0.2115
  348MOL0     C46894   6.443   9.032   2.220 -0.5119 -0.0105  0.7426
  348MOL0     C46895   6.559   9.110   2.218  0.4438  0.1851 -0.2117
  348MOL0     N46896   7.059   9.220   2.685  0.7882 -0.4797  0.4250
  348MOL0     N46897   7.042   9.293   2.796  0.0138  0.4000  0.4497
  348MOL0     C46898   7.252   9.422   3.858  0.3202 -0.4474 -0.6537
  348MOL0     C46899   7.183   9.347   3.954 -0.1093 -0.0542  0.0618
  348MOL0     C46900   6.804   9.096   4.116  0.5876 -0.1223  0.4506
  348MOL0     C46901   6.890   9.040   4.217  0.1008 -0.2252 -0.4929
  348MOL0     C46902   6.834   8.958   4.313  0.5666  0.5779  0.3083
  348MOL0     C46903   6.690   8.915   4.304 -0.5418  0.9219 -0.7335
  348MOL0     O46904   6.634   8.817   4.389 -0.3614 -1.1879 -0.2634
  348MOL0     C46905   6.699   8.787   4.511  0.1096  0.4956 -0.5555
  348MOL0     C46906   6.607   8.730   4.616  0.2383  0.0912  0.7411
  348MOL0     C46907   6.500   8.831   4.660  0.4824 -0.4566  0.0703
  348MOL0     C46908   6.392   8.779   4.762 -0.6415 -0.7393 -0.1213
  348MOL0     C46909   6.325   8.659   4.706 -0.5460  1.3881 -0.2966
  348MOL0     C46910   6.253   8.572   4.663 -0.0213  1.0452  0.5241
  348MOL0     C46911   6.614   8.976   4.205 -0.2878  0.1114  0.4312
  348MOL0     C46912   6.666   9.069   4.120  0.5885 -0.7629 -0.5141
  348MOL0     H46913   6.889   9.299   3.762 -0.0432 -0.6221  1.2475
  348MOL0     H46914   7.031   9.443   3.613  0.8824  0.7210  0.0657
  348MOL0     H46915   7.463   9.571   3.565 -0.8820 -0.3688 -0.0926
  348MOL0     H46916   7.456   9.506   3.714  1.3295  2.0919 -2.4182
  348MOL0     H46917   7.536   9.319   3.554  2.0033  2.6352  2.6397
  348MOL0     H46918   7.384   9.278   3.597 -2.8750  2.1366 -1.1980
  348MOL0     H46919   7.383   9.256   3.355 -1.3586  1.8576 -3.9674
  348MOL0     H46920   7.272   9.385   3.393 -0.5802 -2.4701  0.4555
  348MOL0     H46921   7.467   9.554   3.321  2.3467  0.3619 -1.1193
  348MOL0     H46922   7.566   9.426   3.326  0.8427  1.4698 -0.2828
  348MOL0     H46923   7.522   9.433   3.111  0.6848 -3.6287 -1.2743
  348MOL0     H46924   7.423   9.301   3.151 -4.2043  0.5736  0.9933
  348MOL0     H46925   7.219   9.455   3.165  1.2906 -2.7355 -0.1808
  348MOL0     H46926   7.326   9.587   3.103  1.4521  0.3009 -0.0954
  348MOL0     H46927   7.358   9.429   2.902  2.1567  1.8357  3.0633
  348MOL0     H46928   7.240   9.309   2.982 -2.2014  0.4554  0.7260
  348MOL0     H46929   7.189   9.588   2.866  0.1083  0.6200  1.2739
  348MOL0     H46930   7.076   9.499   2.973  0.8635 -2.1936  1.0882
  348MOL0     H46931   7.235   9.491   2.624  1.4155  0.2131  1.9282
  348MOL0     H46932   7.212   9.351   2.395 -0.2371 -0.8281 -1.6078
  348MOL0     H46933   7.264   9.205   2.464 -0.5656 -0.6240 -1.9983
  348MOL0     H46934   7.049   9.095   2.421  0.2367 -0.2759 -2.0654
  348MOL0     H46935   7.122   9.182   2.281  3.0389  3.1372  0.8531
  348MOL0     H46936   6.969   9.369   2.302 -1.9586 -2.0427 -3.7172
  348MOL0     H46937   6.902   9.299   2.453 -0.4570  0.6922 -0.3308
  348MOL0     H46938   6.831   9.105   2.334  1.7010 -1.8266 -2.5085
  348MOL0     H46939   6.847   9.200   2.185 -1.4182  0.3274  1.1339
  348MOL0     H46940   6.491   9.318   2.476 -2.1623 -2.8083  3.5446
  348MOL0     H46941   6.162   9.155   2.488 -0.1066 -0.1114  2.0840
  348MOL0     H46942   6.291   9.136   2.603 -0.9604 -0.8675  0.5989
  348MOL0     H46943   6.262   9.299   2.535 -0.3211  0.2008 -2.4732
  348MOL0     H46944   6.081   8.770   2.169 -1.5252 -1.5931  0.1241
  348MOL0     H46945   5.860   8.658   2.117  1.1457 -0.7886  0.1445
  348MOL0     H46946   5.656   8.591   2.213 -1.6007 -4.5516 -1.0519
  348MOL0     H46947   5.481   8.639   2.242  0.6513  1.0769  0.2503
  348MOL0     H46948   5.458   8.664   2.017  0.4805 -0.1394 -2.7103
  348MOL0     H46949   5.626   8.689   1.978  0.9455  0.8244  1.7429
  348MOL0     H46950   5.637   8.461   1.923 -2.7882  2.5655 -4.1990
  348MOL0     H46951   5.458   8.461   1.945  0.3036 -0.6698 -0.6349
  348MOL0     H46952   5.687   8.396   2.132  0.9951  0.2134 -0.8475
  348MOL0     H46953   5.511   8.384   2.184 -0.3138 -0.0394 -0.8751
  348MOL0     H46954   5.649   8.245   1.982 -1.1106 -1.0618 -1.0438
  348MOL0     H46955   5.478   8.228   1.981 -1.1108 -0.7146  2.5309
  348MOL0     H46956   5.580   8.043   2.097 -3.2283  0.9596 -1.8655
  348MOL0     H46957   5.663   8.141   2.212  2.1222  0.6082 -3.5680
  348MOL0     H46958   5.355   8.164   2.171 -0.9550 -0.9727 -1.0983
  348MOL0     H46959   5.463   8.179   2.324  3.6239 -1.1263 -0.1210
  348MOL0     H46960   5.363   7.942   2.180  1.3098  2.6847 -1.1113
  348MOL0     H46961   5.309   8.011   2.333 -0.0469  2.1393  0.6408
  348MOL0     H46962   5.673   9.026   2.262 -0.4396 -0.4372 -0.5181
  348MOL0     H46963   5.885   9.109   2.319 -4.3092 -1.2658  3.1086
  348MOL0     H46964   6.434   8.952   2.147  0.6813 -0.1222  0.6953
  348MOL0     H46965   6.651   9.092   2.164  2.1906  1.1545  2.2060
  348MOL0     H46966   7.330   9.490   3.891  1.2807 -1.2798 -1.1695
  348MOL0     H46967   7.222   9.331   4.054 -0.2501 -0.7562  0.0078
  348MOL0     H46968   6.996   9.062   4.223  0.5059 -2.4059  2.7177
  348MOL0     H46969   6.903   8.907   4.379 -1.3198 -0.5294  1.5105
  348MOL0     H46970   6.787   8.724   4.489  0.6338  1.9327 -2.9436
  348MOL0     H46971   6.741   8.876   4.558  1.7575 -0.0580 -0.8912
  348MOL0     H46972   6.676   8.706   4.698  1.4469 -0.0692 -0.2886
  348MOL0     H46973   6.573   8.637   4.569  2.9244 -1.0971  0.9085
  348MOL0     H46974   6.449   8.845   4.564  1.6086 -0.0815 -0.4823
  348MOL0     H46975   6.554   8.919   4.696 -0.9811  0.4332  0.2103
  348MOL0     H46976   6.321   8.860   4.777 -0.1989 -0.2909 -0.4205
  348MOL0     H46977   6.441   8.764   4.859 -1.3724  2.8795  0.9474
  348MOL0     H46978   6.198   8.488   4.625 -1.6466  0.0117  4.6224
  348MOL0     H46979   6.511   8.942   4.198  0.1275 -1.0465 -0.5533
  348MOL0     H46980   6.589   9.097   4.048 -0.3874 -4.1113 -0.9376
  349MOL0     O46981   5.091   4.808   5.818  0.0671 -0.3930 -0.4225
  349MOL0     C46982   5.087   4.697   5.766 -0.1470  0.3096  0.5145
  349MOL0     O46983   4.972   4.616   5.762 -0.4581 -0.6186  0.1072
  349MOL0     C46984   4.858   4.641   5.840  0.2908  1.0183  0.8324
  349MOL0     C46985   4.843   4.704   5.956  0.2589  0.8411  0.0066
  349MOL0     C46986   4.717   4.716   6.016 -0.5578 -0.1870 -0.5043
  349MOL0     C46987   4.604   4.659   5.955 -0.6549 -0.6490 -0.8997
  349MOL0     O46988   4.476   4.679   5.990  0.6775  0.2134 -0.5498
  349MOL0     C46989   4.436   4.736   6.117  0.6207 -0.5631 -0.3645
  349MOL0     C46990   4.292   4.692   6.161 -0.9652  0.0188  0.5831
  349MOL0     C46991   4.198   4.696   6.040 -0.4604  0.5795 -1.3587
  349MOL0     C46992   4.179   4.838   5.995  0.2105  0.2786  0.1402
  349MOL0     C46993   4.065   4.847   5.891 -0.0337 -0.2799  0.2212
  349MOL0     C46994   3.924   4.830   5.943 -0.5244 -1.0023  0.5902
  349MOL0     C46995   3.885   4.871   6.094  0.2473 -0.5676 -0.1052
  349MOL0     C46996   3.878   5.026   6.108 -0.3517 -1.0748  1.0110
  349MOL0     N46997   3.807   5.067   6.233 -0.0676 -0.0078 -1.0856
  349MOL0     C46998   3.667   5.053   6.239 -1.1492  0.2461  0.4808
  349MOL0     C46999   3.643   5.086   6.368  0.2148  0.2257 -0.1858
  349MOL0     C47000   3.505   5.086   6.418 -0.2771  0.1740 -0.4889
  349MOL0     C47001   3.452   4.937   6.412 -0.6097  0.1986 -0.0685
  349MOL0     C47002   3.306   4.929   6.454  0.1089 -0.2059  0.2568
  349MOL0     C47003   3.248   4.795   6.421 -0.3001 -0.2291 -0.2855
  349MOL0     O47004   3.124   4.792   6.486 -0.8648 -0.4943 -0.3049
  349MOL0     C47005   3.038   4.681   6.466 -0.4064 -0.0950  0.0548
  349MOL0     C47006   3.083   4.564   6.401 -0.8519  0.4754  0.4117
  349MOL0     C47007   3.003   4.451   6.391  0.0481 -0.2150 -0.2397
  349MOL0     C47008   3.050   4.330   6.317 -0.2700  0.1364  0.9292
  349MOL0     C47009   2.874   4.458   6.446  1.1107  0.5475 -0.7451
  349MOL0     C47010   2.764   4.354   6.423  0.1162 -0.3129  0.0701
  349MOL0     O47011   2.787   4.220   6.419  0.1775  0.6325 -0.0164
  349MOL0     C47012   2.691   4.131   6.365  0.2406 -0.0527 -0.5017
  349MOL0     C47013   2.601   4.163   6.262  0.6802 -0.2051  0.0281
  349MOL0     C47014   2.508   4.064   6.215 -0.0007 -0.1846  0.1026
  349MOL0     C47015   2.516   3.929   6.257 -0.1313  0.6195  0.3824
  349MOL0     O47016   2.440   3.823   6.210 -0.2331  0.4616  0.4290
  349MOL0     C47017   2.475   3.791   6.074 -0.6307 -0.8654 -0.6276
  349MOL0     C47018   2.360   3.746   5.988 -0.2690  0.2122 -0.0729
  349MOL0     C47019   2.396   3.697   5.837  0.2938 -0.4716 -1.3336
  349MOL0     C47020   2.383   3.807   5.725  0.3828 -0.7678  0.2109
  349MOL0     C47021   2.367   3.761   5.581  0.5995  0.3716 -0.2935
  349MOL0     C47022   2.385   3.872   5.480  0.4890 -0.5911 -0.4420
  349MOL0     C47023   2.400   3.817   5.343  0.1103 -0.6593  0.6029
  349MOL0     C47024   2.545   3.831   5.287 -0.1575  0.1463  0.7817
  349MOL0    Cl47025   2.517   3.784   5.119  0.4776 -0.4242  0.1335
  349MOL0     C47026   2.605   3.900   6.365  0.2691 -0.5033  0.4613
  349MOL0     C47027   2.687   4.003   6.414  0.0092  0.6792 -0.6538
  349MOL0     O47028   2.651   4.401   6.409  0.5019  0.1413  0.1349
  349MOL0     C47029   2.830   4.586   6.499 -0.1723  0.6507 -0.1416
  349MOL0     C47030   2.912   4.689   6.510  0.2069 -0.3757 -0.3685
  349MOL0     N47031   3.766   5.100   6.437 -0.0620 -0.3244  0.1626
  349MOL0     N47032   3.862   5.088   6.353  0.2795  0.3289  0.2240
  349MOL0     C47033   4.626   4.601   5.835 -0.1031  0.2261 -0.1326
  349MOL0     C47034   4.753   4.583   5.778 -0.3170  0.9652 -0.7244
  349MOL0     C47035   5.208   4.650   5.689  0.1248 -0.2513 -0.4385
  349MOL0     C47036   5.207   4.536   5.606  0.8155  0.5641  0.6445
  349MOL0     C47037   5.325   4.506   5.534 -0.8422  0.6548 -0.4344
  349MOL0     C47038   5.442   4.569   5.552  0.9372 -0.5252  0.7160
  349MOL0     O47039   5.546   4.519   5.481  0.7554 -0.1168  0.0470
  349MOL0     C47040   5.653   4.612   5.440 -0.3027  1.4575 -0.0828
  349MOL0     C47041   5.740   4.534   5.341 -0.4805 -0.3370  0.0475
  349MOL0     C47042   5.872   4.605   5.321 -0.1835 -1.1334 -0.5853
  349MOL0     C47043   5.979   4.497   5.293  0.0873 -0.7937 -1.0859
  349MOL0     C47044   5.947   4.441   5.163 -1.1391  0.4033 -0.2782
  349MOL0     C47045   5.915   4.400   5.057 -0.2565  0.2128  0.0280
  349MOL0     C47046   5.453   4.676   5.638 -0.0947 -0.8415 -0.7474
  349MOL0     C47047   5.333   4.720   5.707 -0.6102  1.1913 -0.5445
  349MOL0     H47048   4.931   4.736   6.011  1.0528 -0.4846 -0.4250
  349MOL0     H47049   4.711   4.762   6.114 -0.0059 -1.3357  0.0881
  349MOL0     H47050   4.510   4.699   6.189  0.2689 -2.9444 -1.1377
  349MOL0     H47051   4.451   4.844   6.116 -4.7564  0.4860  0.6968
  349MOL0     H47052   4.294   4.590   6.200  0.5742 -0.9521 -1.7761
  349MOL0     H47053   4.258   4.762   6.237 -0.9376  0.6964 -0.0181
  349MOL0     H47054   4.235   4.633   5.959  1.0986  1.0042 -1.0153
  349MOL0     H47055   4.094   4.668   6.062 -0.3614  0.4154 -1.1008
  349MOL0     H47056   4.169   4.907   6.079  3.8844  0.0397  0.9524
  349MOL0     H47057   4.273   4.871   5.948  1.2394 -2.2493  0.2475
  349MOL0     H47058   4.080   4.948   5.851 -1.7565 -0.6856 -1.6044
  349MOL0     H47059   4.075   4.780   5.805 -1.9949  0.7051 -0.8399
  349MOL0     H47060   3.848   4.864   5.873  0.6718  0.7202  0.0675
  349MOL0     H47061   3.907   4.722   5.949  2.3350 -1.7827 -2.4510
  349MOL0     H47062   3.783   4.836   6.115 -0.8454  2.4601  0.1760
  349MOL0     H47063   3.940   4.832   6.180 -1.9819  1.4042  2.3902
  349MOL0     H47064   3.820   5.074   6.029  1.5836  0.3476  0.3604
  349MOL0     H47065   3.978   5.071   6.116 -0.6621 -0.6790  3.2511
  349MOL0     H47066   3.609   5.006   6.160 -0.7050  0.5218 -0.0145
  349MOL0     H47067   3.511   5.140   6.513 -0.4078  3.1859 -2.0931
  349MOL0     H47068   3.442   5.149   6.355 -1.4745 -1.7647 -1.3224
  349MOL0     H47069   3.511   4.877   6.481  3.4852  1.0823 -2.4562
  349MOL0     H47070   3.467   4.892   6.313 -0.7971 -0.3488  0.1474
  349MOL0     H47071   3.242   4.996   6.396 -2.7833 -2.5701  0.4653
  349MOL0     H47072   3.288   4.963   6.557 -0.8332 -0.0709  0.0580
  349MOL0     H47073   3.318   4.725   6.469 -2.2771 -3.1347 -1.3488
  349MOL0     H47074   3.240   4.770   6.315  1.2871 -0.8509 -0.2906
  349MOL0     H47075   3.188   4.559   6.375 -1.1418  1.6808 -1.1316
  349MOL0     H47076   3.159   4.341   6.311  0.1819 -2.6872  2.2171
  349MOL0     H47077   3.034   4.237   6.373  1.3253  0.5657  2.1880
  349MOL0     H47078   3.003   4.311   6.220  2.1884 -1.5794 -0.0631
  349MOL0     H47079   2.597   4.261   6.215 -1.5558  2.7385  5.4563
  349MOL0     H47080   2.438   4.090   6.137 -0.6858 -2.3893 -0.0908
  349MOL0     H47081   2.513   3.884   6.032  1.6934 -1.1863  0.5944
  349MOL0     H47082   2.545   3.707   6.074  1.0199  0.4504 -1.5957
  349MOL0     H47083   2.315   3.655   6.029 -3.5607  0.9786 -1.6412
  349MOL0     H47084   2.281   3.822   5.989  0.4207  0.9564 -1.1048
  349MOL0     H47085   2.323   3.621   5.805 -1.5293  1.3503 -1.7487
  349MOL0     H47086   2.493   3.647   5.832  0.6288 -0.4151  2.2336
  349MOL0     H47087   2.290   3.865   5.733 -0.3085 -1.0799 -3.6394
  349MOL0     H47088   2.468   3.876   5.737 -2.5097  3.1320  0.5286
  349MOL0     H47089   2.267   3.730   5.549  0.1451  0.2246  1.1934
  349MOL0     H47090   2.427   3.672   5.559  3.1192  2.5533 -3.0011
  349MOL0     H47091   2.307   3.948   5.486  0.8070 -0.2781 -0.1766
  349MOL0     H47092   2.471   3.933   5.509  0.5992  0.0270 -1.9919
  349MOL0     H47093   2.329   3.868   5.277  0.3483 -2.0190 -0.7626
  349MOL0     H47094   2.378   3.709   5.344 -2.0605 -0.3413 -1.8831
  349MOL0     H47095   2.622   3.769   5.334  2.2297 -0.0273 -2.9207
  349MOL0     H47096   2.563   3.938   5.283 -2.4123  0.5565 -0.7084
  349MOL0     H47097   2.612   3.804   6.414 -0.1297 -1.8021 -1.8940
  349MOL0     H47098   2.765   3.971   6.483  0.0753  1.6451 -0.2723
  349MOL0     H47099   2.727   4.594   6.534 -0.6958 -2.8508 -0.5299
  349MOL0     H47100   2.866   4.773   6.561 -1.9030 -1.2260 -0.7761
  349MOL0     H47101   4.537   4.568   5.782 -0.9094 -1.5764  2.1315
  349MOL0     H47102   4.770   4.537   5.681  2.5922  1.9929 -0.7912
  349MOL0     H47103   5.116   4.479   5.587  1.1878 -0.3477  1.5077
  349MOL0     H47104   5.327   4.427   5.460 -2.7550 -0.4149  0.5712
  349MOL0     H47105   5.619   4.708   5.400 -0.9003  1.9729  1.6080
  349MOL0     H47106   5.707   4.638   5.531 -1.9839 -0.8448  1.6917
  349MOL0     H47107   5.681   4.523   5.249 -3.0277 -0.8125  1.6523
  349MOL0     H47108   5.756   4.437   5.388 -1.9213  0.1389  1.5852
  349MOL0     H47109   5.883   4.663   5.413  0.5282 -1.3862 -0.5065
  349MOL0     H47110   5.875   4.676   5.238  0.3735 -0.0769  0.3170
  349MOL0     H47111   5.966   4.415   5.366 -0.9957  0.9247  0.7555
  349MOL0     H47112   6.078   4.538   5.313 -1.3023  1.6183  1.6546
  349MOL0     H47113   5.887   4.376   4.957  0.6147  3.1958 -1.0333
  349MOL0     H47114   5.539   4.742   5.639 -2.0252  1.8771 -0.8210
  349MOL0     H47115   5.340   4.802   5.777  1.6323  1.5375 -1.0774
  350MOL0     O47116   8.306   2.787   9.272  0.4553 -0.5965 -0.8002
  350MOL0     C47117   8.389   2.814   9.186  0.1190  0.2531  0.5388
  350MOL0     O47118   8.393   2.914   9.101 -0.2473 -0.0519  0.4279
  350MOL0     C47119   8.289   3.011   9.120  0.1183 -0.9385 -0.0332
  350MOL0     C47120   8.325   3.135   9.163  0.0656 -0.0293  0.1992
  350MOL0     C47121   8.241   3.248   9.183  0.2921  0.3642  0.0002
  350MOL0     C47122   8.106   3.232   9.158 -0.0578  0.8794 -0.0435
  350MOL0     O47123   8.038   3.352   9.161  0.4220  0.0593 -0.0906
  350MOL0     C47124   7.915   3.350   9.073 -0.7582 -0.2916 -0.1143
  350MOL0     C47125   7.969   3.344   8.927 -0.4501 -0.9605  0.4140
  350MOL0     C47126   7.992   3.484   8.864  0.1751  0.8208  0.3154
  350MOL0     C47127   8.007   3.472   8.710 -0.2653 -0.7489 -0.3032
  350MOL0     C47128   8.084   3.597   8.659  0.0808  0.5248  0.1181
  350MOL0     C47129   8.015   3.663   8.533  0.3183  0.5539 -0.4276
  350MOL0     C47130   8.104   3.792   8.495  0.6800 -0.4216  0.6660
  350MOL0     C47131   8.083   3.847   8.354 -0.1573  0.8136  1.2888
  350MOL0     N47132   8.168   3.794   8.248 -0.3531  1.0070 -0.0313
  350MOL0     C47133   8.307   3.804   8.233 -0.0252  0.7108 -0.0747
  350MOL0     C47134   8.343   3.713   8.139  0.3668  0.2743 -1.1423
  350MOL0     C47135   8.470   3.712   8.055  0.8938  0.2443  0.1269
  350MOL0     C47136   8.450   3.757   7.912  0.3065  0.0928 -0.3811
  350MOL0     C47137   8.578   3.743   7.839 -0.3256 -0.2937 -0.2687
  350MOL0     C47138   8.554   3.799   7.699 -0.1638  0.3701  0.6947
  350MOL0     O47139   8.680   3.831   7.634  0.9239  0.1352  0.1731
  350MOL0     C47140   8.674   3.877   7.506  0.2317  0.5484  0.2576
  350MOL0     C47141   8.791   3.869   7.430 -0.4333  0.2382  0.0178
  350MOL0     C47142   8.809   3.889   7.291 -0.6411 -0.3250 -0.5114
  350MOL0     C47143   8.952   3.853   7.236  1.8721  0.1879 -0.8488
  350MOL0     C47144   8.695   3.927   7.225  0.9065  1.0652  0.8617
  350MOL0     C47145   8.694   3.926   7.082 -0.0538  0.2150  1.0800
  350MOL0     O47146   8.575   3.884   7.029  0.7938  0.3622 -1.9110
  350MOL0     C47147   8.563   3.850   6.895 -0.0711 -0.8676  0.6531
  350MOL0     C47148   8.451   3.897   6.825  0.7284 -0.0189  0.9310
  350MOL0     C47149   8.413   3.836   6.704  0.5225 -0.3563 -0.5731
  350MOL0     C47150   8.481   3.726   6.654  0.0520 -0.4540 -0.0263
  350MOL0     O47151   8.438   3.662   6.539  0.7877  2.3093  0.4849
  350MOL0     C47152   8.320   3.693   6.472  1.3859  0.3596  0.4568
  350MOL0     C47153   8.204   3.610   6.529 -0.0788 -0.1413  0.4743
  350MOL0     C47154   8.232   3.460   6.512  0.8153  0.4341  0.4871
  350MOL0     C47155   8.233   3.417   6.362  0.5289  0.8087  0.4088
  350MOL0     C47156   8.252   3.259   6.343  0.8004 -0.5655 -0.1674
  350MOL0     C47157   8.134   3.196   6.401 -0.0995  0.7035  1.6279
  350MOL0     C47158   8.134   3.047   6.370  0.0275  0.2128 -0.4098
  350MOL0     C47159   8.147   3.014   6.220  0.3850  0.6286 -1.2601
  350MOL0    Cl47160   8.303   2.961   6.159 -0.1508 -0.2255  0.6091
  350MOL0     C47161   8.597   3.680   6.719  0.8324  0.5894  0.6604
  350MOL0     C47162   8.641   3.747   6.832  0.4907  0.4503 -0.2712
  350MOL0     O47163   8.788   3.960   7.015  0.4909 -0.2497  0.6643
  350MOL0     C47164   8.566   3.932   7.300 -0.1879 -0.1354  0.0033
  350MOL0     C47165   8.557   3.903   7.434  0.4854 -0.4237 -0.7920
  350MOL0     N47166   8.232   3.631   8.102 -0.5036 -0.2284 -0.2250
  350MOL0     N47167   8.133   3.685   8.167 -0.7557 -0.1603 -0.7632
  350MOL0     C47168   8.062   3.105   9.117  0.0111 -0.4192 -0.1440
  350MOL0     C47169   8.156   2.994   9.101  0.2447 -0.1627 -0.6085
  350MOL0     C47170   8.513   2.739   9.178  1.0114  1.0044 -0.3166
  350MOL0     C47171   8.553   2.658   9.287 -0.2512  0.0187  0.0809
  350MOL0     C47172   8.684   2.599   9.289  0.8348  0.4885  0.6914
  350MOL0     C47173   8.771   2.621   9.183  0.3796  0.5695  0.1022
  350MOL0     O47174   8.902   2.596   9.195  0.4954  0.3459 -0.3853
  350MOL0     C47175   8.953   2.487   9.278  0.9017 -0.5150  0.1017
  350MOL0     C47176   9.093   2.444   9.234  0.6003  0.4973 -0.4692
  350MOL0     C47177   9.127   2.296   9.249 -0.6912  0.2326 -0.7484
  350MOL0     C47178   9.184   2.260   9.384 -0.4804 -0.4554 -0.0643
  350MOL0     C47179   9.081   2.276   9.485 -0.0532 -0.2754  0.6257
  350MOL0     C47180   8.999   2.280   9.573  0.9536 -1.0203  0.3991
  350MOL0     C47181   8.726   2.686   9.069  0.2973  0.4137 -0.8083
  350MOL0     C47182   8.596   2.739   9.068  0.0299 -0.4795 -0.1807
  350MOL0     H47183   8.427   3.162   9.187 -1.0203  1.3550  4.1764
  350MOL0     H47184   8.279   3.344   9.218 -1.9608 -0.0537  4.2804
  350MOL0     H47185   7.849   3.267   9.100  1.9036 -3.6998 -2.9762
  350MOL0     H47186   7.852   3.439   9.069  1.8657  1.7099  0.2867
  350MOL0     H47187   8.060   3.286   8.911 -1.2838 -1.8524 -1.3730
  350MOL0     H47188   7.895   3.297   8.862 -0.5103  0.3831 -0.5489
  350MOL0     H47189   7.913   3.555   8.892 -2.0535 -0.2798 -2.5986
  350MOL0     H47190   8.087   3.515   8.906  0.2726 -1.2501  1.7654
  350MOL0     H47191   8.069   3.386   8.684  0.3720 -0.3040 -0.2914
  350MOL0     H47192   7.912   3.464   8.656  1.2247  3.5144 -4.2388
  350MOL0     H47193   8.098   3.674   8.736  1.2305  1.0904 -0.6283
  350MOL0     H47194   8.184   3.562   8.634 -0.2506 -0.0612 -0.4105
  350MOL0     H47195   8.022   3.597   8.446  0.0054  0.7906 -0.6326
  350MOL0     H47196   7.909   3.678   8.551 -0.8197 -5.4796 -0.0574
  350MOL0     H47197   8.086   3.873   8.566  1.1720  1.8900 -1.6768
  350MOL0     H47198   8.210   3.780   8.522  0.6054  2.0994  2.3777
  350MOL0     H47199   8.099   3.955   8.363  2.9536  0.6266 -0.5457
  350MOL0     H47200   7.977   3.834   8.333  0.7684 -1.8688 -2.7458
  350MOL0     H47201   8.363   3.892   8.262 -2.4235  2.3506 -0.2234
  350MOL0     H47202   8.550   3.775   8.095  0.4463 -0.1534  1.7039
  350MOL0     H47203   8.514   3.613   8.042  1.6302  0.8455 -2.5204
  350MOL0     H47204   8.408   3.859   7.915  0.0095 -0.0450  1.1831
  350MOL0     H47205   8.370   3.696   7.868  0.0888 -0.7512  1.1336
  350MOL0     H47206   8.605   3.637   7.831 -2.2450 -0.7709 -0.9604
  350MOL0     H47207   8.654   3.791   7.901  3.3067  1.3676 -5.2922
  350MOL0     H47208   8.500   3.894   7.710 -0.5730  0.2677 -0.3181
  350MOL0     H47209   8.489   3.732   7.642 -2.0323  0.3750  2.6779
  350MOL0     H47210   8.879   3.851   7.491 -1.0626  2.1714  1.5919
  350MOL0     H47211   9.012   3.813   7.319 -0.2147  0.3401  0.8179
  350MOL0     H47212   8.942   3.789   7.149 -2.2822  0.1232 -0.5274
  350MOL0     H47213   8.993   3.950   7.205 -1.1615  1.5009 -1.0929
  350MOL0     H47214   8.394   3.975   6.874  3.1920  0.8041  2.6895
  350MOL0     H47215   8.329   3.888   6.658  2.0085  2.2620 -0.5811
  350MOL0     H47216   8.308   3.801   6.476 -1.6337  0.0967  0.4050
  350MOL0     H47217   8.334   3.675   6.365  2.9964 -0.1899  0.7238
  350MOL0     H47218   8.210   3.644   6.633 -1.2019  3.3380 -0.4603
  350MOL0     H47219   8.104   3.639   6.496  0.1176  1.0892  0.9346
  350MOL0     H47220   8.150   3.407   6.562  2.1358 -1.2806  0.9335
  350MOL0     H47221   8.327   3.432   6.558  0.4624  0.4988  1.2824
  350MOL0     H47222   8.140   3.462   6.327 -1.6076 -1.9505  2.1111
  350MOL0     H47223   8.312   3.470   6.308  2.6048 -1.5559  0.9084
  350MOL0     H47224   8.348   3.227   6.385  0.7989  0.8420  0.9979
  350MOL0     H47225   8.260   3.228   6.238 -3.8639 -2.4378 -0.2155
  350MOL0     H47226   8.131   3.213   6.509 -1.7056  2.6042  1.3609
  350MOL0     H47227   8.043   3.238   6.356 -0.5008  0.6818  2.3854
  350MOL0     H47228   8.040   3.015   6.415 -1.6254  4.5979 -0.2308
  350MOL0     H47229   8.212   2.994   6.425  0.8086  2.2228  0.5388
  350MOL0     H47230   8.099   3.094   6.162 -3.5896  0.5599  1.5427
  350MOL0     H47231   8.078   2.929   6.208  0.6998 -0.7787  4.1995
  350MOL0     H47232   8.654   3.596   6.682 -3.3621 -1.9971 -0.6860
  350MOL0     H47233   8.732   3.705   6.872  0.5799 -0.3184 -1.2266
  350MOL0     H47234   8.474   3.948   7.245 -0.2092 -1.7630 -0.4855
  350MOL0     H47235   8.462   3.912   7.486  1.6023  1.7189  1.0747
  350MOL0     H47236   7.957   3.089   9.097 -0.2268 -2.7137  2.3486
  350MOL0     H47237   8.124   2.896   9.068  1.0707  0.0634 -2.1705
  350MOL0     H47238   8.489   2.653   9.375 -0.2889  0.1928  0.0647
  350MOL0     H47239   8.726   2.554   9.378  2.0073 -1.8550 -0.9410
  350MOL0     H47240   8.944   2.506   9.385  0.7862 -2.6252  0.4981
  350MOL0     H47241   8.882   2.408   9.249  0.3039  1.0071 -3.1455
  350MOL0     H47242   9.157   2.509   9.296 -3.4916  1.3617  3.3340
  350MOL0     H47243   9.098   2.475   9.129 -1.6268  0.7356 -0.5524
  350MOL0     H47244   9.212   2.274   9.184  1.8651  0.7420  2.1823
  350MOL0     H47245   9.038   2.240   9.219 -1.9055  1.2965  0.7029
  350MOL0     H47246   9.265   2.326   9.418 -1.6517 -0.0127  2.0482
  350MOL0     H47247   9.219   2.157   9.394 -0.5365 -0.4103  0.6285
  350MOL0     H47248   8.921   2.271   9.645 -0.5060 -0.0733 -0.9882
  350MOL0     H47249   8.797   2.700   8.988 -0.4660  1.5321 -1.3071
  350MOL0     H47250   8.563   2.793   8.980  0.0220  1.1540  0.7769
  351MOL0     O47251   5.533   8.699   4.547 -0.0640  0.4186 -0.0327
  351MOL0     C47252   5.471   8.788   4.597 -0.2566 -0.1381 -0.1189
  351MOL0     O47253   5.504   8.871   4.712  0.1451  0.6058  1.1000
  351MOL0     C47254   5.636   8.884   4.761  0.0194 -0.1043 -0.1349
  351MOL0     C47255   5.753   8.864   4.688  0.0303  0.8951  0.4432
  351MOL0     C47256   5.888   8.881   4.735 -1.1567 -0.3399  0.1623
  351MOL0     C47257   5.896   8.948   4.860 -0.2618 -0.7666 -0.0435
  351MOL0     O47258   6.020   8.997   4.887  0.3077 -0.6124 -0.6580
  351MOL0     C47259   6.026   9.123   4.959  0.3597 -0.8565  0.0789
  351MOL0     C47260   6.170   9.159   4.981 -0.3467  0.3029  0.4150
  351MOL0     C47261   6.243   9.193   4.851 -0.2309 -0.0270  0.6751
  351MOL0     C47262   6.387   9.246   4.874  0.0315  0.1119 -0.9659
  351MOL0     C47263   6.461   9.316   4.761 -0.1011 -0.2269 -0.2506
  351MOL0     C47264   6.515   9.225   4.650  0.1020 -0.1013  0.5123
  351MOL0     C47265   6.570   9.313   4.531 -0.6838  0.3941  0.1162
  351MOL0     C47266   6.691   9.237   4.464  0.1907  0.4322 -0.0769
  351MOL0     N47267   6.808   9.270   4.543 -0.2287  0.1808 -0.4297
  351MOL0     C47268   6.884   9.376   4.515  0.4833 -0.2356  0.8216
  351MOL0     C47269   6.984   9.377   4.606 -0.3318  0.3263  0.2358
  351MOL0     C47270   7.092   9.469   4.635  0.3402  0.2309  0.6164
  351MOL0     C47271   7.178   9.472   4.515  0.4190  0.2231  0.8902
  351MOL0     C47272   7.134   9.589   4.413 -0.4427  0.4735 -0.0288
  351MOL0     C47273   7.252   9.633   4.328  0.7142  0.7735  0.0121
  351MOL0     O47274   7.325   9.529   4.261 -0.4177 -0.2394 -0.8474
  351MOL0     C47275   7.424   9.552   4.175 -0.5621  0.4496  0.5519
  351MOL0     C47276   7.467   9.435   4.109 -0.2819  0.4054 -0.7034
  351MOL0     C47277   7.576   9.442   4.015  0.1337  0.4442 -0.5728
  351MOL0     C47278   7.638   9.306   3.971  1.0267  0.6489  0.3393
  351MOL0     C47279   7.617   9.572   3.968  0.6797  0.2510  0.2924
  351MOL0     C47280   7.697   9.600   3.849 -0.4475  0.5480  0.8263
  351MOL0     O47281   7.760   9.721   3.828 -0.3704 -0.2835 -0.3374
  351MOL0     C47282   7.842   9.742   3.721  0.3184 -0.3170  0.9536
  351MOL0     C47283   7.776   9.734   3.595  0.0536  0.7023 -0.4858
  351MOL0     C47284   7.844   9.742   3.479  0.6742  0.0062  0.6649
  351MOL0     C47285   7.979   9.786   3.474 -0.3021 -0.8427  0.5039
  351MOL0     O47286   8.046   9.810   3.355 -0.2325  0.4151 -0.7379
  351MOL0     C47287   7.963   9.788   3.237 -0.0753  0.1700 -0.6059
  351MOL0     C47288   8.054   9.803   3.124  0.5691  0.4350 -1.1985
  351MOL0     C47289   8.072   9.946   3.084  0.4524 -0.5679  0.0564
  351MOL0     C47290   8.171   9.969   2.967  0.3675 -0.0198 -0.3028
  351MOL0     C47291   8.146  10.113   2.906  0.2229  0.3484 -0.9493
  351MOL0     C47292   8.197  10.133   2.761  0.4788  0.4052  0.0718
  351MOL0     C47293   8.151  10.262   2.689  0.0550  0.5625 -0.0391
  351MOL0     C47294   8.235  10.269   2.554 -1.0875  0.2232  0.2809
  351MOL0    Cl47295   8.224  10.123   2.454  0.2712  0.8735  0.4169
  351MOL0     C47296   8.043   9.810   3.600  0.0383  0.0068  1.0004
  351MOL0     C47297   7.977   9.782   3.723 -0.0096 -0.3337  0.1458
  351MOL0     O47298   7.709   9.504   3.764  0.4562 -0.2523 -0.1180
  351MOL0     C47299   7.556   9.687   4.033 -0.5455  0.8911  0.3874
  351MOL0     C47300   7.466   9.679   4.135  0.0123  0.0142 -0.4524
  351MOL0     N47301   6.964   9.265   4.684  0.2096  0.3609  0.3475
  351MOL0     N47302   6.857   9.203   4.655 -0.3251 -0.3444 -0.0395
  351MOL0     C47303   5.783   8.973   4.939  0.3118 -0.3324 -0.8809
  351MOL0     C47304   5.651   8.938   4.892 -1.0754  0.2880 -0.3831
  351MOL0     C47305   5.332   8.808   4.546  0.9107  0.7923  0.3456
  351MOL0     C47306   5.263   8.728   4.448 -0.6019 -0.7024  0.4605
  351MOL0     C47307   5.136   8.761   4.403  0.1145 -0.5773  0.1946
  351MOL0     C47308   5.081   8.886   4.450 -0.3590  0.8686  0.3931
  351MOL0     O47309   4.962   8.928   4.396  0.0854 -1.1637  0.3198
  351MOL0     C47310   4.858   8.839   4.342  0.1578  0.5682 -0.8974
  351MOL0     C47311   4.718   8.910   4.328 -0.8793  0.0504  0.0054
  351MOL0     C47312   4.605   8.812   4.295  0.5255 -0.8714 -0.1345
  351MOL0     C47313   4.617   8.732   4.173  0.1216  0.0147 -0.2955
  351MOL0     C47314   4.707   8.615   4.191 -0.1753 -0.3235  1.4202
  351MOL0     C47315   4.773   8.511   4.210 -0.1483 -0.0914 -0.2469
  351MOL0     C47316   5.154   8.972   4.535  0.1323  0.0850  1.6262
  351MOL0     C47317   5.267   8.927   4.593  1.3046  0.0722 -0.0805
  351MOL0     H47318   5.736   8.831   4.586  0.5338  0.9854  0.3277
  351MOL0     H47319   5.977   8.844   4.685 -1.7219 -3.0300  1.0001
  351MOL0     H47320   5.971   9.197   4.900 -2.5804 -3.1305 -0.2565
  351MOL0     H47321   5.979   9.104   5.056 -0.5910 -1.2735 -0.4499
  351MOL0     H47322   6.162   9.252   5.039  1.5007 -1.0420  2.9758
  351MOL0     H47323   6.225   9.085   5.039  0.9556  2.5268  2.2048
  351MOL0     H47324   6.248   9.105   4.786 -1.0440  0.1960  0.2941
  351MOL0     H47325   6.183   9.257   4.786 -1.6545 -1.5812  0.3810
  351MOL0     H47326   6.387   9.310   4.963 -0.8637 -0.8635 -0.2386
  351MOL0     H47327   6.440   9.157   4.911 -1.4811  0.0831  1.3810
  351MOL0     H47328   6.387   9.386   4.721  1.4789  2.5124  1.2831
  351MOL0     H47329   6.545   9.374   4.800 -1.4643  0.2720  2.1661
  351MOL0     H47330   6.596   9.161   4.686 -0.9280 -3.0912 -2.0320
  351MOL0     H47331   6.434   9.167   4.604 -2.5151  2.3188  1.7602
  351MOL0     H47332   6.489   9.341   4.464  1.3500  1.3325 -2.0882
  351MOL0     H47333   6.611   9.410   4.562 -3.8226  0.8466  3.6301
  351MOL0     H47334   6.690   9.274   4.361 -1.2488  3.4048  0.8941
  351MOL0     H47335   6.685   9.128   4.457 -0.9273  0.3680  1.3317
  351MOL0     H47336   6.871   9.452   4.438  1.9975  0.0162  0.7883
  351MOL0     H47337   7.050   9.569   4.648  0.5001  0.8191 -2.6808
  351MOL0     H47338   7.153   9.444   4.723 -0.0209 -3.3602  0.0076
  351MOL0     H47339   7.178   9.375   4.463  3.3778  0.3405  0.4513
  351MOL0     H47340   7.283   9.492   4.539  0.5633  0.8737 -0.2040
  351MOL0     H47341   7.102   9.671   4.478  1.4414  0.3880  1.0946
  351MOL0     H47342   7.062   9.546   4.343  0.5726  0.7946 -1.3204
  351MOL0     H47343   7.327   9.670   4.398  1.5124 -0.4153 -0.1973
  351MOL0     H47344   7.228   9.710   4.254 -0.0448  2.6264  2.0549
  351MOL0     H47345   7.430   9.335   4.124  1.8877 -0.6266 -1.8021
  351MOL0     H47346   7.586   9.264   3.885  0.5195 -0.2693  1.0762
  351MOL0     H47347   7.739   9.325   3.933  0.3287  0.6905 -1.6184
  351MOL0     H47348   7.633   9.221   4.040  1.3166 -2.6824 -3.3926
  351MOL0     H47349   7.674   9.698   3.594  0.2848 -0.1577  1.6204
  351MOL0     H47350   7.786   9.713   3.392  2.9742 -2.9372 -0.0885
  351MOL0     H47351   7.936   9.684   3.257  2.9170 -0.9958 -2.0559
  351MOL0     H47352   7.877   9.856   3.229 -1.1057 -0.8986  0.8655
  351MOL0     H47353   8.154   9.772   3.157 -0.8055 -1.7510  1.2884
  351MOL0     H47354   8.014   9.739   3.045  0.3565  0.2165 -0.9152
  351MOL0     H47355   8.112  10.008   3.165  0.2883  1.6309 -1.4604
  351MOL0     H47356   7.978   9.996   3.059  0.1085 -1.7092 -0.9970
  351MOL0     H47357   8.273   9.950   3.002  0.3253  3.0041  1.8594
  351MOL0     H47358   8.154   9.909   2.877  2.1145  2.0452 -2.0980
  351MOL0     H47359   8.199  10.192   2.961 -1.9146 -0.4836  2.6264
  351MOL0     H47360   8.038  10.133   2.904  0.5484  2.2381 -1.8152
  351MOL0     H47361   8.306  10.130   2.760  0.4721 -0.8999 -1.7112
  351MOL0     H47362   8.168  10.049   2.697  0.2246  0.1079  0.5750
  351MOL0     H47363   8.160  10.358   2.740  1.1605  2.6592 -3.8729
  351MOL0     H47364   8.044  10.247   2.675 -0.0871 -0.5569  1.8068
  351MOL0     H47365   8.336  10.300   2.580 -0.8474 -2.3421  2.9332
  351MOL0     H47366   8.192  10.346   2.490 -1.1997 -1.2570 -1.5197
  351MOL0     H47367   8.143   9.851   3.604 -0.3305  1.5443 -2.1290
  351MOL0     H47368   8.034   9.794   3.815 -2.8477  0.0462  1.9667
  351MOL0     H47369   7.571   9.775   3.973  2.6608 -0.2833 -0.7631
  351MOL0     H47370   7.414   9.770   4.163 -2.2356 -0.7344 -1.9833
  351MOL0     H47371   5.790   9.011   5.041 -1.5669  0.1488 -0.9035
  351MOL0     H47372   5.558   8.950   4.947 -1.2683 -4.6461  0.7646
  351MOL0     H47373   5.310   8.639   4.407 -0.2627  1.0252 -3.4189
  351MOL0     H47374   5.074   8.687   4.354 -0.0888 -0.3831  0.1534
  351MOL0     H47375   4.895   8.791   4.250 -0.1130 -2.0751  0.2714
  351MOL0     H47376   4.865   8.754   4.410 -2.1899 -0.8454 -2.2618
  351MOL0     H47377   4.720   8.986   4.249 -0.5547 -0.0925 -0.1232
  351MOL0     H47378   4.693   8.964   4.420  2.9341  0.8603  0.7540
  351MOL0     H47379   4.523   8.881   4.274  1.5012  0.7561  1.1791
  351MOL0     H47380   4.586   8.755   4.386 -0.6632 -0.8112 -0.3283
  351MOL0     H47381   4.648   8.797   4.091 -0.4907  0.0452 -0.5090
  351MOL0     H47382   4.524   8.683   4.143 -0.0144 -0.8651  1.4278
  351MOL0     H47383   4.829   8.422   4.231 -0.0149 -0.0220 -0.3048
  351MOL0     H47384   5.104   9.063   4.568  0.1809  0.6450  0.1983
  351MOL0     H47385   5.308   8.984   4.677  1.9684 -0.1857 -0.2272
  352MOL0     O47386   4.707   5.945   4.212 -0.3523 -0.8913 -0.0116
  352MOL0     C47387   4.604   6.016   4.194  0.7737 -0.1173 -0.2372
  352MOL0     O47388   4.589   6.150   4.200 -0.4981 -0.4474 -0.2850
  352MOL0     C47389   4.692   6.232   4.242 -0.5577 -0.0241  0.2383
  352MOL0     C47390   4.801   6.268   4.171  0.8980  0.1259 -0.2336
  352MOL0     C47391   4.899   6.342   4.230  0.3570 -0.1212 -0.8450
  352MOL0     C47392   4.894   6.379   4.367  0.9682 -0.2437 -0.5464
  352MOL0     O47393   4.992   6.461   4.422  0.2398  0.2342 -1.0109
  352MOL0     C47394   5.130   6.461   4.373  0.2646  0.2022  0.2325
  352MOL0     C47395   5.222   6.485   4.490 -0.5017 -0.4263  0.7351
  352MOL0     C47396   5.364   6.472   4.443  0.2923 -0.1272 -0.7771
  352MOL0     C47397   5.458   6.528   4.552 -0.0469  0.6688  0.0315
  352MOL0     C47398   5.605   6.511   4.516 -0.2760  0.6556 -0.3997
  352MOL0     C47399   5.692   6.588   4.616  0.6130 -0.5590 -0.2610
  352MOL0     C47400   5.826   6.619   4.559  0.0160  0.7875  0.8134
  352MOL0     C47401   5.887   6.705   4.663  0.1611 -0.5297 -0.1706
  352MOL0     N47402   6.030   6.698   4.643 -1.1801 -1.1855  0.4005
  352MOL0     C47403   6.107   6.596   4.694  0.1347  0.9460  0.0687
  352MOL0     C47404   6.229   6.626   4.640  0.6122 -0.5881 -0.1424
  352MOL0     C47405   6.359   6.557   4.666 -0.1002  0.1498 -0.1171
  352MOL0     C47406   6.358   6.411   4.711  1.1860  0.0497  0.5661
  352MOL0     C47407   6.297   6.310   4.613 -0.1188  0.2391 -0.0719
  352MOL0     C47408   6.306   6.167   4.651  1.1434  0.8518  1.1408
  352MOL0     O47409   6.307   6.100   4.528 -1.1445  0.2726  0.0076
  352MOL0     C47410   6.292   5.962   4.537  0.4149  0.7042  0.6213
  352MOL0     C47411   6.265   5.897   4.416  0.8561 -0.4072  0.6228
  352MOL0     C47412   6.235   5.760   4.399  0.1322  0.1391 -0.1935
  352MOL0     C47413   6.187   5.703   4.263  0.2823 -0.1758  0.3959
  352MOL0     C47414   6.245   5.686   4.517  0.3260 -0.0076 -0.3607
  352MOL0     C47415   6.220   5.536   4.527 -0.0849 -0.0486 -0.1319
  352MOL0     O47416   6.252   5.471   4.640 -0.6703 -0.9295 -0.5335
  352MOL0     C47417   6.270   5.338   4.634  0.4132 -0.1200  0.7395
  352MOL0     C47418   6.322   5.276   4.518 -0.5229 -0.8219 -1.3822
  352MOL0     C47419   6.342   5.141   4.514 -0.2514  0.0064 -0.7516
  352MOL0     C47420   6.318   5.066   4.629  0.9803  1.1503  0.1404
  352MOL0     O47421   6.337   4.929   4.626  0.4930  0.0478 -0.4792
  352MOL0     C47422   6.371   4.869   4.752 -0.3134  0.3282  0.1865
  352MOL0     C47423   6.430   4.730   4.719 -0.0712  0.2828  0.7315
  352MOL0     C47424   6.469   4.655   4.836 -0.1092  0.2469 -0.0992
  352MOL0     C47425   6.353   4.554   4.884 -0.0706  0.3730  0.2523
  352MOL0     C47426   6.397   4.430   4.962 -1.4947 -0.1477  0.9705
  352MOL0     C47427   6.284   4.350   5.009  0.3187  0.0556  0.6094
  352MOL0     C47428   6.322   4.212   5.068  0.4425  0.1586  0.0892
  352MOL0     C47429   6.214   4.166   5.164  0.4218  0.2099 -0.4462
  352MOL0    Cl47430   6.272   4.021   5.240 -0.1839  0.1290 -0.5798
  352MOL0     C47431   6.239   5.126   4.730  0.3127  0.7347  0.0169
  352MOL0     C47432   6.223   5.263   4.736 -0.0470  0.6347  1.1640
  352MOL0     O47433   6.160   5.490   4.437  0.3160  0.0446  0.0877
  352MOL0     C47434   6.288   5.745   4.636 -0.1358 -0.2339  0.5692
  352MOL0     C47435   6.316   5.879   4.648 -0.6752 -0.1378  0.0563
  352MOL0     N47436   6.218   6.740   4.553 -1.1544 -0.0609 -0.3663
  352MOL0     N47437   6.099   6.783   4.562 -0.4940 -0.8120 -0.5244
  352MOL0     C47438   4.780   6.338   4.433 -1.0290  0.0051  0.2442
  352MOL0     C47439   4.674   6.268   4.375  0.0300 -0.0136 -0.4125
  352MOL0     C47440   4.472   5.952   4.198 -1.0305 -0.0007  0.7077
  352MOL0     C47441   4.463   5.810   4.211  0.7737  0.3510 -0.0420
  352MOL0     C47442   4.337   5.750   4.201 -0.1476  0.2438 -0.3105
  352MOL0     C47443   4.221   5.820   4.173 -0.4765  0.2919 -0.3447
  352MOL0     O47444   4.097   5.764   4.148  0.5418  0.1838 -1.0058
  352MOL0     C47445   3.971   5.831   4.133  0.6518  0.1744 -0.5128
  352MOL0     C47446   3.844   5.749   4.162  0.7223 -0.1048 -0.4672
  352MOL0     C47447   3.704   5.819   4.127  0.7318  0.1055  0.3822
  352MOL0     C47448   3.657   5.933   4.214  0.4057  0.6218  0.1239
  352MOL0     C47449   3.723   6.057   4.176 -0.4604  0.0684 -0.5607
  352MOL0     C47450   3.774   6.160   4.149  0.6583 -0.9784  0.7636
  352MOL0     C47451   4.221   5.953   4.159 -0.5302 -0.5462 -0.6904
  352MOL0     C47452   4.350   6.023   4.171  0.5558 -0.9260 -0.1398
  352MOL0     H47453   4.813   6.234   4.069 -1.1012 -2.5159  0.2998
  352MOL0     H47454   4.992   6.376   4.184  0.3963  0.1764 -0.5445
  352MOL0     H47455   5.155   6.358   4.345 -2.5149 -0.7570  1.0214
  352MOL0     H47456   5.150   6.519   4.282  1.0518 -0.0220  0.2512
  352MOL0     H47457   5.187   6.583   4.523 -0.2879 -0.3647  0.7773
  352MOL0     H47458   5.195   6.407   4.562 -0.2309 -0.3184  0.9538
  352MOL0     H47459   5.391   6.367   4.429  0.4608 -0.2016  0.0616
  352MOL0     H47460   5.381   6.523   4.348  1.2276  0.4730 -0.3050
  352MOL0     H47461   5.423   6.632   4.562 -2.1759  0.3414 -2.6788
  352MOL0     H47462   5.439   6.481   4.649  0.6541  0.0553 -0.1208
  352MOL0     H47463   5.632   6.405   4.514 -1.4143  0.3532 -0.7414
  352MOL0     H47464   5.615   6.551   4.415 -0.0893 -0.5910 -0.8963
  352MOL0     H47465   5.637   6.672   4.661  2.2447 -0.3573  1.5007
  352MOL0     H47466   5.703   6.524   4.705  1.4347 -0.8321 -0.5533
  352MOL0     H47467   5.877   6.524   4.544  2.7256  2.3114 -0.3192
  352MOL0     H47468   5.809   6.671   4.464 -0.7589 -1.5516 -0.4063
  352MOL0     H47469   5.870   6.663   4.762 -2.0396  0.2229 -0.1667
  352MOL0     H47470   5.852   6.808   4.652 -1.1615 -0.8406  0.9053
  352MOL0     H47471   6.079   6.519   4.765  1.8682 -0.7161 -0.9354
  352MOL0     H47472   6.411   6.553   4.570 -0.8152  3.3149 -0.7482
  352MOL0     H47473   6.427   6.617   4.727  1.7291 -1.2161 -0.7355
  352MOL0     H47474   6.310   6.401   4.809  3.2100 -0.9456  1.5111
  352MOL0     H47475   6.462   6.384   4.730  1.5303  2.5137  2.6795
  352MOL0     H47476   6.363   6.314   4.526 -1.8029  1.9318 -1.3540
  352MOL0     H47477   6.199   6.340   4.574 -0.7056  0.5725  1.5804
  352MOL0     H47478   6.220   6.136   4.712  2.8206 -2.7800  1.8743
  352MOL0     H47479   6.393   6.144   4.712  2.4641 -0.1393 -1.0118
  352MOL0     H47480   6.252   5.972   4.338 -0.0450 -0.4215  0.7486
  352MOL0     H47481   6.239   5.611   4.235 -1.5525 -1.8204  2.1136
  352MOL0     H47482   6.079   5.684   4.265  0.0842  0.8616  2.3616
  352MOL0     H47483   6.209   5.770   4.179  0.1627 -2.1089 -1.2370
  352MOL0     H47484   6.347   5.335   4.431 -2.7647  1.8667 -0.3387
  352MOL0     H47485   6.379   5.100   4.421  0.4935 -2.6442  0.6113
  352MOL0     H47486   6.442   4.922   4.817  2.0413 -1.6743 -0.6072
  352MOL0     H47487   6.284   4.840   4.811  1.2378  0.9759  2.9822
  352MOL0     H47488   6.351   4.677   4.665  0.0240 -0.2641  1.1259
  352MOL0     H47489   6.523   4.749   4.665  1.2365  0.2492  2.8762
  352MOL0     H47490   6.486   4.717   4.925 -3.0317 -1.0932  1.5493
  352MOL0     H47491   6.560   4.598   4.813 -0.6252 -0.9863  0.8141
  352MOL0     H47492   6.273   4.621   4.915  2.3559  3.6239 -0.0226
  352MOL0     H47493   6.307   4.506   4.797  1.8939  2.0086 -1.7980
  352MOL0     H47494   6.456   4.461   5.049  1.0196 -0.0261 -0.6655
  352MOL0     H47495   6.462   4.360   4.908  2.5015  1.9436  2.6358
  352MOL0     H47496   6.223   4.412   5.075 -1.5640 -2.1685  1.1041
  352MOL0     H47497   6.219   4.322   4.926  1.2118 -1.0895  0.2554
  352MOL0     H47498   6.412   4.216   5.130 -0.5899  1.8858  1.5952
  352MOL0     H47499   6.338   4.145   4.983  0.8987  0.0873  0.2279
  352MOL0     H47500   6.128   4.141   5.101  0.9024  2.6176 -2.2038
  352MOL0     H47501   6.177   4.239   5.236 -2.7206 -3.2713  1.8342
  352MOL0     H47502   6.223   5.063   4.817  1.3922 -2.7083 -2.0931
  352MOL0     H47503   6.175   5.312   4.820  0.0579  3.3121 -0.2208
  352MOL0     H47504   6.280   5.679   4.722 -2.9077 -2.9656 -1.5455
  352MOL0     H47505   6.338   5.925   4.744 -0.9669  0.8960 -0.3650
  352MOL0     H47506   4.774   6.359   4.540 -0.5390  5.5708 -0.5169
  352MOL0     H47507   4.590   6.228   4.431  0.9108 -1.0281  0.2345
  352MOL0     H47508   4.550   5.747   4.220  0.4628 -0.2743 -1.2008
  352MOL0     H47509   4.326   5.642   4.194 -0.5397  0.2496  0.1567
  352MOL0     H47510   3.971   5.910   4.208 -2.4355  1.5354 -1.7524
  352MOL0     H47511   3.966   5.880   4.035  1.7929 -0.2663 -0.8063
  352MOL0     H47512   3.837   5.734   4.270  2.8757  1.5180 -0.0275
  352MOL0     H47513   3.842   5.651   4.115 -3.4107 -0.8628  0.9219
  352MOL0     H47514   3.626   5.742   4.134  0.1587  0.8242  2.4550
  352MOL0     H47515   3.700   5.854   4.023 -0.1022  0.1631  0.4254
  352MOL0     H47516   3.692   5.927   4.317  3.9467 -1.2340 -1.0191
  352MOL0     H47517   3.548   5.942   4.212  0.5828  4.6222  0.6511
  352MOL0     H47518   3.824   6.252   4.126 -1.5893 -0.0349 -0.5754
  352MOL0     H47519   4.137   6.021   4.153 -0.2197 -0.2000 -1.1812
  352MOL0     H47520   4.342   6.131   4.166 -0.0716 -0.8720  1.3977
  353MOL0     O47521   6.648   1.244   1.593  1.0627  0.2907  0.0471
  353MOL0     C47522   6.647   1.142   1.673  0.2107  0.3351  0.7944
  353MOL0     O47523   6.656   1.145   1.810 -0.5903 -0.2756 -0.3126
  353MOL0     C47524   6.682   1.273   1.872  0.4971 -0.1708  0.2858
  353MOL0     C47525   6.573   1.330   1.951  0.0343 -0.2251 -0.2156
  353MOL0     C47526   6.591   1.465   1.982  0.0013 -0.3626 -1.3242
  353MOL0     C47527   6.693   1.548   1.937  0.1779  0.7541 -0.0616
  353MOL0     O47528   6.702   1.679   1.974  0.0712  0.2458  1.1309
  353MOL0     C47529   6.630   1.761   1.885  0.3651 -0.4160  0.2820
  353MOL0     C47530   6.475   1.779   1.914 -0.0166  1.2448 -0.9228
  353MOL0     C47531   6.460   1.846   2.052 -0.4867 -0.2264 -0.5515
  353MOL0     C47532   6.513   1.986   2.053  0.0996  0.2591  0.6408
  353MOL0     C47533   6.489   2.050   2.189  0.0709 -0.0532  0.0664
  353MOL0     C47534   6.562   2.187   2.207  0.3785  0.3646  0.4081
  353MOL0     C47535   6.544   2.242   2.343  0.2035  0.6522  0.0405
  353MOL0     C47536   6.609   2.379   2.373 -0.4213  1.0655  0.1498
  353MOL0     N47537   6.569   2.419   2.502  0.7243 -0.9184 -0.0155
  353MOL0     C47538   6.655   2.428   2.611  1.2155 -0.0332  0.4725
  353MOL0     C47539   6.571   2.478   2.715 -0.5008 -0.3992 -0.1118
  353MOL0     C47540   6.616   2.490   2.854 -0.6953  0.0814 -0.3390
  353MOL0     C47541   6.619   2.635   2.893 -0.4519 -0.1830 -1.0110
  353MOL0     C47542   6.685   2.699   3.022  0.3960  1.0370  0.5776
  353MOL0     C47543   6.642   2.610   3.141 -0.8267  0.3439  0.6676
  353MOL0     O47544   6.724   2.493   3.147  0.0066 -1.2296 -0.3025
  353MOL0     C47545   6.695   2.399   3.242  0.9138  0.0367 -0.1012
  353MOL0     C47546   6.775   2.286   3.244 -0.2498  0.2838 -0.9609
  353MOL0     C47547   6.770   2.187   3.347  0.0762  0.5288 -0.4437
  353MOL0     C47548   6.877   2.070   3.354 -1.0014  0.2192  0.0466
  353MOL0     C47549   6.666   2.198   3.443  0.7519  0.6066  0.2368
  353MOL0     C47550   6.651   2.110   3.559  0.5759 -0.5174 -0.5323
  353MOL0     O47551   6.632   1.983   3.548  0.1879  0.5958  0.2978
  353MOL0     C47552   6.560   1.908   3.644  0.8674 -0.7438  0.1766
  353MOL0     C47553   6.627   1.796   3.683  0.1055  0.3886 -0.0257
  353MOL0     C47554   6.560   1.694   3.756 -0.6517 -0.7450  0.5345
  353MOL0     C47555   6.427   1.713   3.811 -1.0326 -0.1000  0.2017
  353MOL0     O47556   6.363   1.616   3.878  0.8374 -0.9067 -0.3856
  353MOL0     C47557   6.429   1.492   3.931  0.9389 -0.6944  0.2340
  353MOL0     C47558   6.410   1.377   3.834  0.7376  0.2979 -0.4716
  353MOL0     C47559   6.277   1.327   3.788 -0.1516  0.3553  0.4531
  353MOL0     C47560   6.217   1.417   3.673 -0.5611  0.4587 -0.7068
  353MOL0     C47561   6.063   1.395   3.650  0.5213  0.0104 -0.8277
  353MOL0     C47562   6.021   1.270   3.564 -0.6599 -0.0294  0.1193
  353MOL0     C47563   6.032   1.133   3.634  0.5009  0.2798  0.2779
  353MOL0     C47564   5.940   1.126   3.763  0.0325 -0.0333  0.6388
  353MOL0    Cl47565   5.935   0.947   3.817  0.1337  0.2357  0.1805
  353MOL0     C47566   6.363   1.833   3.769  0.8544  1.0055 -0.2743
  353MOL0     C47567   6.427   1.926   3.690 -0.1241  0.0472  0.1434
  353MOL0     O47568   6.638   2.167   3.665  0.0022 -0.3558 -0.2164
  353MOL0     C47569   6.568   2.298   3.422 -1.0199  0.0109 -0.3125
  353MOL0     C47570   6.583   2.397   3.329  0.3727  0.3186 -0.4935
  353MOL0     N47571   6.446   2.490   2.656 -0.2113 -0.3472 -0.7337
  353MOL0     N47572   6.441   2.453   2.531  0.6595  0.3984 -0.8199
  353MOL0     C47573   6.795   1.488   1.862 -0.3319 -0.6927 -0.2813
  353MOL0     C47574   6.795   1.349   1.836  0.2359 -0.8364  0.1499
  353MOL0     C47575   6.638   1.000   1.629 -0.8613  0.0258 -0.9789
  353MOL0     C47576   6.672   0.885   1.712  0.2877 -0.8826 -0.1117
  353MOL0     C47577   6.677   0.758   1.653 -0.5156 -0.7227 -0.0223
  353MOL0     C47578   6.666   0.740   1.515  0.4104 -0.3150  0.6163
  353MOL0     O47579   6.683   0.621   1.458 -0.2988 -0.2146  0.0871
  353MOL0     C47580   6.812   0.558   1.459 -0.2138 -0.7852 -0.3561
  353MOL0     C47581   6.818   0.459   1.352 -0.0967  0.0218  0.6881
  353MOL0     C47582   6.855   0.522   1.212 -0.9469 -0.2992  0.2493
  353MOL0     C47583   6.814   0.421   1.103  0.1239 -0.4601  0.4914
  353MOL0     C47584   6.865   0.287   1.136 -0.3185  0.3945 -0.7254
  353MOL0     C47585   6.905   0.175   1.170  0.2823  0.9102 -0.2608
  353MOL0     C47586   6.625   0.852   1.435 -0.1604 -0.0964  0.2579
  353MOL0     C47587   6.589   0.976   1.499 -0.5772  0.0425 -0.0011
  353MOL0     H47588   6.492   1.272   1.994 -2.2030  2.0397 -1.1532
  353MOL0     H47589   6.515   1.508   2.047 -0.6918 -0.5590 -1.9897
  353MOL0     H47590   6.679   1.858   1.883  0.7994 -0.6242  0.7154
  353MOL0     H47591   6.641   1.734   1.779  0.1403  1.5515 -0.2825
  353MOL0     H47592   6.426   1.844   1.840  0.7587  2.0714 -0.7260
  353MOL0     H47593   6.424   1.682   1.918  0.6844  0.9160  0.5105
  353MOL0     H47594   6.355   1.855   2.083  0.6050  3.0450  2.9611
  353MOL0     H47595   6.502   1.784   2.132  3.4158  0.0677 -2.1474
  353MOL0     H47596   6.620   1.991   2.032  0.1988  0.8376  1.2743
  353MOL0     H47597   6.465   2.046   1.975 -2.8256  1.5430  3.1847
  353MOL0     H47598   6.387   2.069   2.223  1.3686  0.9565  3.8607
  353MOL0     H47599   6.544   1.986   2.258  1.7046  1.0042 -0.1828
  353MOL0     H47600   6.667   2.157   2.196  0.5927  1.3619 -0.4095
  353MOL0     H47601   6.533   2.267   2.139  1.4805 -1.5746 -2.5420
  353MOL0     H47602   6.436   2.253   2.358  0.2936  1.5838  0.0409
  353MOL0     H47603   6.586   2.165   2.410 -0.6931  1.0788  1.1238
  353MOL0     H47604   6.584   2.456   2.300 -0.4401  1.0993  0.1915
  353MOL0     H47605   6.718   2.373   2.377 -0.4739 -2.0977  4.3057
  353MOL0     H47606   6.759   2.397   2.618  1.9062  2.1647  0.4754
  353MOL0     H47607   6.540   2.433   2.909 -0.6269 -1.2998 -1.6271
  353MOL0     H47608   6.713   2.442   2.870 -1.7404 -1.3835  2.2302
  353MOL0     H47609   6.515   2.663   2.877  0.3742  1.7395 -3.7912
  353MOL0     H47610   6.683   2.679   2.816 -0.0840  0.4930 -0.3265
  353MOL0     H47611   6.644   2.800   3.032 -2.1376  0.2876 -1.3086
  353MOL0     H47612   6.793   2.708   3.009  0.9048  0.0335  3.3301
  353MOL0     H47613   6.534   2.591   3.150 -0.3877 -1.4511  3.6001
  353MOL0     H47614   6.663   2.668   3.232  1.2327 -0.9105  1.0406
  353MOL0     H47615   6.840   2.284   3.157 -1.4335 -1.2255 -1.8520
  353MOL0     H47616   6.966   2.109   3.404 -2.1750  2.8111  0.2772
  353MOL0     H47617   6.840   1.991   3.421  0.4417 -1.0589 -0.6242
  353MOL0     H47618   6.905   2.029   3.257 -3.5703 -1.8719  0.0824
  353MOL0     H47619   6.727   1.792   3.641 -0.8746 -0.3446 -2.4567
  353MOL0     H47620   6.604   1.596   3.768 -1.3964 -1.1700 -0.1131
  353MOL0     H47621   6.533   1.505   3.962  0.3453  0.8058  1.7774
  353MOL0     H47622   6.370   1.467   4.020 -2.8229 -0.1786 -1.8616
  353MOL0     H47623   6.469   1.404   3.746  0.6166  0.3064 -0.5502
  353MOL0     H47624   6.453   1.291   3.887  3.0286  2.4932  1.4407
  353MOL0     H47625   6.217   1.335   3.879  1.5194  3.3912  1.4180
  353MOL0     H47626   6.281   1.223   3.754  2.1332  0.6232 -0.2457
  353MOL0     H47627   6.237   1.522   3.694  3.2322 -0.3559  0.4467
  353MOL0     H47628   6.261   1.393   3.576  2.0047  1.5933  0.0987
  353MOL0     H47629   6.016   1.477   3.595 -0.8007 -2.4077 -3.5731
  353MOL0     H47630   6.011   1.388   3.746  0.8299 -2.2393 -0.7575
  353MOL0     H47631   5.919   1.280   3.525 -2.3497 -3.0412  3.1940
  353MOL0     H47632   6.084   1.260   3.475  0.4246 -0.3222  0.9046
  353MOL0     H47633   6.134   1.095   3.648 -1.3528 -5.0141  1.4539
  353MOL0     H47634   6.005   1.061   3.556  2.0750  0.3738 -0.4125
  353MOL0     H47635   5.836   1.153   3.742  0.6843  2.0549 -0.1295
  353MOL0     H47636   5.975   1.182   3.850 -0.2148  2.4099 -0.7419
  353MOL0     H47637   6.259   1.843   3.797  0.9008 -4.0924  2.9932
  353MOL0     H47638   6.376   2.011   3.647 -0.0766 -0.3168 -0.6569
  353MOL0     H47639   6.491   2.300   3.498 -1.9177  2.3831 -1.1981
  353MOL0     H47640   6.516   2.482   3.322 -0.0843 -0.1363 -2.1922
  353MOL0     H47641   6.878   1.543   1.818 -1.0015  0.8385  0.2769
  353MOL0     H47642   6.876   1.292   1.791 -1.2161 -0.4374 -3.2946
  353MOL0     H47643   6.699   0.895   1.817  0.8802  2.5330 -0.4938
  353MOL0     H47644   6.717   0.674   1.709  3.0265  2.0212  1.9411
  353MOL0     H47645   6.879   0.644   1.448 -0.2076 -0.4129  2.0380
  353MOL0     H47646   6.838   0.502   1.550  1.1577  1.0702  0.4766
  353MOL0     H47647   6.723   0.407   1.339  0.6972 -2.0551  2.5860
  353MOL0     H47648   6.894   0.382   1.369 -1.7923 -2.5626 -2.2204
  353MOL0     H47649   6.960   0.553   1.204 -1.3092  0.6665 -1.0805
  353MOL0     H47650   6.786   0.606   1.204  1.6513  1.8917 -0.9376
  353MOL0     H47651   6.834   0.457   1.002 -1.2835  0.9844  0.6813
  353MOL0     H47652   6.704   0.425   1.100  0.1332 -0.3055  0.3640
  353MOL0     H47653   6.920   0.073   1.198  0.9350  0.8136 -0.9343
  353MOL0     H47654   6.619   0.868   1.327  0.3558  2.4797  0.5319
  353MOL0     H47655   6.567   1.050   1.423 -4.2132 -2.1705 -1.3745
  354MOL0     O47656   7.985   2.506   4.685 -0.1812 -0.0085  0.6703
  354MOL0     C47657   8.045   2.612   4.709  0.6001  0.1672 -0.5558
  354MOL0     O47658   7.992   2.724   4.768  0.0991 -0.4693  0.4018
  354MOL0     C47659   7.877   2.724   4.840 -0.1341  1.0073  0.1883
  354MOL0     C47660   7.814   2.848   4.867  0.7238 -0.9667 -0.1916
  354MOL0     C47661   7.694   2.845   4.945  0.0194  0.0379  0.0400
  354MOL0     C47662   7.637   2.730   4.993 -0.6406  0.0708  0.1299
  354MOL0     O47663   7.534   2.731   5.073 -0.1933 -0.2227  0.4547
  354MOL0     C47664   7.528   2.824   5.179  0.2873  0.1698  1.4593
  354MOL0     C47665   7.472   2.776   5.308  0.2279  0.7600 -0.4858
  354MOL0     C47666   7.318   2.740   5.295 -0.5510 -0.3787 -0.8667
  354MOL0     C47667   7.269   2.649   5.404  0.5272  0.3076 -0.2335
  354MOL0     C47668   7.122   2.603   5.378 -0.0902  0.2516  0.7943
  354MOL0     C47669   7.024   2.725   5.390  0.3337  1.1282 -0.0999
  354MOL0     C47670   6.879   2.685   5.420 -0.6917 -0.4441 -0.5817
  354MOL0     C47671   6.790   2.810   5.431 -0.7264 -1.3851  0.7544
  354MOL0     N47672   6.852   2.933   5.481  0.3442 -0.7440  0.2022
  354MOL0     C47673   6.887   3.033   5.400  0.6196  0.5893 -0.2594
  354MOL0     C47674   6.911   3.142   5.478  1.0194  0.3278  0.2256
  354MOL0     C47675   6.947   3.281   5.443  0.4579 -0.0715  0.3631
  354MOL0     C47676   6.893   3.390   5.541  0.3659 -0.3510 -1.2185
  354MOL0     C47677   6.821   3.498   5.468 -0.4971 -0.4245  0.6551
  354MOL0     C47678   6.763   3.605   5.562 -0.4572  0.7879  0.1330
  354MOL0     O47679   6.730   3.734   5.512  0.3811 -0.3279  0.0168
  354MOL0     C47680   6.655   3.811   5.598  0.2003  0.0843  0.1927
  354MOL0     C47681   6.600   3.779   5.726 -0.1268  0.3731 -0.3514
  354MOL0     C47682   6.552   3.878   5.819  0.0799 -0.0005  0.1873
  354MOL0     C47683   6.516   3.836   5.959  0.6791 -0.8850 -0.4617
  354MOL0     C47684   6.527   4.018   5.770 -0.4492 -0.1594  0.1286
  354MOL0     C47685   6.496   4.137   5.852  0.8318  0.0633  0.6201
  354MOL0     O47686   6.425   4.122   5.972 -0.0374 -0.3419 -0.3662
  354MOL0     C47687   6.421   4.227   6.063  0.8391  0.1058 -0.0739
  354MOL0     C47688   6.485   4.219   6.180  0.8712  0.9103  0.7496
  354MOL0     C47689   6.471   4.318   6.274  0.0315 -0.8850  0.6978
  354MOL0     C47690   6.395   4.440   6.242 -0.4233 -0.5463 -0.3461
  354MOL0     O47691   6.368   4.542   6.327  0.1999  0.1465 -0.1655
  354MOL0     C47692   6.473   4.573   6.414 -0.0442  0.4479 -0.5182
  354MOL0     C47693   6.473   4.712   6.471  0.3348  1.1830 -0.1325
  354MOL0     C47694   6.332   4.758   6.517  0.0149 -0.2148 -0.0936
  354MOL0     C47695   6.343   4.841   6.638 -0.1202  0.1374  0.1016
  354MOL0     C47696   6.230   4.944   6.654 -0.0503  1.0141  0.1747
  354MOL0     C47697   6.259   5.061   6.739 -0.2812  0.4539 -0.6437
  354MOL0     C47698   6.268   5.017   6.886 -0.0360 -0.0812 -1.4890
  354MOL0     C47699   6.321   5.126   6.981 -0.1013 -0.7876  0.2929
  354MOL0    Cl47700   6.288   5.075   7.150  0.0258  0.6274  0.2335
  354MOL0     C47701   6.329   4.446   6.123  0.0475  0.4318 -0.1879
  354MOL0     C47702   6.336   4.333   6.036 -0.5486 -0.2290 -0.4643
  354MOL0     O47703   6.529   4.239   5.801  0.1771  0.4320 -0.0694
  354MOL0     C47704   6.568   4.033   5.637  0.5548 -0.0851  0.4460
  354MOL0     C47705   6.639   3.937   5.558 -0.7962  0.0314  0.1306
  354MOL0     N47706   6.894   3.103   5.607  0.2786  0.2582 -0.0076
  354MOL0     N47707   6.858   2.975   5.610 -0.7339 -0.5975  1.0598
  354MOL0     C47708   7.707   2.615   4.978 -0.6849  0.1848 -0.5237
  354MOL0     C47709   7.830   2.606   4.905 -0.0513 -0.5019 -0.4828
  354MOL0     C47710   8.193   2.629   4.673  0.6852 -0.3804  0.4250
  354MOL0     C47711   8.256   2.754   4.692 -0.0705 -1.0219 -0.6126
  354MOL0     C47712   8.385   2.785   4.655  0.9745 -0.0419 -0.1646
  354MOL0     C47713   8.462   2.693   4.582 -1.2091  0.3671 -0.2246
  354MOL0     O47714   8.583   2.724   4.530  0.2058 -0.1182 -0.6966
  354MOL0     C47715   8.608   2.866   4.505 -0.0205 -0.0863  0.3000
  354MOL0     C47716   8.712   2.907   4.396  0.7258  0.2228 -0.1680
  354MOL0     C47717   8.859   2.910   4.453  0.4803 -0.9557 -0.6983
  354MOL0     C47718   8.900   3.047   4.475  0.5751 -0.2360 -1.0049
  354MOL0     C47719   8.853   3.085   4.603  0.3702  1.0188 -0.0089
  354MOL0     C47720   8.803   3.108   4.713 -0.2555 -0.1142 -0.4044
  354MOL0     C47721   8.402   2.567   4.560 -0.0690  1.0136  0.3225
  354MOL0     C47722   8.269   2.534   4.606 -0.0196  0.0777 -0.0670
  354MOL0     H47723   7.856   2.937   4.821  2.3816 -1.2716  0.6413
  354MOL0     H47724   7.640   2.939   4.951 -0.4693 -0.2282 -0.1229
  354MOL0     H47725   7.622   2.875   5.201 -0.3470  1.3618  1.5575
  354MOL0     H47726   7.457   2.905   5.158  1.1793  1.0805  1.8840
  354MOL0     H47727   7.522   2.683   5.339  0.1765  2.1828  4.6295
  354MOL0     H47728   7.494   2.856   5.379  3.1170  0.8612 -1.3597
  354MOL0     H47729   7.260   2.832   5.304  3.4896  2.4957 -1.5182
  354MOL0     H47730   7.307   2.682   5.203 -2.8148  1.3999 -1.8045
  354MOL0     H47731   7.325   2.556   5.409 -1.7693 -1.2171 -1.0400
  354MOL0     H47732   7.277   2.702   5.499 -2.2744  0.5920 -0.0661
  354MOL0     H47733   7.097   2.555   5.283 -3.1009  0.8594  1.1788
  354MOL0     H47734   7.104   2.530   5.457 -0.8967  0.5956  0.9344
  354MOL0     H47735   7.053   2.772   5.485 -0.7659  1.2041  0.2183
  354MOL0     H47736   7.027   2.792   5.304  0.8293 -1.3229 -2.0970
  354MOL0     H47737   6.846   2.617   5.341 -0.3377 -2.8498  1.2221
  354MOL0     H47738   6.868   2.624   5.510 -3.4741  0.4473 -0.2123
  354MOL0     H47739   6.704   2.781   5.492 -0.6768 -2.5994  0.2780
  354MOL0     H47740   6.750   2.819   5.329  0.6482 -3.9014 -0.1184
  354MOL0     H47741   6.891   3.048   5.293 -2.2987  2.6402 -0.2047
  354MOL0     H47742   7.054   3.274   5.459  0.4085 -0.5327  0.5044
  354MOL0     H47743   6.918   3.297   5.339 -0.4733  0.3108  0.6685
  354MOL0     H47744   6.972   3.429   5.607  0.8475 -1.7904 -0.8881
  354MOL0     H47745   6.813   3.338   5.594 -0.1855  1.1163 -0.5720
  354MOL0     H47746   6.735   3.450   5.420  0.4178  0.5470 -2.1634
  354MOL0     H47747   6.894   3.551   5.407  0.7036  0.7982  3.0263
  354MOL0     H47748   6.838   3.636   5.635  1.9137  3.8722 -3.2572
  354MOL0     H47749   6.691   3.541   5.613 -1.4112  2.7284  1.3282
  354MOL0     H47750   6.628   3.679   5.759  0.6604  0.1107 -1.7480
  354MOL0     H47751   6.411   3.864   5.969  0.5880  0.2023 -3.4243
  354MOL0     H47752   6.535   3.735   5.997  1.0863  0.9879  5.1506
  354MOL0     H47753   6.571   3.886   6.039 -0.1962 -0.0210 -0.3878
  354MOL0     H47754   6.553   4.135   6.185 -1.1788 -1.0400 -1.6375
  354MOL0     H47755   6.510   4.297   6.373  1.1021 -2.3183  0.0032
  354MOL0     H47756   6.467   4.497   6.492  0.8829  0.5271 -0.3572
  354MOL0     H47757   6.573   4.554   6.375 -0.7213 -1.8957 -1.2381
  354MOL0     H47758   6.531   4.699   6.563 -1.1222  1.3162  0.8502
  354MOL0     H47759   6.520   4.785   6.404 -0.3694  1.7129 -0.0666
  354MOL0     H47760   6.275   4.670   6.547  0.2236  0.4114  2.3918
  354MOL0     H47761   6.304   4.817   6.429 -0.6279 -2.1597 -1.2402
  354MOL0     H47762   6.342   4.772   6.723 -2.7763 -1.2063 -0.9303
  354MOL0     H47763   6.441   4.890   6.635 -0.3444  0.5814 -0.0393
  354MOL0     H47764   6.132   4.898   6.669  0.4671 -0.4797 -0.7913
  354MOL0     H47765   6.213   4.988   6.555 -1.6625  1.0291  0.4306
  354MOL0     H47766   6.350   5.109   6.702 -0.3907  0.8916 -0.3561
  354MOL0     H47767   6.177   5.134   6.737  0.2721  1.3041  2.5926
  354MOL0     H47768   6.330   4.927   6.887  1.5536  0.9858 -1.6462
  354MOL0     H47769   6.167   4.988   6.918  0.5449 -0.7350 -0.1792
  354MOL0     H47770   6.279   5.225   6.961 -1.3635 -0.6761  3.0042
  354MOL0     H47771   6.427   5.124   6.953 -0.8841  0.7438 -3.2198
  354MOL0     H47772   6.268   4.530   6.090 -1.3373 -0.5620 -0.2402
  354MOL0     H47773   6.284   4.355   5.944  1.2648  1.1362 -1.2302
  354MOL0     H47774   6.554   4.126   5.583 -3.3218 -0.4166  0.5868
  354MOL0     H47775   6.685   3.978   5.469  0.4845  3.7221  2.2604
  354MOL0     H47776   7.665   2.537   5.041 -2.8563 -0.0226 -2.1231
  354MOL0     H47777   7.886   2.513   4.904 -0.0238 -0.6673  3.1573
  354MOL0     H47778   8.206   2.836   4.742 -0.7498 -2.1368  0.5741
  354MOL0     H47779   8.430   2.878   4.688  2.1232 -0.3947 -0.7090
  354MOL0     H47780   8.516   2.915   4.472  0.7856  0.5875 -1.0564
  354MOL0     H47781   8.641   2.915   4.597 -3.8935  1.3650  1.1026
  354MOL0     H47782   8.683   2.999   4.344 -1.1454  0.0450  0.4883
  354MOL0     H47783   8.726   2.826   4.325  2.5316 -2.0312  2.5323
  354MOL0     H47784   8.934   2.863   4.388  1.7366  1.8226 -1.4246
  354MOL0     H47785   8.861   2.856   4.548 -0.0362  1.8705  1.0244
  354MOL0     H47786   8.882   3.128   4.404  1.0459  1.5387  0.8023
  354MOL0     H47787   9.009   3.052   4.481  0.6843 -1.9714 -1.0109
  354MOL0     H47788   8.756   3.146   4.801  0.6451  0.5761 -0.2080
  354MOL0     H47789   8.457   2.488   4.510  0.5367  0.6860  1.4786
  354MOL0     H47790   8.225   2.438   4.581  1.5431 -0.9412  0.8983
  355MOL0     O47791   0.096   6.500   1.217 -0.3326 -0.1626 -0.7058
  355MOL0     C47792  -0.021   6.490   1.252  0.0439  0.8002  0.3111
  355MOL0     O47793  -0.115   6.585   1.240  0.1244 -0.3504 -0.1933
  355MOL0     C47794  -0.070   6.712   1.240 -0.0408 -1.0265  0.5120
  355MOL0     C47795  -0.014   6.760   1.364  0.3896  0.3768  0.3706
  355MOL0     C47796   0.006   6.904   1.383 -0.3084 -0.0058  0.2197
  355MOL0     C47797  -0.024   6.991   1.279  0.2639 -0.3065  0.1676
  355MOL0     O47798  -0.028   7.122   1.300 -0.3401 -0.2552 -0.0927
  355MOL0     C47799   0.054   7.202   1.209  0.7505 -0.7314  0.6469
  355MOL0     C47800  -0.036   7.274   1.113 -0.1215 -0.8218 -0.3714
  355MOL0     C47801   0.033   7.309   0.993 -0.5240 -0.1655  0.8044
  355MOL0     C47802   0.117   7.431   1.014 -0.2428  0.6112 -0.9606
  355MOL0     C47803   0.168   7.485   0.881  0.3708  0.3553  0.5736
  355MOL0     C47804   0.233   7.387   0.777 -0.5964 -0.4649  0.2190
  355MOL0     C47805   0.347   7.317   0.841  0.6071  0.1186 -0.1735
  355MOL0     C47806   0.416   7.212   0.746  0.2917 -0.4693 -0.8553
  355MOL0     N47807   0.518   7.133   0.813 -0.2878  1.3401 -0.0331
  355MOL0     C47808   0.650   7.159   0.830  0.2388 -0.0678 -0.8092
  355MOL0     C47809   0.712   7.048   0.861  1.2472 -0.4113  0.1700
  355MOL0     C47810   0.859   7.034   0.871 -0.6278  0.1604  0.5942
  355MOL0     C47811   0.909   6.947   0.981  0.3174 -0.1171  1.3310
  355MOL0     C47812   1.054   6.960   1.016  0.2834 -0.0465  0.2278
  355MOL0     C47813   1.144   6.895   0.911 -0.2292  0.1661 -0.3184
  355MOL0     O47814   1.276   6.910   0.959 -1.0978 -0.5287  0.2783
  355MOL0     C47815   1.382   6.848   0.893  0.0205 -0.3249  0.0711
  355MOL0     C47816   1.511   6.904   0.891 -0.0270  0.3280 -0.6214
  355MOL0     C47817   1.617   6.845   0.820 -0.7187 -0.0154  0.8151
  355MOL0     C47818   1.738   6.935   0.827  1.3082 -0.1264  0.1050
  355MOL0     C47819   1.613   6.721   0.756  0.6814  0.0445 -0.6078
  355MOL0     C47820   1.725   6.644   0.691  0.1016  0.7625  0.0203
  355MOL0     O47821   1.695   6.600   0.565 -0.0442 -0.8129  0.5772
  355MOL0     C47822   1.799   6.541   0.493 -0.2154  0.2324  0.2975
  355MOL0     C47823   1.895   6.613   0.421  0.3193  0.3121  0.8009
  355MOL0     C47824   1.995   6.535   0.361 -0.1841 -0.6983 -0.4787
  355MOL0     C47825   2.008   6.394   0.376  0.4206  0.0995  0.3766
  355MOL0     O47826   2.111   6.322   0.307  0.7143  0.6594 -0.1952
  355MOL0     C47827   2.187   6.387   0.202  0.0973 -0.5879 -0.2632
  355MOL0     C47828   2.294   6.306   0.142  0.5690  1.6002  0.0021
  355MOL0     C47829   2.314   6.340  -0.006 -0.4082  0.2988  0.6433
  355MOL0     C47830   2.402   6.233  -0.075 -0.3027 -0.1886 -0.2767
  355MOL0     C47831   2.547   6.283  -0.098  0.3875 -1.1105  0.1189
  355MOL0     C47832   2.542   6.338  -0.246 -0.3546 -0.2772 -1.1156
  355MOL0     C47833   2.683   6.372  -0.298 -0.2519  0.3817 -1.5027
  355MOL0     C47834   2.775   6.262  -0.327  0.2788  0.8179 -0.0444
  355MOL0    Cl47835   2.937   6.343  -0.345 -0.3720 -0.4291 -0.2962
  355MOL0     C47836   1.914   6.327   0.453 -0.7141  0.2467  0.9366
  355MOL0     C47837   1.809   6.402   0.509 -0.6610  0.1439  0.8129
  355MOL0     O47838   1.843   6.643   0.737 -1.0254 -0.3965  0.0892
  355MOL0     C47839   1.489   6.658   0.765  1.0460 -0.3788 -0.3197
  355MOL0     C47840   1.375   6.727   0.830 -0.5437  0.2525  0.7212
  355MOL0     N47841   0.617   6.944   0.859  0.0765  0.3935 -0.4266
  355MOL0     N47842   0.502   6.993   0.843  0.5073  0.6720  0.0062
  355MOL0     C47843  -0.082   6.942   1.164  0.1310  0.3810  0.9938
  355MOL0     C47844  -0.099   6.808   1.140  0.2511  0.6608 -0.3367
  355MOL0     C47845  -0.057   6.358   1.316  0.3232 -0.4508  0.6451
  355MOL0     C47846  -0.178   6.335   1.387 -0.0678 -0.0860 -0.3643
  355MOL0     C47847  -0.219   6.208   1.430 -1.1365 -0.3331  0.0402
  355MOL0     C47848  -0.136   6.095   1.409 -0.1433 -0.2906  0.1104
  355MOL0     O47849  -0.164   5.974   1.451 -0.1072  0.3732 -0.0417
  355MOL0     C47850  -0.304   5.925   1.454  0.4334  0.6097 -0.9371
  355MOL0     C47851  -0.319   5.767   1.481  0.6667 -0.5336 -0.0242
  355MOL0     C47852  -0.303   5.718   1.620  0.2597 -0.1569  0.7025
  355MOL0     C47853  -0.394   5.611   1.661  0.0978  0.3793  0.2002
  355MOL0     C47854  -0.531   5.668   1.667  0.1772  0.4125  0.3582
  355MOL0     C47855  -0.640   5.720   1.668  0.0473  0.7320  0.4617
  355MOL0     C47856  -0.011   6.119   1.350 -0.4202  0.5143 -0.7865
  355MOL0     C47857   0.026   6.245   1.302  0.1689  0.6873 -0.2587
  355MOL0     H47858  -0.004   6.692   1.448  2.2945  0.2075  0.0585
  355MOL0     H47859   0.049   6.945   1.474  1.5998  0.3667 -0.7871
  355MOL0     H47860   0.102   7.268   1.283  1.8104 -0.7651  0.0043
  355MOL0     H47861   0.134   7.148   1.159 -0.4752  0.8281 -3.4777
  355MOL0     H47862  -0.119   7.208   1.087  0.2042 -1.0662 -0.8138
  355MOL0     H47863  -0.082   7.365   1.150  2.6070  1.4595 -2.1520
  355MOL0     H47864   0.095   7.226   0.958  1.4097  0.7383  1.9263
  355MOL0     H47865  -0.040   7.309   0.911 -0.9918 -0.9630  1.2047
  355MOL0     H47866   0.058   7.505   1.067 -0.5225  0.0231 -0.4318
  355MOL0     H47867   0.198   7.415   1.086 -1.7872  0.6094  0.8539
  355MOL0     H47868   0.082   7.532   0.833 -1.3644 -2.8390  0.2771
  355MOL0     H47869   0.252   7.550   0.907  0.1881  0.7963  0.0632
  355MOL0     H47870   0.162   7.310   0.746 -0.4730  0.0422 -1.4020
  355MOL0     H47871   0.255   7.448   0.689 -0.6515 -0.8178 -0.0419
  355MOL0     H47872   0.417   7.389   0.883  0.5204 -0.4032  0.8985
  355MOL0     H47873   0.300   7.263   0.924  0.3079 -2.1186 -1.7029
  355MOL0     H47874   0.457   7.263   0.658 -3.2105  0.6289 -2.0147
  355MOL0     H47875   0.335   7.145   0.718 -1.4913  0.5695  1.4425
  355MOL0     H47876   0.701   7.251   0.804  0.3223  1.1508  3.1035
  355MOL0     H47877   0.897   7.002   0.773  2.4811  1.3982  1.2769
  355MOL0     H47878   0.897   7.132   0.901 -1.9875  0.1382  2.5258
  355MOL0     H47879   0.900   6.841   0.957 -0.4543  0.2445 -0.0469
  355MOL0     H47880   0.852   6.968   1.073 -0.9939  1.1021  0.2827
  355MOL0     H47881   1.067   6.897   1.105 -1.5108  0.2516  0.7469
  355MOL0     H47882   1.080   7.062   1.047 -0.4230  0.1931  0.0630
  355MOL0     H47883   1.123   6.941   0.814 -2.0476 -0.4954 -0.2777
  355MOL0     H47884   1.119   6.789   0.914 -0.0195  0.1183 -0.2407
  355MOL0     H47885   1.532   6.995   0.947 -1.4096 -0.4660  1.2779
  355MOL0     H47886   1.756   6.966   0.930  0.8043  3.5021 -0.7649
  355MOL0     H47887   1.829   6.892   0.785  0.4373 -0.7904 -1.1785
  355MOL0     H47888   1.722   7.036   0.790 -0.5248 -0.5742 -0.4318
  355MOL0     H47889   1.909   6.721   0.416  4.2633 -0.0619  0.0231
  355MOL0     H47890   2.066   6.591   0.301  1.9991 -2.2105  0.6028
  355MOL0     H47891   2.110   6.428   0.134  0.5439  2.1556  0.7389
  355MOL0     H47892   2.242   6.468   0.250  0.2197  0.2519 -1.7317
  355MOL0     H47893   2.384   6.328   0.201 -0.7562  1.0060  2.4073
  355MOL0     H47894   2.275   6.200   0.162 -1.7182  2.4843  3.4232
  355MOL0     H47895   2.358   6.438  -0.026 -0.2603  0.2123  0.5472
  355MOL0     H47896   2.217   6.333  -0.057  0.6942  1.2102 -1.7243
  355MOL0     H47897   2.402   6.140  -0.017 -0.3842 -1.4141 -2.1572
  355MOL0     H47898   2.353   6.188  -0.161 -0.2283  0.4555 -0.6587
  355MOL0     H47899   2.615   6.196  -0.095  1.2306 -0.4569  0.2768
  355MOL0     H47900   2.580   6.358  -0.025 -0.1475  1.5212 -2.1892
  355MOL0     H47901   2.498   6.268  -0.318  1.2155 -1.3253 -1.1262
  355MOL0     H47902   2.479   6.425  -0.261 -1.4456 -1.0657 -1.2038
  355MOL0     H47903   2.731   6.425  -0.216  1.7661 -0.5938 -1.9916
  355MOL0     H47904   2.666   6.444  -0.378 -2.4781  3.8321  1.7572
  355MOL0     H47905   2.760   6.209  -0.422  2.7513 -1.8423  0.9147
  355MOL0     H47906   2.772   6.185  -0.249  0.7895  2.7546  1.9722
  355MOL0     H47907   1.923   6.219   0.462 -1.9457 -0.2671 -2.3561
  355MOL0     H47908   1.730   6.357   0.569 -1.0275  1.9718  1.7739
  355MOL0     H47909   1.483   6.558   0.724  0.8010 -0.1058 -0.9644
  355MOL0     H47910   1.279   6.679   0.845 -0.2180 -0.2956  1.0899
  355MOL0     H47911  -0.128   7.005   1.088  0.1780 -2.3632 -1.4594
  355MOL0     H47912  -0.166   6.766   1.065  0.2338 -1.1332  0.6265
  355MOL0     H47913  -0.244   6.416   1.416 -1.4400 -0.9915 -0.8320
  355MOL0     H47914  -0.317   6.212   1.476 -2.0221  0.2115 -1.7658
  355MOL0     H47915  -0.367   5.992   1.512  0.8125  0.1101  0.0697
  355MOL0     H47916  -0.343   5.950   1.354  0.1187  0.2562 -0.9052
  355MOL0     H47917  -0.252   5.716   1.410 -1.4598 -1.2314 -1.6176
  355MOL0     H47918  -0.414   5.733   1.438  0.1613  0.4085  0.3159
  355MOL0     H47919  -0.311   5.808   1.682  0.3229 -0.0291  0.5277
  355MOL0     H47920  -0.200   5.683   1.630 -0.6502 -2.7575  1.6081
  355MOL0     H47921  -0.363   5.568   1.757 -2.3588  1.3043  1.4950
  355MOL0     H47922  -0.386   5.521   1.599  1.4667 -0.0847  1.0002
  355MOL0     H47923  -0.739   5.758   1.677 -1.1762 -2.2443  0.8754
  355MOL0     H47924   0.047   6.030   1.327  0.3798  0.5554  0.9832
  355MOL0     H47925   0.125   6.244   1.256  0.7283 -4.0253  0.4723
  356MOL0     O47926   6.951  11.287   6.024 -0.7125 -0.6906 -0.8497
  356MOL0     C47927   6.985  11.306   5.908 -1.0113 -0.5311 -0.5863
  356MOL0     O47928   7.086  11.388   5.866  0.8960  0.6002  0.4246
  356MOL0     C47929   7.168  11.436   5.958 -0.0707 -0.1570 -0.9582
  356MOL0     C47930   7.276  11.363   5.998 -0.3327  0.8677 -1.5297
  356MOL0     C47931   7.383  11.408   6.068 -0.3644  0.0128  0.1414
  356MOL0     C47932   7.389  11.543   6.111  0.2183  0.2939 -0.0132
  356MOL0     O47933   7.490  11.574   6.189 -0.5610  0.5424 -0.0181
  356MOL0     C47934   7.531  11.707   6.208 -0.1826 -1.0172 -0.7761
  356MOL0     C47935   7.531  11.736   6.357 -0.1323 -0.4201  0.0555
  356MOL0     C47936   7.406  11.712   6.431 -0.9976 -0.2205  0.2067
  356MOL0     C47937   7.412  11.738   6.576  0.0395  0.2464 -0.0588
  356MOL0     C47938   7.273  11.737   6.641 -0.9749  0.2116 -1.0801
  356MOL0     C47939   7.274  11.676   6.779  0.2398 -0.0787  0.7332
  356MOL0     C47940   7.317  11.788   6.891 -0.0302  0.1510  0.7555
  356MOL0     C47941   7.212  11.786   6.998  0.0561 -0.5441  0.6075
  356MOL0     N47942   7.090  11.866   6.957 -0.1096 -0.0581 -0.6858
  356MOL0     C47943   7.071  11.998   6.959  0.6672  0.4948  0.4087
  356MOL0     C47944   6.936  12.014   6.937 -0.0879  0.3661  0.2319
  356MOL0     C47945   6.874  12.151   6.916  0.0342 -0.3003 -0.5036
  356MOL0     C47946   6.909  12.212   6.778 -0.0017  0.0228 -0.0694
  356MOL0     C47947   6.887  12.359   6.757 -0.6963 -0.0974  0.2726
  356MOL0     C47948   6.948  12.384   6.615  1.2312 -0.7905 -0.0650
  356MOL0     O47949   6.926  12.518   6.582  0.1122  0.5068 -0.4255
  356MOL0     C47950   6.987  12.604   6.666  0.4039  0.4943  0.0299
  356MOL0     C47951   7.132  12.610   6.679  0.1492 -0.6396 -0.1989
  356MOL0     C47952   7.197  12.701   6.763  0.5372 -0.5243  1.3147
  356MOL0     C47953   7.347  12.698   6.775 -0.2522 -0.0423 -0.6583
  356MOL0     C47954   7.117  12.793   6.831  0.4828 -0.3761 -0.2962
  356MOL0     C47955   7.174  12.893   6.931 -0.2402 -0.2840  0.1566
  356MOL0     O47956   7.275  12.855   7.012 -0.0541  0.2768 -0.6782
  356MOL0     C47957   7.341  12.953   7.071 -0.2261  0.1374  0.3072
  356MOL0     C47958   7.323  12.988   7.208  0.3149 -0.0082  0.0786
  356MOL0     C47959   7.388  13.097   7.260  0.7618  0.1447  0.2099
  356MOL0     C47960   7.481  13.164   7.188 -0.3418 -0.4053 -0.0176
  356MOL0     O47961   7.534  13.271   7.253 -0.6992  0.1846  0.1996
  356MOL0     C47962   7.649  13.340   7.206  1.2167  0.7179 -0.3123
  356MOL0     C47963   7.778  13.280   7.252 -0.1869 -0.0439  0.7136
  356MOL0     C47964   7.893  13.381   7.273 -0.8078  0.1761  0.1903
  356MOL0     C47965   7.880  13.456   7.406  0.1953  0.3448 -0.0426
  356MOL0     C47966   7.995  13.554   7.436  0.4275  0.8168  0.2523
  356MOL0     C47967   7.975  13.614   7.577  0.6599  0.9857 -0.1508
  356MOL0     C47968   8.038  13.754   7.599  0.4008 -0.5424  0.5286
  356MOL0     C47969   8.104  13.770   7.739 -0.1986 -0.2201 -0.0962
  356MOL0    Cl47970   8.126  13.940   7.779  0.0668  0.0627 -0.3438
  356MOL0     C47971   7.513  13.122   7.061 -0.1246 -0.4087  0.3955
  356MOL0     C47972   7.437  13.017   6.999 -0.7226 -0.0015 -0.5645
  356MOL0     O47973   7.136  13.009   6.903 -0.3293 -0.1838 -0.0688
  356MOL0     C47974   6.972  12.798   6.809  0.5931  0.5718  0.2164
  356MOL0     C47975   6.910  12.706   6.729  0.5257 -0.1887 -0.3992
  356MOL0     N47976   6.870  11.897   6.937 -0.6437  0.5409 -0.0628
  356MOL0     N47977   6.963  11.811   6.949 -0.3467 -0.5020 -0.1105
  356MOL0     C47978   7.275  11.623   6.074 -0.0815 -0.0388  0.0710
  356MOL0     C47979   7.167  11.572   5.999 -0.4044  0.6060 -1.0294
  356MOL0     C47980   6.895  11.250   5.798 -0.3623  0.0019 -0.1675
  356MOL0     C47981   6.785  11.166   5.826  0.1007 -0.8050  0.5400
  356MOL0     C47982   6.705  11.106   5.730  0.1164 -1.0581  0.0860
  356MOL0     C47983   6.720  11.150   5.598  0.9066  0.1560  0.0731
  356MOL0     O47984   6.626  11.113   5.501 -0.3689 -0.6068  0.2391
  356MOL0     C47985   6.644  11.148   5.366 -0.3242 -0.0287  0.3651
  356MOL0     C47986   6.526  11.099   5.279 -0.2834  0.3488 -0.6969
  356MOL0     C47987   6.531  11.120   5.127 -1.0448  0.0194  0.2991
  356MOL0     C47988   6.435  11.035   5.046  0.1496  0.1431  0.5201
  356MOL0     C47989   6.468  11.054   4.899 -0.2658 -0.1242  0.2841
  356MOL0     C47990   6.481  11.058   4.778  0.0377  0.6801 -0.9852
  356MOL0     C47991   6.834  11.237   5.568 -0.2994  0.9122  0.4460
  356MOL0     C47992   6.915  11.281   5.665 -0.1051 -1.0769 -0.3571
  356MOL0     H47993   7.260  11.260   5.966 -0.8660  0.7576 -0.9279
  356MOL0     H47994   7.461  11.341   6.103  0.6217  0.7033 -0.6350
  356MOL0     H47995   7.628  11.730   6.163 -1.8288  3.2244 -2.6582
  356MOL0     H47996   7.457  11.778   6.169  0.2139 -0.1660 -0.0261
  356MOL0     H47997   7.598  11.656   6.389  1.1766  1.6300  2.9014
  356MOL0     H47998   7.550  11.843   6.374 -3.1234 -0.1718  2.9217
  356MOL0     H47999   7.319  11.764   6.391 -1.7372  0.8871  3.0515
  356MOL0     H48000   7.375  11.608   6.426 -1.9658 -0.1070  2.4942
  356MOL0     H48001   7.479  11.664   6.621  0.0522  1.6876  2.4461
  356MOL0     H48002   7.455  11.836   6.599  2.8109 -0.3862 -1.9897
  356MOL0     H48003   7.237  11.840   6.642  0.7799  0.8484 -0.2528
  356MOL0     H48004   7.202  11.679   6.581 -0.5459  0.0433 -1.4276
  356MOL0     H48005   7.175  11.635   6.800 -0.1293  1.6897  2.8798
  356MOL0     H48006   7.335  11.586   6.782 -1.3380 -1.3737 -2.0966
  356MOL0     H48007   7.414  11.752   6.926  0.0691 -2.5988 -1.8986
  356MOL0     H48008   7.322  11.893   6.861 -0.8695  0.3872  1.4079
  356MOL0     H48009   7.244  11.839   7.088 -2.2081  0.5063  0.8762
  356MOL0     H48010   7.187  11.685   7.032 -2.5677 -1.3437 -3.1630
  356MOL0     H48011   7.146  12.076   6.959  0.9275  0.2462  0.8474
  356MOL0     H48012   6.765  12.145   6.914  0.0174 -1.9811  1.8203
  356MOL0     H48013   6.900  12.207   7.006 -0.9735 -1.3927  0.5130
  356MOL0     H48014   6.842  12.169   6.702  1.5365  2.0555 -2.7868
  356MOL0     H48015   7.009  12.186   6.744 -1.2106 -1.8485 -2.4978
  356MOL0     H48016   6.920  12.424   6.838 -1.9270  1.4100 -0.3780
  356MOL0     H48017   6.780  12.375   6.740 -0.3235 -0.9764 -3.9893
  356MOL0     H48018   6.898  12.322   6.540  0.5790  2.0203 -2.1289
  356MOL0     H48019   7.054  12.357   6.609  1.4291  0.3038 -2.8422
  356MOL0     H48020   7.195  12.547   6.616  0.7419 -0.3690  0.1190
  356MOL0     H48021   7.379  12.648   6.867  4.5326  2.0882 -0.8720
  356MOL0     H48022   7.390  12.646   6.689 -0.7019 -2.7768  0.6704
  356MOL0     H48023   7.388  12.800   6.780 -0.7227  0.0960  2.7242
  356MOL0     H48024   7.259  12.914   7.255  1.6014 -3.0044 -2.5608
  356MOL0     H48025   7.385  13.117   7.367 -1.7977  3.8729 -0.3707
  356MOL0     H48026   7.658  13.371   7.101  2.7185  3.4260  0.5341
  356MOL0     H48027   7.648  13.445   7.238 -0.7190  1.0336 -1.2062
  356MOL0     H48028   7.766  13.236   7.351 -1.2671 -0.2263  0.5130
  356MOL0     H48029   7.804  13.201   7.180 -1.1472 -1.6513  2.0583
  356MOL0     H48030   7.909  13.450   7.190 -1.3721  0.7861  0.5756
  356MOL0     H48031   7.987  13.327   7.269  0.3929  2.0878  1.1990
  356MOL0     H48032   7.777  13.492   7.415  0.8457  1.9943  1.2316
  356MOL0     H48033   7.893  13.379   7.482 -1.4724  2.2833  2.3656
  356MOL0     H48034   7.977  13.626   7.356  0.2926  1.7587  1.1050
  356MOL0     H48035   8.092  13.506   7.423 -0.5025 -2.2744  3.1223
  356MOL0     H48036   7.870  13.637   7.600  0.5347 -0.1249  0.4831
  356MOL0     H48037   8.006  13.540   7.652  0.2610  0.6055 -0.3545
  356MOL0     H48038   7.964  13.829   7.570  0.2812 -1.2960 -1.2601
  356MOL0     H48039   8.125  13.771   7.535  0.7941 -0.1111  1.1674
  356MOL0     H48040   8.197  13.716   7.758  0.6732  1.1369 -0.3992
  356MOL0     H48041   8.033  13.727   7.811 -0.3061  0.3282  0.1279
  356MOL0     H48042   7.590  13.171   7.001  0.0302  0.2368  1.1019
  356MOL0     H48043   7.463  12.993   6.896  2.2481  0.1504  0.0427
  356MOL0     H48044   6.922  12.878   6.863  0.3256  0.0905  0.6937
  356MOL0     H48045   6.802  12.704   6.721  0.4851 -0.0002  0.0864
  356MOL0     H48046   7.271  11.731   6.089 -1.0001  0.1285 -1.2157
  356MOL0     H48047   7.087  11.637   5.967 -0.5286  1.0099  0.0604
  356MOL0     H48048   6.782  11.136   5.931 -1.3394 -1.0971  0.4359
  356MOL0     H48049   6.632  11.035   5.765 -0.3621 -0.7766 -0.3309
  356MOL0     H48050   6.642  11.258   5.365  1.9706  0.0586 -0.2140
  356MOL0     H48051   6.738  11.110   5.326 -0.9993 -2.1219  0.6766
  356MOL0     H48052   6.436  11.154   5.309  1.2608  1.8015  1.5421
  356MOL0     H48053   6.518  10.992   5.300  2.8089  0.0416 -0.7410
  356MOL0     H48054   6.633  11.105   5.090 -1.3440 -1.3499 -0.0442
  356MOL0     H48055   6.510  11.226   5.113  1.6420  0.5737  0.0195
  356MOL0     H48056   6.335  11.080   5.050  1.7880  4.5914 -1.6658
  356MOL0     H48057   6.430  10.929   5.069  2.0786 -0.5203 -1.7626
  356MOL0     H48058   6.483  11.060   4.671 -0.1627  0.5924 -0.9911
  356MOL0     H48059   6.845  11.269   5.465 -3.8989 -0.5434 -0.5734
  356MOL0     H48060   6.994  11.349   5.633 -2.3532  1.2969 -1.1908
  357MOL0     O48061   4.531   0.088  10.975 -0.4507  0.0696  0.0048
  357MOL0     C48062   4.552   0.190  10.907  0.9230  0.1283 -0.7810
  357MOL0     O48063   4.453   0.266  10.850  0.0436 -0.2061 -0.4090
  357MOL0     C48064   4.330   0.208  10.871 -0.3732 -0.8632  0.1234
  357MOL0     C48065   4.285   0.116  10.786 -0.2369  1.0160 -0.3384
  357MOL0     C48066   4.160   0.061  10.795  0.1817  0.7751 -0.5850
  357MOL0     C48067   4.071   0.118  10.886 -0.0221  0.8286 -0.1616
  357MOL0     O48068   3.943   0.069  10.893 -0.3024  0.1217  0.1401
  357MOL0     C48069   3.882   0.008  10.777 -0.0605  0.3484 -0.0723
  357MOL0     C48070   3.735  -0.022  10.801 -0.8934  0.1622  0.0546
  357MOL0     C48071   3.702  -0.175  10.812 -1.0119 -0.3692  0.4591
  357MOL0     C48072   3.550  -0.200  10.806  0.1891  0.5323  0.3976
  357MOL0     C48073   3.509  -0.345  10.791  0.7932  0.4992  0.0053
  357MOL0     C48074   3.494  -0.403  10.927 -0.2804 -0.3614  0.0998
  357MOL0     C48075   3.412  -0.538  10.925 -1.1123 -0.1977  0.6993
  357MOL0     C48076   3.401  -0.612  11.052  0.2213  0.9468 -0.6925
  357MOL0     N48077   3.329  -0.534  11.159  0.1540 -0.4702  0.7491
  357MOL0     C48078   3.192  -0.522  11.164  0.0195  0.1434 -0.5400
  357MOL0     C48079   3.156  -0.459  11.273 -0.5043  0.1020  0.0141
  357MOL0     C48080   3.025  -0.421  11.326 -0.0978 -0.0835  1.3226
  357MOL0     C48081   2.982  -0.505  11.442 -0.4032  0.0286  0.4967
  357MOL0     C48082   3.001  -0.653  11.421  0.0741  0.5641  0.5418
  357MOL0     C48083   2.978  -0.724  11.547  0.1754 -0.1305 -1.5768
  357MOL0     O48084   2.977  -0.869  11.509 -0.4994 -0.1483 -0.2729
  357MOL0     C48085   2.967  -0.954  11.616  0.3049 -0.1797 -0.2293
  357MOL0     C48086   2.865  -0.940  11.718  0.2135 -0.2309  0.2549
  357MOL0     C48087   2.858  -1.026  11.828  0.1791 -0.1376  0.1344
  357MOL0     C48088   2.761  -0.972  11.930  0.7212  0.6087  0.3623
  357MOL0     C48089   2.959  -1.128  11.848  0.4997 -0.9858  0.5611
  357MOL0     C48090   2.963  -1.217  11.975  0.9023 -0.4103  0.7506
  357MOL0     O48091   3.086  -1.276  11.995  0.3723  0.3677 -0.1277
  357MOL0     C48092   3.087  -1.375  12.091 -0.3903 -0.1301  0.1337
  357MOL0     C48093   3.205  -1.381  12.177  0.1875 -0.6926 -0.4516
  357MOL0     C48094   3.208  -1.475  12.277 -0.6359  0.7425  0.8338
  357MOL0     C48095   3.117  -1.584  12.278 -0.4633 -0.3316 -0.1680
  357MOL0     O48096   3.148  -1.675  12.371  0.3335  0.4704  0.2283
  357MOL0     C48097   3.051  -1.782  12.399  0.1877 -0.0341  0.0229
  357MOL0     C48098   3.107  -1.856  12.514 -0.2697 -0.1306  1.4811
  357MOL0     C48099   3.033  -1.986  12.548  0.0265  0.2443  0.4601
  357MOL0     C48100   2.880  -1.964  12.567 -0.3206 -0.9368 -0.0959
  357MOL0     C48101   2.805  -2.069  12.650 -0.5046 -0.0203  0.1285
  357MOL0     C48102   2.770  -2.202  12.575 -0.4143 -0.3014 -0.3858
  357MOL0     C48103   2.725  -2.327  12.650  0.3685  0.8109 -0.2182
  357MOL0     C48104   2.590  -2.287  12.709  0.4988 -0.3709  1.0883
  357MOL0    Cl48105   2.505  -2.415  12.789 -0.1906  0.0003  0.0854
  357MOL0     C48106   3.024  -1.595  12.171  0.3650 -0.1744 -0.2186
  357MOL0     C48107   2.999  -1.488  12.085 -1.0298 -0.5864 -0.0060
  357MOL0     O48108   2.863  -1.229  12.039  0.1166  0.2061 -0.2530
  357MOL0     C48109   3.048  -1.149  11.743 -0.5201 -0.8825  0.2207
  357MOL0     C48110   3.047  -1.066  11.630 -0.4450 -0.0470  0.3044
  357MOL0     N48111   3.281  -0.429  11.337  0.9152  0.3849  0.3358
  357MOL0     N48112   3.387  -0.468  11.263  0.4473  0.2377  0.0630
  357MOL0     C48113   4.120   0.200  10.984  0.2852  0.1579  0.6955
  357MOL0     C48114   4.250   0.248  10.975  0.0286 -0.3732  0.1764
  357MOL0     C48115   4.691   0.206  10.864  0.0216  0.2305  0.7328
  357MOL0     C48116   4.798   0.158  10.943  0.0039  0.1469  0.1322
  357MOL0     C48117   4.925   0.184  10.905  0.7589 -0.4613 -0.0075
  357MOL0     C48118   4.948   0.257  10.784  0.2477 -0.3380  0.5729
  357MOL0     O48119   5.077   0.287  10.749 -0.3073 -0.6598 -0.8276
  357MOL0     C48120   5.119   0.412  10.815  0.4067 -0.0886  0.4576
  357MOL0     C48121   5.210   0.388  10.931  0.7987  0.9761  0.0014
  357MOL0     C48122   5.176   0.478  11.054  0.2447  0.2850 -0.3693
  357MOL0     C48123   5.096   0.413  11.172  0.3196  0.1281  0.3975
  357MOL0     C48124   5.109   0.521  11.276  0.7304 -0.5348  0.6671
  357MOL0     C48125   5.108   0.623  11.344 -1.3998  0.7105  0.0262
  357MOL0     C48126   4.841   0.287  10.693 -0.8682  0.3849  0.3363
  357MOL0     C48127   4.712   0.275  10.739 -0.2764  1.5333  0.2023
  357MOL0     H48128   4.355   0.075  10.713 -0.3832 -0.0187  0.0772
  357MOL0     H48129   4.130  -0.016  10.725 -2.2094  4.9710 -4.7694
  357MOL0     H48130   3.891   0.072  10.688  1.3429  1.6598  0.9434
  357MOL0     H48131   3.941  -0.081  10.754 -2.3418 -1.5023  0.9728
  357MOL0     H48132   3.718   0.034  10.894 -0.7271  2.9139 -1.4679
  357MOL0     H48133   3.680   0.016  10.715 -0.6373 -4.1140 -2.2579
  357MOL0     H48134   3.754  -0.227  10.731  1.2640  2.4538 -0.0580
  357MOL0     H48135   3.743  -0.205  10.909  1.8544 -1.5101 -0.9773
  357MOL0     H48136   3.503  -0.156  10.894  0.8148 -1.3928  1.7705
  357MOL0     H48137   3.516  -0.143  10.719  2.1351  0.3035 -0.5759
  357MOL0     H48138   3.413  -0.351  10.739  0.6413 -1.3021  0.4185
  357MOL0     H48139   3.577  -0.403  10.728 -0.4516 -1.2518  0.2124
  357MOL0     H48140   3.597  -0.413  10.961  0.1243 -1.9166 -1.4639
  357MOL0     H48141   3.446  -0.333  10.997  2.8123 -0.4037  2.4672
  357MOL0     H48142   3.311  -0.509  10.895 -1.3004 -0.2022  1.3022
  357MOL0     H48143   3.449  -0.605  10.847 -2.5569 -0.5720  0.3162
  357MOL0     H48144   3.499  -0.638  11.092 -0.8253 -0.5201  1.0772
  357MOL0     H48145   3.360  -0.713  11.035 -2.6742  1.6906  1.1155
  357MOL0     H48146   3.114  -0.561  11.099 -1.2288 -0.2147  1.1047
  357MOL0     H48147   3.022  -0.315  11.353 -2.4096  0.3334 -0.1875
  357MOL0     H48148   2.946  -0.437  11.252 -0.2815 -1.1192  1.7309
  357MOL0     H48149   2.875  -0.483  11.453 -0.8277  0.2418 -3.0191
  357MOL0     H48150   3.047  -0.489  11.529  1.4993 -3.1304 -0.2064
  357MOL0     H48151   3.106  -0.670  11.394  0.2598  2.5683 -0.1669
  357MOL0     H48152   2.941  -0.682  11.334 -1.1152  2.1617  0.7791
  357MOL0     H48153   2.880  -0.694  11.585  0.8628  0.5659 -0.3077
  357MOL0     H48154   3.060  -0.708  11.617 -1.3540  0.3351  0.1785
  357MOL0     H48155   2.794  -0.861  11.697  0.8235  0.2984  0.1589
  357MOL0     H48156   2.693  -0.891  11.901  2.1103  2.2031  1.4017
  357MOL0     H48157   2.689  -1.045  11.968  1.0644  1.1283  2.0623
  357MOL0     H48158   2.823  -0.938  12.013 -0.1053  0.5795  1.0049
  357MOL0     H48159   3.277  -1.300  12.171 -0.4887 -0.0102  0.3622
  357MOL0     H48160   3.290  -1.481  12.349 -1.3552  0.4302  1.6478
  357MOL0     H48161   2.956  -1.745  12.438 -0.4072 -2.6013  1.2275
  357MOL0     H48162   3.036  -1.849  12.314  0.1092 -1.7863  1.3654
  357MOL0     H48163   3.214  -1.869  12.497 -0.2355  1.7212 -0.0700
  357MOL0     H48164   3.090  -1.787  12.597 -0.4706  0.9968  0.5340
  357MOL0     H48165   3.076  -2.032  12.637 -1.0575  2.4146  2.1988
  357MOL0     H48166   3.049  -2.053  12.463 -3.2623 -1.0616  0.7425
  357MOL0     H48167   2.870  -1.866  12.614 -1.8673  0.4417 -3.0246
  357MOL0     H48168   2.830  -1.947  12.471  0.5886  0.3846 -0.3587
  357MOL0     H48169   2.711  -2.029  12.688 -2.0104 -1.2684 -2.0562
  357MOL0     H48170   2.870  -2.088  12.736  0.5421  1.8394 -0.1950
  357MOL0     H48171   2.707  -2.183  12.487 -0.0930 -2.1764 -1.0698
  357MOL0     H48172   2.864  -2.229  12.525  1.3043 -2.3141  3.5267
  357MOL0     H48173   2.801  -2.350  12.725  0.3927  0.0762 -0.4688
  357MOL0     H48174   2.718  -2.413  12.584 -2.7194  0.7135  0.0872
  357MOL0     H48175   2.530  -2.262  12.621  0.2371  1.7439  1.8158
  357MOL0     H48176   2.595  -2.204  12.779  0.7114 -0.1150  0.7745
  357MOL0     H48177   2.952  -1.676  12.172  0.9488 -0.6993  0.2367
  357MOL0     H48178   2.919  -1.485  12.012 -0.4549 -0.8784 -0.6654
  357MOL0     H48179   3.113  -1.237  11.744  1.9895  0.8481 -0.9424
  357MOL0     H48180   3.114  -1.081  11.545 -3.0021  1.8213 -2.2266
  357MOL0     H48181   4.052   0.235  11.061  0.9724  0.7492  1.0385
  357MOL0     H48182   4.285   0.322  11.046 -1.3279 -1.3157  1.9071
  357MOL0     H48183   4.781   0.097  11.032 -1.5298  1.7397  0.9921
  357MOL0     H48184   5.014   0.140  10.950 -0.1747 -0.9965  1.3832
  357MOL0     H48185   5.178   0.465  10.740  0.6377  0.2236  0.8550
  357MOL0     H48186   5.029   0.467  10.841 -1.6619 -1.0824 -3.7868
  357MOL0     H48187   5.315   0.396  10.899  1.7154 -3.1389  1.4185
  357MOL0     H48188   5.194   0.283  10.955 -2.3523  0.8080 -2.2587
  357MOL0     H48189   5.124   0.570  11.024  2.7049  0.5039 -4.8453
  357MOL0     H48190   5.278   0.509  11.079 -0.7827  1.7805  2.4407
  357MOL0     H48191   5.151   0.323  11.201  2.2523  1.8290  2.4894
  357MOL0     H48192   4.990   0.390  11.161  0.2469 -0.2140  1.6580
  357MOL0     H48193   5.109   0.714  11.401 -0.2206  1.3874 -1.0283
  357MOL0     H48194   4.859   0.330  10.595  2.1670  0.5491  0.8588
  357MOL0     H48195   4.628   0.313  10.682 -1.2151  0.1011  0.5630
  358MOL0     O48196  11.485   3.253   7.095 -0.9171  0.2474  0.2362
  358MOL0     C48197  11.380   3.316   7.069  0.0601  0.3279  0.5273
  358MOL0     O48198  11.257   3.269   7.085 -0.6258 -0.3290  0.1678
  358MOL0     C48199  11.233   3.139   7.126 -0.1245 -0.4001  0.5019
  358MOL0     C48200  11.143   3.139   7.233  0.4394  0.1899 -0.0167
  358MOL0     C48201  11.117   3.005   7.274  0.4398  0.2423  1.0996
  358MOL0     C48202  11.164   2.885   7.224  0.4320  1.9270 -0.0220
  358MOL0     O48203  11.137   2.756   7.268 -0.6334 -0.2167 -0.3909
  358MOL0     C48204  11.077   2.729   7.391 -0.0001  0.8665  0.0145
  358MOL0     C48205  11.046   2.581   7.402  0.8385  0.1043  0.2286
  358MOL0     C48206  11.164   2.501   7.461 -0.2468 -0.1921 -0.2169
  358MOL0     C48207  11.136   2.355   7.520  0.0514  0.1547  0.6767
  358MOL0     C48208  11.256   2.282   7.558 -0.0829  0.2259  0.7456
  358MOL0     C48209  11.297   2.203   7.426 -0.1139  0.0458 -1.1582
  358MOL0     C48210  11.408   2.095   7.461  0.1506 -0.7120 -0.5099
  358MOL0     C48211  11.331   1.956   7.443 -0.5934  0.4075 -0.6559
  358MOL0     N48212  11.430   1.857   7.513 -0.0925  0.2992  0.6101
  358MOL0     C48213  11.555   1.814   7.460  0.2666 -0.3858  0.3105
  358MOL0     C48214  11.619   1.751   7.563  0.6465  0.0779  0.3394
  358MOL0     C48215  11.757   1.677   7.553 -0.0840  0.6840  0.8751
  358MOL0     C48216  11.889   1.756   7.564  0.3876 -0.2317  0.1966
  358MOL0     C48217  11.904   1.829   7.701 -0.4280  0.6672 -0.6927
  358MOL0     C48218  11.824   1.958   7.712 -0.6144 -0.1904 -0.1559
  358MOL0     O48219  11.828   2.043   7.591  0.3973 -0.4442 -0.1801
  358MOL0     C48220  11.761   2.161   7.596 -0.4022 -0.2183  0.0739
  358MOL0     C48221  11.704   2.224   7.712  0.4056 -0.1531  1.0238
  358MOL0     C48222  11.646   2.349   7.712 -0.0164  0.6782  0.0554
  358MOL0     C48223  11.598   2.405   7.847 -0.2528 -0.2832 -0.6979
  358MOL0     C48224  11.654   2.422   7.594  0.0172 -0.1575  0.3971
  358MOL0     C48225  11.605   2.571   7.576  0.9502 -0.5745  0.0632
  358MOL0     O48226  11.598   2.616   7.452  0.1719  0.1919 -0.3019
  358MOL0     C48227  11.597   2.752   7.441  0.8938 -0.4534  0.3092
  358MOL0     C48228  11.469   2.804   7.443  0.0547 -0.6984 -0.8873
  358MOL0     C48229  11.444   2.944   7.437 -0.5975 -0.4490 -0.3917
  358MOL0     C48230  11.550   3.034   7.433 -0.0079 -0.8817  0.9907
  358MOL0     O48231  11.516   3.163   7.426  0.3699  0.6546  0.7130
  358MOL0     C48232  11.615   3.264   7.428  0.6830  0.3825 -0.4224
  358MOL0     C48233  11.546   3.405   7.419  0.0021  0.2110  0.1406
  358MOL0     C48234  11.648   3.505   7.397  0.6532  0.1815  0.4028
  358MOL0     C48235  11.633   3.616   7.494 -0.0013 -1.1609 -0.3277
  358MOL0     C48236  11.706   3.745   7.428  0.0545  0.0057 -0.9933
  358MOL0     C48237  11.666   3.877   7.493  0.9142  0.7193 -0.1191
  358MOL0     C48238  11.774   3.978   7.452 -0.3526 -0.0821 -0.0818
  358MOL0     C48239  11.760   4.104   7.531  0.4457 -0.6705 -0.1500
  358MOL0    Cl48240  11.637   4.221   7.464 -0.1032  0.3244 -0.6277
  358MOL0     C48241  11.679   2.985   7.419  0.7261 -0.2154  0.9323
  358MOL0     C48242  11.705   2.844   7.425 -0.8499  0.2821  0.6510
  358MOL0     O48243  11.603   2.640   7.676 -0.0049 -0.6755  0.3580
  358MOL0     C48244  11.707   2.369   7.481  0.0442  0.4387  0.3181
  358MOL0     C48245  11.766   2.245   7.483  0.1105 -0.3804 -0.0423
  358MOL0     N48246  11.536   1.759   7.676 -0.3169  0.3224 -0.5260
  358MOL0     N48247  11.436   1.831   7.646 -0.3293 -0.1690 -0.2531
  358MOL0     C48248  11.252   2.897   7.119  0.1237  0.1168 -0.4672
  358MOL0     C48249  11.289   3.024   7.069 -0.2272  0.1727 -0.5893
  358MOL0     C48250  11.415   3.462   7.033 -0.3761  0.2725 -0.0355
  358MOL0     C48251  11.548   3.510   7.025 -0.1885 -0.0347  0.2642
  358MOL0     C48252  11.573   3.648   7.001  1.0499 -0.1301 -0.3839
  358MOL0     C48253  11.460   3.735   6.987 -0.2504 -0.6642 -0.7894
  358MOL0     O48254  11.468   3.873   6.955  0.2482  0.1206 -0.1563
  358MOL0     C48255  11.596   3.944   6.988  0.8912  0.0034  0.0934
  358MOL0     C48256  11.568   4.086   6.957 -0.2897  0.1205 -0.9325
  358MOL0     C48257  11.690   4.176   6.967  0.0528  0.1519  0.6218
  358MOL0     C48258  11.764   4.168   6.836 -0.3411  0.1095 -0.3068
  358MOL0     C48259  11.908   4.203   6.848  0.1480  0.3882  0.7649
  358MOL0     C48260  12.024   4.243   6.850  0.7254 -0.1214 -0.5589
  358MOL0     C48261  11.331   3.675   6.985 -0.1990  0.6895  0.8389
  358MOL0     C48262  11.312   3.541   7.010 -0.0341 -0.4547  0.0212
  358MOL0     H48263  11.079   3.219   7.270  0.3892  0.2297 -0.1916
  358MOL0     H48264  11.059   3.006   7.367 -1.6261 -0.4846 -0.1136
  358MOL0     H48265  11.136   2.750   7.480  3.8914 -2.3601 -1.4786
  358MOL0     H48266  10.983   2.784   7.397  0.1502  1.5174 -2.4296
  358MOL0     H48267  10.965   2.579   7.475  0.0668  0.4972 -0.6093
  358MOL0     H48268  11.015   2.527   7.313  0.0853 -1.5028  1.4100
  358MOL0     H48269  11.221   2.484   7.369 -3.6046 -1.5644 -2.2200
  358MOL0     H48270  11.217   2.560   7.536  0.3390  0.6518 -1.2735
  358MOL0     H48271  11.074   2.357   7.610 -1.9055 -1.5965 -0.5440
  358MOL0     H48272  11.073   2.288   7.461  1.1398 -1.0800  0.8601
  358MOL0     H48273  11.337   2.349   7.590  1.5579 -1.9947  1.5160
  358MOL0     H48274  11.237   2.205   7.632  0.7627 -0.2595  0.4683
  358MOL0     H48275  11.214   2.153   7.377  1.6262 -2.7014 -1.5464
  358MOL0     H48276  11.350   2.280   7.369 -0.3496  1.3448  0.3044
  358MOL0     H48277  11.474   2.112   7.376  0.1888  3.9439  0.1977
  358MOL0     H48278  11.456   2.115   7.557  1.5000  4.3911 -1.9563
  358MOL0     H48279  11.315   1.936   7.337  0.0966 -1.7757 -0.4062
  358MOL0     H48280  11.233   1.949   7.490 -0.1336 -2.7182  0.0455
  358MOL0     H48281  11.598   1.838   7.363 -3.4252  2.9188 -0.7889
  358MOL0     H48282  11.758   1.599   7.631 -0.7451  0.3651  0.5726
  358MOL0     H48283  11.768   1.630   7.455  3.0126  1.4636  0.7732
  358MOL0     H48284  11.893   1.821   7.476  0.1460  0.7684  0.9125
  358MOL0     H48285  11.976   1.689   7.569  1.0803  0.7374  3.0534
  358MOL0     H48286  12.010   1.856   7.711 -0.5896  1.4024 -0.9473
  358MOL0     H48287  11.874   1.767   7.786 -1.9792  1.8410 -0.3365
  358MOL0     H48288  11.859   2.017   7.797  2.7415 -2.3110  0.1126
  358MOL0     H48289  11.718   1.944   7.736 -0.7394  3.0262  1.8461
  358MOL0     H48290  11.701   2.168   7.804  1.0921 -0.8904  0.6088
  358MOL0     H48291  11.498   2.444   7.829  0.0545  0.0264 -1.8626
  358MOL0     H48292  11.587   2.322   7.917 -1.6800  0.3895 -0.0928
  358MOL0     H48293  11.675   2.473   7.885  1.7585 -1.9558 -1.5610
  358MOL0     H48294  11.376   2.749   7.437 -0.5509  0.4234 -2.3004
  358MOL0     H48295  11.341   2.973   7.451 -0.3748 -0.4367  1.3766
  358MOL0     H48296  11.682   3.255   7.514  0.1803 -0.9541 -0.1430
  358MOL0     H48297  11.672   3.253   7.336  0.8982 -0.1750 -0.2253
  358MOL0     H48298  11.479   3.399   7.333  2.3346  0.0145 -1.7950
  358MOL0     H48299  11.486   3.427   7.508  0.5463  2.7844 -0.0523
  358MOL0     H48300  11.621   3.540   7.298  1.2137  0.3186  0.2969
  358MOL0     H48301  11.752   3.474   7.400  1.2305  2.0480  1.4992
  358MOL0     H48302  11.533   3.652   7.517  0.9332  0.2216  1.8636
  358MOL0     H48303  11.689   3.598   7.586  1.1534  0.2063 -0.7165
  358MOL0     H48304  11.683   3.751   7.322 -0.5657  0.8660 -0.8223
  358MOL0     H48305  11.814   3.728   7.428 -0.2859 -2.9430 -3.4973
  358MOL0     H48306  11.571   3.918   7.459 -1.3542 -3.0967  1.0347
  358MOL0     H48307  11.658   3.863   7.601  0.2851  1.2185 -0.0978
  358MOL0     H48308  11.758   4.018   7.351 -0.0817  3.5090  1.1436
  358MOL0     H48309  11.874   3.933   7.452 -0.2958 -0.0008  1.8878
  358MOL0     H48310  11.857   4.155   7.519  1.5647 -1.8115  3.0207
  358MOL0     H48311  11.731   4.087   7.635 -1.5102  2.4118 -0.0666
  358MOL0     H48312  11.763   3.043   7.383  1.4933 -2.3564 -1.0530
  358MOL0     H48313  11.800   2.805   7.392 -0.8790  0.9952 -0.3441
  358MOL0     H48314  11.717   2.424   7.388 -0.3640  1.3873  0.8241
  358MOL0     H48315  11.801   2.205   7.389 -4.4406 -1.6948 -1.4386
  358MOL0     H48316  11.289   2.800   7.089  3.0471  1.4710 -1.5932
  358MOL0     H48317  11.373   3.037   7.003 -1.2913 -0.6843 -2.1638
  358MOL0     H48318  11.628   3.438   7.039 -0.0599 -0.0076 -0.3354
  358MOL0     H48319  11.677   3.671   6.980  1.2298 -1.3763 -0.9893
  358MOL0     H48320  11.616   3.928   7.095 -0.4659 -5.9153 -0.2177
  358MOL0     H48321  11.672   3.895   6.927  2.6059  3.8464 -1.1977
  358MOL0     H48322  11.493   4.120   7.030  2.4095 -0.0421  2.1305
  358MOL0     H48323  11.522   4.081   6.858  0.2149 -1.6535 -1.0995
  358MOL0     H48324  11.764   4.133   7.036 -0.8025  0.4392  1.7390
  358MOL0     H48325  11.660   4.274   7.007  0.1484  0.5797 -0.3241
  358MOL0     H48326  11.714   4.239   6.769  1.4830  3.3856  1.5828
  358MOL0     H48327  11.768   4.063   6.805  0.6389 -0.4877  1.7167
  358MOL0     H48328  12.125   4.276   6.863 -0.1694  3.0406 -0.7166
  358MOL0     H48329  11.243   3.736   6.970 -0.3674  1.1365  3.2477
  358MOL0     H48330  11.214   3.496   7.003 -0.0022 -0.5848  0.3646
  359MOL0     O48331   1.173   3.560   1.223  0.2053  0.4145 -0.1837
  359MOL0     C48332   1.104   3.460   1.232 -0.1801  0.2257 -0.7059
  359MOL0     O48333   0.970   3.449   1.219  0.0445  0.4532 -1.0124
  359MOL0     C48334   0.904   3.563   1.180 -0.9060 -0.6466  0.3484
  359MOL0     C48335   0.846   3.574   1.058 -0.2813  0.5745  0.5345
  359MOL0     C48336   0.779   3.687   1.007  0.1067  0.1738 -0.2485
  359MOL0     C48337   0.774   3.802   1.094 -0.1208 -0.0748  0.7555
  359MOL0     O48338   0.716   3.924   1.052  0.4274 -0.3933  0.1252
  359MOL0     C48339   0.581   3.906   1.006 -1.4667  0.4623 -0.6266
  359MOL0     C48340   0.499   4.032   1.047  0.3908 -0.4196  0.6534
  359MOL0     C48341   0.532   4.145   0.951  0.2060 -0.1395  0.6103
  359MOL0     C48342   0.539   4.283   1.012 -0.8436  0.0331  0.0001
  359MOL0     C48343   0.679   4.339   1.022 -0.7419  0.3491  0.3703
  359MOL0     C48344   0.682   4.481   1.076  0.1994 -0.9808  0.4433
  359MOL0     C48345   0.826   4.546   1.089  0.3691  0.7069 -0.1693
  359MOL0     C48346   0.815   4.696   1.118  0.6369  0.0497 -0.4017
  359MOL0     N48347   0.950   4.753   1.116 -0.1867 -0.5345 -0.1000
  359MOL0     C48348   1.038   4.734   1.223 -0.4399  0.1306  0.1862
  359MOL0     C48349   1.125   4.839   1.210  0.6325 -0.0745  0.4623
  359MOL0     C48350   1.258   4.864   1.278 -0.4283 -0.3260  0.0745
  359MOL0     C48351   1.382   4.805   1.214  0.9977 -0.3018  0.8112
  359MOL0     C48352   1.509   4.833   1.285 -0.4373 -0.5177 -0.8903
  359MOL0     C48353   1.542   4.979   1.320 -0.3601  0.2261  0.2237
  359MOL0     O48354   1.684   5.002   1.308 -0.0325 -0.2454 -0.3121
  359MOL0     C48355   1.749   5.032   1.422 -0.3234  1.0346 -0.2916
  359MOL0     C48356   1.778   4.937   1.520  0.4317  0.5695  0.3486
  359MOL0     C48357   1.863   4.968   1.627  1.2110  0.0665  0.1094
  359MOL0     C48358   1.908   4.848   1.707 -0.3465  0.3219 -0.5261
  359MOL0     C48359   1.918   5.093   1.636 -0.6434 -0.1030  0.2137
  359MOL0     C48360   2.001   5.137   1.750 -1.6406  0.5248  0.4045
  359MOL0     O48361   2.004   5.067   1.863 -0.2206 -0.4118 -0.2549
  359MOL0     C48362   2.042   5.129   1.986 -0.8296  0.5398 -0.3613
  359MOL0     C48363   2.088   5.047   2.092  0.1889 -0.5647  0.0332
  359MOL0     C48364   2.123   5.092   2.226 -0.9313 -1.2029  0.2717
  359MOL0     C48365   2.109   5.229   2.253 -0.3703  0.4239 -1.1406
  359MOL0     O48366   2.168   5.283   2.361 -0.0113 -0.2393  0.4264
  359MOL0     C48367   2.285   5.214   2.418 -0.1746 -0.5915  0.2781
  359MOL0     C48368   2.328   5.295   2.542  0.5136 -0.9010  0.9062
  359MOL0     C48369   2.216   5.312   2.644  0.0137  0.2161  1.3483
  359MOL0     C48370   2.259   5.397   2.765 -0.0569 -0.2013 -0.5025
  359MOL0     C48371   2.144   5.411   2.867  0.7415  0.3661 -0.4936
  359MOL0     C48372   2.096   5.284   2.931  0.2298  0.5781  0.0891
  359MOL0     C48373   1.969   5.304   3.019  0.2510  0.7628 -0.0619
  359MOL0     C48374   1.966   5.403   3.131  1.0273 -0.4119 -0.4907
  359MOL0    Cl48375   2.079   5.375   3.269 -0.2555 -0.0278 -0.0343
  359MOL0     C48376   2.058   5.311   2.145 -0.3278  0.7306 -1.0139
  359MOL0     C48377   2.029   5.262   2.022  0.4179  0.1751  0.0086
  359MOL0     O48378   2.059   5.241   1.728 -0.4794 -0.1602 -0.1255
  359MOL0     C48379   1.895   5.188   1.524 -0.1553  0.8986 -0.3764
  359MOL0     C48380   1.819   5.149   1.413 -0.7485 -0.0117  0.1444
  359MOL0     N48381   1.079   4.912   1.085 -0.2014  0.0696 -0.1701
  359MOL0     N48382   0.982   4.848   1.032 -0.1464 -0.4930  1.0397
  359MOL0     C48383   0.843   3.789   1.220  1.3503 -0.4649 -0.3579
  359MOL0     C48384   0.908   3.677   1.264  0.5899  2.0613  0.3473
  359MOL0     C48385   1.181   3.345   1.263  0.3125  0.2800 -0.0727
  359MOL0     C48386   1.321   3.347   1.282  0.1126  0.2481 -0.6807
  359MOL0     C48387   1.388   3.226   1.319  0.4439  0.4230 -0.3608
  359MOL0     C48388   1.320   3.108   1.335 -0.7601  0.1154  1.0450
  359MOL0     O48389   1.385   2.990   1.357 -0.5941 -0.1329  0.0689
  359MOL0     C48390   1.529   2.973   1.377 -0.2329  0.2496 -0.1755
  359MOL0     C48391   1.572   2.837   1.421 -0.6023 -0.1891 -0.2966
  359MOL0     C48392   1.722   2.847   1.452  0.1077 -1.0806  0.6836
  359MOL0     C48393   1.782   2.705   1.470  0.0411 -0.1260  0.2174
  359MOL0     C48394   1.794   2.634   1.339  0.1909  0.6000 -0.0888
  359MOL0     C48395   1.789   2.572   1.239  0.2335  0.0520  0.1220
  359MOL0     C48396   1.183   3.108   1.327 -0.8316 -0.5149 -0.2181
  359MOL0     C48397   1.113   3.221   1.296 -0.3207  0.2399  0.1938
  359MOL0     H48398   0.867   3.495   0.986  2.1610 -1.1075  2.8877
  359MOL0     H48399   0.743   3.688   0.904  1.3233 -0.3917 -0.6922
  359MOL0     H48400   0.575   3.899   0.897  2.0070  3.0085 -1.1443
  359MOL0     H48401   0.538   3.820   1.059  2.2365  0.9974  3.9249
  359MOL0     H48402   0.396   3.997   1.037  0.2974 -2.1504  5.2457
  359MOL0     H48403   0.500   4.058   1.153  0.0323  2.7359 -0.0320
  359MOL0     H48404   0.620   4.124   0.890 -1.3493  0.0162 -1.8330
  359MOL0     H48405   0.450   4.148   0.878  0.5478 -1.7278  0.1094
  359MOL0     H48406   0.474   4.334   0.941 -0.4370 -0.9775 -1.1263
  359MOL0     H48407   0.493   4.277   1.111  1.7910  0.8869  1.3849
  359MOL0     H48408   0.736   4.264   1.077  0.9176 -0.4342 -2.2333
  359MOL0     H48409   0.726   4.334   0.923  0.2980  0.5982  0.8378
  359MOL0     H48410   0.632   4.534   0.994  1.1829  1.0791  1.0874
  359MOL0     H48411   0.623   4.477   1.168  1.0267 -0.1044  1.0360
  359MOL0     H48412   0.885   4.486   1.159  0.1564  2.4853  1.6017
  359MOL0     H48413   0.884   4.535   0.996  1.5686  1.1995  0.5009
  359MOL0     H48414   0.770   4.711   1.217  2.5657 -0.0702  0.5562
  359MOL0     H48415   0.753   4.743   1.042  0.0689 -0.4039 -0.2275
  359MOL0     H48416   1.044   4.657   1.300  1.9834  0.5923  0.5587
  359MOL0     H48417   1.273   4.973   1.281  0.4807 -0.4637  0.9890
  359MOL0     H48418   1.263   4.822   1.379 -0.4823 -2.6265 -0.8249
  359MOL0     H48419   1.400   4.836   1.111  0.1236  0.3382  0.8460
  359MOL0     H48420   1.376   4.696   1.201 -1.7162 -0.0877 -0.5188
  359MOL0     H48421   1.584   4.784   1.221  0.3171  0.6779 -0.9485
  359MOL0     H48422   1.517   4.776   1.379 -0.3917 -3.6021 -2.6462
  359MOL0     H48423   1.498   4.989   1.419  2.3999  1.2291  1.4513
  359MOL0     H48424   1.503   5.056   1.253 -1.7908 -2.0150 -1.6644
  359MOL0     H48425   1.728   4.841   1.509  1.7343 -0.1315  0.3405
  359MOL0     H48426   1.887   4.758   1.648 -1.2877 -0.4906  0.9959
  359MOL0     H48427   2.015   4.855   1.727 -0.2679 -1.0727 -0.4069
  359MOL0     H48428   1.857   4.836   1.803  0.3581 -1.9302 -0.3905
  359MOL0     H48429   2.087   4.939   2.082  1.4903 -0.5980  0.1007
  359MOL0     H48430   2.174   5.023   2.292  0.4606  0.6835  1.2708
  359MOL0     H48431   2.248   5.118   2.455 -0.5367 -0.6685 -0.2779
  359MOL0     H48432   2.358   5.214   2.336 -0.4840 -2.7317 -0.0433
  359MOL0     H48433   2.420   5.253   2.583  0.8392 -1.0178  0.0796
  359MOL0     H48434   2.351   5.394   2.502 -0.4648 -1.0786 -0.1653
  359MOL0     H48435   2.179   5.215   2.678 -1.9592  0.1978 -0.6017
  359MOL0     H48436   2.137   5.373   2.599  1.7751  1.3226 -0.3859
  359MOL0     H48437   2.346   5.351   2.815  2.1287  1.7399 -2.2782
  359MOL0     H48438   2.287   5.499   2.737 -3.4246  2.8093  5.1682
  359MOL0     H48439   2.064   5.459   2.809  2.7106  1.7373 -2.2646
  359MOL0     H48440   2.161   5.488   2.943  0.4810 -0.2096  0.1595
  359MOL0     H48441   2.065   5.205   2.862  3.1714 -0.8719  0.2695
  359MOL0     H48442   2.177   5.244   2.993  1.7914  0.5333 -1.8817
  359MOL0     H48443   1.939   5.206   3.056 -2.3582  1.5158  0.0017
  359MOL0     H48444   1.889   5.335   2.952 -4.4840 -1.5307  3.8509
  359MOL0     H48445   1.873   5.385   3.186  3.1791 -3.1116  2.6502
  359MOL0     H48446   1.962   5.508   3.100 -0.0729 -0.3328 -0.1203
  359MOL0     H48447   2.054   5.413   2.180  0.0522  1.0672 -1.9152
  359MOL0     H48448   1.996   5.328   1.942 -0.3830  0.1711  0.3200
  359MOL0     H48449   1.934   5.289   1.525  4.2914 -0.5923  1.7204
  359MOL0     H48450   1.807   5.208   1.323 -1.4689 -0.7599 -0.2728
  359MOL0     H48451   0.854   3.874   1.287  1.5219 -1.7754  1.3283
  359MOL0     H48452   0.966   3.673   1.356 -1.9143  0.1295  1.9790
  359MOL0     H48453   1.377   3.439   1.278 -3.2284  2.6234  1.4206
  359MOL0     H48454   1.494   3.244   1.335  0.2677 -0.1328  1.8304
  359MOL0     H48455   1.580   2.979   1.280  1.1064 -2.3856  0.2613
  359MOL0     H48456   1.570   3.047   1.446 -3.4094  1.3869  0.6536
  359MOL0     H48457   1.543   2.760   1.349  0.5183 -1.1949  0.2860
  359MOL0     H48458   1.523   2.820   1.518  0.7704  0.1522  0.4754
  359MOL0     H48459   1.740   2.895   1.548  0.5467  0.2713 -0.0378
  359MOL0     H48460   1.769   2.898   1.367  0.3284 -2.3336  0.0334
  359MOL0     H48461   1.722   2.637   1.530 -2.3362  1.6445  0.0036
  359MOL0     H48462   1.879   2.712   1.519 -1.6889  1.1508  3.7979
  359MOL0     H48463   1.771   2.523   1.145  1.4855 -2.1801  0.9483
  359MOL0     H48464   1.127   3.017   1.342  1.5269 -2.4590 -2.2824
  359MOL0     H48465   1.005   3.222   1.298 -0.3929  0.6995 -1.8770
  360MOL0     O48466   7.446   7.094   7.426  0.4257 -0.1606 -0.8021
  360MOL0     C48467   7.350   7.025   7.401 -0.2554 -0.0678 -0.1046
  360MOL0     O48468   7.215   7.066   7.411 -0.1606  0.6446  0.4665
  360MOL0     C48469   7.205   7.184   7.486 -0.3701  0.1472 -0.4591
  360MOL0     C48470   7.183   7.165   7.627 -0.5273 -0.6785  0.5485
  360MOL0     C48471   7.166   7.282   7.700  0.1378  0.0642  0.3209
  360MOL0     C48472   7.194   7.410   7.652  0.5635 -0.5462 -0.4395
  360MOL0     O48473   7.204   7.511   7.745  0.4995  0.0248  0.1997
  360MOL0     C48474   7.083   7.560   7.808 -0.5981 -0.2623 -0.4778
  360MOL0     C48475   6.991   7.635   7.713  0.5097 -0.9864 -0.4899
  360MOL0     C48476   6.852   7.616   7.770  0.1865 -0.2212  0.4976
  360MOL0     C48477   6.755   7.680   7.661  0.3841  0.2260 -0.1074
  360MOL0     C48478   6.608   7.682   7.717 -0.7369  0.2893  0.3764
  360MOL0     C48479   6.506   7.705   7.616 -0.1063  0.0937  0.5597
  360MOL0     C48480   6.512   7.852   7.577 -1.0127  0.3334 -0.2552
  360MOL0     C48481   6.455   7.944   7.683 -0.3891 -0.3170 -0.2287
  360MOL0     N48482   6.460   8.085   7.645  0.4026  0.0246  1.2941
  360MOL0     C48483   6.352   8.165   7.607  0.3354  1.2197 -0.4734
  360MOL0     C48484   6.407   8.278   7.565 -0.3760 -0.7661  0.5030
  360MOL0     C48485   6.335   8.399   7.522 -0.0588 -0.0046 -0.5161
  360MOL0     C48486   6.431   8.504   7.453 -1.6124 -0.5239  1.3932
  360MOL0     C48487   6.440   8.494   7.295  0.0147  0.1307 -0.6215
  360MOL0     C48488   6.525   8.589   7.209  0.3982  0.1440 -0.9115
  360MOL0     O48489   6.489   8.727   7.218 -0.0365  0.7228  0.4320
  360MOL0     C48490   6.558   8.819   7.144  0.8669  0.1646 -0.1613
  360MOL0     C48491   6.504   8.945   7.166 -0.8940 -0.4958 -0.4099
  360MOL0     C48492   6.543   9.055   7.097 -0.5404 -0.7411  0.2805
  360MOL0     C48493   6.477   9.179   7.132  0.8271  0.1504 -0.3658
  360MOL0     C48494   6.642   9.038   6.994  0.4117 -0.5367  0.5470
  360MOL0     C48495   6.693   9.143   6.905 -0.1246 -1.4378 -1.0821
  360MOL0     O48496   6.816   9.137   6.863 -0.0427 -0.1283  0.6104
  360MOL0     C48497   6.867   9.232   6.778  1.0379  0.6465 -0.3132
  360MOL0     C48498   6.797   9.288   6.670  0.4888  0.3350 -0.0098
  360MOL0     C48499   6.863   9.370   6.587 -0.6259 -0.5511 -0.3211
  360MOL0     C48500   6.998   9.413   6.619 -0.0624  0.1454  0.9685
  360MOL0     O48501   7.073   9.496   6.536  0.0523  0.1434 -0.4121
  360MOL0     C48502   7.014   9.597   6.460  0.4665 -0.4378  0.1186
  360MOL0     C48503   7.022   9.560   6.309 -0.6661 -0.7984 -0.4669
  360MOL0     C48504   7.167   9.585   6.255  0.2296  0.0063  0.2877
  360MOL0     C48505   7.162   9.557   6.106 -0.9169  0.4009 -0.0494
  360MOL0     C48506   7.300   9.507   6.056  0.2355 -0.4536  0.4561
  360MOL0     C48507   7.396   9.633   6.043 -0.7992  0.3736 -0.1581
  360MOL0     C48508   7.530   9.594   6.029  0.0930  0.2002 -0.0224
  360MOL0     C48509   7.622   9.679   5.937  0.7852  0.4720 -0.3522
  360MOL0    Cl48510   7.644   9.848   5.993  0.1493  0.2483 -0.1884
  360MOL0     C48511   7.056   9.373   6.744  0.5832 -1.1039  0.2507
  360MOL0     C48512   6.990   9.277   6.816  0.1972 -0.4334 -0.2458
  360MOL0     O48513   6.612   9.228   6.879 -0.5779 -0.3226 -0.5488
  360MOL0     C48514   6.698   8.913   6.977  0.0570 -0.0774 -0.6237
  360MOL0     C48515   6.653   8.801   7.050 -0.1071  0.2147 -0.1943
  360MOL0     N48516   6.543   8.273   7.564 -0.1537  0.4061 -0.4891
  360MOL0     N48517   6.573   8.153   7.617  0.4251  0.0250 -0.1530
  360MOL0     C48518   7.215   7.420   7.510  0.9405  0.0266 -0.3365
  360MOL0     C48519   7.223   7.308   7.427  0.5075 -0.0829  0.9118
  360MOL0     C48520   7.376   6.904   7.332  0.9314  0.1523 -0.0067
  360MOL0     C48521   7.273   6.803   7.331 -0.1658  0.4860  0.2770
  360MOL0     C48522   7.301   6.681   7.282 -0.2225  0.2500  0.5786
  360MOL0     C48523   7.423   6.644   7.216 -0.8645  0.3864 -0.5387
  360MOL0     O48524   7.435   6.525   7.146 -0.3010  0.2241  0.2198
  360MOL0     C48525   7.562   6.498   7.085  0.4786  0.1537 -0.2528
  360MOL0     C48526   7.548   6.371   7.007  0.1924 -1.1854  1.2313
  360MOL0     C48527   7.522   6.249   7.085 -0.0314 -0.5328  0.1140
  360MOL0     C48528   7.576   6.115   7.025  0.4926  0.3700  0.1819
  360MOL0     C48529   7.544   5.991   7.101  0.1221 -0.1061  0.0733
  360MOL0     C48530   7.518   5.887   7.153 -0.5798  0.2808 -0.7552
  360MOL0     C48531   7.525   6.742   7.218  0.2633  0.8630 -0.6803
  360MOL0     C48532   7.498   6.871   7.270 -0.9536 -0.1459 -1.1948
  360MOL0     H48533   7.182   7.062   7.661 -0.8187 -0.3993  1.4161
  360MOL0     H48534   7.135   7.268   7.803  1.2789 -1.2023  0.5282
  360MOL0     H48535   7.031   7.478   7.859  1.1857 -0.1468  1.6659
  360MOL0     H48536   7.109   7.634   7.884 -2.6083 -0.8885  0.8936
  360MOL0     H48537   7.008   7.742   7.695 -3.4777 -0.0561  0.3031
  360MOL0     H48538   7.008   7.588   7.616  0.0887 -0.1898 -0.9610
  360MOL0     H48539   6.824   7.510   7.765  3.0969 -1.0564  0.1775
  360MOL0     H48540   6.841   7.668   7.866 -2.2311  0.7014 -0.1919
  360MOL0     H48541   6.786   7.779   7.627 -4.1668  1.8184 -0.3169
  360MOL0     H48542   6.753   7.626   7.566 -1.2661 -1.2102  0.6886
  360MOL0     H48543   6.578   7.582   7.750 -2.3014  0.4414 -0.5277
  360MOL0     H48544   6.603   7.746   7.806  0.6656 -0.6644  1.1802
  360MOL0     H48545   6.514   7.631   7.535 -0.2348  0.1508  0.4932
  360MOL0     H48546   6.401   7.690   7.646 -1.4277  2.3432 -2.4164
  360MOL0     H48547   6.616   7.880   7.560 -0.6967 -0.3160  0.5170
  360MOL0     H48548   6.455   7.867   7.485 -2.0398  1.1731  0.4940
  360MOL0     H48549   6.519   7.941   7.771  0.2254  2.2044 -0.5129
  360MOL0     H48550   6.350   7.919   7.703 -0.4742 -0.9588 -1.4190
  360MOL0     H48551   6.246   8.147   7.620  0.6170 -1.7253 -1.5110
  360MOL0     H48552   6.264   8.364   7.448  0.6451 -0.4432 -0.9950
  360MOL0     H48553   6.287   8.451   7.606 -0.0928  1.2636 -1.2960
  360MOL0     H48554   6.537   8.491   7.477 -0.4770  1.8842 -1.7110
  360MOL0     H48555   6.408   8.610   7.466 -0.1010 -0.1601  1.2635
  360MOL0     H48556   6.337   8.511   7.261 -0.6332 -3.6573 -0.9657
  360MOL0     H48557   6.456   8.389   7.270  0.2905 -0.0219  0.1721
  360MOL0     H48558   6.508   8.552   7.107 -0.9955  0.2913 -0.7573
  360MOL0     H48559   6.630   8.583   7.236  0.5132 -1.7428 -1.6805
  360MOL0     H48560   6.428   8.955   7.243 -1.4789 -0.4532 -0.9778
  360MOL0     H48561   6.554   9.257   7.134 -0.9918  2.1037 -1.8276
  360MOL0     H48562   6.399   9.197   7.058  2.4163  1.9024 -1.7164
  360MOL0     H48563   6.436   9.172   7.233 -1.5507 -5.7869 -1.3901
  360MOL0     H48564   6.693   9.269   6.647  0.8786  0.3886 -1.9981
  360MOL0     H48565   6.829   9.425   6.500  0.1744  0.5691  0.0591
  360MOL0     H48566   6.910   9.622   6.484 -0.4737 -2.2886 -1.7004
  360MOL0     H48567   7.075   9.688   6.467 -0.1873 -0.0427  0.7221
  360MOL0     H48568   6.983   9.460   6.289 -0.6853 -0.5991 -1.4699
  360MOL0     H48569   6.952   9.621   6.251 -0.8928 -0.2050  0.4105
  360MOL0     H48570   7.227   9.508   6.306  1.2449 -0.0766 -0.9646
  360MOL0     H48571   7.209   9.684   6.270  4.0670 -1.1517 -1.5529
  360MOL0     H48572   7.093   9.478   6.078  2.4518 -2.8124 -0.0051
  360MOL0     H48573   7.144   9.648   6.047 -0.2128  0.7139  0.2044
  360MOL0     H48574   7.303   9.452   5.962  1.3984  0.7956 -0.2789
  360MOL0     H48575   7.341   9.438   6.130  3.1721  0.8680  0.2177
  360MOL0     H48576   7.363   9.682   5.951  0.3466 -2.5631 -2.2979
  360MOL0     H48577   7.389   9.703   6.126  1.4867 -0.0730  0.4779
  360MOL0     H48578   7.533   9.493   5.986  2.6503  0.0131  0.4450
  360MOL0     H48579   7.566   9.577   6.131 -3.3877 -3.3434  0.9026
  360MOL0     H48580   7.592   9.665   5.832 -0.8589 -0.9569  0.2633
  360MOL0     H48581   7.724   9.639   5.937  0.3252 -0.7735  0.8421
  360MOL0     H48582   7.150   9.423   6.766  0.5989  0.1489 -2.3205
  360MOL0     H48583   7.044   9.229   6.897 -2.9366 -1.8336  1.1840
  360MOL0     H48584   6.773   8.904   6.898  1.3690 -0.3981  0.6211
  360MOL0     H48585   6.694   8.704   7.023 -2.1806 -0.2076 -2.1507
  360MOL0     H48586   7.237   7.520   7.474  3.2936 -0.4563 -0.3879
  360MOL0     H48587   7.242   7.311   7.321  3.5191 -1.5449  1.3025
  360MOL0     H48588   7.179   6.813   7.384 -0.5525  1.7488 -0.5840
  360MOL0     H48589   7.221   6.610   7.299  0.4811 -0.5900  0.4571
  360MOL0     H48590   7.596   6.581   7.023  0.4796 -0.9530 -1.7901
  360MOL0     H48591   7.635   6.494   7.167  1.2090  0.9231 -0.8587
  360MOL0     H48592   7.641   6.359   6.950 -0.0447 -2.5740  1.1056
  360MOL0     H48593   7.469   6.387   6.933 -2.0446 -0.3184  3.6553
  360MOL0     H48594   7.412   6.242   7.084 -0.5018  3.6789 -2.3791
  360MOL0     H48595   7.568   6.258   7.184  2.7602  1.4685 -1.2536
  360MOL0     H48596   7.684   6.109   7.041  0.3102 -1.0407  1.0592
  360MOL0     H48597   7.567   6.092   6.919 -1.3511  0.0962  0.3597
  360MOL0     H48598   7.494   5.797   7.206 -0.3822  1.1260  0.8421
  360MOL0     H48599   7.621   6.728   7.171 -0.0976  0.0036 -1.1826
  360MOL0     H48600   7.583   6.939   7.269  1.9838 -3.5255 -0.0344
  361MOL0     O48601   8.001   7.558  11.143  0.0686 -0.4870  0.4852
  361MOL0     C48602   7.930   7.453  11.133 -0.6548 -1.1167 -0.1058
  361MOL0     O48603   7.881   7.407  11.023  0.2135 -0.2556 -0.9600
  361MOL0     C48604   7.901   7.468  10.900  0.1164 -0.0016 -0.5390
  361MOL0     C48605   8.005   7.423  10.829 -0.7788  0.7349 -1.0246
  361MOL0     C48606   8.042   7.480  10.706  0.6454  0.5831 -0.1690
  361MOL0     C48607   7.945   7.572  10.649 -0.5226  0.6388 -0.1354
  361MOL0     O48608   7.943   7.617  10.514  0.3626  0.0384  0.1003
  361MOL0     C48609   8.070   7.639  10.444 -1.6131  0.0199 -0.1447
  361MOL0     C48610   8.069   7.734  10.327 -0.2089  0.2303  0.4000
  361MOL0     C48611   8.202   7.729  10.254  0.2339 -0.1833 -0.2142
  361MOL0     C48612   8.222   7.863  10.179  0.0189 -0.0235  0.3129
  361MOL0     C48613   8.356   7.869  10.106 -0.9157 -0.5439 -0.3055
  361MOL0     C48614   8.382   8.009  10.060 -0.3627  0.7815 -0.7025
  361MOL0     C48615   8.497   8.027   9.956 -0.3128  0.6504  0.1977
  361MOL0     C48616   8.577   8.155   9.968  0.2849 -0.3464 -0.6714
  361MOL0     N48617   8.500   8.269   9.926  0.6339  0.3677 -0.4214
  361MOL0     C48618   8.534   8.391   9.868 -0.0397  0.8240  0.2132
  361MOL0     C48619   8.431   8.470   9.867 -0.3106  1.1206 -0.1762
  361MOL0     C48620   8.425   8.606   9.800 -1.0131  0.6348 -0.2807
  361MOL0     C48621   8.440   8.720   9.911  0.8178  0.9313 -0.3930
  361MOL0     C48622   8.303   8.741   9.983 -0.9240 -0.2976 -0.2696
  361MOL0     C48623   8.308   8.663  10.122 -0.8062  0.1406 -0.9854
  361MOL0     O48624   8.210   8.724  10.213  0.1853 -0.2042  0.3231
  361MOL0     C48625   8.076   8.715  10.194 -0.1234 -0.2691  0.1933
  361MOL0     C48626   7.986   8.794  10.273  0.5104  0.0640  0.2175
  361MOL0     C48627   7.847   8.776  10.269 -0.3550  0.5512 -0.1360
  361MOL0     C48628   7.765   8.870  10.354 -0.3209 -0.7929  0.7444
  361MOL0     C48629   7.794   8.681  10.181  0.0355  0.3688  0.0908
  361MOL0     C48630   7.648   8.657  10.168  0.0544  0.9720 -0.1366
  361MOL0     O48631   7.565   8.718  10.252  0.7395 -0.9882 -0.0987
  361MOL0     C48632   7.439   8.655  10.273  1.2014  1.0126  0.9849
  361MOL0     C48633   7.396   8.613  10.399 -0.2042 -0.2702  0.6260
  361MOL0     C48634   7.269   8.564  10.414 -0.0233 -0.2000  0.1713
  361MOL0     C48635   7.175   8.572  10.309 -0.6958 -0.1666  0.0654
  361MOL0     O48636   7.048   8.521  10.332 -0.3805 -0.7099 -0.0106
  361MOL0     C48637   6.958   8.626  10.357 -0.7941 -0.0111  0.0684
  361MOL0     C48638   6.842   8.622  10.269  1.4026  0.9591  0.4998
  361MOL0     C48639   6.761   8.487  10.277 -0.7376 -0.8901 -0.5186
  361MOL0     C48640   6.636   8.498  10.179 -0.3010 -0.7408  0.0364
  361MOL0     C48641   6.577   8.357  10.141 -1.2450  0.8989 -0.3310
  361MOL0     C48642   6.674   8.277  10.057 -0.0826 -0.0855  1.1042
  361MOL0     C48643   6.599   8.164   9.976 -0.4455 -0.3676  0.1588
  361MOL0     C48644   6.679   8.088   9.874  0.1677  0.1200 -0.1477
  361MOL0    Cl48645   6.838   8.049   9.938  0.1121 -0.2076  0.4101
  361MOL0     C48646   7.215   8.635  10.192 -0.2995  0.4270  1.1558
  361MOL0     C48647   7.348   8.671  10.165  0.7264 -0.1096 -0.7833
  361MOL0     O48648   7.613   8.567  10.091  0.2304  1.3253 -0.6368
  361MOL0     C48649   7.886   8.599  10.111  0.9256 -0.3013  1.2448
  361MOL0     C48650   8.021   8.608  10.123  0.5624  0.0495 -0.1140
  361MOL0     N48651   8.330   8.406   9.929 -0.5733 -0.8136 -0.1387
  361MOL0     N48652   8.365   8.287   9.953 -0.3525  0.3609 -0.1336
  361MOL0     C48653   7.831   7.603  10.719  1.0041 -0.2869  0.5507
  361MOL0     C48654   7.805   7.548  10.846  0.0793 -0.0953 -0.0440
  361MOL0     C48655   7.908   7.392  11.267  0.6974 -0.5026  0.1006
  361MOL0     C48656   7.919   7.473  11.382  0.2116  0.2792  0.4378
  361MOL0     C48657   7.904   7.413  11.517  1.0339 -0.0403 -0.0932
  361MOL0     C48658   7.870   7.277  11.521  0.6144  1.0596  0.2994
  361MOL0     O48659   7.876   7.207  11.639  0.1844  0.0353 -0.0119
  361MOL0     C48660   7.879   7.279  11.770  0.1157 -1.1072  0.3750
  361MOL0     C48661   7.757   7.359  11.809  0.6675  0.2919  0.2945
  361MOL0     C48662   7.621   7.293  11.768 -0.3640  0.0968 -0.3068
  361MOL0     C48663   7.503   7.388  11.814  0.6888  0.8311  0.0865
  361MOL0     C48664   7.507   7.391  11.959 -0.2921 -1.1384 -0.1832
  361MOL0     C48665   7.495   7.425  12.074  0.3036 -0.1610 -0.8462
  361MOL0     C48666   7.847   7.205  11.402  0.2737 -1.4770 -0.2005
  361MOL0     C48667   7.873   7.258  11.274 -0.1903  0.2857 -0.5042
  361MOL0     H48668   8.079   7.351  10.861 -0.0889  1.1576 -1.6410
  361MOL0     H48669   8.128   7.438  10.655  1.9511 -0.3470  2.5685
  361MOL0     H48670   8.143   7.671  10.519 -2.6195  2.1119 -0.0008
  361MOL0     H48671   8.101   7.543  10.401  1.7554  1.7015 -1.8831
  361MOL0     H48672   7.981   7.702  10.270 -0.1860 -0.8782  0.9605
  361MOL0     H48673   8.055   7.835  10.367  3.5949  0.3399  1.9092
  361MOL0     H48674   8.282   7.727  10.329  0.2337  2.1317 -0.0758
  361MOL0     H48675   8.216   7.646  10.184 -1.6278  0.4077 -1.3544
  361MOL0     H48676   8.138   7.860  10.110 -1.6206 -3.0002  2.2117
  361MOL0     H48677   8.206   7.944  10.250 -0.5549 -1.7890  2.3134
  361MOL0     H48678   8.427   7.842  10.185 -1.9926 -1.8885  0.2348
  361MOL0     H48679   8.364   7.796  10.024  1.8853 -0.3334 -0.3249
  361MOL0     H48680   8.289   8.050  10.020  0.1006  2.8608  0.2540
  361MOL0     H48681   8.416   8.059  10.151 -0.0384  0.2723 -0.5375
  361MOL0     H48682   8.560   7.943   9.984 -1.9859 -0.1290  1.8866
  361MOL0     H48683   8.463   8.008   9.853  0.3202 -0.2431  0.1416
  361MOL0     H48684   8.672   8.154   9.912 -1.4908 -0.9954 -3.9445
  361MOL0     H48685   8.598   8.164  10.075  0.4902 -1.0475 -0.6474
  361MOL0     H48686   8.629   8.411   9.820  3.1068 -1.6883  4.6580
  361MOL0     H48687   8.511   8.618   9.732 -2.4059 -0.9654 -2.4828
  361MOL0     H48688   8.328   8.611   9.749 -1.6927  1.0468  1.0221
  361MOL0     H48689   8.469   8.814   9.864 -2.1478  2.0717 -0.1619
  361MOL0     H48690   8.510   8.688   9.989  1.8894 -1.4828 -2.1995
  361MOL0     H48691   8.221   8.705   9.921  0.9427 -2.5372 -1.5414
  361MOL0     H48692   8.292   8.850   9.995  0.1859 -0.2726  0.7364
  361MOL0     H48693   8.406   8.668  10.170 -1.1045  3.0446 -0.4809
  361MOL0     H48694   8.267   8.562  10.110 -0.1779 -0.0023 -1.9756
  361MOL0     H48695   8.026   8.879  10.328  1.0637 -1.4213  2.2195
  361MOL0     H48696   7.835   8.939  10.403  1.0566  0.4818 -2.7583
  361MOL0     H48697   7.694   8.922  10.291 -1.2869 -1.0823  1.5643
  361MOL0     H48698   7.700   8.819  10.426 -1.2663  0.9768  1.2048
  361MOL0     H48699   7.475   8.612  10.473 -0.1248  1.0099  0.5917
  361MOL0     H48700   7.246   8.531  10.515 -2.3406 -0.5195 -0.3965
  361MOL0     H48701   6.917   8.608  10.457  0.2972 -2.6699  0.1367
  361MOL0     H48702   7.005   8.724  10.348 -0.5872 -0.0340  0.8132
  361MOL0     H48703   6.767   8.696  10.297  2.0024  1.7271  0.1084
  361MOL0     H48704   6.872   8.639  10.165  0.6734  1.2461  0.3301
  361MOL0     H48705   6.723   8.484  10.380  0.5888 -1.4115 -0.0305
  361MOL0     H48706   6.831   8.404  10.262 -1.7217 -1.3781 -2.8785
  361MOL0     H48707   6.557   8.556  10.227  2.7441  2.1397  2.1062
  361MOL0     H48708   6.668   8.546  10.086  2.7404  0.7624  1.6919
  361MOL0     H48709   6.495   8.389  10.077 -0.1289  1.1572 -1.6636
  361MOL0     H48710   6.537   8.307  10.230  0.6159  1.6786  1.0169
  361MOL0     H48711   6.722   8.340   9.981 -1.4991 -0.8408 -0.4698
  361MOL0     H48712   6.755   8.238  10.120  4.2722  0.8246 -3.2550
  361MOL0     H48713   6.510   8.204   9.926  0.3466  1.3022  0.0176
  361MOL0     H48714   6.559   8.098  10.053 -0.3716  1.1745  1.5831
  361MOL0     H48715   6.692   8.139   9.778 -0.3314 -1.4076 -1.0683
  361MOL0     H48716   6.640   7.993   9.837  0.4984  0.6611 -1.9691
  361MOL0     H48717   7.144   8.648  10.110  2.7923 -0.8762 -1.9847
  361MOL0     H48718   7.374   8.705  10.065  1.3287 -0.4887 -0.7622
  361MOL0     H48719   7.837   8.528  10.045 -1.5429 -0.0398  2.6516
  361MOL0     H48720   8.070   8.525  10.072 -0.3700 -2.5532  2.9148
  361MOL0     H48721   7.752   7.666  10.679  1.9868 -0.4295 -1.7381
  361MOL0     H48722   7.712   7.576  10.895 -0.7510 -1.5778 -0.7070
  361MOL0     H48723   7.961   7.573  11.380  3.1073 -0.7905  1.7046
  361MOL0     H48724   7.924   7.475  11.604  3.9487 -1.2053  0.1716
  361MOL0     H48725   7.902   7.213  11.854  0.6495 -2.5291 -0.8480
  361MOL0     H48726   7.960   7.352  11.769  2.3681 -3.4261 -2.0846
  361MOL0     H48727   7.749   7.455  11.757 -1.1202 -0.3362 -0.7192
  361MOL0     H48728   7.757   7.382  11.915 -2.3416 -2.2965  1.0213
  361MOL0     H48729   7.623   7.186  11.788  0.2290  0.0054 -0.8310
  361MOL0     H48730   7.609   7.306  11.660 -0.6201 -1.2076 -0.4521
  361MOL0     H48731   7.402   7.356  11.788  0.8597 -0.2028  0.6673
  361MOL0     H48732   7.514   7.490  11.774 -0.9718  1.4406  1.0655
  361MOL0     H48733   7.500   7.455  12.177 -0.7272 -2.2377 -0.1140
  361MOL0     H48734   7.827   7.099  11.413 -1.4448 -1.1039  0.5927
  361MOL0     H48735   7.861   7.199  11.184  0.8838 -0.5804 -0.1070
  362MOL0     O48736   1.078   5.300   3.184  0.9546  0.6174 -0.1556
  362MOL0     C48737   1.123   5.397   3.130  0.0302 -0.0183  0.0082
  362MOL0     O48738   1.137   5.412   2.993 -0.1647  0.8888  0.3121
  362MOL0     C48739   1.113   5.304   2.919  1.1320 -0.4727  0.0795
  362MOL0     C48740   0.991   5.287   2.859  0.2847 -0.2645 -0.4608
  362MOL0     C48741   0.941   5.176   2.787  0.0264 -0.4170 -0.0927
  362MOL0     C48742   1.030   5.075   2.768  0.0677  0.1066  0.1153
  362MOL0     O48743   0.997   4.974   2.687  0.0539  0.3608  0.0988
  362MOL0     C48744   0.913   4.873   2.747  0.4638  1.0700  0.2114
  362MOL0     C48745   0.855   4.791   2.631  0.0828  0.4761  0.6426
  362MOL0     C48746   0.816   4.654   2.659 -0.0713  0.6616 -0.0670
  362MOL0     C48747   0.788   4.589   2.521  0.0961 -0.0705 -0.5348
  362MOL0     C48748   0.742   4.441   2.527 -0.6807  0.6798 -0.5671
  362MOL0     C48749   0.651   4.400   2.647 -0.1269 -0.6660 -0.6892
  362MOL0     C48750   0.525   4.484   2.650 -0.2735 -0.5627 -0.2102
  362MOL0     C48751   0.446   4.434   2.768  1.3397 -0.3403  0.1642
  362MOL0     N48752   0.318   4.504   2.799 -0.2599  0.2009  0.1139
  362MOL0     C48753   0.306   4.581   2.903 -0.5628 -0.6237 -0.0590
  362MOL0     C48754   0.180   4.619   2.913  0.1934 -0.5601 -0.1434
  362MOL0     C48755   0.119   4.708   3.014  0.6145  0.1045  1.0454
  362MOL0     C48756   0.054   4.629   3.128  0.0730  0.6001 -0.3343
  362MOL0     C48757  -0.100   4.638   3.144 -0.0332  0.5670 -0.2090
  362MOL0     C48758  -0.161   4.567   3.026  0.3263  0.4328 -0.1846
  362MOL0     O48759  -0.301   4.580   3.033  0.2112 -0.2331 -0.8421
  362MOL0     C48760  -0.385   4.542   2.926 -0.0964  0.1154  0.3236
  362MOL0     C48761  -0.516   4.554   2.943  0.3025  0.8743  1.0773
  362MOL0     C48762  -0.607   4.491   2.852 -0.3315 -0.6191  0.2957
  362MOL0     C48763  -0.758   4.496   2.878  0.4167  0.3109 -0.0442
  362MOL0     C48764  -0.557   4.430   2.726 -0.3206  0.6109 -1.3985
  362MOL0     C48765  -0.646   4.370   2.625 -0.9871  0.1982 -0.5119
  362MOL0     O48766  -0.600   4.358   2.498 -0.3677 -0.5218  0.0399
  362MOL0     C48767  -0.668   4.300   2.396 -0.0192  0.7575  0.4106
  362MOL0     C48768  -0.806   4.299   2.357 -0.5283 -0.3586 -0.4502
  362MOL0     C48769  -0.849   4.230   2.245  0.6319 -0.0864  0.8616
  362MOL0     C48770  -0.763   4.174   2.157  0.9710 -0.0929 -0.0122
  362MOL0     O48771  -0.829   4.114   2.050  0.2305  0.9582 -0.7026
  362MOL0     C48772  -0.745   4.096   1.938 -0.0340  0.0555  0.8779
  362MOL0     C48773  -0.706   4.226   1.873  0.5653  0.2611  0.9576
  362MOL0     C48774  -0.574   4.224   1.796  0.1846 -0.5710  0.0437
  362MOL0     C48775  -0.462   4.321   1.855 -0.4281  0.2801 -0.4166
  362MOL0     C48776  -0.342   4.330   1.750  0.0811  0.0022  0.4120
  362MOL0     C48777  -0.253   4.208   1.754  0.1573  0.2063  0.7323
  362MOL0     C48778  -0.160   4.207   1.633  0.2998 -0.2423 -0.2683
  362MOL0     C48779  -0.222   4.132   1.508 -0.9465  0.0832  0.2274
  362MOL0    Cl48780  -0.152   3.970   1.489  0.1413 -0.0779  0.0928
  362MOL0     C48781  -0.626   4.169   2.188 -0.4205  0.2784  0.7639
  362MOL0     C48782  -0.583   4.230   2.312  0.3847  0.1534  0.3222
  362MOL0     O48783  -0.753   4.312   2.658 -0.3867 -0.3908  0.0321
  362MOL0     C48784  -0.416   4.436   2.715 -0.0346 -0.1849  0.9877
  362MOL0     C48785  -0.331   4.489   2.810  0.4215 -0.6502  0.0840
  362MOL0     N48786   0.118   4.554   2.813  0.8046 -0.4703  0.5902
  362MOL0     N48787   0.195   4.486   2.745 -0.6592 -0.1964 -0.2832
  362MOL0     C48788   1.156   5.085   2.824  0.9398 -1.0410 -0.6854
  362MOL0     C48789   1.205   5.202   2.900 -0.5018 -0.7980  0.1838
  362MOL0     C48790   1.176   5.514   3.208  0.0747 -0.2630 -0.3303
  362MOL0     C48791   1.166   5.519   3.353  0.1611 -0.1519 -0.1532
  362MOL0     C48792   1.207   5.628   3.428  0.1099  0.3942 -0.1436
  362MOL0     C48793   1.254   5.744   3.371 -1.0448 -0.1402  0.0577
  362MOL0     O48794   1.308   5.844   3.453 -0.3351  0.1074 -0.1440
  362MOL0     C48795   1.346   5.958   3.374  0.1692 -0.4081 -0.0844
  362MOL0     C48796   1.402   6.061   3.473 -0.0308 -0.4225 -0.4418
  362MOL0     C48797   1.292   6.101   3.577  1.2439  0.1738  0.0231
  362MOL0     C48798   1.340   6.155   3.719 -0.5678  0.0910 -0.7068
  362MOL0     C48799   1.404   6.286   3.714 -0.1579  1.1359 -0.2066
  362MOL0     C48800   1.436   6.402   3.699 -0.2389 -0.1927  0.2776
  362MOL0     C48801   1.255   5.738   3.223 -0.2148  0.0581 -0.9377
  362MOL0     C48802   1.233   5.627   3.146  0.0649  1.1420  0.1595
  362MOL0     H48803   0.913   5.360   2.882  0.9911  0.2425  0.3991
  362MOL0     H48804   0.838   5.180   2.754  0.3982  2.9016 -1.1879
  362MOL0     H48805   0.981   4.808   2.802  0.6239 -0.6147 -1.8277
  362MOL0     H48806   0.826   4.898   2.807  1.0383  1.4014  0.9206
  362MOL0     H48807   0.772   4.852   2.595  1.2949  0.6872 -1.9716
  362MOL0     H48808   0.923   4.779   2.547 -1.1309  0.1741 -0.3260
  362MOL0     H48809   0.907   4.615   2.706 -0.2312 -2.7277 -2.2124
  362MOL0     H48810   0.724   4.639   2.716 -1.1601 -1.2800 -2.1729
  362MOL0     H48811   0.709   4.642   2.468 -1.7452 -0.5955  1.5315
  362MOL0     H48812   0.877   4.600   2.458 -0.0759 -1.2386 -1.0050
  362MOL0     H48813   0.704   4.412   2.428  0.5028  0.2408 -0.9209
  362MOL0     H48814   0.831   4.377   2.535 -0.3909  0.9783 -1.2785
  362MOL0     H48815   0.634   4.292   2.654 -1.1336 -0.4406  0.9882
  362MOL0     H48816   0.710   4.428   2.735 -1.8829  0.8682  0.0645
  362MOL0     H48817   0.530   4.593   2.659  5.3576 -0.4547 -1.1122
  362MOL0     H48818   0.471   4.460   2.558  1.5658 -1.9068 -1.0005
  362MOL0     H48819   0.506   4.419   2.859  2.1117 -3.2227 -0.7091
  362MOL0     H48820   0.410   4.335   2.738  0.7506  0.1790 -0.8695
  362MOL0     H48821   0.385   4.627   2.962 -0.3488  2.6588 -2.6078
  362MOL0     H48822   0.193   4.785   3.037  2.6575 -0.7709 -2.1378
  362MOL0     H48823   0.032   4.766   2.982  1.1582  0.2871 -0.1523
  362MOL0     H48824   0.105   4.683   3.209  1.7780 -1.4780  0.0709
  362MOL0     H48825   0.092   4.527   3.132 -3.7510 -1.1949 -3.6695
  362MOL0     H48826  -0.129   4.742   3.161  0.1928  0.7752 -1.0433
  362MOL0     H48827  -0.140   4.586   3.231 -0.9333 -1.3791 -1.7203
  362MOL0     H48828  -0.144   4.461   3.047 -0.0522  0.5632  0.8573
  362MOL0     H48829  -0.122   4.613   2.935  0.7576 -1.4633 -0.9935
  362MOL0     H48830  -0.553   4.601   3.033  2.4391  0.9302  1.9846
  362MOL0     H48831  -0.795   4.398   2.909  2.4355  1.0889  6.1092
  362MOL0     H48832  -0.786   4.566   2.957  0.8849  0.3087  0.1255
  362MOL0     H48833  -0.817   4.513   2.788  0.7960 -2.5954 -0.9431
  362MOL0     H48834  -0.875   4.346   2.427 -0.9141 -1.4137 -0.0993
  362MOL0     H48835  -0.952   4.210   2.218  1.4930 -2.2520 -1.1501
  362MOL0     H48836  -0.663   4.028   1.960 -1.0550 -1.4286  0.2846
  362MOL0     H48837  -0.810   4.047   1.865 -0.0639 -1.2524  1.7467
  362MOL0     H48838  -0.787   4.252   1.805  0.6150 -1.7589  0.0508
  362MOL0     H48839  -0.711   4.304   1.950  1.7400  0.0695  1.2495
  362MOL0     H48840  -0.603   4.260   1.697  0.0152  1.2912  0.7229
  362MOL0     H48841  -0.526   4.126   1.796 -1.3739 -1.4115  2.2203
  362MOL0     H48842  -0.498   4.422   1.878 -0.9761 -0.3372  1.6320
  362MOL0     H48843  -0.430   4.283   1.953 -1.8297 -1.0797 -0.4465
  362MOL0     H48844  -0.272   4.410   1.777  3.3540 -1.4951 -2.8665
  362MOL0     H48845  -0.381   4.344   1.649  4.4570 -1.8089 -1.7846
  362MOL0     H48846  -0.186   4.211   1.840  1.7042  0.6596 -0.4396
  362MOL0     H48847  -0.308   4.114   1.759  0.3752  0.1289  1.8545
  362MOL0     H48848  -0.062   4.167   1.661  0.4531  0.1902 -0.1842
  362MOL0     H48849  -0.134   4.308   1.600  2.4810  0.4079  3.0067
  362MOL0     H48850  -0.213   4.190   1.416 -2.8453 -0.3596 -0.2673
  362MOL0     H48851  -0.328   4.136   1.533 -0.5122 -0.4181  2.3555
  362MOL0     H48852  -0.553   4.126   2.121  0.4031 -0.3591  2.0225
  362MOL0     H48853  -0.475   4.231   2.327  0.2378  0.6658  1.4525
  362MOL0     H48854  -0.367   4.416   2.620  1.2867  1.3202  1.3014
  362MOL0     H48855  -0.223   4.498   2.800  0.9128 -4.1821  0.9860
  362MOL0     H48856   1.241   5.019   2.812  2.6514  0.9135  0.0192
  362MOL0     H48857   1.297   5.227   2.951 -0.5830 -0.7967  0.3301
  362MOL0     H48858   1.105   5.440   3.395  0.8413 -1.1879 -1.0427
  362MOL0     H48859   1.193   5.622   3.535 -1.5461  4.4857  0.0417
  362MOL0     H48860   1.413   5.945   3.289  1.3672  2.0063  0.4086
  362MOL0     H48861   1.251   6.006   3.348 -0.6680 -1.9735  0.0018
  362MOL0     H48862   1.428   6.158   3.428  0.0182  0.0577  0.5769
  362MOL0     H48863   1.491   6.018   3.520  1.2334  0.1310 -2.2061
  362MOL0     H48864   1.217   6.025   3.603 -2.1125  2.7385 -1.4222
  362MOL0     H48865   1.240   6.186   3.531  1.0577  0.4620  0.7525
  362MOL0     H48866   1.412   6.086   3.764 -0.8093 -0.4399 -1.1081
  362MOL0     H48867   1.259   6.158   3.792 -0.5708  1.7958 -0.7503
  362MOL0     H48868   1.472   6.501   3.681  0.1752 -0.7654 -2.3834
  362MOL0     H48869   1.307   5.814   3.165  0.2194  0.2613 -0.2954
  362MOL0     H48870   1.244   5.642   3.039  1.0439  2.2916  0.3935
  363MOL0     O48871   9.934   3.006   3.174  0.1675 -0.2838 -0.3085
  363MOL0     C48872  10.006   3.103   3.201 -0.0530  0.4684 -0.1614
  363MOL0     O48873   9.997   3.229   3.142 -0.0115 -0.3163 -0.5651
  363MOL0     C48874   9.925   3.262   3.035  1.0886 -0.5136  0.2101
  363MOL0     C48875   9.973   3.232   2.907  0.4948 -0.1827 -1.2022
  363MOL0     C48876   9.883   3.239   2.800  0.3305 -0.3021 -0.8546
  363MOL0     C48877   9.746   3.274   2.823 -0.4995 -0.6095 -0.2319
  363MOL0     O48878   9.649   3.283   2.728 -0.3309  0.5383 -0.0819
  363MOL0     C48879   9.676   3.233   2.600 -0.2229 -0.1496 -0.4519
  363MOL0     C48880   9.553   3.231   2.508 -1.0314  0.5869 -0.5582
  363MOL0     C48881   9.498   3.379   2.505 -0.7453  0.2289 -0.1633
  363MOL0     C48882   9.353   3.375   2.443  0.3038  0.2435 -0.5262
  363MOL0     C48883   9.341   3.326   2.297  0.0785  0.1619  0.1014
  363MOL0     C48884   9.372   3.447   2.201 -0.6103  0.3079 -0.8398
  363MOL0     C48885   9.512   3.430   2.151 -0.3889  1.7450  0.4577
  363MOL0     C48886   9.569   3.553   2.072 -0.3551  0.7459  0.2316
  363MOL0     N48887   9.713   3.560   2.055 -1.0092 -0.4127  0.5191
  363MOL0     C48888   9.784   3.502   1.950  0.4280 -0.0124 -0.3162
  363MOL0     C48889   9.912   3.542   1.971  0.4495  0.3074  0.4717
  363MOL0     C48890  10.034   3.518   1.891 -0.1104 -0.3701 -0.6715
  363MOL0     C48891  10.164   3.512   1.982 -0.9530 -0.9548  0.2694
  363MOL0     C48892  10.195   3.384   2.061  0.2897 -0.4992 -0.2993
  363MOL0     C48893  10.258   3.283   1.962  1.1983  0.7779  0.5934
  363MOL0     O48894  10.283   3.156   2.017 -0.0345 -0.8504 -0.7300
  363MOL0     C48895  10.403   3.125   2.073 -0.3442  0.6667  1.2377
  363MOL0     C48896  10.503   3.212   2.095  0.5194 -0.0657  0.3680
  363MOL0     C48897  10.621   3.182   2.155 -0.5279 -0.7094 -0.6805
  363MOL0     C48898  10.721   3.291   2.170  0.4673 -0.7424 -0.6805
  363MOL0     C48899  10.643   3.051   2.210 -0.6759  0.8394  0.2852
  363MOL0     C48900  10.766   3.010   2.282  0.0087 -0.4936  0.7242
  363MOL0     O48901  10.771   2.892   2.362  0.6695  0.1943 -0.3503
  363MOL0     C48902  10.890   2.829   2.381 -0.6052  0.3297 -1.6423
  363MOL0     C48903  10.905   2.699   2.338 -0.0548 -0.2305  0.5644
  363MOL0     C48904  11.029   2.634   2.357 -0.7207  0.2202  0.0215
  363MOL0     C48905  11.139   2.683   2.430  0.2579 -0.8373 -0.1916
  363MOL0     O48906  11.250   2.596   2.453 -0.1349 -0.3688 -0.4816
  363MOL0     C48907  11.353   2.640   2.541  0.1419  0.2520  0.4845
  363MOL0     C48908  11.474   2.546   2.540 -0.6103 -1.5760 -0.1612
  363MOL0     C48909  11.576   2.588   2.643  0.3776 -0.0652 -0.2925
  363MOL0     C48910  11.661   2.694   2.593  0.3240  0.4666  0.0428
  363MOL0     C48911  11.806   2.682   2.638 -0.2728 -0.5860 -0.6925
  363MOL0     C48912  11.887   2.800   2.584 -0.0471 -0.4402 -0.4681
  363MOL0     C48913  12.018   2.812   2.671  0.5886  1.4643 -0.9768
  363MOL0     C48914  12.143   2.839   2.585 -0.4256  0.0764 -0.0513
  363MOL0    Cl48915  12.114   2.966   2.456 -0.2630 -0.1975  0.0858
  363MOL0     C48916  11.118   2.813   2.482 -0.3396  0.8145  0.5044
  363MOL0     C48917  10.993   2.884   2.461 -0.5215 -1.1218  0.1456
  363MOL0     O48918  10.862   3.076   2.256  0.0700 -0.3930 -0.2832
  363MOL0     C48919  10.536   2.959   2.199 -0.3418 -0.7838  0.0524
  363MOL0     C48920  10.416   2.994   2.138  0.3563  0.0488  1.2603
  363MOL0     N48921   9.919   3.601   2.096  0.1925 -0.2242  0.9840
  363MOL0     N48922   9.801   3.635   2.133 -0.2806  0.8735 -0.5486
  363MOL0     C48923   9.708   3.318   2.947 -0.2907 -0.6270  0.3247
  363MOL0     C48924   9.792   3.304   3.058 -0.6955 -0.3005 -0.1578
  363MOL0     C48925  10.119   3.076   3.288 -0.7021 -0.7490  0.2343
  363MOL0     C48926  10.100   2.997   3.400  0.0013 -0.5311  1.0037
  363MOL0     C48927  10.201   2.987   3.500  0.3772  0.0913  0.0880
  363MOL0     C48928  10.319   3.060   3.487  0.3403 -0.2624 -0.2267
  363MOL0     O48929  10.406   3.055   3.590  0.3608  0.4591 -0.1164
  363MOL0     C48930  10.539   3.107   3.588 -0.2852 -0.8091  1.2539
  363MOL0     C48931  10.617   3.092   3.712  0.2195  0.3105  0.3388
  363MOL0     C48932  10.569   3.159   3.840  0.5670 -0.4787 -0.3010
  363MOL0     C48933  10.662   3.270   3.893 -0.0445 -0.1186 -0.7997
  363MOL0     C48934  10.668   3.394   3.809 -0.3565  0.7770 -1.1626
  363MOL0     C48935  10.663   3.494   3.737 -0.9054 -1.2409  0.4501
  363MOL0     C48936  10.349   3.138   3.373 -0.0397  0.1479 -0.2603
  363MOL0     C48937  10.247   3.147   3.281 -0.3364 -0.1210  0.4442
  363MOL0     H48938  10.075   3.202   2.886  0.9033 -0.7670  1.2956
  363MOL0     H48939   9.915   3.221   2.698 -2.9767 -0.4675 -1.9646
  363MOL0     H48940   9.761   3.293   2.566 -0.8013  1.3499  0.6992
  363MOL0     H48941   9.704   3.127   2.606 -1.1958 -0.3525  0.8329
  363MOL0     H48942   9.577   3.195   2.407 -0.8617 -1.6742  0.2131
  363MOL0     H48943   9.474   3.159   2.537  0.6883 -1.1142  0.1264
  363MOL0     H48944   9.489   3.422   2.605 -1.3235 -0.9479  0.3113
  363MOL0     H48945   9.566   3.442   2.448  2.3927 -5.7357 -4.1778
  363MOL0     H48946   9.302   3.317   2.520  0.5166  0.1729 -0.4364
  363MOL0     H48947   9.303   3.470   2.462 -4.0437 -1.7861 -0.7890
  363MOL0     H48948   9.401   3.236   2.284 -0.9259 -0.0887 -3.9944
  363MOL0     H48949   9.237   3.295   2.279  1.1002 -2.4455 -1.7890
  363MOL0     H48950   9.302   3.439   2.118 -0.4467  4.3462 -1.5708
  363MOL0     H48951   9.365   3.547   2.246 -1.1697  0.1345 -0.5354
  363MOL0     H48952   9.588   3.417   2.229 -0.3398  0.9355  0.2829
  363MOL0     H48953   9.511   3.349   2.077 -1.3402  3.6470 -1.7348
  363MOL0     H48954   9.530   3.641   2.125 -0.2630  0.5285  0.6671
  363MOL0     H48955   9.522   3.551   1.974  1.0127  2.6682 -0.5218
  363MOL0     H48956   9.751   3.426   1.880 -0.1589  0.3218 -0.4051
  363MOL0     H48957  10.025   3.429   1.829 -2.0034 -1.0603  0.4791
  363MOL0     H48958  10.055   3.588   1.810  0.4990 -1.3390 -1.3643
  363MOL0     H48959  10.170   3.601   2.045  0.9940 -1.7906  1.3776
  363MOL0     H48960  10.250   3.532   1.917 -2.1529 -2.0591 -1.7760
  363MOL0     H48961  10.093   3.362   2.096  0.1446  1.1907  0.4520
  363MOL0     H48962  10.270   3.403   2.138  2.3449 -3.7639 -1.2812
  363MOL0     H48963  10.341   3.335   1.914  2.3629  0.8197  2.5666
  363MOL0     H48964  10.188   3.255   1.882  3.5954  1.3573 -1.8409
  363MOL0     H48965  10.498   3.316   2.064  1.6733  0.5418  2.0608
  363MOL0     H48966  10.801   3.264   2.101 -0.2708 -2.3390 -0.9378
  363MOL0     H48967  10.691   3.393   2.143  3.1181  0.7702  1.5560
  363MOL0     H48968  10.763   3.288   2.271  1.6436  0.1997 -1.1108
  363MOL0     H48969  10.834   2.653   2.271 -0.8877  2.6559 -0.6476
  363MOL0     H48970  11.056   2.542   2.307 -0.9958  0.2511 -0.1883
  363MOL0     H48971  11.379   2.745   2.523 -1.1197  0.3480 -0.9885
  363MOL0     H48972  11.298   2.621   2.634 -3.4881 -3.0894 -2.0394
  363MOL0     H48973  11.447   2.448   2.582 -2.0286 -1.1659 -0.0457
  363MOL0     H48974  11.529   2.540   2.446 -0.8950  2.9231 -0.8245
  363MOL0     H48975  11.639   2.499   2.645 -1.8759 -1.8940 -3.0247
  363MOL0     H48976  11.537   2.600   2.744  1.9019  3.1296  0.0263
  363MOL0     H48977  11.655   2.706   2.484  1.4703 -1.4279 -0.2667
  363MOL0     H48978  11.629   2.789   2.638 -2.9828 -0.7334  0.4961
  363MOL0     H48979  11.844   2.582   2.613 -1.8521 -0.9676 -1.7187
  363MOL0     H48980  11.815   2.693   2.746  0.9640  1.3386 -0.9485
  363MOL0     H48981  11.923   2.775   2.484 -0.2077  1.2080 -0.9769
  363MOL0     H48982  11.833   2.894   2.570 -1.2653 -1.2174 -1.1016
  363MOL0     H48983  12.037   2.715   2.718 -2.0030  1.2111 -0.2931
  363MOL0     H48984  12.012   2.884   2.753 -0.3050 -0.3463  0.6404
  363MOL0     H48985  12.166   2.747   2.530  0.2613 -0.2773  0.8075
  363MOL0     H48986  12.231   2.852   2.648  1.3769  0.1011 -2.4232
  363MOL0     H48987  11.197   2.848   2.548  0.9177 -1.2918  0.2008
  363MOL0     H48988  10.989   2.987   2.493  3.3852 -0.1261 -1.9655
  363MOL0     H48989  10.548   2.853   2.218 -1.0588 -0.6457  1.4390
  363MOL0     H48990  10.344   2.915   2.122  1.9555 -1.3076  0.4088
  363MOL0     H48991   9.601   3.339   2.950 -0.1914 -0.2161  1.5155
  363MOL0     H48992   9.751   3.311   3.158  0.5371 -3.9069  0.7447
  363MOL0     H48993  10.002   2.957   3.421 -0.3177  0.6632  1.8788
  363MOL0     H48994  10.170   2.932   3.589 -0.9920 -0.0522 -0.4448
  363MOL0     H48995  10.593   3.059   3.506 -1.9303 -0.3798 -0.1391
  363MOL0     H48996  10.534   3.214   3.562 -0.4453 -0.2353  3.4402
  363MOL0     H48997  10.710   3.136   3.677 -0.8292  0.7600 -2.0815
  363MOL0     H48998  10.633   2.986   3.735 -1.2901 -0.2421 -0.9185
  363MOL0     H48999  10.566   3.075   3.909  2.3296 -1.4962 -1.4144
  363MOL0     H49000  10.469   3.205   3.841 -0.1213 -1.6937  3.7777
  363MOL0     H49001  10.767   3.240   3.898 -0.0031  0.2192  1.4482
  363MOL0     H49002  10.659   3.297   3.999  0.4299 -0.1018 -0.7906
  363MOL0     H49003  10.650   3.589   3.688 -1.0156 -0.4282  2.0016
  363MOL0     H49004  10.446   3.185   3.363  0.1690  0.0997  1.3446
  363MOL0     H49005  10.270   3.221   3.205  2.9373 -1.3949  0.0410
  364MOL0     O49006   3.966   8.442   2.910 -0.4980 -0.3776 -0.6890
  364MOL0     C49007   3.927   8.545   2.850 -0.1599 -0.1305 -2.0737
  364MOL0     O49008   3.817   8.556   2.760  0.2079 -0.3361 -0.0504
  364MOL0     C49009   3.730   8.453   2.754 -1.1130  0.7892  0.7901
  364MOL0     C49010   3.694   8.403   2.628  0.6152  0.1824 -0.5517
  364MOL0     C49011   3.586   8.322   2.622  0.4855 -0.1074 -0.4732
  364MOL0     C49012   3.521   8.278   2.740  0.8271  0.8807 -0.4817
  364MOL0     O49013   3.418   8.182   2.748  0.1641  0.1159 -0.4248
  364MOL0     C49014   3.472   8.050   2.709  0.3620 -0.7866  0.3467
  364MOL0     C49015   3.369   7.961   2.635 -0.4380  0.3623  0.0469
  364MOL0     C49016   3.309   8.020   2.508 -0.1981  0.0138  0.1604
  364MOL0     C49017   3.240   7.917   2.408  0.2727 -0.6151 -0.4207
  364MOL0     C49018   3.246   7.974   2.261 -0.8023  1.0211  0.5224
  364MOL0     C49019   3.153   8.081   2.208  0.7930  0.0982 -1.0023
  364MOL0     C49020   3.063   8.041   2.094  0.4692  0.9694 -0.5266
  364MOL0     C49021   3.131   8.003   1.962  0.3532  0.8655 -1.0010
  364MOL0     N49022   3.037   7.930   1.869  0.2913  0.4112  0.1496
  364MOL0     C49023   3.056   7.815   1.809  0.1732  0.7763  0.0282
  364MOL0     C49024   2.959   7.805   1.711  0.1725 -0.4200 -0.1519
  364MOL0     C49025   2.932   7.696   1.620  1.3833 -0.8831 -0.2205
  364MOL0     C49026   3.056   7.608   1.598  0.2053 -0.3252  0.1619
  364MOL0     C49027   3.011   7.481   1.522  0.5274  1.1187 -0.2747
  364MOL0     C49028   3.109   7.357   1.548  0.6005 -0.1062 -0.2840
  364MOL0     O49029   3.144   7.352   1.693  0.0643 -0.2527 -0.8092
  364MOL0     C49030   3.134   7.231   1.744  0.2814 -0.3206 -0.8107
  364MOL0     C49031   3.253   7.170   1.779 -0.0180 -0.4348  0.3430
  364MOL0     C49032   3.263   7.036   1.821  0.5684 -0.8558  0.1140
  364MOL0     C49033   3.398   6.980   1.852  0.2217  0.1038 -0.6066
  364MOL0     C49034   3.144   6.951   1.839  0.1139 -0.2887 -0.3737
  364MOL0     C49035   3.143   6.815   1.900 -0.2636 -0.3873  0.7376
  364MOL0     O49036   3.059   6.731   1.834 -0.4727  0.0364 -0.1092
  364MOL0     C49037   3.071   6.599   1.848  0.5105  0.4112 -0.0163
  364MOL0     C49038   3.066   6.508   1.741 -0.8881  1.3315 -0.4710
  364MOL0     C49039   3.044   6.361   1.756 -0.5070 -0.4519  0.0896
  364MOL0     C49040   3.035   6.310   1.890 -0.4492  0.6140 -0.7401
  364MOL0     O49041   2.989   6.180   1.890 -0.5605 -0.0668  0.4289
  364MOL0     C49042   3.045   6.102   1.986  0.4029  0.0631  0.4201
  364MOL0     C49043   3.133   6.008   1.908 -0.4075 -0.1703  0.0496
  364MOL0     C49044   3.208   5.922   2.008  0.2460  0.6266  0.1349
  364MOL0     C49045   3.322   5.973   2.106  0.4993  0.2125  0.7003
  364MOL0     C49046   3.408   5.853   2.160  0.0142 -0.0856 -0.5236
  364MOL0     C49047   3.335   5.767   2.261 -0.5375  1.0568 -0.3767
  364MOL0     C49048   3.291   5.817   2.399 -0.1528  0.2258  1.0645
  364MOL0     C49049   3.272   5.707   2.499 -0.2736 -0.0455 -1.0943
  364MOL0    Cl49050   3.440   5.652   2.550  0.5675  0.1507  0.0168
  364MOL0     C49051   3.020   6.400   1.999 -0.1386 -0.2380 -0.1470
  364MOL0     C49052   3.035   6.542   1.971 -0.0214  0.4550  0.0025
  364MOL0     O49053   3.210   6.788   1.999 -0.0841 -0.4453  0.3092
  364MOL0     C49054   3.028   7.015   1.798 -0.9456 -0.2206 -0.3927
  364MOL0     C49055   3.021   7.146   1.743  0.2009  0.0025 -0.1660
  364MOL0     N49056   2.883   7.920   1.716 -1.0701  0.0835  0.7075
  364MOL0     N49057   2.921   7.987   1.818  0.6402  0.3368  0.7146
  364MOL0     C49058   3.559   8.326   2.862 -0.6990  0.3941  0.0181
  364MOL0     C49059   3.672   8.402   2.867 -0.0020  0.0140  0.3833
  364MOL0     C49060   4.021   8.662   2.859 -0.2120  0.6373  0.6788
  364MOL0     C49061   4.142   8.653   2.924  0.4206  0.3764  0.6467
  364MOL0     C49062   4.213   8.768   2.952 -1.0697 -0.1436  0.0676
  364MOL0     C49063   4.179   8.887   2.904 -0.4793 -0.7507  0.3227
  364MOL0     O49064   4.256   9.004   2.926 -0.3853 -1.0094  0.3264
  364MOL0     C49065   4.233   9.072   3.047 -0.1019  0.5170 -0.4092
  364MOL0     C49066   4.083   9.131   3.064 -0.7467 -0.5651 -0.3045
  364MOL0     C49067   4.068   9.265   2.988  0.9528 -0.5706  0.0888
  364MOL0     C49068   3.998   9.251   2.854 -0.0183  0.0141 -0.0587
  364MOL0     C49069   3.864   9.191   2.849 -0.0583 -0.2827 -0.1224
  364MOL0     C49070   3.766   9.126   2.834 -0.5975  0.5196 -0.5574
  364MOL0     C49071   4.068   8.895   2.826  0.3287  1.1401 -0.0183
  364MOL0     C49072   3.984   8.788   2.806 -0.7643 -0.0496  0.0827
  364MOL0     H49073   3.743   8.451   2.544  3.6539  0.0337  0.9945
  364MOL0     H49074   3.538   8.297   2.528  1.7544 -2.7711 -0.5115
  364MOL0     H49075   3.547   8.063   2.631 -1.4401  2.5532 -1.0479
  364MOL0     H49076   3.514   7.999   2.796  1.4852  0.0974  0.3499
  364MOL0     H49077   3.406   7.861   2.614 -0.5009  0.3235  0.1182
  364MOL0     H49078   3.282   7.953   2.701 -0.4117  1.5743  0.2521
  364MOL0     H49079   3.233   8.097   2.529 -1.8887 -1.0329 -1.7324
  364MOL0     H49080   3.400   8.054   2.458 -0.5701 -0.4471 -0.8434
  364MOL0     H49081   3.290   7.821   2.420 -0.7235 -1.0936  0.1088
  364MOL0     H49082   3.140   7.879   2.430  0.0251  0.1588 -0.1602
  364MOL0     H49083   3.351   7.986   2.229 -0.3633 -1.4456  0.8726
  364MOL0     H49084   3.219   7.891   2.195  0.6049  1.7756 -1.1260
  364MOL0     H49085   3.094   8.114   2.295  1.1366 -1.7833  0.0031
  364MOL0     H49086   3.207   8.171   2.179  2.3676 -1.1006 -1.9311
  364MOL0     H49087   2.997   7.960   2.126  1.7632  0.3234  0.5879
  364MOL0     H49088   2.993   8.121   2.068 -0.7493 -0.4254 -1.7249
  364MOL0     H49089   3.217   7.939   1.986  2.8040  4.7452  1.6384
  364MOL0     H49090   3.180   8.094   1.928  3.4962  1.9267  4.9601
  364MOL0     H49091   3.144   7.754   1.826 -0.7655 -0.8262 -0.6535
  364MOL0     H49092   2.859   7.634   1.673  0.5621 -1.3144 -1.7902
  364MOL0     H49093   2.885   7.724   1.525 -1.2466  1.9635  1.7216
  364MOL0     H49094   3.097   7.584   1.697  1.2049 -2.4122 -0.7046
  364MOL0     H49095   3.131   7.679   1.563 -1.5996  2.8553  2.2683
  364MOL0     H49096   2.994   7.494   1.415 -0.0894 -1.5034 -0.5826
  364MOL0     H49097   2.912   7.444   1.550 -0.1710  1.4062 -2.1844
  364MOL0     H49098   3.198   7.383   1.490  1.1371  1.1381  1.0210
  364MOL0     H49099   3.066   7.262   1.515  0.2699 -0.0442 -0.0316
  364MOL0     H49100   3.339   7.236   1.784  0.6756 -1.2917 -0.0389
  364MOL0     H49101   3.470   7.056   1.819  0.6729 -0.2093 -0.3497
  364MOL0     H49102   3.401   6.979   1.962 -2.6472  2.8613 -0.3276
  364MOL0     H49103   3.421   6.886   1.803  1.0074  1.0247 -2.0919
  364MOL0     H49104   3.078   6.555   1.644 -2.6802  1.9551 -0.4355
  364MOL0     H49105   3.033   6.288   1.677 -2.6108 -0.2045  0.1076
  364MOL0     H49106   3.092   6.146   2.074 -0.2196 -0.8210  1.2268
  364MOL0     H49107   2.970   6.035   2.029  1.3059 -1.5041 -0.3269
  364MOL0     H49108   3.069   5.955   1.838 -0.3010  0.2951 -0.4036
  364MOL0     H49109   3.203   6.068   1.849 -0.6989 -0.6125 -0.7560
  364MOL0     H49110   3.253   5.846   1.943  0.0847 -2.1213  2.9823
  364MOL0     H49111   3.136   5.867   2.070 -2.2205  0.5688 -2.5735
  364MOL0     H49112   3.388   6.046   2.057 -0.9904  0.1996 -1.4670
  364MOL0     H49113   3.269   6.032   2.181  2.2154  0.9838  1.3736
  364MOL0     H49114   3.494   5.885   2.220  0.2257 -1.4546 -0.0439
  364MOL0     H49115   3.445   5.796   2.074 -1.7029  1.0231 -2.0788
  364MOL0     H49116   3.252   5.715   2.213  0.5457  0.6702 -1.9018
  364MOL0     H49117   3.409   5.690   2.281 -1.3875 -0.3785 -2.4938
  364MOL0     H49118   3.195   5.867   2.390 -0.9745 -1.0349  2.4045
  364MOL0     H49119   3.368   5.877   2.448  0.5034 -0.8021  1.3258
  364MOL0     H49120   3.218   5.619   2.463 -2.5178 -0.0894  2.0519
  364MOL0     H49121   3.217   5.739   2.588  0.5735  0.6819 -0.8158
  364MOL0     H49122   2.983   6.368   2.096  1.8948  1.2206  1.1943
  364MOL0     H49123   3.034   6.613   2.053 -1.4290 -0.1525  0.5530
  364MOL0     H49124   2.937   6.959   1.778 -0.2623 -1.5680  0.1702
  364MOL0     H49125   2.930   7.196   1.710 -0.5829  1.7016  3.9564
  364MOL0     H49126   3.509   8.288   2.951 -0.2167  0.4611  0.3198
  364MOL0     H49127   3.696   8.452   2.960  3.3094  0.2180 -0.4715
  364MOL0     H49128   4.188   8.558   2.950 -0.6084 -0.8892 -1.7849
  364MOL0     H49129   4.314   8.760   2.990 -0.1823  4.8475 -0.5045
  364MOL0     H49130   4.243   8.986   3.115 -0.3661 -2.9205 -4.2962
  364MOL0     H49131   4.309   9.150   3.056  0.9685 -0.4839 -0.5149
  364MOL0     H49132   4.097   9.166   3.167  4.1576 -1.6028 -0.3462
  364MOL0     H49133   4.016   9.046   3.048  0.4517 -1.5476 -0.2561
  364MOL0     H49134   4.169   9.304   2.975  1.7386 -2.8228 -1.2606
  364MOL0     H49135   4.007   9.333   3.048 -0.4413 -2.0268  0.4058
  364MOL0     H49136   4.061   9.207   2.777  2.3599  3.8544 -0.5825
  364MOL0     H49137   3.996   9.356   2.822  2.5055  0.4027  0.8424
  364MOL0     H49138   3.674   9.073   2.830  0.3799 -1.3993  0.7434
  364MOL0     H49139   4.034   8.991   2.790  1.4706  3.0457  3.5407
  364MOL0     H49140   3.892   8.805   2.751 -0.2710 -0.9312 -1.0535
  365MOL0     O49141  11.249   4.414   0.548  0.3451 -0.6899  0.4090
  365MOL0     C49142  11.256   4.358   0.439 -0.8630  0.5253 -0.4409
  365MOL0     O49143  11.323   4.411   0.324 -0.1710  0.1208  0.9304
  365MOL0     C49144  11.406   4.525   0.322 -0.6537  0.0488 -0.2777
  365MOL0     C49145  11.512   4.522   0.231 -0.3771 -0.3212  0.1870
  365MOL0     C49146  11.593   4.634   0.206  0.5008  0.1530  0.7594
  365MOL0     C49147  11.582   4.748   0.287  0.8558  0.8631 -0.5559
  365MOL0     O49148  11.656   4.855   0.268  0.1532 -0.7153 -0.3307
  365MOL0     C49149  11.652   4.928   0.142  0.4836  0.5561 -0.0838
  365MOL0     C49150  11.578   5.064   0.154 -0.0336  0.9212 -0.8348
  365MOL0     C49151  11.442   5.073   0.095  0.3314 -0.3314  0.0902
  365MOL0     C49152  11.317   5.029   0.178  0.3087 -0.1396  0.7704
  365MOL0     C49153  11.194   5.002   0.088 -0.3911 -0.1115 -0.0499
  365MOL0     C49154  11.166   5.129  -0.009  0.6078 -0.0780 -1.2375
  365MOL0     C49155  11.029   5.126  -0.081  0.5805  0.0934 -0.0175
  365MOL0     C49156  11.041   5.009  -0.195 -0.4212 -0.2365 -0.7073
  365MOL0     N49157  10.921   5.025  -0.278 -1.1654 -0.1667 -0.6581
  365MOL0     C49158  10.798   4.992  -0.231  0.3836  0.1518 -0.4891
  365MOL0     C49159  10.717   5.036  -0.330  0.3863 -0.8751  0.0536
  365MOL0     C49160  10.564   5.053  -0.332 -0.1302 -0.5474  0.6226
  365MOL0     C49161  10.483   4.957  -0.250  0.4496  0.1300 -0.4065
  365MOL0     C49162  10.492   4.827  -0.328 -0.4659 -0.2363  0.0546
  365MOL0     C49163  10.433   4.709  -0.252  0.0268  0.0933  0.6991
  365MOL0     O49164  10.514   4.678  -0.134 -0.1476  0.8096  0.4782
  365MOL0     C49165  10.640   4.630  -0.164 -0.2450  0.4347  0.2837
  365MOL0     C49166  10.726   4.640  -0.054 -0.1808 -1.1163 -0.4285
  365MOL0     C49167  10.858   4.599  -0.061 -0.1347  0.5364  0.0553
  365MOL0     C49168  10.946   4.603   0.060 -0.5404 -0.3255 -0.2971
  365MOL0     C49169  10.917   4.576  -0.186  0.2424 -0.1001  0.6351
  365MOL0     C49170  11.060   4.564  -0.209  0.9927  0.5233 -0.5235
  365MOL0     O49171  11.158   4.617  -0.128 -0.3584 -0.2970 -0.5100
  365MOL0     C49172  11.287   4.590  -0.162 -0.5538  0.7705 -0.6942
  365MOL0     C49173  11.382   4.697  -0.171  0.2762 -0.2936  0.6025
  365MOL0     C49174  11.506   4.671  -0.230 -0.4639  0.5225  0.7004
  365MOL0     C49175  11.560   4.548  -0.239  0.4091  0.2731 -1.1935
  365MOL0     O49176  11.686   4.550  -0.275 -0.3834  0.5659 -0.5483
  365MOL0     C49177  11.772   4.444  -0.238 -0.6132  1.1537 -0.0494
  365MOL0     C49178  11.907   4.502  -0.203 -0.9139 -0.9347 -0.3987
  365MOL0     C49179  11.908   4.565  -0.066  0.1340  0.3480  0.2489
  365MOL0     C49180  12.037   4.646  -0.026 -0.6637  0.1556 -0.3158
  365MOL0     C49181  12.163   4.563  -0.009 -0.8015  0.2623 -0.7678
  365MOL0     C49182  12.252   4.634   0.096  0.0345  0.1984  0.1610
  365MOL0     C49183  12.378   4.556   0.117 -0.2171  0.4262 -0.5105
  365MOL0     C49184  12.504   4.637   0.164  1.0184 -0.0409 -0.1902
  365MOL0    Cl49185  12.481   4.775   0.273  0.5151  0.5438  0.5257
  365MOL0     C49186  11.473   4.450  -0.191 -0.5238  0.9817 -0.0355
  365MOL0     C49187  11.338   4.463  -0.164  0.1152  0.7649  0.0876
  365MOL0     O49188  11.089   4.518  -0.316  0.2234  0.4284 -0.1817
  365MOL0     C49189  10.827   4.556  -0.294  0.4209  0.2369 -0.0197
  365MOL0     C49190  10.694   4.573  -0.283  0.1478 -0.0657 -0.4954
  365MOL0     N49191  10.789   5.085  -0.436  0.4048 -0.2032 -0.7152
  365MOL0     N49192  10.912   5.085  -0.397  1.0055 -0.1266  0.5170
  365MOL0     C49193  11.493   4.737   0.391  0.6021 -0.6877 -1.0577
  365MOL0     C49194  11.407   4.629   0.414 -0.1860  0.1595 -0.1892
  365MOL0     C49195  11.189   4.220   0.429  0.2145  0.5991 -0.7342
  365MOL0     C49196  11.157   4.145   0.309 -0.6156 -0.4323  0.3542
  365MOL0     C49197  11.089   4.021   0.316 -0.0263 -1.2277  0.1691
  365MOL0     C49198  11.055   3.964   0.434 -0.6107 -1.4187  0.8480
  365MOL0     O49199  10.995   3.843   0.430 -0.8057 -0.0728 -0.0561
  365MOL0     C49200  10.854   3.849   0.428  0.0232 -0.2176 -0.9477
  365MOL0     C49201  10.811   3.817   0.289 -1.1920  0.8542  1.1471
  365MOL0     C49202  10.671   3.748   0.282 -0.7318 -0.2979 -0.3367
  365MOL0     C49203  10.553   3.836   0.343  0.0518  0.2591  0.3686
  365MOL0     C49204  10.464   3.869   0.235 -0.8474  0.2549  0.1459
  365MOL0     C49205  10.414   3.904   0.135  0.4536 -0.3783 -0.6484
  365MOL0     C49206  11.096   4.025   0.545 -0.0881 -0.1992 -0.6978
  365MOL0     C49207  11.150   4.160   0.549  0.4707 -0.5925  0.0290
  365MOL0     H49208  11.522   4.441   0.160 -0.8326  1.2102 -1.7224
  365MOL0     H49209  11.663   4.633   0.123 -1.3076 -1.0579 -0.8392
  365MOL0     H49210  11.754   4.940   0.104  0.9113 -2.2006 -0.0615
  365MOL0     H49211  11.607   4.854   0.075  2.4678 -2.3488  1.5345
  365MOL0     H49212  11.567   5.090   0.259 -0.1013  1.2316 -0.9173
  365MOL0     H49213  11.638   5.140   0.102  0.8549  0.3325 -0.6911
  365MOL0     H49214  11.424   5.173   0.056 -2.2010 -1.4104 -1.7937
  365MOL0     H49215  11.442   5.018   0.000  4.9431  3.0303 -2.2624
  365MOL0     H49216  11.332   4.938   0.237  2.8575  0.7436  1.5947
  365MOL0     H49217  11.295   5.115   0.242 -1.3272  0.9519 -1.1124
  365MOL0     H49218  11.221   4.915   0.027  5.1564  1.3244 -0.0919
  365MOL0     H49219  11.114   4.977   0.158  0.9479  1.9048  2.3441
  365MOL0     H49220  11.160   5.216   0.056 -1.0295 -2.0251  1.3709
  365MOL0     H49221  11.243   5.153  -0.084 -0.3067  1.4548 -1.7260
  365MOL0     H49222  10.943   5.121  -0.014  0.4343 -0.6328 -0.2488
  365MOL0     H49223  11.017   5.224  -0.128  1.8936  0.5611  0.5684
  365MOL0     H49224  11.033   4.910  -0.149 -1.5779 -0.2592 -0.9354
  365MOL0     H49225  11.135   5.033  -0.245 -0.1513  1.9492  0.6938
  365MOL0     H49226  10.761   4.959  -0.134  1.1831 -0.6518 -0.4454
  365MOL0     H49227  10.556   5.157  -0.298 -1.1243  0.3751 -2.1995
  365MOL0     H49228  10.529   5.047  -0.435  1.7752 -0.4396 -0.0653
  365MOL0     H49229  10.378   4.983  -0.238  0.1606  0.8540 -3.7327
  365MOL0     H49230  10.523   4.943  -0.149 -0.4071  2.3056  0.2891
  365MOL0     H49231  10.593   4.797  -0.359  0.9486  3.3671  0.6751
  365MOL0     H49232  10.435   4.837  -0.421  2.0154  0.1394 -1.5581
  365MOL0     H49233  10.417   4.626  -0.322  2.6338 -0.6040  0.8262
  365MOL0     H49234  10.336   4.749  -0.221 -1.9626 -1.8838 -2.3365
  365MOL0     H49235  10.687   4.671   0.042 -0.9546 -4.3878  0.4483
  365MOL0     H49236  11.023   4.527   0.075  0.0958  0.3144 -0.2247
  365MOL0     H49237  10.996   4.700   0.069  4.3564 -2.6305  0.3053
  365MOL0     H49238  10.881   4.566   0.140  1.4281 -1.7635  0.7214
  365MOL0     H49239  11.353   4.801  -0.162  0.5303 -0.0898 -0.7939
  365MOL0     H49240  11.562   4.757  -0.264  4.5434 -1.7259  2.3032
  365MOL0     H49241  11.734   4.380  -0.158 -0.8362 -1.9581 -2.4821
  365MOL0     H49242  11.780   4.378  -0.325 -3.0065 -0.3348  0.7833
  365MOL0     H49243  11.986   4.431  -0.229 -1.0202 -0.3494 -2.4815
  365MOL0     H49244  11.926   4.576  -0.281 -0.6963 -0.4715  0.0910
  365MOL0     H49245  11.902   4.483   0.006 -1.2591  1.1303  1.0680
  365MOL0     H49246  11.818   4.624  -0.051  0.6713  0.7751  1.9643
  365MOL0     H49247  12.052   4.718  -0.107 -1.1801  0.4149 -0.1832
  365MOL0     H49248  12.013   4.698   0.067 -2.1050 -0.8530 -0.1025
  365MOL0     H49249  12.230   4.561  -0.095  1.2760 -1.5942  0.7879
  365MOL0     H49250  12.134   4.467   0.035 -0.4134 -0.1302 -1.3726
  365MOL0     H49251  12.256   4.737   0.059 -0.4028 -0.1972 -1.0451
  365MOL0     H49252  12.204   4.637   0.194  1.1798 -0.3712  0.7624
  365MOL0     H49253  12.397   4.488   0.033 -1.5591  1.3342 -1.5968
  365MOL0     H49254  12.366   4.498   0.209  1.7711  1.9664  0.7992
  365MOL0     H49255  12.545   4.676   0.070 -0.6013 -0.6049 -1.1852
  365MOL0     H49256  12.585   4.575   0.201  1.2275 -0.9028 -1.9608
  365MOL0     H49257  11.514   4.349  -0.194  3.0652  2.2891  0.3277
  365MOL0     H49258  11.277   4.379  -0.134 -1.2278  1.8705  0.5759
  365MOL0     H49259  10.869   4.520  -0.387 -0.2373 -2.5686  0.6891
  365MOL0     H49260  10.635   4.554  -0.372 -2.5159  2.7894  0.5032
  365MOL0     H49261  11.476   4.820   0.460 -3.7022 -2.8220  0.8384
  365MOL0     H49262  11.333   4.633   0.493  0.1452  0.6840  0.0954
  365MOL0     H49263  11.191   4.187   0.215 -3.1854 -1.7336 -1.2720
  365MOL0     H49264  11.054   3.966   0.229 -1.5478  0.3533 -0.2796
  365MOL0     H49265  10.824   3.775   0.502  0.2917  1.7983  1.3142
  365MOL0     H49266  10.798   3.941   0.450 -3.3394 -2.2175 -0.3920
  365MOL0     H49267  10.885   3.746   0.251 -1.4978  0.8923  0.4664
  365MOL0     H49268  10.799   3.904   0.224 -3.0541  0.3592  0.7511
  365MOL0     H49269  10.688   3.667   0.353  2.8332 -0.8847 -1.6777
  365MOL0     H49270  10.649   3.695   0.190 -0.5657 -2.1522  0.6490
  365MOL0     H49271  10.596   3.920   0.399  0.7837 -0.6070  1.1518
  365MOL0     H49272  10.504   3.768   0.413 -0.7412  1.2422  0.8014
  365MOL0     H49273  10.374   3.941   0.043 -0.3365 -1.1942 -0.6508
  365MOL0     H49274  11.080   3.964   0.633 -0.1768 -2.3686 -2.1404
  365MOL0     H49275  11.169   4.198   0.649  0.0981  0.6207 -0.3541
  366MOL0     O49276   4.668   8.103   0.115  0.7685 -0.1839 -0.5369
  366MOL0     C49277   4.668   8.206   0.049 -0.1105  0.2859 -0.4144
  366MOL0     O49278   4.746   8.311   0.074 -0.8232 -0.3346  0.5303
  366MOL0     C49279   4.840   8.289   0.176 -0.1243 -0.1683 -0.5272
  366MOL0     C49280   4.822   8.375   0.291 -0.0106  0.0379  0.0419
  366MOL0     C49281   4.912   8.354   0.399 -0.0310 -0.5180  0.4355
  366MOL0     C49282   5.011   8.258   0.389 -0.1382  0.3429 -0.8280
  366MOL0     O49283   5.113   8.260   0.489  0.5421  0.2328  0.1183
  366MOL0     C49284   5.119   8.358   0.592  0.6461 -0.4811  0.6609
  366MOL0     C49285   5.260   8.348   0.660 -0.7142 -0.3956  0.0470
  366MOL0     C49286   5.251   8.234   0.775  1.4192  0.9025  0.8062
  366MOL0     C49287   5.310   8.097   0.724 -0.2889  0.1515 -0.6438
  366MOL0     C49288   5.307   8.000   0.842 -0.8703 -0.0301  0.2821
  366MOL0     C49289   5.448   7.949   0.869  0.7826  0.0191  0.1946
  366MOL0     C49290   5.455   7.828   0.968 -0.9790 -0.1702 -0.3729
  366MOL0     C49291   5.413   7.683   0.911  0.0127 -0.9010  0.0981
  366MOL0     N49292   5.495   7.632   0.805 -0.3909 -0.6143  0.2269
  366MOL0     C49293   5.628   7.654   0.816 -0.3773  0.2456 -0.7051
  366MOL0     C49294   5.676   7.621   0.701  0.3830  0.2635 -0.2413
  366MOL0     C49295   5.820   7.626   0.665 -0.3069 -0.2434  0.0450
  366MOL0     C49296   5.854   7.571   0.522  1.0079  0.0755 -0.4504
  366MOL0     C49297   5.992   7.594   0.473  0.7759 -0.7560  0.0639
  366MOL0     C49298   6.091   7.493   0.517 -0.4822 -0.3162 -1.4249
  366MOL0     O49299   6.128   7.402   0.412 -0.5135  0.9064 -1.3364
  366MOL0     C49300   6.256   7.396   0.365  0.4324  0.2661  0.8028
  366MOL0     C49301   6.370   7.457   0.418 -1.6854 -0.4154  1.0467
  366MOL0     C49302   6.493   7.452   0.351  0.3220  0.7795 -0.0459
  366MOL0     C49303   6.598   7.549   0.408 -0.9403 -0.1399 -0.6053
  366MOL0     C49304   6.510   7.364   0.243  0.9616  0.1524 -0.1064
  366MOL0     C49305   6.633   7.351   0.167 -0.7049 -0.2720  0.2434
  366MOL0     O49306   6.636   7.314   0.029  0.3626  0.0502 -0.2567
  366MOL0     C49307   6.742   7.259  -0.034 -0.9999 -0.2013  0.4158
  366MOL0     C49308   6.853   7.191   0.020  0.2588  0.3610  1.0887
  366MOL0     C49309   6.948   7.133  -0.070  0.3823 -0.5326 -0.3383
  366MOL0     C49310   6.932   7.151  -0.203 -0.8071  1.6440 -0.5759
  366MOL0     O49311   7.021   7.093  -0.295 -0.1760  0.1879 -0.0282
  366MOL0     C49312   7.095   7.187  -0.370  0.0835  1.1256 -0.1559
  366MOL0     C49313   7.222   7.117  -0.409 -1.1384 -0.9170  0.1594
  366MOL0     C49314   7.201   7.021  -0.531  0.4297  0.8754  1.0496
  366MOL0     C49315   7.255   6.874  -0.519  0.0410  0.9422  0.0142
  366MOL0     C49316   7.224   6.787  -0.637 -0.5781 -0.1790 -0.3785
  366MOL0     C49317   7.287   6.642  -0.642 -0.6664 -0.8336  0.0173
  366MOL0     C49318   7.214   6.569  -0.532 -0.8551 -0.3454  0.5305
  366MOL0     C49319   7.231   6.416  -0.556  1.2645 -0.2467  0.1995
  366MOL0    Cl49320   7.186   6.317  -0.408  0.0785  0.3971  0.1363
  366MOL0     C49321   6.833   7.230  -0.253 -0.8034  0.6163 -0.0937
  366MOL0     C49322   6.732   7.265  -0.172 -0.0177 -0.1560 -0.2468
  366MOL0     O49323   6.730   7.354   0.237 -0.3181 -0.8402 -0.0923
  366MOL0     C49324   6.405   7.292   0.191  0.4581 -0.0993  0.0194
  366MOL0     C49325   6.274   7.318   0.240  0.8840 -1.2083  0.4284
  366MOL0     N49326   5.576   7.580   0.616 -0.1726 -0.1031 -0.6183
  366MOL0     N49327   5.462   7.598   0.682 -0.4267 -0.1210  0.5766
  366MOL0     C49328   5.024   8.179   0.272 -0.0315 -0.1644 -0.2983
  366MOL0     C49329   4.943   8.204   0.160 -0.7634  0.2168  0.7034
  366MOL0     C49330   4.565   8.208  -0.065 -0.5007 -0.3989  0.9399
  366MOL0     C49331   4.484   8.093  -0.108 -0.0388  0.0267  0.5053
  366MOL0     C49332   4.386   8.097  -0.208  0.5431 -0.0744 -0.4034
  366MOL0     C49333   4.369   8.215  -0.282 -0.9903 -0.2500 -0.0895
  366MOL0     O49334   4.281   8.226  -0.387 -0.4894  0.6235  0.0705
  366MOL0     C49335   4.156   8.141  -0.389 -0.2313 -0.3071  0.1314
  366MOL0     C49336   4.149   8.056  -0.515 -0.0563 -0.2586 -0.3911
  366MOL0     C49337   4.241   7.940  -0.498 -1.1895  0.7601  0.6240
  366MOL0     C49338   4.168   7.813  -0.449  0.1295  1.0670  0.4379
  366MOL0     C49339   4.152   7.797  -0.307  0.4653  0.1070 -0.4843
  366MOL0     C49340   4.149   7.789  -0.183  0.1209 -1.2361  0.6657
  366MOL0     C49341   4.451   8.325  -0.245 -0.5121  0.6725  0.7076
  366MOL0     C49342   4.547   8.328  -0.141 -0.1085 -0.1113 -0.4038
  366MOL0     H49343   4.754   8.459   0.302  1.5817  1.3317  0.3881
  366MOL0     H49344   4.892   8.412   0.489 -0.5799  2.0337 -1.2271
  366MOL0     H49345   5.116   8.462   0.556  1.7882  0.3959  2.9245
  366MOL0     H49346   5.038   8.349   0.664 -0.6400  2.2206 -0.2998
  366MOL0     H49347   5.342   8.322   0.592  3.1107 -2.6370  4.9096
  366MOL0     H49348   5.267   8.445   0.708  2.5604 -1.2143  1.4311
  366MOL0     H49349   5.311   8.263   0.861  0.9876  1.3567  0.9549
  366MOL0     H49350   5.147   8.221   0.805  0.2824 -1.4871 -3.2459
  366MOL0     H49351   5.253   8.044   0.648  0.6230 -2.4625  0.3981
  366MOL0     H49352   5.412   8.123   0.695  0.7984 -0.0602  2.6115
  366MOL0     H49353   5.273   8.057   0.929 -2.6515 -1.7113  0.7855
  366MOL0     H49354   5.243   7.911   0.832 -2.4268  0.7378  2.5207
  366MOL0     H49355   5.493   7.918   0.774  0.0418 -4.9393  1.2040
  366MOL0     H49356   5.509   8.028   0.914 -0.9622  2.4912 -1.4355
  366MOL0     H49357   5.561   7.839   0.996 -0.8261 -1.0173 -0.6022
  366MOL0     H49358   5.399   7.857   1.058 -1.3053  1.7601 -1.1509
  366MOL0     H49359   5.306   7.691   0.894 -0.2192  2.8585  2.1790
  366MOL0     H49360   5.422   7.612   0.994 -0.2920  1.3267  2.1504
  366MOL0     H49361   5.691   7.684   0.899 -2.8934 -0.9713  1.8467
  366MOL0     H49362   5.852   7.731   0.666 -1.8901  0.3236 -1.8957
  366MOL0     H49363   5.881   7.557   0.724  0.9602  1.5006  0.8903
  366MOL0     H49364   5.790   7.640   0.466  0.6353  2.0376  2.1896
  366MOL0     H49365   5.840   7.463   0.512  1.9135 -0.4660  2.8359
  366MOL0     H49366   6.017   7.695   0.506  3.9118 -1.5877  0.5033
  366MOL0     H49367   5.988   7.589   0.364 -1.0964  0.1747  0.0547
  366MOL0     H49368   6.039   7.445   0.601 -0.3412  2.4368  0.3597
  366MOL0     H49369   6.171   7.546   0.569 -1.1248 -2.5921  2.3556
  366MOL0     H49370   6.364   7.513   0.511  3.5998  0.9954  0.8408
  366MOL0     H49371   6.681   7.565   0.339  0.4567 -3.0432  0.2047
  366MOL0     H49372   6.554   7.644   0.441 -2.9717 -1.5491  1.0439
  366MOL0     H49373   6.636   7.510   0.503 -2.1927  0.0266 -0.0141
  366MOL0     H49374   6.864   7.178   0.127  2.5456  1.2714  1.0206
  366MOL0     H49375   7.035   7.083  -0.030 -1.1088 -0.2103  3.7305
  366MOL0     H49376   7.040   7.223  -0.458  2.5345 -2.0280 -3.2818
  366MOL0     H49377   7.122   7.270  -0.304  1.1205  0.1638  0.6648
  366MOL0     H49378   7.307   7.184  -0.431 -0.4210 -1.1551  2.0408
  366MOL0     H49379   7.247   7.067  -0.316 -0.4727 -0.3983  0.2689
  366MOL0     H49380   7.252   7.082  -0.605 -2.3200  0.0421 -1.7184
  366MOL0     H49381   7.096   7.010  -0.558  0.1842 -1.8079  2.6788
  366MOL0     H49382   7.363   6.876  -0.500  0.2867  2.4516 -1.2788
  366MOL0     H49383   7.206   6.831  -0.431 -2.5487 -2.1517 -2.6696
  366MOL0     H49384   7.279   6.832  -0.720 -0.0851 -2.2079 -1.2259
  366MOL0     H49385   7.119   6.785  -0.668 -0.6008  1.5294 -0.4861
  366MOL0     H49386   7.260   6.599  -0.739 -0.1805 -2.1557  0.4445
  366MOL0     H49387   7.396   6.650  -0.634 -0.7628 -0.3724  0.9594
  366MOL0     H49388   7.106   6.587  -0.543 -0.4151  1.3905 -1.6993
  366MOL0     H49389   7.245   6.581  -0.428 -1.7410  0.4401  0.7217
  366MOL0     H49390   7.335   6.401  -0.586  2.6097  1.5318  3.3767
  366MOL0     H49391   7.160   6.373  -0.627  2.0400 -0.6841 -0.3247
  366MOL0     H49392   6.815   7.231  -0.360 -0.8188  0.8821 -0.0882
  366MOL0     H49393   6.642   7.312  -0.209  1.3774  2.3596 -0.7028
  366MOL0     H49394   6.416   7.235   0.099  0.1987  1.3158 -0.9216
  366MOL0     H49395   6.183   7.278   0.197  0.8592 -0.0511 -0.6291
  366MOL0     H49396   5.116   8.123   0.255  0.1056  0.1972 -0.7477
  366MOL0     H49397   4.946   8.155   0.063  0.2083  0.9817  0.3342
  366MOL0     H49398   4.483   7.998  -0.054  1.2010 -0.6820 -0.6717
  366MOL0     H49399   4.335   8.002  -0.217 -2.2125  1.2645 -0.1116
  366MOL0     H49400   4.144   8.088  -0.295  2.2347 -0.2141  0.5622
  366MOL0     H49401   4.066   8.202  -0.377 -2.4018 -3.6385  2.4690
  366MOL0     H49402   4.181   8.126  -0.592  2.5859 -0.3159  0.5527
  366MOL0     H49403   4.050   8.017  -0.538  0.3519 -3.0898  2.0328
  366MOL0     H49404   4.329   7.953  -0.436  0.8344 -1.8475 -1.4897
  366MOL0     H49405   4.277   7.919  -0.599 -0.8039  0.2913  0.8569
  366MOL0     H49406   4.214   7.724  -0.493 -2.7628  1.1457 -3.2685
  366MOL0     H49407   4.063   7.805  -0.481 -0.5436 -2.6222  2.9686
  366MOL0     H49408   4.149   7.765  -0.078 -3.7179 -0.8564  0.9210
  366MOL0     H49409   4.437   8.418  -0.298  1.9134  2.2453  2.6052
  366MOL0     H49410   4.608   8.417  -0.129  0.3134 -0.5306  0.7785
  367MOL0     O49411   2.139   9.407   1.773  0.0781  0.3358 -0.4423
  367MOL0     C49412   2.190   9.492   1.710 -0.4320  0.0166  0.0199
  367MOL0     O49413   2.242   9.597   1.762  0.3149 -0.0098  0.3954
  367MOL0     C49414   2.262   9.616   1.898 -0.1093  0.8476  0.0034
  367MOL0     C49415   2.264   9.741   1.946  0.4414 -0.2686  0.8970
  367MOL0     C49416   2.278   9.780   2.083 -0.4610 -0.0672  0.3031
  367MOL0     C49417   2.295   9.676   2.183  0.4012 -0.2233  1.0239
  367MOL0     O49418   2.304   9.715   2.312  0.1743  0.1143 -0.7156
  367MOL0     C49419   2.290   9.613   2.416  0.4258 -0.2217 -0.9025
  367MOL0     C49420   2.274   9.690   2.548 -0.6537  0.7015 -0.8072
  367MOL0     C49421   2.396   9.767   2.587  0.3543  0.8381  1.1159
  367MOL0     C49422   2.375   9.910   2.586 -0.1367  0.0801 -0.5980
  367MOL0     C49423   2.483   9.988   2.653 -0.3579 -0.3328 -0.8539
  367MOL0     C49424   2.458  10.135   2.653  0.5131 -0.0497 -0.0642
  367MOL0     C49425   2.565  10.214   2.723  0.2880  0.6365 -0.1435
  367MOL0     C49426   2.504  10.352   2.778  0.4145  0.3183 -0.3880
  367MOL0     N49427   2.447  10.439   2.677  0.7026 -0.6093 -0.4686
  367MOL0     C49428   2.322  10.427   2.626 -0.6225  0.0798 -0.6175
  367MOL0     C49429   2.312  10.516   2.530 -0.8718 -0.4750  0.7371
  367MOL0     C49430   2.186  10.546   2.464  0.9020 -0.3041 -0.4891
  367MOL0     C49431   2.188  10.491   2.315  0.6427  0.1135  0.6180
  367MOL0     C49432   2.053  10.519   2.255  0.1858  0.2339  0.4574
  367MOL0     C49433   2.038  10.412   2.143 -0.1763 -0.1729  0.0084
  367MOL0     O49434   2.036  10.275   2.191  0.1407 -1.2593  0.3229
  367MOL0     C49435   2.031  10.177   2.102 -0.4693 -0.1241  0.3264
  367MOL0     C49436   1.996  10.055   2.163 -0.3041 -0.5143  0.3679
  367MOL0     C49437   1.967   9.938   2.083  0.1698 -0.2585  0.5839
  367MOL0     C49438   1.939   9.823   2.167 -0.2529 -0.3292 -0.1595
  367MOL0     C49439   1.975   9.937   1.941  0.9618 -0.2019  0.0912
  367MOL0     C49440   1.924   9.828   1.854  0.0175  0.3133  0.0640
  367MOL0     O49441   1.965   9.830   1.720  0.5725 -0.1000 -0.0343
  367MOL0     C49442   1.925   9.747   1.624 -0.3981 -0.5019 -0.5198
  367MOL0     C49443   1.906   9.799   1.504  1.4089  0.3054 -0.5828
  367MOL0     C49444   1.856   9.714   1.405 -0.3204  0.2599  0.5841
  367MOL0     C49445   1.810   9.579   1.436 -0.2304  0.5146 -0.0169
  367MOL0     O49446   1.758   9.490   1.346  0.4362  0.1075 -0.2296
  367MOL0     C49447   1.754   9.532   1.205  0.3353  0.5703  1.2147
  367MOL0     C49448   1.703   9.417   1.118  0.2678 -0.2241  0.1552
  367MOL0     C49449   1.547   9.416   1.123 -0.3395 -0.1342 -0.4174
  367MOL0     C49450   1.482   9.288   1.070 -1.5028 -0.3537 -0.1194
  367MOL0     C49451   1.336   9.305   1.025  0.4172 -0.0700  0.8966
  367MOL0     C49452   1.321   9.382   0.891  0.5565 -0.2302  0.0846
  367MOL0     C49453   1.170   9.391   0.849  1.0480 -0.3563 -0.4259
  367MOL0     C49454   1.124   9.259   0.771 -0.0651 -0.5498 -0.4717
  367MOL0    Cl49455   0.963   9.288   0.691 -0.1772  0.2605  0.0444
  367MOL0     C49456   1.847   9.524   1.561  0.4213 -0.7897 -0.5737
  367MOL0     C49457   1.895   9.615   1.658  0.2105  0.6668  0.0112
  367MOL0     O49458   1.839   9.754   1.902  0.2468 -0.0612 -0.1735
  367MOL0     C49459   2.016  10.064   1.883 -0.4006  0.6197 -0.4682
  367MOL0     C49460   2.051  10.175   1.962 -0.7491  0.6009 -0.9822
  367MOL0     N49461   2.438  10.582   2.519  0.0072  0.4260  0.3045
  367MOL0     N49462   2.521  10.527   2.601  0.0356  0.2620  0.3146
  367MOL0     C49463   2.293   9.540   2.135 -0.2059  0.6425  1.2074
  367MOL0     C49464   2.271   9.513   1.995 -0.4105  0.7262 -0.0261
  367MOL0     C49465   2.181   9.491   1.562 -0.1171 -0.6354 -1.0362
  367MOL0     C49466   2.126   9.376   1.500 -0.1503  1.0230  0.4202
  367MOL0     C49467   2.120   9.365   1.361 -0.4434  0.0842  0.0755
  367MOL0     C49468   2.152   9.467   1.279 -0.6167  0.6514  0.8189
  367MOL0     O49469   2.140   9.457   1.145 -0.3417 -0.1406  0.5103
  367MOL0     C49470   2.239   9.372   1.087 -0.2572  0.6372  0.8377
  367MOL0     C49471   2.189   9.335   0.952  0.8418  0.9481  0.3204
  367MOL0     C49472   2.060   9.247   0.982  0.1423  0.5012  0.1850
  367MOL0     C49473   1.987   9.223   0.845 -0.6184  0.2160  0.3507
  367MOL0     C49474   1.859   9.143   0.851 -0.3328 -0.1752 -0.2117
  367MOL0     C49475   1.758   9.074   0.873 -0.4690  0.8818  0.8945
  367MOL0     C49476   2.190   9.589   1.335  0.1888  0.1482 -0.4881
  367MOL0     C49477   2.210   9.601   1.472 -0.1616  0.3239 -0.8762
  367MOL0     H49478   2.250   9.819   1.872  1.9305  1.6396  2.4927
  367MOL0     H49479   2.306   9.881   2.110  0.7594  0.4733 -2.6081
  367MOL0     H49480   2.205   9.547   2.395 -0.5598  0.6080  0.3208
  367MOL0     H49481   2.379   9.550   2.428  1.7364  2.0753  4.4891
  367MOL0     H49482   2.186   9.756   2.545  0.1654  2.0503  2.0492
  367MOL0     H49483   2.252   9.622   2.630  0.0561  0.4236 -0.8441
  367MOL0     H49484   2.423   9.741   2.690  0.6670 -3.4012  0.1649
  367MOL0     H49485   2.472   9.742   2.512 -0.2762  1.9763  0.0601
  367MOL0     H49486   2.356   9.953   2.487  0.0958  1.6033 -0.0049
  367MOL0     H49487   2.290   9.922   2.653  1.9685 -1.1422  2.5330
  367MOL0     H49488   2.488   9.968   2.760  0.6073  2.2394 -0.3539
  367MOL0     H49489   2.581   9.969   2.608 -0.1181  0.4083 -0.6478
  367MOL0     H49490   2.446  10.154   2.546  2.0026 -1.6974 -0.5683
  367MOL0     H49491   2.367  10.168   2.704  1.2179  0.2491  1.0556
  367MOL0     H49492   2.611  10.164   2.808  0.9866  1.0646 -0.2667
  367MOL0     H49493   2.639  10.228   2.644  1.9566  2.8371  1.6803
  367MOL0     H49494   2.591  10.402   2.820  0.9130 -0.1256 -0.8777
  367MOL0     H49495   2.431  10.336   2.858  1.6086 -0.1868  0.6320
  367MOL0     H49496   2.246  10.363   2.670  0.1171 -0.3346  0.0853
  367MOL0     H49497   2.096  10.507   2.513 -0.6045  1.4586 -1.6812
  367MOL0     H49498   2.178  10.655   2.478 -2.6740 -0.8235  4.5145
  367MOL0     H49499   2.207  10.384   2.328 -1.6557 -0.3779  0.3574
  367MOL0     H49500   2.263  10.545   2.255  0.8377 -0.4984  0.3097
  367MOL0     H49501   2.046  10.612   2.198 -2.3901 -1.0640 -1.5608
  367MOL0     H49502   1.977  10.506   2.332  1.2123  0.9746  1.6367
  367MOL0     H49503   2.133  10.418   2.089  0.8402  3.8587  1.8343
  367MOL0     H49504   1.948  10.435   2.085  0.9856  1.9411 -1.0951
  367MOL0     H49505   1.990  10.054   2.271 -2.2699  0.6552  0.3179
  367MOL0     H49506   1.831   9.821   2.184 -0.2740  0.0633 -0.2280
  367MOL0     H49507   1.964   9.731   2.113 -2.2135  0.2149 -2.1295
  367MOL0     H49508   1.993   9.822   2.262  1.2453 -2.9993 -0.9255
  367MOL0     H49509   1.939   9.901   1.483  1.7751  0.0662 -1.1690
  367MOL0     H49510   1.837   9.753   1.305 -0.7660  1.1645  1.0100
  367MOL0     H49511   1.685   9.617   1.198  2.1091  1.9651 -0.8685
  367MOL0     H49512   1.852   9.560   1.165 -0.2550 -0.1961 -0.9317
  367MOL0     H49513   1.738   9.419   1.015 -3.0594  2.5206 -1.1032
  367MOL0     H49514   1.739   9.325   1.165  0.8980 -0.7872 -1.3614
  367MOL0     H49515   1.514   9.489   1.048  1.4528  0.2496 -0.8653
  367MOL0     H49516   1.508   9.452   1.218 -2.6131  1.5942 -1.8841
  367MOL0     H49517   1.541   9.257   0.983 -2.6464  1.2601 -1.5181
  367MOL0     H49518   1.493   9.205   1.141  3.1916  1.0196  1.1250
  367MOL0     H49519   1.279   9.358   1.102  1.1138  1.6710  0.2803
  367MOL0     H49520   1.281   9.212   1.011 -0.7722  0.6868  0.3268
  367MOL0     H49521   1.351   9.486   0.905 -1.4705  0.3608  0.3989
  367MOL0     H49522   1.389   9.337   0.818  2.3372  1.8403  0.3535
  367MOL0     H49523   1.166   9.475   0.779 -0.3099  0.1308  0.1968
  367MOL0     H49524   1.106   9.419   0.932  0.9134  0.5186 -0.8121
  367MOL0     H49525   1.100   9.172   0.834  3.0650 -1.6133 -0.5836
  367MOL0     H49526   1.198   9.227   0.698  1.6447 -2.0101  1.7549
  367MOL0     H49527   1.829   9.426   1.604 -0.4804 -0.9634 -1.3182
  367MOL0     H49528   1.918   9.579   1.757  0.4562  0.8211  0.0096
  367MOL0     H49529   2.022  10.079   1.776  2.7875 -4.7883 -1.4310
  367MOL0     H49530   2.076  10.273   1.923  0.8768  0.5327 -0.1951
  367MOL0     H49531   2.293   9.457   2.206 -1.1249 -1.2265 -0.8696
  367MOL0     H49532   2.271   9.415   1.950  1.2422  2.8684 -5.4412
  367MOL0     H49533   2.108   9.282   1.551 -2.1058  0.9251 -0.3564
  367MOL0     H49534   2.093   9.269   1.319 -2.1186 -0.3993  2.0611
  367MOL0     H49535   2.337   9.418   1.104 -0.3714  0.4830  2.0237
  367MOL0     H49536   2.253   9.281   1.145  1.4922 -0.1219 -0.7058
  367MOL0     H49537   2.263   9.290   0.885 -0.3389  2.1256 -1.8527
  367MOL0     H49538   2.143   9.423   0.907 -0.8019  0.2491  0.5629
  367MOL0     H49539   1.994   9.294   1.056  0.2376 -1.4082  1.5646
  367MOL0     H49540   2.096   9.150   1.018  2.0704  0.2373 -2.1860
  367MOL0     H49541   2.064   9.188   0.777 -0.2548  1.3518  0.1545
  367MOL0     H49542   1.953   9.320   0.806  1.2869  0.9570  0.4413
  367MOL0     H49543   1.687   9.000   0.904  0.5107  0.6127  2.6210
  367MOL0     H49544   2.212   9.678   1.278 -0.2380  2.5112  2.7439
  367MOL0     H49545   2.258   9.691   1.508 -1.3551 -0.1893  2.2725
  368MOL0     O49546  10.210  10.162   1.037 -0.3253 -0.6625 -0.2831
  368MOL0     C49547  10.112  10.194   0.969  0.5779 -0.1779  0.2025
  368MOL0     O49548  10.105  10.225   0.835 -0.4917  0.7731  0.4886
  368MOL0     C49549  10.218  10.267   0.767  0.8657 -0.3315  0.1670
  368MOL0     C49550  10.223  10.245   0.627 -0.4568 -0.6047 -0.5291
  368MOL0     C49551  10.335  10.285   0.553  1.0049  0.5376 -1.3441
  368MOL0     C49552  10.446  10.343   0.625  1.0784  0.7304  1.1396
  368MOL0     O49553  10.567  10.385   0.577  0.6963  0.2845  0.8957
  368MOL0     C49554  10.594  10.364   0.437  0.5386 -0.0252  0.3083
  368MOL0     C49555  10.727  10.438   0.423  0.2663  0.3484 -0.1647
  368MOL0     C49556  10.755  10.443   0.277 -0.2582  0.0170  0.5826
  368MOL0     C49557  10.896  10.490   0.253 -1.0276 -0.2825 -0.6455
  368MOL0     C49558  11.001  10.389   0.260 -0.4727  0.0282  0.3439
  368MOL0     C49559  11.141  10.449   0.235 -0.5582 -0.1828  0.0148
  368MOL0     C49560  11.251  10.353   0.296  0.7898  0.5219  1.3549
  368MOL0     C49561  11.314  10.395   0.419  0.1342  0.5141  0.8856
  368MOL0     N49562  11.395  10.287   0.475  0.2757 -0.0876  0.2527
  368MOL0     C49563  11.368  10.210   0.584 -0.2947  0.6367  0.3265
  368MOL0     C49564  11.468  10.119   0.581 -0.4283 -0.0720 -0.0477
  368MOL0     C49565  11.463   9.997   0.669 -0.2248  0.4427 -0.1638
  368MOL0     C49566  11.518  10.035   0.805  0.3635 -0.2375 -0.0158
  368MOL0     C49567  11.538   9.919   0.890 -0.8452  0.5272 -0.4476
  368MOL0     C49568  11.616   9.950   1.021  0.0482  0.3309 -0.2467
  368MOL0     O49569  11.541  10.015   1.123  0.0615 -0.5956  0.1597
  368MOL0     C49570  11.477   9.943   1.216  0.3109 -0.7769 -0.5105
  368MOL0     C49571  11.466   9.991   1.346  0.3280 -0.9946 -0.6620
  368MOL0     C49572  11.400   9.926   1.451 -0.6660  0.0275 -0.0783
  368MOL0     C49573  11.393   9.993   1.589  0.4167  0.0275 -0.4465
  368MOL0     C49574  11.380   9.787   1.433 -0.4925  0.1090  0.8002
  368MOL0     C49575  11.301   9.718   1.531 -0.0766 -0.1141  0.0272
  368MOL0     O49576  11.182   9.792   1.558 -0.3545  1.2216  0.0460
  368MOL0     C49577  11.121   9.747   1.662  0.4637 -0.4725 -0.2567
  368MOL0     C49578  11.173   9.712   1.787 -0.5448 -0.2230  0.1645
  368MOL0     C49579  11.100   9.679   1.905  0.0465 -0.2712  0.2606
  368MOL0     C49580  10.960   9.667   1.888 -0.1568  0.3786  0.0612
  368MOL0     O49581  10.878   9.624   1.984  0.5673  0.3814  0.5650
  368MOL0     C49582  10.889   9.690   2.106  0.7975 -0.6356 -0.2938
  368MOL0     C49583  10.802   9.630   2.205 -0.0008  0.4429 -0.1666
  368MOL0     C49584  10.775   9.714   2.332  0.1251 -0.1974 -0.1841
  368MOL0     C49585  10.831   9.643   2.457  0.1174 -1.1608  0.7856
  368MOL0     C49586  10.789   9.719   2.590  0.8972  0.3590 -0.0894
  368MOL0     C49587  10.878   9.842   2.633  0.5895  0.1692  0.6487
  368MOL0     C49588  10.826   9.916   2.751 -1.0202 -0.0144  0.3308
  368MOL0     C49589  10.763   9.830   2.863  0.2621 -0.0314 -0.0601
  368MOL0    Cl49590  10.769   9.906   3.021 -0.3499  0.1194  0.0183
  368MOL0     C49591  10.905   9.710   1.760 -0.4654  0.1866 -0.3127
  368MOL0     C49592  10.984   9.760   1.656  0.2297  0.3833  0.4585
  368MOL0     O49593  11.327   9.603   1.566  0.2084  0.4817  0.3933
  368MOL0     C49594  11.410   9.732   1.307  0.3769 -0.0721  0.1665
  368MOL0     C49595  11.451   9.811   1.197 -1.2587  0.5264 -1.4271
  368MOL0     N49596  11.548  10.139   0.469 -0.1280  0.0373  0.5626
  368MOL0     N49597  11.503  10.239   0.408 -0.1093  0.0996  0.2604
  368MOL0     C49598  10.443  10.364   0.761 -1.1073 -1.0011 -0.5912
  368MOL0     C49599  10.320  10.334   0.822 -0.9594  0.9929 -0.7600
  368MOL0     C49600   9.988  10.207   1.049  0.0010 -1.2077 -0.2658
  368MOL0     C49601   9.990  10.224   1.193  1.2475 -0.3684  0.1275
  368MOL0     C49602   9.875  10.233   1.263  0.9037  0.3921 -0.3828
  368MOL0     C49603   9.746  10.234   1.212  1.1807  0.4709  0.3564
  368MOL0     O49604   9.627  10.235   1.279 -0.2562 -0.1368 -0.1123
  368MOL0     C49605   9.626  10.249   1.416  0.8427 -0.8722 -0.7732
  368MOL0     C49606   9.482  10.269   1.461  0.6095 -0.3223  1.3870
  368MOL0     C49607   9.474  10.299   1.611  0.9810 -0.3017  0.7809
  368MOL0     C49608   9.322  10.269   1.641 -1.5391 -0.5453 -0.3090
  368MOL0     C49609   9.310  10.286   1.788  0.3277 -0.1134  0.0345
  368MOL0     C49610   9.300  10.311   1.908  0.2790 -0.2531  0.1874
  368MOL0     C49611   9.729  10.226   1.074 -0.6839 -0.4488  1.3421
  368MOL0     C49612   9.854  10.215   0.990 -0.2024  0.5504  0.1236
  368MOL0     H49613  10.143  10.197   0.572  0.6190 -1.7957 -1.0912
  368MOL0     H49614  10.338  10.264   0.446  2.9690 -0.8407 -1.0847
  368MOL0     H49615  10.592  10.256   0.419 -3.7629 -0.2222  1.0029
  368MOL0     H49616  10.517  10.408   0.374 -0.7916 -5.2444 -2.2999
  368MOL0     H49617  10.725  10.542   0.459  0.1273  0.0766  0.6230
  368MOL0     H49618  10.805  10.389   0.482 -0.8246 -0.3814  0.7159
  368MOL0     H49619  10.739  10.343   0.236 -0.5138 -0.6741  2.2952
  368MOL0     H49620  10.679  10.497   0.219  0.3913  2.4513  1.8803
  368MOL0     H49621  10.914  10.557   0.169 -0.4737 -0.0450 -0.3427
  368MOL0     H49622  10.919  10.556   0.337  1.0728  2.3101 -3.0513
  368MOL0     H49623  11.006  10.348   0.361  2.7524 -0.9289 -0.0817
  368MOL0     H49624  10.992  10.303   0.193  1.9986  0.1368 -0.2446
  368MOL0     H49625  11.157  10.469   0.129  2.7218  1.6038  0.7254
  368MOL0     H49626  11.149  10.547   0.283  0.3627  0.4193 -1.3253
  368MOL0     H49627  11.208  10.254   0.314 -2.1604  1.4819  0.2019
  368MOL0     H49628  11.330  10.342   0.221  3.1188  0.8856  3.6581
  368MOL0     H49629  11.241  10.435   0.490 -0.7942 -0.0526  0.2801
  368MOL0     H49630  11.378  10.476   0.383 -1.6833  2.4145  1.7019
  368MOL0     H49631  11.297  10.221   0.665 -0.2145  0.8251  0.3730
  368MOL0     H49632  11.363   9.952   0.675  0.1886 -0.7807 -2.0396
  368MOL0     H49633  11.530   9.921   0.629  0.1233 -0.3859  1.8502
  368MOL0     H49634  11.462  10.116   0.852 -1.3573 -0.0640 -2.2132
  368MOL0     H49635  11.618  10.079   0.796  0.5903 -0.2196  2.1038
  368MOL0     H49636  11.609   9.857   0.835  0.6747  1.2404  0.6613
  368MOL0     H49637  11.440   9.871   0.904  1.2588 -3.5956  2.2501
  368MOL0     H49638  11.706  10.006   0.994 -0.0704  0.6943  0.1105
  368MOL0     H49639  11.662   9.855   1.048 -0.5500 -0.3019 -1.3542
  368MOL0     H49640  11.506  10.090   1.363  4.4474 -3.0542  3.9607
  368MOL0     H49641  11.404   9.922   1.672 -1.2640 -0.3415 -0.5130
  368MOL0     H49642  11.480  10.059   1.600  1.0316 -0.6947 -0.9070
  368MOL0     H49643  11.302  10.051   1.607  1.2683  1.0144  0.8547
  368MOL0     H49644  11.279   9.707   1.811 -0.4448  1.6185  0.2477
  368MOL0     H49645  11.152   9.662   1.999 -4.0911 -3.3471  2.2884
  368MOL0     H49646  10.990   9.701   2.147  1.2426  1.2883 -1.7594
  368MOL0     H49647  10.852   9.793   2.099  0.6727 -0.6315  0.3530
  368MOL0     H49648  10.706   9.625   2.153  1.9630 -1.1585 -4.0330
  368MOL0     H49649  10.824   9.525   2.229  1.3352  1.0230  1.3072
  368MOL0     H49650  10.668   9.729   2.348 -0.3131 -2.9095 -0.1283
  368MOL0     H49651  10.819   9.814   2.325  0.1852 -0.0504  1.6924
  368MOL0     H49652  10.799   9.539   2.458  1.0897 -1.4650  1.8777
  368MOL0     H49653  10.940   9.652   2.451  0.0036  1.5432  1.4294
  368MOL0     H49654  10.796   9.634   2.658 -1.1350 -0.6152 -1.0258
  368MOL0     H49655  10.685   9.751   2.592 -0.7102 -3.6722 -3.9488
  368MOL0     H49656  10.984   9.815   2.640  0.1730 -1.4789  1.1240
  368MOL0     H49657  10.884   9.912   2.550  3.9583 -2.7277 -1.9011
  368MOL0     H49658  10.751   9.988   2.715  0.0523  0.0663 -1.9242
  368MOL0     H49659  10.899   9.981   2.798 -0.9251 -0.8202  1.3299
  368MOL0     H49660  10.820   9.737   2.868  0.3358  0.0521  0.7018
  368MOL0     H49661  10.661   9.808   2.831 -0.0573 -0.8560  1.4537
  368MOL0     H49662  10.800   9.695   1.735 -1.1433  1.8182  1.3030
  368MOL0     H49663  10.941   9.812   1.570  0.0520 -0.0531  0.2831
  368MOL0     H49664  11.384   9.627   1.294  0.0551  0.2914 -2.8111
  368MOL0     H49665  11.463   9.760   1.101 -2.8444  0.2540 -1.5097
  368MOL0     H49666  10.521  10.419   0.813 -0.8879 -2.0302  0.1900
  368MOL0     H49667  10.305  10.349   0.928  0.0693 -0.1847 -0.4174
  368MOL0     H49668  10.079  10.246   1.252 -1.9443  2.0247  4.5823
  368MOL0     H49669   9.892  10.240   1.370 -2.2701  0.8414  0.1911
  368MOL0     H49670   9.667  10.155   1.455  3.8152  0.9560  0.9220
  368MOL0     H49671   9.683  10.334   1.454  1.8586 -1.8324 -0.0782
  368MOL0     H49672   9.426  10.176   1.445  1.9098 -1.0384  0.9092
  368MOL0     H49673   9.432  10.340   1.394 -1.4779 -3.4992 -0.7002
  368MOL0     H49674   9.513  10.397   1.640 -1.0551 -0.0877  3.0174
  368MOL0     H49675   9.541  10.231   1.665  0.7920 -0.8411  0.3410
  368MOL0     H49676   9.293  10.170   1.604 -1.3653 -0.9422  0.5889
  368MOL0     H49677   9.276  10.359   1.599  0.5524  0.9537  0.4423
  368MOL0     H49678   9.298  10.349   2.008  1.3161  0.0237  0.1127
  368MOL0     H49679   9.637  10.253   1.023  0.3397  1.8392  0.5276
  368MOL0     H49680   9.843  10.211   0.882 -2.5450 -3.4461  0.2839
  369MOL0     O49681   1.931  10.610   2.730  0.6126 -0.0761 -0.3892
  369MOL0     C49682   1.981  10.511   2.777 -0.6073  0.4038  0.4124
  369MOL0     O49683   1.935  10.387   2.767  0.7150 -0.5319 -0.0178
  369MOL0     C49684   1.802  10.372   2.737  0.1410  0.6435  0.2286
  369MOL0     C49685   1.718  10.311   2.831  0.5764  0.3675  0.4661
  369MOL0     C49686   1.580  10.301   2.814 -0.6039  0.2575 -0.0465
  369MOL0     C49687   1.519  10.366   2.713 -0.8625 -0.3077 -0.3202
  369MOL0     O49688   1.382  10.364   2.694  0.4897 -0.4251  0.2212
  369MOL0     C49689   1.302  10.429   2.596 -0.3882 -0.2192  0.4122
  369MOL0     C49690   1.158  10.403   2.634 -1.2748  0.1928 -0.6542
  369MOL0     C49691   1.074  10.445   2.514 -0.1568 -0.3483 -0.0392
  369MOL0     C49692   0.935  10.415   2.546  1.0152 -0.3231  0.0326
  369MOL0     C49693   0.833  10.421   2.430 -0.1647  0.1264  0.7906
  369MOL0     C49694   0.700  10.399   2.508  0.8093 -0.6481 -0.1865
  369MOL0     C49695   0.584  10.372   2.402  0.2461 -0.2787 -0.5531
  369MOL0     C49696   0.599  10.424   2.263  0.8666  0.2439  0.0374
  369MOL0     N49697   0.505  10.532   2.233  0.3117  0.4619 -0.5230
  369MOL0     C49698   0.395  10.524   2.151 -0.0187 -0.5985  0.6250
  369MOL0     C49699   0.360  10.657   2.134 -0.2124  0.2113  0.0541
  369MOL0     C49700   0.255  10.705   2.039 -0.4480 -0.2110 -0.6742
  369MOL0     C49701   0.113  10.699   2.081  0.6524  0.4490  0.2365
  369MOL0     C49702   0.049  10.563   2.130 -0.1572  0.0735  0.4002
  369MOL0     C49703  -0.095  10.584   2.175  0.8250  0.0616 -0.5342
  369MOL0     O49704  -0.184  10.535   2.075  0.1859 -1.3426  0.0894
  369MOL0     C49705  -0.224  10.626   1.980  1.1530 -0.6846 -1.1730
  369MOL0     C49706  -0.347  10.680   1.997 -0.4778 -0.7344 -0.3753
  369MOL0     C49707  -0.386  10.795   1.933  0.0428  0.3926  0.3708
  369MOL0     C49708  -0.507  10.861   1.977 -0.7435 -0.4603  0.7885
  369MOL0     C49709  -0.311  10.836   1.812  0.4922 -0.6919  0.2067
  369MOL0     C49710  -0.363  10.954   1.727  0.0991  1.1575 -1.1992
  369MOL0     O49711  -0.498  10.995   1.740 -0.6375  0.0912 -0.2296
  369MOL0     C49712  -0.537  11.106   1.669 -0.4196  0.3101 -1.1401
  369MOL0     C49713  -0.598  11.088   1.545 -0.7312 -0.0679  0.1234
  369MOL0     C49714  -0.643  11.202   1.477 -0.0243 -0.4873 -0.1022
  369MOL0     C49715  -0.604  11.327   1.512  0.4172 -0.4323  0.1580
  369MOL0     O49716  -0.642  11.440   1.456  0.5250  0.2415  0.3343
  369MOL0     C49717  -0.721  11.446   1.333 -0.3892 -1.0196 -0.4928
  369MOL0     C49718  -0.762  11.592   1.299  0.7583  0.4942  0.3475
  369MOL0     C49719  -0.829  11.616   1.163  0.7554  0.5115 -0.6142
  369MOL0     C49720  -0.873  11.767   1.142 -0.7969  0.6052 -1.2951
  369MOL0     C49721  -1.006  11.798   1.075 -0.3163  0.3576  1.1672
  369MOL0     C49722  -0.993  11.770   0.923 -0.3631  0.3398 -0.5432
  369MOL0     C49723  -1.121  11.792   0.842 -0.2984  0.2367  0.7294
  369MOL0     C49724  -1.090  11.865   0.708 -0.4035  0.9810  0.9064
  369MOL0    Cl49725  -0.951  11.796   0.614  0.3859  0.2255  0.1925
  369MOL0     C49726  -0.541  11.346   1.636 -0.3483  0.2722 -0.9080
  369MOL0     C49727  -0.503  11.238   1.714 -0.2298  1.3018  0.7647
  369MOL0     O49728  -0.268  11.003   1.660  0.0375  0.5558  0.3223
  369MOL0     C49729  -0.189  10.766   1.783  0.3475  0.7878 -0.2446
  369MOL0     C49730  -0.144  10.667   1.871  0.6638 -0.7188  0.5057
  369MOL0     N49731   0.430  10.746   2.223  0.4679 -0.2605 -0.6374
  369MOL0     N49732   0.523  10.667   2.277  0.4231 -0.1759  0.3243
  369MOL0     C49733   1.601  10.429   2.611 -0.3470  0.0813 -0.3473
  369MOL0     C49734   1.742  10.419   2.625  0.8825  0.2930  0.6441
  369MOL0     C49735   2.099  10.514   2.864  0.1974 -0.7159  0.1415
  369MOL0     C49736   2.161  10.643   2.863 -1.2586  0.1010 -0.0149
  369MOL0     C49737   2.266  10.672   2.956 -0.1165  0.7045 -1.1485
  369MOL0     C49738   2.302  10.581   3.058  0.0604  0.2497 -0.4287
  369MOL0     O49739   2.401  10.603   3.148  0.3707  0.1963 -0.1889
  369MOL0     C49740   2.447  10.736   3.167 -0.2834  0.3210  0.6238
  369MOL0     C49741   2.514  10.728   3.308  0.6198 -0.1601 -0.0168
  369MOL0     C49742   2.412  10.720   3.419 -0.4000  0.3371 -0.7670
  369MOL0     C49743   2.477  10.764   3.564 -0.4105 -0.3126  0.1531
  369MOL0     C49744   2.489  10.913   3.579 -0.4039 -0.4476 -0.3723
  369MOL0     C49745   2.493  11.033   3.594  1.1787 -1.2998  0.1698
  369MOL0     C49746   2.241  10.455   3.051 -0.1195 -0.1553 -0.0078
  369MOL0     C49747   2.146  10.414   2.948  0.0472  0.4752  0.5790
  369MOL0     H49748   1.765  10.255   2.912  0.3745  0.9705  1.0094
  369MOL0     H49749   1.515  10.240   2.875 -1.5785  2.4042  1.1686
  369MOL0     H49750   1.314  10.538   2.600  2.5146 -0.4695  0.4443
  369MOL0     H49751   1.325  10.394   2.495  1.6471  0.8085  0.4681
  369MOL0     H49752   1.143  10.298   2.661  3.2618 -0.6622 -0.7111
  369MOL0     H49753   1.157  10.470   2.720 -0.2780  1.2969 -1.4698
  369MOL0     H49754   1.085  10.549   2.482  1.2839 -1.2599 -2.8148
  369MOL0     H49755   1.109  10.379   2.434  2.7336  1.2330 -0.2052
  369MOL0     H49756   0.927  10.318   2.596 -3.5562 -0.2089 -0.0694
  369MOL0     H49757   0.917  10.489   2.625 -0.8776 -1.8466  1.1260
  369MOL0     H49758   0.836  10.515   2.374 -0.1836 -1.7749 -2.7188
  369MOL0     H49759   0.858  10.339   2.361  1.1903 -0.6506  2.1256
  369MOL0     H49760   0.707  10.312   2.573  0.7328 -1.6594 -1.4828
  369MOL0     H49761   0.689  10.487   2.571 -1.0159  0.5154 -2.0046
  369MOL0     H49762   0.575  10.263   2.394 -2.2028 -0.0584 -1.7281
  369MOL0     H49763   0.491  10.419   2.437  2.1628  3.1960  0.3625
  369MOL0     H49764   0.581  10.345   2.189 -0.3404  0.6657 -0.1415
  369MOL0     H49765   0.694  10.472   2.240  0.2759  0.9915 -0.9391
  369MOL0     H49766   0.343  10.442   2.103 -0.4989  0.3395 -0.4843
  369MOL0     H49767   0.279  10.806   2.007 -0.5949  0.3709  0.9332
  369MOL0     H49768   0.263  10.642   1.950 -3.6217  2.4485 -3.1122
  369MOL0     H49769   0.051  10.754   2.010  2.5486  1.0411 -1.0492
  369MOL0     H49770   0.106  10.761   2.171  0.6074  1.4746 -0.4618
  369MOL0     H49771   0.110  10.524   2.211  0.6761  4.2951  2.0390
  369MOL0     H49772   0.050  10.488   2.050  1.0206 -1.2684  1.6234
  369MOL0     H49773  -0.111  10.690   2.194 -0.1344 -0.1983  0.1904
  369MOL0     H49774  -0.135  10.525   2.258  2.9507  1.5328  1.6550
  369MOL0     H49775  -0.417  10.644   2.071  0.6649 -0.4440  0.8958
  369MOL0     H49776  -0.585  10.843   1.903 -2.7726  1.1262  2.3894
  369MOL0     H49777  -0.542  10.827   2.075  2.7511  1.1623  2.8026
  369MOL0     H49778  -0.481  10.967   1.979 -3.0849  0.2072 -0.7014
  369MOL0     H49779  -0.610  10.984   1.516  0.3190 -0.4751  1.0839
  369MOL0     H49780  -0.707  11.174   1.394  1.3362 -4.2908 -0.0557
  369MOL0     H49781  -0.675  11.405   1.242 -1.7432 -2.0804 -0.7312
  369MOL0     H49782  -0.803  11.377   1.356 -1.5022 -0.0900 -1.5133
  369MOL0     H49783  -0.840  11.625   1.368 -1.1644  1.1814 -1.9799
  369MOL0     H49784  -0.677  11.662   1.295  1.6519 -0.6020 -2.5069
  369MOL0     H49785  -0.916  11.550   1.170 -1.1358  2.8790 -0.5835
  369MOL0     H49786  -0.771  11.586   1.075  2.2395  2.8814 -0.5072
  369MOL0     H49787  -0.878  11.809   1.242 -0.7059  0.4605 -1.2282
  369MOL0     H49788  -0.788  11.820   1.098 -0.1932  0.4465 -0.3553
  369MOL0     H49789  -1.039  11.901   1.094 -7.0261 -0.8980 -1.0747
  369MOL0     H49790  -1.088  11.747   1.125 -1.7332  0.6477 -0.7705
  369MOL0     H49791  -0.914  11.838   0.893  2.7948 -0.5892  4.4413
  369MOL0     H49792  -0.954  11.669   0.905 -0.8946 -0.6088  2.7627
  369MOL0     H49793  -1.190  11.851   0.903  2.1917  3.1787  0.9377
  369MOL0     H49794  -1.181  11.704   0.816 -1.4566  2.1442 -4.1638
  369MOL0     H49795  -1.055  11.968   0.723 -1.6878  1.4819  0.5495
  369MOL0     H49796  -1.180  11.885   0.650  0.8376  4.2460 -0.1119
  369MOL0     H49797  -0.509  11.443   1.671  1.4403 -0.5721 -0.0209
  369MOL0     H49798  -0.427  11.260   1.789  2.7453  1.9306 -2.1627
  369MOL0     H49799  -0.128  10.782   1.695  0.1308  0.4151 -0.4688
  369MOL0     H49800  -0.045  10.629   1.846  0.4539 -0.2030 -1.2956
  369MOL0     H49801   1.569  10.489   2.526  1.9861  1.5392 -0.2575
  369MOL0     H49802   1.798  10.479   2.553 -2.6365  1.2713 -1.5241
  369MOL0     H49803   2.112  10.717   2.800  1.2656 -0.3319 -2.6657
  369MOL0     H49804   2.308  10.772   2.965 -0.8213  0.8049  1.8978
  369MOL0     H49805   2.522  10.766   3.094  1.8871 -2.1627  1.6871
  369MOL0     H49806   2.363  10.807   3.170 -2.5226 -2.1261 -0.0810
  369MOL0     H49807   2.566  10.823   3.323 -0.4009  0.4175 -0.0649
  369MOL0     H49808   2.578  10.639   3.310 -0.2097 -0.7786 -0.4595
  369MOL0     H49809   2.377  10.617   3.424  4.0744 -1.7481 -4.6592
  369MOL0     H49810   2.331  10.790   3.397  2.2160  3.4523 -1.3495
  369MOL0     H49811   2.575  10.716   3.559  0.5799  1.4398  1.5261
  369MOL0     H49812   2.420  10.726   3.650  0.1021 -3.8403 -0.9028
  369MOL0     H49813   2.516  11.137   3.608  1.2804 -0.9088 -2.5378
  369MOL0     H49814   2.266  10.377   3.123 -1.0491 -0.3019  0.1634
  369MOL0     H49815   2.085  10.326   2.938  1.3857 -0.2072 -4.4904
  370MOL0     O49816   1.300   5.308   8.481  0.2083  0.1397 -0.8861
  370MOL0     C49817   1.293   5.383   8.382 -0.1358  1.0134  0.0138
  370MOL0     O49818   1.236   5.503   8.382  0.3786  0.2896  0.1921
  370MOL0     C49819   1.182   5.536   8.506 -0.5283  0.1076  0.7558
  370MOL0     C49820   1.255   5.625   8.586 -0.1090 -0.9639 -0.0330
  370MOL0     C49821   1.210   5.658   8.708  0.5363  0.8681 -0.7830
  370MOL0     C49822   1.087   5.595   8.758 -0.3948 -0.1839 -0.0995
  370MOL0     O49823   1.054   5.595   8.897 -0.4544 -0.2527  0.5621
  370MOL0     C49824   1.155   5.643   8.982 -0.3787 -0.7408 -1.7408
  370MOL0     C49825   1.108   5.631   9.131  0.1050  0.4010  0.3796
  370MOL0     C49826   0.978   5.692   9.160  1.0702 -0.0590 -0.5803
  370MOL0     C49827   0.954   5.709   9.311  0.9045  0.6182 -0.3464
  370MOL0     C49828   0.806   5.701   9.352 -1.3031 -0.4931  0.3873
  370MOL0     C49829   0.786   5.769   9.484 -0.1598  0.8466  0.3629
  370MOL0     C49830   0.660   5.767   9.559  0.7150 -0.5324 -0.1211
  370MOL0     C49831   0.566   5.654   9.528  0.2142  0.4862 -0.5147
  370MOL0     N49832   0.455   5.656   9.632  0.7549 -0.1465  0.5109
  370MOL0     C49833   0.461   5.674   9.771 -0.6232 -0.3988 -1.5807
  370MOL0     C49834   0.335   5.659   9.820 -0.6466 -0.2883  0.0152
  370MOL0     C49835   0.284   5.680   9.962  0.1542  0.2097 -0.3213
  370MOL0     C49836   0.359   5.582  10.040  0.8780  0.9288 -0.3438
  370MOL0     C49837   0.313   5.433  10.027  0.7706  0.3950  0.2181
  370MOL0     C49838   0.165   5.396  10.044  0.3191  0.3571  0.0765
  370MOL0     O49839   0.100   5.450  10.158 -0.3078 -0.3560  0.4683
  370MOL0     C49840   0.133   5.403  10.281 -0.5511  0.9926  0.7119
  370MOL0     C49841   0.194   5.494  10.368  0.1987  0.4774  0.3319
  370MOL0     C49842   0.244   5.453  10.490  0.4850  0.9285 -0.0439
  370MOL0     C49843   0.293   5.557  10.595  0.0011  0.2330 -0.1426
  370MOL0     C49844   0.216   5.312  10.526 -0.3116 -0.5499  0.2679
  370MOL0     C49845   0.257   5.255  10.652 -0.6681 -0.3432  0.6761
  370MOL0     O49846   0.369   5.179  10.630  0.5254 -1.0252 -0.7763
  370MOL0     C49847   0.442   5.122  10.737  0.4137 -0.6901 -0.2002
  370MOL0     C49848   0.540   5.192  10.809  0.4817  0.6525  0.0778
  370MOL0     C49849   0.622   5.131  10.896  0.3953 -0.2392 -0.0147
  370MOL0     C49850   0.604   4.996  10.932 -0.1659  0.0531 -0.4001
  370MOL0     O49851   0.700   4.925  11.002 -0.1014 -0.2102 -1.1665
  370MOL0     C49852   0.658   4.858  11.126 -1.2012  0.3832 -0.0198
  370MOL0     C49853   0.778   4.804  11.192 -0.7158 -0.0838  0.7707
  370MOL0     C49854   0.838   4.684  11.126  0.6373 -0.6316 -0.2961
  370MOL0     C49855   0.956   4.623  11.201 -0.3658  0.4467 -0.5793
  370MOL0     C49856   1.008   4.488  11.134 -0.1601 -0.2254 -0.2293
  370MOL0     C49857   1.122   4.425  11.207  0.6419  0.7763 -0.6277
  370MOL0     C49858   1.073   4.362  11.339  0.0450  0.1740 -0.4853
  370MOL0     C49859   1.177   4.265  11.379 -0.7414 -0.5990  0.0201
  370MOL0    Cl49860   1.177   4.250  11.567 -0.2049 -0.5940 -0.4203
  370MOL0     C49861   0.494   4.931  10.864 -0.2905 -0.7796  0.2584
  370MOL0     C49862   0.416   4.990  10.766 -0.6667 -0.1835 -0.1717
  370MOL0     O49863   0.208   5.279  10.761 -0.1599 -0.7569  0.0167
  370MOL0     C49864   0.161   5.219  10.435 -0.8611 -0.2142  0.3426
  370MOL0     C49865   0.118   5.258  10.315 -0.1190  0.5374  0.3997
  370MOL0     N49866   0.250   5.625   9.710  0.7931 -0.8134 -0.5793
  370MOL0     N49867   0.317   5.632   9.607 -1.5405 -0.4270 -1.3148
  370MOL0     C49868   1.009   5.520   8.673  0.9393  0.5221 -0.0152
  370MOL0     C49869   1.064   5.486   8.553 -0.5584  0.0096  0.7239
  370MOL0     C49870   1.358   5.334   8.255  0.2639 -0.3607  0.9081
  370MOL0     C49871   1.377   5.204   8.232  0.3531  0.4235 -0.2275
  370MOL0     C49872   1.435   5.160   8.111  0.8489 -0.6778 -0.6287
  370MOL0     C49873   1.480   5.250   8.010 -0.4571 -0.1366  0.8928
  370MOL0     O49874   1.539   5.219   7.883 -0.3225  0.1984 -0.2111
  370MOL0     C49875   1.587   5.086   7.861  0.2462  0.5865 -0.3173
  370MOL0     C49876   1.487   4.983   7.817 -0.4003 -0.9954  0.5905
  370MOL0     C49877   1.526   4.828   7.854  0.5127 -0.8064 -0.2805
  370MOL0     C49878   1.502   4.788   7.999  0.5123  0.4442  0.3651
  370MOL0     C49879   1.358   4.803   8.037  0.2724  0.0903 -0.4703
  370MOL0     C49880   1.244   4.844   8.047  0.2708  0.0615  0.4308
  370MOL0     C49881   1.459   5.393   8.039 -0.6061 -0.5017 -0.1543
  370MOL0     C49882   1.391   5.426   8.155 -0.7638 -0.1483  0.0946
  370MOL0     H49883   1.357   5.650   8.561 -0.5212 -1.2895 -2.2436
  370MOL0     H49884   1.270   5.716   8.778  1.1060 -3.0442  2.3676
  370MOL0     H49885   1.244   5.582   8.963 -0.1875 -1.3070  0.6799
  370MOL0     H49886   1.179   5.749   8.967  0.6666 -1.1891 -3.6033
  370MOL0     H49887   1.109   5.524   9.154  1.7681 -0.1021 -1.6822
  370MOL0     H49888   1.184   5.680   9.192 -0.4187  1.2487  0.3661
  370MOL0     H49889   0.968   5.790   9.112 -0.6421  0.0043 -0.1641
  370MOL0     H49890   0.896   5.637   9.112 -1.2515  0.4416  2.5129
  370MOL0     H49891   0.998   5.633   9.375 -0.9472  2.1437  3.0187
  370MOL0     H49892   0.994   5.809   9.332 -0.4594  1.1666 -0.2213
  370MOL0     H49893   0.745   5.747   9.273  1.0192 -1.9970 -2.4920
  370MOL0     H49894   0.774   5.596   9.352  1.7203 -1.5234  1.6166
  370MOL0     H49895   0.854   5.713   9.549 -3.1856 -3.8024  0.0079
  370MOL0     H49896   0.809   5.875   9.469 -2.7798  1.2890 -1.1443
  370MOL0     H49897   0.695   5.765   9.663  0.1581 -1.2111  0.0588
  370MOL0     H49898   0.622   5.868   9.544  0.2180 -0.3333  2.0748
  370MOL0     H49899   0.622   5.561   9.546  2.1813  1.6719 -0.1586
  370MOL0     H49900   0.523   5.637   9.429  0.7032 -4.7602 -0.1285
  370MOL0     H49901   0.552   5.679   9.830 -0.5127  1.3428 -1.8521
  370MOL0     H49902   0.303   5.777  10.008 -4.0221  2.2514 -2.3938
  370MOL0     H49903   0.177   5.682   9.987  0.2358 -2.2917  0.6372
  370MOL0     H49904   0.340   5.612  10.143 -0.4343  0.4545 -0.4239
  370MOL0     H49905   0.466   5.593  10.023  1.0412 -2.3274 -2.2382
  370MOL0     H49906   0.358   5.372  10.106 -0.4140  0.5520  1.0288
  370MOL0     H49907   0.349   5.397   9.930 -2.3112 -1.6914 -0.2918
  370MOL0     H49908   0.151   5.288  10.032 -0.2160  0.6454 -2.2961
  370MOL0     H49909   0.107   5.435   9.960 -2.9659 -1.7086  1.1273
  370MOL0     H49910   0.211   5.595  10.332 -0.3967  0.3724 -0.2705
  370MOL0     H49911   0.239   5.554  10.690 -1.5913  1.8205 -0.9394
  370MOL0     H49912   0.400   5.536  10.600  0.4560  2.0960 -1.3022
  370MOL0     H49913   0.288   5.658  10.552  1.5565  0.2848 -0.2370
  370MOL0     H49914   0.546   5.299  10.790  2.4000  0.3283 -1.5490
  370MOL0     H49915   0.706   5.180  10.944  1.0913 -0.9439 -0.4807
  370MOL0     H49916   0.638   4.941  11.195  3.2950  0.6074  1.3406
  370MOL0     H49917   0.572   4.791  11.118  0.6058 -2.0100 -0.3382
  370MOL0     H49918   0.850   4.885  11.204  0.0633 -0.3077 -1.8432
  370MOL0     H49919   0.756   4.769  11.293  1.9128  1.2585  1.9123
  370MOL0     H49920   0.885   4.718  11.033  2.7629  0.1811  0.9891
  370MOL0     H49921   0.757   4.611  11.115  0.3091 -0.8969  2.9509
  370MOL0     H49922   1.035   4.698  11.207 -1.6424  1.8091 -0.4777
  370MOL0     H49923   0.942   4.593  11.305  3.1420 -1.5959 -0.5214
  370MOL0     H49924   1.046   4.508  11.033  1.8658  2.8486  0.9983
  370MOL0     H49925   0.918   4.426  11.127  0.3039 -0.7759 -1.8025
  370MOL0     H49926   1.162   4.343  11.148 -1.5896 -1.1332  0.3638
  370MOL0     H49927   1.206   4.492  11.230  2.6615 -1.5935 -0.6754
  370MOL0     H49928   0.976   4.315  11.318 -0.4193 -0.0251  1.8336
  370MOL0     H49929   1.054   4.443  11.410 -3.7604 -1.9975  1.2995
  370MOL0     H49930   1.272   4.296  11.335 -0.2265 -0.8284  0.9379
  370MOL0     H49931   1.146   4.169  11.337 -0.0309  0.1035 -2.2482
  370MOL0     H49932   0.468   4.831  10.896  0.4747 -0.7704  0.9366
  370MOL0     H49933   0.347   4.934  10.704 -1.5978  1.6998 -0.9085
  370MOL0     H49934   0.157   5.114  10.460 -0.2670 -0.3012  0.0751
  370MOL0     H49935   0.059   5.197  10.247 -0.8393  1.1675  0.4373
  370MOL0     H49936   0.918   5.471   8.707  1.2454  0.3199  0.5344
  370MOL0     H49937   1.010   5.428   8.479  0.6379 -0.5329  0.2581
  370MOL0     H49938   1.338   5.127   8.297 -0.7946 -0.0439 -1.4322
  370MOL0     H49939   1.432   5.051   8.107 -1.5454 -1.0200  3.8411
  370MOL0     H49940   1.662   5.100   7.782 -0.2584  3.1474 -0.4161
  370MOL0     H49941   1.635   5.042   7.949  0.8294 -0.7173 -1.2485
  370MOL0     H49942   1.476   5.005   7.710 -1.5983  0.1680  0.9181
  370MOL0     H49943   1.399   5.014   7.874  1.0246  0.8223  1.9036
  370MOL0     H49944   1.628   4.793   7.831  0.1596 -0.7510 -2.0456
  370MOL0     H49945   1.465   4.764   7.790  1.0624  0.6496 -2.3639
  370MOL0     H49946   1.565   4.854   8.059  3.0053 -0.9258 -0.5713
  370MOL0     H49947   1.533   4.684   8.013  1.1753  0.5816 -0.0562
  370MOL0     H49948   1.145   4.880   8.066  0.0299 -1.4267  2.2190
  370MOL0     H49949   1.500   5.459   7.964  2.9144 -0.7738  1.3359
  370MOL0     H49950   1.362   5.527   8.182 -0.9912 -0.1505 -0.1407
  371MOL0     O49951   2.496  10.168   7.263  0.2052  0.3093 -0.5202
  371MOL0     C49952   2.602  10.208   7.317  0.3954 -0.0997 -0.7845
  371MOL0     O49953   2.722  10.230   7.255  0.5024  0.0188  0.1261
  371MOL0     C49954   2.728  10.166   7.134 -0.8309 -0.0095  0.8517
  371MOL0     C49955   2.700  10.034   7.116  0.2124 -0.1211 -0.8047
  371MOL0     C49956   2.741   9.970   6.999  0.2523 -0.0563  0.1776
  371MOL0     C49957   2.794  10.040   6.892  0.7073  1.2000  0.5072
  371MOL0     O49958   2.823   9.967   6.783 -0.2769  0.6491 -0.3697
  371MOL0     C49959   2.933  10.007   6.701  0.3798  0.2536 -0.1147
  371MOL0     C49960   2.971   9.892   6.603 -0.5462  0.2579  0.6707
  371MOL0     C49961   2.854   9.886   6.495 -0.1264  0.0785 -0.7785
  371MOL0     C49962   2.897   9.834   6.365 -0.2984 -0.6575 -0.1963
  371MOL0     C49963   2.784   9.857   6.265  0.5463 -0.3008  0.0842
  371MOL0     C49964   2.804   9.791   6.126  0.5826 -0.4829 -0.1749
  371MOL0     C49965   2.751   9.641   6.130 -0.7208 -1.5223 -0.3106
  371MOL0     C49966   2.767   9.567   5.989  0.7773  0.3406 -0.0311
  371MOL0     N49967   2.853   9.448   6.020  0.2938 -1.1129 -0.7959
  371MOL0     C49968   2.989   9.438   6.010 -0.5025 -0.1603  0.6557
  371MOL0     C49969   3.026   9.324   6.075  0.7200 -0.0801  0.0010
  371MOL0     C49970   3.160   9.270   6.118  0.3598 -0.1717  0.3798
  371MOL0     C49971   3.194   9.131   6.056 -0.0805 -0.3427 -0.5013
  371MOL0     C49972   3.229   9.121   5.904  0.1569 -0.1376  1.4551
  371MOL0     C49973   3.253   8.968   5.860 -0.1813 -0.2650  0.4957
  371MOL0     O49974   3.247   8.960   5.713  0.4370  0.4425  0.0998
  371MOL0     C49975   3.333   9.044   5.644  0.8019 -0.7623 -0.0865
  371MOL0     C49976   3.280   9.099   5.533 -0.7032  0.4260 -0.2738
  371MOL0     C49977   3.348   9.193   5.456 -0.1964  0.0782 -0.7773
  371MOL0     C49978   3.263   9.261   5.348 -0.4471  0.0189 -0.3270
  371MOL0     C49979   3.480   9.214   5.478  0.6040  0.7166 -0.1433
  371MOL0     C49980   3.569   9.303   5.396 -0.1446 -0.7375 -0.1398
  371MOL0     O49981   3.706   9.257   5.380 -0.0027 -0.6163  0.4088
  371MOL0     C49982   3.780   9.342   5.304  0.1226  0.1003  0.7155
  371MOL0     C49983   3.846   9.457   5.350 -0.3206 -0.4198 -0.1967
  371MOL0     C49984   3.938   9.535   5.278 -0.4305  0.8240 -0.2767
  371MOL0     C49985   3.978   9.490   5.151 -0.8226  0.2198  1.2163
  371MOL0     O49986   4.071   9.545   5.064 -0.2001 -0.5812 -0.1559
  371MOL0     C49987   4.159   9.631   5.135  0.3199 -0.2875 -0.4638
  371MOL0     C49988   4.282   9.647   5.059  0.7644  0.5504 -0.3254
  371MOL0     C49989   4.267   9.700   4.920  0.6149  0.1632  0.8036
  371MOL0     C49990   4.410   9.725   4.869 -0.3788 -0.4362 -0.6511
  371MOL0     C49991   4.407   9.763   4.720  0.6682  0.5844 -0.1087
  371MOL0     C49992   4.302   9.877   4.677  0.2785 -0.4459 -0.1736
  371MOL0     C49993   4.309   9.914   4.529  0.5433  0.6262 -0.1702
  371MOL0     C49994   4.200  10.014   4.488 -1.2291 -0.7234 -0.3627
  371MOL0    Cl49995   4.052   9.941   4.438 -0.5568  0.2136  0.1048
  371MOL0     C49996   3.903   9.387   5.088 -0.4126  0.5751  0.2505
  371MOL0     C49997   3.816   9.306   5.172 -0.0958 -0.3582  1.1716
  371MOL0     O49998   3.521   9.404   5.356  0.0084  0.8022  0.2695
  371MOL0     C49999   3.531   9.141   5.587  0.4240  0.0574 -0.1603
  371MOL0     C50000   3.458   9.056   5.677 -0.0244 -0.3418 -0.3717
  371MOL0     N50001   2.909   9.260   6.114  0.0410 -0.0421  0.3397
  371MOL0     N50002   2.807   9.330   6.071  0.5608 -0.3945 -0.1959
  371MOL0     C50003   2.815  10.175   6.897  1.1666  0.1492 -0.2058
  371MOL0     C50004   2.781  10.234   7.022 -0.8756  0.1074  0.0871
  371MOL0     C50005   2.580  10.246   7.464 -0.4196 -0.1717 -0.4100
  371MOL0     C50006   2.685  10.306   7.528  0.0699  0.4266 -0.1123
  371MOL0     C50007   2.665  10.339   7.663 -0.2900 -0.0317  0.4872
  371MOL0     C50008   2.547  10.314   7.734  0.5501 -0.6707 -0.3190
  371MOL0     O50009   2.548  10.358   7.864 -0.3475 -0.5798 -0.6579
  371MOL0     C50010   2.426  10.356   7.935 -0.2076 -0.0889 -0.4619
  371MOL0     C50011   2.454  10.443   8.056  0.1768  0.6128  0.6020
  371MOL0     C50012   2.328  10.472   8.125  0.4538 -0.5501  0.7034
  371MOL0     C50013   2.202  10.519   8.050 -0.2217  0.1530  0.2009
  371MOL0     C50014   2.123  10.408   8.009 -0.1585  0.5026  0.2623
  371MOL0     C50015   2.053  10.309   7.979  0.7621  0.5153 -0.7992
  371MOL0     C50016   2.445  10.250   7.668  0.1535 -0.1879 -0.5484
  371MOL0     C50017   2.463  10.219   7.538 -0.4930 -0.1518  0.2563
  371MOL0     H50018   2.666   9.970   7.197  4.2756 -2.7086 -0.8758
  371MOL0     H50019   2.729   9.862   6.991  3.3408 -0.6779  2.2891
  371MOL0     H50020   2.910  10.099   6.646 -0.1496  0.2684  0.1210
  371MOL0     H50021   3.012  10.023   6.774  0.6539 -0.1202 -0.3225
  371MOL0     H50022   3.068   9.905   6.554  0.1415 -1.2445  1.5492
  371MOL0     H50023   2.994   9.804   6.664 -2.2579 -0.8268 -0.1826
  371MOL0     H50024   2.764   9.835   6.531  0.3406 -0.4622 -0.3549
  371MOL0     H50025   2.834   9.992   6.473  0.0960  0.6590  1.5438
  371MOL0     H50026   2.988   9.885   6.332 -0.2792  0.5931  1.6280
  371MOL0     H50027   2.923   9.728   6.371  0.2236 -0.7940 -3.2081
  371MOL0     H50028   2.685   9.837   6.306 -0.0161 -1.4350 -1.6975
  371MOL0     H50029   2.780   9.964   6.244 -0.3416  0.1632  2.3651
  371MOL0     H50030   2.749   9.847   6.049  2.7805 -0.9557 -2.2229
  371MOL0     H50031   2.909   9.793   6.098  0.9964 -1.7574  1.1590
  371MOL0     H50032   2.823   9.598   6.200  0.7841  0.6694 -0.3822
  371MOL0     H50033   2.649   9.643   6.168 -1.6748  1.5780 -2.5819
  371MOL0     H50034   2.817   9.637   5.921 -0.4894  1.4401  0.1387
  371MOL0     H50035   2.666   9.538   5.957  0.1788  3.4500 -1.3218
  371MOL0     H50036   3.055   9.509   5.960  0.3752 -0.6017  1.1610
  371MOL0     H50037   3.241   9.339   6.092  0.1949 -0.2826 -0.4444
  371MOL0     H50038   3.159   9.259   6.227  3.9287  2.0097  0.7928
  371MOL0     H50039   3.105   9.069   6.071 -1.0111  1.3502  1.6192
  371MOL0     H50040   3.284   9.096   6.107  0.2463  2.1715  0.8197
  371MOL0     H50041   3.321   9.170   5.873  0.3426 -1.4323 -0.1716
  371MOL0     H50042   3.139   9.163   5.858 -1.6137 -3.2290  1.7884
  371MOL0     H50043   3.177   8.899   5.899 -2.1223  0.5655 -1.5831
  371MOL0     H50044   3.351   8.937   5.899  0.1322 -1.1530 -0.9462
  371MOL0     H50045   3.177   9.074   5.510  0.3620 -1.7038 -3.3936
  371MOL0     H50046   3.170   9.211   5.320 -0.0498 -1.4594  0.8572
  371MOL0     H50047   3.222   9.361   5.368 -0.4330  0.5491 -2.6485
  371MOL0     H50048   3.321   9.271   5.256  1.9157 -1.4924  0.9119
  371MOL0     H50049   3.833   9.487   5.454  0.0401  1.5469 -0.6870
  371MOL0     H50050   3.989   9.612   5.334  2.0535  0.6199 -2.0908
  371MOL0     H50051   4.107   9.727   5.143 -0.7501 -0.8352 -0.6312
  371MOL0     H50052   4.180   9.598   5.237 -2.1210 -2.0121 -0.4220
  371MOL0     H50053   4.336   9.724   5.115 -0.0587 -0.9911  2.7968
  371MOL0     H50054   4.344   9.557   5.057  1.6080  1.1204 -0.0283
  371MOL0     H50055   4.202   9.787   4.909  0.2093 -0.2929 -0.6315
  371MOL0     H50056   4.213   9.618   4.870 -0.9416  1.1082  0.8780
  371MOL0     H50057   4.460   9.806   4.922 -2.7946  1.2650 -0.8140
  371MOL0     H50058   4.467   9.633   4.886 -0.7010 -0.7424 -1.1981
  371MOL0     H50059   4.367   9.669   4.680 -5.1008  4.0454 -3.8733
  371MOL0     H50060   4.505   9.797   4.685 -0.4666  0.7259 -3.5617
  371MOL0     H50061   4.195   9.870   4.700  0.0269  1.1163 -0.7186
  371MOL0     H50062   4.342   9.964   4.729 -1.3815 -0.2662  0.8460
  371MOL0     H50063   4.311   9.824   4.466  3.4215  1.3745 -1.3080
  371MOL0     H50064   4.406   9.960   4.511  1.4866 -1.6523 -1.3970
  371MOL0     H50065   4.235  10.065   4.398  0.7137  0.6154  1.0741
  371MOL0     H50066   4.173  10.093   4.558 -1.6208  0.1395 -1.4521
  371MOL0     H50067   3.909   9.377   4.980 -3.1284  2.9519 -0.2644
  371MOL0     H50068   3.764   9.218   5.136  0.6064 -0.5872  0.6886
  371MOL0     H50069   3.638   9.134   5.605  0.3418 -2.4069 -0.2992
  371MOL0     H50070   3.511   9.013   5.761 -0.1179  0.4224  0.0906
  371MOL0     H50071   2.840  10.228   6.805 -0.6759 -0.8715 -1.3556
  371MOL0     H50072   2.789  10.342   7.012 -0.4910 -0.0854 -2.4655
  371MOL0     H50073   2.775  10.335   7.475  0.2540  2.7557  1.3479
  371MOL0     H50074   2.743  10.403   7.705 -0.9982  0.5702  0.9114
  371MOL0     H50075   2.351  10.402   7.870 -0.7583 -1.0228 -0.4982
  371MOL0     H50076   2.398  10.254   7.959 -0.1905  0.5675  2.7141
  371MOL0     H50077   2.495  10.535   8.012 -0.8151  1.8840  2.2510
  371MOL0     H50078   2.532  10.404   8.123  3.3884  3.4803 -1.1193
  371MOL0     H50079   2.357  10.554   8.191 -2.4212 -0.0722  1.5272
  371MOL0     H50080   2.293  10.390   8.189  0.1253  0.1864  1.4923
  371MOL0     H50081   2.233  10.568   7.958 -0.5842 -0.6828 -0.3787
  371MOL0     H50082   2.145  10.593   8.107 -0.6841 -1.1066  1.4394
  371MOL0     H50083   2.006  10.219   7.946 -0.8481  0.7491  0.7043
  371MOL0     H50084   2.367  10.224   7.738  1.6719  0.1144  1.3544
  371MOL0     H50085   2.393  10.158   7.482 -0.9703 -0.3163  1.0278
  372MOL0     O50086   0.401   7.345   2.974 -0.6581 -0.8460  0.1157
  372MOL0     C50087   0.341   7.250   3.023 -0.2896 -0.7521  0.3507
  372MOL0     O50088   0.408   7.135   3.050 -0.1842  0.0183 -0.3038
  372MOL0     C50089   0.529   7.095   2.992 -1.2729  0.4653  0.3070
  372MOL0     C50090   0.570   7.126   2.860  0.6062  0.0503  0.1568
  372MOL0     C50091   0.685   7.062   2.807 -0.3336 -0.3439  0.6486
  372MOL0     C50092   0.751   6.959   2.874  0.5564  0.3960  0.1078
  372MOL0     O50093   0.856   6.872   2.832 -0.9221  0.0470 -0.4498
  372MOL0     C50094   0.912   6.896   2.701 -0.0581 -0.2081  0.2871
  372MOL0     C50095   0.828   6.818   2.599  0.0526 -0.0598 -0.1046
  372MOL0     C50096   0.850   6.662   2.616 -0.2825 -0.1736 -0.9484
  372MOL0     C50097   0.743   6.581   2.553  0.2068  0.0560 -0.6451
  372MOL0     C50098   0.757   6.426   2.552 -0.3714 -0.2601 -0.1085
  372MOL0     C50099   0.616   6.378   2.507  0.5538 -0.7787  0.1348
  372MOL0     C50100   0.626   6.237   2.474 -1.1633  1.0880 -0.0899
  372MOL0     C50101   0.668   6.224   2.320  0.2721  0.0580 -0.1511
  372MOL0     N50102   0.697   6.086   2.293 -0.5943  0.1660  0.6372
  372MOL0     C50103   0.818   6.019   2.279  0.2218 -0.8303 -0.6255
  372MOL0     C50104   0.779   5.897   2.247 -0.4151 -0.4218  0.5042
  372MOL0     C50105   0.888   5.794   2.235 -0.1826 -0.9394  0.4741
  372MOL0     C50106   0.890   5.745   2.094  0.5267 -0.6004 -0.0342
  372MOL0     C50107   0.896   5.846   1.982 -0.2641 -0.2751  0.3719
  372MOL0     C50108   1.014   5.943   1.967 -0.0159 -0.3072  0.4109
  372MOL0     O50109   0.993   6.068   2.041 -0.6650 -0.4236 -1.0676
  372MOL0     C50110   1.100   6.152   2.061  0.2724  0.1054 -0.1085
  372MOL0     C50111   1.066   6.266   2.131 -1.1709 -0.0157 -0.7678
  372MOL0     C50112   1.162   6.367   2.153  0.4714  0.1630  0.3447
  372MOL0     C50113   1.125   6.476   2.243  0.3309  0.3031 -0.2477
  372MOL0     C50114   1.293   6.347   2.105 -0.3281 -0.7368 -0.8900
  372MOL0     C50115   1.407   6.450   2.115  0.5000  1.1502  0.4495
  372MOL0     O50116   1.528   6.413   2.145  0.2899 -0.0025  0.0762
  372MOL0     C50117   1.635   6.500   2.141 -0.2833 -0.2697 -1.1844
  372MOL0     C50118   1.653   6.644   2.156 -0.1293  1.1141  0.0877
  372MOL0     C50119   1.780   6.694   2.135 -0.3521 -0.2465  0.9548
  372MOL0     C50120   1.899   6.613   2.113  1.4838  1.1556  0.5992
  372MOL0     O50121   2.036   6.645   2.098  0.9649  0.3582 -0.2360
  372MOL0     C50122   2.075   6.740   2.193 -0.3045  0.2265 -0.5512
  372MOL0     C50123   2.216   6.772   2.169 -0.5809 -0.4319 -0.0768
  372MOL0     C50124   2.275   6.889   2.260 -0.9537  0.7481 -0.7837
  372MOL0     C50125   2.429   6.902   2.242  0.0196 -0.0639  0.3621
  372MOL0     C50126   2.486   7.036   2.291 -0.4974  0.5959 -0.2528
  372MOL0     C50127   2.632   7.021   2.311 -0.2407 -0.9736  0.1843
  372MOL0     C50128   2.702   7.165   2.326  0.5193 -0.6260 -0.1246
  372MOL0     C50129   2.848   7.149   2.336  0.0984  0.6698 -0.3210
  372MOL0    Cl50130   2.917   7.098   2.189  0.0188  0.5250 -0.1348
  372MOL0     C50131   1.876   6.476   2.106  0.5813 -0.4338 -0.3474
  372MOL0     C50132   1.748   6.426   2.127 -0.1624  0.1360 -0.1634
  372MOL0     O50133   1.375   6.568   2.084 -0.3954 -0.3292  0.6453
  372MOL0     C50134   1.326   6.228   2.044 -0.8184 -0.9536 -0.6255
  372MOL0     C50135   1.232   6.129   2.027  0.3352  0.9494  0.0316
  372MOL0     N50136   0.643   5.874   2.275 -0.4340  0.1065 -0.0325
  372MOL0     N50137   0.595   5.996   2.298  0.6345 -0.1622 -0.0388
  372MOL0     C50138   0.704   6.929   3.006 -0.0844 -0.2856  0.0209
  372MOL0     C50139   0.597   6.997   3.060  0.4222  0.7257  0.1028
  372MOL0     C50140   0.206   7.260   3.071 -0.0207 -0.0117 -1.9733
  372MOL0     C50141   0.161   7.192   3.188 -1.1718  0.6571  0.1648
  372MOL0     C50142   0.035   7.212   3.227 -0.3099  0.2138 -0.3586
  372MOL0     C50143  -0.054   7.288   3.152 -0.5571  0.4316 -0.3861
  372MOL0     O50144  -0.180   7.300   3.199 -0.3079  0.2388 -0.7051
  372MOL0     C50145  -0.275   7.208   3.170 -0.4514  0.0678 -0.0185
  372MOL0     C50146  -0.316   7.114   3.283  0.3493  0.5500  0.2298
  372MOL0     C50147  -0.469   7.084   3.254 -0.0671  1.1231  0.6292
  372MOL0     C50148  -0.520   6.967   3.345  0.5552 -0.7549  0.1356
  372MOL0     C50149  -0.496   6.977   3.487 -0.3683  0.6894 -0.6270
  372MOL0     C50150  -0.467   6.994   3.602  0.0087 -0.0957 -0.1968
  372MOL0     C50151  -0.019   7.346   3.027 -0.5030  0.8938 -1.0158
  372MOL0     C50152   0.114   7.326   2.989 -0.0157 -0.5126  0.8257
  372MOL0     H50153   0.519   7.193   2.792  4.2973  0.9831 -1.9800
  372MOL0     H50154   0.713   7.075   2.703 -2.6794 -2.3588 -0.3334
  372MOL0     H50155   0.899   6.999   2.668 -0.9804 -1.0086 -2.0873
  372MOL0     H50156   1.020   6.879   2.695  0.1183 -0.6153  3.4130
  372MOL0     H50157   0.724   6.836   2.625  0.4415 -1.7785  3.2403
  372MOL0     H50158   0.853   6.852   2.498 -1.7462 -2.6606 -1.5313
  372MOL0     H50159   0.950   6.635   2.581  0.5103  1.8080 -0.3160
  372MOL0     H50160   0.830   6.646   2.723  4.6863  1.5213  0.5399
  372MOL0     H50161   0.649   6.611   2.600  0.1941  0.7274 -1.0932
  372MOL0     H50162   0.743   6.616   2.449  1.7670 -0.2544 -0.7656
  372MOL0     H50163   0.845   6.401   2.492  0.4653 -0.4569  1.1655
  372MOL0     H50164   0.770   6.380   2.650 -3.0790 -0.3519  0.3006
  372MOL0     H50165   0.538   6.393   2.583 -1.3397 -2.3763 -1.3956
  372MOL0     H50166   0.583   6.426   2.415  1.7723 -1.6036 -0.7594
  372MOL0     H50167   0.692   6.180   2.540 -2.4819 -1.4682 -0.8451
  372MOL0     H50168   0.529   6.190   2.490  0.9597 -4.0435 -0.3474
  372MOL0     H50169   0.762   6.276   2.297  0.6696  0.1222  1.5227
  372MOL0     H50170   0.586   6.253   2.253 -1.5800 -0.9907  1.5532
  372MOL0     H50171   0.922   6.051   2.285  0.0270 -0.2259 -0.4254
  372MOL0     H50172   0.983   5.832   2.273 -2.0604  0.4781  4.2880
  372MOL0     H50173   0.857   5.707   2.293 -0.4408  0.1073  1.9650
  372MOL0     H50174   0.793   5.696   2.081  0.0663  0.3492 -0.3417
  372MOL0     H50175   0.974   5.681   2.068  1.3139  0.4683 -0.1799
  372MOL0     H50176   0.802   5.899   1.970 -3.0525 -5.1081 -2.5665
  372MOL0     H50177   0.888   5.799   1.883  3.7523  1.9105 -1.2268
  372MOL0     H50178   1.024   5.970   1.862  0.9539 -1.1328  0.2732
  372MOL0     H50179   1.108   5.890   1.988  1.3289  1.5308 -0.7270
  372MOL0     H50180   0.970   6.288   2.175  0.3216  1.6065  1.9289
  372MOL0     H50181   1.209   6.545   2.260 -1.9819  3.0922  0.5511
  372MOL0     H50182   1.036   6.531   2.212  0.5411  1.2626  0.8060
  372MOL0     H50183   1.108   6.427   2.340  1.1557  2.7703  1.2229
  372MOL0     H50184   1.566   6.701   2.186  0.1395  0.9043  1.3412
  372MOL0     H50185   1.799   6.801   2.134  3.9661 -0.8129  1.5972
  372MOL0     H50186   2.006   6.825   2.191 -1.0769 -0.3584  0.4230
  372MOL0     H50187   2.069   6.693   2.291  1.0913  2.5207  0.7282
  372MOL0     H50188   2.275   6.681   2.184  2.1390  1.0083 -1.4395
  372MOL0     H50189   2.232   6.796   2.063 -0.3752  1.1730  0.2989
  372MOL0     H50190   2.251   6.880   2.367 -4.2430  3.6724 -1.0789
  372MOL0     H50191   2.218   6.977   2.229  1.4732  3.0065  0.7391
  372MOL0     H50192   2.475   6.810   2.280  1.5559 -0.0696 -1.4033
  372MOL0     H50193   2.439   6.900   2.133 -3.1013 -1.5570 -0.0196
  372MOL0     H50194   2.444   7.068   2.387  0.6810  2.2876 -0.2519
  372MOL0     H50195   2.463   7.113   2.217  1.9409  0.5558 -1.1693
  372MOL0     H50196   2.649   6.956   2.398  3.5224 -3.3948 -2.0590
  372MOL0     H50197   2.683   6.968   2.230 -0.3910 -5.0184  2.4596
  372MOL0     H50198   2.667   7.211   2.419 -0.8719 -1.3898 -0.2301
  372MOL0     H50199   2.673   7.222   2.238  2.5006 -3.8363 -3.1230
  372MOL0     H50200   2.875   7.081   2.417 -0.6321  2.0682  1.1675
  372MOL0     H50201   2.889   7.249   2.359 -2.6640  1.3374  2.3071
  372MOL0     H50202   1.956   6.406   2.084  2.5471  1.8989 -1.0906
  372MOL0     H50203   1.718   6.321   2.129 -0.6025  0.2550 -0.3062
  372MOL0     H50204   1.425   6.213   2.004 -0.5738  0.0421 -0.4230
  372MOL0     H50205   1.256   6.031   1.987 -0.6628 -0.0796  1.8245
  372MOL0     H50206   0.745   6.839   3.050 -2.4060 -2.1032 -1.3273
  372MOL0     H50207   0.537   6.965   3.144  0.2753 -0.0022 -0.2652
  372MOL0     H50208   0.225   7.117   3.234 -0.4546  0.7812 -0.6099
  372MOL0     H50209  -0.009   7.164   3.314 -1.5506 -2.4280 -2.3008
  372MOL0     H50210  -0.367   7.264   3.149 -2.0005 -1.0569  3.1299
  372MOL0     H50211  -0.252   7.164   3.072 -2.1582 -1.1191  0.0526
  372MOL0     H50212  -0.304   7.170   3.377 -2.4187  0.8929  0.4715
  372MOL0     H50213  -0.257   7.023   3.278 -0.4008  0.1469 -2.0310
  372MOL0     H50214  -0.492   7.044   3.155 -0.1278  1.6053  0.4472
  372MOL0     H50215  -0.541   7.166   3.263 -0.9590  1.1226 -4.0066
  372MOL0     H50216  -0.458   6.880   3.320  2.2149  0.4911 -0.3468
  372MOL0     H50217  -0.628   6.957   3.339  0.4953 -0.2799  0.4007
  372MOL0     H50218  -0.452   7.021   3.705 -1.9198  2.2049 -0.4370
  372MOL0     H50219  -0.076   7.402   2.954  0.1833  0.4447 -1.9083
  372MOL0     H50220   0.139   7.365   2.891 -0.7807 -0.9531  0.4478
  373MOL0     O50221   2.641   3.715   3.326  0.6749  0.8899  0.5503
  373MOL0     C50222   2.718   3.816   3.326 -0.5595  0.5514  0.1624
  373MOL0     O50223   2.844   3.826   3.384 -0.2000  0.4996 -0.2679
  373MOL0     C50224   2.896   3.700   3.416 -0.3648 -0.3273  0.6366
  373MOL0     C50225   2.867   3.653   3.544 -0.1666  0.4740 -1.0415
  373MOL0     C50226   2.896   3.523   3.583 -0.2400 -0.7008  0.4494
  373MOL0     C50227   2.970   3.443   3.495  0.3387 -0.2340  0.2302
  373MOL0     O50228   2.983   3.309   3.528 -0.1919 -0.2583 -0.0007
  373MOL0     C50229   3.061   3.226   3.443  0.7610 -0.1723 -0.5018
  373MOL0     C50230   3.072   3.083   3.489  0.9949 -0.6227 -0.2075
  373MOL0     C50231   3.083   3.088   3.648 -0.0454 -0.0778  0.0976
  373MOL0     C50232   3.157   2.958   3.708  0.7156 -0.6197 -0.2532
  373MOL0     C50233   3.311   2.975   3.684 -0.3762 -0.6472  0.5085
  373MOL0     C50234   3.385   2.868   3.773  0.0390  0.0124  0.3016
  373MOL0     C50235   3.533   2.859   3.751 -0.8974  0.2389 -0.6262
  373MOL0     C50236   3.578   2.709   3.755  0.0870 -0.1244  0.0961
  373MOL0     N50237   3.718   2.683   3.772 -0.4588 -0.7511  0.0888
  373MOL0     C50238   3.776   2.662   3.897 -0.4466 -1.0885 -0.0522
  373MOL0     C50239   3.901   2.617   3.870  0.5830 -0.2468  0.4136
  373MOL0     C50240   4.007   2.583   3.970  0.1279 -0.8724 -0.2904
  373MOL0     C50241   4.001   2.430   4.006  0.5786 -0.9067  0.6749
  373MOL0     C50242   4.107   2.396   4.117 -0.4761 -1.4300 -0.1517
  373MOL0     C50243   4.129   2.252   4.146  0.6390  1.0129  0.6328
  373MOL0     O50244   4.220   2.215   4.254  0.2318  0.3430  0.3177
  373MOL0     C50245   4.213   2.083   4.297  0.0030  0.4114 -0.5622
  373MOL0     C50246   4.271   2.056   4.423  0.2973 -0.0755  1.6835
  373MOL0     C50247   4.265   1.932   4.484  0.5186  0.9168 -0.1875
  373MOL0     C50248   4.331   1.906   4.614  0.0051 -0.0726 -0.3589
  373MOL0     C50249   4.188   1.829   4.416 -0.3460  0.8988 -0.3804
  373MOL0     C50250   4.190   1.702   4.480  0.0617 -0.0336 -0.1513
  373MOL0     O50251   4.076   1.673   4.549  0.1461  0.9619 -0.8225
  373MOL0     C50252   4.087   1.558   4.624 -0.1434  0.1330 -0.5734
  373MOL0     C50253   4.132   1.559   4.755 -0.5982  1.0267  0.4415
  373MOL0     C50254   4.131   1.442   4.833  1.2292  0.2256 -0.1253
  373MOL0     C50255   4.083   1.316   4.773 -0.6397 -0.6871 -0.2554
  373MOL0     O50256   4.093   1.219   4.867  0.0156  0.1758  0.2784
  373MOL0     C50257   4.122   1.082   4.828 -0.5279  0.0439  1.1093
  373MOL0     C50258   4.139   0.998   4.954  0.0261  0.6035  0.2843
  373MOL0     C50259   4.138   0.846   4.926  0.2651  0.0888  0.4539
  373MOL0     C50260   4.159   0.755   5.053 -0.6748 -0.4683 -0.4876
  373MOL0     C50261   4.155   0.602   5.039 -0.5476  1.0091  0.0200
  373MOL0     C50262   4.028   0.551   4.970 -0.6988 -0.8048  0.0553
  373MOL0     C50263   3.998   0.406   4.982 -0.1484  0.0744  0.0345
  373MOL0     C50264   3.877   0.361   4.893  0.5349  0.3954 -0.3027
  373MOL0    Cl50265   3.721   0.448   4.920 -0.4185 -0.3669 -0.0330
  373MOL0     C50266   4.033   1.309   4.645 -0.5145  0.5905 -0.0912
  373MOL0     C50267   4.034   1.431   4.575  1.1068 -0.9013 -0.7193
  373MOL0     O50268   4.288   1.633   4.465 -0.1898 -0.4427 -0.1032
  373MOL0     C50269   4.156   1.844   4.279  0.2560 -0.4707  1.0262
  373MOL0     C50270   4.158   1.972   4.227 -0.2491 -0.8949 -0.1468
  373MOL0     N50271   3.913   2.610   3.729  0.1051 -0.1923 -0.1022
  373MOL0     N50272   3.802   2.655   3.674  0.3873 -0.0135 -0.0059
  373MOL0     C50273   3.020   3.502   3.376 -0.1957  0.0159 -0.0009
  373MOL0     C50274   2.988   3.631   3.339 -0.4700 -0.3522  0.5051
  373MOL0     C50275   2.668   3.947   3.269 -0.5166  0.0425  0.9934
  373MOL0     C50276   2.766   4.034   3.221  0.1392 -0.8869 -0.4728
  373MOL0     C50277   2.714   4.154   3.174  0.1611  0.2570  0.0938
  373MOL0     C50278   2.577   4.189   3.170 -0.5315 -0.3026 -0.1026
  373MOL0     O50279   2.540   4.299   3.098  0.5069 -0.3324  0.2814
  373MOL0     C50280   2.471   4.271   2.964  0.4080  0.5809  0.1080
  373MOL0     C50281   2.548   4.347   2.853 -0.7430  0.9656  0.8042
  373MOL0     C50282   2.527   4.501   2.858 -0.2227 -0.0538 -0.5297
  373MOL0     C50283   2.438   4.536   2.726  0.1369  0.2853 -0.6584
  373MOL0     C50284   2.307   4.482   2.767  0.5808 -0.3566  0.0322
  373MOL0     C50285   2.191   4.439   2.777 -0.2692 -0.3992 -0.1300
  373MOL0     C50286   2.490   4.102   3.231  0.0448 -0.1592 -0.5211
  373MOL0     C50287   2.537   3.984   3.278  0.6616 -0.8093  0.4397
  373MOL0     H50288   2.809   3.720   3.607 -1.1921 -0.5690 -0.8232
  373MOL0     H50289   2.868   3.480   3.678 -2.7667 -0.3317 -0.0467
  373MOL0     H50290   3.029   3.229   3.339 -0.8010  1.7677 -0.0298
  373MOL0     H50291   3.166   3.257   3.453  0.9598 -1.6100  4.1449
  373MOL0     H50292   2.993   3.011   3.464  2.1605 -1.9408 -0.2379
  373MOL0     H50293   3.162   3.048   3.436 -0.0426  0.0566 -2.5708
  373MOL0     H50294   3.140   3.177   3.673 -1.8839  2.0900 -2.8398
  373MOL0     H50295   2.984   3.111   3.690  0.6385  1.4808  0.9358
  373MOL0     H50296   3.120   2.947   3.810 -2.5742 -0.0740 -1.2473
  373MOL0     H50297   3.110   2.875   3.653  0.2894 -0.5064 -0.0664
  373MOL0     H50298   3.350   2.965   3.582 -1.2598 -0.2446  0.1221
  373MOL0     H50299   3.339   3.073   3.724  2.8297 -0.5241 -1.6111
  373MOL0     H50300   3.362   2.892   3.877 -2.1407  4.1146 -0.8601
  373MOL0     H50301   3.348   2.766   3.759  3.4499 -1.4895  1.3133
  373MOL0     H50302   3.550   2.903   3.652  1.9032 -2.5536 -1.5217
  373MOL0     H50303   3.592   2.914   3.825 -0.4570 -1.9636  0.7229
  373MOL0     H50304   3.556   2.670   3.655 -1.9424  0.4205  0.2903
  373MOL0     H50305   3.524   2.654   3.833  0.4922 -0.9172 -0.1683
  373MOL0     H50306   3.739   2.679   3.998 -0.2693  1.5413 -0.3556
  373MOL0     H50307   4.109   2.598   3.931  0.7328 -3.0462  0.2943
  373MOL0     H50308   3.997   2.628   4.068 -1.6611 -1.9101  0.0391
  373MOL0     H50309   4.012   2.377   3.911 -1.9781  1.4060 -1.0414
  373MOL0     H50310   3.903   2.406   4.046  0.9355  0.0067  2.1593
  373MOL0     H50311   4.084   2.458   4.204  1.0471 -0.9375 -0.0658
  373MOL0     H50312   4.206   2.432   4.085 -1.0614  1.0921  0.6145
  373MOL0     H50313   4.177   2.202   4.061  0.5191 -0.0398  1.1700
  373MOL0     H50314   4.031   2.205   4.160  0.8782  0.5734  0.8354
  373MOL0     H50315   4.309   2.140   4.481  1.1517  0.3652  0.5432
  373MOL0     H50316   4.353   2.000   4.666  3.5211 -1.6152  1.2818
  373MOL0     H50317   4.276   1.840   4.683  0.2547 -0.7077 -0.7574
  373MOL0     H50318   4.429   1.861   4.595  0.2788  0.1799  0.4394
  373MOL0     H50319   4.151   1.648   4.814  3.2095 -0.0140  1.0616
  373MOL0     H50320   4.173   1.443   4.933 -0.2851  0.8397  0.5322
  373MOL0     H50321   4.051   1.031   4.763  4.2390 -4.2241 -1.4528
  373MOL0     H50322   4.219   1.079   4.777 -1.4692 -0.8543 -0.7028
  373MOL0     H50323   4.232   1.023   5.006  1.7234  1.0242 -2.7029
  373MOL0     H50324   4.071   1.033   5.032 -0.3362 -0.7911  0.6153
  373MOL0     H50325   4.224   0.829   4.860  0.3435 -0.4541  0.6936
  373MOL0     H50326   4.043   0.828   4.876  0.8510  1.1538 -1.1448
  373MOL0     H50327   4.254   0.785   5.097 -0.4089  2.3603 -2.7427
  373MOL0     H50328   4.076   0.774   5.122  0.6858 -0.2209  1.1480
  373MOL0     H50329   4.161   0.571   5.144 -1.1437  3.8359  0.9662
  373MOL0     H50330   4.243   0.567   4.985 -1.3282  0.6222 -1.0353
  373MOL0     H50331   3.951   0.607   5.024 -2.0013 -1.8065 -0.7232
  373MOL0     H50332   4.019   0.589   4.868  0.6845  0.2944  0.2969
  373MOL0     H50333   3.995   0.354   5.078 -2.0183 -2.9007 -1.4834
  373MOL0     H50334   4.095   0.370   4.944  1.0529  3.3366 -0.3324
  373MOL0     H50335   3.858   0.253   4.898  2.9713 -0.0362  1.2075
  373MOL0     H50336   3.907   0.388   4.792  0.0362  1.9155 -0.0737
  373MOL0     H50337   4.012   1.213   4.599  1.5283  0.7950 -1.6194
  373MOL0     H50338   3.998   1.428   4.473  0.6275  2.1466 -0.7251
  373MOL0     H50339   4.134   1.762   4.211  3.9733  1.2307 -2.7179
  373MOL0     H50340   4.127   1.992   4.125  0.2007  1.6446  0.1542
  373MOL0     H50341   3.062   3.441   3.296  2.4000  0.1672  1.1270
  373MOL0     H50342   3.003   3.661   3.236 -0.9709 -0.8327  0.2861
  373MOL0     H50343   2.873   4.015   3.222  0.7319  1.9744 -0.5015
  373MOL0     H50344   2.790   4.211   3.120  0.0480  1.7133  1.3771
  373MOL0     H50345   2.470   4.167   2.929  0.5091  0.6310 -0.0436
  373MOL0     H50346   2.366   4.298   2.982  0.5021 -0.0858  1.8441
  373MOL0     H50347   2.521   4.310   2.754 -3.4317  0.0801  1.7707
  373MOL0     H50348   2.653   4.322   2.866 -1.1483 -1.2290  0.1794
  373MOL0     H50349   2.622   4.553   2.871 -1.2052  1.6105  0.5055
  373MOL0     H50350   2.479   4.530   2.952  0.2502  0.7247 -0.5277
  373MOL0     H50351   2.477   4.479   2.641  0.8484 -1.5037  0.8002
  373MOL0     H50352   2.418   4.641   2.703 -1.8345 -0.0587 -0.7016
  373MOL0     H50353   2.086   4.425   2.761  0.2513 -3.1289 -1.6361
  373MOL0     H50354   2.385   4.122   3.216  0.0402 -1.3616 -2.4402
  373MOL0     H50355   2.470   3.914   3.327  0.3375  0.3384  1.7071
  374MOL0     O50356   7.042   4.420   2.504  0.0952  0.5219  0.0010
  374MOL0     C50357   6.946   4.405   2.435  0.6506  0.0251  0.2659
  374MOL0     O50358   6.817   4.402   2.480  0.1345 -0.0394  0.5151
  374MOL0     C50359   6.788   4.433   2.608 -0.2151  0.1406 -0.5577
  374MOL0     C50360   6.860   4.506   2.703  0.1099  0.3030 -0.4614
  374MOL0     C50361   6.808   4.522   2.833  0.4894 -0.0861  0.4403
  374MOL0     C50362   6.686   4.475   2.872  0.8097 -0.0400  0.6084
  374MOL0     O50363   6.625   4.507   2.994  0.1292  0.2528 -0.6657
  374MOL0     C50364   6.706   4.535   3.117 -0.1036  1.1340  0.2980
  374MOL0     C50365   6.610   4.574   3.234  0.5380  0.2384  0.5012
  374MOL0     C50366   6.672   4.612   3.367 -0.0326  0.2569  0.4388
  374MOL0     C50367   6.759   4.739   3.340 -0.2007  0.1109 -0.3502
  374MOL0     C50368   6.757   4.855   3.447  0.1832  0.2420  0.9251
  374MOL0     C50369   6.617   4.897   3.492 -0.1021 -0.7624  0.4349
  374MOL0     C50370   6.586   4.852   3.632 -0.0479 -1.1629  0.3958
  374MOL0     C50371   6.448   4.909   3.670  0.6494  0.9720 -0.2455
  374MOL0     N50372   6.422   4.873   3.808  0.3214 -0.1463  0.3723
  374MOL0     C50373   6.439   4.754   3.876  0.5171 -0.3513 -0.4143
  374MOL0     C50374   6.394   4.780   3.997 -0.5689  0.4943  0.2083
  374MOL0     C50375   6.432   4.683   4.104 -1.3291  0.2004  0.1994
  374MOL0     C50376   6.360   4.699   4.240 -0.7434 -0.7351  0.0550
  374MOL0     C50377   6.432   4.672   4.375  0.8952 -0.1420  0.1766
  374MOL0     C50378   6.551   4.580   4.355 -0.0394 -0.9079 -1.0080
  374MOL0     O50379   6.620   4.572   4.479 -0.4303  0.4648 -0.6714
  374MOL0     C50380   6.753   4.522   4.488  0.5234  0.1856  0.1885
  374MOL0     C50381   6.811   4.553   4.610 -0.4088 -0.9470  1.4658
  374MOL0     C50382   6.947   4.509   4.639  0.1246 -0.0791 -0.0135
  374MOL0     C50383   7.006   4.534   4.775  1.0265 -0.4509  0.9422
  374MOL0     C50384   7.009   4.429   4.543  1.1066  0.4254 -0.3369
  374MOL0     C50385   7.136   4.355   4.575 -0.1293  0.6256  1.1075
  374MOL0     O50386   7.235   4.424   4.626  0.8289 -0.7193 -0.1519
  374MOL0     C50387   7.341   4.360   4.683  0.1179 -0.4392 -0.3919
  374MOL0     C50388   7.327   4.253   4.773 -0.0057  0.3109 -0.4428
  374MOL0     C50389   7.445   4.187   4.820  0.1935 -0.2430  0.6701
  374MOL0     C50390   7.577   4.232   4.798 -0.9687  0.4659 -0.0170
  374MOL0     O50391   7.695   4.170   4.852  0.1744  0.4207  0.5509
  374MOL0     C50392   7.689   4.041   4.917 -0.1771 -0.3580 -0.0982
  374MOL0     C50393   7.826   3.992   4.950 -0.3330  0.1126 -0.1722
  374MOL0     C50394   7.817   3.853   5.022 -0.0293 -0.2305 -0.1847
  374MOL0     C50395   7.752   3.855   5.167 -0.1277 -0.0968  1.0727
  374MOL0     C50396   7.769   3.711   5.230 -0.3463 -0.3170  0.6687
  374MOL0     C50397   7.730   3.704   5.384 -0.5307  0.4771  0.8022
  374MOL0     C50398   7.822   3.774   5.486 -0.5357  0.5405 -0.2657
  374MOL0     C50399   7.782   3.761   5.629  0.0538 -0.0954  0.0197
  374MOL0    Cl50400   7.632   3.842   5.676  0.4021 -0.0966 -0.0384
  374MOL0     C50401   7.593   4.341   4.716  1.0862  0.6752 -0.3091
  374MOL0     C50402   7.477   4.404   4.659 -0.7128 -0.2719 -0.3645
  374MOL0     O50403   7.139   4.229   4.565  0.4353 -0.0371  0.3782
  374MOL0     C50404   6.943   4.393   4.425  0.3747  1.1124  0.6708
  374MOL0     C50405   6.814   4.446   4.394 -0.3999  0.2023 -0.4286
  374MOL0     N50406   6.312   4.892   3.994 -0.6573 -0.2300  0.8187
  374MOL0     N50407   6.326   4.942   3.879 -0.5023 -0.2391 -0.2228
  374MOL0     C50408   6.599   4.435   2.772 -1.2535  0.6076  0.1867
  374MOL0     C50409   6.655   4.396   2.641 -0.2852 -0.1316 -0.1374
  374MOL0     C50410   6.962   4.418   2.287 -0.7061  0.3937 -0.5168
  374MOL0     C50411   6.864   4.423   2.194 -0.3074 -0.2744 -0.3117
  374MOL0     C50412   6.884   4.430   2.057 -0.8705 -0.5078  0.4995
  374MOL0     C50413   7.019   4.408   2.003  0.1186 -0.4804 -0.4472
  374MOL0     O50414   7.053   4.382   1.876  0.4573  0.0293 -0.3546
  374MOL0     C50415   6.937   4.374   1.787 -0.4119  0.1506 -0.3246
  374MOL0     C50416   6.994   4.338   1.651 -0.0308  0.3543  0.1112
  374MOL0     C50417   7.101   4.440   1.595  0.2764 -0.5073 -1.7050
  374MOL0     C50418   7.150   4.393   1.465 -0.4122  0.8000  0.4934
  374MOL0     C50419   7.268   4.470   1.428  0.7159  0.1271  0.0093
  374MOL0     C50420   7.358   4.534   1.389  0.5100  0.3934  0.0460
  374MOL0     C50421   7.120   4.402   2.106 -0.0242 -0.1205 -0.9268
  374MOL0     C50422   7.098   4.420   2.238  0.4728  0.4567  0.0681
  374MOL0     H50423   6.962   4.534   2.676  1.0790 -2.0213  0.5425
  374MOL0     H50424   6.883   4.553   2.906  0.2722 -1.7761  1.4621
  374MOL0     H50425   6.751   4.438   3.141 -0.6749 -0.2043 -3.3744
  374MOL0     H50426   6.784   4.611   3.109  1.6145 -0.5264  0.6290
  374MOL0     H50427   6.544   4.649   3.189 -2.9890 -3.2064 -0.6218
  374MOL0     H50428   6.534   4.498   3.252  1.3092 -0.5724  0.3542
  374MOL0     H50429   6.588   4.633   3.434  1.6580  3.8933  1.6776
  374MOL0     H50430   6.737   4.530   3.399  0.7421 -1.4970 -4.6013
  374MOL0     H50431   6.865   4.718   3.322 -0.4185 -1.1930 -0.1721
  374MOL0     H50432   6.718   4.799   3.258 -2.6186 -1.7279 -0.5856
  374MOL0     H50433   6.812   4.813   3.531  1.0085 -0.9285 -0.1552
  374MOL0     H50434   6.812   4.943   3.410 -1.5461  0.9256 -0.1442
  374MOL0     H50435   6.609   5.006   3.491  0.4749 -0.7148  0.8029
  374MOL0     H50436   6.542   4.857   3.423 -0.9125 -0.3268  1.0427
  374MOL0     H50437   6.587   4.745   3.652 -1.6884 -1.2012  0.4089
  374MOL0     H50438   6.659   4.903   3.696 -0.2966  1.0378 -0.9705
  374MOL0     H50439   6.371   4.867   3.605 -0.9153  0.3908  1.8557
  374MOL0     H50440   6.449   5.017   3.653 -0.8235  1.0528 -0.0290
  374MOL0     H50441   6.504   4.673   3.845  1.9662 -0.4742  2.5128
  374MOL0     H50442   6.416   4.580   4.071  2.7073 -1.2619  2.0600
  374MOL0     H50443   6.536   4.719   4.105 -1.9155  2.1042 -1.4028
  374MOL0     H50444   6.270   4.636   4.244 -0.8164 -0.6704 -0.5601
  374MOL0     H50445   6.311   4.797   4.247 -2.6768 -1.3426 -2.9446
  374MOL0     H50446   6.368   4.611   4.440  2.1490 -0.3292  1.2835
  374MOL0     H50447   6.472   4.763   4.421  1.6646 -0.2849 -0.1947
  374MOL0     H50448   6.619   4.620   4.279  0.7035  1.1866  0.6535
  374MOL0     H50449   6.504   4.488   4.319 -0.4241 -0.9751 -0.3610
  374MOL0     H50450   6.761   4.627   4.673  1.4327 -0.1266  2.0314
  374MOL0     H50451   7.108   4.572   4.774  1.3866 -1.3781 -0.5408
  374MOL0     H50452   6.947   4.607   4.831 -1.4246 -0.1502 -1.7618
  374MOL0     H50453   6.994   4.446   4.838  0.5110 -0.9894  0.1077
  374MOL0     H50454   7.229   4.219   4.804  0.7800 -1.2532  0.4619
  374MOL0     H50455   7.422   4.110   4.893  0.0682 -1.3572 -0.5176
  374MOL0     H50456   7.621   4.051   5.002  1.7694 -2.9690  1.9412
  374MOL0     H50457   7.641   3.968   4.852 -0.0731 -0.1322 -0.4294
  374MOL0     H50458   7.894   3.981   4.865  1.6633 -1.0273  1.4919
  374MOL0     H50459   7.877   4.058   5.020 -0.6779 -0.9372  1.1040
  374MOL0     H50460   7.911   3.798   5.011 -1.1972 -2.4428  0.3974
  374MOL0     H50461   7.750   3.795   4.959 -1.7278 -0.5753  1.8047
  374MOL0     H50462   7.809   3.931   5.221 -0.5359 -0.7457  2.4797
  374MOL0     H50463   7.646   3.883   5.162 -0.7065 -2.2482  0.3558
  374MOL0     H50464   7.875   3.687   5.219  0.0543  1.8227 -0.8825
  374MOL0     H50465   7.710   3.634   5.180 -0.4087  0.5923 -0.7095
  374MOL0     H50466   7.626   3.736   5.400 -0.7172 -0.4713  1.5637
  374MOL0     H50467   7.725   3.595   5.392  4.8568 -0.6595 -4.3515
  374MOL0     H50468   7.830   3.881   5.465 -1.4814  0.7494  0.3604
  374MOL0     H50469   7.915   3.716   5.485 -0.8482  0.0170  0.0495
  374MOL0     H50470   7.855   3.817   5.688  0.5727 -1.8710  1.1324
  374MOL0     H50471   7.763   3.655   5.645 -1.6984  0.1788 -0.0088
  374MOL0     H50472   7.688   4.386   4.689  1.8031 -1.3812 -1.4071
  374MOL0     H50473   7.505   4.468   4.576  1.0663  2.0350  1.8598
  374MOL0     H50474   6.977   4.312   4.361  0.7391 -0.5854  2.9057
  374MOL0     H50475   6.752   4.415   4.310 -0.3325  0.0797 -0.4341
  374MOL0     H50476   6.494   4.406   2.776 -0.4216 -3.8934 -2.9849
  374MOL0     H50477   6.591   4.347   2.567  2.1999 -2.1008 -1.1278
  374MOL0     H50478   6.762   4.417   2.231  0.1134  2.3047  1.5215
  374MOL0     H50479   6.797   4.429   1.992 -0.2846 -1.4975 -0.2916
  374MOL0     H50480   6.879   4.284   1.808  2.1761 -2.1150 -2.0911
  374MOL0     H50481   6.877   4.466   1.790  0.4423  0.7349 -0.7778
  374MOL0     H50482   6.910   4.322   1.582 -0.0045 -1.3736  0.4374
  374MOL0     H50483   7.042   4.242   1.671 -0.1864 -0.6006 -3.4294
  374MOL0     H50484   7.186   4.451   1.664 -1.6677  0.6365  0.6860
  374MOL0     H50485   7.049   4.536   1.590 -1.5205 -1.3218  0.0386
  374MOL0     H50486   7.067   4.400   1.394  0.8111  0.7268 -0.9955
  374MOL0     H50487   7.166   4.287   1.447 -0.2034  0.7904  0.7355
  374MOL0     H50488   7.436   4.584   1.334  0.3020 -2.1079 -2.8100
  374MOL0     H50489   7.219   4.384   2.064 -0.7667  2.6380 -4.3184
  374MOL0     H50490   7.179   4.440   2.307 -2.1339  1.5559  3.0277
  375MOL0     O50491  11.164   2.552   5.217 -0.0580 -0.2044 -0.1034
  375MOL0     C50492  11.062   2.487   5.251 -0.5920  0.3405 -0.4084
  375MOL0     O50493  11.014   2.477   5.376 -0.2398  0.4910  0.0473
  375MOL0     C50494  11.105   2.461   5.480  0.5308  1.0936  0.4932
  375MOL0     C50495  11.097   2.352   5.562 -0.7779 -0.7726  0.0266
  375MOL0     C50496  11.186   2.337   5.671 -0.2868  0.6586  1.1301
  375MOL0     C50497  11.266   2.444   5.707 -0.8635 -0.8916 -0.3584
  375MOL0     O50498  11.340   2.416   5.814 -0.2852 -0.5720 -0.7456
  375MOL0     C50499  11.463   2.498   5.833  0.2054 -0.8509 -0.6023
  375MOL0     C50500  11.567   2.402   5.888  0.3316 -0.6909  0.5169
  375MOL0     C50501  11.601   2.286   5.801  0.3891 -1.0614 -0.0036
  375MOL0     C50502  11.698   2.193   5.853 -0.9325 -0.2092  0.1273
  375MOL0     C50503  11.840   2.255   5.873 -0.1610 -0.0701  0.0966
  375MOL0     C50504  11.911   2.272   5.739  0.3052 -0.4001 -0.4968
  375MOL0     C50505  12.053   2.334   5.772 -0.1758  1.0554 -0.4507
  375MOL0     C50506  12.041   2.487   5.801 -0.2917 -1.0104  0.7576
  375MOL0     N50507  12.170   2.557   5.785 -0.1200 -0.0888 -0.0825
  375MOL0     C50508  12.295   2.496   5.783 -0.6730  0.3716  0.3516
  375MOL0     C50509  12.371   2.597   5.724 -0.0213  0.9464 -0.4224
  375MOL0     C50510  12.517   2.577   5.680 -0.4010 -1.6769 -0.0493
  375MOL0     C50511  12.609   2.496   5.768  0.5011 -0.3169  1.0411
  375MOL0     C50512  12.634   2.564   5.899 -1.1205 -0.2015  0.6561
  375MOL0     C50513  12.739   2.489   5.978  0.2045 -0.1919  0.2278
  375MOL0     O50514  12.860   2.475   5.903  0.4516  0.1996 -0.2826
  375MOL0     C50515  12.931   2.577   5.859  0.8390  0.5061  0.0807
  375MOL0     C50516  12.971   2.694   5.927  0.3243  0.0047 -0.0229
  375MOL0     C50517  13.063   2.790   5.881 -0.0802  0.5481 -0.3166
  375MOL0     C50518  13.112   2.899   5.979 -1.2924 -0.2616  0.5671
  375MOL0     C50519  13.110   2.782   5.746 -0.4171  0.6437  0.9329
  375MOL0     C50520  13.203   2.880   5.698  0.2185 -0.4628  0.0269
  375MOL0     O50521  13.306   2.826   5.631 -0.3418 -0.4588 -0.2758
  375MOL0     C50522  13.393   2.912   5.577  0.5653 -0.2183  0.2066
  375MOL0     C50523  13.377   2.936   5.443  0.0646 -0.1470 -0.5618
  375MOL0     C50524  13.455   3.021   5.367 -0.1895 -0.5664  0.0691
  375MOL0     C50525  13.553   3.098   5.439  0.1835 -0.1987  0.4087
  375MOL0     O50526  13.633   3.181   5.379  0.1317  0.2653  0.5841
  375MOL0     C50527  13.569   3.270   5.283  0.6394 -0.4224 -0.3094
  375MOL0     C50528  13.612   3.414   5.320 -0.4338  0.8636 -0.5163
  375MOL0     C50529  13.522   3.522   5.263 -0.9267  0.3075  1.1425
  375MOL0     C50530  13.448   3.584   5.379  0.2175 -0.0241  0.1177
  375MOL0     C50531  13.525   3.672   5.480  0.5374  0.2655 -0.1265
  375MOL0     C50532  13.425   3.734   5.581 -0.0951  1.0613 -0.7711
  375MOL0     C50533  13.504   3.816   5.681 -1.1776  1.2990 -0.0417
  375MOL0     C50534  13.410   3.874   5.790 -0.2473  0.0978 -0.7404
  375MOL0    Cl50535  13.456   3.757   5.920  0.4127  0.1596  0.0251
  375MOL0     C50536  13.579   3.067   5.571 -0.2893  0.3372 -0.5241
  375MOL0     C50537  13.496   2.978   5.644 -0.5050 -0.6493 -1.1301
  375MOL0     O50538  13.189   3.001   5.723 -0.3369 -0.0757  0.3948
  375MOL0     C50539  13.060   2.675   5.669  0.2172  0.3775  0.2411
  375MOL0     C50540  12.971   2.571   5.724 -0.6493 -0.2054 -0.1698
  375MOL0     N50541  12.297   2.702   5.687  0.8693 -0.1185  0.5459
  375MOL0     N50542  12.177   2.676   5.731  0.0753 -0.4706  0.1267
  375MOL0     C50543  11.256   2.567   5.639 -0.0884 -0.6429 -0.7709
  375MOL0     C50544  11.182   2.563   5.528  1.2035 -0.0776 -0.2993
  375MOL0     C50545  10.992   2.411   5.140 -0.0399  1.1193  0.4318
  375MOL0     C50546  11.031   2.392   5.001 -0.1550 -0.7503 -1.0599
  375MOL0     C50547  10.965   2.310   4.906  0.2468  0.5263  0.1382
  375MOL0     C50548  10.860   2.237   4.952  0.0032  1.4152 -0.3636
  375MOL0     O50549  10.812   2.146   4.854 -0.6196 -0.6969 -0.1189
  375MOL0     C50550  10.697   2.062   4.881  0.8266  0.1045 -0.4538
  375MOL0     C50551  10.674   1.972   4.770  0.0813 -0.2485 -0.4365
  375MOL0     C50552  10.638   2.039   4.646  0.6588 -0.4104 -0.2782
  375MOL0     C50553  10.648   1.936   4.533  0.5605  0.8067 -0.7286
  375MOL0     C50554  10.522   1.873   4.508 -0.4834  0.4199 -0.1544
  375MOL0     C50555  10.439   1.796   4.478  0.6149  0.3418 -0.3873
  375MOL0     C50556  10.812   2.245   5.088  0.4314  0.3990 -0.0425
  375MOL0     C50557  10.880   2.329   5.176 -0.4417 -0.0456 -0.6118
  375MOL0     H50558  11.038   2.268   5.529  1.1781 -0.6599 -4.4533
  375MOL0     H50559  11.179   2.239   5.718  0.5204  0.3456  0.6152
  375MOL0     H50560  11.506   2.537   5.740  0.6586 -1.5189 -0.6808
  375MOL0     H50561  11.458   2.583   5.902  2.1697  1.5445 -3.1735
  375MOL0     H50562  11.658   2.463   5.895 -0.6153  0.8041  0.3799
  375MOL0     H50563  11.520   2.368   5.981 -4.4698  1.6232 -0.7463
  375MOL0     H50564  11.505   2.234   5.788 -0.6966  0.3831  1.6687
  375MOL0     H50565  11.632   2.319   5.701  2.1116  0.3763  0.9573
  375MOL0     H50566  11.675   2.157   5.954  0.9448 -3.4140 -0.4559
  375MOL0     H50567  11.702   2.097   5.801  3.3722  0.0283 -0.3194
  375MOL0     H50568  11.840   2.350   5.928 -0.0427 -0.4661  0.7954
  375MOL0     H50569  11.895   2.180   5.930  0.4562  0.9937  0.9452
  375MOL0     H50570  11.900   2.174   5.693 -0.9315  0.0090 -1.1412
  375MOL0     H50571  11.864   2.341   5.667 -0.2910 -0.9081 -0.6010
  375MOL0     H50572  12.104   2.294   5.860  0.7354  4.0277  0.4714
  375MOL0     H50573  12.108   2.317   5.679  0.3589 -1.1966  0.2065
  375MOL0     H50574  11.996   2.505   5.899 -1.1948  0.5093  0.1040
  375MOL0     H50575  11.982   2.515   5.712  1.9400 -0.2421 -0.5602
  375MOL0     H50576  12.328   2.398   5.815  1.5284  0.7976 -0.4543
  375MOL0     H50577  12.501   2.528   5.583 -1.6783  0.0157 -0.7340
  375MOL0     H50578  12.561   2.672   5.649 -0.3223 -2.0189 -1.0074
  375MOL0     H50579  12.699   2.470   5.712 -0.6478 -0.9228 -0.5759
  375MOL0     H50580  12.553   2.404   5.783  0.3201 -0.2601  0.6998
  375MOL0     H50581  12.535   2.568   5.946 -1.2138 -0.1251  0.4571
  375MOL0     H50582  12.680   2.662   5.888 -1.2140 -0.0676  1.4528
  375MOL0     H50583  12.696   2.396   6.015  0.3329  0.6792  2.7572
  375MOL0     H50584  12.765   2.549   6.066 -2.5750  1.5418  0.0313
  375MOL0     H50585  12.954   2.692   6.034  1.3290 -1.6567  0.1284
  375MOL0     H50586  13.097   2.899   6.087 -1.0241 -0.5734  0.6044
  375MOL0     H50587  13.221   2.892   5.977 -1.2681 -0.1082 -2.3481
  375MOL0     H50588  13.087   2.994   5.930 -3.7806 -0.3459  1.5537
  375MOL0     H50589  13.297   2.885   5.391 -1.3662  0.8878  0.5313
  375MOL0     H50590  13.434   3.036   5.262 -1.6929  0.6448  0.5105
  375MOL0     H50591  13.585   3.241   5.179 -1.7056 -2.4796 -0.1895
  375MOL0     H50592  13.459   3.274   5.285  0.5623 -2.1623  0.7783
  375MOL0     H50593  13.627   3.417   5.428 -3.4715 -1.4121  0.1246
  375MOL0     H50594  13.710   3.427   5.275 -0.3030  0.3703 -0.3789
  375MOL0     H50595  13.453   3.468   5.198  3.0270  0.6231 -3.9421
  375MOL0     H50596  13.585   3.593   5.208 -2.6014 -0.4737 -1.9725
  375MOL0     H50597  13.354   3.629   5.346 -1.1907 -1.7530  1.5871
  375MOL0     H50598  13.412   3.500   5.439  1.9017  0.3441  1.7353
  375MOL0     H50599  13.586   3.748   5.431 -1.9929  1.3901 -1.6983
  375MOL0     H50600  13.588   3.601   5.535 -1.4183 -1.0031  0.6029
  375MOL0     H50601  13.348   3.796   5.535 -1.1367  0.7822  0.5367
  375MOL0     H50602  13.374   3.648   5.625  0.7510 -0.4052 -2.5374
  375MOL0     H50603  13.566   3.894   5.635  2.2070 -2.1210 -1.8795
  375MOL0     H50604  13.580   3.747   5.720 -3.7544 -2.1632 -0.7165
  375MOL0     H50605  13.301   3.873   5.780 -0.6474  0.0894  2.5570
  375MOL0     H50606  13.441   3.971   5.830  1.2959 -1.1236  1.2629
  375MOL0     H50607  13.659   3.119   5.621  0.8791  0.6505 -2.5950
  375MOL0     H50608  13.518   2.952   5.748 -0.2007  2.1211 -0.4197
  375MOL0     H50609  13.109   2.652   5.575  1.3942  1.7162  0.5014
  375MOL0     H50610  12.937   2.494   5.656 -0.3086  0.6950 -1.4129
  375MOL0     H50611  11.306   2.656   5.677  0.4291 -0.5333 -1.6606
  375MOL0     H50612  11.170   2.659   5.477  5.7359  0.1414 -1.4468
  375MOL0     H50613  11.116   2.447   4.962  1.4134 -1.9883  0.4461
  375MOL0     H50614  10.987   2.303   4.800  1.8387  2.1803  0.3140
  375MOL0     H50615  10.735   2.001   4.964 -0.6510 -0.1182  0.1062
  375MOL0     H50616  10.612   2.114   4.927  2.5987 -0.2980  3.7590
  375MOL0     H50617  10.594   1.901   4.795 -2.6338  2.0942 -1.8497
  375MOL0     H50618  10.768   1.918   4.759  2.9683  4.4312 -1.5022
  375MOL0     H50619  10.702   2.124   4.624 -2.2901  1.8682 -0.6570
  375MOL0     H50620  10.539   2.086   4.653  2.7248  4.1680  2.4113
  375MOL0     H50621  10.723   1.860   4.560 -0.7810 -0.1073  0.6008
  375MOL0     H50622  10.683   1.992   4.446  2.0229  0.7901 -0.1965
  375MOL0     H50623  10.359   1.738   4.437 -1.1243  2.7912 -0.6495
  375MOL0     H50624  10.732   2.182   5.125 -1.7515  1.9910 -1.8228
  375MOL0     H50625  10.849   2.339   5.280 -0.3318 -2.0817 -0.3569
  376MOL0     O50626   2.321   9.136   3.861 -0.7119  0.3754  0.9871
  376MOL0     C50627   2.256   9.088   3.767 -0.4905  0.8543 -0.3760
  376MOL0     O50628   2.146   9.019   3.779 -0.0296  0.3163 -0.3827
  376MOL0     C50629   2.109   8.983   3.906  0.3924  0.6328  1.9228
  376MOL0     C50630   2.151   8.854   3.955 -0.0535  0.0400  0.8234
  376MOL0     C50631   2.129   8.818   4.092  1.0082  0.6584 -0.0956
  376MOL0     C50632   2.055   8.896   4.182 -0.5966  0.4014 -0.1472
  376MOL0     O50633   2.027   8.865   4.308  0.5785 -0.4755 -0.5794
  376MOL0     C50634   1.940   8.753   4.309  0.2848  0.1363  0.1147
  376MOL0     C50635   1.914   8.719   4.453 -0.3706  0.3846 -0.0137
  376MOL0     C50636   1.795   8.627   4.457 -0.3869  0.2903  0.8481
  376MOL0     C50637   1.830   8.474   4.445 -1.1869  1.2971  0.4092
  376MOL0     C50638   1.705   8.395   4.429 -0.0364  1.1158  1.1482
  376MOL0     C50639   1.717   8.248   4.465  0.9261  0.4200 -0.8976
  376MOL0     C50640   1.569   8.199   4.452 -0.0650  0.6586 -0.4925
  376MOL0     C50641   1.545   8.047   4.476  1.0743  0.3243  0.7027
  376MOL0     N50642   1.576   7.994   4.608  0.1924  0.7809  0.6787
  376MOL0     C50643   1.509   8.040   4.720 -0.1785 -0.6121  0.3599
  376MOL0     C50644   1.561   7.972   4.819  0.0058  0.2828 -0.0011
  376MOL0     C50645   1.507   7.985   4.959 -0.6672 -0.0338  1.2446
  376MOL0     C50646   1.423   7.870   5.010  0.2491  0.4372  1.2722
  376MOL0     C50647   1.344   7.891   5.128  0.8175 -0.2296 -0.5180
  376MOL0     C50648   1.433   7.940   5.239 -0.0683  0.9025  0.0291
  376MOL0     O50649   1.478   8.080   5.225  0.1517 -0.5941 -0.5183
  376MOL0     C50650   1.564   8.127   5.321  0.3416 -1.0156  0.8091
  376MOL0     C50651   1.635   8.244   5.293  0.5770 -0.7821 -0.2639
  376MOL0     C50652   1.722   8.307   5.375 -0.7009 -1.0550  0.7257
  376MOL0     C50653   1.787   8.432   5.321 -0.7960 -0.4000 -0.9059
  376MOL0     C50654   1.748   8.250   5.496 -0.6758  0.2881 -0.6254
  376MOL0     C50655   1.836   8.320   5.597  0.4618  0.4635  0.2093
  376MOL0     O50656   1.877   8.237   5.699 -0.8219  0.1868 -0.4306
  376MOL0     C50657   1.896   8.304   5.814 -0.6706 -0.4224 -0.5213
  376MOL0     C50658   1.781   8.334   5.887  0.1071  0.0294 -0.4935
  376MOL0     C50659   1.787   8.404   6.011 -0.3016  0.6154  0.4113
  376MOL0     C50660   1.911   8.413   6.076  0.6713 -0.1457 -0.5833
  376MOL0     O50661   1.939   8.464   6.197 -0.2719  0.2300 -0.1023
  376MOL0     C50662   1.828   8.441   6.296 -1.0761  0.1829  0.1964
  376MOL0     C50663   1.868   8.498   6.436  0.8819  0.0635  0.7266
  376MOL0     C50664   1.771   8.460   6.553 -1.1196 -0.2057  1.1572
  376MOL0     C50665   1.835   8.465   6.689  0.5364 -0.3436 -0.0231
  376MOL0     C50666   1.888   8.606   6.734  0.4922 -0.4540  0.8729
  376MOL0     C50667   1.923   8.615   6.881 -0.2930  0.7997 -0.7732
  376MOL0     C50668   2.002   8.487   6.923 -0.1801 -0.7309  0.7649
  376MOL0     C50669   2.070   8.525   7.057 -1.3087 -1.7958 -0.0863
  376MOL0    Cl50670   2.204   8.642   7.020  0.0821 -1.2246 -0.0520
  376MOL0     C50671   2.027   8.380   6.002 -0.6651 -0.4319  0.1544
  376MOL0     C50672   2.025   8.329   5.866  0.6146  0.1452 -1.2007
  376MOL0     O50673   1.855   8.438   5.594 -0.1783 -0.2028 -0.2756
  376MOL0     C50674   1.677   8.132   5.529  0.3331  0.4357 -0.1763
  376MOL0     C50675   1.597   8.065   5.435 -0.0764 -0.0261 -0.6062
  376MOL0     N50676   1.668   7.900   4.775 -0.2388  0.3787  0.8693
  376MOL0     N50677   1.672   7.914   4.650  0.5202 -1.4280  0.0971
  376MOL0     C50678   2.011   9.016   4.127 -0.9963  0.3655 -1.1687
  376MOL0     C50679   2.038   9.062   3.991 -0.0635  0.2262  0.3817
  376MOL0     C50680   2.316   9.122   3.635  0.3666  0.0297  0.9071
  376MOL0     C50681   2.254   9.080   3.512 -0.0199 -0.3184 -0.4358
  376MOL0     C50682   2.290   9.125   3.386  0.1761 -1.1456  0.1768
  376MOL0     C50683   2.391   9.222   3.372 -0.9684  0.4794  0.0850
  376MOL0     O50684   2.436   9.297   3.264  0.2108  0.5181 -0.3830
  376MOL0     C50685   2.397   9.270   3.132 -0.0658  0.1214 -0.7592
  376MOL0     C50686   2.321   9.390   3.079 -0.0997 -0.4285  1.0129
  376MOL0     C50687   2.185   9.427   3.142 -0.7213  0.4686  1.6488
  376MOL0     C50688   2.132   9.562   3.095 -0.1349 -0.5246  0.0751
  376MOL0     C50689   2.031   9.627   3.178 -1.0474 -0.4508  0.7423
  376MOL0     C50690   1.936   9.683   3.238  0.0950  0.2048  0.3975
  376MOL0     C50691   2.459   9.250   3.492 -0.7107 -0.1119 -0.4435
  376MOL0     C50692   2.419   9.215   3.619 -0.1763 -0.9348  0.2747
  376MOL0     H50693   2.206   8.777   3.903 -0.1073 -0.4278  1.4440
  376MOL0     H50694   2.158   8.718   4.123 -1.8184  0.0013  0.7074
  376MOL0     H50695   1.843   8.785   4.269 -0.0944 -1.8990 -0.7023
  376MOL0     H50696   1.980   8.677   4.243  2.7258  2.0708 -0.7859
  376MOL0     H50697   2.005   8.677   4.496 -0.1910  0.1735 -0.5829
  376MOL0     H50698   1.878   8.807   4.506 -3.0336 -0.4762 -0.2689
  376MOL0     H50699   1.737   8.646   4.548  1.2289  0.0346  1.9805
  376MOL0     H50700   1.725   8.656   4.379  0.0996 -0.9306 -0.0855
  376MOL0     H50701   1.891   8.458   4.356 -0.3542  1.3713  0.9623
  376MOL0     H50702   1.892   8.455   4.532  2.5610  0.6895 -2.1700
  376MOL0     H50703   1.637   8.450   4.495  0.3836  1.2003  1.5143
  376MOL0     H50704   1.664   8.403   4.328 -1.0308 -0.3517  1.3913
  376MOL0     H50705   1.790   8.194   4.404  1.5348 -1.3675  1.2753
  376MOL0     H50706   1.752   8.232   4.568 -2.8741 -2.3450  0.1956
  376MOL0     H50707   1.493   8.258   4.504 -1.8304 -3.0083  1.5047
  376MOL0     H50708   1.544   8.212   4.346  2.5586 -4.1689 -2.0443
  376MOL0     H50709   1.606   7.991   4.404  0.0870 -1.7939  1.4227
  376MOL0     H50710   1.437   8.032   4.467  0.8670  1.3818  1.2430
  376MOL0     H50711   1.416   8.095   4.712 -0.0878 -0.6508 -1.3636
  376MOL0     H50712   1.598   8.006   5.016  0.6200  3.7402 -1.7474
  376MOL0     H50713   1.444   8.075   4.964 -0.3523  0.3957 -1.1113
  376MOL0     H50714   1.473   7.778   5.039  0.1083 -0.4719 -1.1198
  376MOL0     H50715   1.355   7.843   4.928 -2.0283  1.7716  2.6084
  376MOL0     H50716   1.293   7.799   5.156 -0.8061  0.3114 -1.5689
  376MOL0     H50717   1.264   7.963   5.107  2.1948  1.2513 -0.8825
  376MOL0     H50718   1.512   7.865   5.251 -2.5381 -2.2141 -1.7572
  376MOL0     H50719   1.370   7.920   5.326  1.8259  0.3047  1.3321
  376MOL0     H50720   1.605   8.294   5.202  0.6648  0.5754  0.4336
  376MOL0     H50721   1.767   8.510   5.396 -0.6142 -0.5429 -0.7096
  376MOL0     H50722   1.890   8.425   5.285 -0.6562 -4.6824 -0.1637
  376MOL0     H50723   1.731   8.468   5.234 -1.6160  0.7172  0.0485
  376MOL0     H50724   1.684   8.316   5.842  0.4075  1.2572 -1.7088
  376MOL0     H50725   1.698   8.435   6.064 -1.4141  3.2377 -2.6586
  376MOL0     H50726   1.733   8.475   6.255 -1.7288  1.3001  2.4403
  376MOL0     H50727   1.818   8.333   6.306  1.0553 -0.1416 -0.6182
  376MOL0     H50728   1.967   8.464   6.469  1.2401 -0.2889 -0.6532
  376MOL0     H50729   1.870   8.607   6.430 -3.0454  0.2184 -0.2499
  376MOL0     H50730   1.737   8.357   6.536  3.4047 -2.1955  2.5662
  376MOL0     H50731   1.684   8.526   6.554 -0.5146  0.5953  1.9690
  376MOL0     H50732   1.761   8.433   6.763  1.5007 -0.8484  0.7313
  376MOL0     H50733   1.912   8.388   6.681  1.7021  0.2087  3.7868
  376MOL0     H50734   1.809   8.677   6.709 -0.9387 -2.7446 -1.6478
  376MOL0     H50735   1.977   8.639   6.679  2.1256 -0.8597  3.1468
  376MOL0     H50736   1.985   8.701   6.907 -1.6971  2.1474 -1.6919
  376MOL0     H50737   1.828   8.617   6.936  0.1295 -1.9181  0.2071
  376MOL0     H50738   2.071   8.451   6.846 -0.8559  1.5864 -1.0761
  376MOL0     H50739   1.934   8.405   6.945 -1.2112 -0.3837 -0.9258
  376MOL0     H50740   2.120   8.438   7.101 -0.1848 -0.3988  1.5553
  376MOL0     H50741   2.003   8.551   7.139  0.2214 -3.1068  1.6625
  376MOL0     H50742   2.123   8.408   6.044 -1.7514  3.6559  0.2866
  376MOL0     H50743   2.117   8.304   5.814  1.2033  0.9202 -0.5690
  376MOL0     H50744   1.694   8.081   5.623  0.0948  1.1709  0.2693
  376MOL0     H50745   1.552   7.967   5.447  0.0560 -0.4899 -3.1690
  376MOL0     H50746   1.956   9.086   4.188 -2.3171 -0.2600 -1.6145
  376MOL0     H50747   2.011   9.161   3.956  2.5745  1.4006  1.3615
  376MOL0     H50748   2.178   9.004   3.527  2.0668 -2.6933 -1.1955
  376MOL0     H50749   2.233   9.104   3.296  0.3749 -0.2889 -0.1596
  376MOL0     H50750   2.487   9.275   3.070  1.3686 -1.2392  1.1183
  376MOL0     H50751   2.347   9.174   3.124 -0.3586  0.1065  0.9410
  376MOL0     H50752   2.315   9.390   2.970 -1.9328 -2.9114  1.0151
  376MOL0     H50753   2.390   9.472   3.102 -0.0065 -0.3103  0.3128
  376MOL0     H50754   2.203   9.440   3.249 -1.2495  2.8449  1.4989
  376MOL0     H50755   2.126   9.336   3.130  1.1079 -0.8280  2.0222
  376MOL0     H50756   2.083   9.549   2.998  0.4632  4.3560 -1.1662
  376MOL0     H50757   2.207   9.637   3.066  1.1809 -1.1958  1.6231
  376MOL0     H50758   1.847   9.732   3.272 -1.1451 -1.3477 -0.5451
  376MOL0     H50759   2.525   9.332   3.469 -0.6021 -0.3804 -1.0992
  376MOL0     H50760   2.466   9.270   3.699 -3.4997  2.0225  0.4050
  377MOL0     O50761   7.607   6.054   3.521 -0.4875  0.4631  0.6195
  377MOL0     C50762   7.492   6.024   3.537  0.3760 -0.5528  0.5049
  377MOL0     O50763   7.427   6.009   3.659 -0.0719 -0.8999  0.5208
  377MOL0     C50764   7.505   6.034   3.773 -0.5101 -1.2324  1.3656
  377MOL0     C50765   7.557   5.926   3.844 -0.8133 -0.8014  0.2020
  377MOL0     C50766   7.645   5.951   3.950 -0.2673 -0.0445  0.4702
  377MOL0     C50767   7.686   6.077   3.988  0.4828  0.3326 -0.7899
  377MOL0     O50768   7.773   6.072   4.094 -0.4679  0.1690  0.0277
  377MOL0     C50769   7.882   6.149   4.083 -0.0903 -0.5567 -0.0050
  377MOL0     C50770   8.014   6.110   4.159  1.2634 -0.8883  0.0044
  377MOL0     C50771   8.122   6.209   4.116 -0.3188  0.3429 -0.8360
  377MOL0     C50772   8.108   6.342   4.199 -0.8016 -0.3284  0.5507
  377MOL0     C50773   8.230   6.436   4.180 -0.2446 -0.2034  0.1013
  377MOL0     C50774   8.217   6.567   4.246  1.0995 -0.0942  0.6015
  377MOL0     C50775   8.322   6.664   4.199 -0.2468 -0.4580 -0.8120
  377MOL0     C50776   8.318   6.782   4.296  0.6851  0.1704 -0.4305
  377MOL0     N50777   8.206   6.876   4.255  0.0480  0.0646  0.5801
  377MOL0     C50778   8.203   6.967   4.147 -0.5437  0.8661 -0.4236
  377MOL0     C50779   8.085   7.034   4.151  1.0260  0.3195 -0.6282
  377MOL0     C50780   8.042   7.151   4.066  0.0507 -0.1353  0.0949
  377MOL0     C50781   8.076   7.285   4.134  0.8523  1.3057  0.0067
  377MOL0     C50782   8.206   7.354   4.079 -0.5854  0.3321 -0.1279
  377MOL0     C50783   8.183   7.455   3.963  0.6440 -0.5093  0.7917
  377MOL0     O50784   8.282   7.556   3.927 -0.7111 -0.2077 -0.2830
  377MOL0     C50785   8.388   7.574   4.020  0.1829 -0.2728  0.3460
  377MOL0     C50786   8.503   7.489   4.017 -0.4742 -0.9796 -0.4180
  377MOL0     C50787   8.607   7.507   4.109  0.8597  0.6560  0.0798
  377MOL0     C50788   8.714   7.397   4.100  0.4856  0.7515 -0.3201
  377MOL0     C50789   8.598   7.609   4.208 -0.3078 -0.3128 -0.1631
  377MOL0     C50790   8.705   7.638   4.310 -0.1551 -0.3322  0.1585
  377MOL0     O50791   8.699   7.759   4.370  0.2347  0.3893 -0.0370
  377MOL0     C50792   8.814   7.808   4.433  0.5630  0.0113  0.7397
  377MOL0     C50793   8.853   7.745   4.548 -0.8915 -0.0613 -0.5265
  377MOL0     C50794   8.953   7.801   4.631 -1.3601 -0.9884 -0.4447
  377MOL0     C50795   9.013   7.923   4.586  0.7730  0.6821  0.0582
  377MOL0     O50796   9.110   7.964   4.678 -0.2368 -0.1296 -0.1739
  377MOL0     C50797   9.176   8.095   4.655 -0.0474 -0.6240  0.2744
  377MOL0     C50798   9.292   8.113   4.757  0.4196  0.0401  0.6721
  377MOL0     C50799   9.241   8.181   4.880 -1.1674  0.1172 -0.2004
  377MOL0     C50800   9.350   8.188   4.993 -0.9489  0.3716 -0.0778
  377MOL0     C50801   9.304   8.276   5.100 -0.2760 -0.6576 -0.2284
  377MOL0     C50802   9.168   8.232   5.164  1.0305 -0.4055 -0.0786
  377MOL0     C50803   9.130   8.326   5.272 -0.0300 -1.3480 -0.5194
  377MOL0     C50804   9.195   8.282   5.400 -0.4277 -0.0336  0.1907
  377MOL0    Cl50805   9.094   8.162   5.495 -0.2192  0.1406  0.0980
  377MOL0     C50806   8.978   7.975   4.460 -0.5622  0.6038  0.2022
  377MOL0     C50807   8.876   7.920   4.379 -0.4440 -0.0097  0.8742
  377MOL0     O50808   8.786   7.545   4.335 -0.5668 -0.8366 -1.0368
  377MOL0     C50809   8.485   7.693   4.204  1.2114 -1.2205  1.1645
  377MOL0     C50810   8.377   7.680   4.114 -0.9144  0.4469  0.7063
  377MOL0     N50811   8.011   6.969   4.250  0.0799  0.0133  0.8301
  377MOL0     N50812   8.083   6.879   4.307  0.2391  0.4533 -0.3808
  377MOL0     C50813   7.626   6.186   3.923  0.0652 -0.1900 -1.7034
  377MOL0     C50814   7.547   6.163   3.808 -0.2457  0.1974 -0.0427
  377MOL0     C50815   7.409   6.011   3.408  0.0347  0.0574 -0.3372
  377MOL0     C50816   7.269   5.996   3.422  0.6790 -0.1096  0.1147
  377MOL0     C50817   7.200   5.964   3.310  0.6049 -0.3155  0.1835
  377MOL0     C50818   7.252   5.962   3.180 -0.4039 -0.1815  0.9113
  377MOL0     O50819   7.182   5.925   3.065 -0.0455  0.2928 -0.2868
  377MOL0     C50820   7.042   5.933   3.052  0.7030  0.3317  0.1652
  377MOL0     C50821   6.988   5.793   3.014  0.2862  0.1655 -0.4363
  377MOL0     C50822   7.069   5.732   2.905 -0.2628 -0.8503 -0.2722
  377MOL0     C50823   7.017   5.593   2.864  0.2790  0.2556  0.5057
  377MOL0     C50824   7.064   5.480   2.945  0.8090 -0.1500 -0.1346
  377MOL0     C50825   7.127   5.401   3.014  0.1784 -0.1225  0.8456
  377MOL0     C50826   7.389   5.976   3.170  0.9698 -0.4703 -0.3438
  377MOL0     C50827   7.466   6.018   3.280 -0.1388 -0.0594 -0.0732
  377MOL0     H50828   7.540   5.824   3.811 -0.7265 -1.1662  1.2471
  377MOL0     H50829   7.686   5.864   4.000 -1.1413 -0.8259 -0.1287
  377MOL0     H50830   7.915   6.157   3.979  1.6400 -0.9206  0.4844
  377MOL0     H50831   7.849   6.250   4.108 -0.9628 -0.5709 -0.9978
  377MOL0     H50832   8.007   6.118   4.268 -2.1721 -0.3135 -0.1345
  377MOL0     H50833   8.051   6.014   4.122  0.7414 -1.9823  2.1734
  377MOL0     H50834   8.225   6.176   4.132  0.8451  3.9643  0.0357
  377MOL0     H50835   8.120   6.221   4.007 -2.2690 -0.0048 -0.8696
  377MOL0     H50836   8.024   6.394   4.152 -1.4963 -2.5370 -0.7920
  377MOL0     H50837   8.082   6.320   4.303 -2.9604 -3.6620 -0.5575
  377MOL0     H50838   8.320   6.381   4.211  0.2554  0.5569  0.0180
  377MOL0     H50839   8.243   6.455   4.073  2.7574  0.8163  0.5336
  377MOL0     H50840   8.119   6.609   4.221  0.7432 -1.1445  0.1879
  377MOL0     H50841   8.223   6.548   4.354 -3.0319 -0.1765  1.0131
  377MOL0     H50842   8.423   6.624   4.212  0.9810  2.5610 -0.2322
  377MOL0     H50843   8.309   6.691   4.094 -0.5579 -0.8578 -0.8775
  377MOL0     H50844   8.399   6.856   4.286 -0.3045  1.2019 -1.1148
  377MOL0     H50845   8.303   6.749   4.399  1.4572  2.0782  0.3633
  377MOL0     H50846   8.283   6.969   4.072  0.9553 -2.0100  0.9401
  377MOL0     H50847   8.079   7.152   3.963 -0.2516 -2.6859 -0.0967
  377MOL0     H50848   7.934   7.139   4.071 -0.0773  1.2765  2.0883
  377MOL0     H50849   8.098   7.264   4.239  0.2560  0.2842 -0.0597
  377MOL0     H50850   7.993   7.355   4.123 -0.3251 -0.0252  0.1768
  377MOL0     H50851   8.276   7.278   4.044 -1.2053  1.3896 -4.1857
  377MOL0     H50852   8.247   7.405   4.167 -1.2333  0.0286  0.3517
  377MOL0     H50853   8.103   7.522   3.997  0.8837 -0.3377  1.0134
  377MOL0     H50854   8.141   7.404   3.875 -0.4601 -0.2689  1.1605
  377MOL0     H50855   8.509   7.416   3.937 -2.1764  0.4297 -1.9345
  377MOL0     H50856   8.813   7.442   4.110  1.4777 -1.1971 -0.8664
  377MOL0     H50857   8.691   7.330   4.184 -1.7534 -0.0572 -1.4836
  377MOL0     H50858   8.706   7.331   4.013  1.6727 -0.9854  0.8188
  377MOL0     H50859   8.814   7.651   4.585  0.3899 -0.5253 -0.2895
  377MOL0     H50860   8.978   7.758   4.727  3.9726  1.2179 -0.5177
  377MOL0     H50861   9.199   8.109   4.549 -1.6469  3.1585  0.2783
  377MOL0     H50862   9.103   8.173   4.679  0.2609 -0.7958  1.9067
  377MOL0     H50863   9.328   8.012   4.779  0.1522  0.0623  1.2335
  377MOL0     H50864   9.373   8.171   4.712  1.1061 -1.9373 -0.7535
  377MOL0     H50865   9.163   8.116   4.922  0.4117  0.3170  3.4152
  377MOL0     H50866   9.208   8.284   4.864  2.0895  1.3737  0.2615
  377MOL0     H50867   9.361   8.085   5.030  2.5512 -1.0246 -4.2546
  377MOL0     H50868   9.445   8.215   4.946 -1.3967  0.6508 -0.8447
  377MOL0     H50869   9.307   8.376   5.057  3.2048 -0.0164  1.2057
  377MOL0     H50870   9.380   8.285   5.178 -2.1498  0.9146  1.5196
  377MOL0     H50871   9.087   8.223   5.091 -1.4845  1.7806  2.2401
  377MOL0     H50872   9.174   8.131   5.205 -2.2336 -1.3527 -1.5836
  377MOL0     H50873   9.023   8.317   5.288 -0.2053 -1.4110 -1.6524
  377MOL0     H50874   9.152   8.428   5.240 -0.0861 -0.5909  1.6966
  377MOL0     H50875   9.221   8.366   5.464  0.9164 -0.5967  0.4072
  377MOL0     H50876   9.291   8.234   5.381 -1.1051 -1.4630  0.2480
  377MOL0     H50877   9.031   8.063   4.426  3.6030 -1.6179  0.2745
  377MOL0     H50878   8.857   7.957   4.279 -0.6993 -1.4732  0.3589
  377MOL0     H50879   8.490   7.782   4.267  0.8045 -0.5041  0.2079
  377MOL0     H50880   8.302   7.758   4.122  1.5153  3.4625 -2.8899
  377MOL0     H50881   7.658   6.284   3.959  0.0147 -0.8447  0.2520
  377MOL0     H50882   7.510   6.254   3.763  0.0146  0.2088 -0.2347
  377MOL0     H50883   7.222   6.001   3.520  1.6728 -0.1652  0.6112
  377MOL0     H50884   7.092   5.957   3.320  0.0175  1.9047 -3.0111
  377MOL0     H50885   6.981   5.964   3.138 -1.3120  1.2755 -1.5008
  377MOL0     H50886   7.014   5.993   2.965 -3.6988  0.8841  1.6876
  377MOL0     H50887   6.885   5.796   2.977  0.3463  1.1050 -0.5372
  377MOL0     H50888   6.964   5.728   3.098 -0.2027  1.8420  0.7745
  377MOL0     H50889   7.176   5.742   2.926 -0.0534 -0.9262 -1.2278
  377MOL0     H50890   7.071   5.797   2.817  0.1170  1.5549  1.4207
  377MOL0     H50891   7.048   5.576   2.760 -2.2469 -0.3458 -0.2271
  377MOL0     H50892   6.908   5.589   2.856  0.2722  0.1620  0.6565
  377MOL0     H50893   7.179   5.338   3.082  0.1079  0.0557  1.0688
  377MOL0     H50894   7.440   5.952   3.077  1.1420 -0.7426 -0.1782
  377MOL0     H50895   7.574   6.033   3.281 -0.0484 -0.6583 -0.5152
  378MOL0     O50896   4.145   3.344   2.263 -0.2746  0.0917  0.5819
  378MOL0     C50897   4.152   3.223   2.276 -0.1550  0.2118 -0.5080
  378MOL0     O50898   4.205   3.142   2.185 -0.7530 -0.0091  0.6220
  378MOL0     C50899   4.234   3.196   2.057 -0.0515 -0.4321 -0.0270
  378MOL0     C50900   4.179   3.148   1.944  0.2845  0.4672  0.0001
  378MOL0     C50901   4.244   3.186   1.823 -0.8949  0.2230 -0.2885
  378MOL0     C50902   4.359   3.271   1.817  0.5598 -0.7540  0.2199
  378MOL0     O50903   4.417   3.308   1.698 -0.3007 -0.7349 -0.2982
  378MOL0     C50904   4.342   3.342   1.583  1.3879 -0.6731 -0.1236
  378MOL0     C50905   4.390   3.487   1.541  0.1928 -0.5082 -0.0905
  378MOL0     C50906   4.302   3.538   1.438 -0.0734  0.4728 -0.4667
  378MOL0     C50907   4.369   3.649   1.365  0.1880  0.7678  0.5785
  378MOL0     C50908   4.293   3.727   1.257 -0.7038  0.1250  0.1787
  378MOL0     C50909   4.289   3.632   1.129 -0.2879  0.1287  0.4294
  378MOL0     C50910   4.212   3.688   1.013  0.2759 -0.3797 -0.2538
  378MOL0     C50911   4.271   3.818   0.950 -0.8362  0.5663 -0.4892
  378MOL0     N50912   4.296   3.779   0.810 -0.1595 -0.6314  0.3251
  378MOL0     C50913   4.408   3.703   0.771  0.3454  0.5099 -0.1298
  378MOL0     C50914   4.414   3.708   0.637 -0.3047 -0.8423  0.3133
  378MOL0     C50915   4.522   3.665   0.546 -0.3166  0.2093  0.4958
  378MOL0     C50916   4.489   3.546   0.466 -0.0363  0.0711  0.0245
  378MOL0     C50917   4.503   3.416   0.540 -0.2022 -1.1062  0.6653
  378MOL0     C50918   4.632   3.363   0.582  0.0066 -0.2601  0.1797
  378MOL0     O50919   4.723   3.377   0.468 -0.0316 -0.5138 -0.2664
  378MOL0     C50920   4.745   3.269   0.379 -0.9707 -0.5794 -0.6208
  378MOL0     C50921   4.751   3.295   0.240 -0.2826 -0.0536  0.2306
  378MOL0     C50922   4.783   3.191   0.150 -0.6304  0.0324  0.3311
  378MOL0     C50923   4.778   3.230  -0.008 -1.4585  0.2455  1.0964
  378MOL0     C50924   4.826   3.071   0.200 -0.4911  0.6412  0.2970
  378MOL0     C50925   4.872   2.972   0.106 -0.5946  0.9585 -0.2847
  378MOL0     O50926   4.975   2.899   0.155  0.2995  0.6997 -1.3409
  378MOL0     C50927   5.072   2.866   0.067  0.3979 -0.4303  0.5869
  378MOL0     C50928   5.179   2.956   0.060 -1.3162  0.9307 -0.8618
  378MOL0     C50929   5.292   2.920  -0.010 -0.1910 -0.3803  0.4976
  378MOL0     C50930   5.295   2.813  -0.099  0.5889 -0.2465  0.0879
  378MOL0     O50931   5.404   2.784  -0.172 -0.1960 -0.4648 -0.0675
  378MOL0     C50932   5.427   2.652  -0.240 -0.0263  0.9004 -0.4894
  378MOL0     C50933   5.455   2.537  -0.147 -0.5053 -0.1269 -1.0588
  378MOL0     C50934   5.585   2.558  -0.059  0.2242  0.4042 -0.1511
  378MOL0     C50935   5.705   2.478  -0.109 -1.0253 -0.2079 -1.0280
  378MOL0     C50936   5.844   2.528  -0.049  0.7898  0.7684 -0.4644
  378MOL0     C50937   5.859   2.522   0.105  0.1412 -0.4283  0.1467
  378MOL0     C50938   5.987   2.593   0.138 -0.3492 -0.1315 -0.0976
  378MOL0     C50939   6.022   2.612   0.292  0.5618  0.3731 -0.6762
  378MOL0    Cl50940   5.903   2.710   0.373  0.1020 -0.0551  0.3034
  378MOL0     C50941   5.180   2.734  -0.106 -0.6312  0.1728  0.0975
  378MOL0     C50942   5.073   2.756  -0.014  0.0861  0.3671 -0.1346
  378MOL0     O50943   4.818   2.950  -0.003  0.1622  0.2613  0.8807
  378MOL0     C50944   4.824   3.050   0.338 -0.2916 -1.0376 -0.3576
  378MOL0     C50945   4.780   3.145   0.432 -0.3314  0.3799 -0.8714
  378MOL0     N50946   4.307   3.794   0.591 -0.0846  0.3756  1.2317
  378MOL0     N50947   4.237   3.826   0.695  0.8372 -0.7494 -0.0739
  378MOL0     C50948   4.406   3.319   1.936  0.5470 -0.0044 -0.8265
  378MOL0     C50949   4.351   3.267   2.059 -0.1366 -0.1211 -0.2964
  378MOL0     C50950   4.137   3.174   2.415  0.1460  0.2381 -0.0537
  378MOL0     C50951   4.052   3.249   2.496  0.2602  0.0690 -1.0481
  378MOL0     C50952   4.033   3.211   2.633 -0.1497 -0.9274  0.8744
  378MOL0     C50953   4.101   3.100   2.681 -0.2101  0.0833 -0.8545
  378MOL0     O50954   4.071   3.064   2.811 -0.1465 -0.3480  0.0859
  378MOL0     C50955   4.138   2.957   2.877  0.4531  0.5773 -0.8000
  378MOL0     C50956   4.272   2.998   2.931 -0.5157 -0.6067  0.1083
  378MOL0     C50957   4.354   2.883   2.988  0.0874 -0.1412 -0.6071
  378MOL0     C50958   4.448   2.925   3.101  0.3065  0.4028 -0.0937
  378MOL0     C50959   4.395   2.990   3.221 -0.5166  0.2349  0.4220
  378MOL0     C50960   4.343   3.046   3.314 -0.8074  0.1270  0.0410
  378MOL0     C50961   4.177   3.016   2.599 -0.9762 -0.2835  0.0581
  378MOL0     C50962   4.195   3.053   2.468 -0.7471 -0.1793  0.3959
  378MOL0     H50963   4.082   3.100   1.954  0.0758  0.8936  0.0105
  378MOL0     H50964   4.211   3.130   1.736 -2.1140  3.2525 -1.9467
  378MOL0     H50965   4.360   3.276   1.497 -0.8312  1.5500 -2.4654
  378MOL0     H50966   4.240   3.345   1.623  3.0876  1.5868  4.7773
  378MOL0     H50967   4.379   3.546   1.633 -0.6546  0.9416 -1.0742
  378MOL0     H50968   4.492   3.486   1.503  0.4379 -0.0505  0.5466
  378MOL0     H50969   4.274   3.456   1.372 -1.4221 -2.5043  3.4563
  378MOL0     H50970   4.214   3.577   1.491  1.1242  1.4785  0.8891
  378MOL0     H50971   4.404   3.727   1.433  0.4939  1.3054 -0.1780
  378MOL0     H50972   4.455   3.604   1.316 -1.6258 -0.7286 -1.4711
  378MOL0     H50973   4.195   3.764   1.285 -1.3478 -0.8195 -0.7503
  378MOL0     H50974   4.355   3.815   1.238 -1.4062  0.5347 -0.2278
  378MOL0     H50975   4.388   3.608   1.091 -1.3631 -5.6230  0.2909
  378MOL0     H50976   4.250   3.535   1.162  0.6801 -0.6701 -0.7322
  378MOL0     H50977   4.197   3.617   0.932 -0.9105 -1.2481  0.6944
  378MOL0     H50978   4.111   3.699   1.053  0.0533 -1.2337 -0.5769
  378MOL0     H50979   4.360   3.845   1.006 -0.6397  1.1202 -1.0575
  378MOL0     H50980   4.199   3.897   0.969 -1.3006 -0.2462  1.3337
  378MOL0     H50981   4.472   3.651   0.843  0.4802  1.2790  0.3155
  378MOL0     H50982   4.540   3.745   0.473 -1.0686  2.1103  2.2878
  378MOL0     H50983   4.614   3.655   0.604 -0.5472 -1.1190  0.6629
  378MOL0     H50984   4.549   3.548   0.375  1.2164  2.1681  0.8124
  378MOL0     H50985   4.384   3.550   0.437 -0.4999  1.8190  1.7023
  378MOL0     H50986   4.469   3.343   0.466  3.8532 -0.2171 -2.4358
  378MOL0     H50987   4.445   3.420   0.633  4.4832  1.3482  3.8859
  378MOL0     H50988   4.639   3.256   0.606  0.5206 -1.2814 -3.7023
  378MOL0     H50989   4.666   3.412   0.674  0.1587  0.7824 -0.4235
  378MOL0     H50990   4.736   3.392   0.195 -3.3546 -0.6910 -0.3849
  378MOL0     H50991   4.699   3.173  -0.057  0.0662 -1.0570  0.0486
  378MOL0     H50992   4.763   3.338  -0.015 -0.8505  0.1891 -2.8231
  378MOL0     H50993   4.867   3.205  -0.066 -1.9118 -0.1335  0.5559
  378MOL0     H50994   5.183   3.048   0.117  4.2111 -0.6091  1.9479
  378MOL0     H50995   5.381   2.981   0.002  0.1807 -0.5940 -1.0378
  378MOL0     H50996   5.339   2.627  -0.300 -0.0248 -0.3111 -0.0043
  378MOL0     H50997   5.513   2.664  -0.307  1.0964  1.3815  0.9752
  378MOL0     H50998   5.372   2.520  -0.078  0.5153  1.8252  0.7632
  378MOL0     H50999   5.462   2.453  -0.218 -4.4296  0.3423 -2.2829
  378MOL0     H51000   5.566   2.527   0.044  0.7604  2.4835  0.6267
  378MOL0     H51001   5.598   2.666  -0.052  0.5588  0.8006 -4.4058
  378MOL0     H51002   5.690   2.374  -0.078  0.5551 -0.1745 -0.0626
  378MOL0     H51003   5.721   2.487  -0.217 -3.2650  1.3874 -1.2953
  378MOL0     H51004   5.853   2.634  -0.075 -0.6894  0.2121 -3.6258
  378MOL0     H51005   5.928   2.475  -0.095  3.4812  2.1795  2.4103
  378MOL0     H51006   5.783   2.582   0.157 -2.3630 -2.6490 -0.7454
  378MOL0     H51007   5.857   2.422   0.149 -1.5578 -0.1589  0.7397
  378MOL0     H51008   5.973   2.697   0.108 -1.1105 -0.5982 -1.4490
  378MOL0     H51009   6.078   2.558   0.088  0.5351  2.6427 -0.6383
  378MOL0     H51010   6.117   2.668   0.292  0.4034  0.9980  3.7459
  378MOL0     H51011   6.035   2.520   0.350  0.4546  1.9003  1.9479
  378MOL0     H51012   5.176   2.643  -0.164  1.3184  1.1063 -1.6037
  378MOL0     H51013   4.993   2.683  -0.007  2.0093 -1.8578 -0.1772
  378MOL0     H51014   4.846   2.950   0.375 -0.8580 -0.5953  1.2201
  378MOL0     H51015   4.794   3.136   0.539  2.8946  0.5936 -1.1716
  378MOL0     H51016   4.491   3.384   1.954 -0.7984  0.6930  5.1517
  378MOL0     H51017   4.404   3.294   2.150  1.0727  0.0779 -1.0340
  378MOL0     H51018   3.994   3.334   2.463 -0.9009  0.1702  1.0961
  378MOL0     H51019   3.968   3.265   2.701 -0.1417 -1.6051  1.4228
  378MOL0     H51020   4.068   2.928   2.955 -0.3857  0.3127 -1.6247
  378MOL0     H51021   4.141   2.866   2.817 -3.3838 -0.9369  1.0326
  378MOL0     H51022   4.257   3.068   3.014 -3.8786 -0.2806 -0.6469
  378MOL0     H51023   4.334   3.037   2.850 -0.4028  0.2210  0.5823
  378MOL0     H51024   4.397   2.842   2.896 -1.7179  1.1187 -2.0849
  378MOL0     H51025   4.286   2.804   3.020 -0.6684  0.1812 -1.3877
  378MOL0     H51026   4.521   2.992   3.055  2.2532 -0.9392  0.8534
  378MOL0     H51027   4.493   2.832   3.140  1.1749 -0.6725 -3.3433
  378MOL0     H51028   4.287   3.083   3.397  0.0994  0.2675  0.6047
  378MOL0     H51029   4.231   2.926   2.629 -0.4838 -0.0992 -0.2514
  378MOL0     H51030   4.253   2.996   2.395 -2.9437  0.2715 -1.8418
  379MOL0     O51031   8.060   8.166   2.080  0.2681  0.1478  0.1157
  379MOL0     C51032   8.184   8.169   2.072  0.6207 -0.1055  0.9264
  379MOL0     O51033   8.267   8.176   2.176  0.4595  0.6242 -0.5578
  379MOL0     C51034   8.225   8.178   2.307  0.5112 -0.5952  0.2072
  379MOL0     C51035   8.104   8.115   2.360 -0.4370 -0.4251 -0.4618
  379MOL0     C51036   8.061   8.152   2.480 -0.1922 -0.0156  0.1884
  379MOL0     C51037   8.133   8.237   2.562  0.0794 -0.2637  0.1834
  379MOL0     O51038   8.087   8.291   2.680  0.1610 -0.4995  0.2534
  379MOL0     C51039   7.977   8.239   2.749 -0.2813 -0.3244 -0.7113
  379MOL0     C51040   7.993   8.227   2.902 -0.2004  0.0406 -0.6148
  379MOL0     C51041   8.021   8.368   2.960  0.2848  0.3902  0.4834
  379MOL0     C51042   8.037   8.354   3.109 -0.4030 -0.4942  0.1016
  379MOL0     C51043   8.093   8.483   3.173 -0.2546  0.0710 -0.2561
  379MOL0     C51044   8.107   8.456   3.327 -0.0534 -0.4893 -0.3576
  379MOL0     C51045   8.137   8.585   3.402  1.0341  0.0273 -0.0866
  379MOL0     C51046   8.264   8.656   3.343  1.0274 -0.2331  0.3041
  379MOL0     N51047   8.314   8.759   3.437 -0.5471 -0.3094  0.7621
  379MOL0     C51048   8.426   8.750   3.518  0.0768  0.7181 -0.7006
  379MOL0     C51049   8.428   8.864   3.578 -0.1347 -0.2118 -0.3486
  379MOL0     C51050   8.516   8.889   3.694  1.1700 -0.1989  0.5609
  379MOL0     C51051   8.547   9.039   3.711 -0.3479 -0.4200 -0.0241
  379MOL0     C51052   8.623   9.068   3.840  0.7915  0.3432  0.4333
  379MOL0     C51053   8.642   9.216   3.864 -0.3594 -1.0042 -0.0800
  379MOL0     O51054   8.715   9.224   3.985  0.2053  0.6440 -0.0453
  379MOL0     C51055   8.691   9.326   4.073 -1.0880  0.4292  0.1186
  379MOL0     C51056   8.719   9.309   4.209 -0.5645  1.2278  0.6093
  379MOL0     C51057   8.680   9.409   4.300  0.5160  0.1565  0.2256
  379MOL0     C51058   8.691   9.379   4.439 -0.0716 -0.4084 -1.4519
  379MOL0     C51059   8.617   9.529   4.256 -0.1708  0.1840 -1.0764
  379MOL0     C51060   8.566   9.640   4.348 -0.2258  0.4324  0.1257
  379MOL0     O51061   8.480   9.725   4.290 -0.2524 -0.2173 -0.0217
  379MOL0     C51062   8.446   9.835   4.361 -0.7037 -0.2676  0.1086
  379MOL0     C51063   8.320   9.840   4.416  0.6142 -0.4581 -0.6427
  379MOL0     C51064   8.280   9.950   4.492  0.2162 -0.2450 -0.7662
  379MOL0     C51065   8.363  10.065   4.509 -0.9254  0.4367  0.7704
  379MOL0     O51066   8.337  10.187   4.568 -0.1369 -0.8588 -0.1942
  379MOL0     C51067   8.237  10.186   4.667 -1.0639 -0.2744  0.6492
  379MOL0     C51068   8.235  10.321   4.737 -0.1242  0.7387  1.2569
  379MOL0     C51069   8.138  10.303   4.850 -0.3286 -0.0479 -0.4778
  379MOL0     C51070   8.172  10.414   4.942  0.3132 -0.1539 -0.4678
  379MOL0     C51071   8.050  10.438   5.030 -0.3140  0.5466  1.4933
  379MOL0     C51072   8.062  10.571   5.106  0.1998  1.2408 -0.7303
  379MOL0     C51073   7.937  10.652   5.129 -0.4413 -1.0524  0.4469
  379MOL0     C51074   7.814  10.574   5.194 -0.2788  0.3471 -0.0750
  379MOL0    Cl51075   7.865  10.501   5.352  0.1336  0.1284  0.1359
  379MOL0     C51076   8.495  10.055   4.456 -0.2483  0.3466  0.2160
  379MOL0     C51077   8.532   9.940   4.387  0.6288  0.4757 -0.6088
  379MOL0     O51078   8.627   9.654   4.448  0.0317 -0.3728  0.5104
  379MOL0     C51079   8.597   9.548   4.119 -0.3197  0.1894 -0.9777
  379MOL0     C51080   8.650   9.450   4.036  0.6126 -0.6203  0.0772
  379MOL0     N51081   8.324   8.946   3.534  0.6515  0.0350  0.5866
  379MOL0     N51082   8.272   8.889   3.434  0.4738  0.3657  0.1087
  379MOL0     C51083   8.252   8.291   2.518  0.0467  0.1484 -1.1289
  379MOL0     C51084   8.303   8.263   2.388  0.3123  0.1717 -0.1047
  379MOL0     C51085   8.253   8.148   1.937 -0.6907 -0.2686 -0.0887
  379MOL0     C51086   8.186   8.112   1.820 -0.7657 -0.5493  0.2541
  379MOL0     C51087   8.258   8.113   1.696  0.0370  0.7317 -0.2019
  379MOL0     C51088   8.389   8.149   1.687 -0.3635  0.7597  0.2791
  379MOL0     O51089   8.450   8.150   1.567 -0.4209 -0.5553  0.3850
  379MOL0     C51090   8.557   8.244   1.541  0.3821 -0.9577 -0.4931
  379MOL0     C51091   8.564   8.278   1.390 -0.6670  0.5088  1.1574
  379MOL0     C51092   8.425   8.318   1.327 -0.1783 -1.0276 -0.3291
  379MOL0     C51093   8.346   8.454   1.367 -1.1966 -0.0892 -0.5846
  379MOL0     C51094   8.430   8.567   1.311  0.3758  0.5171  0.2881
  379MOL0     C51095   8.497   8.656   1.266 -1.5378  0.2840 -0.5808
  379MOL0     C51096   8.453   8.182   1.802 -0.0789 -0.3009  0.0780
  379MOL0     C51097   8.392   8.176   1.928  0.7174 -0.3970 -0.0537
  379MOL0     H51098   8.046   8.044   2.303 -3.7010 -0.1736  2.2649
  379MOL0     H51099   7.963   8.115   2.509  0.4117  0.9637  4.1185
  379MOL0     H51100   7.884   8.295   2.732 -1.6021 -1.0720  3.0302
  379MOL0     H51101   7.962   8.134   2.723  1.9271 -0.9837  0.4371
  379MOL0     H51102   7.910   8.181   2.954 -1.9090  2.4011 -1.0812
  379MOL0     H51103   8.087   8.174   2.918  1.4521  2.5725 -1.2573
  379MOL0     H51104   8.116   8.402   2.918  1.3019 -1.9567  0.7214
  379MOL0     H51105   7.940   8.439   2.943 -0.4659  0.2770  3.1930
  379MOL0     H51106   7.934   8.340   3.144  0.1030  0.7032  2.2263
  379MOL0     H51107   8.108   8.272   3.127  1.1287  0.5253 -1.0269
  379MOL0     H51108   8.191   8.509   3.131 -1.2164  1.4015 -1.7805
  379MOL0     H51109   8.027   8.568   3.155  2.3271  2.2805 -0.0113
  379MOL0     H51110   8.025   8.401   3.374  1.3411 -2.2507  0.1196
  379MOL0     H51111   8.188   8.387   3.350  2.1321  1.9196 -0.3900
  379MOL0     H51112   8.052   8.655   3.402  1.0278  0.0974  2.1714
  379MOL0     H51113   8.163   8.572   3.508 -0.0922  2.3331  0.5492
  379MOL0     H51114   8.238   8.709   3.251 -4.7660 -0.1488  1.6322
  379MOL0     H51115   8.355   8.596   3.330  2.1987  0.7645  3.1097
  379MOL0     H51116   8.478   8.660   3.551 -3.3867 -0.6887  1.3877
  379MOL0     H51117   8.468   8.848   3.784  0.0738  0.5822  0.3482
  379MOL0     H51118   8.615   8.846   3.677  0.7789  0.2319 -3.9420
  379MOL0     H51119   8.461   9.107   3.720  0.1233  0.1380  0.3193
  379MOL0     H51120   8.601   9.070   3.621 -1.3046 -2.8175 -1.5406
  379MOL0     H51121   8.721   9.020   3.829  1.6754  2.4691 -1.8272
  379MOL0     H51122   8.564   9.026   3.922 -1.0983 -0.2846 -1.1866
  379MOL0     H51123   8.542   9.259   3.876 -0.3353 -0.8186 -0.5212
  379MOL0     H51124   8.714   9.258   3.794  0.7038  0.1151  1.6139
  379MOL0     H51125   8.767   9.216   4.237  0.8765  1.0320 -2.0861
  379MOL0     H51126   8.610   9.406   4.508  2.3172 -2.0662  2.3530
  379MOL0     H51127   8.713   9.272   4.450 -2.1351 -0.7401  0.1114
  379MOL0     H51128   8.773   9.438   4.480 -1.2188 -0.7437  1.5894
  379MOL0     H51129   8.248   9.762   4.393 -0.2248 -0.0867  0.5985
  379MOL0     H51130   8.184   9.951   4.542 -0.8820  3.2023 -2.6240
  379MOL0     H51131   8.147  10.157   4.612  1.4645 -2.8964 -2.5784
  379MOL0     H51132   8.255  10.107   4.740  0.2381 -0.0218  0.6332
  379MOL0     H51133   8.335  10.342   4.775  0.5185  2.1643 -1.0344
  379MOL0     H51134   8.210  10.390   4.656  1.5496  0.4351  0.4277
  379MOL0     H51135   8.148  10.199   4.884  3.5790 -0.4240 -2.2280
  379MOL0     H51136   8.037  10.312   4.808  0.3924  0.6526 -2.1220
  379MOL0     H51137   8.262  10.384   4.998  0.2924 -1.9944 -1.3415
  379MOL0     H51138   8.193  10.497   4.874  0.4665  2.4039  2.4593
  379MOL0     H51139   8.041  10.370   5.115 -0.1408  0.8300  1.7439
  379MOL0     H51140   7.958  10.440   4.971 -0.5220 -0.2973  1.7776
  379MOL0     H51141   8.114  10.547   5.199 -1.7160  0.9280  0.2919
  379MOL0     H51142   8.128  10.633   5.044 -0.7317  0.7447 -2.3021
  379MOL0     H51143   7.897  10.696   5.038 -2.6459 -1.6631  1.0451
  379MOL0     H51144   7.972  10.736   5.190  3.2597 -0.7365 -1.8031
  379MOL0     H51145   7.786  10.490   5.130 -0.4433 -1.5807  2.3956
  379MOL0     H51146   7.723  10.634   5.197 -1.1370 -0.7234 -2.6346
  379MOL0     H51147   8.561  10.141   4.462 -1.8378  1.8694 -2.2450
  379MOL0     H51148   8.631   9.938   4.341  2.8968 -1.4863  3.6916
  379MOL0     H51149   8.526   9.622   4.083  2.4154  3.3980 -0.1732
  379MOL0     H51150   8.627   9.467   3.931 -2.6625  0.9224  0.9450
  379MOL0     H51151   8.300   8.360   2.586  0.3802 -0.5014 -0.6854
  379MOL0     H51152   8.374   8.326   2.336 -1.8755  1.8960 -1.1701
  379MOL0     H51153   8.081   8.085   1.821 -0.5865 -1.2730  0.2916
  379MOL0     H51154   8.204   8.090   1.605 -1.1841 -0.4773  0.7778
  379MOL0     H51155   8.554   8.331   1.606  2.5223 -1.0864 -0.1416
  379MOL0     H51156   8.652   8.198   1.569 -0.2886 -1.8239  0.4294
  379MOL0     H51157   8.613   8.197   1.335 -0.1130  2.7140 -1.8762
  379MOL0     H51158   8.640   8.356   1.384  3.2258 -2.9434  0.8815
  379MOL0     H51159   8.360   8.230   1.336 -2.3718  0.5048 -0.3509
  379MOL0     H51160   8.455   8.341   1.224 -0.0899  4.0145  0.5898
  379MOL0     H51161   8.321   8.461   1.473 -1.1397  1.0652 -0.6291
  379MOL0     H51162   8.250   8.467   1.317 -2.3049 -1.2405  1.1274
  379MOL0     H51163   8.556   8.734   1.221  2.2273 -1.5432  0.7382
  379MOL0     H51164   8.552   8.225   1.799  0.3541 -1.1613  1.1842
  379MOL0     H51165   8.443   8.213   2.016 -0.1120 -0.5792  0.5228
  380MOL0     O51166   5.532   5.905  11.447  0.6236 -0.4343  0.5305
  380MOL0     C51167   5.647   5.946  11.437 -0.4257  0.0517 -0.6127
  380MOL0     O51168   5.711   6.035  11.517 -0.4993  0.2495 -0.2012
  380MOL0     C51169   5.651   6.077  11.633 -0.2669  0.1287 -0.1612
  380MOL0     C51170   5.678   6.208  11.661 -0.1872 -0.1526  0.2164
  380MOL0     C51171   5.652   6.253  11.784  0.4457 -0.4030 -0.4729
  380MOL0     C51172   5.572   6.189  11.878  0.7443  0.1082  0.3714
  380MOL0     O51173   5.537   6.257  11.999  0.6992  0.4567 -0.1016
  380MOL0     C51174   5.595   6.201  12.118  0.2749 -0.5936  0.9307
  380MOL0     C51175   5.541   6.306  12.222  0.1994  1.2900 -0.0019
  380MOL0     C51176   5.542   6.257  12.367 -0.6942 -0.1228  0.4528
  380MOL0     C51177   5.448   6.342  12.461 -0.1357 -0.3375  0.8896
  380MOL0     C51178   5.470   6.324  12.607  0.0173 -0.4081  0.3322
  380MOL0     C51179   5.370   6.394  12.706  0.6622  0.2841 -0.0303
  380MOL0     C51180   5.342   6.541  12.673  0.5825  0.2186  0.9395
  380MOL0     C51181   5.298   6.621  12.800  0.7382 -0.0519  0.5511
  380MOL0     N51182   5.160   6.601  12.827  0.2675  1.1898 -0.2507
  380MOL0     C51183   5.090   6.488  12.870 -0.3758 -0.7134  0.4258
  380MOL0     C51184   4.975   6.527  12.921 -0.3672 -0.9867 -0.3733
  380MOL0     C51185   4.863   6.445  12.981  0.2786 -0.0885  0.7313
  380MOL0     C51186   4.738   6.451  12.892 -0.2017 -0.2157  0.0998
  380MOL0     C51187   4.615   6.391  12.966 -0.5948  1.1192  0.1403
  380MOL0     C51188   4.499   6.410  12.868 -0.3377 -0.2678  0.5553
  380MOL0     O51189   4.508   6.301  12.769  1.2574  0.2301  0.5016
  380MOL0     C51190   4.402   6.285  12.676 -0.6576 -0.0340 -0.3667
  380MOL0     C51191   4.400   6.180  12.595  0.1650 -0.4301  0.1761
  380MOL0     C51192   4.307   6.147  12.489  1.0050 -0.3823 -0.2591
  380MOL0     C51193   4.346   6.030  12.409  0.7527  0.7420 -0.6543
  380MOL0     C51194   4.195   6.233  12.473 -0.1013  0.2309  0.6885
  380MOL0     C51195   4.089   6.218  12.375  0.8524  0.2106  0.7388
  380MOL0     O51196   4.045   6.099  12.334 -0.4236  0.3973 -0.0570
  380MOL0     C51197   3.930   6.079  12.270 -0.0700 -0.5805 -0.3949
  380MOL0     C51198   3.815   6.041  12.346 -1.1173 -0.1496 -0.2817
  380MOL0     C51199   3.687   6.047  12.292  0.3633 -0.8586  0.2585
  380MOL0     C51200   3.679   6.100  12.162  0.2158  0.1940 -0.5120
  380MOL0     O51201   3.555   6.118  12.104  0.0023 -0.1162 -0.6811
  380MOL0     C51202   3.476   6.227  12.159  0.5685  0.0420 -0.6167
  380MOL0     C51203   3.329   6.233  12.104  0.1281  0.2524  1.5828
  380MOL0     C51204   3.255   6.099  12.092 -0.4662  1.0204  0.5388
  380MOL0     C51205   3.112   6.110  12.039 -0.2093  0.4935 -0.5002
  380MOL0     C51206   3.060   5.973  11.996  0.4271 -0.7505  0.6876
  380MOL0     C51207   3.088   5.944  11.847  0.1863 -0.0577 -0.7424
  380MOL0     C51208   3.068   5.801  11.824  0.0150  1.5204 -0.2292
  380MOL0     C51209   3.173   5.733  11.739 -0.8101 -0.2124 -0.1949
  380MOL0    Cl51210   3.336   5.762  11.817  0.0429  0.5478 -0.4903
  380MOL0     C51211   3.789   6.113  12.083 -0.2108  0.3105 -0.3722
  380MOL0     C51212   3.916   6.114  12.137 -0.5549  0.1776  0.2623
  380MOL0     O51213   4.035   6.328  12.344  0.3374  0.0832  0.4273
  380MOL0     C51214   4.192   6.341  12.559 -0.1819  0.4919 -0.7735
  380MOL0     C51215   4.294   6.370  12.656 -0.2328 -0.1120 -0.9087
  380MOL0     N51216   4.975   6.665  12.894  0.4375 -0.4211 -0.1328
  380MOL0     N51217   5.070   6.705  12.831 -0.3860 -0.5754  0.6603
  380MOL0     C51218   5.525   6.061  11.836  1.3235  0.2135  0.0224
  380MOL0     C51219   5.577   5.993  11.721 -0.3108  0.2064 -0.2309
  380MOL0     C51220   5.724   5.898  11.312  0.4894 -0.7383 -1.1125
  380MOL0     C51221   5.854   5.963  11.281 -0.5965 -0.1252  0.3354
  380MOL0     C51222   5.925   5.923  11.168  0.4206 -0.4233 -0.0743
  380MOL0     C51223   5.877   5.810  11.094  0.0712  0.3764 -0.5857
  380MOL0     O51224   5.956   5.756  10.997 -0.8327 -0.2909  0.2500
  380MOL0     C51225   5.994   5.615  11.022 -0.0332 -0.1577 -0.0491
  380MOL0     C51226   6.111   5.575  10.914  0.7716 -0.4195  0.4436
  380MOL0     C51227   6.040   5.479  10.810  0.1471 -0.7644  0.3564
  380MOL0     C51228   5.944   5.562  10.719 -0.2170 -0.3739  1.1570
  380MOL0     C51229   6.008   5.633  10.608 -0.2004  0.1773 -0.1276
  380MOL0     C51230   6.084   5.664  10.521  0.2572 -0.4852  0.5708
  380MOL0     C51231   5.757   5.755  11.126  0.2705 -0.9094  0.0363
  380MOL0     C51232   5.675   5.794  11.236 -0.4319  1.0873 -0.0108
  380MOL0     H51233   5.725   6.270  11.586  2.1855  0.0831  1.7990
  380MOL0     H51234   5.685   6.350  11.820  2.4048 -1.6241  1.2265
  380MOL0     H51235   5.570   6.099  12.148  3.5696 -0.9961  2.8471
  380MOL0     H51236   5.705   6.200  12.114  0.2418 -0.8744 -1.5979
  380MOL0     H51237   5.602   6.397  12.215  2.4206 -0.0526  0.6640
  380MOL0     H51238   5.435   6.324  12.206 -0.9731 -4.9265 -2.1453
  380MOL0     H51239   5.531   6.149  12.376  0.5374 -0.4386 -1.2429
  380MOL0     H51240   5.646   6.270  12.398 -0.6954 -0.1878  0.4848
  380MOL0     H51241   5.456   6.446  12.426 -0.8896 -1.3434 -2.6450
  380MOL0     H51242   5.342   6.329  12.434  0.3492 -0.9895 -0.8293
  380MOL0     H51243   5.483   6.221  12.640  5.7020  0.0548  0.5454
  380MOL0     H51244   5.568   6.366  12.633  0.5016 -3.3389  3.9518
  380MOL0     H51245   5.276   6.339  12.707  0.7737  0.0714  1.8127
  380MOL0     H51246   5.409   6.385  12.808 -1.7596  0.2277  0.9582
  380MOL0     H51247   5.436   6.587  12.639 -0.5955  2.3518  0.3788
  380MOL0     H51248   5.274   6.562  12.590 -3.2961  2.0169  4.2100
  380MOL0     H51249   5.318   6.728  12.789 -0.2573  0.0049 -1.0356
  380MOL0     H51250   5.355   6.584  12.886  0.2200 -1.5180  0.2925
  380MOL0     H51251   5.130   6.387  12.872 -0.1823 -0.6469  2.7805
  380MOL0     H51252   4.889   6.339  12.980 -2.8095 -0.9601 -0.0142
  380MOL0     H51253   4.847   6.487  13.081  0.6450  0.5042  0.5477
  380MOL0     H51254   4.749   6.388  12.804 -2.8011 -1.5334  0.6104
  380MOL0     H51255   4.719   6.556  12.869 -0.1666 -0.6134 -1.9196
  380MOL0     H51256   4.593   6.447  13.057  1.9636 -0.2861  1.7577
  380MOL0     H51257   4.624   6.284  12.987 -0.5860  0.9963 -0.4675
  380MOL0     H51258   4.492   6.503  12.811 -0.8930 -0.8427 -0.3436
  380MOL0     H51259   4.401   6.403  12.917  0.1801 -1.5919  1.4584
  380MOL0     H51260   4.488   6.118  12.608  0.7978  0.3324 -0.3953
  380MOL0     H51261   4.269   5.958  12.439 -2.2577  4.0967  0.3230
  380MOL0     H51262   4.347   6.053  12.302 -1.5631 -0.5111 -1.0154
  380MOL0     H51263   4.444   5.991  12.438 -0.2132 -2.4871 -1.3105
  380MOL0     H51264   3.818   6.017  12.452 -0.5049 -1.2854 -0.5507
  380MOL0     H51265   3.604   6.010  12.350  0.8276  0.9556  2.1935
  380MOL0     H51266   3.482   6.227  12.269  1.2632 -2.6125 -0.5896
  380MOL0     H51267   3.505   6.329  12.132 -1.3271  1.1816  1.2679
  380MOL0     H51268   3.263   6.294  12.167 -1.4248  0.8332 -0.4923
  380MOL0     H51269   3.339   6.272  12.002  3.8470 -0.0221  1.7000
  380MOL0     H51270   3.253   6.065  12.196  0.6296  2.0742  0.9232
  380MOL0     H51271   3.323   6.027  12.046  1.5312 -0.6419  5.4991
  380MOL0     H51272   3.047   6.145  12.120  1.9107  2.4450  0.4771
  380MOL0     H51273   3.128   6.186  11.962  2.3502  1.3685  0.7587
  380MOL0     H51274   2.952   5.987  11.998  0.6318  0.9295  1.1226
  380MOL0     H51275   3.100   5.890  12.056  0.1791 -0.1905  1.6465
  380MOL0     H51276   3.020   5.999  11.781 -2.0716  0.5412  1.8957
  380MOL0     H51277   3.192   5.975  11.830 -0.2526  0.8650 -1.8566
  380MOL0     H51278   2.969   5.778  11.784 -0.3249 -0.0077  1.3690
  380MOL0     H51279   3.061   5.745  11.918  4.6469  0.1494 -0.4443
  380MOL0     H51280   3.173   5.778  11.640 -0.6216  0.6217  0.1773
  380MOL0     H51281   3.152   5.625  11.732 -3.0753  0.0484  1.4711
  380MOL0     H51282   3.777   6.135  11.977  0.4548  0.3601 -0.4398
  380MOL0     H51283   4.006   6.138  12.081 -0.9994  1.2768  0.0049
  380MOL0     H51284   4.110   6.412  12.553 -1.8657 -1.0646  1.6085
  380MOL0     H51285   4.295   6.464  12.709  1.4497 -0.3024 -0.5611
  380MOL0     H51286   5.455   6.007  11.898 -1.6396  1.4837 -1.9987
  380MOL0     H51287   5.543   5.892  11.700 -1.3903  0.7083 -1.0047
  380MOL0     H51288   5.905   6.044  11.332 -0.3781 -0.5218  0.7553
  380MOL0     H51289   6.027   5.957  11.152  0.7358 -2.2639 -2.7071
  380MOL0     H51290   6.039   5.612  11.122  0.5741  3.4735 -0.0725
  380MOL0     H51291   5.904   5.553  11.021 -0.5257  0.5543 -0.6196
  380MOL0     H51292   6.191   5.513  10.956  0.8031  0.7623  2.2395
  380MOL0     H51293   6.176   5.655  10.879  0.3752  0.9045  2.5757
  380MOL0     H51294   5.984   5.400  10.859 -1.6566 -0.9306 -1.8021
  380MOL0     H51295   6.124   5.434  10.756  0.5057  1.2666 -0.9178
  380MOL0     H51296   5.895   5.643  10.774 -4.8701  0.3617 -3.2511
  380MOL0     H51297   5.862   5.499  10.682 -1.7457  1.4559  1.2412
  380MOL0     H51298   6.154   5.684  10.442  0.4036 -3.7099 -0.2404
  380MOL0     H51299   5.732   5.664  11.074 -0.9021 -1.6847  1.8475
  380MOL0     H51300   5.587   5.738  11.266 -0.3550  2.3029  2.8238
  381MOL0     O51301   2.587   4.683   6.777  0.2968 -0.3051  1.0194
  381MOL0     C51302   2.576   4.721   6.894 -0.4661 -0.7528  0.4945
  381MOL0     O51303   2.457   4.759   6.958 -0.3016  0.1030 -0.1770
  381MOL0     C51304   2.338   4.746   6.894 -0.7655 -0.2017  0.3828
  381MOL0     C51305   2.278   4.622   6.875  0.3455  0.1948 -0.3108
  381MOL0     C51306   2.164   4.612   6.788  0.2722  0.6218  0.4316
  381MOL0     C51307   2.116   4.718   6.714 -0.4331  0.5678  0.2177
  381MOL0     O51308   2.004   4.722   6.639  0.1719  0.3996 -0.4753
  381MOL0     C51309   1.903   4.619   6.667 -0.6619 -1.2289 -0.7379
  381MOL0     C51310   1.795   4.639   6.560  0.1840 -0.5517 -0.0754
  381MOL0     C51311   1.707   4.513   6.541 -0.6142 -0.4593 -0.1598
  381MOL0     C51312   1.601   4.509   6.645  0.5004 -0.6291  0.3997
  381MOL0     C51313   1.487   4.411   6.600 -0.1338  0.5185  0.6522
  381MOL0     C51314   1.382   4.387   6.709 -0.2219  0.6479 -0.6398
  381MOL0     C51315   1.324   4.522   6.761 -0.1614  0.3812 -0.6839
  381MOL0     C51316   1.197   4.494   6.844 -0.2216  0.6289 -0.4509
  381MOL0     N51317   1.131   4.602   6.906  0.3532 -0.8017  0.0005
  381MOL0     C51318   1.130   4.640   7.033 -0.7995 -0.7570  0.9071
  381MOL0     C51319   1.049   4.747   7.048  0.9171 -0.5474 -0.6528
  381MOL0     C51320   1.030   4.825   7.179  0.5194  0.9361 -0.2017
  381MOL0     C51321   0.908   4.776   7.251  0.6185 -0.7095  0.2805
  381MOL0     C51322   0.885   4.836   7.390  0.1558  0.3281 -0.0778
  381MOL0     C51323   0.748   4.812   7.458  0.0840  0.0903  0.4159
  381MOL0     O51324   0.726   4.676   7.487  0.2818  0.5882 -0.1090
  381MOL0     C51325   0.620   4.650   7.570 -0.6218 -0.2023 -0.8913
  381MOL0     C51326   0.519   4.735   7.624 -0.1566 -0.6765 -0.8055
  381MOL0     C51327   0.413   4.688   7.706  0.5453  0.4230  0.0938
  381MOL0     C51328   0.308   4.779   7.757  0.0169 -0.4124  0.0593
  381MOL0     C51329   0.409   4.549   7.733  0.2790 -0.5032  0.3497
  381MOL0     C51330   0.305   4.476   7.815  1.0705  0.2588 -0.4621
  381MOL0     O51331   0.348   4.376   7.900  0.6494  0.6061  0.8223
  381MOL0     C51332   0.258   4.315   7.992 -0.5675 -0.2819 -0.4598
  381MOL0     C51333   0.245   4.175   7.999 -0.0648 -0.5685  0.1749
  381MOL0     C51334   0.138   4.114   8.062  0.2685  0.6937  0.5385
  381MOL0     C51335   0.041   4.191   8.126  0.2529  1.0337 -0.0694
  381MOL0     O51336  -0.061   4.124   8.181  1.2849  0.3237  0.5530
  381MOL0     C51337  -0.063   4.123   8.322  0.4805  0.1186 -1.0125
  381MOL0     C51338  -0.163   4.014   8.375 -1.7132 -0.0731  0.8916
  381MOL0     C51339  -0.193   4.011   8.528  0.0939 -0.7928  0.3880
  381MOL0     C51340  -0.206   4.152   8.594 -0.1866  0.1786 -0.1312
  381MOL0     C51341  -0.286   4.134   8.724 -0.1482 -0.0853 -0.7030
  381MOL0     C51342  -0.287   4.234   8.827 -0.4725 -1.1912 -0.3917
  381MOL0     C51343  -0.336   4.369   8.774  0.6786 -0.8867  1.1553
  381MOL0     C51344  -0.338   4.479   8.879  0.5693  0.2560 -0.0275
  381MOL0    Cl51345  -0.383   4.639   8.808  0.3377  0.1319  0.0942
  381MOL0     C51346   0.068   4.330   8.139  0.7660  1.1935  0.4954
  381MOL0     C51347   0.171   4.394   8.063  0.4935 -0.3480  0.6875
  381MOL0     O51348   0.190   4.509   7.809  0.1532 -0.1075 -0.2463
  381MOL0     C51349   0.518   4.473   7.685  0.5758  0.1300 -0.0580
  381MOL0     C51350   0.620   4.521   7.609  0.5719 -0.2871 -0.5699
  381MOL0     N51351   1.000   4.776   6.923  0.3377  0.8870 -1.1957
  381MOL0     N51352   1.042   4.690   6.841 -0.1033  0.3206  0.7938
  381MOL0     C51353   2.179   4.842   6.735  0.9594  0.0343 -0.0741
  381MOL0     C51354   2.276   4.862   6.842 -1.1008 -0.2877  1.0994
  381MOL0     C51355   2.699   4.747   6.969 -0.4917 -0.6783  0.1162
  381MOL0     C51356   2.699   4.742   7.106 -0.6806  0.0784 -0.2675
  381MOL0     C51357   2.812   4.786   7.174  0.3429 -0.0423  0.3088
  381MOL0     C51358   2.935   4.826   7.111 -0.6554 -0.1638  0.5967
  381MOL0     O51359   3.044   4.868   7.198  0.6765 -0.1189 -0.6881
  381MOL0     C51360   3.170   4.876   7.137  0.5320 -0.7140  0.1436
  381MOL0     C51361   3.274   4.940   7.237  0.1743  0.1470 -0.5879
  381MOL0     C51362   3.399   4.988   7.166  1.0365 -0.0619 -0.4218
  381MOL0     C51363   3.504   5.055   7.264  0.2914  0.4505  0.3815
  381MOL0     C51364   3.632   5.049   7.203  0.2302 -0.0495  0.1352
  381MOL0     C51365   3.737   5.051   7.144  0.0801 -0.3924 -0.3351
  381MOL0     C51366   2.945   4.801   6.973  0.2629  0.3452  1.0143
  381MOL0     C51367   2.823   4.780   6.907 -0.9884  0.0328  0.7295
  381MOL0     H51368   2.305   4.526   6.918 -0.7054  0.2309  0.4814
  381MOL0     H51369   2.104   4.522   6.791  0.2772  0.5198 -1.3146
  381MOL0     H51370   1.943   4.518   6.652  0.6217 -1.1040  1.3998
  381MOL0     H51371   1.859   4.634   6.766 -1.2194 -2.7750 -0.7156
  381MOL0     H51372   1.722   4.719   6.577  0.9118 -0.4511  3.0893
  381MOL0     H51373   1.838   4.672   6.465 -0.8286 -1.1387 -0.7610
  381MOL0     H51374   1.647   4.528   6.450  0.2062  1.5226 -0.4153
  381MOL0     H51375   1.770   4.424   6.540 -1.2169 -1.0849  3.4148
  381MOL0     H51376   1.655   4.470   6.732  2.3831  2.8740  0.9691
  381MOL0     H51377   1.562   4.606   6.676  0.9939 -0.5727  0.8649
  381MOL0     H51378   1.432   4.441   6.509 -1.7093  0.3186  1.5023
  381MOL0     H51379   1.531   4.314   6.578 -3.0987 -1.3250  2.2296
  381MOL0     H51380   1.303   4.322   6.670 -0.9786 -0.2874  2.2651
  381MOL0     H51381   1.435   4.333   6.788 -1.0796 -0.9275 -1.1002
  381MOL0     H51382   1.393   4.575   6.827  0.9197 -0.0163 -1.4658
  381MOL0     H51383   1.296   4.586   6.676 -0.6251 -0.9929 -1.6022
  381MOL0     H51384   1.217   4.421   6.923  0.0954  2.1213  0.9007
  381MOL0     H51385   1.128   4.432   6.786 -2.1488  1.3665  0.9402
  381MOL0     H51386   1.203   4.595   7.099  3.7080  1.9815 -1.7440
  381MOL0     H51387   1.119   4.809   7.241  0.9503  2.4090 -0.3991
  381MOL0     H51388   1.032   4.931   7.154  4.4511  1.1927  0.4606
  381MOL0     H51389   0.923   4.669   7.240  1.3481 -0.4085 -2.2478
  381MOL0     H51390   0.831   4.814   7.183  0.1166 -0.2945  1.0686
  381MOL0     H51391   0.907   4.943   7.380  1.8153 -0.1784 -2.4614
  381MOL0     H51392   0.958   4.787   7.454  0.6683 -2.0874 -2.3630
  381MOL0     H51393   0.688   4.858   7.380  0.3895 -3.1120 -1.9079
  381MOL0     H51394   0.746   4.881   7.543 -2.8145 -0.4560  0.8818
  381MOL0     H51395   0.510   4.839   7.595 -0.4419 -1.1214 -2.3723
  381MOL0     H51396   0.277   4.761   7.861  1.3208  5.9412  1.9391
  381MOL0     H51397   0.341   4.882   7.763 -1.1412  0.0582 -1.1143
  381MOL0     H51398   0.220   4.752   7.698  0.4825 -1.5989 -0.1329
  381MOL0     H51399   0.323   4.127   7.942  2.5260  2.7982  0.5981
  381MOL0     H51400   0.131   4.006   8.070  1.2824  0.7141  2.1674
  381MOL0     H51401   0.035   4.129   8.369  0.2728 -2.1784 -0.1807
  381MOL0     H51402  -0.115   4.216   8.347  1.7248  1.2250 -2.3387
  381MOL0     H51403  -0.249   4.018   8.308 -1.4587 -0.4767  0.5351
  381MOL0     H51404  -0.137   3.910   8.355 -5.3074 -1.2550  1.6436
  381MOL0     H51405  -0.113   3.954   8.577 -0.1391 -0.3781  1.2769
  381MOL0     H51406  -0.287   3.959   8.549  0.3710 -1.1552  0.7574
  381MOL0     H51407  -0.106   4.184   8.625 -0.7396  1.9298 -0.0353
  381MOL0     H51408  -0.236   4.233   8.527  2.0559  1.9822  0.8730
  381MOL0     H51409  -0.254   4.045   8.779 -3.4452  0.2366  2.0900
  381MOL0     H51410  -0.390   4.130   8.693  0.1695  2.7456 -2.5177
  381MOL0     H51411  -0.347   4.193   8.908 -3.6981  2.8976 -0.3880
  381MOL0     H51412  -0.185   4.261   8.855  0.0284 -2.2253 -1.1462
  381MOL0     H51413  -0.435   4.361   8.728  0.5255  2.7461  0.5246
  381MOL0     H51414  -0.265   4.412   8.702  0.2444 -0.1970  1.1218
  381MOL0     H51415  -0.243   4.501   8.929  0.1434 -0.4816  1.1423
  381MOL0     H51416  -0.417   4.459   8.952  0.1236 -0.3224 -0.6547
  381MOL0     H51417  -0.004   4.396   8.188 -1.4521 -0.6975 -0.0487
  381MOL0     H51418   0.172   4.502   8.052 -1.3976 -0.4270 -0.8480
  381MOL0     H51419   0.516   4.369   7.718  0.3879 -0.4247 -1.7466
  381MOL0     H51420   0.684   4.442   7.571 -1.0754 -1.8674 -0.2185
  381MOL0     H51421   2.136   4.923   6.678 -2.3823 -0.6760  1.1914
  381MOL0     H51422   2.307   4.965   6.857 -0.1037 -0.8200  3.0823
  381MOL0     H51423   2.608   4.716   7.158 -1.1621  1.6231 -0.2831
  381MOL0     H51424   2.812   4.794   7.282  1.4001  1.9314  0.2056
  381MOL0     H51425   3.201   4.775   7.111 -0.0199 -1.5119  2.3984
  381MOL0     H51426   3.176   4.936   7.046 -0.8896 -0.0892  0.4430
  381MOL0     H51427   3.299   4.869   7.316 -0.1247  0.3583 -0.2999
  381MOL0     H51428   3.223   5.027   7.279 -1.5633 -1.5739  1.0444
  381MOL0     H51429   3.371   5.060   7.089 -1.9741  3.9360  3.8486
  381MOL0     H51430   3.445   4.909   7.106 -0.2134 -0.6748 -0.5908
  381MOL0     H51431   3.499   5.012   7.365  0.7591  0.5937  0.4687
  381MOL0     H51432   3.464   5.157   7.272 -0.4861  0.3971 -2.0167
  381MOL0     H51433   3.827   5.078   7.091  1.2189 -0.4639  1.4726
  381MOL0     H51434   3.037   4.802   6.916  0.3759  1.3122  1.1999
  381MOL0     H51435   2.829   4.766   6.800  2.0155 -1.1012  0.9737
  382MOL0     O51436   5.760   6.867   8.319 -0.1860 -0.4156 -0.0116
  382MOL0     C51437   5.669   6.933   8.275 -1.1492  0.2574 -0.8325
  382MOL0     O51438   5.667   7.075   8.283  0.5038 -0.9140  0.5446
  382MOL0     C51439   5.777   7.133   8.347  1.0676  0.1509 -0.0240
  382MOL0     C51440   5.907   7.145   8.297  0.2933 -0.2555  0.4338
  382MOL0     C51441   6.008   7.208   8.369 -0.4550  0.8248  0.4889
  382MOL0     C51442   5.982   7.277   8.483 -0.3958 -0.0574  0.0187
  382MOL0     O51443   6.073   7.363   8.538 -0.4852 -0.1422  0.1417
  382MOL0     C51444   6.109   7.331   8.674  0.9711  0.7034 -0.7222
  382MOL0     C51445   6.217   7.426   8.734 -0.2220 -0.0985  0.0362
  382MOL0     C51446   6.158   7.531   8.840 -0.9719 -0.2278  0.0400
  382MOL0     C51447   6.158   7.457   8.974 -0.0337  0.0443  0.3213
  382MOL0     C51448   6.087   7.546   9.082 -0.7083 -0.9988 -0.0163
  382MOL0     C51449   6.102   7.489   9.225  0.0031  0.3835  0.0115
  382MOL0     C51450   6.236   7.532   9.281 -0.1702 -0.6078 -0.1489
  382MOL0     C51451   6.252   7.461   9.414 -0.3597  0.3757  0.1866
  382MOL0     N51452   6.399   7.455   9.448  0.1539 -0.3157  0.2222
  382MOL0     C51453   6.494   7.534   9.406 -0.3172 -0.4555  0.4269
  382MOL0     C51454   6.610   7.484   9.450 -0.4415 -0.5558  0.2063
  382MOL0     C51455   6.739   7.546   9.409 -0.4540  0.6823 -0.0250
  382MOL0     C51456   6.870   7.476   9.461  0.0284 -0.2510  0.1026
  382MOL0     C51457   6.929   7.372   9.357 -0.3314 -0.0595  0.6075
  382MOL0     C51458   7.042   7.286   9.389 -0.4356 -0.0331  0.3541
  382MOL0     O51459   7.009   7.198   9.494 -0.2003 -0.4522  0.2444
  382MOL0     C51460   7.101   7.162   9.589  0.0362 -0.4439 -1.5483
  382MOL0     C51461   7.240   7.199   9.593  0.7751  0.6319 -1.0837
  382MOL0     C51462   7.326   7.172   9.701  0.8891 -0.0141  0.4976
  382MOL0     C51463   7.464   7.225   9.696 -0.2287  0.0705 -0.7252
  382MOL0     C51464   7.274   7.124   9.824 -0.3654 -0.6196 -0.0347
  382MOL0     C51465   7.344   7.103   9.952  0.7488  0.4509 -0.2946
  382MOL0     O51466   7.453   7.184   9.984 -0.4584  1.1084  0.6531
  382MOL0     C51467   7.487   7.180  10.117  0.1618  0.0411  0.8447
  382MOL0     C51468   7.395   7.207  10.224  0.2244  0.8370  0.0174
  382MOL0     C51469   7.431   7.188  10.356 -0.0891 -0.8204  0.5330
  382MOL0     C51470   7.562   7.162  10.391 -0.4951  0.0815  0.5124
  382MOL0     O51471   7.605   7.157  10.523  0.1959 -0.1443 -0.3337
  382MOL0     C51472   7.500   7.172  10.628  0.3004 -0.7110  0.0026
  382MOL0     C51473   7.568   7.175  10.769  0.3385 -0.5441 -0.1631
  382MOL0     C51474   7.663   7.050  10.792  0.0611 -0.0266  0.1112
  382MOL0     C51475   7.652   7.011  10.944  0.2257  0.1317 -0.2443
  382MOL0     C51476   7.743   6.887  10.945  0.2426  0.7317 -0.3973
  382MOL0     C51477   7.710   6.812  11.075 -0.5940  0.4151  0.0972
  382MOL0     C51478   7.836   6.765  11.146  0.3604  0.1078  0.6736
  382MOL0     C51479   7.802   6.719  11.280  0.1291 -0.4580 -0.7239
  382MOL0    Cl51480   7.921   6.606  11.342  0.2265 -0.1868  0.4349
  382MOL0     C51481   7.653   7.142  10.283 -0.0256 -0.0973 -0.9402
  382MOL0     C51482   7.619   7.155  10.146  0.2657 -0.1364 -0.3322
  382MOL0     O51483   7.290   7.021  10.029  0.2941 -0.4595  0.4303
  382MOL0     C51484   7.136   7.094   9.826 -0.3284 -0.2340  0.3965
  382MOL0     C51485   7.056   7.113   9.714  0.4039 -1.2965 -1.3622
  382MOL0     N51486   6.578   7.371   9.515 -0.3006  0.1116  0.2374
  382MOL0     N51487   6.454   7.343   9.496 -0.3313  0.1363 -0.2559
  382MOL0     C51488   5.853   7.260   8.540  0.3156  0.3383 -1.0923
  382MOL0     C51489   5.757   7.178   8.472 -0.0848 -1.0071 -0.5275
  382MOL0     C51490   5.555   6.858   8.220 -0.5441 -0.4306 -0.3106
  382MOL0     C51491   5.545   6.719   8.228  0.3153  0.2156  0.8946
  382MOL0     C51492   5.421   6.660   8.198 -0.0527 -0.2489  0.3991
  382MOL0     C51493   5.300   6.736   8.172  0.5520 -0.3145  0.3825
  382MOL0     O51494   5.175   6.686   8.153  0.1041 -0.7872  0.5336
  382MOL0     C51495   5.136   6.551   8.131  0.2588  0.3884  0.2393
  382MOL0     C51496   4.988   6.545   8.106 -0.6397  0.6357 -0.3473
  382MOL0     C51497   4.906   6.561   8.233  0.4843  0.4336 -0.9191
  382MOL0     C51498   4.900   6.422   8.311  0.0697 -0.0177  0.1925
  382MOL0     C51499   4.793   6.414   8.407 -0.0148  0.4577 -0.3046
  382MOL0     C51500   4.710   6.402   8.498  0.6500 -0.3170  0.3531
  382MOL0     C51501   5.319   6.878   8.151 -0.3791  0.2340  0.9339
  382MOL0     C51502   5.446   6.939   8.174  0.2329  0.2348 -0.9037
  382MOL0     H51503   5.925   7.098   8.200  0.1966 -0.1411  0.3607
  382MOL0     H51504   6.104   7.208   8.317 -0.5037 -1.0514  0.3170
  382MOL0     H51505   6.016   7.311   8.728  0.0746 -4.2288 -3.5393
  382MOL0     H51506   6.160   7.236   8.658 -0.4234 -0.3207  0.6286
  382MOL0     H51507   6.301   7.373   8.780 -0.1139  1.1542  1.3487
  382MOL0     H51508   6.267   7.485   8.657  0.0470 -0.3522  0.0131
  382MOL0     H51509   6.215   7.622   8.860 -1.6545  0.1098  0.5130
  382MOL0     H51510   6.059   7.564   8.807  0.4166  1.5367 -2.8206
  382MOL0     H51511   6.099   7.366   8.963  0.8098 -0.6204  1.1881
  382MOL0     H51512   6.259   7.439   9.013 -0.0562 -1.2868 -0.1765
  382MOL0     H51513   6.109   7.653   9.082 -1.7626 -0.7607  0.5409
  382MOL0     H51514   5.981   7.546   9.053 -0.2165  0.6990 -2.1112
  382MOL0     H51515   6.026   7.526   9.294  0.9445 -0.4721  1.5779
  382MOL0     H51516   6.087   7.381   9.220 -0.0623  0.4513 -2.1224
  382MOL0     H51517   6.321   7.497   9.222  0.6132 -0.6992  0.9930
  382MOL0     H51518   6.242   7.641   9.288 -0.0894 -0.5817 -0.5693
  382MOL0     H51519   6.218   7.358   9.424 -4.2685  1.4157 -0.7982
  382MOL0     H51520   6.193   7.507   9.494 -0.8633  1.1127 -0.5985
  382MOL0     H51521   6.483   7.622   9.343 -1.1195 -0.0209  1.1514
  382MOL0     H51522   6.741   7.527   9.302 -1.4983 -0.7945  0.1858
  382MOL0     H51523   6.743   7.654   9.428  0.4354  0.7694 -0.6777
  382MOL0     H51524   6.861   7.425   9.557  2.8891  2.3203  1.9403
  382MOL0     H51525   6.949   7.551   9.471 -1.2953  1.1794  0.1451
  382MOL0     H51526   6.955   7.435   9.271 -0.9635 -1.2106 -0.4559
  382MOL0     H51527   6.849   7.306   9.323 -2.3949  1.7467  1.7543
  382MOL0     H51528   7.127   7.347   9.420  0.8906 -0.7537 -1.6508
  382MOL0     H51529   7.082   7.233   9.302  0.2281  1.5274 -0.3187
  382MOL0     H51530   7.290   7.262   9.520  1.4786  1.2940 -0.0680
  382MOL0     H51531   7.531   7.147   9.733 -0.9964  0.6473  2.1507
  382MOL0     H51532   7.496   7.253   9.595  0.7457 -0.4626 -0.5809
  382MOL0     H51533   7.459   7.312   9.762 -1.3052  0.8187 -1.7451
  382MOL0     H51534   7.289   7.224  10.209 -0.8463 -2.1629  3.0740
  382MOL0     H51535   7.353   7.207  10.429 -1.4655 -2.7715 -0.3432
  382MOL0     H51536   7.458   7.272  10.616  3.8403  0.6505 -3.4235
  382MOL0     H51537   7.419   7.099  10.619 -1.8422  1.7104 -1.7145
  382MOL0     H51538   7.621   7.271  10.777 -4.4815  2.3633  1.4456
  382MOL0     H51539   7.494   7.184  10.849 -0.8817  0.4232 -1.3488
  382MOL0     H51540   7.764   7.088  10.774  0.2163 -1.7807 -3.6052
  382MOL0     H51541   7.651   6.975  10.714 -2.8038  2.0971 -1.7162
  382MOL0     H51542   7.700   7.084  11.010 -1.4767  0.1120  1.0716
  382MOL0     H51543   7.545   7.008  10.968  0.2003  1.8245  0.0124
  382MOL0     H51544   7.847   6.921  10.936 -0.0121  1.4460 -0.7300
  382MOL0     H51545   7.707   6.830  10.859  0.0151  0.8334 -0.3673
  382MOL0     H51546   7.656   6.876  11.146 -0.8898 -2.7066  2.9286
  382MOL0     H51547   7.646   6.727  11.049 -0.7509  0.8254 -0.9158
  382MOL0     H51548   7.899   6.854  11.155 -0.4312  0.6795  0.6174
  382MOL0     H51549   7.898   6.689  11.096  1.6070  3.2340 -3.0446
  382MOL0     H51550   7.705   6.669  11.280 -0.7751  1.2188  0.4252
  382MOL0     H51551   7.790   6.804  11.348  0.4248 -0.5259 -0.5820
  382MOL0     H51552   7.749   7.110  10.323 -1.7273 -2.7058  1.4495
  382MOL0     H51553   7.700   7.143  10.075 -1.9565 -1.8322 -2.7459
  382MOL0     H51554   7.083   7.054   9.913 -1.9286  0.3446 -0.2724
  382MOL0     H51555   6.948   7.110   9.711  0.3831 -0.0652 -2.5454
  382MOL0     H51556   5.826   7.310   8.632  2.7446  2.6034 -1.5070
  382MOL0     H51557   5.657   7.165   8.511  0.5107 -1.9018  0.7714
  382MOL0     H51558   5.629   6.655   8.251 -0.5274 -1.9275 -1.5538
  382MOL0     H51559   5.404   6.555   8.216 -0.8067 -0.0130  1.1670
  382MOL0     H51560   5.188   6.513   8.043 -1.8741  2.5692 -2.1541
  382MOL0     H51561   5.162   6.492   8.219 -0.7966  1.1224  1.0734
  382MOL0     H51562   4.969   6.454   8.049  3.6018  0.8356 -2.4913
  382MOL0     H51563   4.962   6.630   8.041  0.1053  0.7936 -0.4458
  382MOL0     H51564   4.806   6.593   8.202 -1.1740 -2.2288  1.2499
  382MOL0     H51565   4.938   6.639   8.303 -0.8422 -0.8319  1.2034
  382MOL0     H51566   4.999   6.398   8.352  1.8490  1.6528 -2.7625
  382MOL0     H51567   4.881   6.349   8.231  0.2736 -0.8879  0.9199
  382MOL0     H51568   4.636   6.376   8.571  1.4064  0.2557  1.3565
  382MOL0     H51569   5.249   6.937   8.091 -0.0007 -1.0666 -0.8499
  382MOL0     H51570   5.450   7.047   8.161  0.0684  0.2727 -0.6464
  383MOL0     O51571   5.495   2.872   9.723  0.4007  0.0070 -0.1358
  383MOL0     C51572   5.467   2.968   9.794  0.1656 -0.6732  0.5491
  383MOL0     O51573   5.391   2.967   9.900  0.3885  0.0946  0.4575
  383MOL0     C51574   5.349   2.864   9.969 -0.3325  0.4290 -0.7874
  383MOL0     C51575   5.414   2.813  10.080  0.4291 -0.3541  0.2069
  383MOL0     C51576   5.386   2.685  10.128  0.7484  0.2735 -0.5247
  383MOL0     C51577   5.281   2.619  10.080  0.0048  0.7760 -0.2497
  383MOL0     O51578   5.252   2.493  10.117  0.1218  0.2920 -0.3107
  383MOL0     C51579   5.154   2.498  10.220 -0.1695 -0.3886  0.1721
  383MOL0     C51580   5.128   2.361  10.292 -0.4153 -0.1239 -0.5354
  383MOL0     C51581   5.268   2.313  10.347  0.1514 -0.3894 -0.2463
  383MOL0     C51582   5.255   2.178  10.416  0.3187  0.3499 -0.6796
  383MOL0     C51583   5.386   2.111  10.467 -0.0242  0.0601  0.4511
  383MOL0     C51584   5.485   2.191  10.558  0.3459  0.5821 -0.1040
  383MOL0     C51585   5.612   2.101  10.563 -0.6797 -0.4252 -0.7854
  383MOL0     C51586   5.721   2.169  10.656 -0.2020 -0.4466 -0.1661
  383MOL0     N51587   5.852   2.102  10.674 -0.2438  0.1682 -0.0058
  383MOL0     C51588   5.922   2.051  10.569 -0.4609 -0.0718  0.0684
  383MOL0     C51589   6.033   2.005  10.636  0.2030  0.3557 -0.0237
  383MOL0     C51590   6.159   1.956  10.571 -0.7218  0.1236  0.5017
  383MOL0     C51591   6.175   1.802  10.569  0.3151 -1.0233  0.0486
  383MOL0     C51592   6.185   1.738  10.718 -0.4285  0.7389 -0.5824
  383MOL0     C51593   6.056   1.668  10.746  0.4839  0.4832 -0.0544
  383MOL0     O51594   6.086   1.559  10.838 -0.5351 -0.0471  0.5849
  383MOL0     C51595   5.979   1.510  10.910 -0.8631  0.1453 -0.1307
  383MOL0     C51596   6.009   1.418  11.015  0.0042 -0.9381  1.1601
  383MOL0     C51597   5.913   1.342  11.085 -0.9890 -0.0813  0.6893
  383MOL0     C51598   5.983   1.273  11.199 -0.0629 -0.0258 -0.0915
  383MOL0     C51599   5.777   1.352  11.044  0.3612  0.3229 -0.1425
  383MOL0     C51600   5.671   1.264  11.093 -0.9244 -0.5900  0.3493
  383MOL0     O51601   5.557   1.256  11.018  0.6188  0.1746 -0.0891
  383MOL0     C51602   5.455   1.174  11.062 -0.0371  0.6018 -0.6005
  383MOL0     C51603   5.433   1.052  10.998  0.1880  0.1992  1.2102
  383MOL0     C51604   5.316   0.976  11.031 -0.4832 -0.6996 -0.7506
  383MOL0     C51605   5.231   1.021  11.128  0.6008  0.0657 -0.7680
  383MOL0     O51606   5.119   0.941  11.158  0.3058  0.1329 -0.3135
  383MOL0     C51607   4.998   1.021  11.163  0.1408  0.2975 -0.1118
  383MOL0     C51608   4.879   0.930  11.154  0.0180 -0.0264 -0.4075
  383MOL0     C51609   4.752   0.970  11.238 -0.6130  0.2756  0.4436
  383MOL0     C51610   4.774   0.968  11.396 -0.5484 -0.2553  0.3559
  383MOL0     C51611   4.635   1.010  11.453 -0.5950 -0.9433 -0.0996
  383MOL0     C51612   4.554   0.893  11.493  0.4374 -0.2158 -0.0766
  383MOL0     C51613   4.419   0.913  11.558  0.0045 -0.4575  1.9121
  383MOL0     C51614   4.298   0.934  11.468  0.0926  0.2668 -0.4876
  383MOL0    Cl51615   4.309   1.079  11.369 -0.4019 -0.0300 -0.1889
  383MOL0     C51616   5.255   1.135  11.197  1.0623  0.6034  0.0537
  383MOL0     C51617   5.370   1.213  11.167 -0.3492  0.2805 -0.6587
  383MOL0     O51618   5.701   1.188  11.189 -0.3677 -0.6689  0.7515
  383MOL0     C51619   5.748   1.446  10.949 -0.4493  0.1227  0.0828
  383MOL0     C51620   5.842   1.515  10.879 -1.1482 -0.8720 -0.1337
  383MOL0     N51621   6.008   1.994  10.765  0.4959 -0.3161 -0.3219
  383MOL0     N51622   5.905   2.062  10.792 -0.3457  0.2653 -0.1691
  383MOL0     C51623   5.213   2.664   9.970 -0.6636 -0.3956 -0.3482
  383MOL0     C51624   5.249   2.790   9.913  1.2357  0.8695 -0.0559
  383MOL0     C51625   5.505   3.099   9.733 -0.8205 -0.3608  0.4159
  383MOL0     C51626   5.549   3.093   9.601 -0.1331  0.2282 -0.2400
  383MOL0     C51627   5.582   3.211   9.539 -0.3240 -0.3826 -0.3390
  383MOL0     C51628   5.587   3.335   9.615 -0.8461 -0.6396 -0.2022
  383MOL0     O51629   5.610   3.450   9.546  0.9741  0.6038 -0.3656
  383MOL0     C51630   5.620   3.577   9.617  0.1794 -0.5041  0.3519
  383MOL0     C51631   5.614   3.709   9.526 -0.3929  0.2837 -0.9775
  383MOL0     C51632   5.752   3.765   9.473 -0.1586 -0.2945 -1.0304
  383MOL0     C51633   5.778   3.919   9.522 -0.0769  0.1230 -0.3127
  383MOL0     C51634   5.830   3.929   9.660 -1.5462 -0.3835  0.1134
  383MOL0     C51635   5.856   3.930   9.781 -0.2854  0.7464 -0.1572
  383MOL0     C51636   5.562   3.328   9.753 -0.7266 -0.4393 -0.7962
  383MOL0     C51637   5.512   3.210   9.812 -0.3350  0.0418  0.6099
  383MOL0     H51638   5.488   2.865  10.140  0.1059 -1.2814  1.4608
  383MOL0     H51639   5.425   2.646  10.222 -0.4153  0.0553 -0.1142
  383MOL0     H51640   5.188   2.559  10.305  0.8246  1.1799 -1.2870
  383MOL0     H51641   5.059   2.544  10.194  0.1537  0.8244  1.0236
  383MOL0     H51642   5.050   2.382  10.366  1.7771  1.6192  1.4350
  383MOL0     H51643   5.090   2.282  10.227  0.9749  0.2202 -1.8316
  383MOL0     H51644   5.348   2.315  10.273 -1.0521 -2.8319 -1.7344
  383MOL0     H51645   5.296   2.384  10.426  0.3479 -0.6086 -0.1167
  383MOL0     H51646   5.184   2.192  10.499 -1.7121 -1.7639 -1.9407
  383MOL0     H51647   5.216   2.100  10.350  1.4409 -1.9024  1.1522
  383MOL0     H51648   5.350   2.028  10.528 -1.1318  0.0796 -0.1577
  383MOL0     H51649   5.438   2.066  10.382  2.7972  0.1057  2.0237
  383MOL0     H51650   5.510   2.285  10.508 -1.0390  0.2467 -1.5286
  383MOL0     H51651   5.436   2.220  10.652 -3.5925 -0.3498 -1.6854
  383MOL0     H51652   5.594   2.000  10.603 -1.6607  1.2775  3.7534
  383MOL0     H51653   5.657   2.104  10.464 -2.0236  0.7279 -1.3790
  383MOL0     H51654   5.667   2.193  10.748  3.0492 -3.1943  2.7726
  383MOL0     H51655   5.738   2.264  10.605  2.1207 -1.2423 -1.0310
  383MOL0     H51656   5.922   2.061  10.461  1.4981 -0.7942 -0.0459
  383MOL0     H51657   6.157   1.991  10.467  1.8985 -1.6606 -0.2614
  383MOL0     H51658   6.244   2.004  10.619 -1.7454  0.8833  1.6072
  383MOL0     H51659   6.270   1.795  10.514 -0.2220 -0.8922 -0.9143
  383MOL0     H51660   6.098   1.750  10.512  0.6375 -1.3684 -0.0819
  383MOL0     H51661   6.207   1.808  10.799 -1.6056  0.7779 -0.2755
  383MOL0     H51662   6.263   1.661  10.725 -0.9659  0.3012  0.9699
  383MOL0     H51663   5.997   1.625  10.665 -0.3218 -0.6102  1.0758
  383MOL0     H51664   5.985   1.744  10.778  1.0885  0.5384  1.2389
  383MOL0     H51665   6.111   1.423  11.051 -0.9465  1.3357  3.9373
  383MOL0     H51666   6.085   1.248  11.167 -0.4692 -1.4027 -0.3808
  383MOL0     H51667   5.986   1.332  11.291 -0.5204 -0.6790  0.3567
  383MOL0     H51668   5.942   1.175  11.223  0.7010 -0.1235  0.9042
  383MOL0     H51669   5.476   1.031  10.901 -0.6427  1.2578  0.5922
  383MOL0     H51670   5.281   0.892  10.970  0.1718 -0.8443 -0.9395
  383MOL0     H51671   4.996   1.081  11.255 -0.7093  2.4705 -1.4575
  383MOL0     H51672   4.994   1.089  11.077  0.8489  0.2263 -0.2023
  383MOL0     H51673   4.845   0.943  11.051 -0.3754 -3.9101 -0.9012
  383MOL0     H51674   4.914   0.827  11.163 -0.5738 -0.3800 -1.9123
  383MOL0     H51675   4.687   0.887  11.210  2.0505 -1.3096 -1.4630
  383MOL0     H51676   4.708   1.060  11.192 -1.4695 -1.7008 -2.9420
  383MOL0     H51677   4.813   0.871  11.428 -0.5680 -0.4014 -0.0562
  383MOL0     H51678   4.854   1.038  11.421  0.2143 -0.8938 -0.2595
  383MOL0     H51679   4.578   1.072  11.383 -3.3009 -1.1130  1.7778
  383MOL0     H51680   4.653   1.085  11.530  0.7650  0.9104 -2.0912
  383MOL0     H51681   4.552   0.841  11.397  0.5979 -2.8689  1.2743
  383MOL0     H51682   4.618   0.827  11.552  1.6522  2.9314  2.4112
  383MOL0     H51683   4.430   0.998  11.626 -1.4844  2.4274 -1.1741
  383MOL0     H51684   4.402   0.820  11.614  0.2475 -1.1853  0.8067
  383MOL0     H51685   4.210   0.944  11.532 -2.0465 -0.0847 -3.1959
  383MOL0     H51686   4.275   0.847  11.405  0.3907 -0.3114  0.1929
  383MOL0     H51687   5.197   1.161  11.285  1.6412  1.3653  0.2139
  383MOL0     H51688   5.389   1.310  11.212  1.4575 -0.1241 -0.4722
  383MOL0     H51689   5.649   1.448  10.906  0.7300 -2.3256 -3.1855
  383MOL0     H51690   5.807   1.558  10.785  1.2445 -1.4054 -1.3500
  383MOL0     H51691   5.133   2.606   9.924  0.5742 -2.4016 -0.1233
  383MOL0     H51692   5.191   2.828   9.829 -2.1768 -0.6590  1.4020
  383MOL0     H51693   5.558   3.001   9.545 -0.2588  0.0011  0.1120
  383MOL0     H51694   5.607   3.215   9.434 -1.2578 -1.9014 -0.6434
  383MOL0     H51695   5.529   3.587   9.677 -1.7198  1.1786 -2.5301
  383MOL0     H51696   5.706   3.577   9.685  0.7115  0.1101 -0.3087
  383MOL0     H51697   5.565   3.777   9.596 -0.4188 -1.5828  0.9107
  383MOL0     H51698   5.537   3.689   9.451 -1.3599 -0.8330  0.2803
  383MOL0     H51699   5.751   3.777   9.364 -1.8866 -0.4217 -1.0435
  383MOL0     H51700   5.834   3.695   9.492 -0.5525 -1.3257 -2.8339
  383MOL0     H51701   5.689   3.982   9.511 -1.2812 -1.3578  0.5176
  383MOL0     H51702   5.859   3.968   9.467 -0.2401  1.5105  0.6300
  383MOL0     H51703   5.873   3.912   9.885 -1.3112  0.3936 -0.0388
  383MOL0     H51704   5.575   3.421   9.807 -2.2154 -0.0892 -0.9828
  383MOL0     H51705   5.495   3.207   9.919 -0.5361  0.2498  0.5833
  384MOL0     O51706   2.613   4.591   4.048 -0.5042 -0.5389 -0.2148
  384MOL0     C51707   2.498   4.558   4.059 -0.3654  0.2814  0.2484
  384MOL0     O51708   2.458   4.434   4.113  1.0239  0.0241  0.7701
  384MOL0     C51709   2.543   4.369   4.198  0.1272 -0.7488 -1.2895
  384MOL0     C51710   2.520   4.230   4.218 -0.0200  0.4348 -0.1794
  384MOL0     C51711   2.582   4.153   4.307 -0.0790 -0.3925  0.0320
  384MOL0     C51712   2.687   4.211   4.379  0.0558  0.0988 -0.2771
  384MOL0     O51713   2.765   4.138   4.471 -0.3644  0.0508 -0.0662
  384MOL0     C51714   2.734   3.998   4.491 -1.0038  0.6182 -0.9225
  384MOL0     C51715   2.827   3.927   4.584  0.1419 -0.3242  0.7988
  384MOL0     C51716   2.807   3.777   4.565 -0.6654 -0.0447  0.2729
  384MOL0     C51717   2.911   3.699   4.654 -0.2142 -0.0148 -0.0043
  384MOL0     C51718   2.901   3.546   4.629 -0.4886  0.5814  0.4285
  384MOL0     C51719   2.759   3.491   4.671  0.3500  1.0379 -0.0281
  384MOL0     C51720   2.724   3.507   4.818  0.4682 -0.6534  0.5424
  384MOL0     C51721   2.829   3.446   4.912 -0.8913 -0.6657  0.3988
  384MOL0     N51722   2.854   3.306   4.881  0.1603  0.2086  0.1651
  384MOL0     C51723   2.969   3.252   4.834  0.2536  0.0869  0.1731
  384MOL0     C51724   2.941   3.118   4.824  0.9718  0.2979 -0.3811
  384MOL0     C51725   3.037   3.024   4.785 -1.2650  0.2247  0.5740
  384MOL0     C51726   3.163   3.085   4.711 -1.0416  0.9004  0.0684
  384MOL0     C51727   3.131   3.074   4.561 -0.2221  0.0050  0.3351
  384MOL0     C51728   3.196   3.185   4.474 -1.0450  0.1082  0.7758
  384MOL0     O51729   3.170   3.165   4.333  0.5802  0.0321  0.6731
  384MOL0     C51730   3.126   3.270   4.259 -0.0683  1.0949  0.0552
  384MOL0     C51731   3.157   3.271   4.119  0.0958 -0.3259  0.8999
  384MOL0     C51732   3.116   3.374   4.033  0.4230 -0.5850 -0.4008
  384MOL0     C51733   3.169   3.369   3.896 -0.0532 -0.2135 -0.0201
  384MOL0     C51734   3.046   3.486   4.088 -0.2121 -0.0143 -0.3193
  384MOL0     C51735   2.987   3.591   4.000  0.6250 -1.3846 -0.6732
  384MOL0     O51736   2.972   3.708   4.050 -0.3077  0.2871 -0.5691
  384MOL0     C51737   2.907   3.798   3.964  1.3884  0.2578 -0.1378
  384MOL0     C51738   2.954   3.864   3.849 -0.4240  0.0135  1.3561
  384MOL0     C51739   2.876   3.953   3.765  0.2454 -0.1642  0.6878
  384MOL0     C51740   2.755   3.983   3.811  0.5003  0.4440 -0.3975
  384MOL0     O51741   2.709   4.101   3.756  0.7167 -0.2225 -0.3587
  384MOL0     C51742   2.593   4.161   3.808 -0.2395 -0.2609 -0.2874
  384MOL0     C51743   2.575   4.299   3.762 -0.0353 -0.4897  1.6002
  384MOL0     C51744   2.524   4.298   3.619 -0.3422  0.8046  0.2486
  384MOL0     C51745   2.526   4.445   3.570  0.0698  0.2918 -0.4183
  384MOL0     C51746   2.503   4.443   3.417 -0.6020  0.4428 -0.1652
  384MOL0     C51747   2.504   4.579   3.343 -0.3991 -0.2383 -0.0348
  384MOL0     C51748   2.643   4.623   3.312 -0.4559  0.5972  0.1215
  384MOL0     C51749   2.726   4.549   3.207 -0.1626 -0.2489  0.4950
  384MOL0    Cl51750   2.882   4.637   3.182  0.0756  0.3189  0.0697
  384MOL0     C51751   2.698   3.916   3.930 -0.0825 -0.0586  0.2443
  384MOL0     C51752   2.770   3.820   3.998 -0.0873 -0.0876 -0.7549
  384MOL0     O51753   2.944   3.556   3.896 -0.1209  0.6080  0.0162
  384MOL0     C51754   3.026   3.489   4.224  0.6216  0.8448 -0.8597
  384MOL0     C51755   3.061   3.383   4.313 -0.5881  0.2666 -0.7923
  384MOL0     N51756   2.814   3.084   4.880 -0.8534 -0.8740  0.5556
  384MOL0     N51757   2.771   3.200   4.914  0.3835 -0.1555 -0.7085
  384MOL0     C51758   2.722   4.350   4.366 -0.0810  0.4646  0.1478
  384MOL0     C51759   2.642   4.425   4.277 -0.9471  0.0159  0.0583
  384MOL0     C51760   2.382   4.645   4.012 -0.2505  0.5454 -0.3358
  384MOL0     C51761   2.258   4.586   3.984 -0.5730  0.4472  1.4130
  384MOL0     C51762   2.152   4.656   3.939  0.8307  0.5860 -0.4718
  384MOL0     C51763   2.165   4.788   3.911 -0.1030 -0.1396  0.0753
  384MOL0     O51764   2.050   4.851   3.857 -0.2602  0.3698  1.3705
  384MOL0     C51765   2.063   4.985   3.811 -0.6124 -0.6611  0.5973
  384MOL0     C51766   1.956   5.005   3.709 -0.1755 -0.3429  0.6461
  384MOL0     C51767   1.814   5.033   3.757  0.2994  0.6767  0.4735
  384MOL0     C51768   1.718   5.036   3.628 -0.1624 -0.0452 -1.0699
  384MOL0     C51769   1.763   5.162   3.561  1.3338  0.3763  0.6617
  384MOL0     C51770   1.800   5.259   3.503 -0.9442 -0.2907 -0.4122
  384MOL0     C51771   2.288   4.849   3.928 -0.2894  0.3170 -0.3635
  384MOL0     C51772   2.395   4.786   3.985 -0.4679 -0.1544  1.3115
  384MOL0     H51773   2.447   4.181   4.153 -1.9310  1.9319  0.7300
  384MOL0     H51774   2.571   4.045   4.302  2.4264 -0.7982  1.3435
  384MOL0     H51775   2.631   3.972   4.520 -1.7214  0.8229 -3.1072
  384MOL0     H51776   2.743   3.950   4.394 -0.8922 -2.0993  0.3420
  384MOL0     H51777   2.931   3.958   4.571 -0.3632  2.3812  2.3357
  384MOL0     H51778   2.802   3.942   4.690  0.4230 -1.6517  1.0644
  384MOL0     H51779   2.705   3.752   4.599 -1.5759  1.2673 -1.3354
  384MOL0     H51780   2.810   3.746   4.460  0.3769 -1.1429  0.6049
  384MOL0     H51781   3.005   3.750   4.629 -3.7707  6.1785 -3.2258
  384MOL0     H51782   2.890   3.716   4.760  1.3015 -0.3764  0.3787
  384MOL0     H51783   2.916   3.528   4.522  0.7725 -1.5444  0.8969
  384MOL0     H51784   2.985   3.493   4.675  1.4084  3.7710  0.9583
  384MOL0     H51785   2.682   3.528   4.602 -0.2295 -1.8350 -1.0668
  384MOL0     H51786   2.755   3.383   4.655  0.1644  1.1737 -0.9751
  384MOL0     H51787   2.702   3.608   4.856 -2.0287 -1.0218  0.2447
  384MOL0     H51788   2.630   3.457   4.841  0.4349  0.2254  2.5766
  384MOL0     H51789   2.782   3.456   5.010  0.9822 -1.5849  1.4339
  384MOL0     H51790   2.917   3.508   4.894 -0.8787 -0.8485 -0.2127
  384MOL0     H51791   3.056   3.302   4.793  0.3897 -1.5547 -1.6543
  384MOL0     H51792   3.095   2.986   4.870 -0.0923  1.7171  0.4851
  384MOL0     H51793   2.991   2.942   4.729 -2.3519  1.4776 -0.4152
  384MOL0     H51794   3.247   3.015   4.718 -2.8143 -1.7881 -2.8434
  384MOL0     H51795   3.197   3.187   4.732  2.8291 -0.3718  0.7945
  384MOL0     H51796   3.026   3.047   4.547  0.2751 -2.1868  0.4312
  384MOL0     H51797   3.189   2.990   4.521  1.6201  1.8321 -1.0324
  384MOL0     H51798   3.305   3.177   4.478 -0.8889  1.2697 -0.4171
  384MOL0     H51799   3.174   3.281   4.521  1.2552  1.2636 -0.3523
  384MOL0     H51800   3.215   3.191   4.072 -2.2813 -2.5692  1.5584
  384MOL0     H51801   3.193   3.470   3.860 -1.5101  0.5167  0.9255
  384MOL0     H51802   3.258   3.306   3.889  0.1659 -0.5430  3.7140
  384MOL0     H51803   3.090   3.324   3.836 -2.8175  3.8732  0.1435
  384MOL0     H51804   3.056   3.845   3.819 -0.2428  0.0365  1.9377
  384MOL0     H51805   2.927   4.009   3.687 -0.7339 -1.6271 -1.0693
  384MOL0     H51806   2.505   4.101   3.781 -0.4493  0.4565 -1.2203
  384MOL0     H51807   2.604   4.180   3.916 -0.0162  1.6888 -0.6300
  384MOL0     H51808   2.498   4.344   3.824 -0.1624 -0.9139  1.7558
  384MOL0     H51809   2.671   4.351   3.767  0.7433 -1.7491  0.5379
  384MOL0     H51810   2.423   4.258   3.608  0.6794 -1.9075  0.0589
  384MOL0     H51811   2.601   4.248   3.559  0.8472  1.4730  1.1592
  384MOL0     H51812   2.451   4.505   3.622 -0.8659 -0.8248 -0.4351
  384MOL0     H51813   2.620   4.492   3.602 -0.9405 -0.2263  3.8009
  384MOL0     H51814   2.403   4.404   3.392 -0.1071 -0.5286 -0.7028
  384MOL0     H51815   2.577   4.369   3.386 -0.0241 -0.7912  3.6084
  384MOL0     H51816   2.443   4.565   3.253 -1.2826 -2.5410  0.8407
  384MOL0     H51817   2.463   4.653   3.412  0.3730 -0.7517  0.9989
  384MOL0     H51818   2.694   4.615   3.409 -3.1067  1.6742  1.7232
  384MOL0     H51819   2.632   4.729   3.290  1.2133  0.3924 -2.0908
  384MOL0     H51820   2.670   4.540   3.114 -0.4663 -3.5657  0.8644
  384MOL0     H51821   2.741   4.443   3.228 -3.0440 -0.8858 -0.2858
  384MOL0     H51822   2.601   3.939   3.972 -0.2544  1.2769 -0.8222
  384MOL0     H51823   2.731   3.772   4.087  0.7244 -2.7683 -1.7551
  384MOL0     H51824   2.971   3.575   4.261  3.8735  2.9193 -0.4516
  384MOL0     H51825   3.022   3.384   4.415 -0.6281 -3.9806 -0.5949
  384MOL0     H51826   2.802   4.391   4.427  0.4252 -0.1971 -0.0637
  384MOL0     H51827   2.674   4.528   4.273 -0.7232 -0.0235  0.7538
  384MOL0     H51828   2.244   4.484   4.017  2.1900  0.3211  2.4310
  384MOL0     H51829   2.054   4.610   3.927 -0.3809  2.1087  2.5385
  384MOL0     H51830   2.045   5.050   3.898 -3.5109 -1.0183  0.3495
  384MOL0     H51831   2.160   4.993   3.761  0.2949 -6.1267  0.8815
  384MOL0     H51832   1.964   4.914   3.649  3.9058 -0.7523  1.5097
  384MOL0     H51833   1.990   5.087   3.646  4.2200 -1.1497  1.6419
  384MOL0     H51834   1.812   5.126   3.814 -1.4487  0.6671  0.4639
  384MOL0     H51835   1.781   4.954   3.824  2.7467  0.2003  1.2428
  384MOL0     H51836   1.612   5.024   3.653  0.0163  0.4929  0.0429
  384MOL0     H51837   1.745   4.952   3.564 -0.3665 -1.4305  0.5736
  384MOL0     H51838   1.843   5.350   3.466 -0.3023 -0.2370  0.4314
  384MOL0     H51839   2.290   4.949   3.885 -0.8268  0.5809  0.2015
  384MOL0     H51840   2.483   4.848   3.999 -0.9749  0.7752  0.5585
  385MOL0     O51841   3.589   4.639   7.341  0.0053 -0.3373 -0.6723
  385MOL0     C51842   3.530   4.589   7.248 -0.6349 -0.0220 -0.1299
  385MOL0     O51843   3.586   4.553   7.137  0.1348 -0.4481  0.6492
  385MOL0     C51844   3.720   4.586   7.118  0.4176  0.2942 -0.1341
  385MOL0     C51845   3.743   4.711   7.055  0.2795  0.8703  0.0023
  385MOL0     C51846   3.878   4.747   7.036  0.3533  0.6568 -0.1695
  385MOL0     C51847   3.985   4.666   7.069  0.0214 -0.0930 -1.0149
  385MOL0     O51848   4.116   4.712   7.039 -0.3375  0.7463  0.6704
  385MOL0     C51849   4.222   4.640   7.099 -0.0830  0.3765  0.7353
  385MOL0     C51850   4.362   4.691   7.084  0.6388 -0.1091 -0.5283
  385MOL0     C51851   4.397   4.815   7.164 -0.6119  0.0629 -0.1140
  385MOL0     C51852   4.354   4.810   7.311  0.2213  0.3835  0.4970
  385MOL0     C51853   4.434   4.903   7.404 -0.4540 -0.0602 -0.4803
  385MOL0     C51854   4.377   5.053   7.397 -0.1079  0.5330  0.4216
  385MOL0     C51855   4.469   5.140   7.475  0.0967 -0.8929  0.2231
  385MOL0     C51856   4.506   5.093   7.618  0.1158 -0.2227  1.1424
  385MOL0     N51857   4.401   5.052   7.701  0.7659 -0.6580  0.1663
  385MOL0     C51858   4.300   5.126   7.747 -0.3856 -0.1103  0.5848
  385MOL0     C51859   4.213   5.043   7.811 -0.4827  0.0178 -0.2779
  385MOL0     C51860   4.076   5.097   7.846  0.7394 -0.2835  0.2092
  385MOL0     C51861   3.962   4.997   7.866 -0.0652  0.0778 -0.5106
  385MOL0     C51862   3.862   5.041   7.982  0.0947  0.2205  0.2568
  385MOL0     C51863   3.806   5.180   7.942 -0.3396  0.8962 -0.7830
  385MOL0     O51864   3.760   5.240   8.072 -0.4153  0.4313  0.3128
  385MOL0     C51865   3.622   5.224   8.102 -0.6104 -0.0221 -0.7953
  385MOL0     C51866   3.579   5.326   8.189  0.0872 -0.4066 -0.0998
  385MOL0     C51867   3.441   5.321   8.233 -0.8074  0.0132  0.2577
  385MOL0     C51868   3.405   5.441   8.314  0.8734  0.0471 -0.1074
  385MOL0     C51869   3.357   5.233   8.182 -0.5363 -0.1562  0.3304
  385MOL0     C51870   3.209   5.229   8.216 -0.0880  0.4906  0.4863
  385MOL0     O51871   3.127   5.217   8.119 -0.2405 -0.1063 -0.4620
  385MOL0     C51872   2.996   5.203   8.160 -1.1733  0.1713 -0.1659
  385MOL0     C51873   2.920   5.323   8.150  0.2539  1.0462  0.3402
  385MOL0     C51874   2.787   5.318   8.180  0.4594 -0.4669 -0.2597
  385MOL0     C51875   2.728   5.199   8.217  0.4133 -0.2334 -0.7399
  385MOL0     O51876   2.588   5.209   8.243 -0.8835 -0.0863  0.5367
  385MOL0     C51877   2.518   5.087   8.287  0.0216  0.2823 -0.0022
  385MOL0     C51878   2.372   5.131   8.329 -0.4336 -0.8759 -0.2847
  385MOL0     C51879   2.318   5.085   8.465 -0.2017  1.2155  0.6512
  385MOL0     C51880   2.353   5.171   8.580  0.0335 -1.1701  0.2432
  385MOL0     C51881   2.339   5.099   8.717  0.2831  0.0264 -0.2414
  385MOL0     C51882   2.200   5.085   8.768  0.6706 -1.0543 -0.0425
  385MOL0     C51883   2.185   5.008   8.906 -0.5454  0.2389 -0.4180
  385MOL0     C51884   2.048   4.937   8.928 -0.3728 -0.1819  0.1063
  385MOL0    Cl51885   1.926   5.052   8.971  0.1130 -0.0447 -0.1452
  385MOL0     C51886   2.803   5.081   8.227 -0.2029  0.2512  0.7640
  385MOL0     C51887   2.944   5.081   8.203  0.1421  1.0995  0.1280
  385MOL0     O51888   3.180   5.227   8.337  0.4404 -0.0026 -0.9053
  385MOL0     C51889   3.407   5.126   8.107 -0.0140 -0.7744  0.2124
  385MOL0     C51890   3.542   5.117   8.069  0.4629  0.4787 -0.1663
  385MOL0     N51891   4.260   4.912   7.807  0.2283 -0.0625 -0.0039
  385MOL0     N51892   4.378   4.927   7.740  0.6264 -0.0255  0.2915
  385MOL0     C51893   3.960   4.536   7.122 -0.2319 -0.2831 -0.0489
  385MOL0     C51894   3.828   4.496   7.140 -0.8814 -0.6029 -0.1548
  385MOL0     C51895   3.394   4.546   7.269 -0.2280  0.1071 -0.4340
  385MOL0     C51896   3.324   4.462   7.181 -1.0249 -0.4738 -0.1014
  385MOL0     C51897   3.204   4.402   7.215  0.2870 -0.1659  0.4794
  385MOL0     C51898   3.142   4.441   7.340  0.4485  0.4632  0.1185
  385MOL0     O51899   3.010   4.409   7.377  0.3502  0.3379  0.2947
  385MOL0     C51900   2.899   4.458   7.295 -0.4407 -0.0574  0.3147
  385MOL0     C51901   2.838   4.346   7.206 -0.5141  0.2791 -0.8039
  385MOL0     C51902   2.730   4.404   7.101 -0.3219 -0.1419  0.1612
  385MOL0     C51903   2.656   4.288   7.033  0.1615  0.0372 -1.0597
  385MOL0     C51904   2.591   4.326   6.912  0.0666  0.4555  0.0124
  385MOL0     C51905   2.548   4.362   6.813  0.2276  0.1333 -0.4955
  385MOL0     C51906   3.200   4.525   7.431 -0.6294 -0.9090 -0.2696
  385MOL0     C51907   3.325   4.578   7.392 -0.6623  0.1919  0.0141
  385MOL0     H51908   3.664   4.782   7.031 -0.4043 -0.7561 -3.1875
  385MOL0     H51909   3.900   4.850   7.010  1.8411 -0.1882 -2.6692
  385MOL0     H51910   4.221   4.623   7.207  0.3672  1.2849  0.8963
  385MOL0     H51911   4.240   4.541   7.057  2.0558  0.8293  0.4362
  385MOL0     H51912   4.425   4.608   7.116  0.8202  0.2671  0.0974
  385MOL0     H51913   4.404   4.695   6.983  3.7908  1.6933  0.7302
  385MOL0     H51914   4.506   4.819   7.154 -0.5032 -1.1310  0.4561
  385MOL0     H51915   4.353   4.898   7.109  0.2962  1.3084  0.9536
  385MOL0     H51916   4.246   4.824   7.315  0.2946  1.2500 -0.0882
  385MOL0     H51917   4.380   4.709   7.343 -0.0492  0.6495  1.5670
  385MOL0     H51918   4.424   4.873   7.509 -3.1392  3.2115  0.3512
  385MOL0     H51919   4.538   4.908   7.371 -0.3414 -1.7931 -0.4705
  385MOL0     H51920   4.381   5.084   7.292  2.9037 -1.3283 -0.1410
  385MOL0     H51921   4.276   5.039   7.435  0.1644 -1.3218  0.5759
  385MOL0     H51922   4.557   5.156   7.412  1.8052 -0.1509  2.6464
  385MOL0     H51923   4.411   5.232   7.480  0.1933 -0.8195 -0.0128
  385MOL0     H51924   4.559   5.176   7.665  1.3805  0.4008 -1.2164
  385MOL0     H51925   4.582   5.015   7.614  1.3355  0.9757 -0.4260
  385MOL0     H51926   4.290   5.229   7.716 -0.5370  0.1614  1.4888
  385MOL0     H51927   4.089   5.155   7.938  0.1563 -2.1166  1.4847
  385MOL0     H51928   4.050   5.164   7.763 -0.8442 -1.2316 -0.0942
  385MOL0     H51929   4.007   4.906   7.906  3.0191  0.7341 -2.2256
  385MOL0     H51930   3.917   4.982   7.767  0.3611  1.2240 -0.8935
  385MOL0     H51931   3.928   5.056   8.068 -0.9838  4.4513  0.5787
  385MOL0     H51932   3.785   4.966   8.004 -0.0058  0.2172 -0.0977
  385MOL0     H51933   3.723   5.172   7.871 -0.4097 -3.0708 -0.4651
  385MOL0     H51934   3.884   5.241   7.895  0.0456 -0.0660 -1.4373
  385MOL0     H51935   3.645   5.398   8.236 -0.7834 -1.7043  3.4504
  385MOL0     H51936   3.313   5.482   8.273 -0.3251 -1.7007  0.6971
  385MOL0     H51937   3.402   5.413   8.420  4.1372  1.5283  0.5091
  385MOL0     H51938   3.483   5.518   8.312 -1.1886  2.3201  1.1034
  385MOL0     H51939   2.976   5.408   8.111  1.8869 -0.4264 -0.6868
  385MOL0     H51940   2.718   5.401   8.174 -1.0778 -1.8356 -3.1286
  385MOL0     H51941   2.490   5.016   8.209  1.8907 -0.8239  0.2830
  385MOL0     H51942   2.564   5.026   8.365  0.8267  0.0099 -0.6863
  385MOL0     H51943   2.354   5.239   8.331 -0.7027 -0.9238  1.2152
  385MOL0     H51944   2.300   5.108   8.250 -0.3749  2.0381 -1.3192
  385MOL0     H51945   2.366   4.988   8.474 -0.3247  0.8656 -1.6381
  385MOL0     H51946   2.209   5.076   8.460 -0.0105 -2.6000  0.4914
  385MOL0     H51947   2.454   5.213   8.578 -0.7185  0.6764 -1.6747
  385MOL0     H51948   2.294   5.263   8.585 -0.6920 -1.5983 -0.2107
  385MOL0     H51949   2.386   5.148   8.802 -1.9267  0.5951  0.7267
  385MOL0     H51950   2.385   5.000   8.712 -0.0784 -0.1246 -0.6923
  385MOL0     H51951   2.153   5.184   8.779 -1.0441 -1.6397 -1.6418
  385MOL0     H51952   2.141   5.038   8.689 -2.1288 -0.0289  1.2752
  385MOL0     H51953   2.193   5.072   8.994 -1.2804  0.6538 -0.6444
  385MOL0     H51954   2.272   4.943   8.918  1.5765  2.8103 -1.1650
  385MOL0     H51955   2.066   4.869   9.012 -0.7136  1.5930  1.6748
  385MOL0     H51956   2.022   4.874   8.843 -0.6070 -2.0239  1.4842
  385MOL0     H51957   2.749   4.989   8.249 -2.8904  1.6450  0.4095
  385MOL0     H51958   3.007   4.993   8.213 -1.9468 -0.3715  1.2633
  385MOL0     H51959   3.332   5.051   8.085 -0.6029  0.0962 -0.8317
  385MOL0     H51960   3.587   5.045   8.001  1.0503  0.5964  0.0981
  385MOL0     H51961   4.038   4.464   7.142 -0.9167 -1.2901 -0.9114
  385MOL0     H51962   3.798   4.405   7.192 -1.4644  0.2480  1.0590
  385MOL0     H51963   3.374   4.428   7.092  0.0565  0.2100  0.2288
  385MOL0     H51964   3.160   4.321   7.158  0.1099 -0.3727  0.9003
  385MOL0     H51965   2.820   4.492   7.363 -1.1720 -2.8007  1.0098
  385MOL0     H51966   2.937   4.541   7.236 -3.0959  2.8282  2.3506
  385MOL0     H51967   2.795   4.261   7.259 -0.9250  0.3309 -1.0492
  385MOL0     H51968   2.923   4.309   7.147 -1.4401  0.9507 -2.6221
  385MOL0     H51969   2.786   4.468   7.032  0.2538  0.5661  1.2502
  385MOL0     H51970   2.658   4.466   7.156  0.3277 -0.1423  1.0362
  385MOL0     H51971   2.579   4.244   7.097  2.1594 -1.7975  0.2493
  385MOL0     H51972   2.731   4.210   7.019  1.7650 -0.0591  4.9594
  385MOL0     H51973   2.508   4.425   6.736  1.9322 -1.1736 -2.5715
  385MOL0     H51974   3.164   4.546   7.531  1.9143  2.1925  0.1424
  385MOL0     H51975   3.384   4.638   7.461 -1.0984  4.5306 -2.9973
  386MOL0     O51976   7.757   5.104   7.500 -1.0647  0.3315 -1.0540
  386MOL0     C51977   7.669   5.181   7.461  0.6046 -0.1350  0.5168
  386MOL0     O51978   7.542   5.202   7.518 -0.1731  0.2760  0.1309
  386MOL0     C51979   7.514   5.122   7.627 -0.6095 -0.2596  0.2166
  386MOL0     C51980   7.559   5.177   7.753 -1.6091 -1.0284 -0.3544
  386MOL0     C51981   7.567   5.094   7.862  0.1687  0.4891  0.2626
  386MOL0     C51982   7.498   4.969   7.858  0.4548 -0.2172 -0.4056
  386MOL0     O51983   7.486   4.910   7.984  0.9134 -0.3355 -0.1663
  386MOL0     C51984   7.433   4.772   7.994  0.1607 -0.1984  0.3105
  386MOL0     C51985   7.445   4.732   8.143 -0.0172 -0.2584 -0.4504
  386MOL0     C51986   7.347   4.817   8.231 -0.1039 -0.0972  0.3967
  386MOL0     C51987   7.408   4.842   8.366  0.6253  0.1439 -0.7952
  386MOL0     C51988   7.450   4.722   8.451 -0.0838  0.3150  0.3686
  386MOL0     C51989   7.341   4.609   8.442 -0.5623 -0.1172 -0.5087
  386MOL0     C51990   7.352   4.503   8.563  0.0680 -0.8138 -0.3556
  386MOL0     C51991   7.475   4.408   8.571  0.2011  0.2215  0.0124
  386MOL0     N51992   7.503   4.333   8.456  0.0580  0.4210  0.3669
  386MOL0     C51993   7.553   4.379   8.345  1.1968 -0.7105  0.2419
  386MOL0     C51994   7.546   4.284   8.253 -0.4634  0.6596  0.4041
  386MOL0     C51995   7.615   4.295   8.113 -0.6638 -0.7289  0.4328
  386MOL0     C51996   7.526   4.359   7.999  0.3569 -0.2631  0.0738
  386MOL0     C51997   7.594   4.402   7.874 -0.9461 -1.3502  0.0285
  386MOL0     C51998   7.651   4.285   7.800  0.9667 -0.0281  0.3283
  386MOL0     O51999   7.766   4.231   7.854  0.0954  0.0388  0.2918
  386MOL0     C52000   7.835   4.140   7.779  0.1631 -0.0935  0.3262
  386MOL0     C52001   7.924   4.070   7.851  0.3375  0.0590  0.3253
  386MOL0     C52002   8.011   3.971   7.807  0.8750 -0.2538  0.6845
  386MOL0     C52003   8.117   3.918   7.904  0.5377  0.6603 -0.4486
  386MOL0     C52004   7.988   3.926   7.675 -0.9326  0.0999  0.3540
  386MOL0     C52005   8.061   3.816   7.613  0.4630  0.2876 -0.7846
  386MOL0     O52006   8.009   3.776   7.488  0.3430  0.6195  0.4491
  386MOL0     C52007   8.087   3.691   7.414  1.0002  0.3197  0.5077
  386MOL0     C52008   8.126   3.566   7.460 -0.1264  0.1700 -0.2796
  386MOL0     C52009   8.201   3.486   7.369  0.7021  0.5786 -0.4830
  386MOL0     C52010   8.271   3.544   7.263  0.4157  0.7952  0.6737
  386MOL0     O52011   8.362   3.465   7.198 -0.4407 -0.7293 -0.6625
  386MOL0     C52012   8.423   3.502   7.077  0.7271 -0.8604 -0.5800
  386MOL0     C52013   8.352   3.442   6.963 -0.1180 -0.5114  0.1105
  386MOL0     C52014   8.207   3.499   6.937 -0.7406 -0.4235  0.0968
  386MOL0     C52015   8.099   3.407   6.986 -0.2872 -0.2028 -0.4041
  386MOL0     C52016   7.958   3.477   6.985 -0.0431 -0.6607  0.2053
  386MOL0     C52017   7.910   3.561   6.859  0.8925  0.2864  0.3764
  386MOL0     C52018   7.759   3.608   6.872 -1.5776 -0.2339 -0.0382
  386MOL0     C52019   7.726   3.685   6.743  0.3914  0.7547 -0.6193
  386MOL0    Cl52020   7.552   3.678   6.718  0.0528  0.0940  0.0842
  386MOL0     C52021   8.235   3.673   7.217  0.4452 -0.2450 -0.8625
  386MOL0     C52022   8.141   3.741   7.289  0.6167 -1.5822  0.3236
  386MOL0     O52023   8.163   3.773   7.673 -0.1228 -0.0492  0.4599
  386MOL0     C52024   7.892   3.999   7.598 -0.7407  0.5321  0.7074
  386MOL0     C52025   7.818   4.102   7.647 -0.0783  0.0704  0.2248
  386MOL0     N52026   7.480   4.176   8.309  0.1005  0.6282 -0.1966
  386MOL0     N52027   7.442   4.206   8.428  0.0956 -0.4606  0.1760
  386MOL0     C52028   7.429   4.930   7.740 -0.6148  0.5109  0.8347
  386MOL0     C52029   7.450   5.001   7.622  1.3540 -0.3982  0.1803
  386MOL0     C52030   7.688   5.254   7.341 -0.0291 -0.4107  0.1320
  386MOL0     C52031   7.584   5.283   7.252 -0.2166  0.0193 -0.1504
  386MOL0     C52032   7.600   5.382   7.140  0.0203  0.2963  0.0772
  386MOL0     C52033   7.728   5.437   7.122 -0.1797 -0.0416 -1.1264
  386MOL0     O52034   7.752   5.536   7.035 -0.2180  0.6112 -0.9217
  386MOL0     C52035   7.653   5.578   6.943 -0.0206  1.3530  0.6070
  386MOL0     C52036   7.705   5.696   6.868 -0.1717 -0.8965 -0.0865
  386MOL0     C52037   7.620   5.712   6.747  0.3426 -0.1698  0.1564
  386MOL0     C52038   7.690   5.783   6.645  0.2291 -0.3265 -0.4211
  386MOL0     C52039   7.731   5.914   6.697 -0.1701  0.5760  0.6224
  386MOL0     C52040   7.769   6.023   6.738 -0.5233  1.1979  0.9143
  386MOL0     C52041   7.828   5.393   7.198  0.2364  0.8395 -0.2149
  386MOL0     C52042   7.817   5.298   7.297 -0.1436  0.2253 -0.1804
  386MOL0     H52043   7.605   5.275   7.747 -0.6404 -1.5278 -1.5668
  386MOL0     H52044   7.638   5.113   7.942  0.5169  0.6065 -0.0721
  386MOL0     H52045   7.329   4.772   7.960  0.8572  0.0980 -1.9964
  386MOL0     H52046   7.485   4.700   7.931  1.9409  0.7782  0.5927
  386MOL0     H52047   7.425   4.626   8.160  0.3029 -0.2432  0.0067
  386MOL0     H52048   7.547   4.762   8.167  0.2800 -0.1201 -1.7686
  386MOL0     H52049   7.341   4.913   8.178 -2.1018  0.5141  1.6248
  386MOL0     H52050   7.242   4.790   8.226 -0.5140  1.1164  1.7901
  386MOL0     H52051   7.499   4.902   8.355  1.2315 -0.6567 -0.2399
  386MOL0     H52052   7.340   4.901   8.429 -0.4143 -3.8798  2.2738
  386MOL0     H52053   7.551   4.687   8.428 -0.4686 -3.9051  3.8416
  386MOL0     H52054   7.464   4.747   8.557  3.6056 -0.1328  0.1114
  386MOL0     H52055   7.245   4.661   8.447 -0.2536  0.3489  2.2080
  386MOL0     H52056   7.347   4.554   8.348  2.0981  2.9096 -2.3216
  386MOL0     H52057   7.332   4.560   8.654  0.5611  0.8466 -1.2412
  386MOL0     H52058   7.271   4.430   8.555 -1.0305  0.3910 -0.5427
  386MOL0     H52059   7.463   4.332   8.649 -2.0860  0.6351  0.1369
  386MOL0     H52060   7.558   4.467   8.610 -0.5260  0.7075  0.8372
  386MOL0     H52061   7.595   4.478   8.332  0.9791 -0.9322 -2.9018
  386MOL0     H52062   7.709   4.351   8.115 -0.7765 -0.1456 -3.4115
  386MOL0     H52063   7.659   4.197   8.092 -1.0153 -1.0777  1.2816
  386MOL0     H52064   7.485   4.449   8.046 -0.3460 -0.4493 -0.1680
  386MOL0     H52065   7.444   4.290   7.974 -0.6921  0.9299  0.0984
  386MOL0     H52066   7.677   4.462   7.911 -1.1095 -2.6276  2.7857
  386MOL0     H52067   7.529   4.465   7.812  1.0838  0.2872 -0.5135
  386MOL0     H52068   7.674   4.316   7.698 -0.7541  0.2845 -0.0026
  386MOL0     H52069   7.577   4.205   7.793 -0.0682  0.9803 -0.6114
  386MOL0     H52070   7.934   4.092   7.957 -2.8944  2.8929  0.2084
  386MOL0     H52071   8.105   3.960   8.004  0.5427  1.1368 -0.6432
  386MOL0     H52072   8.092   3.813   7.920 -2.3049  1.3306  0.2077
  386MOL0     H52073   8.213   3.932   7.854  0.4865  3.5950  0.0935
  386MOL0     H52074   8.104   3.538   7.563  0.5703  0.6164  0.0008
  386MOL0     H52075   8.205   3.379   7.387 -2.2821 -0.1987 -3.5236
  386MOL0     H52076   8.431   3.611   7.067 -1.1009 -0.6741 -0.3512
  386MOL0     H52077   8.529   3.478   7.063  1.6166  2.9986 -1.9319
  386MOL0     H52078   8.406   3.465   6.871  0.3879 -2.8674 -0.2349
  386MOL0     H52079   8.357   3.333   6.961  4.2420 -0.4821  0.2948
  386MOL0     H52080   8.190   3.521   6.831  2.4649  1.1188 -0.2211
  386MOL0     H52081   8.178   3.590   6.989  1.9404  0.7382 -0.2826
  386MOL0     H52082   8.103   3.328   6.910  4.0871 -0.3621 -0.2525
  386MOL0     H52083   8.118   3.370   7.088 -0.8863  2.2816  0.6731
  386MOL0     H52084   7.964   3.543   7.072 -0.6992 -2.5049  1.7247
  386MOL0     H52085   7.876   3.410   7.012  0.0708 -1.6588 -1.7327
  386MOL0     H52086   7.974   3.649   6.851 -1.1679  1.7370 -1.6352
  386MOL0     H52087   7.919   3.501   6.768 -1.6991  2.2709 -1.3559
  386MOL0     H52088   7.743   3.663   6.965 -0.5817 -1.2950  0.7975
  386MOL0     H52089   7.691   3.524   6.888 -1.0364 -0.2976  2.1642
  386MOL0     H52090   7.775   3.637   6.658 -2.8532  1.4687 -3.0903
  386MOL0     H52091   7.764   3.788   6.748  3.0757 -0.2086  0.9463
  386MOL0     H52092   8.286   3.733   7.143  0.6124  1.3732  0.5083
  386MOL0     H52093   8.115   3.842   7.256 -0.7384 -2.1656 -0.4992
  386MOL0     H52094   7.861   3.968   7.499 -3.0313 -0.1591  1.5911
  386MOL0     H52095   7.742   4.145   7.582 -3.2337 -0.0855  3.4884
  386MOL0     H52096   7.386   4.830   7.740  1.0696 -0.2717 -0.6695
  386MOL0     H52097   7.392   4.976   7.534 -2.8667  0.0729  2.5265
  386MOL0     H52098   7.490   5.235   7.278 -0.8505  0.8798 -0.8007
  386MOL0     H52099   7.509   5.405   7.086 -0.1252  0.7118  0.4907
  386MOL0     H52100   7.645   5.491   6.877 -1.1101  0.7275  1.5187
  386MOL0     H52101   7.548   5.599   6.968 -1.7384 -1.3839 -3.2334
  386MOL0     H52102   7.813   5.697   6.849 -0.6408  1.2219 -3.3793
  386MOL0     H52103   7.694   5.787   6.928  0.6363  1.9025 -3.8689
  386MOL0     H52104   7.527   5.762   6.772  0.2414  0.2661 -1.0371
  386MOL0     H52105   7.599   5.619   6.693 -0.4012  0.1743 -0.1657
  386MOL0     H52106   7.621   5.790   6.560 -0.3197  0.8784  0.1036
  386MOL0     H52107   7.778   5.721   6.626 -0.3665 -1.1948 -0.4115
  386MOL0     H52108   7.801   6.117   6.778 -0.4567  1.7830 -0.4675
  386MOL0     H52109   7.922   5.448   7.200  1.5594 -1.1714 -2.1858
  386MOL0     H52110   7.896   5.268   7.365  2.1774  4.2242 -0.8163
  387MOL0     O52111   0.158   5.090   8.391 -0.9466  0.0159 -0.6774
  387MOL0     C52112   0.112   5.015   8.303 -0.0578  0.5750 -0.1004
  387MOL0     O52113   0.136   5.017   8.165  0.2601  0.4732  0.2845
  387MOL0     C52114   0.246   5.077   8.109 -0.2286  0.3806 -0.4533
  387MOL0     C52115   0.375   5.031   8.146  0.4344 -1.0367  0.0563
  387MOL0     C52116   0.487   5.091   8.086 -0.2536 -0.1058 -0.0268
  387MOL0     C52117   0.482   5.188   7.992  0.3974 -0.5839 -0.2453
  387MOL0     O52118   0.597   5.234   7.935  0.3139  0.0046 -0.4045
  387MOL0     C52119   0.603   5.294   7.810 -0.3841 -0.2584 -0.2551
  387MOL0     C52120   0.753   5.311   7.775  1.0536  0.1504 -0.0038
  387MOL0     C52121   0.827   5.177   7.789 -0.7683 -0.5394 -0.2824
  387MOL0     C52122   0.972   5.195   7.745  0.3095 -0.4142 -0.5988
  387MOL0     C52123   1.057   5.071   7.752  0.6704  0.1835  1.4095
  387MOL0     C52124   1.209   5.098   7.696  0.0027 -1.0655 -0.0117
  387MOL0     C52125   1.213   5.154   7.558  0.9237  0.4018  0.5749
  387MOL0     C52126   1.124   5.066   7.463 -0.1841  0.0610  0.1944
  387MOL0     N52127   1.169   5.111   7.332 -0.5569  0.3556 -0.2074
  387MOL0     C52128   1.289   5.081   7.271  0.6372 -0.2615  0.4313
  387MOL0     C52129   1.294   5.170   7.172 -0.1016 -0.3700  0.1327
  387MOL0     C52130   1.412   5.197   7.083 -0.1798 -0.3138  0.2363
  387MOL0     C52131   1.421   5.087   6.977  0.2993  1.3061  0.3935
  387MOL0     C52132   1.350   5.102   6.842  0.2215  0.1494 -0.3478
  387MOL0     C52133   1.389   4.989   6.741  0.2293 -0.0453 -0.0171
  387MOL0     O52134   1.528   4.990   6.711 -0.2224 -0.7251 -0.5023
  387MOL0     C52135   1.595   5.083   6.631 -0.4302  0.7561 -0.3648
  387MOL0     C52136   1.731   5.077   6.620 -0.4214  0.8951  1.2180
  387MOL0     C52137   1.801   5.149   6.522 -0.0994  0.0592  1.5636
  387MOL0     C52138   1.942   5.118   6.510 -0.9382 -0.9643 -0.0376
  387MOL0     C52139   1.731   5.247   6.441 -0.0694 -0.5534  0.4563
  387MOL0     C52140   1.805   5.345   6.360  0.5860  0.0500 -0.5133
  387MOL0     O52141   1.755   5.370   6.228  0.0311 -0.3148  0.0538
  387MOL0     C52142   1.834   5.443   6.134  0.5941  0.5411 -0.1269
  387MOL0     C52143   1.810   5.403   6.000  0.2139 -0.5000  0.5764
  387MOL0     C52144   1.861   5.485   5.902  0.0918  0.1726  0.2169
  387MOL0     C52145   1.933   5.603   5.921  0.0692  0.0862 -0.5937
  387MOL0     O52146   2.000   5.661   5.822  0.2951 -0.2049 -0.1050
  387MOL0     C52147   2.143   5.663   5.847  0.4181  0.2493  0.7046
  387MOL0     C52148   2.201   5.804   5.862 -0.2485  1.1680  0.1378
  387MOL0     C52149   2.346   5.811   5.918 -0.1002  1.0002  0.4393
  387MOL0     C52150   2.447   5.807   5.806 -0.6973  1.5034  0.0121
  387MOL0     C52151   2.582   5.866   5.849  0.7531 -0.0167 -0.3068
  387MOL0     C52152   2.699   5.807   5.767 -0.1247 -0.3076  0.4006
  387MOL0     C52153   2.693   5.838   5.622 -1.1828  0.7543  0.4646
  387MOL0     C52154   2.832   5.855   5.550 -0.5943 -0.0085 -0.1903
  387MOL0    Cl52155   2.816   5.874   5.379 -0.3695  0.5042 -0.0031
  387MOL0     C52156   1.945   5.649   6.055 -0.1354  0.0917 -0.1866
  387MOL0     C52157   1.901   5.561   6.161 -0.8612  0.2537  0.4581
  387MOL0     O52158   1.915   5.375   6.405  0.5832 -0.1220  0.0389
  387MOL0     C52159   1.595   5.253   6.455  0.2181 -0.8836 -0.2388
  387MOL0     C52160   1.527   5.170   6.548  0.1458 -0.4361  0.0464
  387MOL0     N52161   1.193   5.262   7.193  0.6953 -1.0839 -0.1526
  387MOL0     N52162   1.113   5.227   7.284 -0.6983 -0.2001 -0.1298
  387MOL0     C52163   0.349   5.234   7.959  0.1868  0.8504 -0.5630
  387MOL0     C52164   0.230   5.175   8.017 -0.5382 -0.5002  0.3983
  387MOL0     C52165   0.006   4.910   8.344  0.4273  0.3555 -0.0716
  387MOL0     C52166  -0.048   4.808   8.250 -0.2532 -0.4106  0.4105
  387MOL0     C52167  -0.145   4.726   8.280  0.9402  0.3771 -0.6615
  387MOL0     C52168  -0.202   4.723   8.403  0.9660  0.5765  0.6910
  387MOL0     O52169  -0.299   4.622   8.445 -0.3401  0.2049  0.2885
  387MOL0     C52170  -0.341   4.525   8.350  0.1562  0.3950  0.4032
  387MOL0     C52171  -0.461   4.445   8.416  0.1155 -1.2498 -0.4051
  387MOL0     C52172  -0.481   4.317   8.347 -0.6279  0.5114 -0.4151
  387MOL0     C52173  -0.592   4.236   8.419  0.1987 -0.0683 -0.2679
  387MOL0     C52174  -0.565   4.100   8.411  0.1214 -0.0147 -0.0433
  387MOL0     C52175  -0.528   3.986   8.399 -0.8188 -1.1492 -0.3902
  387MOL0     C52176  -0.161   4.807   8.503  0.4843 -0.0367  0.4985
  387MOL0     C52177  -0.063   4.905   8.474 -0.1021 -0.9176  0.7012
  387MOL0     H52178   0.391   4.947   8.212 -0.0103 -1.6380 -0.5951
  387MOL0     H52179   0.586   5.061   8.118 -1.1608 -4.1623 -0.5348
  387MOL0     H52180   0.564   5.229   7.731  3.8032 -2.5083 -0.7886
  387MOL0     H52181   0.547   5.388   7.809 -0.9784 -0.6124 -0.9949
  387MOL0     H52182   0.767   5.349   7.673 -0.1995  1.8884  0.4348
  387MOL0     H52183   0.797   5.392   7.834  0.3833  2.7664 -2.8660
  387MOL0     H52184   0.821   5.148   7.894  0.3335 -1.9292 -0.5642
  387MOL0     H52185   0.781   5.107   7.719  2.7292 -1.4448 -1.9161
  387MOL0     H52186   0.971   5.229   7.641  2.7824 -0.9123 -0.8480
  387MOL0     H52187   1.022   5.269   7.808 -0.5937 -0.5880  0.3439
  387MOL0     H52188   1.064   5.047   7.859  0.9758  1.0646  1.5973
  387MOL0     H52189   1.011   4.994   7.691 -0.0506  2.5194 -1.1859
  387MOL0     H52190   1.264   5.172   7.755 -2.3221  2.5423 -1.9836
  387MOL0     H52191   1.248   4.996   7.701  0.4357 -0.8648  1.0385
  387MOL0     H52192   1.180   5.258   7.567  1.9835  1.2380 -3.2312
  387MOL0     H52193   1.317   5.146   7.525  0.6687  0.3380 -0.2454
  387MOL0     H52194   1.022   5.092   7.492  0.4790  4.6792 -0.8396
  387MOL0     H52195   1.139   4.958   7.457 -1.2168 -0.0711 -0.1870
  387MOL0     H52196   1.358   5.011   7.316  2.6957  1.5343  0.2735
  387MOL0     H52197   1.407   5.298   7.041  2.6022  0.8930  2.4248
  387MOL0     H52198   1.505   5.180   7.139 -0.8051 -4.0828  0.3787
  387MOL0     H52199   1.382   4.999   7.028  1.3518  2.6432  3.8045
  387MOL0     H52200   1.526   5.062   6.960  0.1044  1.1918 -0.7413
  387MOL0     H52201   1.387   5.195   6.797  1.4548 -1.0831 -2.0237
  387MOL0     H52202   1.242   5.115   6.855  0.5841  2.5345  0.8817
  387MOL0     H52203   1.323   4.987   6.653 -0.5436  0.9753  0.5126
  387MOL0     H52204   1.356   4.893   6.782 -3.0069  2.3530  3.6795
  387MOL0     H52205   1.786   5.015   6.690  2.0236  1.6703  0.0966
  387MOL0     H52206   1.965   5.012   6.519  1.0755 -0.5752 -0.1535
  387MOL0     H52207   1.978   5.128   6.407 -0.9366 -1.0130 -0.0414
  387MOL0     H52208   1.996   5.180   6.583 -1.9015  2.6274 -2.1142
  387MOL0     H52209   1.768   5.308   5.971  0.3788 -1.2151  2.5300
  387MOL0     H52210   1.842   5.450   5.801  1.7553 -0.3601  0.0569
  387MOL0     H52211   2.176   5.609   5.937  0.8252  0.4929  0.7057
  387MOL0     H52212   2.195   5.608   5.768 -2.3809 -0.1664 -0.9513
  387MOL0     H52213   2.184   5.866   5.773 -1.6718  0.8534  0.1716
  387MOL0     H52214   2.138   5.844   5.942  0.6302 -0.3738  1.6561
  387MOL0     H52215   2.368   5.726   5.983 -1.5532  0.5817  0.4313
  387MOL0     H52216   2.364   5.904   5.973 -1.0206  3.1309 -2.5607
  387MOL0     H52217   2.443   5.712   5.751 -3.3620  1.4099  0.2758
  387MOL0     H52218   2.404   5.877   5.735 -2.0521  1.6510  0.9467
  387MOL0     H52219   2.607   5.845   5.954  3.6224  1.3961 -0.6231
  387MOL0     H52220   2.586   5.975   5.848 -0.6221  0.0741  0.8454
  387MOL0     H52221   2.786   5.846   5.820  1.3468 -0.7926 -1.5258
  387MOL0     H52222   2.703   5.699   5.785  0.9854 -0.6552 -1.5894
  387MOL0     H52223   2.649   5.937   5.607  1.0257  1.3733 -3.3961
  387MOL0     H52224   2.622   5.773   5.569 -0.7480  2.0385 -1.8482
  387MOL0     H52225   2.908   5.778   5.565  1.5431  1.3035 -3.1708
  387MOL0     H52226   2.868   5.945   5.601 -3.3749  0.1824  1.6460
  387MOL0     H52227   1.999   5.737   6.087 -1.5123  0.0423  2.5813
  387MOL0     H52228   1.906   5.605   6.260 -4.2074 -0.5934  1.1175
  387MOL0     H52229   1.539   5.332   6.405 -0.0768 -1.6438 -1.1360
  387MOL0     H52230   1.421   5.187   6.564  0.5148  0.1879  2.0945
  387MOL0     H52231   0.334   5.318   7.892 -1.5483  1.8192  0.9529
  387MOL0     H52232   0.133   5.213   7.987  0.6443  1.9879 -0.5223
  387MOL0     H52233  -0.007   4.824   8.151 -3.0028  4.9324 -0.2283
  387MOL0     H52234  -0.181   4.679   8.190 -1.3996  2.7105 -1.0581
  387MOL0     H52235  -0.387   4.570   8.261 -1.1967  0.0872  0.9356
  387MOL0     H52236  -0.255   4.466   8.316 -0.5495 -0.9208  0.8320
  387MOL0     H52237  -0.552   4.505   8.416  0.8319 -0.1094  1.0198
  387MOL0     H52238  -0.424   4.423   8.516  1.4028  1.4749 -0.1914
  387MOL0     H52239  -0.387   4.261   8.357 -1.7708 -1.0964  2.4797
  387MOL0     H52240  -0.508   4.334   8.242  0.0381  0.7969 -0.5466
  387MOL0     H52241  -0.691   4.265   8.383 -0.0020 -0.2047  0.1651
  387MOL0     H52242  -0.607   4.263   8.524 -1.0584 -1.7301  0.0168
  387MOL0     H52243  -0.485   3.893   8.368 -1.0256 -1.7335  0.9776
  387MOL0     H52244  -0.212   4.814   8.598 -0.7228  0.7124 -0.1788
  387MOL0     H52245  -0.028   4.973   8.551 -0.8183  0.7030 -0.3520
  388MOL0     O52246   2.614   7.235   8.918  0.8297  0.2854  0.1723
  388MOL0     C52247   2.686   7.306   8.845 -0.2746  0.1565  0.1720
  388MOL0     O52248   2.788   7.247   8.769  0.1608 -1.1287  0.4260
  388MOL0     C52249   2.780   7.122   8.730 -1.0183 -0.4947  0.7181
  388MOL0     C52250   2.898   7.048   8.734 -0.2218  0.1053  0.1530
  388MOL0     C52251   2.902   6.913   8.697 -0.1166  1.0437  0.7667
  388MOL0     C52252   2.784   6.855   8.640 -0.0458  0.3823 -0.3947
  388MOL0     O52253   2.794   6.728   8.588  0.6773 -0.3684 -0.3314
  388MOL0     C52254   2.694   6.685   8.503 -0.6046 -1.4090  0.2895
  388MOL0     C52255   2.744   6.550   8.444  0.2050  0.0003  0.7061
  388MOL0     C52256   2.633   6.478   8.359  0.3121 -0.7875  0.5652
  388MOL0     C52257   2.586   6.531   8.221  0.7740 -0.4714 -0.3182
  388MOL0     C52258   2.458   6.465   8.169  0.0274  0.6204  0.6553
  388MOL0     C52259   2.363   6.567   8.102  0.2547  0.5135 -0.4648
  388MOL0     C52260   2.248   6.488   8.032 -0.2482  0.2842 -1.0210
  388MOL0     C52261   2.125   6.573   8.028 -0.2304 -0.2908  0.1257
  388MOL0     N52262   2.033   6.542   7.916 -0.0480  0.0986 -0.7676
  388MOL0     C52263   2.039   6.434   7.833 -1.3968 -0.0008  0.6151
  388MOL0     C52264   1.963   6.457   7.735 -0.1762 -0.2061 -0.5862
  388MOL0     C52265   1.948   6.376   7.606 -0.0166 -0.0672 -0.4055
  388MOL0     C52266   1.933   6.487   7.490  0.1479  0.5028 -0.4373
  388MOL0     C52267   1.950   6.418   7.355  0.0970 -0.2965 -0.1044
  388MOL0     C52268   1.886   6.511   7.249  0.6597  0.1074  0.0776
  388MOL0     O52269   1.879   6.435   7.122 -0.1635  0.5096  0.1932
  388MOL0     C52270   1.976   6.464   7.027 -0.3923 -0.6890  0.5899
  388MOL0     C52271   1.979   6.371   6.925 -0.5463 -1.0552 -0.0456
  388MOL0     C52272   2.049   6.395   6.807 -0.4584  0.5161 -1.0310
  388MOL0     C52273   2.048   6.289   6.701 -0.3052 -0.5281 -1.6734
  388MOL0     C52274   2.130   6.510   6.788 -0.0690  0.4923 -0.3719
  388MOL0     C52275   2.228   6.542   6.676 -0.1262  0.0637  1.1134
  388MOL0     O52276   2.323   6.635   6.705  0.1515 -0.0249 -0.3278
  388MOL0     C52277   2.435   6.656   6.623 -0.1177  0.0268  0.0525
  388MOL0     C52278   2.558   6.666   6.689  0.4725  0.0451  0.7169
  388MOL0     C52279   2.678   6.685   6.611  0.0916  0.2080  0.8479
  388MOL0     C52280   2.672   6.708   6.469  0.2451 -0.0459 -0.1455
  388MOL0     O52281   2.777   6.728   6.393  0.6548  0.1941  1.3461
  388MOL0     C52282   2.905   6.662   6.411 -1.1052 -1.3178  0.5613
  388MOL0     C52283   3.012   6.765   6.384 -1.1547  0.0424 -0.0816
  388MOL0     C52284   2.997   6.822   6.241 -0.1608  0.4114 -0.1974
  388MOL0     C52285   3.092   6.758   6.138 -0.2218 -0.3096 -0.2838
  388MOL0     C52286   3.012   6.670   6.040  0.5512 -0.0656  0.1600
  388MOL0     C52287   3.104   6.615   5.923 -0.7438  0.2129 -0.1258
  388MOL0     C52288   3.087   6.681   5.782  0.0417  0.3415 -0.1834
  388MOL0     C52289   3.170   6.613   5.683  1.0181 -0.7144 -0.6425
  388MOL0    Cl52290   3.091   6.660   5.529 -0.2351  0.0038 -0.3661
  388MOL0     C52291   2.545   6.708   6.409 -0.8262  0.8236 -1.1290
  388MOL0     C52292   2.430   6.688   6.483  0.1632  0.7890  0.0002
  388MOL0     O52293   2.202   6.500   6.560  0.3148 -0.3992 -0.3994
  388MOL0     C52294   2.121   6.614   6.891  0.0603  0.2214  0.2473
  388MOL0     C52295   2.040   6.587   7.004 -0.3757 -0.1008  0.5808
  388MOL0     N52296   1.883   6.568   7.766  0.9196  0.0673 -0.1323
  388MOL0     N52297   1.932   6.621   7.876  0.0196 -0.0174  0.2409
  388MOL0     C52298   2.670   6.940   8.631  0.2468 -0.1076  0.1111
  388MOL0     C52299   2.661   7.073   8.669 -0.6150  0.4719 -0.1557
  388MOL0     C52300   2.679   7.456   8.852 -0.0277  0.5945 -0.0597
  388MOL0     C52301   2.596   7.526   8.948 -0.4141 -0.4441  0.2359
  388MOL0     C52302   2.604   7.669   8.964 -0.1740 -0.1258  0.8678
  388MOL0     C52303   2.711   7.737   8.901  0.3710 -0.1831 -0.6813
  388MOL0     O52304   2.731   7.871   8.915 -0.2045  0.1264 -1.2015
  388MOL0     C52305   2.626   7.957   8.968 -0.2891 -0.9703  0.2168
  388MOL0     C52306   2.626   8.078   8.867  0.4683 -0.2827  0.0831
  388MOL0     C52307   2.520   8.173   8.907 -0.3441 -0.0851 -0.6985
  388MOL0     C52308   2.534   8.290   8.803 -0.0403  0.2497  0.3260
  388MOL0     C52309   2.438   8.278   8.687 -0.3535  0.1941  1.1802
  388MOL0     C52310   2.359   8.268   8.591 -0.3877 -0.1185 -0.9440
  388MOL0     C52311   2.802   7.663   8.819  0.9054 -0.6014 -0.1742
  388MOL0     C52312   2.786   7.531   8.790 -0.0320  0.1676 -0.1077
  388MOL0     H52313   2.995   7.084   8.768  0.9978 -0.7615 -2.1422
  388MOL0     H52314   2.992   6.853   8.700  0.3212  1.3589 -2.4825
  388MOL0     H52315   2.597   6.670   8.550 -0.4653 -2.1297  0.3587
  388MOL0     H52316   2.694   6.757   8.420  0.1496 -0.5357  1.0345
  388MOL0     H52317   2.841   6.551   8.394  0.9936  0.3704  2.1932
  388MOL0     H52318   2.756   6.479   8.526  2.3474  0.4400  0.8418
  388MOL0     H52319   2.648   6.370   8.351 -2.6218 -1.2135 -0.5367
  388MOL0     H52320   2.543   6.479   8.423 -0.7810 -1.0833 -0.9115
  388MOL0     H52321   2.581   6.640   8.224 -0.5701 -0.5315  1.4600
  388MOL0     H52322   2.667   6.506   8.151  0.6076  0.5107 -0.8842
  388MOL0     H52323   2.494   6.393   8.096  0.0946 -0.3800  1.6454
  388MOL0     H52324   2.402   6.418   8.251 -2.1528  0.7582 -0.6630
  388MOL0     H52325   2.316   6.634   8.174 -3.6811 -1.9959 -0.4235
  388MOL0     H52326   2.426   6.623   8.031  2.3531  0.9123  1.6019
  388MOL0     H52327   2.282   6.456   7.933  1.4380 -3.7358  0.6383
  388MOL0     H52328   2.231   6.400   8.095  3.4628 -0.5523 -0.9901
  388MOL0     H52329   2.154   6.678   8.022 -5.6302  1.6670  2.4030
  388MOL0     H52330   2.073   6.558   8.123  1.0503 -1.2720  0.6991
  388MOL0     H52331   2.115   6.357   7.839  2.3190  3.2206 -0.3674
  388MOL0     H52332   2.041   6.320   7.595  0.6611  0.7221  0.9614
  388MOL0     H52333   1.860   6.311   7.605  1.4892 -2.3748  2.2141
  388MOL0     H52334   2.025   6.546   7.495  2.3408 -2.7629  1.3573
  388MOL0     H52335   1.838   6.542   7.496 -1.8169 -2.5180 -1.4094
  388MOL0     H52336   1.904   6.319   7.346  2.2683 -1.3956  0.1730
  388MOL0     H52337   2.057   6.419   7.333  0.6204  0.8397  2.2069
  388MOL0     H52338   1.948   6.601   7.241  4.1770 -2.1737 -0.1417
  388MOL0     H52339   1.788   6.541   7.286  1.6219  2.2907  1.0423
  388MOL0     H52340   1.923   6.280   6.942 -0.5522 -1.7461 -3.1028
  388MOL0     H52341   2.018   6.319   6.601  1.4688 -2.9651 -3.0644
  388MOL0     H52342   2.150   6.251   6.690 -0.4275 -1.4277 -0.0169
  388MOL0     H52343   1.973   6.212   6.720 -4.1035  3.3377  0.8041
  388MOL0     H52344   2.571   6.662   6.797  2.0616 -0.4184  0.5326
  388MOL0     H52345   2.776   6.683   6.658  0.0298  2.8402  1.2597
  388MOL0     H52346   2.919   6.620   6.511  0.5824 -0.3983  0.7392
  388MOL0     H52347   2.911   6.574   6.347  4.0744  0.0496 -1.2689
  388MOL0     H52348   3.015   6.840   6.462 -0.8911  0.1213 -0.1656
  388MOL0     H52349   3.103   6.704   6.387 -1.1184  0.1288  1.7298
  388MOL0     H52350   3.021   6.929   6.244  1.1361  0.1999 -1.9382
  388MOL0     H52351   2.893   6.820   6.206 -0.6551  0.4710  1.2168
  388MOL0     H52352   3.158   6.833   6.094  2.5751  1.4193  5.7707
  388MOL0     H52353   3.158   6.688   6.191 -1.9560 -1.5748  0.3025
  388MOL0     H52354   2.926   6.726   6.002  2.0960  4.0464  2.1156
  388MOL0     H52355   2.978   6.587   6.102 -0.3081 -1.4616 -2.0808
  388MOL0     H52356   3.204   6.618   5.967  0.4470 -0.2055 -2.6557
  388MOL0     H52357   3.067   6.514   5.906 -0.3262  0.4256 -2.6084
  388MOL0     H52358   3.119   6.785   5.783 -1.6259  0.9839 -3.4117
  388MOL0     H52359   2.982   6.674   5.756 -0.6891  3.7199  1.3180
  388MOL0     H52360   3.163   6.505   5.701 -5.3529 -0.6422 -0.3416
  388MOL0     H52361   3.274   6.644   5.689  0.4938  1.6079 -2.3185
  388MOL0     H52362   2.562   6.714   6.302  1.5913  1.1299 -0.7871
  388MOL0     H52363   2.338   6.686   6.425  0.1704 -1.2118 -0.0288
  388MOL0     H52364   2.178   6.705   6.875 -1.2008  0.9006 -0.5692
  388MOL0     H52365   2.029   6.663   7.080  2.2546  3.5482 -2.3526
  388MOL0     H52366   2.585   6.905   8.573  0.7167  1.6632 -1.7614
  388MOL0     H52367   2.584   7.146   8.646 -2.1053 -0.8501  0.4140
  388MOL0     H52368   2.518   7.486   9.012 -3.7933  1.6104 -2.3295
  388MOL0     H52369   2.539   7.707   9.042 -0.7958 -0.9772  0.7817
  388MOL0     H52370   2.528   7.913   8.986 -2.5230  1.0653 -4.9894
  388MOL0     H52371   2.658   7.993   9.066 -0.9482 -0.9839  0.4349
  388MOL0     H52372   2.596   8.030   8.773 -0.0102  0.9849 -0.4338
  388MOL0     H52373   2.728   8.116   8.852  0.5597 -0.0776  1.1740
  388MOL0     H52374   2.545   8.220   9.003 -1.9828  1.5672 -1.0228
  388MOL0     H52375   2.415   8.143   8.920 -0.3672 -0.1481 -1.0314
  388MOL0     H52376   2.637   8.292   8.767 -0.0156 -3.2558 -0.1746
  388MOL0     H52377   2.507   8.388   8.842 -0.0809  0.9459 -1.3353
  388MOL0     H52378   2.297   8.262   8.503 -0.3861 -0.1377 -0.9439
  388MOL0     H52379   2.884   7.717   8.773  3.1514 -2.2591  1.6036
  388MOL0     H52380   2.859   7.488   8.723  1.1217  2.2624 -0.2826
  389MOL0     O52381   3.310   2.433   3.900 -0.0002  0.3927 -0.9954
  389MOL0     C52382   3.338   2.494   4.007 -0.5717  0.2155 -0.2764
  389MOL0     O52383   3.430   2.460   4.097 -0.3996  1.1155 -0.1244
  389MOL0     C52384   3.518   2.357   4.085  0.1491 -0.2505 -0.2384
  389MOL0     C52385   3.549   2.274   4.196 -0.0527  0.6547 -0.5882
  389MOL0     C52386   3.635   2.164   4.186 -0.0995  0.2242 -0.0727
  389MOL0     C52387   3.695   2.136   4.062 -1.2891 -0.4792 -0.1194
  389MOL0     O52388   3.765   2.023   4.045 -0.6714 -0.8330 -0.7138
  389MOL0     C52389   3.698   1.925   3.979  0.2910 -0.1240  0.4397
  389MOL0     C52390   3.770   1.890   3.849 -0.4043 -0.0121  0.8558
  389MOL0     C52391   3.915   1.851   3.877 -0.9404 -1.3687 -0.0074
  389MOL0     C52392   3.985   1.850   3.740  0.2389  0.2068 -1.0257
  389MOL0     C52393   4.133   1.848   3.760 -0.5644  0.3841  0.3612
  389MOL0     C52394   4.205   1.798   3.633 -0.4239  0.0493 -0.7682
  389MOL0     C52395   4.358   1.801   3.657 -0.2135  1.1491 -0.7020
  389MOL0     C52396   4.425   1.793   3.518 -0.1298  0.3460 -0.3225
  389MOL0     N52397   4.562   1.751   3.523 -0.1921 -0.2271  0.1558
  389MOL0     C52398   4.677   1.834   3.515  0.8272 -0.4422  0.5754
  389MOL0     C52399   4.771   1.741   3.492 -0.0416  0.7554 -0.0468
  389MOL0     C52400   4.918   1.749   3.455 -1.0241 -0.3264 -0.5746
  389MOL0     C52401   4.952   1.693   3.312 -0.3156  0.7419  0.6923
  389MOL0     C52402   4.979   1.805   3.211  0.7587 -0.0968 -0.1344
  389MOL0     C52403   4.941   1.769   3.067 -0.4964 -0.7429 -0.7415
  389MOL0     O52404   5.031   1.670   3.017 -0.4352 -1.0443  0.6042
  389MOL0     C52405   5.019   1.634   2.887 -0.1971  0.3292  0.5961
  389MOL0     C52406   4.926   1.689   2.797  0.7227 -0.2632 -0.5451
  389MOL0     C52407   4.895   1.631   2.675 -0.9974  0.3036  0.1050
  389MOL0     C52408   4.786   1.704   2.591  0.1894  0.4498 -0.1972
  389MOL0     C52409   4.969   1.514   2.631  0.0218 -0.0367 -0.5976
  389MOL0     C52410   4.943   1.432   2.516 -0.3494 -0.2324  0.2917
  389MOL0     O52411   5.007   1.318   2.511 -0.4405  0.4035  0.4943
  389MOL0     C52412   4.991   1.232   2.403  0.7589 -0.0031  0.4165
  389MOL0     C52413   5.093   1.136   2.384  0.8157  0.0402 -0.3555
  389MOL0     C52414   5.079   1.029   2.293  0.5256 -0.3443  0.7332
  389MOL0     C52415   4.958   1.008   2.219  0.2412  0.6193 -0.4963
  389MOL0     O52416   4.953   0.902   2.140  0.2319  0.4447  0.0567
  389MOL0     C52417   4.848   0.885   2.036 -0.4951  0.2802 -0.9329
  389MOL0     C52418   4.826   0.735   2.005 -0.1987 -0.6981  0.5670
  389MOL0     C52419   4.740   0.659   2.110  0.5802  0.1529 -0.3266
  389MOL0     C52420   4.694   0.527   2.036 -0.3929 -0.1572  1.3040
  389MOL0     C52421   4.661   0.424   2.147 -0.1518  0.8762 -0.0039
  389MOL0     C52422   4.530   0.461   2.223  0.9634 -0.2223 -0.9097
  389MOL0     C52423   4.498   0.376   2.354  0.5415 -0.0826  0.3999
  389MOL0     C52424   4.394   0.448   2.448 -0.5770 -0.5358  0.6223
  389MOL0    Cl52425   4.479   0.613   2.494  0.5158 -0.2245 -0.0684
  389MOL0     C52426   4.854   1.103   2.244  0.2196 -0.0221 -0.4772
  389MOL0     C52427   4.872   1.216   2.324  0.1106  0.4181 -0.1672
  389MOL0     O52428   4.867   1.480   2.434 -0.1609  0.3918 -0.0040
  389MOL0     C52429   5.085   1.484   2.707  0.7714  0.8762  0.0628
  389MOL0     C52430   5.104   1.543   2.838 -0.2341  1.0319  0.4424
  389MOL0     N52431   4.719   1.615   3.519  0.0594  0.1486 -0.1195
  389MOL0     N52432   4.595   1.620   3.528 -0.2967  0.6145 -0.0284
  389MOL0     C52433   3.663   2.221   3.957 -0.0815 -0.2417 -0.9101
  389MOL0     C52434   3.577   2.328   3.963  0.6955  0.3053  0.6113
  389MOL0     C52435   3.244   2.618   4.036  0.6858  1.4890 -0.6152
  389MOL0     C52436   3.105   2.637   3.986  0.5543 -1.0049 -0.0109
  389MOL0     C52437   3.023   2.753   4.021 -0.7976  0.1149 -0.7387
  389MOL0     C52438   3.076   2.845   4.102 -0.8937 -0.2355 -0.8515
  389MOL0     O52439   3.022   2.963   4.162  0.2270  0.1351 -0.3004
  389MOL0     C52440   2.884   2.994   4.126 -0.5402 -0.4299 -0.3182
  389MOL0     C52441   2.874   3.057   3.991  0.2611 -0.3677  0.2888
  389MOL0     C52442   2.740   3.040   3.926  0.0041 -0.8151  0.6255
  389MOL0     C52443   2.739   3.105   3.782 -0.2190 -1.2821 -0.0899
  389MOL0     C52444   2.596   3.085   3.752  0.3501 -0.2529  0.1721
  389MOL0     C52445   2.484   3.064   3.719 -0.3260  0.5055  0.6987
  389MOL0     C52446   3.202   2.823   4.152 -0.3870  0.3905 -0.7003
  389MOL0     C52447   3.287   2.720   4.115  0.6650  0.2217  0.1863
  389MOL0     H52448   3.501   2.291   4.291  0.7379 -0.1951 -0.0211
  389MOL0     H52449   3.653   2.105   4.276 -1.4053  0.7800  0.5848
  389MOL0     H52450   3.716   1.834   4.038  1.5821 -0.9621 -1.1667
  389MOL0     H52451   3.591   1.939   3.959  0.1689 -1.3917  0.1300
  389MOL0     H52452   3.720   1.803   3.805  2.4704  0.0876 -3.2131
  389MOL0     H52453   3.749   1.963   3.770  1.3668 -2.2828 -1.9195
  389MOL0     H52454   3.956   1.934   3.936  1.2030 -1.1774 -1.6248
  389MOL0     H52455   3.924   1.759   3.934 -0.7932 -1.2054  0.2374
  389MOL0     H52456   3.952   1.767   3.677  1.7918 -2.2171  1.1635
  389MOL0     H52457   3.953   1.940   3.686 -1.1700 -0.9183 -2.1704
  389MOL0     H52458   4.173   1.944   3.793 -3.8617  2.3944 -0.9877
  389MOL0     H52459   4.152   1.774   3.838 -1.5809 -0.7372 -0.4240
  389MOL0     H52460   4.160   1.701   3.612 -1.8126  0.5287 -0.1298
  389MOL0     H52461   4.166   1.871   3.563 -1.9199  0.7201  0.6956
  389MOL0     H52462   4.380   1.891   3.715 -0.3475 -1.2185  3.4662
  389MOL0     H52463   4.383   1.716   3.721 -0.8415 -0.5210 -2.5808
  389MOL0     H52464   4.412   1.883   3.458 -3.9777  0.5328  0.5269
  389MOL0     H52465   4.377   1.717   3.456 -1.0823  1.5245 -1.0658
  389MOL0     H52466   4.685   1.942   3.506  2.1852 -0.0039  4.8313
  389MOL0     H52467   4.950   1.854   3.452  0.0495 -0.6179  0.2058
  389MOL0     H52468   4.977   1.695   3.529 -1.8398  2.1154  2.0447
  389MOL0     H52469   4.877   1.631   3.260 -1.6346  3.2293 -0.5413
  389MOL0     H52470   5.040   1.628   3.322 -1.0178 -0.2878  0.3841
  389MOL0     H52471   5.079   1.848   3.224  0.0078  1.7294 -0.1492
  389MOL0     H52472   4.909   1.884   3.238  0.5564  0.4028 -1.9723
  389MOL0     H52473   4.938   1.854   2.998 -0.5799 -2.3027 -2.7457
  389MOL0     H52474   4.836   1.739   3.066 -0.7040 -0.1364  0.5404
  389MOL0     H52475   4.862   1.771   2.828 -1.9721 -2.9593  1.5145
  389MOL0     H52476   4.717   1.634   2.542  0.8351  0.4045 -1.0543
  389MOL0     H52477   4.726   1.763   2.661  0.2324 -1.5958  1.7096
  389MOL0     H52478   4.828   1.769   2.514 -1.5933  3.7736  1.4637
  389MOL0     H52479   5.173   1.156   2.454  0.6243  0.7599 -0.3287
  389MOL0     H52480   5.165   0.964   2.286  0.7699  0.0371  0.0570
  389MOL0     H52481   4.749   0.910   2.076 -1.0700 -0.2090 -1.9858
  389MOL0     H52482   4.867   0.951   1.951 -0.8505  2.6904  0.7502
  389MOL0     H52483   4.783   0.736   1.905 -2.5435  1.3851  1.4934
  389MOL0     H52484   4.929   0.696   2.012  0.8338  1.8031  0.4122
  389MOL0     H52485   4.642   0.704   2.127  0.6067 -0.4784  1.6847
  389MOL0     H52486   4.789   0.640   2.206  1.5508 -0.5018 -0.9283
  389MOL0     H52487   4.615   0.542   1.962  1.1315 -2.0281 -0.8302
  389MOL0     H52488   4.777   0.476   1.987 -0.3480  1.3521 -0.2965
  389MOL0     H52489   4.743   0.417   2.220  1.2144 -1.2641 -1.6246
  389MOL0     H52490   4.642   0.323   2.111  1.3698 -0.0770  1.7044
  389MOL0     H52491   4.544   0.564   2.257 -0.4130 -0.4985  0.5734
  389MOL0     H52492   4.440   0.460   2.160  0.3555  1.5151 -0.1328
  389MOL0     H52493   4.589   0.356   2.413 -0.0748  0.6405  1.6367
  389MOL0     H52494   4.445   0.282   2.338  0.5260 -0.0097  0.0120
  389MOL0     H52495   4.366   0.382   2.531 -1.3902  0.5345  1.2354
  389MOL0     H52496   4.298   0.468   2.400  1.1187  2.9694 -1.7560
  389MOL0     H52497   4.758   1.074   2.202 -0.1956  3.0998 -1.9455
  389MOL0     H52498   4.796   1.293   2.338 -0.0452  0.5466 -1.5670
  389MOL0     H52499   5.148   1.398   2.689 -1.1773 -0.6303  0.0530
  389MOL0     H52500   5.191   1.519   2.899  2.8192  3.3385 -2.5396
  389MOL0     H52501   3.709   2.193   3.863 -0.0628 -3.0660 -0.1366
  389MOL0     H52502   3.566   2.390   3.875  2.9459  0.2544  0.2252
  389MOL0     H52503   3.059   2.574   3.911 -1.4955 -0.0889  0.4125
  389MOL0     H52504   2.925   2.756   3.974 -1.8392 -1.0471  1.2479
  389MOL0     H52505   2.818   2.908   4.138 -0.7072 -0.1209  1.2613
  389MOL0     H52506   2.852   3.072   4.196 -0.7676 -1.2573  0.5188
  389MOL0     H52507   2.951   3.016   3.925 -0.2418  1.3651 -1.4508
  389MOL0     H52508   2.886   3.165   4.001 -0.2936  0.1062 -3.0095
  389MOL0     H52509   2.660   3.081   3.989 -1.7333  0.7207 -2.3228
  389MOL0     H52510   2.723   2.937   3.894  0.0838 -0.7516  0.3815
  389MOL0     H52511   2.792   3.045   3.708  1.9866 -1.8615  1.8313
  389MOL0     H52512   2.773   3.208   3.765 -3.5583 -0.5524 -4.0038
  389MOL0     H52513   2.382   3.060   3.686 -0.0868 -2.5391  0.0448
  389MOL0     H52514   3.227   2.884   4.239 -2.3437 -2.2699  1.9390
  389MOL0     H52515   3.384   2.725   4.165 -0.1240 -0.5167  1.8519
  390MOL0     O52516   2.303   3.014   7.570  0.3136 -0.0234  0.1523
  390MOL0     C52517   2.237   3.114   7.556 -1.0301  0.3125  0.5472
  390MOL0     O52518   2.209   3.208   7.645 -0.0953 -0.0268  0.1047
  390MOL0     C52519   2.283   3.202   7.761 -0.1060 -0.1873  0.0537
  390MOL0     C52520   2.254   3.111   7.865  0.2164  0.4699  0.1404
  390MOL0     C52521   2.328   3.101   7.986  0.4990  0.5259 -0.5462
  390MOL0     C52522   2.418   3.202   8.000  0.3982 -0.5384  0.0177
  390MOL0     O52523   2.478   3.220   8.125  0.5970  0.4824  0.4073
  390MOL0     C52524   2.386   3.234   8.240 -0.1933  0.5753  0.5313
  390MOL0     C52525   2.363   3.390   8.264 -0.5912  0.0730 -0.7035
  390MOL0     C52526   2.500   3.450   8.311  0.0641  0.6054 -0.2160
  390MOL0     C52527   2.483   3.516   8.456 -0.3613  1.3838 -0.2560
  390MOL0     C52528   2.611   3.537   8.532  0.1768  1.1910 -0.5132
  390MOL0     C52529   2.722   3.612   8.452 -0.2496 -0.3064  0.0863
  390MOL0     C52530   2.829   3.644   8.556  0.8099 -0.0726  0.0254
  390MOL0     C52531   2.933   3.726   8.492 -0.1113  0.3767  0.5215
  390MOL0     N52532   2.912   3.870   8.491 -0.0678 -0.6095  0.9029
  390MOL0     C52533   2.910   3.934   8.369  1.0737 -0.4377  0.4830
  390MOL0     C52534   2.882   4.060   8.409 -0.0086  0.1051  0.5907
  390MOL0     C52535   2.857   4.175   8.316 -0.3594  0.6811  0.3151
  390MOL0     C52536   2.983   4.269   8.330 -0.6370 -0.9102  1.3024
  390MOL0     C52537   2.986   4.390   8.232  0.5760 -0.7833 -0.1384
  390MOL0     C52538   2.890   4.495   8.290 -0.1382 -0.0825  1.0559
  390MOL0     O52539   2.870   4.615   8.201 -0.0193  0.8181 -0.3619
  390MOL0     C52540   2.741   4.664   8.195  0.0269 -0.5665  0.4660
  390MOL0     C52541   2.689   4.696   8.071  0.1273  0.5644 -0.6948
  390MOL0     C52542   2.550   4.725   8.054 -0.3575  0.3015 -0.0664
  390MOL0     C52543   2.501   4.734   7.916  0.6800  0.3039  0.8165
  390MOL0     C52544   2.468   4.736   8.172 -0.2316 -0.1728  0.2507
  390MOL0     C52545   2.325   4.789   8.169 -0.7133 -0.1395  0.3821
  390MOL0     O52546   2.274   4.817   8.058 -0.1131 -0.1446  0.3719
  390MOL0     C52547   2.150   4.888   8.054 -0.0046 -0.9755 -0.1146
  390MOL0     C52548   2.028   4.823   8.064 -0.3968 -0.1926 -0.1123
  390MOL0     C52549   1.914   4.894   8.076  0.3716 -0.0547 -0.2124
  390MOL0     C52550   1.924   5.033   8.097  0.1054 -0.3844  0.7625
  390MOL0     O52551   1.800   5.098   8.134  0.2780 -0.3775 -0.4217
  390MOL0     C52552   1.799   5.237   8.175 -0.4170  0.2896  0.6040
  390MOL0     C52553   1.856   5.256   8.317 -0.4560 -0.9154 -0.0093
  390MOL0     C52554   1.912   5.398   8.322 -0.4393  0.7970  1.1090
  390MOL0     C52555   2.034   5.394   8.420 -0.0715  0.1201 -0.1966
  390MOL0     C52556   2.068   5.537   8.466  0.3536  0.4972 -0.6961
  390MOL0     C52557   2.162   5.533   8.586  0.0093  0.1643  0.2909
  390MOL0     C52558   2.111   5.624   8.698  0.0981 -0.5445 -0.9948
  390MOL0     C52559   2.194   5.609   8.825 -0.3312  1.3046 -0.2585
  390MOL0    Cl52560   2.169   5.457   8.918  0.5363  0.7067  0.2804
  390MOL0     C52561   2.051   5.097   8.095 -0.6831 -0.9202 -0.5107
  390MOL0     C52562   2.164   5.026   8.066 -0.1950 -0.4201  0.5776
  390MOL0     O52563   2.269   4.803   8.279  0.3621 -0.4394 -0.4330
  390MOL0     C52564   2.524   4.708   8.294 -0.1372  0.4174  0.2605
  390MOL0     C52565   2.662   4.675   8.301 -0.7091  0.5423 -0.2614
  390MOL0     N52566   2.884   4.070   8.547  0.7273 -0.3026  0.4900
  390MOL0     N52567   2.905   3.951   8.598 -0.0590 -1.1365  0.4558
  390MOL0     C52568   2.456   3.296   7.901  0.7182  0.0775 -1.1060
  390MOL0     C52569   2.384   3.298   7.782  0.1974  0.2697 -0.6135
  390MOL0     C52570   2.167   3.140   7.424 -1.0786 -0.2505  0.2856
  390MOL0     C52571   2.192   3.056   7.315  1.3358  0.7508  0.2016
  390MOL0     C52572   2.135   3.075   7.181 -0.4827  0.1132  0.2835
  390MOL0     C52573   2.061   3.185   7.154 -0.4217  0.7229  0.5792
  390MOL0     O52574   2.008   3.224   7.035 -0.3719  0.2937  0.5766
  390MOL0     C52575   1.988   3.152   6.914 -0.0715  0.2413  0.7944
  390MOL0     C52576   2.115   3.146   6.818  0.1394 -0.0011 -0.9295
  390MOL0     C52577   2.088   3.050   6.709  0.0316 -0.8218 -1.0791
  390MOL0     C52578   2.094   2.901   6.758  0.6033 -0.1299  0.3535
  390MOL0     C52579   1.979   2.825   6.704  0.1014  0.5342 -0.4576
  390MOL0     C52580   1.881   2.757   6.675 -0.0463 -0.7815 -1.3383
  390MOL0     C52581   2.034   3.265   7.269 -0.5455 -0.8373  0.8001
  390MOL0     C52582   2.081   3.241   7.399  0.1609 -0.1625 -0.0454
  390MOL0     H52583   2.168   3.047   7.853 -1.3080  2.1760  1.4601
  390MOL0     H52584   2.285   3.033   8.059  0.0826 -0.5693 -1.7752
  390MOL0     H52585   2.283   3.199   8.226  0.6395 -2.6686  1.7893
  390MOL0     H52586   2.420   3.187   8.332 -0.9926 -0.2987  0.3943
  390MOL0     H52587   2.326   3.435   8.172 -2.3066  2.2211  0.9394
  390MOL0     H52588   2.285   3.401   8.340  2.9837 -0.1884  3.4042
  390MOL0     H52589   2.574   3.370   8.308 -1.7387 -1.1306 -2.1335
  390MOL0     H52590   2.539   3.525   8.240  2.7914 -0.4834 -0.0060
  390MOL0     H52591   2.449   3.616   8.425  1.0423  1.0681 -3.1702
  390MOL0     H52592   2.416   3.461   8.523  1.8797  0.3109  1.2006
  390MOL0     H52593   2.577   3.603   8.613 -2.1444  2.3575 -2.3223
  390MOL0     H52594   2.639   3.436   8.563  0.6708  0.8142 -2.1281
  390MOL0     H52595   2.767   3.551   8.373 -2.5343 -0.6958 -1.0092
  390MOL0     H52596   2.687   3.706   8.409  2.2374  0.6252 -0.0370
  390MOL0     H52597   2.780   3.711   8.627 -1.0572  2.0202 -2.9835
  390MOL0     H52598   2.873   3.551   8.591  2.0841 -1.5946 -4.8587
  390MOL0     H52599   2.970   3.688   8.396  1.8696  0.6337  1.1400
  390MOL0     H52600   3.020   3.718   8.559 -0.9980 -0.2959  1.6387
  390MOL0     H52601   2.913   3.890   8.269  1.0590 -1.5202  0.9422
  390MOL0     H52602   2.856   4.137   8.214  3.1952 -4.7928  1.9253
  390MOL0     H52603   2.765   4.223   8.351  0.8754  1.9570  1.9533
  390MOL0     H52604   3.064   4.204   8.294  0.2324  1.4642 -1.3262
  390MOL0     H52605   2.994   4.284   8.438  0.3486  0.1699  1.0716
  390MOL0     H52606   2.957   4.371   8.129  1.8900  2.4493 -1.2257
  390MOL0     H52607   3.093   4.412   8.235  0.3827  0.2708  2.8677
  390MOL0     H52608   2.953   4.528   8.373  0.0703 -1.9023  1.6680
  390MOL0     H52609   2.797   4.445   8.319  0.2027 -0.4515  1.5372
  390MOL0     H52610   2.740   4.702   7.975  0.8667 -0.3208 -0.3709
  390MOL0     H52611   2.396   4.704   7.906  0.4584  1.5451 -1.5644
  390MOL0     H52612   2.518   4.832   7.870  0.3908 -0.5240 -1.1525
  390MOL0     H52613   2.554   4.666   7.849 -3.1513 -0.6379 -1.5857
  390MOL0     H52614   2.022   4.715   8.067  0.4473 -0.2246  0.6532
  390MOL0     H52615   1.818   4.844   8.082 -0.3381  1.1508 -1.0314
  390MOL0     H52616   1.855   5.291   8.099 -0.7351 -1.0805 -0.6390
  390MOL0     H52617   1.695   5.270   8.169  0.1585  2.0101 -0.6851
  390MOL0     H52618   1.778   5.261   8.393 -0.1806 -1.5472  0.3223
  390MOL0     H52619   1.931   5.183   8.349  1.4195  0.2039 -1.6230
  390MOL0     H52620   1.833   5.466   8.355 -3.5061 -0.1616 -3.3877
  390MOL0     H52621   1.952   5.436   8.228 -1.2883 -0.4664  0.2020
  390MOL0     H52622   2.013   5.335   8.510  1.5307  0.7853  0.6432
  390MOL0     H52623   2.121   5.341   8.379 -1.1421 -2.9730  1.1883
  390MOL0     H52624   1.975   5.582   8.502  0.0238 -2.0740  2.1515
  390MOL0     H52625   2.133   5.577   8.388  2.9672 -2.7729 -0.4248
  390MOL0     H52626   2.197   5.442   8.635  2.3080  0.6844 -0.2716
  390MOL0     H52627   2.257   5.573   8.549  0.1460  1.2736  1.7608
  390MOL0     H52628   2.005   5.602   8.714 -0.3559  2.7366  1.6357
  390MOL0     H52629   2.113   5.730   8.669  0.2406  0.4119  2.1826
  390MOL0     H52630   2.178   5.697   8.889  1.8350  2.8924 -1.7425
  390MOL0     H52631   2.300   5.609   8.798 -0.1674 -2.9533 -0.2896
  390MOL0     H52632   2.048   5.206   8.095 -0.9457 -0.9231 -1.4430
  390MOL0     H52633   2.262   5.072   8.056  0.2082 -1.4738 -0.7330
  390MOL0     H52634   2.463   4.708   8.384 -0.1748  2.2944  0.2701
  390MOL0     H52635   2.708   4.635   8.392  3.5592  3.4821 -0.8395
  390MOL0     H52636   2.537   3.365   7.923 -1.0516  1.7201  0.6251
  390MOL0     H52637   2.399   3.368   7.701  1.4089 -0.2050 -0.8258
  390MOL0     H52638   2.259   2.971   7.314  1.2398  0.6036 -2.6625
  390MOL0     H52639   2.158   2.997   7.109  0.0473  0.2994  0.2451
  390MOL0     H52640   1.974   3.047   6.941  0.4174  0.0982  0.4971
  390MOL0     H52641   1.896   3.186   6.866  0.5088  1.1663  0.3226
  390MOL0     H52642   2.194   3.100   6.878 -0.7756 -0.9902 -0.4329
  390MOL0     H52643   2.142   3.247   6.784 -0.4482  0.7871  0.8273
  390MOL0     H52644   2.163   3.079   6.636  2.7456 -1.7886  1.1388
  390MOL0     H52645   1.993   3.071   6.660 -0.1902 -0.4712 -0.5213
  390MOL0     H52646   2.119   2.898   6.864  4.2983 -1.7978 -0.3854
  390MOL0     H52647   2.183   2.859   6.709  0.0773 -1.9034  0.8536
  390MOL0     H52648   1.788   2.712   6.645 -1.4925  1.7096 -0.9096
  390MOL0     H52649   1.963   3.346   7.258  0.0717 -0.3232  0.4956
  390MOL0     H52650   2.056   3.309   7.480  1.4117 -1.1780  1.2332
  391MOL0     O52651  11.458   6.890   9.135 -0.0266 -0.7401  0.2204
  391MOL0     C52652  11.410   7.001   9.117 -0.1617 -0.0584 -0.6965
  391MOL0     O52653  11.441   7.115   9.192  0.5373  1.1961 -0.2207
  391MOL0     C52654  11.504   7.103   9.309  0.3831  0.6165  0.5906
  391MOL0     C52655  11.643   7.079   9.308 -0.2546  0.9666 -0.4832
  391MOL0     C52656  11.722   7.080   9.419 -0.0250 -0.2790  0.4343
  391MOL0     C52657  11.669   7.131   9.537  0.1443  0.6513  0.6690
  391MOL0     O52658  11.757   7.137   9.637 -1.1896  0.9500 -0.2433
  391MOL0     C52659  11.776   7.259   9.699  0.8144  0.0414 -0.3455
  391MOL0     C52660  11.900   7.258   9.778 -0.2731 -1.2644 -0.7832
  391MOL0     C52661  12.026   7.244   9.691  0.4401 -0.2821 -0.1948
  391MOL0     C52662  12.154   7.241   9.790 -0.8796  0.7216  0.4085
  391MOL0     C52663  12.286   7.244   9.713 -0.2100  0.3034 -0.1409
  391MOL0     C52664  12.411   7.292   9.796 -0.1970 -0.1137  0.4297
  391MOL0     C52665  12.520   7.310   9.690 -0.4585  1.4329  0.7861
  391MOL0     C52666  12.667   7.311   9.744  0.3235  0.3666  0.0015
  391MOL0     N52667  12.709   7.434   9.812  0.2876 -0.2989  0.1833
  391MOL0     C52668  12.696   7.561   9.761  0.1371 -0.3182 -0.3577
  391MOL0     C52669  12.781   7.639   9.833  0.1475 -0.0078  0.2034
  391MOL0     C52670  12.806   7.786   9.816 -0.6731 -0.7674  0.3917
  391MOL0     C52671  12.813   7.840   9.675 -0.7377 -0.4202 -0.9698
  391MOL0     C52672  12.931   7.807   9.593  0.2033 -0.4200  0.3441
  391MOL0     C52673  12.946   7.660   9.562 -0.1643  0.3631 -0.2345
  391MOL0     O52674  12.846   7.607   9.475  0.2199 -0.1870 -0.1777
  391MOL0     C52675  12.873   7.490   9.404  0.9265 -0.8297  0.6083
  391MOL0     C52676  12.974   7.400   9.445  0.5831 -0.4621 -0.1842
  391MOL0     C52677  12.997   7.281   9.374  0.1372  0.6609  1.2381
  391MOL0     C52678  13.130   7.211   9.397 -0.9592  0.6647 -0.1076
  391MOL0     C52679  12.911   7.246   9.271 -0.2477  0.1107  0.3157
  391MOL0     C52680  12.919   7.118   9.189  0.2617  0.0562 -0.3062
  391MOL0     O52681  12.872   7.121   9.055 -0.0523 -0.8237 -0.6676
  391MOL0     C52682  12.850   7.007   8.974 -0.4348 -0.2337 -0.4501
  391MOL0     C52683  12.839   7.023   8.835  0.6819 -0.8429 -0.1663
  391MOL0     C52684  12.834   6.923   8.739 -0.6420  0.8196 -0.4105
  391MOL0     C52685  12.816   6.788   8.788 -0.1834 -0.1775 -0.7634
  391MOL0     O52686  12.793   6.675   8.710 -0.0212  0.1133  0.2282
  391MOL0     C52687  12.817   6.685   8.571 -1.0726 -0.3293  0.2720
  391MOL0     C52688  12.766   6.553   8.509  0.2282 -0.6502  0.0128
  391MOL0     C52689  12.775   6.569   8.358 -0.9169 -0.5740 -0.8057
  391MOL0     C52690  12.724   6.445   8.281  0.1902 -0.7422 -0.9370
  391MOL0     C52691  12.769   6.453   8.130  0.5532 -0.0922  0.8008
  391MOL0     C52692  12.836   6.319   8.078 -0.8677 -0.0541 -1.0610
  391MOL0     C52693  12.923   6.341   7.956 -0.0010  0.1202  0.1847
  391MOL0     C52694  12.993   6.210   7.939 -1.1099 -0.4887  0.3374
  391MOL0    Cl52695  13.072   6.198   7.772 -0.0230  0.0340 -0.0648
  391MOL0     C52696  12.832   6.767   8.929  0.0309  0.4382 -0.3175
  391MOL0     C52697  12.850   6.868   9.022  0.8595 -0.9142  0.5592
  391MOL0     O52698  12.956   7.022   9.246  0.1956 -0.2005 -0.0427
  391MOL0     C52699  12.808   7.332   9.233  0.2254  0.1329  0.5271
  391MOL0     C52700  12.788   7.448   9.307  0.3714  0.8412  0.0393
  391MOL0     N52701  12.845   7.557   9.927  0.5726 -0.1089 -0.7159
  391MOL0     N52702  12.798   7.437   9.919  0.1496  0.9038  0.0235
  391MOL0     C52703  11.532   7.162   9.544  0.3883  0.5930 -1.0417
  391MOL0     C52704  11.449   7.142   9.430 -0.0525 -0.7231 -0.6414
  391MOL0     C52705  11.298   7.020   9.026 -0.5027 -0.4291  0.5287
  391MOL0     C52706  11.254   6.932   8.933  1.3303  0.1767  1.2619
  391MOL0     C52707  11.153   6.957   8.835 -0.1574  1.3455  0.4439
  391MOL0     C52708  11.089   7.075   8.837 -0.0725 -0.4474 -0.4551
  391MOL0     O52709  10.995   7.096   8.737 -0.1787 -0.1783  0.5366
  391MOL0     C52710  10.897   7.205   8.746  0.5853  0.6610  0.4769
  391MOL0     C52711  10.884   7.253   8.599  0.6277 -0.6695 -0.4446
  391MOL0     C52712  11.011   7.342   8.561 -0.0872  0.6806  0.0498
  391MOL0     C52713  11.007   7.420   8.432  0.8308 -0.0266 -1.2384
  391MOL0     C52714  11.013   7.334   8.314  1.5781 -0.8789  0.4382
  391MOL0     C52715  11.008   7.268   8.211 -0.1137 -0.2988  0.0472
  391MOL0     C52716  11.126   7.175   8.930 -0.2234  0.1780  0.5847
  391MOL0     C52717  11.239   7.151   9.011  1.1182 -0.3918  0.7261
  391MOL0     H52718  11.669   7.046   9.208 -0.6861  2.4162 -1.0988
  391MOL0     H52719  11.822   7.039   9.422  0.2539  0.4803  2.3182
  391MOL0     H52720  11.791   7.343   9.631  0.5011  0.3529 -0.0336
  391MOL0     H52721  11.687   7.287   9.757  0.5688  1.0026 -1.1529
  391MOL0     H52722  11.911   7.358   9.821 -1.3994 -1.5170  0.1456
  391MOL0     H52723  11.890   7.183   9.857 -1.8557 -0.7512 -0.4557
  391MOL0     H52724  12.021   7.147   9.641  1.7374  0.1074 -1.1288
  391MOL0     H52725  12.034   7.328   9.620 -1.0590  2.0175  2.1763
  391MOL0     H52726  12.149   7.332   9.850  2.4300  0.3264  1.4871
  391MOL0     H52727  12.153   7.149   9.849 -0.4551  0.3494 -0.1445
  391MOL0     H52728  12.315   7.148   9.670  4.0918  1.8206 -1.1768
  391MOL0     H52729  12.277   7.307   9.624 -0.5920  0.4673  0.0090
  391MOL0     H52730  12.378   7.384   9.845 -3.2806  1.3639 -3.7888
  391MOL0     H52731  12.433   7.203   9.855  0.2600 -2.0488 -2.4297
  391MOL0     H52732  12.509   7.227   9.620 -0.7357  0.1888  2.2697
  391MOL0     H52733  12.512   7.407   9.638  2.5122  1.0167 -0.6544
  391MOL0     H52734  12.726   7.303   9.652  0.5955 -0.3297  0.2350
  391MOL0     H52735  12.673   7.224   9.810 -0.4960  0.2639 -0.0460
  391MOL0     H52736  12.626   7.594   9.686  3.7031  1.3967 -3.1847
  391MOL0     H52737  12.724   7.839   9.866 -0.3359  0.4117 -0.2841
  391MOL0     H52738  12.896   7.817   9.869 -0.1263 -1.2139 -0.2641
  391MOL0     H52739  12.812   7.949   9.691 -1.3450 -0.8661  3.3676
  391MOL0     H52740  12.721   7.816   9.621  0.7113 -2.4281 -2.6599
  391MOL0     H52741  13.017   7.834   9.655  1.1836 -0.8485 -0.7975
  391MOL0     H52742  12.932   7.873   9.505 -3.8139  3.3818  2.7494
  391MOL0     H52743  12.968   7.605   9.654  5.7439 -0.7475 -1.8775
  391MOL0     H52744  13.047   7.656   9.518  1.0581  0.0999  2.4029
  391MOL0     H52745  13.031   7.426   9.534  0.9315  1.8158 -1.0028
  391MOL0     H52746  13.210   7.237   9.328  2.1906  1.6436  3.5605
  391MOL0     H52747  13.176   7.233   9.494  5.0927  1.7642 -2.7652
  391MOL0     H52748  13.105   7.104   9.393 -2.9728  1.1277 -2.0269
  391MOL0     H52749  12.843   7.125   8.798  2.6371 -0.7845  0.1088
  391MOL0     H52750  12.831   6.953   8.635 -0.0141 -0.7098 -0.8923
  391MOL0     H52751  12.767   6.774   8.533  2.1901  0.7290 -2.0119
  391MOL0     H52752  12.922   6.709   8.550 -0.1620 -4.0385 -0.0665
  391MOL0     H52753  12.837   6.474   8.533  0.8971 -0.3548 -0.9296
  391MOL0     H52754  12.670   6.523   8.552  0.7725 -2.3186  0.1393
  391MOL0     H52755  12.882   6.579   8.338 -0.5850 -1.0188  0.6055
  391MOL0     H52756  12.725   6.659   8.321 -1.0717 -1.4275 -2.8054
  391MOL0     H52757  12.764   6.352   8.322 -1.9521 -0.2157  2.8782
  391MOL0     H52758  12.614   6.439   8.280  0.0810  0.8354 -0.8060
  391MOL0     H52759  12.856   6.517   8.113  0.2925  0.2589  0.7682
  391MOL0     H52760  12.678   6.488   8.079 -0.5619  1.6127  3.6987
  391MOL0     H52761  12.894   6.288   8.166 -1.7249  0.3510 -0.3343
  391MOL0     H52762  12.763   6.238   8.065 -0.2340 -0.9076  0.4125
  391MOL0     H52763  13.000   6.417   7.971 -0.9760  0.5852  3.8049
  391MOL0     H52764  12.857   6.366   7.872  2.8452  1.5017 -1.7981
  391MOL0     H52765  12.916   6.133   7.926 -0.1241 -1.2761 -1.0314
  391MOL0     H52766  13.063   6.209   8.023 -0.0030  0.0399 -0.5567
  391MOL0     H52767  12.814   6.668   8.970 -1.7953  1.0224  0.4131
  391MOL0     H52768  12.849   6.838   9.126  1.0209  0.7832  1.0758
  391MOL0     H52769  12.745   7.307   9.148 -0.1998 -1.2940  1.2172
  391MOL0     H52770  12.701   7.513   9.297 -1.3619 -1.1334  1.4147
  391MOL0     H52771  11.496   7.193   9.642 -1.5251  0.6867 -1.7242
  391MOL0     H52772  11.341   7.155   9.438  0.1468 -0.1143  3.3906
  391MOL0     H52773  11.289   6.829   8.936  1.1883 -0.0709 -2.0475
  391MOL0     H52774  11.119   6.881   8.766 -2.6712  0.2771  2.6731
  391MOL0     H52775  10.811   7.145   8.778  2.9921 -3.4218  0.0359
  391MOL0     H52776  10.925   7.275   8.825  1.2548  0.6795  0.2318
  391MOL0     H52777  10.791   7.308   8.585 -0.7631 -2.7108  0.3697
  391MOL0     H52778  10.873   7.161   8.542  2.6707 -2.0543  1.2290
  391MOL0     H52779  11.097   7.275   8.564 -0.0857  0.6794 -0.0065
  391MOL0     H52780  11.018   7.419   8.638  1.4839  1.1206 -0.4989
  391MOL0     H52781  11.101   7.476   8.436  1.4285 -0.9298 -2.1275
  391MOL0     H52782  10.920   7.485   8.427 -1.3258 -2.6801 -0.7221
  391MOL0     H52783  10.994   7.206   8.125  0.1703 -1.8161  1.0465
  391MOL0     H52784  11.094   7.278   8.919 -2.6404 -0.5055  0.6667
  391MOL0     H52785  11.275   7.230   9.076 -0.1301  2.9049 -2.2722
  392MOL0     O52786  10.124   7.316   4.686 -0.8940  0.3984  0.1704
  392MOL0     C52787  10.146   7.255   4.582 -0.3143  0.1923 -0.1225
  392MOL0     O52788  10.242   7.167   4.564 -0.5858  0.0970 -0.6655
  392MOL0     C52789  10.303   7.122   4.685  0.4879  0.9417  0.3686
  392MOL0     C52790  10.229   7.045   4.784 -0.6647 -0.7538  0.3504
  392MOL0     C52791  10.295   7.006   4.903  0.2541  0.2466 -0.0838
  392MOL0     C52792  10.430   7.047   4.920  0.0423 -0.3644 -0.7009
  392MOL0     O52793  10.483   7.020   5.050  0.2299  0.4809  0.3869
  392MOL0     C52794  10.607   6.951   5.050 -0.3017 -0.2233  0.3129
  392MOL0     C52795  10.707   7.027   5.130 -0.2625 -0.0867  0.4558
  392MOL0     C52796  10.673   7.026   5.280 -0.1603  0.0118 -0.2646
  392MOL0     C52797  10.786   7.052   5.374  0.4552 -0.5746  0.0026
  392MOL0     C52798  10.755   7.036   5.516 -0.5043  0.5358  0.4670
  392MOL0     C52799  10.854   7.090   5.612 -0.1761  0.0837  0.0163
  392MOL0     C52800  10.832   7.064   5.759  0.0693  0.7601  0.2214
  392MOL0     C52801  10.876   6.921   5.793  0.5988 -0.2370  0.0921
  392MOL0     N52802  10.865   6.876   5.933  0.3818 -0.4540  0.3685
  392MOL0     C52803  10.896   6.750   5.970 -0.2627  0.2854  0.3193
  392MOL0     C52804  10.883   6.747   6.104 -0.6948 -0.0533  1.0202
  392MOL0     C52805  10.906   6.636   6.195  0.4160 -0.3319 -0.3253
  392MOL0     C52806  11.059   6.626   6.231  1.0654  0.4875  0.4784
  392MOL0     C52807  11.115   6.749   6.299 -1.0571  0.6163 -0.7621
  392MOL0     C52808  11.256   6.729   6.369 -0.7545 -0.2445  0.0663
  392MOL0     O52809  11.357   6.695   6.271  0.4730  0.3354  0.5630
  392MOL0     C52810  11.354   6.562   6.227 -0.4878  0.5950  0.4805
  392MOL0     C52811  11.324   6.446   6.292 -0.0953 -0.2609  0.1947
  392MOL0     C52812  11.307   6.310   6.234 -0.3378 -0.8235  0.0593
  392MOL0     C52813  11.284   6.192   6.336 -0.0159 -0.3792  0.1021
  392MOL0     C52814  11.341   6.297   6.105 -0.8720 -0.4969 -0.0090
  392MOL0     C52815  11.326   6.173   6.022  2.0191  0.1310  0.7996
  392MOL0     O52816  11.240   6.085   6.061  0.1211  1.0245  0.1286
  392MOL0     C52817  11.219   5.971   5.987 -0.9215  0.3162 -0.5138
  392MOL0     C52818  11.291   5.855   6.006 -1.2642 -0.4748 -1.0950
  392MOL0     C52819  11.271   5.737   5.928 -0.7299 -0.2506 -0.0108
  392MOL0     C52820  11.169   5.734   5.829 -0.2926 -0.4835 -0.2946
  392MOL0     O52821  11.122   5.628   5.765  0.6138  0.0296  0.8430
  392MOL0     C52822  11.204   5.518   5.766  0.6119 -0.6244  1.0049
  392MOL0     C52823  11.170   5.427   5.643  0.6799 -0.0175 -0.0503
  392MOL0     C52824  11.240   5.478   5.517 -1.2374  0.5974 -0.3798
  392MOL0     C52825  11.194   5.618   5.464  0.6595 -0.7073  0.4960
  392MOL0     C52826  11.248   5.657   5.328 -0.4316 -0.6251 -0.0379
  392MOL0     C52827  11.236   5.814   5.305  0.3084  0.6115  0.2861
  392MOL0     C52828  11.329   5.855   5.193 -0.7019  0.4171  0.7587
  392MOL0     C52829  11.279   5.810   5.055 -0.2390  0.0157 -0.4294
  392MOL0    Cl52830  11.383   5.877   4.937  0.2390 -0.5310 -0.2196
  392MOL0     C52831  11.107   5.852   5.802 -0.0379  0.1024 -1.1303
  392MOL0     C52832  11.127   5.959   5.882 -0.5594  0.3051 -0.6655
  392MOL0     O52833  11.418   6.165   5.937  0.5420 -0.0250  0.2313
  392MOL0     C52834  11.368   6.414   6.040  0.2951  0.1092  0.1308
  392MOL0     C52835  11.384   6.539   6.098 -0.1916 -0.5338 -0.2890
  392MOL0     N52836  10.853   6.874   6.144 -0.2110 -0.2249  0.7650
  392MOL0     N52837  10.819   6.943   6.040  1.0843 -0.1106  0.3431
  392MOL0     C52838  10.499   7.128   4.826 -0.3216 -0.5179  1.3948
  392MOL0     C52839  10.440   7.151   4.703  0.4214 -0.4292  0.7160
  392MOL0     C52840  10.077   7.296   4.466 -0.6838 -0.3188 -0.1884
  392MOL0     C52841  10.005   7.421   4.464  0.6155  0.4243 -0.2438
  392MOL0     C52842   9.936   7.455   4.354 -0.8283  0.8297  0.6838
  392MOL0     C52843   9.937   7.369   4.245  0.1721  0.3382  0.1063
  392MOL0     O52844   9.870   7.408   4.132 -0.6511 -0.4570 -0.3352
  392MOL0     C52845   9.934   7.372   4.012 -0.2144 -0.3154  0.8950
  392MOL0     C52846   9.876   7.471   3.904  1.8351  0.2803  0.2543
  392MOL0     C52847   9.719   7.444   3.878 -0.3814  0.1451 -0.3550
  392MOL0     C52848   9.654   7.551   3.801 -0.6079 -0.0986  1.2530
  392MOL0     C52849   9.510   7.559   3.833  0.7748  0.0516 -0.3663
  392MOL0     C52850   9.390   7.561   3.825 -0.3666  0.7716 -0.5433
  392MOL0     C52851   9.997   7.239   4.255 -0.9337 -0.8061  0.5368
  392MOL0     C52852  10.073   7.210   4.365 -0.5769  0.4691  0.9547
  392MOL0     H52853  10.129   7.010   4.760  0.5530 -3.5065 -1.1556
  392MOL0     H52854  10.241   6.948   4.977  0.2511  0.5148  0.1248
  392MOL0     H52855  10.586   6.851   5.087  0.9156 -1.5555 -2.3331
  392MOL0     H52856  10.648   6.932   4.950 -1.3800 -3.6865  0.4186
  392MOL0     H52857  10.807   6.986   5.114 -0.5327 -0.0499 -1.6119
  392MOL0     H52858  10.704   7.133   5.100 -1.7358 -0.5499 -1.1458
  392MOL0     H52859  10.602   7.108   5.289  1.8417  1.8129 -0.1974
  392MOL0     H52860  10.630   6.929   5.306  0.3559  0.6594  3.6068
  392MOL0     H52861  10.861   6.979   5.340  0.0030 -0.7857 -0.5648
  392MOL0     H52862  10.831   7.150   5.357  0.4225  0.4694  4.6360
  392MOL0     H52863  10.668   7.102   5.526 -2.0455 -0.9269 -2.1956
  392MOL0     H52864  10.730   6.932   5.539 -1.1506  0.9032  1.4701
  392MOL0     H52865  10.958   7.065   5.589  0.3643 -0.2499  2.5360
  392MOL0     H52866  10.842   7.198   5.602  2.0467  0.1883 -3.2591
  392MOL0     H52867  10.894   7.117   5.832  2.0719 -0.1062 -0.7465
  392MOL0     H52868  10.724   7.073   5.772 -0.2706 -0.5662 -1.3637
  392MOL0     H52869  10.981   6.912   5.762  1.1379 -2.4245  2.2854
  392MOL0     H52870  10.812   6.849   5.742  1.6092  0.1532 -1.8221
  392MOL0     H52871  10.948   6.674   5.912  1.7332  0.8409  1.2851
  392MOL0     H52872  10.861   6.658   6.292  3.5930  1.9378  0.7905
  392MOL0     H52873  10.869   6.540   6.156 -0.2041 -1.5896  3.0500
  392MOL0     H52874  11.105   6.606   6.134 -2.3874 -1.2589 -0.9769
  392MOL0     H52875  11.050   6.534   6.289 -0.4966 -1.0330 -1.9946
  392MOL0     H52876  11.047   6.797   6.369 -0.1994  3.5296 -1.7631
  392MOL0     H52877  11.134   6.819   6.216 -0.7460 -0.1797 -1.3821
  392MOL0     H52878  11.259   6.661   6.454  1.0221  1.2424  1.2639
  392MOL0     H52879  11.285   6.821   6.420 -0.9186 -1.0803  1.7303
  392MOL0     H52880  11.293   6.459   6.395 -1.7998  5.4556 -0.6821
  392MOL0     H52881  11.218   6.205   6.423 -0.8303 -0.0772 -0.5460
  392MOL0     H52882  11.250   6.105   6.278 -0.3349  0.1131 -0.4656
  392MOL0     H52883  11.382   6.161   6.373 -0.2458 -0.5844  0.5452
  392MOL0     H52884  11.376   5.843   6.073 -0.3845  0.7166 -1.9576
  392MOL0     H52885  11.330   5.651   5.959 -0.0539  0.1016 -0.2891
  392MOL0     H52886  11.312   5.532   5.758  0.4668 -0.4851 -1.3812
  392MOL0     H52887  11.172   5.454   5.849 -0.6014 -3.6264 -1.5937
  392MOL0     H52888  11.216   5.329   5.659 -1.2501 -0.5497  3.2261
  392MOL0     H52889  11.064   5.434   5.619  0.4463 -0.6627  0.7425
  392MOL0     H52890  11.219   5.407   5.437 -4.8628  0.3134  0.6133
  392MOL0     H52891  11.348   5.474   5.532 -1.3472 -1.1666  0.2166
  392MOL0     H52892  11.085   5.619   5.455  0.6514  0.1419  0.6457
  392MOL0     H52893  11.208   5.699   5.536 -2.5023  0.0047  0.4330
  392MOL0     H52894  11.199   5.600   5.249 -0.7951  1.7003 -1.6039
  392MOL0     H52895  11.357   5.641   5.326 -0.5861 -1.7253 -1.7922
  392MOL0     H52896  11.134   5.839   5.277  0.8918  0.9064 -1.7292
  392MOL0     H52897  11.261   5.886   5.383  0.5595  0.8418 -0.0007
  392MOL0     H52898  11.433   5.823   5.203 -0.2505  2.0652  1.5590
  392MOL0     H52899  11.327   5.964   5.193  0.3871  0.4940 -1.4835
  392MOL0     H52900  11.173   5.836   5.056 -1.9126 -5.2404  2.9093
  392MOL0     H52901  11.285   5.702   5.039  0.8813 -0.0955  0.5403
  392MOL0     H52902  11.030   5.853   5.726 -1.6130 -6.2010 -0.1675
  392MOL0     H52903  11.072   6.050   5.859  1.9424  1.4607 -2.5526
  392MOL0     H52904  11.387   6.401   5.934  0.6577 -0.7331  0.2912
  392MOL0     H52905  11.412   6.628   6.042 -1.7672  2.3834  3.1786
  392MOL0     H52906  10.596   7.168   4.857  1.2920 -0.7918 -2.6794
  392MOL0     H52907  10.496   7.206   4.629  1.2451 -1.1631  0.7761
  392MOL0     H52908  10.009   7.479   4.555 -0.7340  0.5660 -0.2464
  392MOL0     H52909   9.887   7.551   4.345  0.0207  1.2491  0.4018
  392MOL0     H52910  10.042   7.383   4.023 -0.4543  2.1018  1.2765
  392MOL0     H52911   9.904   7.268   3.991 -2.4841  0.0143  2.1767
  392MOL0     H52912   9.929   7.450   3.811  0.3159 -2.6745 -0.0691
  392MOL0     H52913   9.901   7.574   3.931  0.7556  1.3946 -2.6499
  392MOL0     H52914   9.667   7.444   3.975  0.2169  2.0939  0.0019
  392MOL0     H52915   9.707   7.348   3.827 -0.1358  1.1630 -2.3859
  392MOL0     H52916   9.658   7.545   3.692 -0.1226  2.0086  1.0979
  392MOL0     H52917   9.693   7.653   3.814 -2.8115  1.2896 -1.7365
  392MOL0     H52918   9.283   7.574   3.820 -0.2390  1.9225 -0.6018
  392MOL0     H52919   9.995   7.162   4.179 -1.9192  0.2032 -0.5000
  392MOL0     H52920  10.129   7.117   4.371  0.9143  1.2159 -0.5962
  393MOL0     O52921   1.020   9.544   5.850 -0.4257  0.1300 -0.5662
  393MOL0     C52922   1.104   9.611   5.787  0.2153  0.1212 -0.1537
  393MOL0     O52923   1.130   9.603   5.651 -0.8246  0.9400  0.5408
  393MOL0     C52924   1.061   9.536   5.557 -0.1972  0.8470 -0.3956
  393MOL0     C52925   0.931   9.482   5.572 -0.1844  0.5396 -0.9937
  393MOL0     C52926   0.861   9.407   5.474  0.5498 -1.0147 -0.1325
  393MOL0     C52927   0.938   9.374   5.356  0.1497 -0.9947  0.9776
  393MOL0     O52928   0.901   9.282   5.263  0.3309 -0.2115 -0.1711
  393MOL0     C52929   0.766   9.285   5.217 -0.4214 -0.3801 -0.8331
  393MOL0     C52930   0.678   9.169   5.279 -0.1376 -0.2452  0.1111
  393MOL0     C52931   0.524   9.175   5.236  0.1675  0.8100  0.0688
  393MOL0     C52932   0.446   9.053   5.281  0.8992  0.3505  0.5759
  393MOL0     C52933   0.298   9.069   5.236  0.2676  0.2290 -0.9554
  393MOL0     C52934   0.212   8.963   5.305 -0.1850  0.2553 -0.6703
  393MOL0     C52935   0.061   8.950   5.266 -0.2585 -0.1820 -0.0273
  393MOL0     C52936   0.019   8.985   5.122 -0.6175  0.5884 -0.7841
  393MOL0     N52937   0.017   9.119   5.072 -0.4780  0.6086 -0.2742
  393MOL0     C52938   0.074   9.160   4.948 -0.1914 -1.0025  0.6538
  393MOL0     C52939   0.056   9.293   4.937  0.1872 -0.9162 -0.5609
  393MOL0     C52940   0.108   9.378   4.826  0.1443 -0.1613 -0.0070
  393MOL0     C52941   0.268   9.395   4.839  0.1591 -0.0786  0.5711
  393MOL0     C52942   0.349   9.415   4.711 -0.4171  0.9079 -0.0963
  393MOL0     C52943   0.304   9.552   4.660 -0.0982  0.4769 -0.0001
  393MOL0     O52944   0.381   9.596   4.541 -0.4453 -0.6800  0.0212
  393MOL0     C52945   0.336   9.689   4.444  1.2723 -0.3098 -0.3066
  393MOL0     C52946   0.400   9.705   4.319 -0.1270  0.0579  0.0844
  393MOL0     C52947   0.343   9.774   4.210 -0.5858 -1.0451 -0.2365
  393MOL0     C52948   0.435   9.774   4.087 -0.0181  0.1216  0.7058
  393MOL0     C52949   0.223   9.846   4.228  0.6007  0.0007  0.6465
  393MOL0     C52950   0.151   9.937   4.126 -0.1228 -0.1551 -0.8969
  393MOL0     O52951   0.023   9.951   4.159  0.5155  0.2558  0.4114
  393MOL0     C52952  -0.072  10.019   4.090  0.4243 -0.5316  0.0962
  393MOL0     C52953  -0.040  10.122   3.994 -0.2935  0.1623 -0.1599
  393MOL0     C52954  -0.139  10.184   3.929 -0.3649  0.3627  0.5110
  393MOL0     C52955  -0.278  10.158   3.958 -0.3328 -0.6335  0.3543
  393MOL0     O52956  -0.372  10.224   3.877 -0.0519  0.7356 -0.6721
  393MOL0     C52957  -0.431  10.148   3.771 -0.4388  0.0889 -0.0967
  393MOL0     C52958  -0.504  10.235   3.670  0.0716  0.3875 -0.3479
  393MOL0     C52959  -0.524  10.158   3.536  0.3040  0.5936 -0.5852
  393MOL0     C52960  -0.600  10.242   3.435  0.1771 -0.5061 -0.1393
  393MOL0     C52961  -0.585  10.214   3.297  0.7454  0.6464  0.0637
  393MOL0     C52962  -0.678  10.308   3.209  0.0642 -0.3193 -0.0174
  393MOL0     C52963  -0.672  10.258   3.068  0.4674 -0.6809  1.1670
  393MOL0     C52964  -0.783  10.318   2.982  0.4212  1.0457  0.1283
  393MOL0    Cl52965  -0.768  10.505   2.978  0.3693  0.2681  0.2706
  393MOL0     C52966  -0.305  10.066   4.063 -0.3124 -0.1042  0.2264
  393MOL0     C52967  -0.205   9.993   4.118 -0.2673  0.1650 -0.5078
  393MOL0     O52968   0.213   9.984   4.032 -0.4158 -0.2822 -0.7976
  393MOL0     C52969   0.154   9.842   4.357  0.1832  0.7722  0.2983
  393MOL0     C52970   0.203   9.753   4.457 -1.0749 -0.4486  0.6350
  393MOL0     N52971  -0.023   9.328   5.044 -0.5448  0.6452 -0.1441
  393MOL0     N52972  -0.042   9.226   5.122 -0.2520 -0.5808  0.6470
  393MOL0     C52973   1.064   9.425   5.339 -0.0157 -1.2101 -0.3467
  393MOL0     C52974   1.123   9.508   5.438 -0.0521 -0.5378 -0.3789
  393MOL0     C52975   1.191   9.694   5.876  0.0773 -0.7856  0.1064
  393MOL0     C52976   1.283   9.786   5.813  0.5104  0.4378  0.3959
  393MOL0     C52977   1.361   9.869   5.886  0.0235  0.3183  0.9307
  393MOL0     C52978   1.350   9.875   6.025 -0.2568  0.2963 -0.1751
  393MOL0     O52979   1.431   9.949   6.106 -0.7367  0.0241  0.2941
  393MOL0     C52980   1.555  10.014   6.060  0.9180 -0.0008  0.3622
  393MOL0     C52981   1.508  10.150   6.004 -0.9710  0.0957  0.1049
  393MOL0     C52982   1.624  10.232   5.948  0.5610  0.0898 -0.5037
  393MOL0     C52983   1.638  10.187   5.792 -0.6747  0.3539 -0.5454
  393MOL0     C52984   1.754  10.244   5.712  0.3412 -0.0627 -0.5221
  393MOL0     C52985   1.837  10.285   5.637  1.1003  0.7012 -0.1418
  393MOL0     C52986   1.256   9.798   6.089  0.8122  0.6560  0.1129
  393MOL0     C52987   1.171   9.707   6.011  0.5084 -0.4191 -1.0170
  393MOL0     H52988   0.883   9.493   5.669 -0.1599 -2.6902 -0.4933
  393MOL0     H52989   0.760   9.368   5.480 -0.0098  0.3478 -0.3104
  393MOL0     H52990   0.734   9.382   5.256  3.9522  0.5547  1.1099
  393MOL0     H52991   0.768   9.283   5.108  1.5023 -2.1201 -0.8325
  393MOL0     H52992   0.708   9.066   5.260  0.0685 -0.1983  0.1700
  393MOL0     H52993   0.690   9.169   5.388  2.5987 -1.9881 -0.1060
  393MOL0     H52994   0.476   9.264   5.278 -1.1528  0.8434 -1.4437
  393MOL0     H52995   0.536   9.199   5.130 -1.0129 -0.9739 -0.5020
  393MOL0     H52996   0.480   8.964   5.227 -0.2370  0.9540 -1.2499
  393MOL0     H52997   0.471   9.040   5.387  1.6706 -0.0812  0.3470
  393MOL0     H52998   0.260   9.166   5.267  0.5936  1.5645 -4.2698
  393MOL0     H52999   0.290   9.067   5.126  0.7752 -4.8560 -1.1543
  393MOL0     H53000   0.252   8.865   5.277  1.5259  1.2312 -1.8668
  393MOL0     H53001   0.221   8.951   5.413 -2.9574 -1.0523 -0.4839
  393MOL0     H53002   0.023   8.850   5.288 -1.0949 -0.8822 -3.9181
  393MOL0     H53003   0.003   9.023   5.324  0.2920  0.1732  0.0847
  393MOL0     H53004  -0.083   8.948   5.136  0.2281 -1.6823 -0.2027
  393MOL0     H53005   0.074   8.920   5.054 -1.3448 -2.1852  1.1181
  393MOL0     H53006   0.116   9.100   4.868  1.1583  2.7916 -1.7437
  393MOL0     H53007   0.091   9.330   4.729  1.0702  0.3476 -0.4389
  393MOL0     H53008   0.058   9.475   4.827  1.5211  0.5632  1.1893
  393MOL0     H53009   0.307   9.306   4.890  0.2029 -0.9586 -0.9280
  393MOL0     H53010   0.283   9.477   4.910  0.0767 -0.1888  0.7166
  393MOL0     H53011   0.338   9.329   4.644 -1.0244 -0.1701  1.3455
  393MOL0     H53012   0.455   9.421   4.734 -0.8234  2.6914  1.5744
  393MOL0     H53013   0.322   9.629   4.736  0.6142  0.2088  0.1086
  393MOL0     H53014   0.198   9.564   4.635 -0.5204  6.7600  2.7690
  393MOL0     H53015   0.493   9.652   4.302  0.1420 -0.1794  2.1101
  393MOL0     H53016   0.505   9.857   4.100 -0.6391  1.0916 -1.6221
  393MOL0     H53017   0.485   9.677   4.074 -1.7446 -0.9920  1.9133
  393MOL0     H53018   0.392   9.794   3.988 -0.6652 -1.8791  0.5307
  393MOL0     H53019   0.060  10.158   3.970  1.2799 -1.7201  2.9378
  393MOL0     H53020  -0.107  10.255   3.852 -2.9143  0.7266 -0.3105
  393MOL0     H53021  -0.354  10.092   3.717 -2.0863 -2.6375  0.1680
  393MOL0     H53022  -0.493  10.070   3.817  0.1533 -0.3623 -0.0514
  393MOL0     H53023  -0.600  10.278   3.703  0.6451  0.5122  1.2717
  393MOL0     H53024  -0.433  10.319   3.665  1.8351 -0.9886  0.5490
  393MOL0     H53025  -0.572  10.060   3.548 -0.0657  0.9189  0.8395
  393MOL0     H53026  -0.423  10.135   3.499  0.4822 -2.6562  1.4845
  393MOL0     H53027  -0.703  10.224   3.466  0.6558 -2.1281  0.6268
  393MOL0     H53028  -0.562  10.341   3.462 -1.2440 -0.1210  0.5568
  393MOL0     H53029  -0.610  10.108   3.282 -0.7062  0.8266  1.0135
  393MOL0     H53030  -0.482  10.212   3.261  0.7191 -1.8978 -0.0284
  393MOL0     H53031  -0.779  10.302   3.251  1.2250  0.2484  3.0581
  393MOL0     H53032  -0.656  10.414   3.221 -3.1262  0.4140  0.1393
  393MOL0     H53033  -0.687  10.150   3.058  3.1429 -0.9603 -1.3844
  393MOL0     H53034  -0.572  10.280   3.028 -0.5026 -0.3046 -1.2676
  393MOL0     H53035  -0.878  10.287   3.026  0.2955  0.8726 -0.2627
  393MOL0     H53036  -0.778  10.292   2.876 -1.4016  1.3281 -0.0591
  393MOL0     H53037  -0.407  10.042   4.093  0.4974  0.7230  4.0792
  393MOL0     H53038  -0.236   9.925   4.196 -1.9637 -2.1770 -3.0302
  393MOL0     H53039   0.062   9.896   4.378 -1.7422 -2.3783  0.6102
  393MOL0     H53040   0.157   9.733   4.553 -0.9962 -1.5971  0.4447
  393MOL0     H53041   1.131   9.420   5.254  1.8376  2.9403  0.6080
  393MOL0     H53042   1.223   9.548   5.427  0.8214 -2.2765  0.7810
  393MOL0     H53043   1.291   9.781   5.704 -0.1615  0.6341  0.3283
  393MOL0     H53044   1.429   9.935   5.833  3.2509 -2.9643  0.5919
  393MOL0     H53045   1.620  10.033   6.146 -3.1392  1.4278  3.4353
  393MOL0     H53046   1.601   9.961   5.976  1.0606  1.6048 -0.6182
  393MOL0     H53047   1.454  10.203   6.083 -1.1772  0.4329 -0.2609
  393MOL0     H53048   1.426  10.139   5.932 -1.6220 -0.3254  0.8941
  393MOL0     H53049   1.717  10.201   5.996  0.0477 -1.9034 -0.6719
  393MOL0     H53050   1.609  10.339   5.964  0.9296  0.3501 -1.8089
  393MOL0     H53051   1.540  10.216   5.753 -0.1873  2.1634 -0.5498
  393MOL0     H53052   1.641  10.079   5.778 -1.8590  0.5824 -3.0839
  393MOL0     H53053   1.919  10.317   5.576  0.5244  0.9986 -0.7654
  393MOL0     H53054   1.233   9.816   6.194 -2.2245  1.8156 -0.6511
  393MOL0     H53055   1.096   9.647   6.059 -0.9885  1.7459 -0.5024
  394MOL0     O53056   1.905   7.994   1.074  0.7534 -0.3653 -0.1333
  394MOL0     C53057   1.920   7.886   1.019 -0.1172  0.3310  0.7899
  394MOL0     O53058   1.992   7.778   1.067  0.2505  0.5572 -0.0818
  394MOL0     C53059   2.086   7.794   1.170  0.5460 -0.5665 -0.3677
  394MOL0     C53060   2.051   7.820   1.301  0.1391  0.1046 -0.6335
  394MOL0     C53061   2.147   7.807   1.402 -0.2959  0.6038 -0.3441
  394MOL0     C53062   2.279   7.779   1.363  0.8699  1.0229 -1.0514
  394MOL0     O53063   2.365   7.757   1.464 -0.6225 -0.3748 -0.5073
  394MOL0     C53064   2.460   7.652   1.442 -0.0283 -0.0907 -1.4433
  394MOL0     C53065   2.534   7.607   1.568 -0.3202  0.0872  0.9484
  394MOL0     C53066   2.441   7.550   1.687 -0.3424  0.2139  1.1327
  394MOL0     C53067   2.468   7.621   1.824  0.2864 -0.4796  0.0666
  394MOL0     C53068   2.349   7.605   1.919 -0.3337  0.5684 -0.3731
  394MOL0     C53069   2.381   7.677   2.050  0.0855 -0.2286 -0.3006
  394MOL0     C53070   2.308   7.617   2.178 -0.9607 -0.4221  0.2814
  394MOL0     C53071   2.150   7.607   2.149 -0.8313 -0.0868 -0.3915
  394MOL0     N53072   2.084   7.596   2.276 -0.1645  0.8364 -0.6884
  394MOL0     C53073   1.997   7.501   2.309 -0.7686  0.0267  0.1015
  394MOL0     C53074   1.936   7.543   2.418  0.8153 -0.4846  0.2326
  394MOL0     C53075   1.827   7.468   2.492  0.1696 -0.5381 -0.2056
  394MOL0     C53076   1.689   7.514   2.443  0.2953 -0.7869  0.1942
  394MOL0     C53077   1.588   7.441   2.530 -0.8319 -0.0070 -0.2893
  394MOL0     C53078   1.441   7.461   2.500  0.3012 -0.4219  0.3547
  394MOL0     O53079   1.374   7.405   2.609 -0.6901 -0.9493 -0.0094
  394MOL0     C53080   1.249   7.357   2.578  0.7381  0.1032 -0.9900
  394MOL0     C53081   1.145   7.448   2.598  0.1233 -0.2986  0.3742
  394MOL0     C53082   1.015   7.424   2.561  0.2434  0.0498  0.7870
  394MOL0     C53083   0.920   7.542   2.565  0.0076  0.4838  0.1741
  394MOL0     C53084   0.985   7.298   2.505  0.1770  1.3257  0.7913
  394MOL0     C53085   0.852   7.258   2.449 -0.2005  0.1017 -0.2517
  394MOL0     O53086   0.768   7.360   2.399  0.2629  0.1032 -0.1997
  394MOL0     C53087   0.645   7.314   2.354 -0.8359  0.1918  0.4967
  394MOL0     C53088   0.625   7.298   2.215  0.0420 -0.2553  0.2686
  394MOL0     C53089   0.492   7.255   2.169 -0.7766 -0.1956  0.2248
  394MOL0     C53090   0.388   7.235   2.258 -0.4570  1.4847  0.0641
  394MOL0     O53091   0.263   7.206   2.234  1.0248  0.8077  0.0918
  394MOL0     C53092   0.243   7.087   2.155 -0.3059  0.2583  1.4205
  394MOL0     C53093   0.107   7.016   2.173 -0.8014 -1.1507  0.1799
  394MOL0     C53094   0.096   6.878   2.101 -0.8861  0.6672  0.7868
  394MOL0     C53095  -0.034   6.797   2.131  0.3934  0.1671  0.5111
  394MOL0     C53096  -0.025   6.665   2.058 -0.0278 -0.6175  0.3444
  394MOL0     C53097  -0.142   6.573   2.108  0.0680  0.2102  0.2441
  394MOL0     C53098  -0.276   6.607   2.052  0.3092 -0.0726 -0.0719
  394MOL0     C53099  -0.374   6.637   2.164  0.5406 -0.2822 -0.4463
  394MOL0    Cl53100  -0.422   6.495   2.265  0.4709  0.0789 -0.1031
  394MOL0     C53101   0.421   7.257   2.388 -0.1083  0.2826 -0.9867
  394MOL0     C53102   0.537   7.291   2.440  0.6781 -0.2388  0.4202
  394MOL0     O53103   0.837   7.133   2.434  0.5260 -0.5484  0.8982
  394MOL0     C53104   1.088   7.200   2.494 -1.2195 -0.9160  0.8841
  394MOL0     C53105   1.217   7.228   2.529 -0.8415  0.8258 -0.2923
  394MOL0     N53106   1.986   7.659   2.457  0.5497  0.1057 -0.4670
  394MOL0     N53107   2.091   7.685   2.381 -0.5304 -0.2632 -0.3298
  394MOL0     C53108   2.318   7.763   1.232 -0.0410 -0.2859 -0.1300
  394MOL0     C53109   2.212   7.770   1.135 -0.2935  0.4909 -0.0816
  394MOL0     C53110   1.841   7.870   0.890 -1.2287  0.1707  0.7378
  394MOL0     C53111   1.821   7.753   0.816 -1.2859  0.3694  0.8322
  394MOL0     C53112   1.752   7.739   0.697 -0.0494  0.1387  0.2010
  394MOL0     C53113   1.685   7.852   0.648  0.2563  0.2361 -0.2675
  394MOL0     O53114   1.592   7.855   0.540  0.2818  0.2467  0.2022
  394MOL0     C53115   1.604   7.746   0.440  0.2370  1.0950  0.3670
  394MOL0     C53116   1.727   7.748   0.355 -0.0863 -0.2605 -0.1280
  394MOL0     C53117   1.787   7.888   0.324  0.5005 -0.3977  0.0798
  394MOL0     C53118   1.917   7.874   0.256 -0.1315  0.3098  0.2891
  394MOL0     C53119   1.945   8.001   0.187 -0.3430  0.4367 -0.5254
  394MOL0     C53120   1.951   8.100   0.133 -0.5277 -0.1686  0.1960
  394MOL0     C53121   1.690   7.973   0.725 -0.2582 -0.4907 -0.0597
  394MOL0     C53122   1.771   7.984   0.842 -0.9045 -0.4395  0.2158
  394MOL0     H53123   1.949   7.846   1.327  0.7013  0.1723  1.7303
  394MOL0     H53124   2.116   7.809   1.506 -2.2347 -1.3123 -0.8075
  394MOL0     H53125   2.413   7.558   1.412 -0.8829 -0.0009 -0.4499
  394MOL0     H53126   2.540   7.680   1.373  0.3526  0.2626 -0.8702
  394MOL0     H53127   2.610   7.536   1.534 -1.1307 -0.0675 -0.6478
  394MOL0     H53128   2.593   7.685   1.617  1.3961 -0.1976 -0.5445
  394MOL0     H53129   2.341   7.581   1.655  1.3161  2.5826 -2.2395
  394MOL0     H53130   2.443   7.441   1.702 -0.3385  0.1881  0.9458
  394MOL0     H53131   2.563   7.588   1.868  1.6416  1.4883 -1.2566
  394MOL0     H53132   2.473   7.724   1.789  1.6717 -0.7331 -0.5534
  394MOL0     H53133   2.263   7.648   1.867 -0.2998  0.6001 -0.4043
  394MOL0     H53134   2.337   7.499   1.944 -0.1419  0.8128  0.8250
  394MOL0     H53135   2.489   7.684   2.065 -0.0917 -0.1074  1.1046
  394MOL0     H53136   2.348   7.779   2.027 -0.8633 -0.8643 -1.8766
  394MOL0     H53137   2.354   7.522   2.203  0.3404  0.0801 -0.1386
  394MOL0     H53138   2.328   7.687   2.260 -0.6079 -1.6725  1.2923
  394MOL0     H53139   2.126   7.517   2.091 -3.1823 -1.8711  3.0366
  394MOL0     H53140   2.102   7.689   2.095 -2.2058  0.8053  2.0302
  394MOL0     H53141   1.963   7.413   2.255  2.9393 -1.2937 -0.4028
  394MOL0     H53142   1.823   7.359   2.477 -1.3068 -0.8924  2.1722
  394MOL0     H53143   1.838   7.482   2.600 -1.3279  1.8064 -0.3093
  394MOL0     H53144   1.689   7.501   2.334 -0.8183 -0.1879  0.1060
  394MOL0     H53145   1.679   7.622   2.454  2.2017 -0.4441 -0.9948
  394MOL0     H53146   1.609   7.460   2.636  0.9976 -0.1944 -0.5918
  394MOL0     H53147   1.597   7.334   2.511 -2.9881 -0.1950 -0.4876
  394MOL0     H53148   1.418   7.412   2.405  2.8560  0.3193 -0.7228
  394MOL0     H53149   1.412   7.565   2.488 -3.8821 -1.4859 -0.3190
  394MOL0     H53150   1.160   7.549   2.634  2.5593  0.1962 -1.7618
  394MOL0     H53151   0.906   7.572   2.460  1.1194 -3.8704 -1.4373
  394MOL0     H53152   0.821   7.517   2.604  0.0838 -1.2909 -0.6465
  394MOL0     H53153   0.959   7.633   2.612  2.8516 -0.6571  0.2624
  394MOL0     H53154   0.693   7.333   2.138 -1.4300  1.8068 -0.1722
  394MOL0     H53155   0.484   7.251   2.061 -2.2077  1.4859  0.2234
  394MOL0     H53156   0.257   7.123   2.052 -0.7663 -2.2608  0.3991
  394MOL0     H53157   0.323   7.013   2.169  0.8511  0.7863 -1.5595
  394MOL0     H53158   0.093   7.003   2.281 -1.3858 -0.9078  0.1395
  394MOL0     H53159   0.024   7.078   2.138  0.4262 -1.5358 -3.8527
  394MOL0     H53160   0.188   6.830   2.137 -0.8641 -0.5507 -0.8079
  394MOL0     H53161   0.101   6.903   1.995  0.7087  2.1032  1.1376
  394MOL0     H53162  -0.026   6.764   2.235  2.2618 -3.0979 -0.4948
  394MOL0     H53163  -0.122   6.853   2.099  0.1825 -0.4569 -0.0287
  394MOL0     H53164   0.071   6.624   2.090  1.1893  0.9842 -1.0981
  394MOL0     H53165  -0.019   6.682   1.950  1.2791 -0.3266  0.4510
  394MOL0     H53166  -0.113   6.474   2.071 -0.1435  0.7672 -1.5143
  394MOL0     H53167  -0.157   6.568   2.216 -0.4369 -3.5937  0.1466
  394MOL0     H53168  -0.302   6.518   1.994  1.4296  0.3723 -1.3012
  394MOL0     H53169  -0.267   6.680   1.971  3.3932  0.4585  0.6293
  394MOL0     H53170  -0.465   6.690   2.133  1.5200  1.2437 -0.8223
  394MOL0     H53171  -0.318   6.709   2.225 -1.1421  0.8393 -0.1635
  394MOL0     H53172   0.350   7.234   2.467  2.8160 -1.4632  1.3331
  394MOL0     H53173   0.534   7.319   2.545 -0.5005 -0.9256  0.5856
  394MOL0     H53174   1.066   7.098   2.462 -1.8567 -0.8610  1.1547
  394MOL0     H53175   1.291   7.150   2.510 -1.6713  0.5882 -2.9680
  394MOL0     H53176   2.420   7.740   1.203 -0.2997 -0.6867 -0.7388
  394MOL0     H53177   2.233   7.752   1.030  0.3104  0.6165  0.0133
  394MOL0     H53178   1.876   7.667   0.853  0.1172 -0.4141 -2.6406
  394MOL0     H53179   1.747   7.637   0.659  1.0010 -1.6767  4.3458
  394MOL0     H53180   1.608   7.649   0.491  1.8630  0.3037 -1.1516
  394MOL0     H53181   1.516   7.742   0.375 -3.7184 -0.3178  5.1849
  394MOL0     H53182   1.704   7.691   0.264  0.0497 -0.4960 -0.0179
  394MOL0     H53183   1.809   7.699   0.409 -0.2145  0.2904  0.5703
  394MOL0     H53184   1.804   7.943   0.417 -0.2365  2.4689 -1.3695
  394MOL0     H53185   1.717   7.939   0.258  1.2089 -0.7066 -0.9308
  394MOL0     H53186   1.911   7.807   0.170  1.3576 -1.0412  1.1663
  394MOL0     H53187   1.990   7.840   0.330 -2.7387 -0.8262  2.5216
  394MOL0     H53188   1.948   8.189   0.074 -1.1675 -0.8895 -0.8838
  394MOL0     H53189   1.639   8.057   0.681  0.7659 -0.6001 -1.5066
  394MOL0     H53190   1.796   8.075   0.895  2.0222 -1.5782  1.0199
  395MOL0     O53191   6.275   1.855   1.487  0.8354 -0.2182  0.3046
  395MOL0     C53192   6.359   1.920   1.548 -0.5210 -0.3494 -0.4024
  395MOL0     O53193   6.493   1.903   1.535  0.5206 -0.1657  0.3717
  395MOL0     C53194   6.533   1.795   1.466 -0.4829 -0.4660 -0.4327
  395MOL0     C53195   6.581   1.815   1.336 -0.3440 -1.0184 -0.1009
  395MOL0     C53196   6.629   1.708   1.256 -1.0952 -0.2165  1.0200
  395MOL0     C53197   6.619   1.579   1.301  0.0976  0.4059  0.9079
  395MOL0     O53198   6.647   1.478   1.210 -0.1660  0.4435  0.1781
  395MOL0     C53199   6.712   1.361   1.272 -0.6544  0.4613  0.2496
  395MOL0     C53200   6.856   1.376   1.222 -0.1187  0.3127 -0.4897
  395MOL0     C53201   6.944   1.250   1.223  0.3614 -1.1879  0.3406
  395MOL0     C53202   6.863   1.127   1.180 -0.1384 -0.1331  0.0820
  395MOL0     C53203   6.970   1.012   1.184  0.6929 -0.7654  0.3290
  395MOL0     C53204   6.904   0.894   1.124  0.4099 -0.7985 -0.3660
  395MOL0     C53205   6.910   0.906   0.970 -0.4878  0.4389 -0.7112
  395MOL0     C53206   6.839   0.792   0.910  1.1384 -0.1594  0.0047
  395MOL0     N53207   6.688   0.796   0.926 -0.8521  0.3994  0.8935
  395MOL0     C53208   6.590   0.883   0.888 -0.8804  0.1802  0.1846
  395MOL0     C53209   6.474   0.865   0.966 -0.4533 -0.1973 -0.2811
  395MOL0     C53210   6.351   0.957   0.986  1.0134  0.7114  0.4529
  395MOL0     C53211   6.384   1.044   1.104  0.3834 -0.1719  0.5538
  395MOL0     C53212   6.281   1.162   1.117 -0.6191  0.7092  0.1431
  395MOL0     C53213   6.306   1.264   1.221  0.1243  0.4201 -0.4620
  395MOL0     O53214   6.354   1.188   1.343  0.6846  0.1135  0.1341
  395MOL0     C53215   6.319   1.238   1.466  0.2255  0.1752  0.1531
  395MOL0     C53216   6.290   1.150   1.572  0.6716 -0.1571  0.2412
  395MOL0     C53217   6.257   1.197   1.699  0.9333 -0.6107  0.0718
  395MOL0     C53218   6.236   1.091   1.808 -0.2777 -0.0467  0.2747
  395MOL0     C53219   6.229   1.330   1.720  0.3482  0.0815 -0.8632
  395MOL0     C53220   6.173   1.391   1.835 -0.9996 -0.7642 -0.6642
  395MOL0     O53221   6.216   1.521   1.856  0.6433 -0.2899  0.7724
  395MOL0     C53222   6.144   1.594   1.950  0.4135 -0.8430  0.7104
  395MOL0     C53223   6.070   1.703   1.908 -0.4179 -1.5165  0.1074
  395MOL0     C53224   6.006   1.799   1.989 -1.0240  0.3023  0.7734
  395MOL0     C53225   6.033   1.778   2.129 -0.3669  0.1459 -0.0351
  395MOL0     O53226   5.988   1.879   2.209  0.6387  0.0921  0.3328
  395MOL0     C53227   6.037   1.873   2.341 -0.0971 -0.4275 -0.6097
  395MOL0     C53228   5.989   2.004   2.405 -0.0312  0.3726 -1.4541
  395MOL0     C53229   5.995   1.994   2.565 -1.0062  0.2219 -0.4782
  395MOL0     C53230   6.130   1.947   2.625  0.5079  0.0654 -0.1673
  395MOL0     C53231   6.226   2.068   2.650 -0.0425 -0.0748 -0.0234
  395MOL0     C53232   6.360   2.019   2.720  0.7924 -0.5561  1.3181
  395MOL0     C53233   6.436   2.140   2.763 -0.2159 -0.9212  0.8156
  395MOL0     C53234   6.581   2.108   2.801 -0.3244 -0.3347  0.1763
  395MOL0    Cl53235   6.686   2.110   2.663 -0.3695 -0.0954 -0.5013
  395MOL0     C53236   6.114   1.674   2.176  0.7450 -0.4040 -0.7391
  395MOL0     C53237   6.166   1.572   2.093 -0.6465 -1.2391 -0.6173
  395MOL0     O53238   6.080   1.342   1.898  0.6966  0.3218  0.5851
  395MOL0     C53239   6.255   1.418   1.606  0.7576  0.2367 -0.3333
  395MOL0     C53240   6.315   1.371   1.495 -0.2173 -0.7145 -0.3697
  395MOL0     N53241   6.506   0.751   1.034  0.1404  0.0926 -0.5740
  395MOL0     N53242   6.631   0.712   1.021  0.7514  0.2263  0.3395
  395MOL0     C53243   6.581   1.556   1.434 -0.1880  0.4447 -0.5665
  395MOL0     C53244   6.534   1.666   1.513  1.3458  0.0155  0.1767
  395MOL0     C53245   6.311   2.025   1.638 -0.1696  0.7372 -0.2220
  395MOL0     C53246   6.174   2.043   1.661  0.0405 -0.2802 -0.0039
  395MOL0     C53247   6.126   2.143   1.750  0.1934  0.4481 -0.1532
  395MOL0     C53248   6.211   2.229   1.821 -0.5906 -1.0714  0.2952
  395MOL0     O53249   6.155   2.330   1.904  0.0453  0.0680 -0.7591
  395MOL0     C53250   6.246   2.416   1.967  0.6355 -0.4496  0.6368
  395MOL0     C53251   6.160   2.514   2.063 -0.3705  0.2601  0.5133
  395MOL0     C53252   6.120   2.442   2.191 -1.0320  0.3665 -0.0324
  395MOL0     C53253   6.029   2.520   2.273 -0.8007  0.1861  0.5094
  395MOL0     C53254   6.099   2.642   2.319 -0.2607 -0.7557 -0.1068
  395MOL0     C53255   6.141   2.746   2.352 -1.5106  0.6868  0.1042
  395MOL0     C53256   6.352   2.218   1.791 -0.4381 -0.5814  0.0756
  395MOL0     C53257   6.396   2.118   1.701  0.0974  0.1329 -0.4599
  395MOL0     H53258   6.574   1.917   1.299  1.5126  0.2639  2.7170
  395MOL0     H53259   6.670   1.733   1.159  1.2423 -0.1221  1.9626
  395MOL0     H53260   6.707   1.348   1.380 -1.4639 -2.3989 -0.0426
  395MOL0     H53261   6.655   1.273   1.241  0.1403  0.1979 -0.5217
  395MOL0     H53262   6.859   1.403   1.115  0.6716 -1.9827 -1.0996
  395MOL0     H53263   6.898   1.467   1.266 -0.1202  0.5301 -0.9243
  395MOL0     H53264   7.028   1.264   1.153 -2.1733 -0.0721 -2.7339
  395MOL0     H53265   6.986   1.241   1.323  1.2202 -0.8010  0.0231
  395MOL0     H53266   6.780   1.104   1.247 -0.6366  1.0923 -0.0691
  395MOL0     H53267   6.818   1.152   1.083  1.4366 -0.0201 -0.6484
  395MOL0     H53268   7.058   1.037   1.123  1.9758 -1.2415  1.9245
  395MOL0     H53269   6.994   0.998   1.289 -0.2275  0.8982  0.7934
  395MOL0     H53270   6.954   0.805   1.163 -1.2838 -1.3118  0.7729
  395MOL0     H53271   6.797   0.884   1.145 -0.4199 -0.7977 -3.9580
  395MOL0     H53272   6.866   1.002   0.944 -1.6204 -0.0045 -0.4887
  395MOL0     H53273   7.015   0.903   0.941 -0.1095  0.3181  0.5862
  395MOL0     H53274   6.876   0.696   0.946 -1.6047 -1.7028 -0.9565
  395MOL0     H53275   6.859   0.790   0.802 -3.5890  1.0521 -1.1537
  395MOL0     H53276   6.621   0.962   0.820  1.5153 -0.3106  0.6396
  395MOL0     H53277   6.336   1.022   0.899 -1.3902  0.2566  0.4595
  395MOL0     H53278   6.255   0.904   0.990  1.2362 -0.0509 -2.2754
  395MOL0     H53279   6.483   1.089   1.088  1.6274 -2.5343  1.2141
  395MOL0     H53280   6.386   0.982   1.194 -0.7746 -3.9636 -1.7904
  395MOL0     H53281   6.181   1.117   1.124  1.2064 -3.7975  0.5389
  395MOL0     H53282   6.274   1.221   1.025 -0.7011  1.7360  0.7858
  395MOL0     H53283   6.221   1.331   1.237  2.1909  3.2689 -0.7444
  395MOL0     H53284   6.388   1.328   1.188  0.5076 -0.1804 -0.6962
  395MOL0     H53285   6.293   1.043   1.551 -0.9257 -0.1534 -0.0975
  395MOL0     H53286   6.288   1.113   1.901 -3.0996 -1.1265  2.2399
  395MOL0     H53287   6.130   1.087   1.833 -0.4574 -1.6259 -0.6168
  395MOL0     H53288   6.262   0.992   1.770 -0.3864 -0.0603  0.2361
  395MOL0     H53289   6.051   1.713   1.801  2.3473  1.3081 -0.2821
  395MOL0     H53290   5.928   1.864   1.951 -1.3549 -0.0495  0.8312
  395MOL0     H53291   6.003   1.791   2.404 -1.5541  1.8675  1.8348
  395MOL0     H53292   6.146   1.877   2.345  0.0941  1.6713 -3.8201
  395MOL0     H53293   6.050   2.091   2.376  1.4335  0.0699  0.4543
  395MOL0     H53294   5.885   2.023   2.380 -0.9956  0.1325  1.8594
  395MOL0     H53295   5.911   1.935   2.601  1.6368 -4.6911 -1.4546
  395MOL0     H53296   5.974   2.096   2.599 -0.7398  0.4551 -0.9997
  395MOL0     H53297   6.108   1.883   2.711  0.2824 -0.4867 -0.6220
  395MOL0     H53298   6.186   1.877   2.562 -2.0606  1.3856 -4.3031
  395MOL0     H53299   6.178   2.139   2.719  0.9586 -1.3216  2.0508
  395MOL0     H53300   6.262   2.121   2.561 -1.1599 -0.9876 -1.0451
  395MOL0     H53301   6.331   1.957   2.805  0.4735  0.6588  2.1260
  395MOL0     H53302   6.426   1.962   2.654 -1.9736 -2.9871  0.4500
  395MOL0     H53303   6.387   2.190   2.848 -0.4140  1.9684 -0.8447
  395MOL0     H53304   6.430   2.213   2.682 -2.4518 -0.3228  1.4285
  395MOL0     H53305   6.588   2.009   2.846 -2.0816  0.1913  1.7242
  395MOL0     H53306   6.617   2.173   2.881 -4.2917 -1.4851  3.2339
  395MOL0     H53307   6.126   1.659   2.283 -1.2385 -0.4126 -0.4873
  395MOL0     H53308   6.228   1.486   2.117  0.2521 -0.3281  0.4410
  395MOL0     H53309   6.235   1.525   1.617 -1.8034 -0.4017  2.4764
  395MOL0     H53310   6.348   1.431   1.411 -3.3674  3.0747  0.7588
  395MOL0     H53311   6.566   1.456   1.474 -1.1971  0.8138  0.0299
  395MOL0     H53312   6.480   1.625   1.599 -1.2002  1.0771 -0.8056
  395MOL0     H53313   6.107   1.980   1.605  2.1487 -1.7557 -0.9985
  395MOL0     H53314   6.021   2.134   1.774  0.9507 -3.4856  2.6169
  395MOL0     H53315   6.305   2.362   2.042 -1.6554 -0.1886  2.7350
  395MOL0     H53316   6.311   2.462   1.892  1.1864  0.4312  1.6265
  395MOL0     H53317   6.077   2.566   2.013  0.3583 -1.2869 -2.5570
  395MOL0     H53318   6.234   2.593   2.076 -0.5196  0.2377  1.6077
  395MOL0     H53319   6.207   2.422   2.255 -0.9019  2.4252  0.5232
  395MOL0     H53320   6.069   2.348   2.167  1.1182 -0.6283 -0.8926
  395MOL0     H53321   6.000   2.456   2.357 -1.2869  3.9786  3.5742
  395MOL0     H53322   5.940   2.532   2.210 -0.5950 -1.2077 -0.0637
  395MOL0     H53323   6.175   2.845   2.375 -2.9387  1.2745 -0.2309
  395MOL0     H53324   6.421   2.285   1.842  2.2684 -0.9633 -2.7381
  395MOL0     H53325   6.502   2.098   1.690 -0.2154 -2.6445  0.5394
  396MOL0     O53326   5.510   8.499   5.427 -0.2620  0.2283 -0.5076
  396MOL0     C53327   5.584   8.412   5.482 -0.2342  0.7950 -0.0710
  396MOL0     O53328   5.610   8.401   5.611  0.6037  0.6079  0.4364
  396MOL0     C53329   5.528   8.451   5.705  0.1692  0.1845 -0.1018
  396MOL0     C53330   5.409   8.383   5.749  0.3924  0.0479 -0.3393
  396MOL0     C53331   5.331   8.447   5.842  0.1017  0.2907 -0.6883
  396MOL0     C53332   5.360   8.564   5.912  0.7279 -0.5234  0.0281
  396MOL0     O53333   5.285   8.598   6.022  0.6666 -0.2213  0.0868
  396MOL0     C53334   5.310   8.719   6.097 -0.0978  0.0376 -0.7900
  396MOL0     C53335   5.189   8.728   6.191 -0.4880 -0.0208  0.1332
  396MOL0     C53336   5.062   8.753   6.109 -0.0736  0.1230  0.8762
  396MOL0     C53337   4.943   8.779   6.207 -0.9623 -0.2983 -0.2565
  396MOL0     C53338   4.809   8.766   6.134 -0.0141  0.0684 -0.9074
  396MOL0     C53339   4.694   8.772   6.243 -0.3820  0.5291  0.3805
  396MOL0     C53340   4.555   8.773   6.181 -0.0622 -0.1259  0.1073
  396MOL0     C53341   4.435   8.788   6.281  0.0383 -0.6388 -0.6969
  396MOL0     N53342   4.415   8.935   6.320  0.0985 -0.5383  0.8279
  396MOL0     C53343   4.341   9.028   6.244 -0.4513 -0.4637  0.8450
  396MOL0     C53344   4.321   9.128   6.334  0.8037  0.0149 -1.1235
  396MOL0     C53345   4.274   9.276   6.325 -0.7236 -0.1889  0.5581
  396MOL0     C53346   4.399   9.372   6.304  0.3171  0.4808  0.0975
  396MOL0     C53347   4.350   9.507   6.263  0.3823  1.2792 -0.9409
  396MOL0     C53348   4.465   9.614   6.244 -0.4228  0.0702  0.0582
  396MOL0     O53349   4.409   9.736   6.200 -0.4281 -0.1188 -0.3732
  396MOL0     C53350   4.367   9.839   6.289 -0.6615  0.5931  0.1846
  396MOL0     C53351   4.326   9.957   6.231  0.0702 -0.6037  0.5651
  396MOL0     C53352   4.263  10.052   6.309 -0.2815  0.6126 -0.0572
  396MOL0     C53353   4.236  10.187   6.251  0.8798 -0.0157 -0.0724
  396MOL0     C53354   4.250  10.025   6.445  0.4809  0.0855  0.0329
  396MOL0     C53355   4.160  10.126   6.520  0.1828  0.1230  0.0273
  396MOL0     O53356   4.221  10.228   6.591  0.5170 -0.2938  0.1933
  396MOL0     C53357   4.132  10.330   6.640 -0.2252  0.0023  0.4068
  396MOL0     C53358   4.128  10.347   6.776  0.1383 -0.2961  1.0347
  396MOL0     C53359   4.048  10.456   6.817 -0.1447  0.0548 -0.8372
  396MOL0     C53360   3.989  10.555   6.732  0.8617 -0.2173  0.8735
  396MOL0     O53361   3.904  10.660   6.762 -0.3115 -0.9188  0.3401
  396MOL0     C53362   3.878  10.685   6.899 -0.3769  0.6262  0.8225
  396MOL0     C53363   3.752  10.765   6.917  0.6497  0.1866 -0.0434
  396MOL0     C53364   3.673  10.737   7.051  0.7293 -0.5845  0.2411
  396MOL0     C53365   3.559  10.832   7.066  0.8168  0.2527 -0.6290
  396MOL0     C53366   3.473  10.780   7.173  0.1093  0.5055  0.4168
  396MOL0     C53367   3.357  10.881   7.191  0.6830  0.9652 -0.2591
  396MOL0     C53368   3.281  10.827   7.306 -0.1788  0.2486  0.4087
  396MOL0     C53369   3.164  10.917   7.331  0.0145  0.0731 -0.6351
  396MOL0    Cl53370   3.058  10.852   7.463 -0.1318 -0.0226  0.0736
  396MOL0     C53371   4.015  10.539   6.595 -0.1702  0.2152 -0.3962
  396MOL0     C53372   4.078  10.424   6.545 -0.0096 -0.0667 -0.2285
  396MOL0     O53373   4.038  10.109   6.509  0.3486 -0.3877  0.1789
  396MOL0     C53374   4.310   9.912   6.503  0.1204  0.8867  0.0875
  396MOL0     C53375   4.365   9.816   6.429 -0.2637 -0.2517 -0.3931
  396MOL0     N53376   4.373   9.089   6.456 -0.2383 -0.9574 -0.1180
  396MOL0     N53377   4.436   8.981   6.446 -1.3506 -0.3724 -0.1360
  396MOL0     C53378   5.484   8.621   5.880  0.1458 -0.5968  0.2263
  396MOL0     C53379   5.553   8.574   5.771 -0.3317 -0.9063  1.3544
  396MOL0     C53380   5.660   8.315   5.403  0.0089  0.3755 -0.1358
  396MOL0     C53381   5.605   8.248   5.289 -0.0046  0.6986 -0.0002
  396MOL0     C53382   5.686   8.159   5.213 -0.9327  0.3434  0.7956
  396MOL0     C53383   5.818   8.126   5.259  0.6398  0.0209  0.4871
  396MOL0     O53384   5.884   8.023   5.196  0.0919 -0.6582 -0.0901
  396MOL0     C53385   5.835   7.966   5.074 -0.4575  0.4333  0.0728
  396MOL0     C53386   5.920   7.842   5.022  0.3252 -1.3134  0.1410
  396MOL0     C53387   5.986   7.764   5.128  0.1726  0.5777  0.0194
  396MOL0     C53388   6.025   7.625   5.080 -0.2902  1.1507 -0.7169
  396MOL0     C53389   6.129   7.559   5.162 -0.3913  0.2944 -0.7328
  396MOL0     C53390   6.223   7.531   5.240 -0.8038 -0.5551  0.6138
  396MOL0     C53391   5.872   8.188   5.367  0.6433 -0.5686 -1.0152
  396MOL0     C53392   5.792   8.285   5.436 -0.6604 -0.5796  0.0064
  396MOL0     H53393   5.383   8.288   5.703  2.2896 -0.2865 -0.8303
  396MOL0     H53394   5.247   8.389   5.880 -0.1364  1.2849  0.3346
  396MOL0     H53395   5.397   8.689   6.157 -1.2949 -3.2484 -0.5278
  396MOL0     H53396   5.326   8.813   6.043  0.8552  1.6684  2.1083
  396MOL0     H53397   5.174   8.640   6.254 -4.2315  1.1883  1.1691
  396MOL0     H53398   5.204   8.818   6.252  1.9911  1.2553 -2.1278
  396MOL0     H53399   5.074   8.833   6.035  1.0528  1.3714  2.3235
  396MOL0     H53400   5.045   8.657   6.060  0.3182  0.3122  0.3624
  396MOL0     H53401   4.950   8.706   6.288  3.0645 -0.6964 -0.7391
  396MOL0     H53402   4.957   8.878   6.252 -1.0278 -0.9322  1.2167
  396MOL0     H53403   4.798   8.843   6.057  3.6999  0.6883 -1.0076
  396MOL0     H53404   4.812   8.674   6.075  1.1713 -1.8271  1.8820
  396MOL0     H53405   4.710   8.695   6.319  3.6554  1.5207  0.7620
  396MOL0     H53406   4.712   8.870   6.290  0.3718  1.3291 -1.4783
  396MOL0     H53407   4.564   8.853   6.107 -1.7902  0.9627  0.9948
  396MOL0     H53408   4.537   8.681   6.126  2.1270  0.9558 -2.6474
  396MOL0     H53409   4.467   8.736   6.372 -0.5770  2.4733  1.4497
  396MOL0     H53410   4.336   8.764   6.242 -0.3628  2.6114 -2.0601
  396MOL0     H53411   4.313   9.018   6.139  0.3499  0.1645  0.5599
  396MOL0     H53412   4.222   9.280   6.229  2.4338 -2.1574 -1.4112
  396MOL0     H53413   4.223   9.305   6.417 -0.9287 -0.3067  0.4813
  396MOL0     H53414   4.472   9.340   6.229 -0.3607 -0.3931 -0.2046
  396MOL0     H53415   4.448   9.385   6.401 -1.6422  1.2549  1.0342
  396MOL0     H53416   4.276   9.532   6.340 -1.5318  0.1322 -2.3044
  396MOL0     H53417   4.307   9.493   6.163  1.2420  0.0114 -1.1542
  396MOL0     H53418   4.532   9.579   6.165  2.6621 -1.1327  2.9558
  396MOL0     H53419   4.526   9.615   6.335 -2.5943  0.0182  1.5923
  396MOL0     H53420   4.347   9.984   6.128  1.2920  0.3262  1.0358
  396MOL0     H53421   4.247  10.188   6.143 -0.9524  1.2066 -0.2835
  396MOL0     H53422   4.131  10.212   6.267  0.6290  0.3974 -2.1502
  396MOL0     H53423   4.306  10.262   6.287  1.0773  0.8226 -2.1186
  396MOL0     H53424   4.178  10.277   6.843  1.0850 -1.6931 -1.0241
  396MOL0     H53425   4.029  10.476   6.922  0.7384 -1.3595 -0.3722
  396MOL0     H53426   3.876  10.586   6.947  2.2528 -0.9108 -1.9024
  396MOL0     H53427   3.964  10.740   6.938  1.2598 -0.7160 -0.7265
  396MOL0     H53428   3.762  10.873   6.910  0.5857  0.1902 -0.0813
  396MOL0     H53429   3.695  10.737   6.827  1.0883  0.6702 -0.4813
  396MOL0     H53430   3.735  10.747   7.140 -1.4715 -0.1881  1.8057
  396MOL0     H53431   3.643  10.632   7.049  3.7466 -1.6047  1.7284
  396MOL0     H53432   3.606  10.926   7.097  1.4597 -0.1841 -0.2487
  396MOL0     H53433   3.501  10.855   6.976 -0.1444  0.6266  0.0684
  396MOL0     H53434   3.521  10.756   7.268  0.1325 -0.6824  0.1177
  396MOL0     H53435   3.422  10.696   7.124 -1.8306  0.2732  2.6839
  396MOL0     H53436   3.403  10.976   7.222 -1.3240  1.5760  1.0081
  396MOL0     H53437   3.295  10.900   7.103  0.0884  0.3960  0.0334
  396MOL0     H53438   3.338  10.815   7.399  3.5001  0.6901 -1.5732
  396MOL0     H53439   3.241  10.729   7.280  0.5706  0.3848 -1.4466
  396MOL0     H53440   3.107  10.937   7.239 -0.4149 -0.6295 -0.5325
  396MOL0     H53441   3.200  11.019   7.347  0.7351 -0.2629 -0.0909
  396MOL0     H53442   3.964  10.610   6.530 -3.4571  0.7857  2.4744
  396MOL0     H53443   4.100  10.407   6.441 -0.7121  1.1937 -0.6026
  396MOL0     H53444   4.298   9.896   6.609  1.1284  0.0481  0.0913
  396MOL0     H53445   4.384   9.716   6.466 -3.1552 -1.9887 -3.0469
  396MOL0     H53446   5.514   8.712   5.929 -1.8254  1.7382 -2.5472
  396MOL0     H53447   5.636   8.638   5.742 -1.8831  0.9243  0.7544
  396MOL0     H53448   5.500   8.261   5.266 -0.1184  0.3551  0.3104
  396MOL0     H53449   5.641   8.113   5.126  2.1589  1.4054 -1.5350
  396MOL0     H53450   5.733   7.929   5.090  0.4311 -1.2365  2.4220
  396MOL0     H53451   5.837   8.049   5.002 -0.4360  1.6451  1.4197
  396MOL0     H53452   5.999   7.893   4.966 -1.1089  0.0090 -0.7644
  396MOL0     H53453   5.881   7.775   4.944 -2.2021 -1.7262  1.6378
  396MOL0     H53454   5.923   7.732   5.211 -0.5653 -2.6875 -1.6036
  396MOL0     H53455   6.074   7.819   5.161  0.9332 -1.1869  1.0573
  396MOL0     H53456   6.071   7.625   4.981  2.0992  0.5335  0.3300
  396MOL0     H53457   5.932   7.567   5.076  0.3260  0.0808  0.0116
  396MOL0     H53458   6.310   7.507   5.299  1.5947  0.6838 -2.1577
  396MOL0     H53459   5.972   8.172   5.406 -0.3498  0.5098  2.3603
  396MOL0     H53460   5.828   8.335   5.526  1.3315 -0.2824 -0.9080
  397MOL0     O53461   1.431   6.146   8.881 -0.3692 -0.2042  0.0149
  397MOL0     C53462   1.454   6.258   8.916  0.2463 -0.1671  0.8024
  397MOL0     O53463   1.425   6.320   9.032 -0.0778  0.2309 -0.3924
  397MOL0     C53464   1.393   6.252   9.149  0.1971  0.6027 -0.8162
  397MOL0     C53465   1.374   6.341   9.262  0.5845  0.6018  0.1091
  397MOL0     C53466   1.356   6.280   9.383  0.0979  0.9420 -0.7851
  397MOL0     C53467   1.356   6.139   9.407  0.5354 -0.6888  0.5589
  397MOL0     O53468   1.342   6.068   9.527  0.6120  0.2081 -0.2481
  397MOL0     C53469   1.381   6.139   9.649  0.5458 -0.4767  0.7575
  397MOL0     C53470   1.536   6.145   9.667  0.1096  0.2870 -0.5763
  397MOL0     C53471   1.620   6.005   9.680  0.7039  0.7475  0.8848
  397MOL0     C53472   1.757   6.044   9.740 -0.4425 -0.6475 -0.8026
  397MOL0     C53473   1.824   5.907   9.794  0.4174 -0.4899  0.8195
  397MOL0     C53474   1.913   5.829   9.692 -0.4033  0.3338  0.5198
  397MOL0     C53475   2.016   5.912   9.621 -0.6185  0.0039 -0.6903
  397MOL0     C53476   2.122   5.966   9.725  0.7362 -0.8106 -0.8918
  397MOL0     N53477   2.257   5.980   9.677  0.2038  0.0228 -0.8653
  397MOL0     C53478   2.329   5.868   9.630 -0.5001  0.7624  0.5533
  397MOL0     C53479   2.449   5.912   9.584  0.1624 -0.5568  0.0143
  397MOL0     C53480   2.566   5.831   9.535  0.3292  0.5073  0.1706
  397MOL0     C53481   2.667   5.909   9.442  0.4126 -0.0675  0.1163
  397MOL0     C53482   2.757   5.810   9.374  0.3888  0.3736  0.5781
  397MOL0     C53483   2.838   5.706   9.465  0.0446  0.9117 -0.6414
  397MOL0     O53484   2.759   5.588   9.485 -0.5833 -0.0800  0.6026
  397MOL0     C53485   2.807   5.482   9.552 -0.1945 -0.2536 -0.5840
  397MOL0     C53486   2.725   5.371   9.555 -0.2379  0.9230  0.1584
  397MOL0     C53487   2.765   5.254   9.622 -0.5436 -0.1975 -0.6648
  397MOL0     C53488   2.666   5.140   9.611 -0.4100  0.8223 -0.4676
  397MOL0     C53489   2.886   5.243   9.694 -0.2063  0.2088  0.4723
  397MOL0     C53490   2.950   5.117   9.746 -0.3739  0.5536 -0.1619
  397MOL0     O53491   3.080   5.134   9.783  0.3899  0.3584 -1.0395
  397MOL0     C53492   3.154   5.025   9.823  1.3397  0.2774 -0.8648
  397MOL0     C53493   3.208   5.043   9.946  0.0420 -0.0039 -0.6591
  397MOL0     C53494   3.283   4.945  10.002 -0.1653  0.4976 -0.3541
  397MOL0     C53495   3.296   4.823   9.944  1.4635 -0.8860  0.4570
  397MOL0     O53496   3.377   4.724   9.996 -0.1702 -1.2183  0.4440
  397MOL0     C53497   3.450   4.734  10.123 -0.1057 -0.9048  0.4731
  397MOL0     C53498   3.568   4.636  10.136 -0.1183 -0.3618  0.7939
  397MOL0     C53499   3.693   4.688  10.223  0.3355 -0.8679 -0.1287
  397MOL0     C53500   3.639   4.741  10.355  0.2417  0.4855 -0.6351
  397MOL0     C53501   3.764   4.771  10.432 -0.6655  0.7769 -0.0499
  397MOL0     C53502   3.732   4.811  10.577  0.1235  0.8489  0.3238
  397MOL0     C53503   3.837   4.762  10.676  0.0945 -0.3036 -0.9402
  397MOL0     C53504   3.801   4.621  10.745 -0.7143 -0.3390 -0.1144
  397MOL0    Cl53505   3.939   4.587  10.859 -0.4779  0.2512 -0.6551
  397MOL0     C53506   3.237   4.797   9.814  0.5134 -0.4343 -0.6099
  397MOL0     C53507   3.156   4.905   9.759 -0.5151 -0.5290 -0.5122
  397MOL0     O53508   2.886   5.015   9.751 -0.7063  0.8087 -0.4107
  397MOL0     C53509   2.974   5.354   9.667  0.0436  0.0944 -1.6181
  397MOL0     C53510   2.927   5.476   9.608  0.1177  0.7472 -0.4982
  397MOL0     N53511   2.444   6.047   9.619 -0.1640 -0.3652 -0.1401
  397MOL0     N53512   2.339   6.090   9.670 -0.4018  0.4706 -0.1106
  397MOL0     C53513   1.356   6.065   9.297  0.3915  0.1582  0.2615
  397MOL0     C53514   1.377   6.113   9.171 -0.1003 -0.3138  0.2681
  397MOL0     C53515   1.538   6.347   8.827  0.6171  0.3018  0.7349
  397MOL0     C53516   1.533   6.482   8.824 -0.0219 -0.1879 -0.0447
  397MOL0     C53517   1.612   6.560   8.738  0.3636 -0.1874  1.1853
  397MOL0     C53518   1.701   6.497   8.651  0.3937  0.1776  0.0063
  397MOL0     O53519   1.771   6.569   8.564 -0.0700 -0.0514 -1.0113
  397MOL0     C53520   1.795   6.713   8.569  1.1942  0.5567  1.0132
  397MOL0     C53521   1.921   6.750   8.493 -0.0520  0.2711  0.4683
  397MOL0     C53522   2.043   6.675   8.550  0.0019  0.3439  1.6761
  397MOL0     C53523   2.127   6.619   8.431  0.8982  0.4880 -0.9406
  397MOL0     C53524   2.202   6.494   8.467  0.7417  0.5184  0.6317
  397MOL0     C53525   2.252   6.393   8.513 -0.0557 -0.4093 -0.1041
  397MOL0     C53526   1.697   6.366   8.642 -0.2865  0.1765 -0.4296
  397MOL0     C53527   1.617   6.291   8.729 -0.2330 -0.9058 -0.5674
  397MOL0     H53528   1.377   6.449   9.247  2.1698  0.5158 -0.4152
  397MOL0     H53529   1.362   6.348   9.468  3.5657 -0.7909  0.5610
  397MOL0     H53530   1.339   6.240   9.654 -0.4535 -0.8548  0.2431
  397MOL0     H53531   1.343   6.089   9.738 -2.2828  0.9616  0.4925
  397MOL0     H53532   1.562   6.203   9.578 -1.2777  1.3117 -0.3415
  397MOL0     H53533   1.537   6.204   9.759 -0.1389  1.8945 -1.5720
  397MOL0     H53534   1.562   5.947   9.752  1.7149  0.1986  1.2726
  397MOL0     H53535   1.635   5.955   9.584  3.7501 -0.5335  1.9247
  397MOL0     H53536   1.826   6.082   9.663 -0.0378 -2.1807 -1.2325
  397MOL0     H53537   1.736   6.112   9.823 -1.5137 -1.0261 -0.7555
  397MOL0     H53538   1.892   5.942   9.872  2.9837  0.3039 -1.5942
  397MOL0     H53539   1.744   5.844   9.834 -1.5961 -2.7423 -5.4829
  397MOL0     H53540   1.965   5.750   9.746  4.1647  0.7992 -2.5903
  397MOL0     H53541   1.860   5.776   9.613  1.8739 -0.1773 -0.7595
  397MOL0     H53542   2.065   5.844   9.552  0.0318 -0.8370  0.5575
  397MOL0     H53543   1.965   5.987   9.560 -1.2919 -1.3851 -1.9019
  397MOL0     H53544   2.128   5.901   9.812  0.4435  2.8144  2.0735
  397MOL0     H53545   2.092   6.065   9.760  2.3199 -1.5018  2.8436
  397MOL0     H53546   2.303   5.763   9.641  1.6108 -0.2422 -2.7912
  397MOL0     H53547   2.610   5.802   9.631 -0.2832  3.0634  1.3301
  397MOL0     H53548   2.527   5.742   9.487  1.2767  0.6816 -0.9648
  397MOL0     H53549   2.723   5.969   9.514 -2.6019  2.3093  0.6847
  397MOL0     H53550   2.621   5.979   9.372 -2.2791 -0.3014  1.5216
  397MOL0     H53551   2.822   5.877   9.317  0.6453  0.4627  0.9690
  397MOL0     H53552   2.711   5.761   9.288  1.7041  1.0551 -0.5399
  397MOL0     H53553   2.872   5.754   9.557  0.1260  3.6760 -2.0211
  397MOL0     H53554   2.928   5.679   9.411  1.8990  1.9346  1.7598
  397MOL0     H53555   2.626   5.383   9.512 -0.0961 -1.5206 -1.0086
  397MOL0     H53556   2.623   5.102   9.704  1.8125 -4.4632 -1.2261
  397MOL0     H53557   2.575   5.163   9.555 -0.8682 -0.7583 -0.4202
  397MOL0     H53558   2.705   5.049   9.564  0.9430  0.7510  0.7180
  397MOL0     H53559   3.198   5.134  10.004 -2.3258 -0.8146  0.2931
  397MOL0     H53560   3.323   4.963  10.101  2.3568 -0.5010 -1.0961
  397MOL0     H53561   3.490   4.836  10.118 -1.1787 -0.5492 -2.5487
  397MOL0     H53562   3.375   4.729  10.203 -3.2935  1.5965 -2.0464
  397MOL0     H53563   3.530   4.544  10.182  0.4742 -0.8142  0.4032
  397MOL0     H53564   3.600   4.621  10.032 -2.0943  0.7797 -0.0390
  397MOL0     H53565   3.747   4.772  10.179 -2.0161  1.8416  1.7658
  397MOL0     H53566   3.772   4.612  10.225  0.2577 -0.9577 -0.4739
  397MOL0     H53567   3.570   4.825  10.339 -0.0722  1.0485  2.8428
  397MOL0     H53568   3.582   4.668  10.414 -0.9370  1.6012 -0.3352
  397MOL0     H53569   3.826   4.852  10.392 -0.6569  0.6697 -0.2550
  397MOL0     H53570   3.817   4.675  10.425  2.7533  2.5954 -1.3984
  397MOL0     H53571   3.730   4.920  10.588 -1.0165  0.6853  2.1677
  397MOL0     H53572   3.632   4.770  10.590 -0.2679  1.5486 -0.4213
  397MOL0     H53573   3.848   4.836  10.756  1.6573  0.6683 -1.9878
  397MOL0     H53574   3.932   4.761  10.621  1.2654 -1.2092  0.9717
  397MOL0     H53575   3.800   4.539  10.673 -1.4067  0.7751 -1.4267
  397MOL0     H53576   3.706   4.622  10.798 -0.6119 -2.1859  0.1457
  397MOL0     H53577   3.270   4.706   9.764  3.1892  0.1230 -0.0149
  397MOL0     H53578   3.105   4.897   9.663  0.4156 -0.8743 -0.9950
  397MOL0     H53579   3.071   5.364   9.715 -1.2038  2.2785  0.6726
  397MOL0     H53580   2.991   5.564   9.617 -0.7083  1.2044  1.0954
  397MOL0     H53581   1.341   5.957   9.295  1.5669 -0.0222  0.0166
  397MOL0     H53582   1.379   6.051   9.082 -0.5848  1.0817 -0.7621
  397MOL0     H53583   1.473   6.544   8.891  0.3657  1.8737 -1.5171
  397MOL0     H53584   1.595   6.666   8.753 -1.4658 -0.5935  2.3656
  397MOL0     H53585   1.706   6.765   8.531 -2.1653 -3.4383  2.6659
  397MOL0     H53586   1.808   6.759   8.667  0.7781  5.4931 -0.9346
  397MOL0     H53587   1.940   6.857   8.506 -0.9463  0.1835  3.2579
  397MOL0     H53588   1.910   6.725   8.387 -0.4262  0.8634  0.3666
  397MOL0     H53589   2.017   6.584   8.607  3.1113 -1.4367  0.4959
  397MOL0     H53590   2.113   6.745   8.596  1.2869  1.3841 -1.6476
  397MOL0     H53591   2.192   6.695   8.385  0.7286  1.8373  0.9501
  397MOL0     H53592   2.060   6.599   8.347 -1.2512 -2.2718  1.2430
  397MOL0     H53593   2.287   6.297   8.546 -0.8987 -0.3446  1.0530
  397MOL0     H53594   1.755   6.325   8.561 -4.2249 -1.6741 -2.5927
  397MOL0     H53595   1.618   6.184   8.711 -0.1972 -0.8493 -0.9020
  398MOL0     O53596  11.194   6.056   8.956  0.0514 -0.8971 -0.3372
  398MOL0     C53597  11.078   6.046   8.996 -0.2114  0.0955 -0.6002
  398MOL0     O53598  11.043   6.003   9.125  0.2847  0.0072  0.1329
  398MOL0     C53599  11.143   5.972   9.214 -0.0901  0.1374  0.4316
  398MOL0     C53600  11.211   5.857   9.198 -0.3113  0.2929 -0.6165
  398MOL0     C53601  11.307   5.823   9.297 -1.1116  0.0359  0.2128
  398MOL0     C53602  11.317   5.899   9.415  0.2164 -0.4045  0.6490
  398MOL0     O53603  11.403   5.867   9.517  1.0207 -0.4396  0.3623
  398MOL0     C53604  11.540   5.832   9.487  0.1894  1.1600 -0.2031
  398MOL0     C53605  11.615   5.956   9.430 -0.4473  0.4612  0.6196
  398MOL0     C53606  11.662   6.065   9.529 -0.1393  0.6910  0.0630
  398MOL0     C53607  11.787   6.022   9.611 -0.2289  0.2267  0.2864
  398MOL0     C53608  11.846   6.122   9.717 -0.0116 -0.7561 -0.0706
  398MOL0     C53609  11.746   6.145   9.828 -0.7562  0.3068 -1.0824
  398MOL0     C53610  11.804   6.253   9.924  0.3129 -0.5579 -0.0345
  398MOL0     C53611  11.722   6.269  10.053 -0.0575  0.0418  0.6293
  398MOL0     N53612  11.583   6.299  10.019  0.3484  0.2125  0.5418
  398MOL0     C53613  11.543   6.399   9.941  0.2814  0.8742  0.3316
  398MOL0     C53614  11.408   6.378   9.932  0.5917 -0.1369 -0.0648
  398MOL0     C53615  11.326   6.477   9.860 -0.1491 -0.9659  1.0863
  398MOL0     C53616  11.359   6.484   9.712 -0.3786  0.6159 -0.5386
  398MOL0     C53617  11.497   6.553   9.678  0.0054 -0.2928  1.4041
  398MOL0     C53618  11.607   6.465   9.623  1.1802 -1.2558 -0.0358
  398MOL0     O53619  11.562   6.381   9.525  0.6402  0.8937  0.6951
  398MOL0     C53620  11.553   6.432   9.388 -0.3893  0.0267 -0.7197
  398MOL0     C53621  11.481   6.353   9.303  0.2398 -0.1366  0.3361
  398MOL0     C53622  11.460   6.392   9.168 -0.7673  0.2403  0.1680
  398MOL0     C53623  11.389   6.292   9.083 -0.4261 -0.0296  0.4124
  398MOL0     C53624  11.515   6.519   9.122  0.7668  0.5718 -1.2681
  398MOL0     C53625  11.490   6.575   8.986 -0.4215  1.2545  0.3380
  398MOL0     O53626  11.597   6.610   8.911 -0.2171  0.0767  0.0972
  398MOL0     C53627  11.559   6.653   8.789 -0.7215 -1.0270 -0.3081
  398MOL0     C53628  11.510   6.788   8.782  0.7256  0.0919 -0.0492
  398MOL0     C53629  11.444   6.832   8.665 -0.0540 -0.1642  1.0182
  398MOL0     C53630  11.446   6.756   8.545  0.1762  0.5658  1.3360
  398MOL0     O53631  11.396   6.799   8.417 -1.0621 -0.1964  0.2235
  398MOL0     C53632  11.329   6.933   8.417 -0.7237  0.8704 -0.2711
  398MOL0     C53633  11.292   6.967   8.279 -0.2329  0.0571 -0.1970
  398MOL0     C53634  11.188   6.872   8.216  0.2543 -0.0117  0.0914
  398MOL0     C53635  11.066   6.850   8.307 -0.1526 -0.7897 -0.5460
  398MOL0     C53636  10.945   6.806   8.222 -0.2915  1.2714 -0.2841
  398MOL0     C53637  10.848   6.742   8.314  0.6071 -0.2659 -0.2520
  398MOL0     C53638  10.787   6.822   8.425 -0.3460  0.0058 -0.3778
  398MOL0     C53639  10.704   6.739   8.529 -0.4780  0.2627 -0.1769
  398MOL0    Cl53640  10.763   6.584   8.603 -0.0280  0.0067 -0.3965
  398MOL0     C53641  11.505   6.625   8.549  0.9966  0.3019 -0.3697
  398MOL0     C53642  11.558   6.576   8.674  0.2384  0.0392 -0.3963
  398MOL0     O53643  11.373   6.587   8.953 -0.0024  0.4336 -0.0141
  398MOL0     C53644  11.596   6.590   9.211  0.8590  0.2489 -0.2652
  398MOL0     C53645  11.612   6.544   9.340  0.2104 -0.9308  0.2164
  398MOL0     N53646  11.360   6.263   9.999  0.4016 -0.9294 -0.3284
  398MOL0     N53647  11.476   6.223  10.049  0.2913  0.3281 -0.0196
  398MOL0     C53648  11.223   6.000   9.437  0.8235 -0.1526  0.2378
  398MOL0     C53649  11.138   6.036   9.331 -0.4571 -1.7255  0.2831
  398MOL0     C53650  10.967   6.076   8.913  0.2849 -0.1377 -0.3973
  398MOL0     C53651  10.980   6.096   8.774  1.1031 -1.0062  0.0691
  398MOL0     C53652  10.870   6.116   8.693 -0.1946  0.5514  0.2572
  398MOL0     C53653  10.740   6.129   8.743 -0.1505 -0.6773  0.0820
  398MOL0     O53654  10.644   6.148   8.647  0.3875 -0.7653  0.1214
  398MOL0     C53655  10.528   6.223   8.694 -1.0285  0.2659 -0.1406
  398MOL0     C53656  10.404   6.137   8.729  0.0245 -0.2628 -0.4418
  398MOL0     C53657  10.367   6.041   8.616 -0.2560  0.5445 -0.5858
  398MOL0     C53658  10.226   5.994   8.634 -0.1757  0.0982  0.9448
  398MOL0     C53659  10.188   5.899   8.525 -0.0640 -0.3771 -0.3970
  398MOL0     C53660  10.159   5.831   8.435  0.2088  0.4645  0.8707
  398MOL0     C53661  10.732   6.127   8.883  0.5465 -0.6852  0.5254
  398MOL0     C53662  10.839   6.095   8.958 -0.4621  0.4370  0.1883
  398MOL0     H53663  11.188   5.810   9.104 -1.2695  1.4047 -0.9615
  398MOL0     H53664  11.366   5.737   9.267 -1.6224 -1.1709  2.4227
  398MOL0     H53665  11.595   5.796   9.575 -2.4763  0.0755  1.1356
  398MOL0     H53666  11.546   5.751   9.413  2.2230  0.6693  0.4219
  398MOL0     H53667  11.705   5.911   9.386 -0.5485  0.2696  0.6081
  398MOL0     H53668  11.546   5.991   9.352 -3.5024 -2.2814  1.8293
  398MOL0     H53669  11.692   6.137   9.452 -0.2081  0.9266  0.2531
  398MOL0     H53670  11.581   6.105   9.591 -1.2562  1.1237 -1.6234
  398MOL0     H53671  11.766   5.933   9.671 -0.8924  0.0211 -0.2253
  398MOL0     H53672  11.864   5.990   9.541  0.7439 -1.6457  2.1067
  398MOL0     H53673  11.944   6.089   9.753 -0.2270 -1.9569 -0.5223
  398MOL0     H53674  11.871   6.217   9.668  1.8274 -0.7309  0.8483
  398MOL0     H53675  11.650   6.177   9.786  0.9300  1.8938 -3.9943
  398MOL0     H53676  11.730   6.047   9.874 -1.3187  0.2776 -1.3263
  398MOL0     H53677  11.903   6.210   9.944  0.5898 -0.2970 -0.8080
  398MOL0     H53678  11.815   6.351   9.876  3.5415  0.7117  2.8997
  398MOL0     H53679  11.776   6.350  10.102  1.2852  0.4703 -1.4408
  398MOL0     H53680  11.719   6.179  10.116 -1.1218 -1.3116 -1.2325
  398MOL0     H53681  11.596   6.484   9.899  1.5631 -0.1824 -0.2441
  398MOL0     H53682  11.221   6.455   9.881 -0.8319  1.4498  0.5110
  398MOL0     H53683  11.328   6.580   9.898 -1.2509 -0.0505 -1.2022
  398MOL0     H53684  11.277   6.531   9.658 -1.7727 -1.5272 -0.4164
  398MOL0     H53685  11.368   6.378   9.684  0.7126 -0.6712  3.8271
  398MOL0     H53686  11.541   6.608   9.762  1.5024 -1.9291  1.7586
  398MOL0     H53687  11.470   6.611   9.590  2.8115 -0.9176 -0.0051
  398MOL0     H53688  11.651   6.415   9.710  0.0176  0.9388  1.9302
  398MOL0     H53689  11.687   6.535   9.597 -0.7018  1.0560  0.0734
  398MOL0     H53690  11.446   6.255   9.335 -3.7693  1.3998  1.3805
  398MOL0     H53691  11.307   6.238   9.132 -1.2550  2.2546  1.6732
  398MOL0     H53692  11.344   6.338   8.995 -0.1475  0.5238  0.5573
  398MOL0     H53693  11.456   6.208   9.060 -1.0433 -0.3046 -0.4478
  398MOL0     H53694  11.515   6.857   8.866 -0.8980 -0.1638  0.2922
  398MOL0     H53695  11.393   6.926   8.684  0.0739 -0.0783  0.9427
  398MOL0     H53696  11.242   6.913   8.480 -0.9574 -1.1632 -1.1683
  398MOL0     H53697  11.394   7.007   8.466 -0.3937 -0.4783  1.4213
  398MOL0     H53698  11.261   7.072   8.273  0.2707  0.1426 -2.6618
  398MOL0     H53699  11.388   6.962   8.226  1.4049 -1.6396  2.6770
  398MOL0     H53700  11.241   6.781   8.188  1.5033  0.9573 -0.8285
  398MOL0     H53701  11.157   6.924   8.125  1.9242  1.0592  0.0865
  398MOL0     H53702  11.086   6.762   8.370 -0.7031 -1.1718 -0.8914
  398MOL0     H53703  11.037   6.936   8.368  1.0555  2.3122 -4.0067
  398MOL0     H53704  10.979   6.731   8.151  0.0240 -1.6292  2.6931
  398MOL0     H53705  10.888   6.884   8.171 -2.3708  0.6136  0.8748
  398MOL0     H53706  10.765   6.696   8.261 -1.1812  2.2244  0.1960
  398MOL0     H53707  10.889   6.647   8.349  0.3865 -0.4186 -0.4093
  398MOL0     H53708  10.727   6.906   8.390  0.7043  0.4766 -1.0863
  398MOL0     H53709  10.867   6.867   8.485 -0.3453 -3.1824  2.3160
  398MOL0     H53710  10.613   6.716   8.473  2.0442 -3.3619 -3.2605
  398MOL0     H53711  10.684   6.813   8.607 -0.2343 -0.0099  0.1456
  398MOL0     H53712  11.519   6.555   8.467  0.0284  1.3254 -1.4570
  398MOL0     H53713  11.593   6.473   8.670 -0.6599 -0.4394  2.3025
  398MOL0     H53714  11.644   6.686   9.197 -0.3084  0.9595  0.3922
  398MOL0     H53715  11.686   6.602   9.395  1.5267  0.3808 -2.7099
  398MOL0     H53716  11.218   6.046   9.535 -2.0478  0.2244 -0.0154
  398MOL0     H53717  11.068   6.118   9.346 -0.2092 -1.6748  1.2437
  398MOL0     H53718  11.074   6.099   8.719 -0.5521  1.7677 -2.9376
  398MOL0     H53719  10.880   6.122   8.585 -0.4288 -1.1138  0.1188
  398MOL0     H53720  10.550   6.287   8.779  0.1055  0.3887 -0.5054
  398MOL0     H53721  10.499   6.288   8.611  0.0996  0.9366 -0.0372
  398MOL0     H53722  10.322   6.209   8.739  0.7034  0.7947 -2.0407
  398MOL0     H53723  10.421   6.079   8.820 -0.4274 -2.5073 -1.7232
  398MOL0     H53724  10.441   5.961   8.610 -0.6519  0.1076  0.2170
  398MOL0     H53725  10.372   6.098   8.523  2.0478  0.0639 -0.8043
  398MOL0     H53726  10.169   6.087   8.638  4.1754  3.2049 -0.8505
  398MOL0     H53727  10.202   5.944   8.728 -2.8401 -0.0529  0.2551
  398MOL0     H53728  10.130   5.755   8.365 -4.0002  0.4248  2.3766
  398MOL0     H53729  10.640   6.134   8.939  1.1322 -1.9090  1.6920
  398MOL0     H53730  10.821   6.085   9.065  0.0286  0.2222  0.2532
  399MOL0     O53731   7.233   5.542   8.634  0.5684  0.3779  0.0794
  399MOL0     C53732   7.140   5.609   8.591  0.5013 -0.0474 -0.0866
  399MOL0     O53733   7.049   5.569   8.504 -0.5571 -0.1161  0.0060
  399MOL0     C53734   7.058   5.471   8.415 -0.5515  1.5271  1.0167
  399MOL0     C53735   7.185   5.421   8.374 -0.5085  0.6751  0.1510
  399MOL0     C53736   7.191   5.311   8.294  0.4593  0.5625 -0.1604
  399MOL0     C53737   7.080   5.268   8.222  0.0337  0.2258  0.2550
  399MOL0     O53738   7.085   5.167   8.127 -0.1156  0.4041 -0.0548
  399MOL0     C53739   7.207   5.157   8.048 -1.1339  0.7546 -0.4028
  399MOL0     C53740   7.164   5.203   7.910  0.0592  0.5609 -0.8284
  399MOL0     C53741   7.035   5.141   7.850 -0.8640 -0.1939  0.2230
  399MOL0     C53742   7.056   5.113   7.704  0.7933 -0.1398 -0.8784
  399MOL0     C53743   6.926   5.069   7.631 -0.0437  0.0470 -0.2395
  399MOL0     C53744   6.976   5.012   7.497  0.5274  0.0215 -0.2033
  399MOL0     C53745   6.994   5.123   7.396  0.4174  0.1517  0.2866
  399MOL0     C53746   7.044   5.069   7.264  0.7052  0.1654 -0.1832
  399MOL0     N53747   7.179   5.005   7.281  0.2756  0.3072 -0.6768
  399MOL0     C53748   7.201   4.872   7.294  0.0522  0.3324  0.4407
  399MOL0     C53749   7.332   4.853   7.282 -0.0878  0.5002 -0.2502
  399MOL0     C53750   7.402   4.723   7.283  0.1843  0.3925  0.8559
  399MOL0     C53751   7.543   4.735   7.335 -0.7262 -0.2944 -0.4671
  399MOL0     C53752   7.537   4.671   7.475 -0.4101 -0.3310  0.1602
  399MOL0     C53753   7.671   4.690   7.544 -0.8962  0.4342  0.1002
  399MOL0     O53754   7.678   4.643   7.677 -0.0842 -0.5855  0.2559
  399MOL0     C53755   7.803   4.661   7.730  1.5258  0.1249  0.0574
  399MOL0     C53756   7.888   4.555   7.752  0.1534  0.2760  0.6725
  399MOL0     C53757   8.015   4.562   7.803  0.7181 -0.1100  0.4097
  399MOL0     C53758   8.107   4.443   7.796 -0.7350  0.1831  0.0798
  399MOL0     C53759   8.051   4.690   7.853  0.5436 -0.5259 -0.7838
  399MOL0     C53760   8.189   4.725   7.919  0.3764 -0.0434  0.3684
  399MOL0     O53761   8.298   4.632   7.944 -0.6905  0.4456  0.2887
  399MOL0     C53762   8.412   4.669   8.013  1.1793  1.1469  1.1595
  399MOL0     C53763   8.536   4.614   7.967  0.0127  0.3999 -0.2848
  399MOL0     C53764   8.650   4.633   8.043 -0.9595  1.1118  0.3073
  399MOL0     C53765   8.653   4.710   8.163  0.1194  0.7709 -0.1938
  399MOL0     O53766   8.771   4.736   8.230 -0.1529  0.3105 -0.0100
  399MOL0     C53767   8.835   4.863   8.211 -0.0879  0.0277 -0.5715
  399MOL0     C53768   8.974   4.856   8.259 -0.1668 -1.1839  1.3832
  399MOL0     C53769   9.059   4.991   8.263 -0.1716 -0.8520  0.1568
  399MOL0     C53770   9.030   5.075   8.130 -0.2494 -0.1941  0.2290
  399MOL0     C53771   9.119   5.194   8.136 -0.7620  0.4533  0.5015
  399MOL0     C53772   9.119   5.263   7.997  0.2491 -1.0477 -0.8201
  399MOL0     C53773   9.266   5.284   7.943  0.5357  0.1139 -0.2780
  399MOL0     C53774   9.346   5.161   7.930  0.1242  0.6624  0.3673
  399MOL0    Cl53775   9.520   5.202   7.892  0.8600 -0.5406  0.2483
  399MOL0     C53776   8.536   4.781   8.200 -0.6355  1.0765  0.3838
  399MOL0     C53777   8.419   4.752   8.124  0.8973 -0.4393  0.3405
  399MOL0     O53778   8.211   4.847   7.948 -0.2798 -0.5452 -0.4113
  399MOL0     C53779   7.960   4.805   7.838  0.6252  0.8787 -0.1696
  399MOL0     C53780   7.841   4.793   7.768  0.7349  0.2295 -0.0698
  399MOL0     N53781   7.393   4.980   7.276  0.0013 -0.5831  0.3436
  399MOL0     N53782   7.298   5.064   7.276 -0.3819 -0.2845  0.5237
  399MOL0     C53783   6.952   5.319   8.257 -1.2266  0.1056  0.8088
  399MOL0     C53784   6.937   5.418   8.360 -0.3469 -0.2550 -0.6007
  399MOL0     C53785   7.119   5.734   8.649  0.5305  0.2500  0.1312
  399MOL0     C53786   7.164   5.762   8.776  0.3535 -0.5586 -0.9883
  399MOL0     C53787   7.145   5.889   8.835 -1.5159  0.5723  0.7537
  399MOL0     C53788   7.056   5.978   8.781  0.1463 -0.4774  0.4449
  399MOL0     O53789   7.020   6.096   8.853  0.0711  0.7541 -0.3334
  399MOL0     C53790   6.965   6.214   8.806 -0.3563  0.1022 -0.9069
  399MOL0     C53791   7.074   6.324   8.800 -0.2699  0.0365 -0.1244
  399MOL0     C53792   7.120   6.386   8.932  0.0505  0.5976  0.1396
  399MOL0     C53793   7.015   6.427   9.039 -0.3490  0.8611  1.0753
  399MOL0     C53794   6.926   6.524   8.980  0.5606  0.0589  0.5205
  399MOL0     C53795   6.832   6.589   8.935  0.7310  0.7164 -1.0367
  399MOL0     C53796   7.018   5.950   8.646 -0.5362 -0.4582 -0.0656
  399MOL0     C53797   7.049   5.834   8.578  0.5936 -0.8093 -1.5694
  399MOL0     H53798   7.278   5.467   8.405  0.6546 -0.6468 -1.1987
  399MOL0     H53799   7.287   5.266   8.274  1.4449  1.6294  1.8529
  399MOL0     H53800   7.295   5.215   8.075  0.1604 -0.7318 -1.2002
  399MOL0     H53801   7.234   5.051   8.041 -1.7793  0.5558  0.1097
  399MOL0     H53802   7.144   5.309   7.927 -0.4561 -0.0886  3.8659
  399MOL0     H53803   7.257   5.181   7.857  2.0956 -0.6157  2.9016
  399MOL0     H53804   7.009   5.046   7.898 -2.5891 -0.2854 -0.8125
  399MOL0     H53805   6.955   5.216   7.853  0.2105  0.9770  0.7925
  399MOL0     H53806   7.111   5.198   7.663  0.0583  0.7680 -0.0177
  399MOL0     H53807   7.121   5.025   7.707  0.8744 -0.1042 -1.3731
  399MOL0     H53808   6.880   4.987   7.687  1.5814 -0.8415 -0.1522
  399MOL0     H53809   6.852   5.149   7.621 -1.3289 -1.1510 -0.5948
  399MOL0     H53810   7.073   4.964   7.508  0.9380  0.8702 -0.0449
  399MOL0     H53811   6.901   4.941   7.460  0.2567  0.1431  0.1015
  399MOL0     H53812   6.899   5.173   7.374  1.4219  2.6178  1.0837
  399MOL0     H53813   7.060   5.204   7.430 -1.8945  3.2762 -2.0286
  399MOL0     H53814   7.039   5.133   7.175 -1.9502 -2.5951 -2.2524
  399MOL0     H53815   6.974   4.988   7.240  1.2235 -0.4283  0.2749
  399MOL0     H53816   7.127   4.796   7.318  0.9541 -0.8448 -0.3794
  399MOL0     H53817   7.346   4.654   7.348  1.7058  0.1762  1.9801
  399MOL0     H53818   7.418   4.690   7.180  1.6868 -1.8167  1.6979
  399MOL0     H53819   7.583   4.837   7.346  4.7970 -2.3175  1.8967
  399MOL0     H53820   7.620   4.701   7.264  0.9015  1.1257  0.5296
  399MOL0     H53821   7.526   4.563   7.473 -0.1482 -0.4331  2.2797
  399MOL0     H53822   7.453   4.702   7.537 -2.5341 -5.9926  0.6839
  399MOL0     H53823   7.693   4.797   7.550  0.4517  0.1887 -0.1336
  399MOL0     H53824   7.748   4.642   7.482  1.7301  0.8372  2.7968
  399MOL0     H53825   7.868   4.454   7.716 -1.8912  0.3471  1.4597
  399MOL0     H53826   8.063   4.366   7.732  1.3511  0.0425 -1.2961
  399MOL0     H53827   8.204   4.471   7.753  0.9838 -1.7114  2.4661
  399MOL0     H53828   8.124   4.406   7.897 -2.4367  3.7512  1.8675
  399MOL0     H53829   8.552   4.560   7.874  2.6189  1.1891 -0.3834
  399MOL0     H53830   8.733   4.571   8.012 -0.5565  1.8699 -0.1540
  399MOL0     H53831   8.832   4.897   8.107  0.1638  0.3604 -0.4736
  399MOL0     H53832   8.786   4.936   8.276  1.0758  1.8592 -1.6567
  399MOL0     H53833   8.974   4.834   8.366  1.8513  0.8946  1.8877
  399MOL0     H53834   9.030   4.774   8.212 -3.0336 -1.4234 -2.0471
  399MOL0     H53835   9.167   4.977   8.273 -0.0088  0.2502  0.0494
  399MOL0     H53836   9.027   5.059   8.342 -0.4859  0.1286 -0.7899
  399MOL0     H53837   9.054   5.013   8.043  0.9402 -1.9820  1.7334
  399MOL0     H53838   8.930   5.116   8.136 -0.5869 -1.1928  2.2389
  399MOL0     H53839   9.218   5.164   8.171  0.3644 -1.4535 -3.6512
  399MOL0     H53840   9.080   5.265   8.210  1.6618  4.8257 -1.9675
  399MOL0     H53841   9.046   5.214   7.931 -2.3550  0.2510  0.9275
  399MOL0     H53842   9.075   5.361   8.013 -2.1633 -1.8676 -1.8687
  399MOL0     H53843   9.323   5.346   8.014  0.7641 -1.2017  0.7211
  399MOL0     H53844   9.254   5.325   7.842 -0.7799 -0.0377 -0.1991
  399MOL0     H53845   9.298   5.112   7.845  1.0438 -0.7617  0.6217
  399MOL0     H53846   9.344   5.104   8.024 -0.1554  1.7890  1.0657
  399MOL0     H53847   8.545   4.839   8.291 -1.9344  3.4144 -0.9015
  399MOL0     H53848   8.330   4.811   8.149  1.6859 -0.1311  2.7047
  399MOL0     H53849   7.985   4.902   7.877  1.8905  0.0253  1.2444
  399MOL0     H53850   7.770   4.870   7.738  0.9391  0.5211  0.1862
  399MOL0     H53851   6.873   5.276   8.197 -1.9658  1.4943  0.7315
  399MOL0     H53852   6.840   5.459   8.388 -0.7807 -1.3095 -0.5069
  399MOL0     H53853   7.234   5.695   8.824  0.0646 -1.0609 -1.2613
  399MOL0     H53854   7.191   5.916   8.930  0.5079 -2.3544  0.7190
  399MOL0     H53855   6.918   6.192   8.710 -3.5426 -1.6207  0.8929
  399MOL0     H53856   6.871   6.237   8.857 -1.2122 -0.9003 -1.9941
  399MOL0     H53857   7.051   6.408   8.735  2.0054  1.3194  0.6202
  399MOL0     H53858   7.164   6.281   8.754  1.0630 -1.0917  3.1825
  399MOL0     H53859   7.176   6.478   8.914  0.3757  0.0912 -1.5681
  399MOL0     H53860   7.190   6.319   8.982 -0.0869  2.0188  2.3872
  399MOL0     H53861   7.058   6.485   9.121  1.7658  0.5859  0.2214
  399MOL0     H53862   6.977   6.330   9.072 -1.4107  0.4392 -1.2030
  399MOL0     H53863   6.750   6.650   8.902  1.8055  0.5414 -4.4077
  399MOL0     H53864   6.960   6.012   8.578 -1.5390  0.0869  1.2301
  399MOL0     H53865   7.018   5.825   8.475  0.9799  3.6098 -2.2432
  400MOL0     O53866   3.556   4.470   4.870  0.2213 -0.1572  0.0152
  400MOL0     C53867   3.568   4.580   4.808 -0.5107  0.3728 -0.9712
  400MOL0     O53868   3.676   4.619   4.728 -0.3900  1.5076 -0.2406
  400MOL0     C53869   3.746   4.506   4.685 -0.6214 -0.3289  0.3096
  400MOL0     C53870   3.712   4.442   4.565 -0.8561  1.0508 -0.3177
  400MOL0     C53871   3.792   4.330   4.515  0.8776 -0.4250  0.0499
  400MOL0     C53872   3.906   4.297   4.578  0.5369  1.6415 -0.5152
  400MOL0     O53873   3.974   4.189   4.551 -0.0433 -0.7765 -0.2480
  400MOL0     C53874   4.116   4.228   4.533  1.0337 -0.4469  0.5564
  400MOL0     C53875   4.195   4.139   4.636 -0.4817 -0.3121  0.5381
  400MOL0     C53876   4.201   3.995   4.585  0.4669 -0.4034  0.5837
  400MOL0     C53877   4.281   3.895   4.669  0.1023  0.6868 -0.0332
  400MOL0     C53878   4.278   3.755   4.599 -0.2674 -0.6592  0.8866
  400MOL0     C53879   4.375   3.653   4.660  0.4782 -0.3033 -0.4256
  400MOL0     C53880   4.394   3.523   4.582 -0.7594 -1.0799 -0.6878
  400MOL0     C53881   4.267   3.443   4.537 -0.1215  0.7641  0.0592
  400MOL0     N53882   4.190   3.408   4.658 -0.1512 -0.5967 -0.6006
  400MOL0     C53883   4.227   3.325   4.758  1.0226  0.4916  0.6743
  400MOL0     C53884   4.126   3.317   4.851  0.0753 -0.2879  0.1797
  400MOL0     C53885   4.120   3.230   4.969 -0.1822  0.0180  0.6637
  400MOL0     C53886   4.085   3.085   4.927 -0.3788 -0.2099 -0.2389
  400MOL0     C53887   4.124   2.976   5.039 -0.4842 -0.5175  0.6532
  400MOL0     C53888   4.029   2.981   5.154 -0.2629  0.8911 -0.3899
  400MOL0     O53889   4.063   2.879   5.251 -0.3651  0.3741  0.4438
  400MOL0     C53890   4.028   2.749   5.212 -0.4255  0.8057  0.1001
  400MOL0     C53891   3.953   2.706   5.103  0.5917  1.4177 -0.1245
  400MOL0     C53892   3.954   2.569   5.054  0.1280 -0.2805  0.3617
  400MOL0     C53893   3.888   2.549   4.916  0.8720  0.4018 -0.4643
  400MOL0     C53894   3.991   2.474   5.148 -1.9336  0.1480  1.4612
  400MOL0     C53895   3.994   2.325   5.112  0.0554 -1.2518 -0.6058
  400MOL0     O53896   4.087   2.248   5.172  0.3416 -0.1051  0.1034
  400MOL0     C53897   4.117   2.120   5.125  0.1469 -0.2468  0.5178
  400MOL0     C53898   4.179   2.047   5.225  0.3562 -0.1266  0.6642
  400MOL0     C53899   4.232   1.924   5.188 -0.0095  0.0171  0.1711
  400MOL0     C53900   4.216   1.868   5.057 -0.1645  1.0090 -0.3279
  400MOL0     O53901   4.295   1.753   5.021 -0.0517  0.0493  0.2097
  400MOL0     C53902   4.410   1.775   4.948  0.1997 -0.4847 -0.6399
  400MOL0     C53903   4.531   1.693   4.996 -0.5405 -0.8200 -0.0945
  400MOL0     C53904   4.652   1.732   4.908 -1.0770 -0.4284  0.6852
  400MOL0     C53905   4.762   1.648   4.941 -0.8716 -0.0863 -0.2505
  400MOL0     C53906   4.894   1.662   4.855  0.6230 -0.2827  0.0445
  400MOL0     C53907   4.986   1.545   4.875 -0.5874 -0.9679 -0.3110
  400MOL0     C53908   5.026   1.510   5.017 -0.7895 -0.3285  0.0809
  400MOL0     C53909   5.095   1.615   5.089 -0.4730 -0.4495 -0.4187
  400MOL0    Cl53910   5.255   1.675   5.028 -0.5381  0.7618 -0.0475
  400MOL0     C53911   4.137   1.934   4.968  0.0096 -0.5193 -0.0962
  400MOL0     C53912   4.083   2.063   5.002 -0.2405 -0.4891  0.5894
  400MOL0     O53913   3.896   2.285   5.061  0.6026  0.6295  0.2580
  400MOL0     C53914   4.054   2.512   5.264 -0.2086 -0.2414 -0.5652
  400MOL0     C53915   4.073   2.649   5.290  1.0720  0.3562 -0.9362
  400MOL0     N53916   4.025   3.404   4.811  0.1798  0.4199  0.3625
  400MOL0     N53917   4.059   3.445   4.691  0.1082  0.5923 -0.1384
  400MOL0     C53918   3.928   4.360   4.699 -0.4176 -0.9014 -0.0049
  400MOL0     C53919   3.865   4.473   4.740 -0.3756  1.0760  0.1211
  400MOL0     C53920   3.466   4.695   4.837 -0.4365 -0.1042  0.3285
  400MOL0     C53921   3.364   4.667   4.926 -0.2374  0.2673 -0.9164
  400MOL0     C53922   3.277   4.776   4.978  0.1762 -0.3196  0.2601
  400MOL0     C53923   3.307   4.911   4.943  0.4657  0.9130  1.3541
  400MOL0     O53924   3.262   5.019   5.010 -0.9371 -0.6804 -0.8519
  400MOL0     C53925   3.131   5.023   5.066  0.9362 -0.1137  0.6961
  400MOL0     C53926   3.111   5.174   5.102 -0.0149  0.3575 -0.2955
  400MOL0     C53927   2.979   5.195   5.181 -0.4781  0.1480  0.1845
  400MOL0     C53928   3.003   5.335   5.241  0.1822 -0.7528 -0.0872
  400MOL0     C53929   2.874   5.370   5.304  0.0433 -0.2530  0.2111
  400MOL0     C53930   2.769   5.394   5.363  0.7415 -0.5862  0.9579
  400MOL0     C53931   3.411   4.925   4.853  0.4628  0.5473  0.5162
  400MOL0     C53932   3.478   4.824   4.787 -0.8716  0.4743 -0.1375
  400MOL0     H53933   3.618   4.467   4.517 -0.2137  2.4116 -0.9416
  400MOL0     H53934   3.756   4.275   4.429 -1.7636  1.4653 -0.1869
  400MOL0     H53935   4.150   4.207   4.431  1.4067 -0.9395  0.7754
  400MOL0     H53936   4.142   4.333   4.544  1.3685 -0.5933  1.2444
  400MOL0     H53937   4.298   4.176   4.632 -0.7071  0.2509 -3.5282
  400MOL0     H53938   4.146   4.132   4.734 -1.7317 -1.2516 -0.1389
  400MOL0     H53939   4.099   3.965   4.561  0.0109  2.3734 -1.4032
  400MOL0     H53940   4.257   3.998   4.492 -0.9849  3.3028 -0.3190
  400MOL0     H53941   4.381   3.937   4.679  0.3189 -0.2371  2.5409
  400MOL0     H53942   4.242   3.884   4.771 -2.1940 -1.9562 -1.0389
  400MOL0     H53943   4.179   3.716   4.575 -0.9072  2.0593 -1.4500
  400MOL0     H53944   4.337   3.782   4.511  2.3380  0.5721  2.8837
  400MOL0     H53945   4.472   3.701   4.677 -0.4677  1.1171  1.3717
  400MOL0     H53946   4.350   3.629   4.764  2.0639 -1.0389 -0.1791
  400MOL0     H53947   4.458   3.552   4.499  0.1748  1.4715  0.8302
  400MOL0     H53948   4.449   3.456   4.649  1.5102  1.9550  0.6874
  400MOL0     H53949   4.289   3.349   4.487 -0.5182  1.1456 -0.8603
  400MOL0     H53950   4.217   3.512   4.468  1.1244  0.0892 -1.5754
  400MOL0     H53951   4.325   3.278   4.759  1.0857  0.4118 -1.7665
  400MOL0     H53952   4.215   3.232   5.022  0.1105  1.3854  0.1479
  400MOL0     H53953   4.060   3.284   5.043  4.2230  2.1267  3.1260
  400MOL0     H53954   4.141   3.058   4.837 -2.4028 -1.3411 -1.2368
  400MOL0     H53955   3.977   3.092   4.911 -0.6749 -0.9955  1.2678
  400MOL0     H53956   4.227   3.000   5.068  0.4224  0.0864 -2.6582
  400MOL0     H53957   4.134   2.881   4.987 -2.5774  1.8302 -4.7412
  400MOL0     H53958   3.927   2.970   5.118 -0.5157 -1.8032  0.9319
  400MOL0     H53959   4.038   3.082   5.195 -0.0025  1.8967 -2.7706
  400MOL0     H53960   3.900   2.776   5.039  0.3838  1.0350 -0.3732
  400MOL0     H53961   3.974   2.520   4.854  1.3818  1.1468 -0.1156
  400MOL0     H53962   3.806   2.477   4.912 -1.7574  3.2165 -3.4926
  400MOL0     H53963   3.853   2.643   4.873  1.8023  1.6428  1.3976
  400MOL0     H53964   4.196   2.067   5.331 -1.0270 -0.9749  1.0810
  400MOL0     H53965   4.287   1.877   5.268 -3.4845  0.2123  2.8994
  400MOL0     H53966   4.386   1.753   4.844 -2.3780  2.6250 -0.8660
  400MOL0     H53967   4.444   1.878   4.963 -0.3138 -0.5992  1.8763
  400MOL0     H53968   4.550   1.714   5.101  2.6202 -1.9994 -0.3071
  400MOL0     H53969   4.498   1.589   4.996 -1.9664 -0.3959 -0.2721
  400MOL0     H53970   4.663   1.840   4.921  2.6325 -0.5701 -0.3175
  400MOL0     H53971   4.633   1.724   4.800  3.5840 -1.1472 -0.2777
  400MOL0     H53972   4.779   1.664   5.048 -4.1603  0.6233  0.2783
  400MOL0     H53973   4.745   1.539   4.943 -0.3926 -0.1489  0.9767
  400MOL0     H53974   4.933   1.762   4.877 -0.5845  0.2530 -0.1271
  400MOL0     H53975   4.863   1.655   4.750  1.1798 -1.6122 -0.0514
  400MOL0     H53976   4.951   1.451   4.832  0.0941 -0.7187 -1.4480
  400MOL0     H53977   5.078   1.569   4.821 -1.5987  0.1982 -1.5870
  400MOL0     H53978   5.094   1.424   5.009 -1.1772 -0.5635 -0.8507
  400MOL0     H53979   4.948   1.477   5.086 -1.9562  0.0367 -1.0251
  400MOL0     H53980   5.098   1.594   5.196 -0.8630 -0.3849 -0.3938
  400MOL0     H53981   5.035   1.706   5.084  0.2174  0.1139  1.0295
  400MOL0     H53982   4.128   1.891   4.868 -3.2969  0.5214 -0.3351
  400MOL0     H53983   4.017   2.118   4.935  2.7409  2.2295 -0.3674
  400MOL0     H53984   4.082   2.440   5.341 -2.7087 -1.2175 -0.5029
  400MOL0     H53985   4.109   2.682   5.387  0.8004  0.7221 -0.9562
  400MOL0     H53986   4.000   4.319   4.769 -0.8544  1.1867  1.8016
  400MOL0     H53987   3.906   4.527   4.824  0.9742 -0.6791  0.6568
  400MOL0     H53988   3.350   4.562   4.949 -0.2687  0.9444  2.7590
  400MOL0     H53989   3.195   4.749   5.045  0.9198  1.2600  1.8884
  400MOL0     H53990   3.056   5.000   4.990  1.2724  0.7703  0.0795
  400MOL0     H53991   3.128   4.951   5.148 -0.2424 -2.2829 -1.1159
  400MOL0     H53992   3.117   5.232   5.009 -1.3776  0.5116 -0.3208
  400MOL0     H53993   3.191   5.199   5.172 -0.6425  1.2294  0.1286
  400MOL0     H53994   2.962   5.114   5.253 -1.6243 -1.5135 -1.8556
  400MOL0     H53995   2.897   5.201   5.108 -1.3108  1.3371  1.1823
  400MOL0     H53996   3.030   5.419   5.176 -2.5951  1.0032  0.8286
  400MOL0     H53997   3.094   5.328   5.302 -0.9608 -0.6664  1.7218
  400MOL0     H53998   2.675   5.421   5.406  0.9974  2.8066 -0.2621
  400MOL0     H53999   3.456   5.019   4.823 -0.5859  1.0811  0.5892
  400MOL0     H54000   3.549   4.849   4.709 -1.4222 -2.3626 -1.6817
  401MOL0     O54001   2.434   9.692  10.836  0.4550 -0.4857 -0.5214
  401MOL0     C54002   2.309   9.707  10.847  0.1840  0.7129 -0.3814
  401MOL0     O54003   2.245   9.792  10.932 -0.4476  0.1358  0.4270
  401MOL0     C54004   2.304   9.886  11.018 -0.0616 -0.4565  0.4368
  401MOL0     C54005   2.225  10.003  11.052 -0.3465 -0.2903  0.4379
  401MOL0     C54006   2.273  10.112  11.121  0.6644 -0.0202 -0.5385
  401MOL0     C54007   2.403  10.102  11.178 -0.0686  0.2626 -0.7942
  401MOL0     O54008   2.471  10.186  11.269 -0.6185  0.3584 -0.0677
  401MOL0     C54009   2.390  10.272  11.342  0.6834 -0.5582 -0.0791
  401MOL0     C54010   2.472  10.379  11.415 -0.3906 -0.1939  0.4112
  401MOL0     C54011   2.525  10.486  11.318 -0.4007  1.1278 -0.0958
  401MOL0     C54012   2.611  10.589  11.385  0.8318 -0.0712  0.3608
  401MOL0     C54013   2.656  10.708  11.301 -0.2524  0.7104  0.3362
  401MOL0     C54014   2.557  10.810  11.298  0.3570 -1.1570 -0.0730
  401MOL0     C54015   2.615  10.929  11.225  1.2784 -0.1133 -0.5950
  401MOL0     C54016   2.608  10.908  11.070  0.7006  0.3930  0.9154
  401MOL0     N54017   2.742  10.860  11.017  0.8284  0.2107  0.5944
  401MOL0     C54018   2.751  10.826  10.885  0.7461  0.4643  0.5648
  401MOL0     C54019   2.873  10.763  10.864  0.2271  0.7310  0.0898
  401MOL0     C54020   2.926  10.702  10.734  0.1621  0.5122  1.2211
  401MOL0     C54021   3.077  10.706  10.725 -0.2344 -0.2925 -0.3892
  401MOL0     C54022   3.130  10.839  10.654 -0.7625  0.1755  0.2809
  401MOL0     C54023   3.278  10.817  10.607  0.4311  0.8527  0.5015
  401MOL0     O54024   3.279  10.725  10.500 -1.0422 -0.8712  0.4546
  401MOL0     C54025   3.402  10.712  10.435 -0.6191  0.3916  0.5169
  401MOL0     C54026   3.529  10.754  10.473 -0.3115 -0.9114 -0.9148
  401MOL0     C54027   3.641  10.720  10.411  0.8402 -0.6970  0.1341
  401MOL0     C54028   3.774  10.785  10.454  0.5524 -0.2109  0.1139
  401MOL0     C54029   3.640  10.648  10.282  0.5064  0.7369  0.6880
  401MOL0     C54030   3.747  10.616  10.186 -0.2996 -0.8471  0.0715
  401MOL0     O54031   3.714  10.558  10.066  0.5114  0.5012 -0.1984
  401MOL0     C54032   3.797  10.527   9.962 -1.2144 -0.0479  0.0658
  401MOL0     C54033   3.939  10.537   9.969 -0.2990 -0.1559  0.4857
  401MOL0     C54034   4.022  10.515   9.856  0.3256  0.3355 -0.8198
  401MOL0     C54035   3.968  10.479   9.739 -0.9114 -0.6104  0.2984
  401MOL0     O54036   4.061  10.459   9.634  0.7804 -0.5631 -0.5686
  401MOL0     C54037   4.002  10.423   9.515  0.4486 -0.4263 -0.4392
  401MOL0     C54038   4.112  10.388   9.417  0.9471  0.9688  0.4117
  401MOL0     C54039   4.156  10.245   9.442 -0.1612  0.4477  0.2378
  401MOL0     C54040   4.224  10.187   9.317 -0.6744  0.1263 -0.0350
  401MOL0     C54041   4.372  10.210   9.299  0.6470  1.2976 -0.3612
  401MOL0     C54042   4.451  10.179   9.426  0.6335  0.3124 -0.3786
  401MOL0     C54043   4.597  10.135   9.427 -0.6636 -0.4599  0.3586
  401MOL0     C54044   4.688  10.226   9.342 -0.1029 -0.2252 -0.4465
  401MOL0    Cl54045   4.846  10.157   9.303  0.1101  0.5412  0.0877
  401MOL0     C54046   3.828  10.457   9.732  0.4682  0.7247 -0.5843
  401MOL0     C54047   3.745  10.477   9.848 -0.0414  0.3283 -0.0706
  401MOL0     O54048   3.855  10.624  10.236 -1.0020  0.2616 -0.7993
  401MOL0     C54049   3.512  10.612  10.239  0.2672 -1.0241 -0.2895
  401MOL0     C54050   3.398  10.637  10.317 -0.9076 -0.3242 -0.5164
  401MOL0     N54051   2.947  10.807  10.972  0.1489  0.6040 -0.7187
  401MOL0     N54052   2.873  10.861  11.070  0.4196 -0.7203 -0.4026
  401MOL0     C54053   2.482   9.997  11.139 -0.7685 -0.2188 -0.6508
  401MOL0     C54054   2.433   9.889  11.064 -0.7350  0.8388  0.7572
  401MOL0     C54055   2.224   9.625  10.759  0.7062  1.4680 -1.0302
  401MOL0     C54056   2.089   9.658  10.741  0.3848  0.1921  0.2540
  401MOL0     C54057   2.009   9.567  10.672 -0.6809  0.3236  0.1217
  401MOL0     C54058   2.054   9.443  10.628 -0.1021  0.7285 -0.2219
  401MOL0     O54059   1.984   9.350  10.555 -0.7615 -0.4079  0.4866
  401MOL0     C54060   1.919   9.253  10.625  0.5491 -0.3714 -0.1894
  401MOL0     C54061   1.982   9.120  10.639 -0.5055 -0.7067  0.9416
  401MOL0     C54062   2.009   9.040  10.507  0.1609  0.2190 -0.2107
  401MOL0     C54063   2.071   8.906  10.550 -0.0432  0.2014  0.7789
  401MOL0     C54064   1.975   8.823  10.628  1.2002  0.0141 -0.4883
  401MOL0     C54065   1.904   8.752  10.689  0.1960 -0.8279  0.4722
  401MOL0     C54066   2.186   9.409  10.644 -1.1875 -0.3583 -1.2265
  401MOL0     C54067   2.270   9.505  10.710  0.5451  0.1150  0.4445
  401MOL0     H54068   2.125  10.012  11.012  0.3492 -1.0448 -1.6525
  401MOL0     H54069   2.201  10.190  11.144 -1.3018 -1.7961 -0.3925
  401MOL0     H54070   2.314  10.324  11.282  0.6370  0.9316  1.1889
  401MOL0     H54071   2.341  10.219  11.425  3.4796 -1.2164  1.2739
  401MOL0     H54072   2.407  10.439  11.478 -1.5653 -1.7027  0.7012
  401MOL0     H54073   2.553  10.340  11.477 -1.7548  0.2304  2.5412
  401MOL0     H54074   2.568  10.442  11.228 -0.5095 -0.0934  0.4364
  401MOL0     H54075   2.436  10.541  11.287 -2.0980  0.1159  2.5764
  401MOL0     H54076   2.544  10.632  11.460 -2.0071  2.2900 -3.2398
  401MOL0     H54077   2.695  10.535  11.431 -1.3935 -3.0737  1.1999
  401MOL0     H54078   2.745  10.755  11.344 -0.0630  0.7078 -0.0410
  401MOL0     H54079   2.690  10.668  11.204  0.7208  1.1052  0.4977
  401MOL0     H54080   2.461  10.779  11.258  0.3980 -2.4207  0.7528
  401MOL0     H54081   2.543  10.849  11.399 -1.1293 -1.7050 -0.0537
  401MOL0     H54082   2.565  11.018  11.262  0.2882 -1.6045  1.9118
  401MOL0     H54083   2.717  10.946  11.260 -0.2121  0.1694  4.4860
  401MOL0     H54084   2.585  11.003  11.022 -0.3873 -1.5387 -2.7720
  401MOL0     H54085   2.531  10.842  11.030 -0.2473  2.8101 -1.5858
  401MOL0     H54086   2.666  10.821  10.817  1.1671  2.4785 -0.1785
  401MOL0     H54087   2.887  10.601  10.723 -2.6603  1.4001  2.1622
  401MOL0     H54088   2.887  10.748  10.642 -3.6713 -1.9218  1.4319
  401MOL0     H54089   3.111  10.610  10.686 -1.7737 -2.1611  2.5063
  401MOL0     H54090   3.113  10.701  10.828 -1.9515 -1.9691  0.1789
  401MOL0     H54091   3.143  10.920  10.727  5.1349 -2.4731  2.8315
  401MOL0     H54092   3.068  10.853  10.566 -0.7061 -1.9567 -0.1449
  401MOL0     H54093   3.338  10.770  10.685  1.3735 -0.3505 -0.8786
  401MOL0     H54094   3.324  10.909  10.569 -1.9456  2.2434  0.7978
  401MOL0     H54095   3.544  10.818  10.559  0.8994 -0.4942 -1.4227
  401MOL0     H54096   3.767  10.807  10.561 -1.7184 -1.8550  0.3795
  401MOL0     H54097   3.852  10.709  10.451  2.5651  1.7715 -1.4373
  401MOL0     H54098   3.791  10.869  10.386 -2.1157  0.0340 -0.3829
  401MOL0     H54099   3.990  10.558  10.062  0.4226 -0.2796  0.1238
  401MOL0     H54100   4.129  10.517   9.877 -0.4655  1.8404  4.7138
  401MOL0     H54101   3.944  10.333   9.536  0.5220 -0.2964  0.3933
  401MOL0     H54102   3.939  10.504   9.478  0.3038 -0.6770 -0.7427
  401MOL0     H54103   4.083  10.423   9.318  0.0123  1.2491  0.7706
  401MOL0     H54104   4.198  10.452   9.437  2.9905 -1.8626  1.3283
  401MOL0     H54105   4.085  10.165   9.467 -0.4659  0.2223 -1.2706
  401MOL0     H54106   4.217  10.248   9.534  1.6001 -0.7220 -0.8322
  401MOL0     H54107   4.208  10.079   9.326  1.0208 -0.3041 -1.7115
  401MOL0     H54108   4.173  10.225   9.228 -0.4017 -3.8486 -2.0799
  401MOL0     H54109   4.391  10.315   9.274 -0.3295  2.6834  3.8523
  401MOL0     H54110   4.401  10.154   9.209  4.3124 -2.0465  2.5026
  401MOL0     H54111   4.446  10.271   9.484  0.7163 -0.7679  1.4299
  401MOL0     H54112   4.396  10.103   9.482 -0.3786  2.6060  1.8946
  401MOL0     H54113   4.598  10.044   9.366  0.6817  2.7247 -5.0181
  401MOL0     H54114   4.641  10.116   9.526  2.1958  1.0803 -0.5031
  401MOL0     H54115   4.707  10.316   9.401 -0.2839 -0.4486 -0.0412
  401MOL0     H54116   4.643  10.252   9.245  1.2910  0.8846 -0.8301
  401MOL0     H54117   3.779  10.428   9.640 -1.3655  0.8874  0.2826
  401MOL0     H54118   3.643  10.441   9.835  0.7185 -1.0871 -2.9802
  401MOL0     H54119   3.495  10.548  10.152 -2.1480  0.0208 -0.6663
  401MOL0     H54120   3.301  10.591  10.299 -1.7747 -0.5073  3.6239
  401MOL0     H54121   2.583   9.974  11.173 -1.3213 -0.6329  0.7908
  401MOL0     H54122   2.492   9.802  11.035 -0.6479  1.6240 -1.6224
  401MOL0     H54123   2.038   9.740  10.791 -1.8212 -1.5355  1.0246
  401MOL0     H54124   1.902   9.577  10.656 -1.0823 -0.9557  1.7029
  401MOL0     H54125   1.896   9.284  10.728 -1.3190 -1.8980 -0.0989
  401MOL0     H54126   1.816   9.229  10.597  0.1972 -3.7271  3.2070
  401MOL0     H54127   1.909   9.061  10.696 -1.6480 -2.9136 -2.4682
  401MOL0     H54128   2.080   9.135  10.685 -0.1680 -0.0335  0.0299
  401MOL0     H54129   2.076   9.101  10.445  1.5088  0.0030  0.9662
  401MOL0     H54130   1.915   9.032  10.452  0.4820  0.1065 -0.7520
  401MOL0     H54131   2.148   8.941  10.619 -0.2067  1.8557  0.1556
  401MOL0     H54132   2.111   8.864  10.457 -2.1639  1.2124 -0.6750
  401MOL0     H54133   1.836   8.692  10.746 -1.0782  0.3314  0.2283
  401MOL0     H54134   2.225   9.318  10.600  0.3909  1.0135 -2.8196
  401MOL0     H54135   2.374   9.478  10.721  1.4334  2.5916 -1.0708
  402MOL0     O54136   5.028   2.885   5.236 -0.0938  0.0304  0.7792
  402MOL0     C54137   4.988   2.968   5.157 -0.1962  0.7409  1.1056
  402MOL0     O54138   4.925   3.084   5.184 -0.6906 -0.9706 -0.0269
  402MOL0     C54139   4.928   3.125   5.312  0.4208 -0.2696 -0.0553
  402MOL0     C54140   4.836   3.083   5.410  0.0202 -0.0621  0.4831
  402MOL0     C54141   4.851   3.127   5.539  0.0308 -0.2391 -0.7516
  402MOL0     C54142   4.956   3.214   5.578  0.1907 -0.2724  0.2445
  402MOL0     O54143   4.989   3.251   5.700 -0.3277  0.0012 -0.1399
  402MOL0     C54144   4.898   3.224   5.814 -0.5601  0.0218  1.1477
  402MOL0     C54145   4.952   3.290   5.940  0.2300 -0.3776 -0.8192
  402MOL0     C54146   5.045   3.203   6.017 -0.4189 -1.4080 -1.0068
  402MOL0     C54147   5.136   3.285   6.118  0.0660  0.0575  0.1995
  402MOL0     C54148   5.237   3.192   6.191 -1.0982 -0.9913  0.1867
  402MOL0     C54149   5.339   3.279   6.273  0.2179 -0.1134 -1.0323
  402MOL0     C54150   5.284   3.361   6.393  0.2502  0.1769 -0.0270
  402MOL0     C54151   5.180   3.296   6.494 -0.0402 -0.3183 -0.1198
  402MOL0     N54152   5.143   3.390   6.591 -0.7438 -0.2021  0.3549
  402MOL0     C54153   5.180   3.389   6.721 -0.6833 -0.1071 -0.1385
  402MOL0     C54154   5.122   3.502   6.775 -0.4472  1.3844  0.1485
  402MOL0     C54155   5.131   3.548   6.924  0.3177 -0.1048  0.1484
  402MOL0     C54156   5.064   3.441   7.015 -0.5187 -0.9367 -0.2190
  402MOL0     C54157   5.076   3.486   7.160  0.3182 -0.6803  0.0800
  402MOL0     C54158   4.959   3.432   7.239 -0.5041 -0.4462  0.2464
  402MOL0     O54159   4.974   3.445   7.380  0.0000  0.0148  0.0219
  402MOL0     C54160   4.872   3.410   7.457  0.2044 -0.0233 -1.4163
  402MOL0     C54161   4.754   3.360   7.407  1.0844 -0.8200 -0.7643
  402MOL0     C54162   4.648   3.308   7.499 -0.0447 -0.5497  0.0677
  402MOL0     C54163   4.523   3.267   7.427  0.7767  0.7102  0.5350
  402MOL0     C54164   4.674   3.298   7.640  0.4352  0.0736 -0.1158
  402MOL0     C54165   4.583   3.235   7.740  0.0334 -0.5061  0.1027
  402MOL0     O54166   4.605   3.252   7.867  0.8709  0.1882 -0.4277
  402MOL0     C54167   4.528   3.178   7.962  0.7760 -0.8127  0.9797
  402MOL0     C54168   4.549   3.046   7.983  0.1973 -0.1645  0.0307
  402MOL0     C54169   4.477   2.976   8.079 -0.3327  0.6362 -0.4614
  402MOL0     C54170   4.369   3.041   8.146 -0.5100  0.3354 -0.1287
  402MOL0     O54171   4.288   2.959   8.228  0.2832 -0.2450 -0.6120
  402MOL0     C54172   4.205   3.004   8.334  0.2811 -0.2943 -0.7434
  402MOL0     C54173   4.160   2.884   8.428  0.5310 -0.2463  0.3734
  402MOL0     C54174   4.128   2.907   8.584 -0.2504 -0.9439 -0.1009
  402MOL0     C54175   4.061   2.788   8.663 -0.0788  0.5542  0.5936
  402MOL0     C54176   3.907   2.800   8.690  1.1427 -0.2858 -0.3352
  402MOL0     C54177   3.820   2.820   8.562 -0.4556 -0.0661  0.2957
  402MOL0     C54178   3.682   2.869   8.593 -0.1151  0.3261 -0.5165
  402MOL0     C54179   3.609   2.951   8.486 -0.5372 -0.7998 -0.4552
  402MOL0    Cl54180   3.684   3.105   8.418 -0.4577  0.3287 -0.1892
  402MOL0     C54181   4.331   3.165   8.103  0.7282 -0.1204 -0.2286
  402MOL0     C54182   4.423   3.236   8.022  0.0293 -0.1184  0.3353
  402MOL0     O54183   4.491   3.171   7.693  0.5570  0.6504  0.2432
  402MOL0     C54184   4.796   3.360   7.700 -0.2905 -0.3661 -0.4355
  402MOL0     C54185   4.884   3.412   7.602  0.6579  0.0449 -1.4496
  402MOL0     N54186   5.053   3.567   6.678  0.2411 -0.7422 -0.1982
  402MOL0     N54187   5.074   3.507   6.563  0.2612 -0.3890  0.1934
  402MOL0     C54188   5.031   3.279   5.470  0.3482  0.8665 -0.2711
  402MOL0     C54189   5.015   3.232   5.338  0.2850 -0.3610 -0.2021
  402MOL0     C54190   5.014   2.944   5.015  1.2948  0.7292  0.7279
  402MOL0     C54191   5.104   2.844   4.970 -0.2938  0.1217  0.6353
  402MOL0     C54192   5.132   2.832   4.825  0.5967  0.3901 -0.3630
  402MOL0     C54193   5.067   2.911   4.731  0.7654 -0.8966  0.0390
  402MOL0     O54194   5.090   2.869   4.600 -0.1303  0.2087 -0.0144
  402MOL0     C54195   5.025   2.928   4.481  0.7039 -0.3924 -0.4789
  402MOL0     C54196   4.942   2.826   4.412 -0.3471  1.0507  0.7023
  402MOL0     C54197   4.896   2.879   4.271 -0.3039 -0.0044  0.5708
  402MOL0     C54198   4.821   2.780   4.187 -0.2499 -0.2012  0.0857
  402MOL0     C54199   4.688   2.771   4.230  0.3927  0.7311  0.6830
  402MOL0     C54200   4.573   2.754   4.275  0.2345  0.3346  0.0084
  402MOL0     C54201   4.971   2.999   4.778 -0.2852 -0.1029 -0.6959
  402MOL0     C54202   4.945   3.017   4.918 -0.1817  0.7257  0.4196
  402MOL0     H54203   4.762   3.006   5.387 -1.0635  1.4909 -1.4868
  402MOL0     H54204   4.779   3.087   5.610  0.4772 -0.3220 -0.3488
  402MOL0     H54205   4.800   3.266   5.791 -0.9288  0.8109  3.8050
  402MOL0     H54206   4.891   3.117   5.835 -1.2168  0.4267  3.1401
  402MOL0     H54207   5.003   3.383   5.912 -2.2565  1.4312  0.1963
  402MOL0     H54208   4.869   3.310   6.009 -0.7868  1.5034 -2.4683
  402MOL0     H54209   4.988   3.126   6.069 -1.1623 -0.1106  0.1582
  402MOL0     H54210   5.123   3.164   5.951  2.7108  1.5989  0.5980
  402MOL0     H54211   5.182   3.373   6.072  2.2504 -1.4391 -0.6206
  402MOL0     H54212   5.063   3.330   6.186  0.0998  0.0824  0.2198
  402MOL0     H54213   5.177   3.122   6.252 -0.8106 -0.5530  0.9867
  402MOL0     H54214   5.303   3.133   6.127  0.3304 -0.5225  1.1775
  402MOL0     H54215   5.419   3.213   6.309 -2.1923 -1.4569  2.4361
  402MOL0     H54216   5.374   3.355   6.203  2.8797 -1.2882 -1.1007
  402MOL0     H54217   5.362   3.421   6.440  0.7068  1.3628 -2.1377
  402MOL0     H54218   5.233   3.444   6.343  0.3535 -0.1802 -0.7450
  402MOL0     H54219   5.233   3.214   6.544 -1.6527 -0.6707  1.0688
  402MOL0     H54220   5.095   3.249   6.445  0.9472  0.3027 -2.6021
  402MOL0     H54221   5.248   3.320   6.770 -0.0418 -0.2590 -1.2074
  402MOL0     H54222   5.238   3.554   6.945  0.7893 -2.2500 -1.2990
  402MOL0     H54223   5.083   3.645   6.941 -0.7736 -0.7286  0.7981
  402MOL0     H54224   5.107   3.342   6.994  0.6616  0.0892 -3.1321
  402MOL0     H54225   4.959   3.435   6.986 -0.5274 -2.9760  0.0740
  402MOL0     H54226   5.101   3.591   7.178  2.2001 -1.2795  1.1585
  402MOL0     H54227   5.164   3.432   7.196 -1.4623 -2.0418  2.7418
  402MOL0     H54228   4.931   3.332   7.204 -1.8271  0.1452 -0.4523
  402MOL0     H54229   4.872   3.491   7.212 -1.4976 -1.9043  0.1460
  402MOL0     H54230   4.729   3.352   7.302 -0.8317  3.9180 -0.9409
  402MOL0     H54231   4.514   3.316   7.329  1.5135 -0.4095 -0.1047
  402MOL0     H54232   4.532   3.162   7.400 -0.2740  1.0138 -1.1637
  402MOL0     H54233   4.438   3.289   7.492  0.0238 -0.2642 -0.0961
  402MOL0     H54234   4.630   3.001   7.927 -0.9751 -2.4147  0.0510
  402MOL0     H54235   4.495   2.871   8.102  1.6598  1.3422  1.6304
  402MOL0     H54236   4.259   3.075   8.397  0.2789 -2.1413  1.5047
  402MOL0     H54237   4.109   3.034   8.289  0.9537 -0.5402 -2.4003
  402MOL0     H54238   4.073   2.856   8.368 -1.0819  3.7464  0.5137
  402MOL0     H54239   4.238   2.808   8.423  0.6113 -0.2018  0.8934
  402MOL0     H54240   4.072   3.001   8.591 -1.8085 -1.7605 -0.9974
  402MOL0     H54241   4.228   2.926   8.622 -0.3984 -0.6601  0.1522
  402MOL0     H54242   4.067   2.695   8.607 -1.5244  1.7266 -1.6802
  402MOL0     H54243   4.122   2.776   8.752  0.8186  0.6642  0.0033
  402MOL0     H54244   3.891   2.890   8.750  4.3285 -0.8297  1.5895
  402MOL0     H54245   3.870   2.730   8.765  0.7424  2.0530  1.7784
  402MOL0     H54246   3.870   2.899   8.505  1.9473 -1.6800  0.0346
  402MOL0     H54247   3.806   2.733   8.498 -0.1236 -0.7146  1.0919
  402MOL0     H54248   3.689   2.924   8.688  3.9459 -2.0699  0.8424
  402MOL0     H54249   3.624   2.780   8.618  0.3653  0.7380  2.5147
  402MOL0     H54250   3.511   2.980   8.523 -0.2122  2.9928 -2.0527
  402MOL0     H54251   3.594   2.886   8.399 -0.6917  1.6584 -2.3744
  402MOL0     H54252   4.247   3.227   8.134  1.7394  2.1988 -1.8100
  402MOL0     H54253   4.400   3.338   7.992 -0.7638 -0.8755 -1.8059
  402MOL0     H54254   4.832   3.363   7.802  2.7518 -1.2927 -1.3743
  402MOL0     H54255   4.973   3.462   7.639  0.2008 -0.3717  0.3306
  402MOL0     H54256   5.110   3.352   5.489  0.9647 -0.1219  1.1524
  402MOL0     H54257   5.062   3.284   5.255  1.5404  0.5086  1.0067
  402MOL0     H54258   5.160   2.782   5.039 -2.0609 -0.2679  1.8019
  402MOL0     H54259   5.193   2.754   4.780 -4.0661 -2.1272 -3.1330
  402MOL0     H54260   4.961   3.013   4.507  0.1357 -1.2901  1.2289
  402MOL0     H54261   5.100   2.981   4.420 -0.7646  1.5240 -0.7119
  402MOL0     H54262   4.856   2.820   4.479 -0.8574  4.7904  0.5961
  402MOL0     H54263   4.989   2.728   4.413 -0.6655  0.8974  0.7992
  402MOL0     H54264   4.979   2.913   4.208 -0.0339 -1.5048  0.0607
  402MOL0     H54265   4.822   2.956   4.293 -1.0151 -0.2929 -0.6984
  402MOL0     H54266   4.874   2.688   4.212  1.7347  1.2845  1.6604
  402MOL0     H54267   4.818   2.796   4.079 -4.0865 -1.4268 -0.1311
  402MOL0     H54268   4.471   2.757   4.307 -0.9553 -0.1129 -3.3130
  402MOL0     H54269   4.892   3.058   4.733 -1.5506  0.1076  1.6390
  402MOL0     H54270   4.887   3.099   4.959  0.0983  1.4501 -0.6094
  403MOL0     O54271   1.456   6.481   6.203 -0.2660  0.1034 -0.0380
  403MOL0     C54272   1.417   6.366   6.227 -0.2618 -0.1170  0.2766
  403MOL0     O54273   1.342   6.293   6.137 -0.0643  0.6728 -0.2471
  403MOL0     C54274   1.317   6.342   6.014 -0.3540 -0.7999  0.8692
  403MOL0     C54275   1.195   6.417   6.004 -0.9454 -0.7482 -0.5091
  403MOL0     C54276   1.160   6.481   5.886 -0.6688 -0.3718  0.3096
  403MOL0     C54277   1.245   6.469   5.772  0.7333  0.0224 -0.0056
  403MOL0     O54278   1.195   6.520   5.657 -0.2851  0.0537  0.1711
  403MOL0     C54279   1.157   6.662   5.660 -0.5814  0.1323  0.0133
  403MOL0     C54280   1.204   6.741   5.527 -0.4022  0.4260 -0.9179
  403MOL0     C54281   1.173   6.895   5.548  0.8674  0.1363  0.2423
  403MOL0     C54282   1.280   6.965   5.629 -0.0405  0.3523  0.1757
  403MOL0     C54283   1.299   7.108   5.591  0.5909 -0.8061  0.5435
  403MOL0     C54284   1.392   7.196   5.674  0.2607 -0.4661 -0.6904
  403MOL0     C54285   1.369   7.345   5.662 -0.5113  1.2546 -0.5176
  403MOL0     C54286   1.388   7.394   5.510  0.7713  0.1799 -0.8167
  403MOL0     N54287   1.374   7.538   5.510 -0.4657  0.2183  0.2758
  403MOL0     C54288   1.264   7.604   5.557  0.5108 -1.0742  0.2018
  403MOL0     C54289   1.292   7.735   5.527 -0.3505 -0.7452 -0.5120
  403MOL0     C54290   1.193   7.842   5.547  0.0833 -0.2975 -0.0903
  403MOL0     C54291   1.207   7.887   5.699 -0.1351 -0.5022  0.2408
  403MOL0     C54292   1.114   8.009   5.724  0.2252  0.4334 -0.0792
  403MOL0     C54293   0.972   8.002   5.666 -0.4766  0.4693  0.1309
  403MOL0     O54294   0.906   7.883   5.704 -0.0314  0.0784  0.4001
  403MOL0     C54295   0.843   7.867   5.829  0.3661  0.7118 -0.1702
  403MOL0     C54296   0.768   7.972   5.886  0.3049 -0.6379  0.1671
  403MOL0     C54297   0.695   7.955   6.003 -0.4904  0.3433  1.1251
  403MOL0     C54298   0.614   8.070   6.045  0.1393  0.9640 -0.0129
  403MOL0     C54299   0.711   7.832   6.083 -0.2971  0.6134 -0.0473
  403MOL0     C54300   0.654   7.811   6.225  0.3498  0.0334 -0.5019
  403MOL0     O54301   0.573   7.906   6.279  0.6112 -0.1278 -0.3791
  403MOL0     C54302   0.491   7.862   6.376  0.6553 -0.2677  0.0503
  403MOL0     C54303   0.489   7.933   6.493 -0.5717 -0.5792 -0.5534
  403MOL0     C54304   0.409   7.881   6.596  0.0942  0.9795 -0.3375
  403MOL0     C54305   0.338   7.762   6.576  0.4085  0.2582 -0.1867
  403MOL0     O54306   0.254   7.706   6.669 -0.1284  0.5295  0.6226
  403MOL0     C54307   0.142   7.792   6.683 -1.2664  0.0473 -1.2010
  403MOL0     C54308   0.138   7.834   6.835  0.7601  0.3899  0.0951
  403MOL0     C54309   0.047   7.958   6.872 -0.3391  0.0778 -0.2732
  403MOL0     C54310   0.024   8.005   7.023 -0.2275  0.5244  0.8652
  403MOL0     C54311   0.147   8.054   7.096  0.1833 -0.7304 -0.2965
  403MOL0     C54312   0.116   8.154   7.222  0.1509  0.1529 -0.0232
  403MOL0     C54313   0.019   8.099   7.327 -0.0384  0.7151 -0.5224
  403MOL0     C54314  -0.011   8.198   7.449 -0.9333 -0.5262  0.1327
  403MOL0    Cl54315  -0.114   8.332   7.387  0.2759  0.0344  0.3083
  403MOL0     C54316   0.356   7.683   6.466  0.4782 -0.1344 -0.2286
  403MOL0     C54317   0.424   7.738   6.356 -0.0372 -0.0179 -0.4130
  403MOL0     O54318   0.697   7.714   6.284 -0.4546  0.8061  0.9027
  403MOL0     C54319   0.782   7.725   6.016  1.2958  0.2957  1.1085
  403MOL0     C54320   0.847   7.739   5.894  0.5170 -0.0138 -0.5327
  403MOL0     N54321   1.425   7.747   5.480  0.4085  0.1121 -0.4633
  403MOL0     N54322   1.468   7.626   5.466 -0.8470 -0.0297  0.1188
  403MOL0     C54323   1.364   6.400   5.780  0.7542 -1.2729 -0.4408
  403MOL0     C54324   1.396   6.332   5.897  0.2179  0.4901 -0.5203
  403MOL0     C54325   1.476   6.306   6.347 -0.1762 -0.1790  0.3039
  403MOL0     C54326   1.515   6.384   6.453 -0.2681 -0.0943 -1.0822
  403MOL0     C54327   1.558   6.327   6.577  0.4197 -0.7266  0.3143
  403MOL0     C54328   1.572   6.189   6.590 -0.0536  0.2687  2.0181
  403MOL0     O54329   1.637   6.149   6.699 -0.8632  0.0531 -0.5865
  403MOL0     C54330   1.642   6.008   6.735 -0.6306 -0.2703 -0.2955
  403MOL0     C54331   1.689   5.975   6.875  0.2576  0.6877  0.4104
  403MOL0     C54332   1.616   6.067   6.971 -0.3329  0.7671  0.1642
  403MOL0     C54333   1.699   6.074   7.104  0.2985  0.0346  0.8944
  403MOL0     C54334   1.713   5.932   7.167  0.3142 -0.1907  1.1192
  403MOL0     C54335   1.753   5.833   7.220  0.4560 -0.7036 -0.5683
  403MOL0     C54336   1.528   6.105   6.483  1.0653  0.1284  0.0939
  403MOL0     C54337   1.485   6.168   6.364  0.5159  1.1019 -0.1826
  403MOL0     H54338   1.126   6.440   6.085  0.8397  3.0698  0.1177
  403MOL0     H54339   1.078   6.548   5.864  0.2956  0.0408 -2.5386
  403MOL0     H54340   1.050   6.678   5.652 -0.8040 -0.7358  1.0602
  403MOL0     H54341   1.200   6.716   5.745  3.3778  1.2823 -2.4033
  403MOL0     H54342   1.310   6.718   5.514  0.2334  1.8192  1.2613
  403MOL0     H54343   1.164   6.704   5.432  1.8040 -2.8874 -0.7272
  403MOL0     H54344   1.160   6.945   5.451 -0.2249  1.3294  0.9769
  403MOL0     H54345   1.071   6.915   5.582  1.0798 -0.4572  1.2681
  403MOL0     H54346   1.284   6.951   5.737 -1.3978 -4.6999 -0.1771
  403MOL0     H54347   1.369   6.908   5.600 -0.1665 -1.1576  2.5121
  403MOL0     H54348   1.331   7.113   5.486  1.1938  0.6180  0.7717
  403MOL0     H54349   1.198   7.151   5.594  0.6775 -0.4858 -0.6447
  403MOL0     H54350   1.393   7.158   5.777  0.5871  0.8067 -0.2074
  403MOL0     H54351   1.492   7.178   5.635  0.4209  3.0950 -2.3840
  403MOL0     H54352   1.272   7.363   5.709 -0.0357 -0.2844  1.1690
  403MOL0     H54353   1.444   7.400   5.719 -1.0914 -0.4240  2.0482
  403MOL0     H54354   1.311   7.338   5.456 -2.6052  0.1470  3.4426
  403MOL0     H54355   1.483   7.360   5.470 -0.6651 -2.0528 -2.5587
  403MOL0     H54356   1.170   7.558   5.586 -0.2906 -0.5698 -1.4627
  403MOL0     H54357   1.221   7.922   5.477  3.1309 -0.7779  0.4369
  403MOL0     H54358   1.098   7.795   5.522  0.4383  0.9547 -4.6245
  403MOL0     H54359   1.299   7.939   5.727 -0.9952  1.3456 -0.1834
  403MOL0     H54360   1.178   7.808   5.769 -0.8730  0.0903  0.6178
  403MOL0     H54361   1.168   8.101   5.700  2.6643 -0.7915  0.3439
  403MOL0     H54362   1.114   8.033   5.831  4.7338  3.9133 -0.5906
  403MOL0     H54363   0.968   8.008   5.557  2.4166 -2.0427 -0.2266
  403MOL0     H54364   0.923   8.092   5.706  0.5903  1.3213 -0.4283
  403MOL0     H54365   0.770   8.075   5.853  0.5072 -0.1632  1.5689
  403MOL0     H54366   0.656   8.099   6.141  1.4263 -1.6208  0.2984
  403MOL0     H54367   0.605   8.153   5.975  0.3472  0.0308 -1.1808
  403MOL0     H54368   0.519   8.015   6.045  2.5960 -3.9219 -1.1981
  403MOL0     H54369   0.537   8.029   6.508  0.0631 -1.2753  2.6316
  403MOL0     H54370   0.419   7.927   6.694 -2.6487 -0.2429  0.5980
  403MOL0     H54371   0.160   7.880   6.620  1.1645  0.1142 -0.5153
  403MOL0     H54372   0.050   7.745   6.649 -1.5598  0.6978 -1.3205
  403MOL0     H54373   0.092   7.760   6.900 -0.4967 -0.0924 -1.2854
  403MOL0     H54374   0.240   7.840   6.873  0.4155  0.9324  0.9679
  403MOL0     H54375  -0.048   7.926   6.828  1.6225 -1.5690 -3.7995
  403MOL0     H54376   0.083   8.042   6.812  1.6592  1.3606  2.4986
  403MOL0     H54377  -0.054   8.081   7.013 -0.1429  0.3057 -2.9505
  403MOL0     H54378  -0.013   7.912   7.068 -0.0850 -0.9269 -1.8252
  403MOL0     H54379   0.222   8.090   7.024  0.9874 -0.2897  0.7276
  403MOL0     H54380   0.188   7.958   7.129  0.8033 -0.1191  0.7936
  403MOL0     H54381   0.212   8.184   7.264  0.3895  0.5963 -0.8630
  403MOL0     H54382   0.062   8.230   7.165 -0.4055 -0.1512  0.0895
  403MOL0     H54383   0.061   8.007   7.370 -3.0354  0.3611  2.0020
  403MOL0     H54384  -0.077   8.065   7.287  0.4764 -0.2291 -0.9894
  403MOL0     H54385   0.084   8.241   7.482 -0.8663 -2.7555  3.3643
  403MOL0     H54386  -0.056   8.142   7.532 -1.1131 -0.0001  0.3918
  403MOL0     H54387   0.317   7.584   6.449  1.6089 -1.2805  2.9940
  403MOL0     H54388   0.427   7.681   6.264 -0.4691  0.8386 -0.9775
  403MOL0     H54389   0.786   7.637   6.079  0.1504 -0.7823 -0.2364
  403MOL0     H54390   0.904   7.656   5.855 -1.4789 -2.7822  1.9383
  403MOL0     H54391   1.409   6.380   5.683  1.1191 -0.0178 -0.5500
  403MOL0     H54392   1.491   6.279   5.907  0.6815  1.6095  1.3714
  403MOL0     H54393   1.517   6.492   6.442  1.4501  0.1980  1.1762
  403MOL0     H54394   1.581   6.388   6.664  0.5488 -0.9782  0.4592
  403MOL0     H54395   1.544   5.959   6.727  0.0735 -1.6044 -1.1663
  403MOL0     H54396   1.706   5.954   6.663 -1.8258 -0.4769 -1.2376
  403MOL0     H54397   1.795   5.999   6.876 -0.1064  2.5917 -1.0159
  403MOL0     H54398   1.674   5.868   6.894 -4.1038  0.7888 -1.2305
  403MOL0     H54399   1.517   6.025   6.991  0.0159  0.3722  1.1345
  403MOL0     H54400   1.594   6.170   6.940  1.6330  0.7459 -1.4875
  403MOL0     H54401   1.652   6.138   7.179 -0.3120 -1.5757  1.9358
  403MOL0     H54402   1.800   6.109   7.083  0.3788 -2.0866 -3.2291
  403MOL0     H54403   1.765   5.751   7.287  0.8137  1.9648  2.8844
  403MOL0     H54404   1.544   5.998   6.493 -0.1923  0.0434  1.6763
  403MOL0     H54405   1.469   6.098   6.283 -0.8146 -2.0476  2.5894
  404MOL0     O54406   4.410   2.370   1.761 -0.2870 -0.7927 -0.1228
  404MOL0     C54407   4.441   2.292   1.675  0.6813  0.0648 -0.2629
  404MOL0     O54408   4.449   2.149   1.697 -0.7077 -0.4828 -0.0303
  404MOL0     C54409   4.391   2.098   1.813 -0.0478 -0.1235 -0.6176
  404MOL0     C54410   4.262   2.138   1.851  0.1727  0.8793  0.9732
  404MOL0     C54411   4.181   2.071   1.955  0.1802  0.9171 -0.2112
  404MOL0     C54412   4.231   1.961   2.021  0.2917 -0.1992 -0.5909
  404MOL0     O54413   4.159   1.914   2.124  0.4587  0.5360  0.1096
  404MOL0     C54414   4.220   1.815   2.212 -0.0978 -0.1815  1.0631
  404MOL0     C54415   4.099   1.765   2.290  0.8505  0.2376 -0.0438
  404MOL0     C54416   4.149   1.662   2.392 -0.0153 -0.4673 -0.8906
  404MOL0     C54417   4.038   1.593   2.468  1.4519  0.1188  0.2360
  404MOL0     C54418   4.094   1.454   2.521  0.1222  0.3964  0.0359
  404MOL0     C54419   3.992   1.385   2.594  0.1287  0.1924  0.0629
  404MOL0     C54420   4.043   1.265   2.664  0.0990  0.2717 -0.2696
  404MOL0     C54421   4.109   1.160   2.569  0.6155  0.3287  0.0953
  404MOL0     N54422   4.101   1.024   2.632 -0.4652 -0.2185 -0.3759
  404MOL0     C54423   4.206   0.941   2.671 -0.1027  0.3135 -0.3844
  404MOL0     C54424   4.146   0.817   2.699  0.2327 -0.8111 -1.1251
  404MOL0     C54425   4.225   0.696   2.751  0.1780 -0.1377 -0.4202
  404MOL0     C54426   4.188   0.661   2.894 -0.0508  0.3012 -0.1871
  404MOL0     C54427   4.227   0.512   2.917  0.3338 -0.3099 -0.4978
  404MOL0     C54428   4.269   0.495   3.071 -0.1641  0.6420  0.3028
  404MOL0     O54429   4.158   0.541   3.149 -0.0289 -0.6645  0.3787
  404MOL0     C54430   4.141   0.474   3.265 -1.3073 -0.1472 -0.3164
  404MOL0     C54431   4.187   0.356   3.320  0.5429 -0.0144  0.9178
  404MOL0     C54432   4.165   0.318   3.453 -0.1052  0.5180 -1.4934
  404MOL0     C54433   4.184   0.169   3.495  0.6420 -0.1692 -0.1664
  404MOL0     C54434   4.099   0.411   3.544 -0.3369 -0.1995 -0.0927
  404MOL0     C54435   4.068   0.376   3.687 -1.2350 -0.2536  0.4029
  404MOL0     O54436   3.946   0.352   3.736 -0.6045  0.0065 -0.3472
  404MOL0     C54437   3.825   0.390   3.676 -0.5565  0.4190 -0.5658
  404MOL0     C54438   3.774   0.512   3.708  0.1538 -0.0078 -0.6192
  404MOL0     C54439   3.665   0.560   3.639  0.0634 -0.0288  0.4211
  404MOL0     C54440   3.601   0.485   3.532  0.0533  0.1341  0.0333
  404MOL0     O54441   3.498   0.517   3.448 -0.2676  0.2271 -0.6420
  404MOL0     C54442   3.472   0.656   3.444  0.6096  0.0706 -0.3591
  404MOL0     C54443   3.350   0.699   3.360 -0.2008 -0.0596 -0.5399
  404MOL0     C54444   3.317   0.854   3.382  0.6806 -0.3650  0.1511
  404MOL0     C54445   3.198   0.901   3.294  0.1918 -0.3079  0.3318
  404MOL0     C54446   3.124   1.024   3.332 -0.2787  0.1061  0.2010
  404MOL0     C54447   3.217   1.144   3.359  0.6374  0.1094 -0.7212
  404MOL0     C54448   3.129   1.270   3.416 -0.0700  0.1629  0.8887
  404MOL0     C54449   3.193   1.405   3.432 -0.7003 -0.3057 -0.3649
  404MOL0    Cl54450   3.250   1.445   3.274  0.1909  0.3104 -0.5084
  404MOL0     C54451   3.650   0.356   3.511 -0.0887 -0.2007  0.9510
  404MOL0     C54452   3.756   0.306   3.584 -0.1190  0.3364 -1.1426
  404MOL0     O54453   4.173   0.333   3.743 -0.7947  0.0943  0.2410
  404MOL0     C54454   4.063   0.540   3.493 -0.4346  1.3618 -0.7581
  404MOL0     C54455   4.082   0.561   3.355 -0.1277 -0.9695 -0.4267
  404MOL0     N54456   4.017   0.832   2.683  0.6844 -0.8063  0.1666
  404MOL0     N54457   3.983   0.958   2.648 -0.3364 -0.6271 -0.6217
  404MOL0     C54458   4.369   1.928   1.985  0.5928 -0.2815  0.3036
  404MOL0     C54459   4.445   1.995   1.888 -0.4413 -0.0346  1.0426
  404MOL0     C54460   4.482   2.345   1.549 -0.5130  0.3906 -0.2039
  404MOL0     C54461   4.432   2.474   1.523  0.5564 -0.0196  0.0704
  404MOL0     C54462   4.487   2.537   1.415 -0.7713  0.5953  0.6095
  404MOL0     C54463   4.567   2.473   1.315 -0.4558  0.1498 -0.7894
  404MOL0     O54464   4.603   2.564   1.215 -0.9641 -0.7933 -0.0686
  404MOL0     C54465   4.654   2.491   1.105 -0.4608 -0.8943  0.1260
  404MOL0     C54466   4.682   2.594   0.988  0.0366 -0.0346 -0.5248
  404MOL0     C54467   4.774   2.716   1.031  0.0784  0.3608  0.4128
  404MOL0     C54468   4.926   2.705   0.993  0.9770 -0.9493 -0.2870
  404MOL0     C54469   5.003   2.606   1.065  0.4995  0.3981 -0.4328
  404MOL0     C54470   5.056   2.516   1.127 -0.6556 -0.3905 -0.0898
  404MOL0     C54471   4.592   2.338   1.329  0.2569 -0.0451 -0.5729
  404MOL0     C54472   4.546   2.271   1.441  0.4838 -0.2384 -0.0296
  404MOL0     H54473   4.205   2.221   1.812 -1.4212  0.8903  3.1710
  404MOL0     H54474   4.080   2.112   1.955 -0.9502 -1.5891  1.5303
  404MOL0     H54475   4.251   1.732   2.148  0.4711 -0.6193  1.8860
  404MOL0     H54476   4.304   1.847   2.275  1.2793 -0.0870 -0.7376
  404MOL0     H54477   4.040   1.839   2.345  0.2559 -1.1727  1.3011
  404MOL0     H54478   4.027   1.706   2.232  0.6259 -0.8826  1.3224
  404MOL0     H54479   4.196   1.583   2.333 -2.1644 -1.8555 -0.8468
  404MOL0     H54480   4.219   1.706   2.464  3.4701 -4.2177 -1.5951
  404MOL0     H54481   4.013   1.656   2.554 -1.6082  1.2972 -1.3619
  404MOL0     H54482   3.947   1.582   2.408  0.1754  1.9494  1.7407
  404MOL0     H54483   4.127   1.389   2.440  1.7421 -0.3931  1.2673
  404MOL0     H54484   4.191   1.467   2.572  1.0633 -0.0896 -1.5693
  404MOL0     H54485   3.945   1.456   2.663 -1.3078 -0.4529 -0.2194
  404MOL0     H54486   3.913   1.357   2.525 -0.0305  2.2979 -0.7005
  404MOL0     H54487   4.122   1.284   2.737  1.2920 -0.9731 -1.1729
  404MOL0     H54488   3.962   1.213   2.715 -0.1666  0.2073 -0.7564
  404MOL0     H54489   4.211   1.199   2.560  0.1987  1.3857 -0.1993
  404MOL0     H54490   4.063   1.151   2.470  2.0915 -0.4397 -0.5613
  404MOL0     H54491   4.308   0.979   2.671 -0.0920  0.3001 -1.3877
  404MOL0     H54492   4.192   0.618   2.682 -0.3553  1.6293 -2.2656
  404MOL0     H54493   4.331   0.724   2.749 -0.5738  3.5269  1.7643
  404MOL0     H54494   4.080   0.677   2.902 -0.8093 -3.1744 -1.4489
  404MOL0     H54495   4.243   0.722   2.966 -2.4774 -0.2642  2.3276
  404MOL0     H54496   4.311   0.465   2.864  0.9375 -0.8704  0.8929
  404MOL0     H54497   4.135   0.455   2.906  1.5037 -2.2564 -0.6669
  404MOL0     H54498   4.358   0.556   3.090  2.0763 -2.7815  1.6793
  404MOL0     H54499   4.295   0.390   3.083  2.9069  0.5571 -4.5446
  404MOL0     H54500   4.243   0.294   3.250  2.5174  1.1561  1.3888
  404MOL0     H54501   4.268   0.168   3.565  0.8747  0.4259 -0.4256
  404MOL0     H54502   4.090   0.124   3.528 -0.9438  0.6429 -3.1993
  404MOL0     H54503   4.218   0.123   3.402 -0.9482  3.3600 -2.7671
  404MOL0     H54504   3.823   0.565   3.789 -2.4678  0.4139  0.7964
  404MOL0     H54505   3.626   0.658   3.666 -2.4268 -0.8839  0.1574
  404MOL0     H54506   3.441   0.680   3.546  2.2430 -1.0432  0.4492
  404MOL0     H54507   3.567   0.707   3.425  0.9125 -1.2092 -2.7149
  404MOL0     H54508   3.368   0.680   3.253  0.3871  2.1267 -0.8859
  404MOL0     H54509   3.264   0.635   3.378  1.3793 -2.4284 -1.0063
  404MOL0     H54510   3.397   0.924   3.358  0.2214  0.2261  0.3161
  404MOL0     H54511   3.290   0.885   3.483  0.9136  2.9592 -0.7144
  404MOL0     H54512   3.244   0.908   3.195  3.2624 -3.5977  1.3000
  404MOL0     H54513   3.125   0.821   3.297  0.1690 -0.2682  1.0401
  404MOL0     H54514   3.058   1.009   3.417 -3.2591  0.5728 -1.8720
  404MOL0     H54515   3.057   1.039   3.246 -0.6888  0.2856  0.5512
  404MOL0     H54516   3.304   1.126   3.423  1.6142  1.2740 -1.6608
  404MOL0     H54517   3.271   1.176   3.269  0.8723 -0.9583 -0.9725
  404MOL0     H54518   3.086   1.229   3.508 -0.3059  0.0909  0.7483
  404MOL0     H54519   3.058   1.298   3.338 -1.1043  1.9948  2.3844
  404MOL0     H54520   3.285   1.390   3.490  0.0978 -0.9341 -1.7404
  404MOL0     H54521   3.136   1.481   3.486 -0.9253 -2.6591  3.0621
  404MOL0     H54522   3.600   0.295   3.437  0.2213  2.5526 -1.7841
  404MOL0     H54523   3.794   0.205   3.566 -0.8343  0.4101 -3.3758
  404MOL0     H54524   4.016   0.611   3.559  2.3933  1.3659  1.4501
  404MOL0     H54525   4.065   0.658   3.310 -0.8775 -1.6438 -1.6364
  404MOL0     H54526   4.410   1.852   2.050  2.5312  0.3121 -0.1632
  404MOL0     H54527   4.544   1.967   1.855 -0.7346  1.2761 -1.1459
  404MOL0     H54528   4.380   2.530   1.600  1.5297 -1.2311  1.6697
  404MOL0     H54529   4.466   2.642   1.398 -3.5414  0.3215  1.7267
  404MOL0     H54530   4.724   2.408   1.118  0.6453  0.1375  1.0703
  404MOL0     H54531   4.561   2.449   1.067 -1.3038  2.4603 -1.9392
  404MOL0     H54532   4.590   2.621   0.936 -1.4935 -0.5927  1.7326
  404MOL0     H54533   4.737   2.532   0.917 -0.9982 -0.0054 -1.3770
  404MOL0     H54534   4.766   2.727   1.140 -4.0273  1.8127  0.1204
  404MOL0     H54535   4.732   2.808   0.991  0.3886 -1.0585 -3.5789
  404MOL0     H54536   4.961   2.809   0.998  0.3045 -0.6592 -1.2764
  404MOL0     H54537   4.945   2.672   0.890  1.3701 -1.1796 -0.1422
  404MOL0     H54538   5.091   2.432   1.183 -1.8322  0.4048  1.9382
  404MOL0     H54539   4.621   2.284   1.241 -1.2906 -2.3229  0.2160
  404MOL0     H54540   4.561   2.165   1.459 -0.9635 -0.5642 -0.6388
  405MOL0     O54541   7.852   3.307   4.348 -0.3556 -0.3782  0.0202
  405MOL0     C54542   7.848   3.404   4.267  0.5537 -0.6111 -0.2114
  405MOL0     O54543   7.794   3.391   4.141  0.2706  0.2766  0.1620
  405MOL0     C54544   7.706   3.285   4.110  0.0846 -0.3045 -0.0984
  405MOL0     C54545   7.758   3.161   4.064  0.3803 -0.6425 -0.7376
  405MOL0     C54546   7.671   3.058   4.028 -0.2656  0.1574 -0.0085
  405MOL0     C54547   7.534   3.072   4.029 -0.8555  0.0551  0.7005
  405MOL0     O54548   7.452   2.978   3.980  0.1196  0.8399 -0.1431
  405MOL0     C54549   7.437   2.882   4.081 -0.7856 -0.1956  0.5987
  405MOL0     C54550   7.393   2.741   4.031  0.3827 -0.2690  0.4076
  405MOL0     C54551   7.497   2.646   3.970 -0.6925 -0.4314 -0.0944
  405MOL0     C54552   7.468   2.641   3.819  0.3197  0.3373 -0.3121
  405MOL0     C54553   7.532   2.512   3.753 -0.1976  0.6217 -0.7506
  405MOL0     C54554   7.681   2.526   3.737  0.1010  0.7213  0.0292
  405MOL0     C54555   7.742   2.397   3.696 -0.2802  0.7395  0.2135
  405MOL0     C54556   7.730   2.399   3.543  0.7209  0.5067 -0.5395
  405MOL0     N54557   7.810   2.281   3.492  0.3642 -0.1469 -0.8494
  405MOL0     C54558   7.940   2.277   3.463 -0.0762  0.7878  0.5971
  405MOL0     C54559   7.962   2.155   3.444 -0.4391  1.7773  0.1782
  405MOL0     C54560   8.091   2.104   3.380 -0.0500 -0.6483 -0.1565
  405MOL0     C54561   8.226   2.117   3.459 -0.6693 -0.1376  1.2001
  405MOL0     C54562   8.218   2.096   3.604  0.1201 -0.7585  0.4354
  405MOL0     C54563   8.331   2.124   3.690  0.0930  0.6646 -0.3441
  405MOL0     O54564   8.301   2.168   3.826  0.0995 -0.3502  0.6477
  405MOL0     C54565   8.251   2.082   3.919  0.0702 -0.8269 -0.3015
  405MOL0     C54566   8.339   1.983   3.977 -0.0246 -0.3003  0.1404
  405MOL0     C54567   8.282   1.875   4.049 -0.1842 -1.2814  0.3270
  405MOL0     C54568   8.380   1.768   4.077  0.1773 -1.2989 -0.0803
  405MOL0     C54569   8.138   1.869   4.072 -0.5136  0.2746  0.0050
  405MOL0     C54570   8.081   1.765   4.161 -1.0542 -0.7108 -0.4689
  405MOL0     O54571   7.946   1.799   4.191 -0.0590 -0.2952  0.2094
  405MOL0     C54572   7.880   1.707   4.271  0.5780  0.4384  1.0665
  405MOL0     C54573   7.785   1.611   4.222  0.7727  0.2776  0.1302
  405MOL0     C54574   7.719   1.524   4.311 -0.9058  0.1311  0.4774
  405MOL0     C54575   7.756   1.525   4.446  0.2932 -0.6549  0.1248
  405MOL0     O54576   7.706   1.429   4.533 -0.7083 -0.0213 -0.3241
  405MOL0     C54577   7.737   1.432   4.683  0.0374 -0.1377 -0.1449
  405MOL0     C54578   7.685   1.326   4.774 -0.0342  0.4681  0.1296
  405MOL0     C54579   7.737   1.342   4.915 -0.2382 -0.5165  0.5175
  405MOL0     C54580   7.662   1.249   5.007  0.0230  0.1045 -0.4196
  405MOL0     C54581   7.706   1.255   5.160 -0.8541  0.1965  0.1525
  405MOL0     C54582   7.627   1.166   5.262 -0.2360  0.3441  0.2253
  405MOL0     C54583   7.608   1.018   5.219  0.0343 -0.7432 -0.2283
  405MOL0     C54584   7.519   0.948   5.317  0.1533  0.8147  0.0473
  405MOL0    Cl54585   7.593   0.934   5.478 -0.1458 -0.1559 -0.2264
  405MOL0     C54586   7.852   1.615   4.489 -0.0104  0.4187 -0.3634
  405MOL0     C54587   7.914   1.706   4.409  0.1424 -1.2699 -1.1630
  405MOL0     O54588   8.139   1.661   4.191 -0.7354  0.3940  0.9456
  405MOL0     C54589   8.059   1.968   4.013 -0.3311  0.2241  0.2446
  405MOL0     C54590   8.117   2.072   3.946 -0.4573  0.7346  0.9561
  405MOL0     N54591   7.856   2.075   3.475 -0.7324 -0.0946 -0.0783
  405MOL0     N54592   7.762   2.155   3.497 -0.1849  0.1432 -0.8253
  405MOL0     C54593   7.478   3.192   4.086  0.2091  0.8658  0.0294
  405MOL0     C54594   7.561   3.298   4.125 -1.0825  0.5258 -0.1094
  405MOL0     C54595   7.917   3.531   4.303  0.2915  0.6506 -0.4026
  405MOL0     C54596   7.877   3.646   4.236 -0.2766  0.4998 -1.2879
  405MOL0     C54597   7.951   3.765   4.236 -0.3474 -0.3098 -0.4109
  405MOL0     C54598   8.067   3.767   4.313 -0.2973 -0.4671 -0.0308
  405MOL0     O54599   8.150   3.881   4.307 -0.3013 -0.1229  0.0766
  405MOL0     C54600   8.114   3.992   4.387  0.3993  0.5652 -0.0294
  405MOL0     C54601   8.133   3.956   4.533 -0.1161  0.3195 -0.3704
  405MOL0     C54602   8.129   4.072   4.630  0.0080 -0.3194  1.1495
  405MOL0     C54603   8.002   4.163   4.633  0.4088 -0.5535 -0.2134
  405MOL0     C54604   8.030   4.276   4.725 -0.2228  0.0403  0.0638
  405MOL0     C54605   8.071   4.358   4.806  0.1125  1.2688 -0.6725
  405MOL0     C54606   8.095   3.655   4.385 -1.0820  0.8162 -0.3773
  405MOL0     C54607   8.024   3.539   4.387 -0.0109  0.1010 -0.8456
  405MOL0     H54608   7.865   3.150   4.051 -0.1040 -4.2299 -3.3303
  405MOL0     H54609   7.718   2.962   4.008  0.4401  0.6541 -0.8001
  405MOL0     H54610   7.531   2.868   4.136 -0.2419  1.8879  0.2654
  405MOL0     H54611   7.360   2.912   4.152 -2.3522 -1.0288 -0.6842
  405MOL0     H54612   7.370   2.686   4.123  1.2637  0.9108  1.3891
  405MOL0     H54613   7.306   2.756   3.967  0.6687  0.5297  0.1877
  405MOL0     H54614   7.599   2.676   3.998 -0.6751 -2.6530  2.7531
  405MOL0     H54615   7.463   2.552   4.015 -2.2213  1.0411  1.9847
  405MOL0     H54616   7.363   2.623   3.796  1.0862 -2.2800 -2.1917
  405MOL0     H54617   7.508   2.726   3.764 -0.0983 -0.0787 -1.2805
  405MOL0     H54618   7.511   2.432   3.824  1.7889 -0.1864 -1.0022
  405MOL0     H54619   7.476   2.489   3.662  1.0640 -2.4130 -0.8884
  405MOL0     H54620   7.680   2.602   3.658 -0.7803  0.7976  0.1043
  405MOL0     H54621   7.726   2.560   3.831 -0.9101  1.9838  0.0872
  405MOL0     H54622   7.850   2.397   3.709 -0.5222  0.5430  2.6045
  405MOL0     H54623   7.708   2.316   3.761  0.0331 -1.6309 -2.3967
  405MOL0     H54624   7.772   2.489   3.497  0.8682  1.5177  1.4974
  405MOL0     H54625   7.629   2.395   3.502  0.1443  1.2182  0.7561
  405MOL0     H54626   8.017   2.352   3.450  3.5057 -2.3798  1.6846
  405MOL0     H54627   8.071   2.002   3.346 -1.8358  0.6275 -3.3649
  405MOL0     H54628   8.108   2.150   3.283  1.2352 -0.7182  0.0074
  405MOL0     H54629   8.280   2.208   3.432 -0.8533 -0.3623  0.0176
  405MOL0     H54630   8.299   2.041   3.428 -1.1267 -0.2632  0.4115
  405MOL0     H54631   8.168   2.001   3.626  1.5043 -1.3036  1.3784
  405MOL0     H54632   8.145   2.170   3.639  0.0747 -0.8046  0.4392
  405MOL0     H54633   8.368   2.216   3.644  3.0420 -0.7929 -1.0990
  405MOL0     H54634   8.396   2.036   3.695  1.2901  1.5825  3.2444
  405MOL0     H54635   8.443   2.003   3.952 -0.2658  1.0258  0.1230
  405MOL0     H54636   8.342   1.684   4.018 -3.0406 -0.9393  1.3035
  405MOL0     H54637   8.484   1.791   4.052  0.4515  0.7321  2.5006
  405MOL0     H54638   8.375   1.733   4.181 -1.0845 -1.3699 -0.1539
  405MOL0     H54639   7.756   1.633   4.119  3.1427  3.0046 -0.1057
  405MOL0     H54640   7.640   1.461   4.272 -0.0039 -1.2720  0.8426
  405MOL0     H54641   7.843   1.440   4.712 -0.2827 -0.1753  1.0858
  405MOL0     H54642   7.696   1.529   4.711 -1.9617 -1.0971  0.4081
  405MOL0     H54643   7.575   1.326   4.773 -0.0320  0.8362 -0.5463
  405MOL0     H54644   7.715   1.230   4.730 -2.1153 -0.7156  1.0935
  405MOL0     H54645   7.713   1.442   4.952 -1.7094  0.1499 -1.9306
  405MOL0     H54646   7.844   1.320   4.920  0.5555  1.1788 -4.0202
  405MOL0     H54647   7.556   1.275   5.004  0.2098  1.3727  1.8152
  405MOL0     H54648   7.668   1.146   4.969  0.0354 -0.4742  1.0821
  405MOL0     H54649   7.686   1.359   5.188 -2.0396 -0.2044  0.8425
  405MOL0     H54650   7.814   1.237   5.170 -0.0674  2.1243 -3.1932
  405MOL0     H54651   7.686   1.177   5.353 -0.4445  1.9328  0.1954
  405MOL0     H54652   7.527   1.203   5.288  0.2359  0.4490  1.9980
  405MOL0     H54653   7.705   0.968   5.223  2.0028  2.6235 -1.4900
  405MOL0     H54654   7.564   1.007   5.119 -0.6104 -0.6213  0.0318
  405MOL0     H54655   7.483   0.855   5.271 -1.4182  2.1933 -1.7031
  405MOL0     H54656   7.427   1.006   5.326  0.4228  2.2588 -4.1121
  405MOL0     H54657   7.896   1.617   4.588 -1.7418  2.5380  0.4251
  405MOL0     H54658   7.984   1.781   4.444 -2.6205  1.1030 -0.3188
  405MOL0     H54659   7.953   1.956   3.991 -0.4317  3.2203 -1.5132
  405MOL0     H54660   8.054   2.143   3.894  1.5941  2.0703  0.1700
  405MOL0     H54661   7.372   3.216   4.076  0.0854  2.1497  3.3051
  405MOL0     H54662   7.524   3.398   4.144 -1.6152  0.4078 -0.5155
  405MOL0     H54663   7.782   3.629   4.186 -1.2091 -2.0002  1.0526
  405MOL0     H54664   7.920   3.849   4.175 -3.3117 -0.1898  1.0555
  405MOL0     H54665   8.168   4.084   4.362 -2.5230  2.3924 -0.1131
  405MOL0     H54666   8.008   4.018   4.375  0.3764  2.2457  2.9591
  405MOL0     H54667   8.228   3.903   4.549 -1.2305 -1.5668  0.4017
  405MOL0     H54668   8.053   3.886   4.560 -0.8295  1.7130  1.2978
  405MOL0     H54669   8.210   4.145   4.618 -1.3634  0.9891 -0.7222
  405MOL0     H54670   8.131   4.032   4.732  0.8008 -1.9768  0.5135
  405MOL0     H54671   7.918   4.105   4.671  1.5496 -1.0192  1.7268
  405MOL0     H54672   7.988   4.215   4.538  1.0492  2.4804  1.2097
  405MOL0     H54673   8.088   4.430   4.884  0.8946 -0.7213  1.1022
  405MOL0     H54674   8.196   3.658   4.426 -1.7632 -0.8200  1.5890
  405MOL0     H54675   8.043   3.448   4.442 -1.9726 -0.2990 -0.7640
  406MOL0     O54676   0.273  10.630  11.422  0.0517 -0.9904  0.1795
  406MOL0     C54677   0.189  10.687  11.494 -0.0918  0.2100  0.2628
  406MOL0     O54678   0.108  10.786  11.445 -0.5634 -0.2818  0.1082
  406MOL0     C54679   0.128  10.835  11.319  0.3863 -0.7807 -0.2661
  406MOL0     C54680   0.107  10.972  11.301 -0.1461 -0.5116 -0.4170
  406MOL0     C54681   0.120  11.032  11.179  0.1619 -1.2292  0.1744
  406MOL0     C54682   0.165  10.959  11.068 -0.6208 -0.1630 -0.2165
  406MOL0     O54683   0.173  11.018  10.941  0.1201  0.2752 -0.0651
  406MOL0     C54684   0.085  11.124  10.907 -0.1518 -0.9843  0.0618
  406MOL0     C54685  -0.052  11.078  10.861  0.2508 -0.6708  0.2223
  406MOL0     C54686  -0.126  11.184  10.770  0.7442 -0.0704  0.8969
  406MOL0     C54687  -0.222  11.123  10.668  0.3347  0.0187  0.6331
  406MOL0     C54688  -0.302  11.237  10.611 -0.1970 -0.7869  0.8996
  406MOL0     C54689  -0.392  11.181  10.499  0.7521  0.3186  0.2743
  406MOL0     C54690  -0.491  11.262  10.434  0.5806 -0.4089 -0.9810
  406MOL0     C54691  -0.615  11.292  10.517  0.5318 -0.3130  0.1729
  406MOL0     N54692  -0.723  11.317  10.426  1.1098  0.5109  0.6494
  406MOL0     C54693  -0.720  11.429  10.344  0.1315  0.0903  1.0942
  406MOL0     C54694  -0.848  11.435  10.293  0.6137 -0.0099  0.6968
  406MOL0     C54695  -0.911  11.552  10.214  0.8130  0.3827  0.4633
  406MOL0     C54696  -0.805  11.627  10.142  0.2388 -0.2083 -0.3185
  406MOL0     C54697  -0.860  11.749  10.078  0.3638 -0.1697 -0.1766
  406MOL0     C54698  -0.783  11.780   9.959 -0.2171 -0.5639  0.5172
  406MOL0     O54699  -0.655  11.842  10.002  0.4330 -0.2258  0.9143
  406MOL0     C54700  -0.557  11.758  10.041  0.2099  0.1972 -0.8587
  406MOL0     C54701  -0.471  11.794  10.144  0.3009  0.4353  0.0912
  406MOL0     C54702  -0.370  11.708  10.179 -0.3363 -0.3931 -0.0060
  406MOL0     C54703  -0.291  11.762  10.301  0.1172  0.8163  0.4258
  406MOL0     C54704  -0.349  11.592  10.104 -0.6775  0.1749  0.0647
  406MOL0     C54705  -0.229  11.517  10.123 -0.0607 -0.1485  0.0288
  406MOL0     O54706  -0.172  11.517  10.247  0.1547 -0.4347  0.3913
  406MOL0     C54707  -0.079  11.431  10.293 -0.4611 -0.3362  0.3963
  406MOL0     C54708   0.033  11.491  10.350  1.2115 -0.2893 -0.1991
  406MOL0     C54709   0.106  11.405  10.429 -0.2765 -0.7354 -0.2425
  406MOL0     C54710   0.099  11.262  10.425 -0.4848  0.0809  0.0951
  406MOL0     O54711   0.197  11.197  10.494 -0.1399  0.7711 -0.0350
  406MOL0     C54712   0.167  11.065  10.535 -1.0784 -0.7280 -0.6119
  406MOL0     C54713   0.304  11.027  10.594 -0.5298  0.2064  0.0445
  406MOL0     C54714   0.294  10.881  10.630  0.4718 -0.1145 -0.4001
  406MOL0     C54715   0.424  10.824  10.681 -0.3758  0.1486  0.1024
  406MOL0     C54716   0.437  10.673  10.692 -0.1854  0.4798 -0.0262
  406MOL0     C54717   0.583  10.626  10.700  0.5041 -0.3491  0.0794
  406MOL0     C54718   0.604  10.484  10.645  0.1152  0.6137  0.0880
  406MOL0     C54719   0.592  10.463  10.492 -0.3616 -1.3497 -0.8492
  406MOL0    Cl54720   0.430  10.432  10.447 -0.3109  0.2591 -0.4215
  406MOL0     C54721  -0.010  11.208  10.353  0.5679  0.4522 -0.0670
  406MOL0     C54722  -0.099  11.293  10.293  0.0326 -1.0995 -0.2281
  406MOL0     O54723  -0.187  11.457  10.022 -1.0320 -0.1371 -0.7986
  406MOL0     C54724  -0.433  11.559  10.000 -0.6034 -0.8883 -0.5908
  406MOL0     C54725  -0.534  11.648   9.966 -0.4454  0.1694 -1.4945
  406MOL0     N54726  -0.921  11.336  10.354 -0.6395 -0.0215  0.0700
  406MOL0     N54727  -0.845  11.255  10.425  0.7927  0.0928  0.3545
  406MOL0     C54728   0.187  10.822  11.079  0.8687  0.6190  0.2811
  406MOL0     C54729   0.167  10.762  11.199  1.0131  0.3062 -0.7852
  406MOL0     C54730   0.200  10.659  11.643  0.1850  0.8165  0.0680
  406MOL0     C54731   0.316  10.583  11.696  0.1811 -0.6442 -0.8305
  406MOL0     C54732   0.320  10.565  11.839  0.1160  0.8858  0.0744
  406MOL0     C54733   0.221  10.620  11.921  0.1476 -0.0308  0.2819
  406MOL0     O54734   0.212  10.604  12.056 -0.0529  0.0357 -0.5142
  406MOL0     C54735   0.137  10.495  12.117  0.3925 -0.9502 -0.7543
  406MOL0     C54736   0.167  10.496  12.265 -0.7389  0.0527 -0.3288
  406MOL0     C54737   0.140  10.365  12.338 -0.9970 -1.1896  0.5213
  406MOL0     C54738   0.147  10.398  12.494  0.2625 -0.0329 -0.1782
  406MOL0     C54739   0.274  10.454  12.539 -0.4077 -0.2395 -0.0091
  406MOL0     C54740   0.365  10.506  12.594 -0.4263 -0.6980  0.7953
  406MOL0     C54741   0.107  10.673  11.864  0.5707 -0.2589 -0.2900
  406MOL0     C54742   0.099  10.696  11.728  0.8026 -0.1465  0.4912
  406MOL0     H54743   0.082  11.037  11.384  0.7860  1.6550 -1.7706
  406MOL0     H54744   0.094  11.137  11.179  1.3096 -0.8569  2.9108
  406MOL0     H54745   0.065  11.193  10.990 -0.7032 -1.1193  0.0426
  406MOL0     H54746   0.127  11.179  10.823 -3.4804 -2.3096 -2.6896
  406MOL0     H54747  -0.040  10.985  10.804 -0.3507 -0.9550  0.5544
  406MOL0     H54748  -0.115  11.043  10.943  0.3272  0.5148  0.8084
  406MOL0     H54749  -0.195  11.242  10.832  0.1253  2.3212 -1.8338
  406MOL0     H54750  -0.048  11.238  10.715  1.2760 -2.4547 -0.8681
  406MOL0     H54751  -0.150  11.082  10.597  2.1431  2.2400  1.0469
  406MOL0     H54752  -0.302  11.057  10.702 -1.8856  1.4505 -1.4843
  406MOL0     H54753  -0.354  11.284  10.694 -2.6712 -3.0808  0.7826
  406MOL0     H54754  -0.236  11.315  10.572  0.9585 -1.1582  2.0110
  406MOL0     H54755  -0.322  11.150  10.421  0.5052  0.7076 -0.1061
  406MOL0     H54756  -0.434  11.086  10.532  3.4757 -0.9063  0.5251
  406MOL0     H54757  -0.430  11.349  10.406  4.2902 -2.2216  0.7068
  406MOL0     H54758  -0.534  11.206  10.351 -2.7042 -0.0255  0.3128
  406MOL0     H54759  -0.602  11.384  10.575  2.5517 -1.6112  1.9285
  406MOL0     H54760  -0.636  11.212  10.589 -0.5309 -0.4501 -0.2650
  406MOL0     H54761  -0.643  11.505  10.334 -1.4461  1.8041  1.2886
  406MOL0     H54762  -0.993  11.526  10.146  1.6622  0.4340 -0.6000
  406MOL0     H54763  -0.961  11.616  10.288  0.8151  0.8809  0.0411
  406MOL0     H54764  -0.759  11.557  10.071  0.7273 -0.5004  0.2841
  406MOL0     H54765  -0.731  11.651  10.219 -0.2300 -0.2036  0.1349
  406MOL0     H54766  -0.850  11.832  10.148  0.9847 -0.7383  0.4170
  406MOL0     H54767  -0.964  11.737  10.046  1.0600 -0.8398 -2.3685
  406MOL0     H54768  -0.846  11.844   9.897  0.8513 -0.4134 -0.4533
  406MOL0     H54769  -0.768  11.695   9.892 -0.1146 -0.1011 -0.0608
  406MOL0     H54770  -0.488  11.882  10.205 -1.8789 -2.8926  5.0093
  406MOL0     H54771  -0.328  11.856  10.343  0.5540  0.8890  0.6534
  406MOL0     H54772  -0.288  11.688  10.381  1.1599  1.4927  1.0308
  406MOL0     H54773  -0.195  11.800  10.264 -0.3027  1.2973 -0.2179
  406MOL0     H54774   0.053  11.598  10.355 -1.8043  0.3280  0.1948
  406MOL0     H54775   0.182  11.455  10.489 -0.6813  0.5534 -0.7769
  406MOL0     H54776   0.087  11.062  10.610 -0.5726 -4.3446 -0.0284
  406MOL0     H54777   0.136  10.989  10.463  0.6954 -2.2276  0.0946
  406MOL0     H54778   0.383  11.051  10.522  0.2749  0.0361  0.8497
  406MOL0     H54779   0.318  11.080  10.689 -1.7195 -1.8699  1.4753
  406MOL0     H54780   0.267  10.829  10.538  0.8318  1.4591 -1.4313
  406MOL0     H54781   0.222  10.863  10.711  3.5041 -1.2407  2.3003
  406MOL0     H54782   0.500  10.864  10.614  0.9925  0.2967  1.6780
  406MOL0     H54783   0.439  10.872  10.778  0.6443  0.9274 -0.4273
  406MOL0     H54784   0.390  10.628  10.605  0.7921 -0.8466  0.1021
  406MOL0     H54785   0.394  10.627  10.782  0.5703  0.8527  0.5418
  406MOL0     H54786   0.655  10.696  10.658 -0.1053  1.2988  1.6402
  406MOL0     H54787   0.610  10.622  10.806  0.0277 -1.7111  0.1691
  406MOL0     H54788   0.547  10.406  10.696  3.0666  0.1016  2.9417
  406MOL0     H54789   0.708  10.466  10.672  0.4081  1.9033 -0.1465
  406MOL0     H54790   0.661  10.385  10.457 -1.5139 -1.8567 -2.0562
  406MOL0     H54791   0.632  10.547  10.435  2.0904 -1.2400  0.8443
  406MOL0     H54792  -0.025  11.102  10.336 -0.7912  1.0143 -2.8483
  406MOL0     H54793  -0.188  11.253  10.245 -3.3411  4.5008  0.4108
  406MOL0     H54794  -0.421  11.465   9.947 -0.2882 -1.8116  1.0578
  406MOL0     H54795  -0.588  11.603   9.882 -0.9504  0.8219 -1.5267
  406MOL0     H54796   0.213  10.767  10.989 -2.0662  0.2964 -0.4570
  406MOL0     H54797   0.184  10.655  11.209  1.3391  0.2711 -1.6452
  406MOL0     H54798   0.398  10.557  11.631  2.6700  0.4880  1.6615
  406MOL0     H54799   0.410  10.516  11.874  3.4976  2.4457 -5.2045
  406MOL0     H54800   0.028  10.507  12.109  0.7253  4.3679 -1.1912
  406MOL0     H54801   0.164  10.398  12.076  2.0600 -1.1921  0.8342
  406MOL0     H54802   0.115  10.586  12.301 -2.7887 -0.4646 -1.7971
  406MOL0     H54803   0.276  10.502  12.269 -0.2288 -4.8287 -1.2040
  406MOL0     H54804   0.213  10.293  12.301 -0.3389  1.5652 -4.3728
  406MOL0     H54805   0.043  10.326  12.306 -2.9282  1.9660  1.9850
  406MOL0     H54806   0.118  10.308  12.550 -3.2204  0.9000 -0.3028
  406MOL0     H54807   0.063  10.465  12.509  0.6817  0.6438 -0.8028
  406MOL0     H54808   0.456  10.546  12.632  1.2842 -1.6862 -1.9695
  406MOL0     H54809   0.022  10.712  11.920 -0.9621 -0.5766 -2.2681
  406MOL0     H54810   0.016  10.752  11.686  0.9934  0.3093  0.7121
  407MOL0     O54811   9.828   3.466   9.592 -0.6375 -0.4798  0.1056
  407MOL0     C54812   9.890   3.455   9.484 -0.3665  0.0435  0.2071
  407MOL0     O54813  10.023   3.455   9.467  0.6979 -0.1698 -0.0312
  407MOL0     C54814  10.106   3.503   9.568  0.8916  0.5225  0.2982
  407MOL0     C54815  10.100   3.637   9.594 -0.4751  0.2369  0.5536
  407MOL0     C54816  10.173   3.704   9.693 -0.6172 -0.4126 -0.7080
  407MOL0     C54817  10.267   3.622   9.773  0.2940  0.8959  0.4889
  407MOL0     O54818  10.344   3.671   9.879 -0.2461  0.2740 -0.4163
  407MOL0     C54819  10.407   3.795   9.859  0.3226  0.0881  0.3772
  407MOL0     C54820  10.504   3.805   9.976 -0.5298 -0.3264 -0.1449
  407MOL0     C54821  10.500   3.943  10.047 -0.6881  0.3854 -0.1565
  407MOL0     C54822  10.617   3.951  10.150 -0.1292  0.0490 -0.6574
  407MOL0     C54823  10.623   4.078  10.237 -0.4766  0.2180  1.1616
  407MOL0     C54824  10.762   4.098  10.289 -0.3897  0.6015  0.0829
  407MOL0     C54825  10.761   4.233  10.371  1.0603  0.1826 -0.5192
  407MOL0     C54826  10.896   4.247  10.439 -0.7917  0.7406  0.0054
  407MOL0     N54827  10.887   4.331  10.557  0.0115  0.5554 -0.2152
  407MOL0     C54828  10.885   4.464  10.560  0.7414 -0.4694 -0.2096
  407MOL0     C54829  10.847   4.498  10.687 -0.7850  0.3135  1.0312
  407MOL0     C54830  10.840   4.637  10.743 -0.3391 -0.9918 -0.0354
  407MOL0     C54831  10.732   4.658  10.856  0.0560  0.3129  0.0027
  407MOL0     C54832  10.587   4.674  10.819  0.9228  0.0032 -0.4813
  407MOL0     C54833  10.519   4.541  10.794 -0.1790 -0.2359  0.7156
  407MOL0     O54834  10.398   4.553  10.724 -0.1672 -0.4765 -0.3211
  407MOL0     C54835  10.361   4.445  10.652  0.9196  0.1444 -0.6229
  407MOL0     C54836  10.405   4.315  10.681 -0.3970  1.1735  0.1821
  407MOL0     C54837  10.373   4.202  10.602 -0.7780  0.7566  0.1732
  407MOL0     C54838  10.434   4.069  10.643 -0.1416  0.6324 -1.1521
  407MOL0     C54839  10.282   4.222  10.496  1.2207 -0.9779 -0.7033
  407MOL0     C54840  10.237   4.109  10.405  0.6598 -0.5138  0.5134
  407MOL0     O54841  10.114   4.142  10.350 -0.1962  1.0458 -0.0798
  407MOL0     C54842  10.054   4.050  10.272 -0.1066  0.0519  1.3735
  407MOL0     C54843  10.104   4.004  10.151 -1.2199  0.7188  0.0542
  407MOL0     C54844  10.031   3.912  10.080 -0.1308 -1.0646  0.6821
  407MOL0     C54845   9.899   3.876  10.115  0.9648  1.0160  0.0045
  407MOL0     O54846   9.814   3.797  10.038 -0.4280  0.5909 -0.1343
  407MOL0     C54847   9.880   3.711   9.936  0.0084 -0.1838  0.3666
  407MOL0     C54848   9.763   3.653   9.858  0.7825  0.8445  0.3181
  407MOL0     C54849   9.713   3.755   9.752  0.1093 -0.1055  1.1596
  407MOL0     C54850   9.575   3.728   9.695  0.5896 -0.7772  0.6090
  407MOL0     C54851   9.543   3.824   9.576  0.1870 -0.1817 -0.7601
  407MOL0     C54852   9.412   3.776   9.509 -0.1960  0.4019 -0.3812
  407MOL0     C54853   9.303   3.884   9.494  0.6891  0.4903  0.0015
  407MOL0     C54854   9.182   3.830   9.424  0.4175 -0.3448 -0.2082
  407MOL0    Cl54855   9.054   3.965   9.429 -0.5394  0.2951 -0.1610
  407MOL0     C54856   9.855   3.931  10.233 -0.0719 -1.3641 -0.8986
  407MOL0     C54857   9.926   4.014  10.311 -0.1527  0.3488 -0.2451
  407MOL0     O54858  10.291   3.999  10.399  0.2086 -0.2504 -0.1022
  407MOL0     C54859  10.230   4.348  10.468  0.3426  0.5718 -1.0739
  407MOL0     C54860  10.274   4.460  10.545  0.3657  0.2203  0.0638
  407MOL0     N54861  10.824   4.377  10.756  0.5159 -0.0938  0.9264
  407MOL0     N54862  10.865   4.282  10.678  1.4698  0.5903 -0.1421
  407MOL0     C54863  10.261   3.477   9.749 -0.3565 -0.4932 -0.0391
  407MOL0     C54864  10.180   3.419   9.649  0.9161 -0.1400  0.2374
  407MOL0     C54865   9.805   3.431   9.359  0.9146 -0.2969  0.1333
  407MOL0     C54866   9.672   3.446   9.368  0.4476  0.0816 -0.3341
  407MOL0     C54867   9.585   3.409   9.265  0.7712 -0.3869 -0.2668
  407MOL0     C54868   9.636   3.351   9.144  0.3365 -0.2613 -0.1181
  407MOL0     O54869   9.571   3.311   9.027 -0.4065  0.3208 -0.8245
  407MOL0     C54870   9.428   3.320   9.031 -0.7510  0.6491 -0.2001
  407MOL0     C54871   9.390   3.251   8.898 -0.2936 -0.1522 -0.6018
  407MOL0     C54872   9.241   3.252   8.884  0.2161  0.7300  0.4650
  407MOL0     C54873   9.215   3.207   8.738 -0.2001  0.3118  0.0035
  407MOL0     C54874   9.259   3.072   8.708 -0.6851  0.5459  0.0306
  407MOL0     C54875   9.274   2.955   8.667 -0.5605 -0.1696 -0.0636
  407MOL0     C54876   9.777   3.338   9.132  0.3189 -0.2042  0.4082
  407MOL0     C54877   9.852   3.376   9.238  0.3619 -1.6686  0.4393
  407MOL0     H54878  10.044   3.696   9.522  0.4641  1.0669  0.4806
  407MOL0     H54879  10.170   3.808   9.722 -1.0162 -1.0345  1.7266
  407MOL0     H54880  10.456   3.805   9.762 -0.1961  4.5267  0.3886
  407MOL0     H54881  10.331   3.873   9.865 -2.2721 -2.2652  0.5987
  407MOL0     H54882  10.487   3.723  10.047  3.9914  0.4800  2.3074
  407MOL0     H54883  10.605   3.782   9.941 -1.2362 -0.5952 -2.1341
  407MOL0     H54884  10.504   4.026   9.976  1.1358 -0.3600 -0.9934
  407MOL0     H54885  10.405   3.946  10.101 -1.4549 -0.3045 -1.4103
  407MOL0     H54886  10.619   3.860  10.211  0.1026  0.6290  0.2185
  407MOL0     H54887  10.714   3.954  10.098  0.2727 -3.9727 -0.5097
  407MOL0     H54888  10.577   4.162  10.184  0.2386  2.6993  4.1783
  407MOL0     H54889  10.548   4.069  10.316 -1.4227 -0.3302  0.2466
  407MOL0     H54890  10.795   4.009  10.344 -0.2007  2.1646  2.6554
  407MOL0     H54891  10.830   4.106  10.204  2.3103 -2.5691  1.7035
  407MOL0     H54892  10.736   4.310  10.298  0.9418 -0.2956 -0.9832
  407MOL0     H54893  10.681   4.242  10.446  2.9274  0.6874  1.4936
  407MOL0     H54894  10.965   4.278  10.359 -1.3229 -0.1032 -0.7918
  407MOL0     H54895  10.942   4.153  10.471 -0.2232 -0.1601 -3.1079
  407MOL0     H54896  10.915   4.534  10.483 -2.9694  1.5137 -0.0709
  407MOL0     H54897  10.940   4.664  10.776  0.0630 -1.3677 -0.9073
  407MOL0     H54898  10.813   4.709  10.665 -1.7061 -0.7989  0.5793
  407MOL0     H54899  10.759   4.740  10.923 -1.2835  0.7170  0.0761
  407MOL0     H54900  10.729   4.562  10.909  4.3718 -0.5095 -0.9002
  407MOL0     H54901  10.578   4.743  10.735  2.0127  2.0692  1.0094
  407MOL0     H54902  10.533   4.720  10.902 -1.8673 -4.0468  0.2430
  407MOL0     H54903  10.496   4.477  10.879 -4.1971  0.2982  0.2045
  407MOL0     H54904  10.587   4.481  10.733  0.6746  1.7988 -0.4605
  407MOL0     H54905  10.478   4.297  10.759 -0.2057 -1.3893 -0.4820
  407MOL0     H54906  10.531   4.078  10.593 -0.2465  2.9088 -1.0387
  407MOL0     H54907  10.465   4.063  10.748  1.0653  1.8269 -1.4020
  407MOL0     H54908  10.379   3.977  10.619  1.0201 -0.2214 -0.6367
  407MOL0     H54909  10.196   4.048  10.113 -1.8088  1.2766 -0.7327
  407MOL0     H54910  10.070   3.874   9.986 -2.8913  0.8772 -1.4154
  407MOL0     H54911   9.938   3.770   9.865  0.4392  0.7743  1.4835
  407MOL0     H54912   9.945   3.637   9.984  1.2794  0.9982  0.5011
  407MOL0     H54913   9.800   3.559   9.815 -1.0260 -1.7495  3.9653
  407MOL0     H54914   9.687   3.612   9.924  0.7198  0.8194  0.2311
  407MOL0     H54915   9.791   3.740   9.676 -0.1214 -4.2474  1.5468
  407MOL0     H54916   9.711   3.861   9.780  2.7107  0.1784  0.4883
  407MOL0     H54917   9.575   3.627   9.652 -4.0778 -0.6349 -0.2400
  407MOL0     H54918   9.505   3.726   9.779  2.7482  1.5865  2.6522
  407MOL0     H54919   9.626   3.818   9.505  0.7658 -0.8171 -0.0525
  407MOL0     H54920   9.536   3.925   9.618  2.0038  0.8736 -2.7877
  407MOL0     H54921   9.431   3.745   9.405 -2.2948 -2.9042  0.0490
  407MOL0     H54922   9.371   3.690   9.564 -0.5024  0.8864  0.1527
  407MOL0     H54923   9.331   3.965   9.425  0.8430  1.5135  1.2192
  407MOL0     H54924   9.278   3.929   9.591 -4.7459  1.2999 -1.4440
  407MOL0     H54925   9.145   3.739   9.471  2.3097 -0.3664  1.3516
  407MOL0     H54926   9.202   3.807   9.319 -1.1724  1.0206 -0.8545
  407MOL0     H54927   9.757   3.905  10.272 -0.8695 -0.2047 -2.0632
  407MOL0     H54928   9.895   4.047  10.409  1.5907 -0.3594  0.5802
  407MOL0     H54929  10.154   4.367  10.394  1.1965  0.6901 -1.9449
  407MOL0     H54930  10.240   4.561  10.526 -0.2445  0.3953  1.9013
  407MOL0     H54931  10.332   3.417   9.806  0.3020  0.7751  0.5079
  407MOL0     H54932  10.187   3.314   9.623  0.4990 -0.8028  2.5732
  407MOL0     H54933   9.642   3.491   9.462 -1.1307 -1.6697  0.0729
  407MOL0     H54934   9.477   3.420   9.267  0.9803  1.9712  1.3588
  407MOL0     H54935   9.386   3.263   9.114  2.7476 -0.4560  0.9754
  407MOL0     H54936   9.396   3.423   9.044  2.7904  1.9702 -0.9012
  407MOL0     H54937   9.435   3.151   8.890 -1.6717 -1.0007  1.4630
  407MOL0     H54938   9.441   3.314   8.825 -0.3564 -0.5327 -0.9804
  407MOL0     H54939   9.203   3.352   8.907 -4.5867 -1.0669  1.4554
  407MOL0     H54940   9.194   3.184   8.955  0.9252  0.6068  0.8254
  407MOL0     H54941   9.264   3.269   8.662  1.2558 -2.3232 -1.3555
  407MOL0     H54942   9.108   3.210   8.713 -1.2828 -3.1308  3.3077
  407MOL0     H54943   9.296   2.853   8.642 -2.8990 -0.6759 -0.2385
  407MOL0     H54944   9.821   3.299   9.041  1.6393  2.9394 -0.4634
  407MOL0     H54945   9.959   3.356   9.246  0.6330 -0.6227 -0.4134
  408MOL0     O54946   4.093   7.563   3.773 -0.3985 -0.1475 -1.0087
  408MOL0     C54947   4.170   7.520   3.858 -0.1440  0.7278 -1.1143
  408MOL0     O54948   4.258   7.601   3.928  0.4276 -0.0944  0.6963
  408MOL0     C54949   4.265   7.738   3.912 -0.7025  0.5127 -0.6699
  408MOL0     C54950   4.289   7.803   3.793  0.5176 -1.1758 -0.1648
  408MOL0     C54951   4.301   7.945   3.795  0.1850 -0.4300  0.5533
  408MOL0     C54952   4.313   8.015   3.916 -0.1314  0.2844 -0.4793
  408MOL0     O54953   4.339   8.145   3.905 -0.3314  0.6407 -0.4586
  408MOL0     C54954   4.333   8.233   4.017  0.4222  0.0497  0.3427
  408MOL0     C54955   4.323   8.373   3.952 -0.6837 -0.6512 -0.2859
  408MOL0     C54956   4.309   8.483   4.052  0.1744  0.0704  0.9134
  408MOL0     C54957   4.272   8.619   3.981  0.1977 -0.5878  0.0617
  408MOL0     C54958   4.244   8.727   4.082 -0.8214 -0.5517 -0.2778
  408MOL0     C54959   4.129   8.830   4.042  0.0765 -0.0022  0.4693
  408MOL0     C54960   4.153   8.964   4.099 -0.2240 -0.4543 -0.1665
  408MOL0     C54961   4.180   8.970   4.254  0.5995  0.6281  0.2208
  408MOL0     N54962   4.218   9.109   4.289  0.1390 -0.0861 -0.3524
  408MOL0     C54963   4.150   9.223   4.266  0.9178  0.4147  0.0882
  408MOL0     C54964   4.224   9.321   4.341  0.7286  0.9473  2.3836
  408MOL0     C54965   4.185   9.466   4.375 -0.5438  0.0275 -0.3553
  408MOL0     C54966   4.101   9.473   4.496  0.2059 -0.2174 -0.3288
  408MOL0     C54967   4.038   9.611   4.502  0.2178  0.6671  0.2979
  408MOL0     C54968   3.932   9.594   4.604 -0.7754 -0.6927 -0.5854
  408MOL0     O54969   3.820   9.511   4.570 -0.0839 -0.2367 -0.0503
  408MOL0     C54970   3.709   9.574   4.517  0.0400 -0.1581  0.2096
  408MOL0     C54971   3.696   9.703   4.458  0.2279 -0.0649 -0.0546
  408MOL0     C54972   3.577   9.745   4.399  0.9147 -0.6657 -0.6211
  408MOL0     C54973   3.568   9.885   4.342 -0.1147  0.7465  0.9458
  408MOL0     C54974   3.455   9.665   4.410 -0.1233  0.5345  0.1984
  408MOL0     C54975   3.343   9.682   4.328  0.1306  0.6865  0.2180
  408MOL0     O54976   3.235   9.653   4.397  0.0487  0.6554  0.7389
  408MOL0     C54977   3.110   9.652   4.347  0.0889 -1.1636  0.5299
  408MOL0     C54978   3.085   9.603   4.210  0.1470 -0.4363  0.4895
  408MOL0     C54979   2.959   9.626   4.156 -0.7848 -0.2095 -0.3191
  408MOL0     C54980   2.864   9.702   4.226 -0.6667  0.9803 -0.2089
  408MOL0     O54981   2.740   9.733   4.162 -0.4135  0.3007 -0.0779
  408MOL0     C54982   2.737   9.756   4.019 -0.0721 -0.0401 -0.7389
  408MOL0     C54983   2.585   9.776   3.970  0.0968  0.3800 -1.3700
  408MOL0     C54984   2.553   9.926   3.960  0.1939  0.6318 -0.4750
  408MOL0     C54985   2.415   9.956   3.904  0.4439 -0.2386  0.1681
  408MOL0     C54986   2.310   9.876   3.978 -1.1293 -0.2579  0.0149
  408MOL0     C54987   2.170   9.925   3.956  0.7070 -0.2517 -0.3417
  408MOL0     C54988   2.065   9.828   4.026  0.8466 -0.1516 -0.3298
  408MOL0     C54989   1.918   9.878   4.027  0.1362 -0.5648  1.1700
  408MOL0    Cl54990   1.809   9.764   4.113 -0.4280 -0.3722 -0.1037
  408MOL0     C54991   2.880   9.737   4.356  0.1209 -0.4723  0.3244
  408MOL0     C54992   3.005   9.720   4.422 -0.8578  0.5620 -0.1678
  408MOL0     O54993   3.355   9.716   4.211 -0.1121  0.3286 -0.8710
  408MOL0     C54994   3.472   9.538   4.484  0.0574  0.4270 -0.4609
  408MOL0     C54995   3.591   9.503   4.544  0.1385 -0.6345  0.9995
  408MOL0     N54996   4.328   9.262   4.402  0.5188 -0.2734 -0.1371
  408MOL0     N54997   4.330   9.135   4.367 -0.6983  0.3036 -1.4191
  408MOL0     C54998   4.304   7.948   4.036  1.8491 -0.2249  0.6532
  408MOL0     C54999   4.283   7.815   4.033  0.8752 -0.6181  0.0765
  408MOL0     C55000   4.166   7.375   3.889 -0.6962 -0.0716 -0.2600
  408MOL0     C55001   4.055   7.291   3.869 -0.5845 -0.3013  0.5733
  408MOL0     C55002   4.071   7.163   3.908  0.5800  0.4590 -0.1868
  408MOL0     C55003   4.183   7.108   3.966  0.0971 -0.7031  0.7204
  408MOL0     O55004   4.174   6.990   4.035  0.1673  0.3585 -0.4851
  408MOL0     C55005   4.299   6.931   4.077 -0.0147 -0.9658  0.4911
  408MOL0     C55006   4.291   6.801   4.150 -1.1673  0.5388 -0.3160
  408MOL0     C55007   4.427   6.735   4.165  0.5650  0.3838 -0.6761
  408MOL0     C55008   4.445   6.628   4.268  0.0003  1.2393  0.7772
  408MOL0     C55009   4.399   6.500   4.230  0.7288  0.4129  0.0362
  408MOL0     C55010   4.337   6.404   4.185  0.1462  0.5834 -0.2539
  408MOL0     C55011   4.299   7.194   3.979  0.8302  0.1870  1.3163
  408MOL0     C55012   4.286   7.324   3.935 -0.2967  0.4349 -0.3783
  408MOL0     H55013   4.291   7.760   3.693 -1.0599  0.4985 -0.9881
  408MOL0     H55014   4.315   8.007   3.706  0.3131 -0.8655  0.2675
  408MOL0     H55015   4.245   8.215   4.079 -0.9715  1.9789 -0.9723
  408MOL0     H55016   4.418   8.225   4.085  1.8617 -1.7314 -1.5218
  408MOL0     H55017   4.411   8.393   3.890 -1.3151 -1.9980 -1.6726
  408MOL0     H55018   4.242   8.369   3.879 -0.4178  3.1848 -1.0426
  408MOL0     H55019   4.220   8.467   4.112 -1.2724 -0.5745 -1.2879
  408MOL0     H55020   4.398   8.495   4.115  1.2279 -0.2399 -0.4398
  408MOL0     H55021   4.354   8.657   3.919  1.1424  4.1184  3.5766
  408MOL0     H55022   4.190   8.616   3.909 -0.4576 -1.1733  0.8020
  408MOL0     H55023   4.215   8.685   4.179  0.6942 -3.8169 -1.1109
  408MOL0     H55024   4.335   8.787   4.091 -0.0319 -1.0869 -3.5286
  408MOL0     H55025   4.130   8.840   3.933  1.3691 -0.1483  0.4459
  408MOL0     H55026   4.031   8.790   4.068  0.4923 -0.6585  1.0644
  408MOL0     H55027   4.229   9.013   4.037 -0.0453  0.6584  0.8902
  408MOL0     H55028   4.067   9.029   4.084  1.0309  0.6491 -3.4545
  408MOL0     H55029   4.264   8.903   4.276 -1.7991 -3.3151 -1.4513
  408MOL0     H55030   4.100   8.930   4.316  0.3019 -0.9633 -1.1013
  408MOL0     H55031   4.070   9.241   4.195 -0.2345  1.2769  1.5436
  408MOL0     H55032   4.276   9.513   4.413 -0.0962 -2.2651  1.6673
  408MOL0     H55033   4.148   9.524   4.289  2.1955 -1.1756 -2.5330
  408MOL0     H55034   4.153   9.441   4.587 -1.2288  3.0757  1.8421
  408MOL0     H55035   4.021   9.401   4.478  2.7799 -3.5720  0.6024
  408MOL0     H55036   3.991   9.646   4.409 -0.6812 -2.2471 -0.4488
  408MOL0     H55037   4.114   9.679   4.541 -0.6947  1.4903  0.6952
  408MOL0     H55038   3.905   9.693   4.643 -1.0679 -1.7622  2.1196
  408MOL0     H55039   3.974   9.547   4.694 -1.8687  1.1834  0.9790
  408MOL0     H55040   3.787   9.762   4.458 -0.4534  1.1756 -2.8605
  408MOL0     H55041   3.469   9.923   4.371 -0.5600  0.0926  0.3261
  408MOL0     H55042   3.657   9.947   4.357  0.1725  0.7099 -0.4518
  408MOL0     H55043   3.578   9.867   4.235 -1.4733  3.1757  0.3256
  408MOL0     H55044   3.168   9.558   4.157  0.7935  1.1885  0.0606
  408MOL0     H55045   2.942   9.586   4.057 -1.1486 -1.5175  0.2494
  408MOL0     H55046   2.796   9.847   4.005 -1.0876  0.5066 -1.5565
  408MOL0     H55047   2.791   9.675   3.969  3.2070  1.2314  0.4022
  408MOL0     H55048   2.582   9.742   3.866  1.9512 -1.2383 -0.9508
  408MOL0     H55049   2.506   9.723   4.024 -0.0035  0.7488 -1.1493
  408MOL0     H55050   2.631   9.974   3.900  4.1274 -4.4547 -0.0907
  408MOL0     H55051   2.563   9.966   4.062 -1.0542  1.5765 -0.7064
  408MOL0     H55052   2.385  10.060   3.921 -0.9145 -0.4863 -0.5719
  408MOL0     H55053   2.419   9.930   3.798 -0.4389 -0.6491  0.2196
  408MOL0     H55054   2.336   9.867   4.083 -1.9257 -3.6645  0.0463
  408MOL0     H55055   2.316   9.774   3.940 -0.9266  0.1035 -0.9637
  408MOL0     H55056   2.158  10.024   4.002 -1.0331 -1.3094  1.6356
  408MOL0     H55057   2.148   9.933   3.849  1.1780 -0.1371 -0.4303
  408MOL0     H55058   2.098   9.814   4.129 -1.5310 -2.0659  0.2597
  408MOL0     H55059   2.071   9.725   3.989 -2.7827  0.4779 -3.3038
  408MOL0     H55060   1.881   9.886   3.924 -0.1551 -1.2717  1.2177
  408MOL0     H55061   1.913   9.982   4.061  3.4401 -0.1134  0.6508
  408MOL0     H55062   2.794   9.775   4.410 -1.4913 -2.4876 -0.6903
  408MOL0     H55063   3.042   9.756   4.517  3.0320  0.5014 -1.4935
  408MOL0     H55064   3.389   9.469   4.499 -2.0472  1.9732 -3.8962
  408MOL0     H55065   3.600   9.410   4.599  0.1441 -1.4792 -0.3916
  408MOL0     H55066   4.323   7.998   4.130  0.9599 -3.4819  2.7039
  408MOL0     H55067   4.289   7.761   4.127  2.6295 -0.0573  0.3315
  408MOL0     H55068   3.960   7.321   3.826 -1.3233 -1.9544  0.9709
  408MOL0     H55069   3.990   7.091   3.900  0.0109  1.3296 -3.3702
  408MOL0     H55070   4.362   6.918   3.988  1.3673  1.6063  1.0004
  408MOL0     H55071   4.363   7.002   4.131  4.0748 -1.1817 -3.4128
  408MOL0     H55072   4.243   6.718   4.098  1.2819 -2.5197  1.8732
  408MOL0     H55073   4.256   6.820   4.251 -2.2468 -1.3562 -0.3002
  408MOL0     H55074   4.500   6.805   4.207 -0.6645  2.1443 -1.3199
  408MOL0     H55075   4.456   6.690   4.070 -0.1429 -2.2325  0.2821
  408MOL0     H55076   4.403   6.657   4.365 -1.3489 -5.0180  2.4979
  408MOL0     H55077   4.551   6.611   4.287 -0.7752 -3.8562  1.8469
  408MOL0     H55078   4.280   6.324   4.142  0.7593  0.4956 -0.9217
  408MOL0     H55079   4.389   7.166   4.034  1.8866 -0.7166 -0.7559
  408MOL0     H55080   4.379   7.378   3.950  0.0557  0.2044 -1.5821
  409MOL0     O55081   3.754   8.688  10.845  0.0643 -0.6208 -0.4274
  409MOL0     C55082   3.764   8.747  10.747  1.0749 -0.5727  0.0875
  409MOL0     O55083   3.674   8.771  10.651 -0.5833 -0.8754 -0.4655
  409MOL0     C55084   3.536   8.791  10.672  0.1409 -0.5471  0.1229
  409MOL0     C55085   3.457   8.834  10.565 -1.1137 -0.9602  0.9904
  409MOL0     C55086   3.322   8.863  10.578 -1.6064  0.8817  0.1902
  409MOL0     C55087   3.261   8.852  10.706  0.0041  0.4392  0.8585
  409MOL0     O55088   3.127   8.883  10.718 -0.7430  0.2761  0.6598
  409MOL0     C55089   3.075   8.893  10.847 -0.0132  0.0773 -0.0559
  409MOL0     C55090   2.937   8.946  10.836  0.7250 -0.7506 -1.0204
  409MOL0     C55091   2.940   9.094  10.843 -0.3126 -0.0367 -0.2693
  409MOL0     C55092   2.806   9.162  10.852 -1.3421 -0.3235  0.2477
  409MOL0     C55093   2.717   9.144  10.725  0.3008 -0.6264 -0.4735
  409MOL0     C55094   2.587   9.225  10.722  0.1124  0.1678  0.4490
  409MOL0     C55095   2.520   9.214  10.588  0.8714  1.2260  0.2473
  409MOL0     C55096   2.453   9.074  10.552  0.7707  0.3709  0.0947
  409MOL0     N55097   2.389   9.087  10.419  0.5729  0.4910 -0.2068
  409MOL0     C55098   2.402   8.997  10.317 -0.0016  1.5403 -0.8311
  409MOL0     C55099   2.342   9.042  10.209 -0.3251 -0.2024 -0.5717
  409MOL0     C55100   2.329   8.975  10.084  0.0841 -0.3602 -0.1126
  409MOL0     C55101   2.200   9.011   9.991  0.1013 -0.3514  1.0417
  409MOL0     C55102   2.197   8.919   9.868  0.8100  0.1997  0.3075
  409MOL0     C55103   2.069   8.922   9.793  0.7498  0.0723  0.4237
  409MOL0     O55104   2.083   8.851   9.670  0.1630  0.1538 -0.2362
  409MOL0     C55105   2.107   8.930   9.569 -0.1696  0.7985 -0.3426
  409MOL0     C55106   2.229   8.907   9.524 -0.8291  0.3536  0.7184
  409MOL0     C55107   2.288   8.994   9.433 -0.3853 -0.2833 -0.4406
  409MOL0     C55108   2.422   8.958   9.383 -0.7200 -0.2583 -0.3166
  409MOL0     C55109   2.223   9.117   9.385 -0.0815  0.0046  0.5293
  409MOL0     C55110   2.281   9.217   9.296  0.4320  1.0959 -0.0341
  409MOL0     O55111   2.416   9.228   9.300 -0.0346 -0.0298 -0.0493
  409MOL0     C55112   2.487   9.348   9.302 -0.0112 -0.6212 -0.1898
  409MOL0     C55113   2.429   9.469   9.343 -0.1913  0.0390  0.0088
  409MOL0     C55114   2.509   9.575   9.371  0.3341 -0.4858 -0.0148
  409MOL0     C55115   2.647   9.577   9.343  0.6548 -0.0538  0.7191
  409MOL0     O55116   2.717   9.691   9.375 -0.1668 -0.2537  0.3481
  409MOL0     C55117   2.860   9.692   9.392  0.1219 -0.3826  0.1872
  409MOL0     C55118   2.901   9.811   9.485 -0.7263 -0.1117  0.5119
  409MOL0     C55119   3.054   9.825   9.503  1.2428  0.3532  0.0170
  409MOL0     C55120   3.112   9.938   9.419 -0.7906 -0.1222 -0.1308
  409MOL0     C55121   3.250   9.898   9.377 -0.2337  0.6710  0.4188
  409MOL0     C55122   3.335   9.995   9.289 -0.4992 -0.4082 -0.2691
  409MOL0     C55123   3.257  10.039   9.158  0.8597  0.6957  0.1857
  409MOL0     C55124   3.361  10.116   9.069 -0.6344 -0.0445  0.3153
  409MOL0    Cl55125   3.420  10.268   9.134  0.1228  0.1189  0.0301
  409MOL0     C55126   2.704   9.462   9.286 -0.1054 -0.0806 -0.2151
  409MOL0     C55127   2.623   9.344   9.270 -0.0022 -1.0939 -0.1674
  409MOL0     O55128   2.208   9.291   9.236  0.0510  0.7802 -0.2728
  409MOL0     C55129   2.101   9.137   9.444  0.3150 -0.6043  0.5277
  409MOL0     C55130   2.043   9.046   9.531 -0.6684  0.9076 -0.2501
  409MOL0     N55131   2.269   9.149  10.260 -0.5489  0.1728  0.5068
  409MOL0     N55132   2.310   9.184  10.376 -0.0766  0.8868  0.3724
  409MOL0     C55133   3.335   8.806  10.816 -0.1639  0.6709  0.8586
  409MOL0     C55134   3.469   8.780  10.797  0.0856  0.3215 -0.6347
  409MOL0     C55135   3.892   8.817  10.730 -0.1359 -0.2280  0.2028
  409MOL0     C55136   3.906   8.918  10.626  0.4924 -0.2136 -1.2276
  409MOL0     C55137   4.022   8.991  10.624 -0.1903 -0.8040  0.0507
  409MOL0     C55138   4.126   8.965  10.715 -0.3770 -0.4066 -0.1634
  409MOL0     O55139   4.232   9.054  10.721 -0.5328  0.4931  0.1274
  409MOL0     C55140   4.266   9.120  10.594 -0.3684  0.7024  0.0896
  409MOL0     C55141   4.219   9.262  10.580  0.3989 -0.1163  0.1761
  409MOL0     C55142   4.281   9.338  10.691  0.0353  0.3549  0.0088
  409MOL0     C55143   4.235   9.490  10.704 -0.5072  1.1859 -0.4603
  409MOL0     C55144   4.101   9.521  10.748 -0.3956 -0.5183  0.2957
  409MOL0     C55145   3.995   9.572  10.786 -0.0357  0.2196 -0.1217
  409MOL0     C55146   4.113   8.862  10.797 -0.9167 -0.0536 -0.2382
  409MOL0     C55147   3.995   8.793  10.809  0.4195 -0.9527  0.3079
  409MOL0     H55148   3.510   8.838  10.470  0.4593  0.7754  1.8782
  409MOL0     H55149   3.261   8.894  10.494 -0.6472 -0.2708 -0.9524
  409MOL0     H55150   3.084   8.799  10.903  0.8970  0.2903  0.1727
  409MOL0     H55151   3.134   8.969  10.898 -0.8890  0.6228  0.1567
  409MOL0     H55152   2.893   8.902  10.746 -3.0609  2.1640 -0.8639
  409MOL0     H55153   2.883   8.909  10.923  0.7654 -0.3476 -0.8227
  409MOL0     H55154   2.997   9.130  10.929 -0.7929 -3.1428  1.4888
  409MOL0     H55155   2.988   9.126  10.750  0.3472  1.5718  0.5805
  409MOL0     H55156   2.761   9.118  10.941 -0.2444 -3.5338 -0.6491
  409MOL0     H55157   2.824   9.270  10.846  4.6867 -1.0527 -2.8725
  409MOL0     H55158   2.777   9.171  10.637 -0.0083  0.5395 -0.3502
  409MOL0     H55159   2.683   9.041  10.718 -1.2871 -0.1277 -0.4293
  409MOL0     H55160   2.518   9.196  10.801  0.9271  0.6130  1.3367
  409MOL0     H55161   2.614   9.328  10.749  0.5279  0.2211 -0.1436
  409MOL0     H55162   2.432   9.279  10.595  0.1479  0.1166  3.9460
  409MOL0     H55163   2.591   9.246  10.512  1.3285  1.0871  0.6114
  409MOL0     H55164   2.369   9.037  10.611 -1.6107  0.1627 -3.1351
  409MOL0     H55165   2.536   9.004  10.548 -0.5498 -1.2200 -0.8324
  409MOL0     H55166   2.451   8.901  10.327  1.0244  2.0543 -0.8363
  409MOL0     H55167   2.417   9.004  10.026  0.1346 -1.3097 -0.5279
  409MOL0     H55168   2.330   8.870  10.114  0.6788  0.1988  1.9659
  409MOL0     H55169   2.214   9.111   9.949  1.3431 -1.6728 -2.0225
  409MOL0     H55170   2.106   9.010  10.048 -1.2498  0.8769 -1.0151
  409MOL0     H55171   2.205   8.819   9.913 -0.5318  0.2897  0.7958
  409MOL0     H55172   2.288   8.932   9.809  1.0038  2.3847  1.0078
  409MOL0     H55173   2.018   9.019   9.789  0.7748  0.2280  2.5874
  409MOL0     H55174   1.996   8.871   9.857  1.0010 -0.8289  0.0074
  409MOL0     H55175   2.292   8.822   9.548  2.8650  1.8914 -2.3709
  409MOL0     H55176   2.422   8.982   9.276  2.0293 -0.6822 -0.4875
  409MOL0     H55177   2.503   9.015   9.429  2.2584 -4.2447 -0.0334
  409MOL0     H55178   2.450   8.854   9.403 -2.0332 -0.2150  1.9708
  409MOL0     H55179   2.326   9.468   9.379  0.1457  2.1133  1.1291
  409MOL0     H55180   2.477   9.670   9.411  0.9666 -0.3370  0.1417
  409MOL0     H55181   2.894   9.597   9.432 -0.7321 -1.2345 -1.0378
  409MOL0     H55182   2.902   9.703   9.291 -2.0440 -0.3199 -0.7581
  409MOL0     H55183   2.869   9.900   9.431  1.9276 -0.4469 -1.8010
  409MOL0     H55184   2.854   9.810   9.584  0.6607  0.1846  1.2029
  409MOL0     H55185   3.095   9.724   9.496  1.1956  0.3179  0.2421
  409MOL0     H55186   3.070   9.856   9.606  3.6278  0.1370 -0.2423
  409MOL0     H55187   3.058   9.968   9.329  1.0744  2.6803 -0.4276
  409MOL0     H55188   3.137  10.032   9.467  5.2660  0.6325 -3.7413
  409MOL0     H55189   3.242   9.811   9.311  2.5255  2.2390 -2.1861
  409MOL0     H55190   3.311   9.878   9.465 -0.3122 -1.0488  0.1146
  409MOL0     H55191   3.357  10.084   9.349  1.4040 -1.7848  1.2135
  409MOL0     H55192   3.430   9.955   9.255 -0.7659  1.0411 -2.9718
  409MOL0     H55193   3.173  10.108   9.168  0.2394 -0.2232  1.4210
  409MOL0     H55194   3.217   9.948   9.111  2.4325 -0.4428  0.9654
  409MOL0     H55195   3.337  10.125   8.963 -0.5693 -3.9335 -0.1794
  409MOL0     H55196   3.453  10.058   9.065 -0.4692  0.2915 -1.1326
  409MOL0     H55197   2.807   9.452   9.254 -0.6206  0.6980 -2.2343
  409MOL0     H55198   2.668   9.253   9.233 -1.4048 -1.4133 -1.1894
  409MOL0     H55199   2.046   9.228   9.420 -1.8336 -1.2119  2.7406
  409MOL0     H55200   1.965   9.098   9.585 -0.2175  1.2501  0.0833
  409MOL0     H55201   3.307   8.779  10.917 -1.8335 -0.2242  0.2027
  409MOL0     H55202   3.528   8.740  10.879 -0.7883 -1.8375 -0.9716
  409MOL0     H55203   3.826   8.946  10.558 -2.0193 -1.2216  1.1271
  409MOL0     H55204   4.030   9.065  10.545 -2.4045  0.0897  0.5953
  409MOL0     H55205   4.373   9.112  10.575 -0.6492 -0.7596 -1.0462
  409MOL0     H55206   4.231   9.062  10.508  3.7819 -2.0261 -0.0443
  409MOL0     H55207   4.110   9.256  10.592  0.4028 -0.3966  0.0761
  409MOL0     H55208   4.255   9.309  10.488 -1.6747 -0.3751 -0.8122
  409MOL0     H55209   4.387   9.324  10.667  0.4745  0.8128  1.5088
  409MOL0     H55210   4.255   9.298  10.789  0.6696  3.1372  1.4381
  409MOL0     H55211   4.268   9.541  10.613  1.5286 -1.3746 -1.2984
  409MOL0     H55212   4.302   9.536  10.778 -1.4344  0.3554  0.9324
  409MOL0     H55213   3.903   9.620  10.813  1.7742  2.3113  3.0593
  409MOL0     H55214   4.197   8.831  10.859 -0.8473  3.9952  1.9999
  409MOL0     H55215   3.996   8.719  10.888  1.4782  0.4562  1.6903
  410MOL0     O55216  10.204   5.234   8.667  0.2878  1.0085 -0.1988
  410MOL0     C55217  10.099   5.245   8.601 -0.3010 -0.9249 -1.2274
  410MOL0     O55218  10.087   5.240   8.468  0.2182 -0.1018 -0.0936
  410MOL0     C55219  10.191   5.255   8.380 -0.3450 -0.2439 -0.5792
  410MOL0     C55220  10.317   5.294   8.403 -0.5266 -0.4288 -0.4301
  410MOL0     C55221  10.414   5.308   8.300  0.2283  0.3097 -0.4087
  410MOL0     C55222  10.377   5.299   8.170 -0.4610 -0.5684  0.3832
  410MOL0     O55223  10.457   5.339   8.062  0.3933 -0.3756  0.3503
  410MOL0     C55224  10.549   5.442   8.080  0.0686 -0.2194  0.1117
  410MOL0     C55225  10.685   5.383   8.119  0.9649 -0.8511 -0.8298
  410MOL0     C55226  10.765   5.334   8.006  0.3592  0.8215  0.2561
  410MOL0     C55227  10.912   5.295   8.053  0.9639  0.3116  1.1272
  410MOL0     C55228  11.020   5.246   7.952 -0.0589  0.1937 -0.1071
  410MOL0     C55229  10.983   5.121   7.881  0.1800  0.7962 -0.1465
  410MOL0     C55230  10.950   5.001   7.976 -0.8238 -0.3108  0.0126
  410MOL0     C55231  10.914   4.881   7.890  1.1456  0.4029 -0.1724
  410MOL0     N55232  10.907   4.758   7.966 -0.2494 -0.1737  0.3483
  410MOL0     C55233  10.810   4.728   8.053 -0.2249 -0.2363  0.4708
  410MOL0     C55234  10.842   4.611   8.107 -0.3990 -0.2038  0.7039
  410MOL0     C55235  10.766   4.524   8.212 -0.0499 -0.4370  0.6993
  410MOL0     C55236  10.616   4.520   8.175  0.4022  0.4951  0.2724
  410MOL0     C55237  10.535   4.445   8.281  0.9558 -0.4021  0.2901
  410MOL0     C55238  10.389   4.486   8.243 -0.5160 -0.5445  0.5970
  410MOL0     O55239  10.345   4.402   8.140 -0.1191  0.1794  0.0810
  410MOL0     C55240  10.228   4.337   8.163  0.4644  0.6405  0.8029
  410MOL0     C55241  10.101   4.404   8.183 -0.6987  0.6482 -0.5411
  410MOL0     C55242   9.981   4.340   8.195  1.7309  0.2936  1.0312
  410MOL0     C55243   9.870   4.426   8.233 -0.2867 -0.4257 -0.2973
  410MOL0     C55244   9.979   4.197   8.188  0.1102  0.1574 -0.3510
  410MOL0     C55245   9.861   4.116   8.163 -0.1513 -0.7386  0.5252
  410MOL0     O55246   9.738   4.176   8.161 -0.3489 -0.1601 -0.2394
  410MOL0     C55247   9.639   4.086   8.198  0.0661 -0.4805 -1.0919
  410MOL0     C55248   9.622   4.018   8.323 -0.7976  0.4721  0.2360
  410MOL0     C55249   9.508   3.931   8.339  0.5002 -0.0853 -0.3257
  410MOL0     C55250   9.408   3.913   8.242  0.4123 -1.4208 -0.9985
  410MOL0     O55251   9.296   3.836   8.263  0.3491  0.1957  0.4047
  410MOL0     C55252   9.238   3.835   8.396  0.3694  1.1005 -0.9528
  410MOL0     C55253   9.127   3.727   8.404 -0.1545 -0.4220  0.9187
  410MOL0     C55254   9.031   3.743   8.525  0.1848  0.3701  0.5205
  410MOL0     C55255   9.100   3.670   8.649  0.1945  0.1576  0.1851
  410MOL0     C55256   9.004   3.665   8.769 -0.3507  0.4042 -0.0449
  410MOL0     C55257   9.055   3.599   8.895 -0.5489  0.2464  0.3107
  410MOL0     C55258   8.969   3.607   9.023 -0.0344  0.6418  0.0989
  410MOL0     C55259   9.020   3.503   9.132  0.6438  0.4593  0.7366
  410MOL0    Cl55260   9.186   3.538   9.184  0.1655  0.4095 -0.6505
  410MOL0     C55261   9.432   3.985   8.116  0.0166  0.9230  0.7315
  410MOL0     C55262   9.549   4.063   8.094 -0.0317 -0.1665 -0.2150
  410MOL0     O55263   9.885   3.997   8.164  0.0587  0.7081 -0.4707
  410MOL0     C55264  10.104   4.137   8.189 -0.5315 -0.7495 -0.3103
  410MOL0     C55265  10.221   4.203   8.161  0.7454 -0.3723 -0.0131
  410MOL0     N55266  10.963   4.571   8.046 -0.5530 -0.3293 -0.5528
  410MOL0     N55267  10.999   4.655   7.962 -0.2739  0.0651 -0.0016
  410MOL0     C55268  10.246   5.244   8.145 -0.8749 -0.2933 -0.0574
  410MOL0     C55269  10.155   5.213   8.249 -0.2595 -0.0522 -0.2798
  410MOL0     C55270   9.974   5.236   8.679 -0.5613 -0.4027  0.6017
  410MOL0     C55271   9.965   5.257   8.820 -0.6535  0.4458 -0.1417
  410MOL0     C55272   9.840   5.272   8.869  0.0125 -0.4201 -0.6297
  410MOL0     C55273   9.724   5.254   8.785 -0.4674 -1.1443  0.1757
  410MOL0     O55274   9.599   5.260   8.838  1.1161 -0.0750  0.3173
  410MOL0     C55275   9.569   5.152   8.929  0.1576  0.3077  0.4477
  410MOL0     C55276   9.430   5.165   8.984  0.0577 -0.1289  0.4844
  410MOL0     C55277   9.428   5.246   9.116 -0.2675 -0.1600 -1.1575
  410MOL0     C55278   9.307   5.326   9.137  0.9139  0.0093 -0.0892
  410MOL0     C55279   9.327   5.385   9.271  0.0623 -0.3447  0.8324
  410MOL0     C55280   9.333   5.442   9.379 -0.3557 -1.0301  0.0556
  410MOL0     C55281   9.736   5.237   8.651 -0.9776 -1.1842 -0.5645
  410MOL0     C55282   9.861   5.226   8.599  0.9312  0.5577 -0.5254
  410MOL0     H55283  10.360   5.321   8.499 -2.0735  1.8066 -0.2769
  410MOL0     H55284  10.513   5.332   8.336 -0.6495  2.6695  0.6343
  410MOL0     H55285  10.560   5.507   7.992 -0.3735 -1.4596 -0.8846
  410MOL0     H55286  10.531   5.510   8.164 -2.7906  0.1240 -0.6702
  410MOL0     H55287  10.738   5.468   8.164  0.7789 -0.6242 -1.0327
  410MOL0     H55288  10.663   5.309   8.196 -3.3734 -1.4632 -2.3477
  410MOL0     H55289  10.726   5.246   7.955  0.0806  1.8313 -1.3521
  410MOL0     H55290  10.767   5.414   7.931 -2.4198  0.2763 -0.5146
  410MOL0     H55291  10.962   5.384   8.092  0.3186  0.8736  0.6858
  410MOL0     H55292  10.893   5.210   8.119 -1.4718 -0.8700 -0.9229
  410MOL0     H55293  11.049   5.326   7.883 -1.0659  2.2805  1.7735
  410MOL0     H55294  11.103   5.229   8.021  0.7903 -0.0554 -1.1585
  410MOL0     H55295  10.901   5.145   7.813  1.5375  2.0824 -1.3989
  410MOL0     H55296  11.063   5.082   7.818  0.4896 -2.3279  1.9880
  410MOL0     H55297  11.040   4.982   8.035 -0.8806 -2.9424 -0.6070
  410MOL0     H55298  10.866   5.015   8.045 -2.0686  2.1433 -1.8494
  410MOL0     H55299  10.985   4.860   7.810  0.5509  1.6848 -1.0853
  410MOL0     H55300  10.819   4.893   7.837  1.6218  0.8854 -0.9374
  410MOL0     H55301  10.728   4.794   8.080 -2.2523 -1.8599 -1.3609
  410MOL0     H55302  10.817   4.428   8.199  0.4708  0.1536 -2.2564
  410MOL0     H55303  10.768   4.574   8.309  0.6917  1.2023 -0.1286
  410MOL0     H55304  10.589   4.486   8.075 -1.9057  2.6837  0.0557
  410MOL0     H55305  10.575   4.619   8.195 -2.7667 -0.7292  0.3955
  410MOL0     H55306  10.560   4.479   8.381  0.8175  1.4698 -0.2798
  410MOL0     H55307  10.546   4.336   8.282  2.2632 -0.2801  1.1056
  410MOL0     H55308  10.378   4.589   8.208  1.1946 -1.1494 -2.0183
  410MOL0     H55309  10.333   4.492   8.337  0.8077  0.0826  1.3765
  410MOL0     H55310  10.108   4.512   8.191  0.0947  0.5223  0.6835
  410MOL0     H55311   9.895   4.507   8.302 -0.5147  0.9020 -1.7171
  410MOL0     H55312   9.819   4.468   8.146  0.8351 -1.8650 -1.7281
  410MOL0     H55313   9.795   4.370   8.290  0.2607 -0.5397  0.3203
  410MOL0     H55314   9.687   4.043   8.406 -0.2660 -2.6317  0.8688
  410MOL0     H55315   9.504   3.878   8.434  0.5059 -0.4325 -0.5143
  410MOL0     H55316   9.311   3.808   8.473 -1.4588  2.4591  1.4023
  410MOL0     H55317   9.194   3.932   8.420  3.3978  2.3317  0.1521
  410MOL0     H55318   9.067   3.741   8.314 -2.1380 -4.1536  1.4721
  410MOL0     H55319   9.174   3.628   8.399 -0.7733 -0.6558 -0.8970
  410MOL0     H55320   8.935   3.696   8.502 -1.0766  2.0616  2.0760
  410MOL0     H55321   9.011   3.850   8.533 -2.5649 -0.0680  0.4560
  410MOL0     H55322   9.117   3.566   8.617  1.7922  0.1672  0.8946
  410MOL0     H55323   9.191   3.722   8.682  1.5687 -2.2646  0.5372
  410MOL0     H55324   8.919   3.601   8.745 -1.7912  2.1366  0.2197
  410MOL0     H55325   8.945   3.756   8.782 -1.9549 -0.3042 -1.8444
  410MOL0     H55326   9.073   3.496   8.864 -1.6876  0.2498 -0.4345
  410MOL0     H55327   9.147   3.653   8.920 -1.0725  1.4305 -0.2138
  410MOL0     H55328   8.869   3.583   8.986 -0.5780 -2.8205  3.2092
  410MOL0     H55329   8.949   3.699   9.078 -4.3114 -0.9550  1.5833
  410MOL0     H55330   9.019   3.406   9.080 -0.3471  2.1193 -2.6571
  410MOL0     H55331   8.958   3.498   9.222 -0.0155  1.0325  0.3254
  410MOL0     H55332   9.373   3.969   8.026  1.6069  1.3967 -0.4349
  410MOL0     H55333   9.579   4.109   8.000 -0.4945 -1.0591 -0.8170
  410MOL0     H55334  10.118   4.029   8.196  1.0270 -0.7086 -1.9208
  410MOL0     H55335  10.320   4.158   8.161  3.7116  5.1392 -1.7495
  410MOL0     H55336  10.219   5.244   8.040  1.0302  0.8356 -0.5907
  410MOL0     H55337  10.059   5.170   8.221 -0.2337  1.2739 -2.7050
  410MOL0     H55338  10.044   5.250   8.893 -0.0590 -1.9607 -0.9152
  410MOL0     H55339   9.815   5.279   8.974 -3.1477  0.8567 -1.3585
  410MOL0     H55340   9.564   5.065   8.862 -0.7719  1.0790 -0.5144
  410MOL0     H55341   9.653   5.135   8.997  0.2319  2.4357  0.9435
  410MOL0     H55342   9.379   5.069   8.995 -0.6926  0.1374 -0.4928
  410MOL0     H55343   9.374   5.222   8.910  0.7130 -0.7188 -0.4897
  410MOL0     H55344   9.509   5.320   9.123 -0.2765 -0.2438  0.2117
  410MOL0     H55345   9.423   5.168   9.192  0.0529 -0.1900 -1.1644
  410MOL0     H55346   9.211   5.273   9.145  0.2459  1.3018  0.9223
  410MOL0     H55347   9.297   5.410   9.067  2.0033  1.1921  1.1022
  410MOL0     H55348   9.333   5.500   9.470  3.6991  3.8200 -2.5249
  410MOL0     H55349   9.645   5.225   8.594 -3.0179 -1.5200  2.5520
  410MOL0     H55350   9.853   5.212   8.492 -0.2468 -0.3483 -0.3430
  411MOL0     O55351   0.390   9.713   9.472  0.2385 -0.2962  0.2342
  411MOL0     C55352   0.493   9.751   9.418 -0.1177  0.2092  0.4822
  411MOL0     O55353   0.541   9.877   9.404  0.4267  0.1768  0.1948
  411MOL0     C55354   0.492   9.978   9.486 -0.0114 -0.2157  0.9296
  411MOL0     C55355   0.431  10.090   9.431 -0.4267  0.7543 -0.1242
  411MOL0     C55356   0.374  10.197   9.508  1.0151  0.0552  0.9644
  411MOL0     C55357   0.375  10.183   9.647 -0.0729 -0.8492  0.3462
  411MOL0     O55358   0.320  10.289   9.719  0.1071 -1.2319  0.2868
  411MOL0     C55359   0.180  10.331   9.674 -1.2176 -0.6515 -0.7213
  411MOL0     C55360   0.143  10.436   9.771  0.9910 -0.2387 -0.1034
  411MOL0     C55361   0.003  10.508   9.747 -0.6730  0.5938 -0.8793
  411MOL0     C55362  -0.049  10.582   9.874 -0.0854  0.0352 -0.3672
  411MOL0     C55363  -0.170  10.666   9.852 -0.4257  0.2404  0.4677
  411MOL0     C55364  -0.293  10.576   9.821 -0.3260  0.1439  0.3209
  411MOL0     C55365  -0.430  10.646   9.822 -0.3441 -0.5128 -0.0534
  411MOL0     C55366  -0.541  10.558   9.871 -0.1196 -0.8392 -1.0399
  411MOL0     N55367  -0.668  10.633   9.853 -0.6000 -0.2810 -0.2215
  411MOL0     C55368  -0.731  10.642   9.733 -0.1980 -0.2488 -0.3289
  411MOL0     C55369  -0.842  10.717   9.770  0.1962  0.7376 -0.0460
  411MOL0     C55370  -0.955  10.743   9.660  0.1655 -0.2103 -0.6665
  411MOL0     C55371  -1.088  10.727   9.729 -0.2031 -1.0411 -0.0081
  411MOL0     C55372  -1.157  10.861   9.755  0.8160 -0.1502 -0.1838
  411MOL0     C55373  -1.310  10.856   9.797  0.3142 -0.9441  0.0818
  411MOL0     O55374  -1.344  11.003   9.811 -0.1917 -0.0369  0.0784
  411MOL0     C55375  -1.440  11.045   9.717 -0.6999  0.3642 -0.0757
  411MOL0     C55376  -1.554  11.111   9.769 -0.9709  0.1302  0.1010
  411MOL0     C55377  -1.672  11.135   9.687 -0.1948 -0.8071  0.5456
  411MOL0     C55378  -1.788  11.187   9.769 -0.1178 -0.3284 -0.3878
  411MOL0     C55379  -1.671  11.105   9.552 -0.7884  0.1596  0.1320
  411MOL0     C55380  -1.784  11.123   9.467 -0.0985  0.2058  1.0946
  411MOL0     O55381  -1.844  11.252   9.472 -0.1584  0.0184 -0.3309
  411MOL0     C55382  -1.965  11.259   9.402  0.0521 -0.4264 -1.6217
  411MOL0     C55383  -1.968  11.320   9.273 -1.6416  0.1109  0.4753
  411MOL0     C55384  -2.091  11.333   9.207 -0.1099  0.0500  0.2298
  411MOL0     C55385  -2.209  11.287   9.264  0.7001  0.7749 -0.4963
  411MOL0     O55386  -2.339  11.295   9.212 -0.4462  0.4320  0.1973
  411MOL0     C55387  -2.367  11.419   9.146 -0.6817 -0.7349 -0.2398
  411MOL0     C55388  -2.514  11.418   9.105 -1.0737 -0.1509  0.6964
  411MOL0     C55389  -2.559  11.307   9.009 -0.1280  0.0042 -0.5577
  411MOL0     C55390  -2.699  11.324   8.958  1.0066 -0.1481 -0.1185
  411MOL0     C55391  -2.728  11.225   8.836 -0.3701  0.5341 -0.4199
  411MOL0     C55392  -2.872  11.181   8.828  1.2079 -0.3360 -0.4697
  411MOL0     C55393  -2.891  11.068   8.934  0.4231 -0.2835  0.4000
  411MOL0     C55394  -3.028  11.004   8.917  0.5559 -0.7634  0.4472
  411MOL0    Cl55395  -3.075  10.884   9.037  0.7685  0.0863 -0.0973
  411MOL0     C55396  -2.204  11.210   9.380 -0.4524  0.0397  0.1556
  411MOL0     C55397  -2.078  11.193   9.449 -0.1626 -0.1687 -0.4888
  411MOL0     O55398  -1.803  11.037   9.376  0.6476  0.1221 -0.2330
  411MOL0     C55399  -1.556  11.045   9.492 -0.5262 -0.2974  0.0564
  411MOL0     C55400  -1.457  11.006   9.577 -1.1526  1.1091 -0.6194
  411MOL0     N55401  -0.842  10.761   9.898  0.3639 -0.2164  0.1288
  411MOL0     N55402  -0.735  10.707   9.943  0.3681  0.8047 -0.5555
  411MOL0     C55403   0.449  10.078   9.708 -0.6359  0.3983  0.2169
  411MOL0     C55404   0.512   9.983   9.626  0.1042  0.4017  0.3452
  411MOL0     C55405   0.577   9.650   9.346 -0.1270 -0.1606 -0.0272
  411MOL0     C55406   0.682   9.701   9.264 -0.2521 -0.2778  0.5149
  411MOL0     C55407   0.762   9.609   9.191  0.0363 -0.1996 -0.5645
  411MOL0     C55408   0.739   9.465   9.200  0.0175 -0.9928 -0.5969
  411MOL0     O55409   0.806   9.363   9.144  0.2334 -0.3028 -0.1273
  411MOL0     C55410   0.916   9.402   9.059 -0.7998  0.6431  0.0561
  411MOL0     C55411   0.862   9.451   8.920 -0.2915  0.7062  0.6510
  411MOL0     C55412   0.964   9.529   8.834  0.0636 -0.4266 -0.3776
  411MOL0     C55413   0.911   9.610   8.713  0.6951 -0.2904  0.2085
  411MOL0     C55414   0.861   9.514   8.606  0.7126  0.2955 -0.4275
  411MOL0     C55415   0.802   9.446   8.525  0.6545  0.2570  0.8454
  411MOL0     C55416   0.627   9.425   9.275  0.2696  0.2473 -1.3693
  411MOL0     C55417   0.551   9.515   9.354 -0.2078  0.3799  0.1164
  411MOL0     H55418   0.436  10.096   9.323 -1.1552 -1.3593 -0.3255
  411MOL0     H55419   0.322  10.282   9.465 -1.5653 -1.2831  1.2435
  411MOL0     H55420   0.187  10.384   9.579 -2.1203  2.9508  1.0480
  411MOL0     H55421   0.105  10.252   9.667 -0.0311 -2.0984  1.4396
  411MOL0     H55422   0.140  10.390   9.870  3.7733 -1.1771 -0.3775
  411MOL0     H55423   0.216  10.515   9.790  0.4858  0.0575  0.6664
  411MOL0     H55424   0.014  10.580   9.666  0.1338 -0.8000 -2.0498
  411MOL0     H55425  -0.075  10.437   9.718 -0.2988  0.5895 -1.9236
  411MOL0     H55426  -0.068  10.504   9.947  0.4851 -1.0000 -1.2921
  411MOL0     H55427   0.025  10.649   9.920 -0.3975 -0.2299  0.5409
  411MOL0     H55428  -0.194  10.709   9.950  1.0781  1.4735  0.3413
  411MOL0     H55429  -0.153  10.744   9.778  1.1530 -0.5329 -0.0252
  411MOL0     H55430  -0.289  10.534   9.720 -2.9036  0.6125 -0.0507
  411MOL0     H55431  -0.303  10.492   9.891 -0.0927 -2.3594 -2.4661
  411MOL0     H55432  -0.423  10.735   9.886 -0.3275  0.3308 -1.2110
  411MOL0     H55433  -0.444  10.675   9.718 -3.5221  0.1176  0.4572
  411MOL0     H55434  -0.527  10.544   9.978 -1.7326 -0.2943 -0.7449
  411MOL0     H55435  -0.543  10.458   9.825  0.6414 -2.3765  2.0164
  411MOL0     H55436  -0.721  10.599   9.634 -2.6786 -2.1618  0.1367
  411MOL0     H55437  -0.935  10.845   9.626  1.6265 -0.6194 -1.1110
  411MOL0     H55438  -0.963  10.666   9.583 -0.9779 -3.8409  2.7464
  411MOL0     H55439  -1.076  10.664   9.817  1.6283 -1.1406 -0.2850
  411MOL0     H55440  -1.161  10.670   9.671 -2.6109 -1.5867  3.2461
  411MOL0     H55441  -1.157  10.922   9.664 -0.7927  0.8698  0.4422
  411MOL0     H55442  -1.098  10.923   9.823 -2.0903  3.9055 -0.9669
  411MOL0     H55443  -1.333  10.812   9.894  3.3392 -1.5097  0.6375
  411MOL0     H55444  -1.360  10.797   9.719  2.5118 -4.2299  0.9244
  411MOL0     H55445  -1.560  11.120   9.877 -0.2768  2.4992  0.0149
  411MOL0     H55446  -1.814  11.112   9.844 -2.2304 -1.2759 -1.9430
  411MOL0     H55447  -1.779  11.289   9.807 -1.9630 -0.1817 -0.2558
  411MOL0     H55448  -1.875  11.196   9.703  0.3951  0.4160 -0.9838
  411MOL0     H55449  -1.875  11.364   9.238 -0.3639 -0.7373  2.6190
  411MOL0     H55450  -2.084  11.386   9.112 -0.7166 -0.5788 -0.1782
  411MOL0     H55451  -2.339  11.505   9.208  0.4921  0.0523 -1.7929
  411MOL0     H55452  -2.300  11.420   9.060  0.0295 -0.4258  0.3047
  411MOL0     H55453  -2.573  11.412   9.197 -0.9402 -0.0606  0.7873
  411MOL0     H55454  -2.538  11.516   9.062 -2.6068 -1.8908 -2.7538
  411MOL0     H55455  -2.549  11.205   9.046  0.7565  0.6026  0.9304
  411MOL0     H55456  -2.503  11.313   8.915 -1.8101 -0.8120 -1.6656
  411MOL0     H55457  -2.773  11.290   9.031 -1.1793 -1.9949 -2.9337
  411MOL0     H55458  -2.721  11.426   8.927 -1.5215 -0.7359 -0.5190
  411MOL0     H55459  -2.656  11.143   8.841 -0.3102  0.4993 -1.6183
  411MOL0     H55460  -2.706  11.268   8.737  0.8136  1.1387  0.0807
  411MOL0     H55461  -2.943  11.262   8.851 -0.1852 -2.1208  2.0050
  411MOL0     H55462  -2.878  11.144   8.726 -5.4489  0.4242 -0.8131
  411MOL0     H55463  -2.901  11.110   9.034  1.6824 -2.1051  1.3343
  411MOL0     H55464  -2.801  11.006   8.937  0.3411 -0.3623  1.5678
  411MOL0     H55465  -3.036  10.958   8.818  0.0552  0.2450  0.0133
  411MOL0     H55466  -3.102  11.083   8.907  1.3288 -0.1143 -0.3851
  411MOL0     H55467  -2.297  11.165   9.414 -0.9795  1.8052  1.1730
  411MOL0     H55468  -2.073  11.134   9.540  0.8894 -2.2925 -1.8283
  411MOL0     H55469  -1.553  11.028   9.385  0.1578 -2.9297  0.4162
  411MOL0     H55470  -1.380  10.949   9.527 -0.2179  0.4439  1.4712
  411MOL0     H55471   0.472  10.089   9.814  0.7851  2.6222 -0.2471
  411MOL0     H55472   0.576   9.899   9.653 -1.0619 -1.1097 -1.3298
  411MOL0     H55473   0.717   9.804   9.269  2.9764 -1.0127 -2.4267
  411MOL0     H55474   0.825   9.670   9.127 -2.3746  1.3800 -1.5908
  411MOL0     H55475   0.980   9.479   9.103 -0.6768 -0.8704  2.7429
  411MOL0     H55476   0.982   9.318   9.036 -0.1924  1.3469 -0.8650
  411MOL0     H55477   0.769   9.504   8.940  0.6141  2.8046 -0.4555
  411MOL0     H55478   0.833   9.367   8.856 -1.6747  0.8766  1.0244
  411MOL0     H55479   1.044   9.459   8.807  1.1878  0.3881  0.7674
  411MOL0     H55480   1.009   9.602   8.902  0.1983 -2.5904  1.9832
  411MOL0     H55481   0.993   9.668   8.668 -1.6041  0.9251 -2.7776
  411MOL0     H55482   0.835   9.685   8.736 -0.1991 -1.4680  1.2129
  411MOL0     H55483   0.734   9.393   8.462 -0.0204  1.5484  0.4543
  411MOL0     H55484   0.619   9.317   9.284 -0.9458  0.4363  0.4360
  411MOL0     H55485   0.469   9.479   9.415 -0.4192  0.7398  0.0508
  412MOL0     O55486   2.666   3.881   9.076 -0.0488 -0.2296 -0.3153
  412MOL0     C55487   2.746   3.942   8.998 -0.2472  0.3378  0.0186
  412MOL0     O55488   2.884   3.937   9.000  0.2534 -0.5104  0.4720
  412MOL0     C55489   2.938   3.819   9.044  0.4368 -0.6551  0.1980
  412MOL0     C55490   2.943   3.707   8.952 -0.0800  0.6218 -1.7313
  412MOL0     C55491   2.976   3.576   9.010 -0.7827  1.5319  0.2376
  412MOL0     C55492   3.002   3.558   9.140  0.1861 -0.5734 -1.1629
  412MOL0     O55493   3.050   3.440   9.196 -0.1205  1.0938  0.4807
  412MOL0     C55494   2.994   3.309   9.151 -0.0181 -0.4040  0.3571
  412MOL0     C55495   3.005   3.190   9.250  0.8836  0.4749  0.5145
  412MOL0     C55496   2.897   3.221   9.351 -0.5018  0.4077 -0.3101
  412MOL0     C55497   2.916   3.135   9.487 -0.2803  0.0253  2.1043
  412MOL0     C55498   2.804   3.175   9.583  0.3590 -0.3563 -0.8290
  412MOL0     C55499   2.825   3.111   9.718 -0.0350 -0.3031 -0.5627
  412MOL0     C55500   2.712   3.151   9.800 -0.6373  0.2405 -0.2175
  412MOL0     C55501   2.734   3.072   9.934 -0.3786  0.5362  0.5040
  412MOL0     N55502   2.623   3.111  10.018 -0.0657  0.2315 -1.2945
  412MOL0     C55503   2.631   3.140  10.150  1.2955  0.8363 -0.7707
  412MOL0     C55504   2.497   3.137  10.194  0.4037 -0.4755  0.0185
  412MOL0     C55505   2.450   3.178  10.333  0.2382  0.3863  0.3504
  412MOL0     C55506   2.319   3.257  10.331  1.0005  0.0630 -0.6286
  412MOL0     C55507   2.357   3.401  10.311 -0.8308  0.5915 -0.1546
  412MOL0     C55508   2.229   3.480  10.266  0.2720  0.2640  0.7380
  412MOL0     O55509   2.111   3.423  10.317 -0.2888 -0.9951  0.0727
  412MOL0     C55510   2.078   3.454  10.446  0.0519 -0.7284  0.1530
  412MOL0     C55511   2.005   3.357  10.520 -0.1221 -0.7350  0.9748
  412MOL0     C55512   1.973   3.366  10.652 -1.0238  1.1969  0.5807
  412MOL0     C55513   1.884   3.257  10.717 -0.4367 -0.1975  0.8902
  412MOL0     C55514   2.011   3.483  10.712 -0.3413 -0.7380  0.6345
  412MOL0     C55515   1.984   3.505  10.857  0.4059 -0.3508  0.2179
  412MOL0     O55516   2.024   3.403  10.940 -0.3966 -0.9828 -0.4481
  412MOL0     C55517   1.994   3.422  11.074  0.7695 -0.1486 -0.4927
  412MOL0     C55518   2.106   3.460  11.155  0.1980 -0.3732  0.4091
  412MOL0     C55519   2.099   3.482  11.291  0.4115  0.4547  0.2371
  412MOL0     C55520   1.975   3.450  11.350  0.5635  1.1802 -0.8975
  412MOL0     O55521   1.948   3.425  11.485 -0.1106  0.6528  0.2436
  412MOL0     C55522   2.034   3.472  11.579 -0.2835 -0.6070  1.4374
  412MOL0     C55523   2.084   3.367  11.676 -0.6948 -0.4173  0.0653
  412MOL0     C55524   2.182   3.258  11.613  0.0909 -0.5388 -0.2124
  412MOL0     C55525   2.161   3.119  11.685  0.9156  0.4650  0.0825
  412MOL0     C55526   2.219   3.001  11.613  0.2748  0.3242 -0.7635
  412MOL0     C55527   2.375   3.012  11.582 -0.5962  1.2950 -0.3833
  412MOL0     C55528   2.453   3.038  11.711  0.8333  0.4787 -0.4121
  412MOL0     C55529   2.601   2.994  11.704 -0.3162 -0.1384 -0.6397
  412MOL0    Cl55530   2.694   3.118  11.622  0.1466  0.2775  0.4424
  412MOL0     C55531   1.862   3.417  11.278  0.0772 -0.5584  0.5281
  412MOL0     C55532   1.868   3.405  11.138 -0.7139 -0.6777 -0.0790
  412MOL0     O55533   1.938   3.618  10.884 -0.4382  0.4709  0.3769
  412MOL0     C55534   2.068   3.592  10.644 -0.0197 -0.0340  0.1932
  412MOL0     C55535   2.102   3.577  10.510  1.4575 -0.7206  0.2171
  412MOL0     N55536   2.418   3.089  10.088 -0.3016 -0.3968  0.1070
  412MOL0     N55537   2.496   3.072   9.992 -0.3256  0.0513  0.0171
  412MOL0     C55538   3.017   3.675   9.218  0.5327 -0.4075 -0.5091
  412MOL0     C55539   2.984   3.807   9.171  0.4859  0.0619  0.5186
  412MOL0     C55540   2.688   4.040   8.903 -0.8492 -0.3868  0.5447
  412MOL0     C55541   2.558   4.065   8.910  0.6361  0.2489 -0.0894
  412MOL0     C55542   2.492   4.173   8.839 -0.8126  0.9161 -0.7322
  412MOL0     C55543   2.565   4.245   8.743  1.0482 -0.3124 -0.4777
  412MOL0     O55544   2.506   4.342   8.665 -0.0909  0.5543 -0.0685
  412MOL0     C55545   2.423   4.292   8.563  0.0335  0.1331  0.4766
  412MOL0     C55546   2.303   4.370   8.516  0.4169  0.1077  0.8399
  412MOL0     C55547   2.182   4.351   8.610  1.1395 -0.1650  0.4525
  412MOL0     C55548   2.055   4.445   8.600  0.2544  0.0128  0.6320
  412MOL0     C55549   2.084   4.589   8.608  0.5785 -0.2066 -0.0301
  412MOL0     C55550   2.111   4.711   8.598  0.2483 -0.0692 -0.0071
  412MOL0     C55551   2.702   4.220   8.734 -0.3017  0.7696 -0.0645
  412MOL0     C55552   2.760   4.129   8.822  0.0341 -0.9578 -0.0232
  412MOL0     H55553   2.926   3.710   8.844 -1.1494 -1.8919 -1.6752
  412MOL0     H55554   2.981   3.491   8.941  3.2165  1.9684 -0.2836
  412MOL0     H55555   2.887   3.327   9.136  0.1699  0.2405 -0.2504
  412MOL0     H55556   3.033   3.284   9.052  1.4713  2.3969  0.1319
  412MOL0     H55557   2.979   3.094   9.203 -0.5301  1.9532 -1.9208
  412MOL0     H55558   3.109   3.180   9.282  1.0245 -0.8961 -0.2902
  412MOL0     H55559   2.899   3.329   9.370  0.8485  0.1400  1.3613
  412MOL0     H55560   2.801   3.201   9.303 -1.1151 -0.2238  1.1373
  412MOL0     H55561   2.906   3.028   9.463  0.2163  0.5179 -0.5421
  412MOL0     H55562   3.009   3.162   9.538  1.2716  3.3837 -1.9913
  412MOL0     H55563   2.803   3.284   9.584 -5.2239 -0.0857  1.3047
  412MOL0     H55564   2.704   3.152   9.544  0.3756 -5.2238  1.2964
  412MOL0     H55565   2.829   3.001   9.713  2.4559 -0.2543 -0.9139
  412MOL0     H55566   2.922   3.135   9.760 -0.2562 -1.7451  0.8575
  412MOL0     H55567   2.715   3.258   9.821  0.0983  0.5434 -1.7228
  412MOL0     H55568   2.620   3.117   9.752  0.6838 -1.3641 -1.7811
  412MOL0     H55569   2.832   3.103   9.972  0.3115  0.7029 -1.2976
  412MOL0     H55570   2.731   2.963   9.919 -0.9368  0.2332  2.5846
  412MOL0     H55571   2.722   3.168  10.203  1.8559 -0.2731 -1.1255
  412MOL0     H55572   2.420   3.093  10.395  0.2304  0.4684  0.4588
  412MOL0     H55573   2.529   3.225  10.391  1.5153 -2.3830  1.0086
  412MOL0     H55574   2.271   3.251  10.429 -2.0560  0.9788 -1.9303
  412MOL0     H55575   2.251   3.213  10.257 -1.2322  1.5007  0.4438
  412MOL0     H55576   2.424   3.427  10.228  1.6585  0.9653  1.8443
  412MOL0     H55577   2.401   3.442  10.402 -3.1673  1.8129  0.4764
  412MOL0     H55578   2.219   3.473  10.157  1.0810 -0.4557  0.7047
  412MOL0     H55579   2.234   3.587  10.288  2.1248  0.3860 -0.1103
  412MOL0     H55580   1.970   3.281  10.451  1.1550  1.9904 -3.0890
  412MOL0     H55581   1.849   3.284  10.817  2.1958  1.0711  1.5697
  412MOL0     H55582   1.793   3.253  10.657  0.0368  1.2817  0.0184
  412MOL0     H55583   1.934   3.160  10.721 -0.6504 -0.2644  2.1941
  412MOL0     H55584   2.199   3.470  11.101  2.4327 -0.4076  3.9810
  412MOL0     H55585   2.188   3.500  11.351  1.6426 -2.8276 -0.3923
  412MOL0     H55586   2.126   3.517  11.540  0.8293 -2.3556  1.9230
  412MOL0     H55587   1.977   3.542  11.641 -3.0732 -0.6206 -0.9344
  412MOL0     H55588   2.131   3.422  11.758 -0.2016 -2.9783  1.6471
  412MOL0     H55589   2.003   3.322  11.734  0.6502 -3.6183 -0.3098
  412MOL0     H55590   2.285   3.289  11.631  0.7934 -1.1893 -2.7358
  412MOL0     H55591   2.167   3.245  11.506 -0.2201 -0.3986 -0.1883
  412MOL0     H55592   2.197   3.108  11.787 -0.4065 -1.1843  0.4102
  412MOL0     H55593   2.054   3.095  11.690  0.5353  0.6875 -3.8641
  412MOL0     H55594   2.169   2.984  11.517 -0.2277 -0.3930 -0.3868
  412MOL0     H55595   2.219   2.904  11.664  1.9376 -2.2642 -5.0955
  412MOL0     H55596   2.413   2.913  11.552 -1.2792 -1.3871  5.8798
  412MOL0     H55597   2.388   3.083  11.500  0.1983  2.8758  1.0524
  412MOL0     H55598   2.414   2.973  11.790 -0.0625  1.9421  0.4104
  412MOL0     H55599   2.435   3.135  11.758  4.6775 -0.0708  2.7148
  412MOL0     H55600   2.610   2.904  11.642  0.1189 -0.2907 -0.3565
  412MOL0     H55601   2.642   2.971  11.803  1.3852  0.6450 -1.1462
  412MOL0     H55602   1.772   3.403  11.337 -1.4574  1.6675 -1.1168
  412MOL0     H55603   1.783   3.397  11.071  0.1991  0.9662 -1.5309
  412MOL0     H55604   2.092   3.679  10.704 -0.5378 -0.8797  1.6743
  412MOL0     H55605   2.122   3.668  10.454  1.6552 -3.4495 -4.6851
  412MOL0     H55606   3.063   3.655   9.314  0.2907 -1.9047 -0.6862
  412MOL0     H55607   2.997   3.896   9.232 -2.7575  0.1656  1.2245
  412MOL0     H55608   2.494   4.014   8.981 -0.2879  2.4283  0.7081
  412MOL0     H55609   2.384   4.183   8.846 -0.7598  0.7243  5.0795
  412MOL0     H55610   2.490   4.273   8.479  0.1115  0.7452  0.3976
  412MOL0     H55611   2.392   4.187   8.569 -4.3062  1.0962 -1.3942
  412MOL0     H55612   2.272   4.332   8.419  0.7084 -2.8484  1.8033
  412MOL0     H55613   2.338   4.473   8.502  0.6454  0.0645  1.0653
  412MOL0     H55614   2.222   4.369   8.710 -1.7800  2.9862  1.2502
  412MOL0     H55615   2.150   4.246   8.612  1.7665 -0.3509  1.0632
  412MOL0     H55616   1.994   4.424   8.689  0.3803  0.0255  0.7229
  412MOL0     H55617   2.001   4.426   8.507  3.3753 -1.1164 -1.0987
  412MOL0     H55618   2.140   4.810   8.570  1.5648 -0.1422  0.9913
  412MOL0     H55619   2.759   4.278   8.662  0.8016  0.1647  0.2994
  412MOL0     H55620   2.868   4.116   8.820  0.4070  1.4415 -2.3967
  413MOL0     O55621   2.576   4.835   1.240  0.3834 -0.3639 -0.5023
  413MOL0     C55622   2.484   4.837   1.170  0.2408  1.1728  0.0204
  413MOL0     O55623   2.414   4.943   1.116  0.2078 -0.4012 -0.5086
  413MOL0     C55624   2.467   5.069   1.107  0.5922 -0.0916 -0.6930
  413MOL0     C55625   2.378   5.175   1.109 -0.3353  0.6186 -0.0524
  413MOL0     C55626   2.425   5.306   1.117  0.0070 -0.0518 -0.0795
  413MOL0     C55627   2.559   5.331   1.090  0.1944 -0.9532  0.5754
  413MOL0     O55628   2.617   5.457   1.114 -0.0494 -0.1019 -0.1197
  413MOL0     C55629   2.548   5.581   1.129  0.7355  0.3927 -0.2412
  413MOL0     C55630   2.646   5.708   1.119  1.3599  0.1450  1.0141
  413MOL0     C55631   2.716   5.700   0.977  0.4364 -0.4076 -0.1101
  413MOL0     C55632   2.797   5.828   0.940 -0.6282  0.1035  0.5644
  413MOL0     C55633   2.933   5.807   1.015  0.3693 -0.5370 -0.4643
  413MOL0     C55634   3.012   5.716   0.928  0.2647 -0.8511  0.2683
  413MOL0     C55635   3.159   5.734   0.991  0.8403 -0.2114  0.1568
  413MOL0     C55636   3.256   5.619   0.966 -0.8802  0.4280  0.5822
  413MOL0     N55637   3.304   5.599   0.825  0.2078  0.3121 -0.7732
  413MOL0     C55638   3.412   5.673   0.787  0.5048  0.0701  0.0949
  413MOL0     C55639   3.432   5.632   0.660  0.5900 -0.7114  0.2870
  413MOL0     C55640   3.553   5.662   0.573  1.0439  0.1403 -0.1841
  413MOL0     C55641   3.677   5.605   0.640 -0.0063 -0.1413 -0.2057
  413MOL0     C55642   3.805   5.647   0.574  0.2567 -0.2884  0.1345
  413MOL0     C55643   3.923   5.565   0.633 -1.0280  1.2114  0.3471
  413MOL0     O55644   3.929   5.598   0.769 -0.4913  0.2196  0.1513
  413MOL0     C55645   4.004   5.533   0.865  0.2111  0.8100  0.7344
  413MOL0     C55646   4.081   5.423   0.831  0.2281 -0.8739 -0.0426
  413MOL0     C55647   4.155   5.354   0.927 -0.2636  0.3207  0.3285
  413MOL0     C55648   4.247   5.246   0.884 -0.4807  0.2726 -0.7852
  413MOL0     C55649   4.152   5.397   1.056  1.2490  0.4042 -0.7196
  413MOL0     C55650   4.224   5.335   1.169 -0.0435  0.0251 -1.0604
  413MOL0     O55651   4.241   5.197   1.168  0.0646 -0.4339  1.0075
  413MOL0     C55652   4.319   5.130   1.254 -0.5497  0.0208 -0.6713
  413MOL0     C55653   4.268   5.080   1.378 -0.0724 -0.1785 -0.2502
  413MOL0     C55654   4.358   5.017   1.466 -0.1862  0.2841  0.6341
  413MOL0     C55655   4.492   4.985   1.425  0.0495  0.0163 -0.2488
  413MOL0     O55656   4.563   4.901   1.506 -0.1371 -0.0050 -0.0597
  413MOL0     C55657   4.679   4.838   1.458 -0.0481 -0.3669  0.3886
  413MOL0     C55658   4.765   4.776   1.567  0.9707  0.2416  0.4272
  413MOL0     C55659   4.830   4.883   1.661 -0.1076  0.5064 -0.5731
  413MOL0     C55660   4.960   4.835   1.729  0.2572 -0.2643  0.3471
  413MOL0     C55661   4.949   4.702   1.814 -0.4445 -0.2985 -0.4138
  413MOL0     C55662   5.091   4.659   1.866 -0.3129 -0.2984 -0.4915
  413MOL0     C55663   5.088   4.522   1.934 -0.4685  0.5263 -0.3149
  413MOL0     C55664   5.221   4.503   1.995 -0.7944 -0.7805 -0.2440
  413MOL0    Cl55665   5.251   4.340   2.074  0.1238 -0.1890 -0.2145
  413MOL0     C55666   4.533   5.030   1.300  1.0155 -0.4785  0.1803
  413MOL0     C55667   4.453   5.105   1.219 -0.8287 -0.1940  0.3784
  413MOL0     O55668   4.267   5.408   1.262  0.6728 -0.2846 -0.2522
  413MOL0     C55669   4.091   5.524   1.089  0.1539  0.3926 -0.0282
  413MOL0     C55670   4.008   5.576   0.997 -1.1026 -0.6361  1.4363
  413MOL0     N55671   3.330   5.543   0.631 -0.2296  0.6152  0.2247
  413MOL0     N55672   3.262   5.514   0.730  0.1790  0.5611  0.5617
  413MOL0     C55673   2.644   5.226   1.052 -0.0595 -0.8913 -0.4631
  413MOL0     C55674   2.603   5.091   1.080  0.1949 -0.0831 -0.4825
  413MOL0     C55675   2.448   4.703   1.118 -0.0958  0.2656 -0.1549
  413MOL0     C55676   2.530   4.590   1.144  0.1618 -0.5667 -0.0901
  413MOL0     C55677   2.493   4.459   1.118 -0.6321 -0.0114 -0.2069
  413MOL0     C55678   2.379   4.438   1.036 -0.5011 -0.0673  0.8689
  413MOL0     O55679   2.318   4.318   1.005  0.0215 -0.1542 -0.2710
  413MOL0     C55680   2.392   4.199   1.050 -0.0983  0.6144 -0.7498
  413MOL0     C55681   2.427   4.123   0.920 -0.0932 -1.3865 -1.1642
  413MOL0     C55682   2.315   4.119   0.822 -0.2275  0.8482 -0.4580
  413MOL0     C55683   2.350   4.026   0.710 -0.2556  0.9417  0.8858
  413MOL0     C55684   2.444   4.073   0.608 -0.1273  0.1618  0.0813
  413MOL0     C55685   2.520   4.117   0.528 -1.6709  0.5079 -0.3930
  413MOL0     C55686   2.312   4.550   0.992 -0.0934 -0.4369 -0.0154
  413MOL0     C55687   2.342   4.675   1.041 -0.0933  0.0548  1.0223
  413MOL0     H55688   2.272   5.160   1.130  0.0683 -2.3545  0.3682
  413MOL0     H55689   2.346   5.380   1.123  1.2246  1.1813  3.6775
  413MOL0     H55690   2.485   5.589   1.040 -3.2062 -0.5750  2.1914
  413MOL0     H55691   2.493   5.580   1.224  0.1908 -0.9625 -0.5496
  413MOL0     H55692   2.581   5.796   1.117  0.1034 -0.7506  1.7022
  413MOL0     H55693   2.714   5.713   1.205 -0.3192  0.0442  2.4063
  413MOL0     H55694   2.780   5.612   0.968 -0.8174 -1.4011  0.5214
  413MOL0     H55695   2.642   5.669   0.903 -1.0020 -3.2804  2.3305
  413MOL0     H55696   2.815   5.845   0.834 -1.5797 -3.1627 -0.2479
  413MOL0     H55697   2.748   5.917   0.980  1.9260  1.5342  0.7295
  413MOL0     H55698   2.995   5.895   1.033 -1.2791  0.3975  0.9410
  413MOL0     H55699   2.913   5.759   1.111 -1.5019  1.3676  0.1657
  413MOL0     H55700   2.984   5.612   0.945 -0.0953 -0.5277  1.8394
  413MOL0     H55701   3.025   5.750   0.825  1.4729 -0.7994  0.4187
  413MOL0     H55702   3.213   5.817   0.946  0.1367  1.3796  2.1066
  413MOL0     H55703   3.153   5.754   1.098 -2.2193  2.0642 -0.2903
  413MOL0     H55704   3.206   5.528   0.999 -1.0329 -1.1011 -3.3961
  413MOL0     H55705   3.342   5.642   1.030  1.0101 -2.2684 -0.8254
  413MOL0     H55706   3.474   5.738   0.847 -1.4800  2.2529 -0.0698
  413MOL0     H55707   3.528   5.627   0.472 -0.2386  0.8009 -0.1179
  413MOL0     H55708   3.569   5.769   0.557  2.3402 -0.3848 -2.9792
  413MOL0     H55709   3.653   5.499   0.638 -3.7284  0.5472  0.3846
  413MOL0     H55710   3.686   5.638   0.744  1.1932  2.6354 -1.0888
  413MOL0     H55711   3.817   5.754   0.593 -1.6607  0.0046 -0.1362
  413MOL0     H55712   3.809   5.639   0.465 -0.6232  1.4147 -0.0689
  413MOL0     H55713   4.019   5.574   0.582 -1.0004 -2.6467 -0.5896
  413MOL0     H55714   3.886   5.464   0.613 -2.9480  2.2016 -1.6584
  413MOL0     H55715   4.086   5.385   0.730 -1.5989 -0.9257 -0.1544
  413MOL0     H55716   4.353   5.273   0.885  0.1213 -1.9170 -0.0584
  413MOL0     H55717   4.248   5.151   0.938 -1.7186  0.6714 -0.0171
  413MOL0     H55718   4.215   5.213   0.784 -2.8956 -1.8140  0.5391
  413MOL0     H55719   4.163   5.098   1.401  0.5238 -0.9525  3.8543
  413MOL0     H55720   4.322   4.983   1.563  0.9621  3.0362  2.1188
  413MOL0     H55721   4.646   4.774   1.376 -1.8807  2.1761 -1.0016
  413MOL0     H55722   4.749   4.910   1.414 -0.2671 -0.9120 -0.9018
  413MOL0     H55723   4.701   4.715   1.632  2.9401 -1.0238  1.2894
  413MOL0     H55724   4.840   4.712   1.521 -0.8279 -1.1276 -0.7606
  413MOL0     H55725   4.762   4.905   1.743 -1.5407  3.8008 -2.4540
  413MOL0     H55726   4.858   4.972   1.604  3.4041 -1.3894 -2.1386
  413MOL0     H55727   5.035   4.801   1.656  0.7369 -1.6760  1.4562
  413MOL0     H55728   4.995   4.919   1.789 -2.2946  1.3767 -0.3213
  413MOL0     H55729   4.906   4.625   1.749 -1.7282  1.6782 -2.0628
  413MOL0     H55730   4.889   4.709   1.905  2.7997  0.6091  1.8246
  413MOL0     H55731   5.169   4.664   1.789 -0.3794  0.1744 -0.5267
  413MOL0     H55732   5.125   4.733   1.939 -2.4697 -2.3758  2.9056
  413MOL0     H55733   5.066   4.444   1.861 -1.8922  0.7873 -0.1848
  413MOL0     H55734   5.005   4.518   2.005 -1.5467  0.0315 -1.5727
  413MOL0     H55735   5.222   4.576   2.077 -2.9086  0.3654 -1.1599
  413MOL0     H55736   5.306   4.541   1.937 -2.7403  0.1422 -2.6636
  413MOL0     H55737   4.634   5.008   1.267  1.7382 -2.2813  3.1595
  413MOL0     H55738   4.491   5.143   1.124 -1.2022 -3.8754 -1.4443
  413MOL0     H55739   4.091   5.565   1.189 -2.4596  1.2628 -0.3046
  413MOL0     H55740   3.960   5.673   1.008 -0.3402  0.4202 -2.8188
  413MOL0     H55741   2.749   5.244   1.030  1.3179 -5.2339  1.4741
  413MOL0     H55742   2.669   5.006   1.065  0.7295  0.7723 -4.0163
  413MOL0     H55743   2.622   4.612   1.198 -1.3475  0.0659  2.3890
  413MOL0     H55744   2.568   4.382   1.137 -0.5315 -0.4820 -2.1995
  413MOL0     H55745   2.479   4.209   1.115 -0.5538 -1.2109  0.2131
  413MOL0     H55746   2.316   4.147   1.109  0.4328  2.2080  1.4489
  413MOL0     H55747   2.447   4.027   0.967 -1.7449 -0.4144  1.8076
  413MOL0     H55748   2.510   4.181   0.880 -2.9392  6.8608  2.5155
  413MOL0     H55749   2.284   4.219   0.789 -3.6696 -0.1661 -0.6000
  413MOL0     H55750   2.228   4.079   0.874  0.4474  0.2215  0.2108
  413MOL0     H55751   2.262   3.991   0.656  1.4420  0.3451 -1.6782
  413MOL0     H55752   2.393   3.933   0.750 -0.5229  0.6840  0.5758
  413MOL0     H55753   2.595   4.156   0.461  2.7752 -1.8963  2.7012
  413MOL0     H55754   2.226   4.533   0.929 -1.0755  2.3870  0.4326
  413MOL0     H55755   2.285   4.761   1.010  2.1287  1.0649 -0.4833
  414MOL0     O55756   7.993   9.996   4.831 -0.0742 -0.3373 -1.0724
  414MOL0     C55757   7.946   9.891   4.861 -0.6259  0.7382 -0.1561
  414MOL0     O55758   7.826   9.867   4.930  0.6398 -0.2506  0.4563
  414MOL0     C55759   7.757   9.960   5.006  0.1107 -0.0877  0.2960
  414MOL0     C55760   7.613   9.959   5.022 -0.3431 -0.3858  0.3351
  414MOL0     C55761   7.548  10.073   5.061  0.2781  0.1128 -0.2625
  414MOL0     C55762   7.631  10.181   5.102 -0.2122  0.2757  0.3562
  414MOL0     O55763   7.575  10.287   5.170  0.0106  0.5843 -0.4323
  414MOL0     C55764   7.599  10.280   5.314 -0.1233  0.2877  0.1765
  414MOL0     C55765   7.475  10.207   5.379  0.1368 -0.7481  0.2579
  414MOL0     C55766   7.367  10.326   5.402 -0.6505 -0.1549  1.6191
  414MOL0     C55767   7.294  10.311   5.533 -0.7115  0.4987  0.0609
  414MOL0     C55768   7.189  10.415   5.570  0.4018 -0.0244 -0.0605
  414MOL0     C55769   7.049  10.360   5.585 -0.2928  0.6832  0.7853
  414MOL0     C55770   6.993  10.303   5.449 -0.3630 -0.1954  0.4630
  414MOL0     C55771   6.867  10.224   5.468  0.0058  0.2838 -0.8507
  414MOL0     N55772   6.792  10.196   5.347  1.0738 -0.0642  0.2496
  414MOL0     C55773   6.787  10.080   5.272 -0.2023  0.8259 -0.1745
  414MOL0     C55774   6.700  10.108   5.177  0.8542 -0.1362 -0.8889
  414MOL0     C55775   6.659  10.033   5.051  0.8415  0.0153  0.0464
  414MOL0     C55776   6.514  10.058   4.995  0.7409 -0.1670 -1.1178
  414MOL0     C55777   6.404   9.980   5.068 -0.0953  0.6472 -0.4147
  414MOL0     C55778   6.258  10.023   5.026 -0.1640  0.7306 -0.5227
  414MOL0     O55779   6.159   9.950   5.107 -0.1663 -0.0145 -0.4273
  414MOL0     C55780   6.031   9.990   5.093  0.2303  0.0703  0.3921
  414MOL0     C55781   5.942   9.922   5.163  0.0528  0.2747 -0.0006
  414MOL0     C55782   5.805   9.962   5.168  0.3915  0.1328 -0.7661
  414MOL0     C55783   5.727   9.874   5.259  0.5764 -0.0649 -0.1433
  414MOL0     C55784   5.756  10.077   5.102  1.0882  0.2699  0.2408
  414MOL0     C55785   5.614  10.109   5.081  0.2481  0.7164  0.2951
  414MOL0     O55786   5.525  10.014   5.126  0.2579  1.1031  0.4613
  414MOL0     C55787   5.406  10.064   5.164  0.6804  0.0924 -0.6550
  414MOL0     C55788   5.298  10.095   5.086  0.1941  1.7855 -0.2813
  414MOL0     C55789   5.186  10.140   5.150 -0.8880 -0.1684 -0.0875
  414MOL0     C55790   5.183  10.166   5.286  0.7382  0.4296  0.0950
  414MOL0     O55791   5.064  10.213   5.333  0.2989 -0.3616 -0.0521
  414MOL0     C55792   5.062  10.283   5.458 -1.1391  0.9178 -0.4659
  414MOL0     C55793   4.942  10.378   5.457 -0.5369  0.5263 -0.6307
  414MOL0     C55794   4.804  10.310   5.454  0.1130  0.1255 -0.5837
  414MOL0     C55795   4.779  10.247   5.312 -0.3179  1.4177 -0.3051
  414MOL0     C55796   4.623  10.241   5.282 -0.6254 -0.1602  0.7795
  414MOL0     C55797   4.539  10.177   5.390  0.0365 -0.9167  0.5939
  414MOL0     C55798   4.591  10.030   5.425 -0.6330 -0.2263  0.2447
  414MOL0     C55799   4.537   9.920   5.336  0.2818  0.1312 -0.7001
  414MOL0    Cl55800   4.365   9.913   5.349 -0.2986  0.7299  0.3542
  414MOL0     C55801   5.288  10.126   5.364  0.1587  0.1351 -0.6422
  414MOL0     C55802   5.399  10.070   5.303 -0.3702 -0.3243  0.9806
  414MOL0     O55803   5.587  10.227   5.051  0.0875  0.1569  0.6662
  414MOL0     C55804   5.852  10.138   5.023 -0.5252 -1.1157  0.6905
  414MOL0     C55805   5.987  10.098   5.017 -0.0050 -0.6589 -0.0114
  414MOL0     N55806   6.660  10.233   5.193  0.5164 -0.1621 -0.1288
  414MOL0     N55807   6.707  10.292   5.298  0.0461  0.0939 -0.2221
  414MOL0     C55808   7.768  10.177   5.114 -0.2111  0.9978  0.4821
  414MOL0     C55809   7.830  10.067   5.056 -0.5192  0.5816 -1.0618
  414MOL0     C55810   8.009   9.767   4.811  0.5618 -0.0564 -0.5147
  414MOL0     C55811   7.945   9.648   4.797 -0.1575  0.8849 -1.0203
  414MOL0     C55812   8.003   9.535   4.743 -0.3044  0.1787 -1.1028
  414MOL0     C55813   8.129   9.541   4.691  0.3290  0.0720  0.2894
  414MOL0     O55814   8.197   9.432   4.647 -0.1664  0.4169  0.2454
  414MOL0     C55815   8.118   9.350   4.564  0.5669 -1.1958 -0.5183
  414MOL0     C55816   8.190   9.301   4.442 -0.6598  0.1167  0.4197
  414MOL0     C55817   8.279   9.403   4.375 -0.2665 -0.5377  0.8222
  414MOL0     C55818   8.264   9.410   4.228  0.7266  0.3629 -0.6840
  414MOL0     C55819   8.301   9.302   4.142  0.2130  0.4355  0.3533
  414MOL0     C55820   8.341   9.214   4.069 -0.3659  1.2078  0.6709
  414MOL0     C55821   8.202   9.666   4.703  0.5482  1.0670 -0.9817
  414MOL0     C55822   8.140   9.773   4.760 -0.5937  0.5082 -0.0004
  414MOL0     H55823   7.566   9.862   5.008 -0.1649 -0.3593 -0.4994
  414MOL0     H55824   7.440  10.080   5.070  0.4357  0.0125  2.6134
  414MOL0     H55825   7.693  10.231   5.340 -0.3277 -0.2492 -0.0739
  414MOL0     H55826   7.601  10.372   5.374 -0.0059 -2.0391  4.0443
  414MOL0     H55827   7.436  10.117   5.330  1.3490 -0.4447 -1.3619
  414MOL0     H55828   7.511  10.169   5.475  0.7638 -1.3885 -0.2211
  414MOL0     H55829   7.401  10.429   5.395 -2.0670  0.2654  0.4340
  414MOL0     H55830   7.293  10.331   5.321  0.4987 -0.7923  0.4784
  414MOL0     H55831   7.250  10.211   5.529  0.6473 -0.1734  1.3301
  414MOL0     H55832   7.373  10.318   5.608 -1.8167 -1.2208  1.4490
  414MOL0     H55833   7.226  10.452   5.666  1.7699  3.8009 -1.8440
  414MOL0     H55834   7.187  10.502   5.503 -0.4499 -1.3675 -1.8595
  414MOL0     H55835   7.044  10.282   5.662  4.3973  0.3072  1.0330
  414MOL0     H55836   6.981  10.443   5.606 -1.0448 -0.4246  3.0229
  414MOL0     H55837   6.964  10.388   5.386  0.3222 -0.1319  0.2175
  414MOL0     H55838   7.067  10.251   5.388  0.7261  1.6965  0.0671
  414MOL0     H55839   6.812  10.280   5.544  0.3832  3.0403 -2.4629
  414MOL0     H55840   6.886  10.123   5.505 -1.7177 -1.6811 -4.7318
  414MOL0     H55841   6.847   9.991   5.288 -1.4150 -0.6874 -3.1409
  414MOL0     H55842   6.727  10.062   4.970  0.7749  1.2618  0.4147
  414MOL0     H55843   6.679   9.926   5.064  2.5794  0.5747  2.5400
  414MOL0     H55844   6.500  10.018   4.894 -3.6631  0.0480 -0.8215
  414MOL0     H55845   6.490  10.164   5.002  1.8566  0.1286 -1.5697
  414MOL0     H55846   6.415   9.994   5.175  1.9841 -2.8878 -0.0344
  414MOL0     H55847   6.440   9.878   5.054  2.1954  1.3652 -0.0482
  414MOL0     H55848   6.249   9.990   4.922  0.0504 -1.0294 -0.0308
  414MOL0     H55849   6.262  10.129   5.049 -1.8149 -0.1871  5.8763
  414MOL0     H55850   5.972   9.844   5.232 -0.9419 -0.1503 -0.0370
  414MOL0     H55851   5.783   9.802   5.320 -0.2918 -0.7184 -0.1009
  414MOL0     H55852   5.678   9.932   5.337  1.6729 -1.6667  1.8324
  414MOL0     H55853   5.651   9.821   5.201  2.0636  0.5183 -2.8006
  414MOL0     H55854   5.303  10.078   4.979 -3.3397 -3.3454  0.0287
  414MOL0     H55855   5.099  10.166   5.092 -0.0831  1.2902 -0.6890
  414MOL0     H55856   5.049  10.210   5.539  2.2343 -2.2957 -2.4945
  414MOL0     H55857   5.155  10.339   5.472  0.2498 -0.7235 -2.3397
  414MOL0     H55858   4.951  10.429   5.553 -2.1902  0.2671 -0.3010
  414MOL0     H55859   4.947  10.453   5.378 -2.3511  1.1177 -0.2290
  414MOL0     H55860   4.733  10.389   5.477  1.6347  0.9143  1.8643
  414MOL0     H55861   4.789  10.229   5.526 -3.1969  2.3446  1.4948
  414MOL0     H55862   4.820  10.305   5.229  0.7664 -1.8031 -2.1432
  414MOL0     H55863   4.828  10.150   5.302 -1.0319  1.2859 -3.8358
  414MOL0     H55864   4.610  10.186   5.189  0.3302  0.3524  0.3294
  414MOL0     H55865   4.596  10.345   5.262 -0.1881 -0.3573 -0.9338
  414MOL0     H55866   4.546  10.238   5.480 -0.1630 -0.0408  0.0318
  414MOL0     H55867   4.436  10.175   5.353  1.3130 -0.6932 -3.5951
  414MOL0     H55868   4.559  10.015   5.529 -1.1780  0.5442  0.1913
  414MOL0     H55869   4.700  10.023   5.418 -0.3922  1.3495  1.7160
  414MOL0     H55870   4.584   9.825   5.363  1.6026  1.2289  1.1014
  414MOL0     H55871   4.552   9.931   5.228 -0.9230 -1.4711 -1.0721
  414MOL0     H55872   5.297  10.149   5.469 -1.5508 -1.2806 -0.1403
  414MOL0     H55873   5.482  10.020   5.351 -1.2912 -4.4786 -1.2452
  414MOL0     H55874   5.824  10.217   4.954  2.0809 -0.0119  0.7981
  414MOL0     H55875   6.060  10.153   4.958  0.0622 -0.1217  0.5707
  414MOL0     H55876   7.820  10.254   5.169  1.0816 -0.1222  0.8905
  414MOL0     H55877   7.938  10.073   5.061 -0.3241 -1.1322 -2.2186
  414MOL0     H55878   7.843   9.648   4.836 -0.3273  0.6604 -1.4596
  414MOL0     H55879   7.933   9.453   4.728  0.5208 -0.3639 -2.1551
  414MOL0     H55880   8.090   9.277   4.640  0.3155  1.3250  1.9590
  414MOL0     H55881   8.025   9.406   4.549  0.5381 -0.6668  1.3472
  414MOL0     H55882   8.123   9.253   4.370 -0.1505 -2.4250  1.5386
  414MOL0     H55883   8.257   9.217   4.464 -2.4469 -1.5007  0.0165
  414MOL0     H55884   8.384   9.392   4.402  0.7397  0.7556 -2.0903
  414MOL0     H55885   8.256   9.504   4.410 -2.4844 -0.7622  0.1850
  414MOL0     H55886   8.322   9.494   4.191 -1.5481  1.2905 -2.3594
  414MOL0     H55887   8.158   9.427   4.206  0.3088 -1.6263 -0.4533
  414MOL0     H55888   8.395   9.129   4.031  1.8024  3.1007 -0.7916
  414MOL0     H55889   8.306   9.663   4.673 -0.4278 -4.6865 -5.4516
  414MOL0     H55890   8.202   9.861   4.778 -0.2609  0.2618  0.0501
  415MOL0     O55891   2.101  10.171   7.389  0.1634 -0.5100 -0.6554
  415MOL0     C55892   2.083  10.200   7.509 -0.0237  0.7437  0.3388
  415MOL0     O55893   2.068  10.113   7.621  0.1787 -0.5779 -0.1176
  415MOL0     C55894   2.013   9.987   7.600 -0.1823 -0.2016  0.2401
  415MOL0     C55895   1.910   9.970   7.498 -0.4327  0.0070  1.3505
  415MOL0     C55896   1.850   9.846   7.486 -0.2301  0.2901  0.6437
  415MOL0     C55897   1.913   9.738   7.559 -0.8431  0.4250 -0.5447
  415MOL0     O55898   1.895   9.596   7.536 -0.0787 -0.0195  0.0548
  415MOL0     C55899   1.766   9.564   7.512  0.3355 -0.8819 -0.7382
  415MOL0     C55900   1.749   9.414   7.519 -0.2805 -0.6443 -1.0911
  415MOL0     C55901   1.609   9.360   7.516  0.4700  0.1321  0.2130
  415MOL0     C55902   1.536   9.351   7.373 -0.3047 -0.4584 -0.7765
  415MOL0     C55903   1.392   9.295   7.368  0.2494  1.2501 -0.5544
  415MOL0     C55904   1.394   9.141   7.339  0.4932  0.1792  0.0754
  415MOL0     C55905   1.259   9.069   7.332 -0.2758 -0.2944  0.5040
  415MOL0     C55906   1.273   8.922   7.369  1.1985  0.4515  0.1185
  415MOL0     N55907   1.140   8.856   7.355 -0.2349 -0.7425 -0.2447
  415MOL0     C55908   1.054   8.867   7.248 -0.4460  1.2996 -0.3353
  415MOL0     C55909   0.941   8.791   7.291 -0.3506  0.1984 -0.7022
  415MOL0     C55910   0.815   8.802   7.215 -0.3699  0.1599 -0.7823
  415MOL0     C55911   0.812   8.708   7.094  0.1989  0.4065 -0.1734
  415MOL0     C55912   0.686   8.717   7.012  0.0623  0.0547 -0.1052
  415MOL0     C55913   0.623   8.861   6.989 -0.4652  0.1652 -0.2781
  415MOL0     O55914   0.521   8.873   6.898 -0.4231 -0.2005  0.0653
  415MOL0     C55915   0.403   8.801   6.919 -0.5195  0.7697 -0.2487
  415MOL0     C55916   0.309   8.833   7.024 -0.1380 -0.8046  0.0846
  415MOL0     C55917   0.194   8.763   7.058  0.1929  1.3093 -0.9448
  415MOL0     C55918   0.103   8.792   7.180 -0.4196  0.4579  0.3423
  415MOL0     C55919   0.163   8.639   6.977 -0.3361 -0.6603 -0.0584
  415MOL0     C55920   0.039   8.560   6.984  0.8532  0.1812  0.1388
  415MOL0     O55921  -0.013   8.497   6.872 -0.0604  0.5747  0.1681
  415MOL0     C55922  -0.135   8.437   6.893 -0.1214  0.0131 -0.5550
  415MOL0     C55923  -0.157   8.297   6.882 -0.1881 -0.6152  0.2573
  415MOL0     C55924  -0.288   8.250   6.867 -0.5000  0.0143 -0.3257
  415MOL0     C55925  -0.397   8.334   6.893  1.1889 -0.0798  0.1783
  415MOL0     O55926  -0.532   8.291   6.889  1.1055 -0.0539 -0.5926
  415MOL0     C55927  -0.550   8.157   6.945 -0.7369 -0.1002 -0.1287
  415MOL0     C55928  -0.693   8.127   6.986  0.2661  0.6315 -0.9987
  415MOL0     C55929  -0.711   7.970   7.008  0.3832  0.1457 -0.4759
  415MOL0     C55930  -0.677   7.933   7.157  0.5316 -0.0781 -1.0191
  415MOL0     C55931  -0.806   7.906   7.241  0.3700 -1.2505  0.0993
  415MOL0     C55932  -0.905   8.024   7.230  0.4119 -0.4974  0.1517
  415MOL0     C55933  -1.029   8.000   7.310 -0.1460  0.3212  0.0256
  415MOL0     C55934  -1.115   8.117   7.353  0.4961  0.3444  0.0107
  415MOL0    Cl55935  -1.022   8.220   7.460  0.4784 -0.6279 -0.4023
  415MOL0     C55936  -0.373   8.463   6.909  0.1997  0.0082 -0.8586
  415MOL0     C55937  -0.247   8.521   6.911 -0.0549  0.5711 -0.3484
  415MOL0     O55938  -0.007   8.548   7.093 -0.0281  0.2769 -0.2079
  415MOL0     C55939   0.261   8.596   6.885 -1.1874 -0.1344 -0.9369
  415MOL0     C55940   0.374   8.678   6.849  0.1967  0.9272  0.0581
  415MOL0     N55941   0.967   8.755   7.420 -0.2693 -0.1554 -0.2446
  415MOL0     N55942   1.079   8.800   7.454 -0.5620  0.6890 -0.6921
  415MOL0     C55943   2.029   9.764   7.652  1.1495 -0.4387 -0.6380
  415MOL0     C55944   2.075   9.886   7.673  0.1961  0.0179 -0.5254
  415MOL0     C55945   2.086  10.346   7.529  0.6346 -0.4628 -0.0033
  415MOL0     C55946   2.099  10.401   7.659  0.3500 -0.3366  0.3224
  415MOL0     C55947   2.097  10.543   7.680  1.2787  1.0649 -0.4500
  415MOL0     C55948   2.069  10.624   7.573  0.3840  0.9580 -0.5330
  415MOL0     O55949   2.045  10.759   7.603  0.4577  0.1090 -1.3038
  415MOL0     C55950   1.932  10.829   7.548 -0.0241  0.3280 -0.5963
  415MOL0     C55951   1.978  10.926   7.447  0.3192  0.2416  0.0780
  415MOL0     C55952   2.048  11.055   7.504 -0.6896 -0.9554 -0.0607
  415MOL0     C55953   2.159  11.114   7.417  0.8657 -0.0186  0.7458
  415MOL0     C55954   2.096  11.175   7.299  0.1593 -0.3300  0.2597
  415MOL0     C55955   2.042  11.239   7.209  0.1664  0.4171  0.2633
  415MOL0     C55956   2.062  10.573   7.443  0.5681 -0.5150 -0.4647
  415MOL0     C55957   2.076  10.436   7.422  0.5993 -0.5525 -0.5565
  415MOL0     H55958   1.871  10.058   7.448  0.7039 -0.1849  0.0400
  415MOL0     H55959   1.763   9.828   7.423 -1.6128 -0.0599  2.5653
  415MOL0     H55960   1.708   9.617   7.587 -0.4461 -1.5597 -0.8462
  415MOL0     H55961   1.725   9.602   7.418  0.0232 -2.5594 -1.3259
  415MOL0     H55962   1.806   9.369   7.437 -1.3202 -2.5210 -0.8474
  415MOL0     H55963   1.805   9.373   7.604  0.2322 -0.5454 -1.3750
  415MOL0     H55964   1.617   9.258   7.556  1.4562  1.3887  3.5510
  415MOL0     H55965   1.552   9.423   7.584  0.8067  0.8128 -0.1271
  415MOL0     H55966   1.526   9.449   7.326  1.8732 -0.0618 -0.5496
  415MOL0     H55967   1.592   9.280   7.310 -0.3518 -0.9819 -0.2327
  415MOL0     H55968   1.339   9.307   7.463 -1.3270  1.5688 -1.4348
  415MOL0     H55969   1.340   9.348   7.287  0.6679  1.3127 -0.7863
  415MOL0     H55970   1.434   9.109   7.243 -1.8437 -1.4564 -0.4253
  415MOL0     H55971   1.460   9.089   7.409  2.2439  2.0138 -0.1313
  415MOL0     H55972   1.183   9.118   7.394 -0.5086 -1.4081  1.1430
  415MOL0     H55973   1.220   9.063   7.230  1.4455 -0.9177 -0.1549
  415MOL0     H55974   1.293   8.917   7.477 -0.7519 -0.2817  0.4753
  415MOL0     H55975   1.346   8.860   7.314 -0.5864  0.4928 -2.4826
  415MOL0     H55976   1.055   8.920   7.153 -0.8034 -0.1214 -1.1660
  415MOL0     H55977   0.729   8.796   7.283 -0.3328  1.4497 -0.6097
  415MOL0     H55978   0.815   8.906   7.184  1.4676  1.0425  1.8241
  415MOL0     H55979   0.828   8.601   7.108  1.8446  0.8370  1.7782
  415MOL0     H55980   0.900   8.740   7.037 -0.5740  0.7553 -1.2088
  415MOL0     H55981   0.606   8.663   7.064  0.0395 -1.0420 -1.2382
  415MOL0     H55982   0.697   8.666   6.916  1.4891  0.3916 -0.1397
  415MOL0     H55983   0.701   8.933   6.961 -1.2437  1.5369  0.9670
  415MOL0     H55984   0.591   8.896   7.088  2.5938  0.2197  0.8218
  415MOL0     H55985   0.330   8.932   7.064  1.0312 -0.8375 -0.4052
  415MOL0     H55986  -0.002   8.799   7.150 -0.6750  1.5124  1.4056
  415MOL0     H55987   0.121   8.720   7.260 -1.4276 -1.3823 -1.0106
  415MOL0     H55988   0.130   8.893   7.212  0.6708  1.6763 -3.7807
  415MOL0     H55989  -0.070   8.239   6.852  0.3061  1.9637 -4.3718
  415MOL0     H55990  -0.296   8.142   6.860  0.2236 -0.0113 -0.8696
  415MOL0     H55991  -0.500   8.090   6.874 -1.6475  0.2495 -1.1265
  415MOL0     H55992  -0.493   8.166   7.038  0.8964  1.9960 -1.2292
  415MOL0     H55993  -0.710   8.186   7.076  0.6692  3.5724 -2.7160
  415MOL0     H55994  -0.766   8.154   6.909  1.6551  1.2818 -2.1458
  415MOL0     H55995  -0.633   7.917   6.954 -1.2440 -1.5813 -1.2440
  415MOL0     H55996  -0.814   7.940   6.986  0.1755 -2.2242  2.9213
  415MOL0     H55997  -0.620   7.840   7.158  1.3125  0.4023  0.3414
  415MOL0     H55998  -0.604   8.005   7.195  1.7714 -1.3556 -0.9199
  415MOL0     H55999  -0.766   7.899   7.342 -1.4154 -1.0165  0.8607
  415MOL0     H56000  -0.853   7.814   7.207 -1.4255  0.3098 -1.9518
  415MOL0     H56001  -0.849   8.112   7.264 -2.2554  1.4650 -0.1734
  415MOL0     H56002  -0.928   8.046   7.125 -0.6497 -1.5822  0.1477
  415MOL0     H56003  -1.004   7.942   7.400  1.1060  0.1923 -0.3919
  415MOL0     H56004  -1.092   7.930   7.255  0.6629 -2.5889  2.5028
  415MOL0     H56005  -1.208   8.094   7.406  1.4258  2.4039  2.8345
  415MOL0     H56006  -1.129   8.174   7.261 -0.4326  2.7993  1.5554
  415MOL0     H56007  -0.458   8.529   6.920 -0.3952 -0.9610  0.6006
  415MOL0     H56008  -0.226   8.624   6.938  0.9345  0.6621 -1.3860
  415MOL0     H56009   0.243   8.508   6.824 -1.0307  0.0588 -1.2641
  415MOL0     H56010   0.444   8.656   6.769 -0.5132  1.3340 -0.7054
  415MOL0     H56011   2.080   9.683   7.704  1.0709  0.2559  0.5685
  415MOL0     H56012   2.160   9.906   7.738  0.0789  0.9484 -0.6490
  415MOL0     H56013   2.112  10.332   7.741  0.3254  0.2628  0.8389
  415MOL0     H56014   2.113  10.581   7.780  3.4056 -0.3269 -0.1809
  415MOL0     H56015   1.861  10.758   7.505  1.0634 -3.7893  3.5118
  415MOL0     H56016   1.881  10.871   7.635  2.0002  0.4719  0.5863
  415MOL0     H56017   1.884  10.955   7.398 -1.1163  1.5888  3.3494
  415MOL0     H56018   2.044  10.880   7.373  0.8641  1.8698 -0.5068
  415MOL0     H56019   2.086  11.033   7.604 -0.3740  2.0554  0.5738
  415MOL0     H56020   1.967  11.127   7.517  0.2781  0.2892 -0.6923
  415MOL0     H56021   2.229  11.035   7.390  1.2219  0.8358 -1.0163
  415MOL0     H56022   2.208  11.200   7.463  0.8822  1.1266 -1.2926
  415MOL0     H56023   1.984  11.301   7.143  1.7060  0.3708 -1.1919
  415MOL0     H56024   2.067  10.636   7.354  2.5550 -1.0449 -0.7853
  415MOL0     H56025   2.083  10.409   7.318  2.1851 -1.6649 -0.1998
  416MOL0     O56026   5.242   8.072   5.263  0.7773  0.0110  0.4199
  416MOL0     C56027   5.219   8.158   5.342  0.7219 -0.4631  0.4361
  416MOL0     O56028   5.285   8.164   5.464 -0.0051  0.7006 -0.2866
  416MOL0     C56029   5.326   8.053   5.525 -1.2110  0.9431 -0.7655
  416MOL0     C56030   5.243   7.991   5.612 -0.2468 -0.2465 -0.1179
  416MOL0     C56031   5.279   7.872   5.694  0.6049  0.1001  0.5280
  416MOL0     C56032   5.399   7.814   5.670  0.5237 -0.0665  0.2448
  416MOL0     O56033   5.427   7.706   5.742 -0.0883  0.9056 -0.0868
  416MOL0     C56034   5.571   7.683   5.765  0.6007  0.6679  0.4906
  416MOL0     C56035   5.650   7.577   5.689 -0.3703  0.8417 -1.0785
  416MOL0     C56036   5.797   7.611   5.697  0.3311  0.1158  0.2643
  416MOL0     C56037   5.889   7.510   5.629 -0.9970  0.6017  0.9826
  416MOL0     C56038   6.038   7.495   5.688 -0.2615 -0.3844 -0.0927
  416MOL0     C56039   6.100   7.633   5.728 -0.4188 -0.7552 -0.1727
  416MOL0     C56040   6.138   7.726   5.610 -0.6330 -1.0440  0.4494
  416MOL0     C56041   6.214   7.850   5.669 -0.2822 -0.0436  0.4952
  416MOL0     N56042   6.128   7.931   5.746 -0.0334 -0.2614 -0.4430
  416MOL0     C56043   6.024   7.998   5.693  0.4077  0.8072 -0.6833
  416MOL0     C56044   5.941   8.025   5.799 -0.9244 -0.1444  0.0647
  416MOL0     C56045   5.820   8.115   5.765 -0.8987 -0.5166 -0.2792
  416MOL0     C56046   5.717   8.112   5.875 -0.4594 -0.2289 -0.9166
  416MOL0     C56047   5.744   8.183   6.007 -0.1273 -0.3663  0.1701
  416MOL0     C56048   5.741   8.338   5.985 -1.2006 -0.0200 -0.1010
  416MOL0     O56049   5.748   8.407   6.113 -0.6559  0.0942  0.3162
  416MOL0     C56050   5.637   8.409   6.194 -0.1187 -0.5175 -0.1037
  416MOL0     C56051   5.643   8.486   6.313  0.4783 -0.7270  0.0700
  416MOL0     C56052   5.536   8.503   6.402  0.0434  0.7913 -0.4711
  416MOL0     C56053   5.579   8.567   6.537 -0.8404  0.1365  0.1427
  416MOL0     C56054   5.413   8.446   6.368  0.0915  0.2088  1.0653
  416MOL0     C56055   5.302   8.445   6.460  0.1374 -0.2147 -0.0823
  416MOL0     O56056   5.186   8.380   6.420 -0.0738  0.9237  0.0374
  416MOL0     C56057   5.067   8.408   6.461  0.8084  0.8392  0.9528
  416MOL0     C56058   5.019   8.539   6.505  0.5191  0.9089 -0.3892
  416MOL0     C56059   4.888   8.554   6.548 -0.2241  0.4431  0.3030
  416MOL0     C56060   4.799   8.438   6.551  0.9448  0.2912 -0.7552
  416MOL0     O56061   4.675   8.436   6.613 -0.0970  0.3819 -0.2850
  416MOL0     C56062   4.646   8.562   6.692 -0.6768 -0.7370  0.6251
  416MOL0     C56063   4.528   8.523   6.780  0.9928  0.0168 -0.7954
  416MOL0     C56064   4.466   8.624   6.869 -0.3467  0.0847  0.2133
  416MOL0     C56065   4.423   8.746   6.796  0.2768 -0.0369 -0.1435
  416MOL0     C56066   4.318   8.837   6.853  0.1094  0.6804 -0.6479
  416MOL0     C56067   4.351   8.861   7.001  0.6698  0.1729  0.6308
  416MOL0     C56068   4.236   8.945   7.065 -0.2643 -0.6024  0.4664
  416MOL0     C56069   4.278   8.982   7.213  0.0929 -0.6561  0.4970
  416MOL0    Cl56070   4.441   9.059   7.207  0.3374 -0.5363 -0.0322
  416MOL0     C56071   4.848   8.312   6.500  0.0516  0.3424 -0.8270
  416MOL0     C56072   4.979   8.302   6.448  0.1044 -0.0590  0.5024
  416MOL0     O56073   5.319   8.500   6.567  0.2535  0.0240  0.2556
  416MOL0     C56074   5.402   8.380   6.245  0.1283  0.2646  0.4428
  416MOL0     C56075   5.512   8.358   6.163 -0.6969  0.0354 -0.2233
  416MOL0     N56076   5.993   7.967   5.921 -0.0084  0.0920 -0.3315
  416MOL0     N56077   6.104   7.918   5.880 -0.0293  0.5811  0.1441
  416MOL0     C56078   5.489   7.874   5.572 -1.1498 -0.2496 -0.6307
  416MOL0     C56079   5.453   7.998   5.505 -0.1938  0.3460  0.3874
  416MOL0     C56080   5.128   8.272   5.296 -0.2697 -0.9637  0.0519
  416MOL0     C56081   5.121   8.379   5.389  0.2433  0.2974  0.4542
  416MOL0     C56082   5.034   8.485   5.374  0.3357  0.2753 -0.2024
  416MOL0     C56083   4.941   8.490   5.273  0.5454 -0.0903  0.5841
  416MOL0     O56084   4.869   8.600   5.238  0.5023 -0.7626 -0.3818
  416MOL0     C56085   4.849   8.692   5.345 -0.0977 -0.4663 -0.3311
  416MOL0     C56086   4.719   8.777   5.316  0.0587  1.1790 -0.9128
  416MOL0     C56087   4.739   8.902   5.235 -0.6247 -0.5982 -0.6247
  416MOL0     C56088   4.806   9.029   5.289  0.3482 -0.1442  0.2847
  416MOL0     C56089   4.863   9.115   5.181 -0.1106  0.4174  0.1794
  416MOL0     C56090   4.901   9.184   5.091 -0.7554  0.2924  0.5075
  416MOL0     C56091   4.945   8.394   5.174 -0.5415 -0.2259  0.5674
  416MOL0     C56092   5.034   8.288   5.187 -0.9278 -0.7221  0.0091
  416MOL0     H56093   5.145   8.038   5.613  0.2835  0.8975  0.1973
  416MOL0     H56094   5.206   7.837   5.766 -0.1004  3.7313  1.7844
  416MOL0     H56095   5.623   7.779   5.764  3.0520 -0.5718  0.7143
  416MOL0     H56096   5.571   7.641   5.866 -0.6864  0.1714  0.3165
  416MOL0     H56097   5.643   7.478   5.735  4.7889  0.8221  0.3716
  416MOL0     H56098   5.628   7.586   5.583  1.3468 -1.6739 -1.7343
  416MOL0     H56099   5.826   7.703   5.645 -2.5485  0.7679 -0.3245
  416MOL0     H56100   5.832   7.613   5.801  0.0540 -0.4779  0.3725
  416MOL0     H56101   5.850   7.410   5.613  0.6101  0.2854 -1.5217
  416MOL0     H56102   5.897   7.550   5.527  4.3425 -0.4409  0.6709
  416MOL0     H56103   6.038   7.443   5.785  1.1658  0.9988  0.6849
  416MOL0     H56104   6.108   7.438   5.627 -0.1995 -0.6554  0.2256
  416MOL0     H56105   6.028   7.687   5.790 -1.3803  0.1856 -2.0187
  416MOL0     H56106   6.184   7.609   5.795  1.8929 -0.3582 -2.7712
  416MOL0     H56107   6.219   7.679   5.554  4.2193  4.3132  2.0323
  416MOL0     H56108   6.060   7.758   5.540  2.6042  3.8342 -1.4269
  416MOL0     H56109   6.261   7.898   5.582 -1.2408  0.1640  0.0741
  416MOL0     H56110   6.298   7.812   5.727  0.2495 -1.9830 -1.4220
  416MOL0     H56111   6.014   8.024   5.588 -1.3341 -2.2797 -1.4319
  416MOL0     H56112   5.852   8.215   5.735  1.4442 -1.6594 -1.9037
  416MOL0     H56113   5.775   8.070   5.677  0.3519 -0.3405 -1.0299
  416MOL0     H56114   5.681   8.010   5.886 -2.9006  0.1112 -4.0900
  416MOL0     H56115   5.633   8.164   5.828 -0.2886  2.9066  1.8137
  416MOL0     H56116   5.837   8.147   6.053  0.9920  3.6940  1.5345
  416MOL0     H56117   5.666   8.150   6.077 -0.8865 -0.7135 -0.8250
  416MOL0     H56118   5.651   8.363   5.928 -0.4548  0.8007 -0.9442
  416MOL0     H56119   5.827   8.364   5.922 -0.0593 -0.6210  1.1593
  416MOL0     H56120   5.742   8.517   6.346  0.6916 -1.4209  0.1125
  416MOL0     H56121   5.529   8.665   6.547 -3.6196 -1.1974  0.3096
  416MOL0     H56122   5.556   8.499   6.619  2.9912 -2.6783 -0.8599
  416MOL0     H56123   5.687   8.585   6.535 -1.2168  2.7612 -0.4500
  416MOL0     H56124   5.092   8.619   6.499  0.9926  0.4441 -0.9890
  416MOL0     H56125   4.853   8.650   6.585  0.5080  0.2817  1.4481
  416MOL0     H56126   4.737   8.568   6.753  0.3589 -2.9960 -0.5550
  416MOL0     H56127   4.612   8.644   6.629 -0.4420 -1.2836 -0.2326
  416MOL0     H56128   4.452   8.491   6.708 -1.3115  2.4546  0.4037
  416MOL0     H56129   4.545   8.440   6.849  1.6042 -1.5355 -2.7185
  416MOL0     H56130   4.542   8.651   6.943 -0.1288 -3.1836  1.2947
  416MOL0     H56131   4.377   8.594   6.924  0.1616  3.0507  2.9949
  416MOL0     H56132   4.504   8.819   6.781 -2.2478  3.1881  0.7189
  416MOL0     H56133   4.388   8.708   6.700  1.2832 -1.1761 -0.0763
  416MOL0     H56134   4.217   8.799   6.834  0.1122 -0.6339  1.5469
  416MOL0     H56135   4.317   8.930   6.797 -0.4805  0.5506 -0.8603
  416MOL0     H56136   4.342   8.769   7.059  1.0816 -0.2643  0.0272
  416MOL0     H56137   4.447   8.914   6.997  1.0998 -0.5782  0.5836
  416MOL0     H56138   4.141   8.891   7.062 -0.1841 -0.7048 -0.5544
  416MOL0     H56139   4.220   9.039   7.012 -1.4688 -2.4105 -2.6302
  416MOL0     H56140   4.290   8.903   7.287 -1.6293  0.0838  1.6384
  416MOL0     H56141   4.200   9.051   7.248 -0.2411 -1.4184  1.2774
  416MOL0     H56142   4.779   8.230   6.484  0.3389 -0.1927  0.5441
  416MOL0     H56143   5.005   8.205   6.405  0.8209 -2.0370  4.8377
  416MOL0     H56144   5.308   8.344   6.201  2.0173 -2.0389 -2.0892
  416MOL0     H56145   5.487   8.310   6.069  0.9560 -3.9083  1.1295
  416MOL0     H56146   5.590   7.839   5.549 -1.0004 -1.1701  1.2593
  416MOL0     H56147   5.513   8.045   5.428 -0.6349 -1.9966 -1.4842
  416MOL0     H56148   5.171   8.369   5.484 -0.5810  1.7490  1.0713
  416MOL0     H56149   5.045   8.568   5.444  3.8056  0.7632 -1.1239
  416MOL0     H56150   4.817   8.639   5.435 -0.3231 -1.6182 -1.0626
  416MOL0     H56151   4.934   8.757   5.368 -1.2497  0.5721  1.2097
  416MOL0     H56152   4.667   8.802   5.409 -0.3680  0.6610 -1.0105
  416MOL0     H56153   4.657   8.713   5.252 -0.3456  1.5642 -0.9148
  416MOL0     H56154   4.640   8.938   5.207 -0.1798 -0.3553 -1.9905
  416MOL0     H56155   4.798   8.859   5.153  3.3058 -2.0796  2.6429
  416MOL0     H56156   4.881   9.001   5.364 -1.9169 -2.8387  1.7246
  416MOL0     H56157   4.731   9.089   5.340 -0.3613  0.3112 -1.2297
  416MOL0     H56158   4.946   9.257   5.028 -2.4860  1.7283  0.8860
  416MOL0     H56159   4.883   8.394   5.085  0.2176  2.6593 -0.0656
  416MOL0     H56160   5.013   8.216   5.108  0.8399 -0.8023 -0.4182
  417MOL0     O56161   0.165   2.993   4.846  0.6203 -0.1419  0.0835
  417MOL0     C56162   0.160   3.109   4.799 -0.8826  0.2500 -0.7599
  417MOL0     O56163   0.170   3.135   4.664 -0.1133  1.1407  0.2143
  417MOL0     C56164   0.182   3.025   4.579 -0.4743 -0.3892  0.3422
  417MOL0     C56165   0.291   3.051   4.496 -0.0420  0.8575  0.8100
  417MOL0     C56166   0.322   2.960   4.395 -0.0754 -0.1954  1.1166
  417MOL0     C56167   0.245   2.837   4.387  0.2967 -0.3400 -0.1365
  417MOL0     O56168   0.284   2.756   4.281 -0.4692  0.0623 -0.0009
  417MOL0     C56169   0.180   2.708   4.188  0.5218 -0.2058 -0.4253
  417MOL0     C56170   0.141   2.559   4.220  0.0200  0.1624  0.6738
  417MOL0     C56171   0.245   2.464   4.156 -0.7793  0.0399 -0.4975
  417MOL0     C56172   0.210   2.316   4.148  0.7750 -0.3965 -0.8424
  417MOL0     C56173   0.322   2.225   4.086  0.2268 -0.9123 -0.7591
  417MOL0     C56174   0.295   2.226   3.930  0.3880 -0.0224 -0.7335
  417MOL0     C56175   0.351   2.095   3.871  0.0951  0.3335 -0.0778
  417MOL0     C56176   0.342   2.097   3.713 -0.8176  0.0650  0.1578
  417MOL0     N56177   0.416   2.215   3.657  0.1287 -0.0287 -0.1453
  417MOL0     C56178   0.548   2.224   3.650 -0.7640  0.6297  0.0835
  417MOL0     C56179   0.567   2.338   3.585 -0.7756  0.9378 -0.9826
  417MOL0     C56180   0.699   2.401   3.547 -0.5705  0.8096 -0.1336
  417MOL0     C56181   0.758   2.476   3.669  0.4841 -0.3328  0.1972
  417MOL0     C56182   0.891   2.540   3.628 -0.0045 -0.6737  0.4796
  417MOL0     C56183   0.983   2.568   3.747 -0.6520 -0.5107  0.9180
  417MOL0     O56184   1.069   2.685   3.744 -0.7714 -0.1376  0.1781
  417MOL0     C56185   1.020   2.815   3.774 -0.2315  0.2322 -0.1833
  417MOL0     C56186   1.112   2.921   3.783 -0.6483  0.3280 -1.1846
  417MOL0     C56187   1.069   3.050   3.809  0.7019 -1.1270  0.3714
  417MOL0     C56188   1.178   3.146   3.821  0.2636  1.6034  0.2428
  417MOL0     C56189   0.920   3.084   3.826 -0.0210  0.8965  0.7317
  417MOL0     C56190   0.865   3.218   3.863 -0.4727 -0.6827  1.0656
  417MOL0     O56191   0.959   3.322   3.872 -0.3676  0.1073  0.5210
  417MOL0     C56192   0.896   3.448   3.878  0.4614 -0.5412  0.1961
  417MOL0     C56193   0.871   3.528   3.763 -0.1618 -0.2636 -0.4333
  417MOL0     C56194   0.807   3.653   3.779  1.1003 -0.6742  0.2146
  417MOL0     C56195   0.757   3.687   3.908 -0.1860 -0.1810  0.2745
  417MOL0     O56196   0.687   3.805   3.936 -0.1253 -0.2219  0.2026
  417MOL0     C56197   0.641   3.892   3.822  0.5293  0.2164 -0.5941
  417MOL0     C56198   0.763   3.983   3.785  0.2419 -0.3414  0.3169
  417MOL0     C56199   0.768   4.120   3.855 -0.2612  0.5290  1.1028
  417MOL0     C56200   0.910   4.183   3.866  0.1118  0.4770 -0.4951
  417MOL0     C56201   0.971   4.210   3.735  0.5686  0.3407 -0.1982
  417MOL0     C56202   1.113   4.273   3.746  0.4875  0.8423  1.0896
  417MOL0     C56203   1.162   4.274   3.602  0.0765  0.5150  0.6316
  417MOL0     C56204   1.301   4.333   3.607 -0.7316  0.4244  0.3831
  417MOL0    Cl56205   1.427   4.228   3.677 -0.4780  0.1016 -0.2676
  417MOL0     C56206   0.792   3.617   4.023  0.0874 -0.2707 -0.1021
  417MOL0     C56207   0.854   3.499   4.007 -0.4369  1.2284  0.1136
  417MOL0     O56208   0.747   3.225   3.827 -0.6411  0.9636  1.2703
  417MOL0     C56209   0.829   2.967   3.809  0.4604 -0.6917 -0.5038
  417MOL0     C56210   0.881   2.841   3.777 -0.8001  0.2264 -0.0776
  417MOL0     N56211   0.446   2.395   3.555 -0.1842 -0.6093 -0.7562
  417MOL0     N56212   0.351   2.320   3.592 -0.9941  0.4175  0.1469
  417MOL0     C56213   0.134   2.818   4.476 -0.8477 -0.3625 -0.2010
  417MOL0     C56214   0.102   2.916   4.571 -0.0574 -0.6403 -1.4842
  417MOL0     C56215   0.134   3.216   4.896 -0.0504  0.9137 -0.8673
  417MOL0     C56216   0.052   3.318   4.848  0.1234 -0.3543  0.6291
  417MOL0     C56217   0.036   3.430   4.935  0.5561 -0.3632  0.4584
  417MOL0     C56218   0.087   3.430   5.065 -1.3224 -0.6118 -0.2781
  417MOL0     O56219   0.054   3.545   5.136  0.6642 -0.5532  0.1347
  417MOL0     C56220   0.132   3.587   5.250  0.8613  1.2542 -0.8313
  417MOL0     C56221   0.067   3.701   5.330  0.3721  0.2214  0.0458
  417MOL0     C56222  -0.082   3.655   5.367  0.1806 -0.1348 -0.3776
  417MOL0     C56223  -0.090   3.523   5.445  0.5007  0.5874  0.5327
  417MOL0     C56224  -0.008   3.507   5.566 -0.3323 -0.9046 -0.1918
  417MOL0     C56225   0.057   3.501   5.667 -0.6644 -0.1630 -0.4332
  417MOL0     C56226   0.184   3.327   5.097  0.3324 -0.3682 -0.5471
  417MOL0     C56227   0.197   3.218   5.020 -0.2487 -0.5475 -0.4812
  417MOL0     H56228   0.346   3.144   4.501  1.8341 -0.0780 -0.9080
  417MOL0     H56229   0.397   2.970   4.317 -0.2021 -2.1311  0.6916
  417MOL0     H56230   0.085   2.763   4.188 -0.4376 -1.7939 -0.7384
  417MOL0     H56231   0.215   2.711   4.085  1.1450  0.2214 -0.2059
  417MOL0     H56232   0.136   2.540   4.328  2.2247 -0.6969  0.6836
  417MOL0     H56233   0.045   2.531   4.176  0.5018 -0.7536  0.1864
  417MOL0     H56234   0.278   2.504   4.059 -0.9969 -1.0882 -1.0563
  417MOL0     H56235   0.332   2.465   4.222  0.2352 -1.1085 -1.7430
  417MOL0     H56236   0.190   2.274   4.248  2.7898 -1.4107 -0.8140
  417MOL0     H56237   0.114   2.308   4.096  1.1698  1.1448 -1.8528
  417MOL0     H56238   0.422   2.255   4.120 -0.2032  0.0148 -0.2616
  417MOL0     H56239   0.297   2.129   4.132 -2.9880 -1.0889 -2.5744
  417MOL0     H56240   0.188   2.234   3.909  0.5589  2.8017 -0.9893
  417MOL0     H56241   0.334   2.314   3.878  0.1977  1.5279  1.5868
  417MOL0     H56242   0.450   2.074   3.912 -0.1692 -2.5581 -0.7523
  417MOL0     H56243   0.280   2.019   3.902 -0.8737 -0.3863 -3.6244
  417MOL0     H56244   0.239   2.108   3.676 -0.3683  4.0364 -0.4457
  417MOL0     H56245   0.377   2.007   3.663 -0.6592  0.2125  0.0010
  417MOL0     H56246   0.612   2.143   3.681 -0.3146 -0.0920 -2.4411
  417MOL0     H56247   0.764   2.320   3.512 -3.4726 -0.7533 -2.3735
  417MOL0     H56248   0.681   2.470   3.464 -2.6317  1.9047  1.1285
  417MOL0     H56249   0.753   2.406   3.753 -0.3308  0.8552  1.1679
  417MOL0     H56250   0.683   2.548   3.702 -2.3138 -3.0490  0.1879
  417MOL0     H56251   0.865   2.632   3.574 -1.8706 -0.3982  1.7294
  417MOL0     H56252   0.939   2.474   3.555  0.3804 -0.3774  0.4663
  417MOL0     H56253   1.048   2.483   3.765 -1.1352 -0.5018  3.0232
  417MOL0     H56254   0.925   2.560   3.840  1.2338 -2.3395  2.0229
  417MOL0     H56255   1.219   2.902   3.786 -0.8001 -1.3388  3.8516
  417MOL0     H56256   1.169   3.202   3.914  0.6778  1.2609  0.4946
  417MOL0     H56257   1.273   3.092   3.831 -0.1096  0.9242  0.1907
  417MOL0     H56258   1.180   3.207   3.730  1.6102  0.5668 -0.4755
  417MOL0     H56259   0.917   3.497   3.670  2.5172 -0.2089  0.7696
  417MOL0     H56260   0.790   3.719   3.694  1.0032  0.3337  0.9946
  417MOL0     H56261   0.600   3.844   3.733  0.3145 -1.9794  0.6248
  417MOL0     H56262   0.567   3.962   3.862  3.5135  3.5086 -0.2765
  417MOL0     H56263   0.861   3.935   3.790  0.0246 -0.9734 -1.1032
  417MOL0     H56264   0.740   4.009   3.682 -1.3507  2.8349  1.3296
  417MOL0     H56265   0.741   4.089   3.956 -1.0578  1.8330  1.3095
  417MOL0     H56266   0.703   4.189   3.800  3.3522  1.1601 -2.9615
  417MOL0     H56267   0.893   4.271   3.929  0.1390  0.9037 -1.0837
  417MOL0     H56268   0.980   4.115   3.915  0.5487  0.6712 -0.8500
  417MOL0     H56269   0.905   4.282   3.686  2.0459  1.1004 -1.1509
  417MOL0     H56270   0.970   4.117   3.678  0.0800 -0.0245  0.3913
  417MOL0     H56271   1.114   4.372   3.792 -0.3501  1.9562 -1.1247
  417MOL0     H56272   1.176   4.203   3.802  0.7828  1.3110  1.3468
  417MOL0     H56273   1.095   4.341   3.547 -2.6254 -1.3956  1.3800
  417MOL0     H56274   1.169   4.173   3.561 -1.1117  1.1277 -1.1989
  417MOL0     H56275   1.314   4.430   3.656  3.5944  0.0999  0.2116
  417MOL0     H56276   1.318   4.353   3.501  2.7685 -0.3201  0.7118
  417MOL0     H56277   0.789   3.655   4.125 -1.3060 -1.0495  0.1724
  417MOL0     H56278   0.888   3.438   4.090 -2.5611  0.1439  0.2541
  417MOL0     H56279   0.722   2.985   3.808  0.3281 -1.1789  0.9759
  417MOL0     H56280   0.812   2.759   3.762 -1.7628  1.0526 -0.2961
  417MOL0     H56281   0.068   2.731   4.478 -2.0124  0.4794 -0.6828
  417MOL0     H56282   0.023   2.899   4.644  2.6002  0.0457  1.7697
  417MOL0     H56283   0.007   3.320   4.749 -1.2890  0.7217  1.2730
  417MOL0     H56284  -0.022   3.516   4.904 -0.9154 -0.3247  3.0850
  417MOL0     H56285   0.147   3.506   5.322  2.7648  0.1636 -2.3655
  417MOL0     H56286   0.236   3.608   5.227  1.6767 -1.8212 -0.3850
  417MOL0     H56287   0.068   3.787   5.263 -2.3083 -0.9581 -1.7011
  417MOL0     H56288   0.133   3.719   5.416 -0.0557 -1.4345  0.7649
  417MOL0     H56289  -0.136   3.639   5.273  1.1422 -0.3207 -0.9090
  417MOL0     H56290  -0.132   3.735   5.423 -1.6922 -0.2667 -1.7565
  417MOL0     H56291  -0.055   3.442   5.380 -0.8896  0.1186  0.3490
  417MOL0     H56292  -0.196   3.501   5.458  1.1916 -3.9285  0.3978
  417MOL0     H56293   0.126   3.500   5.748 -2.2845  0.0058  1.0072
  417MOL0     H56294   0.246   3.338   5.185  0.6705  0.2613 -0.8577
  417MOL0     H56295   0.265   3.141   5.052 -2.5043 -1.5855  2.2234
  418MOL0     O56296   3.006   3.626   8.029 -0.1685  0.2744  1.5652
  418MOL0     C56297   2.973   3.747   8.038 -0.6175 -0.1557 -0.5843
  418MOL0     O56298   3.056   3.847   8.090  0.4017 -0.1453  0.0613
  418MOL0     C56299   3.190   3.823   8.110 -0.1041  0.8177 -0.2309
  418MOL0     C56300   3.242   3.883   8.218 -0.5259  0.3184 -0.5292
  418MOL0     C56301   3.383   3.892   8.239  1.0193  0.8742 -0.8916
  418MOL0     C56302   3.467   3.837   8.147  0.1256  0.5421  1.0341
  418MOL0     O56303   3.601   3.843   8.169 -0.1476 -0.4097  0.0097
  418MOL0     C56304   3.702   3.781   8.083 -0.2940 -1.0357 -0.5659
  418MOL0     C56305   3.839   3.858   8.085 -0.3165  0.6363 -0.7712
  418MOL0     C56306   3.940   3.797   8.192 -0.0664 -0.5198 -0.7404
  418MOL0     C56307   4.069   3.878   8.190  0.7630  0.1230  0.6131
  418MOL0     C56308   4.179   3.816   8.270  0.4323  1.0366 -0.3800
  418MOL0     C56309   4.314   3.883   8.284 -0.1910 -0.5076  0.3565
  418MOL0     C56310   4.310   4.004   8.379  0.0775  0.0212 -0.8233
  418MOL0     C56311   4.443   4.074   8.400  0.1209 -0.1812 -0.4534
  418MOL0     N56312   4.427   4.217   8.424  0.0410 -0.0093  0.2529
  418MOL0     C56313   4.475   4.326   8.355  0.6673  0.2542  0.4380
  418MOL0     C56314   4.432   4.435   8.422  0.6777 -0.1721  0.4879
  418MOL0     C56315   4.430   4.583   8.387 -0.1470  0.5827  0.0199
  418MOL0     C56316   4.563   4.637   8.337  0.0520 -0.2017  0.4509
  418MOL0     C56317   4.681   4.619   8.435  0.0011 -0.6639 -0.0470
  418MOL0     C56318   4.806   4.701   8.406 -0.3380 -0.6673 -0.5102
  418MOL0     O56319   4.935   4.641   8.443  0.8529 -0.6952 -0.6580
  418MOL0     C56320   4.997   4.573   8.346  0.6544 -0.3549  0.0359
  418MOL0     C56321   4.961   4.563   8.209  0.3523  0.4466 -0.3655
  418MOL0     C56322   5.042   4.486   8.122 -0.3350  0.0891  0.8190
  418MOL0     C56323   4.997   4.488   7.981 -0.0501  0.5750 -0.4367
  418MOL0     C56324   5.147   4.404   8.173  0.7471 -0.6198 -0.1127
  418MOL0     C56325   5.238   4.316   8.099  0.4695 -0.9943 -1.0193
  418MOL0     O56326   5.293   4.210   8.168 -0.3802 -0.4046 -0.5103
  418MOL0     C56327   5.408   4.151   8.113 -0.6588  0.0455 -0.0614
  418MOL0     C56328   5.518   4.233   8.071 -0.1284  0.3482 -0.0338
  418MOL0     C56329   5.640   4.170   8.019  0.6605  0.0368 -0.4701
  418MOL0     C56330   5.644   4.030   8.015  0.3454  0.5182 -0.7345
  418MOL0     O56331   5.756   3.978   7.966 -0.9424 -0.1836  0.5332
  418MOL0     C56332   5.749   3.858   7.892 -0.7689  0.8215 -0.0875
  418MOL0     C56333   5.895   3.806   7.842 -0.0224 -0.6467  1.1302
  418MOL0     C56334   5.948   3.866   7.710  0.0622 -0.4300  0.4408
  418MOL0     C56335   6.097   3.847   7.693 -0.3653  0.8340  0.0308
  418MOL0     C56336   6.153   3.863   7.555  0.2769  0.7042  0.7243
  418MOL0     C56337   6.137   3.737   7.469  0.3207 -0.6265 -0.0246
  418MOL0     C56338   6.191   3.774   7.333 -0.1334 -0.3493  0.0230
  418MOL0     C56339   6.180   3.649   7.247  0.5314 -0.1663 -0.0583
  418MOL0    Cl56340   6.292   3.528   7.306  0.1148 -0.5903 -0.1479
  418MOL0     C56341   5.541   3.954   8.075 -0.8375 -0.0131  0.2297
  418MOL0     C56342   5.421   4.011   8.128  0.6830 -0.8075  0.1768
  418MOL0     O56343   5.270   4.353   7.986 -0.5167  0.3399  0.4022
  418MOL0     C56344   5.173   4.415   8.311  0.2022  0.3891 -0.6110
  418MOL0     C56345   5.097   4.495   8.393 -0.1204  0.3544 -0.1388
  418MOL0     N56346   4.353   4.392   8.528 -0.4781 -0.5346  1.1404
  418MOL0     N56347   4.352   4.262   8.530 -0.7825  0.5462  0.2436
  418MOL0     C56348   3.420   3.784   8.031 -0.1569  0.6099  0.1109
  418MOL0     C56349   3.280   3.781   8.013 -0.8065  0.3536  0.4581
  418MOL0     C56350   2.837   3.789   8.025  0.3519 -0.6255 -0.3760
  418MOL0     C56351   2.796   3.925   8.041  0.7942  0.5284  0.8638
  418MOL0     C56352   2.665   3.960   8.038  0.4638  0.2649 -0.5543
  418MOL0     C56353   2.558   3.871   8.007 -0.3420 -1.4328 -0.6407
  418MOL0     O56354   2.433   3.925   8.001 -0.0246  0.1246  0.3947
  418MOL0     C56355   2.317   3.840   8.008 -0.2855  0.2900 -0.4210
  418MOL0     C56356   2.259   3.800   8.153 -0.2996  0.3646 -0.7967
  418MOL0     C56357   2.202   3.910   8.243  0.3530 -0.1949 -1.1520
  418MOL0     C56358   2.308   4.018   8.286 -0.6239 -0.0456  0.4493
  418MOL0     C56359   2.428   3.960   8.355  0.0659 -0.2404  0.1367
  418MOL0     C56360   2.518   3.930   8.424 -0.0972 -1.0083  0.7217
  418MOL0     C56361   2.596   3.735   7.985 -0.9243  0.7170  0.5837
  418MOL0     C56362   2.734   3.692   8.003  0.4680  0.2877 -0.4140
  418MOL0     H56363   3.174   3.926   8.290  0.9873  1.1232  0.4661
  418MOL0     H56364   3.443   3.930   8.321  0.8708  1.6034 -1.1156
  418MOL0     H56365   3.706   3.672   8.094  0.4113 -1.0536 -0.9209
  418MOL0     H56366   3.675   3.799   7.978 -1.5040 -1.0075 -0.2644
  418MOL0     H56367   3.872   3.850   7.981 -0.1216 -1.7425 -0.5791
  418MOL0     H56368   3.814   3.964   8.096 -0.5617  0.8464 -2.8428
  418MOL0     H56369   3.896   3.809   8.292  2.3664 -4.0664  0.9500
  418MOL0     H56370   3.954   3.690   8.175 -2.1008 -1.1776  1.1718
  418MOL0     H56371   4.091   3.878   8.083 -2.9700  0.9116 -0.3044
  418MOL0     H56372   4.058   3.984   8.214 -0.2530  0.7381 -2.1552
  418MOL0     H56373   4.137   3.795   8.368  0.2763 -2.6559 -1.0726
  418MOL0     H56374   4.197   3.718   8.224  1.5196  2.0094 -2.1524
  418MOL0     H56375   4.398   3.818   8.306  1.2475  1.2061  0.1465
  418MOL0     H56376   4.327   3.913   8.180 -1.5343  2.3072  0.8952
  418MOL0     H56377   4.241   4.077   8.336  0.7237 -0.0022 -1.9559
  418MOL0     H56378   4.264   3.972   8.472 -0.5811 -1.2165 -1.5475
  418MOL0     H56379   4.505   4.054   8.312 -0.0492 -2.2257 -0.1791
  418MOL0     H56380   4.483   4.035   8.494  1.0368  0.9186 -0.3788
  418MOL0     H56381   4.546   4.318   8.274  1.8495  1.7111  1.2916
  418MOL0     H56382   4.356   4.592   8.307 -1.6215  1.8789  1.4659
  418MOL0     H56383   4.395   4.639   8.474  0.1423  1.0236 -0.1452
  418MOL0     H56384   4.551   4.743   8.316 -0.7060 -0.3204  0.2637
  418MOL0     H56385   4.590   4.588   8.243  0.4867 -0.3409  0.6476
  418MOL0     H56386   4.702   4.511   8.439 -2.8147 -1.3285 -0.8796
  418MOL0     H56387   4.646   4.640   8.537  0.8274  5.1952 -0.6451
  418MOL0     H56388   4.804   4.793   8.465 -1.2167 -0.3676 -0.9829
  418MOL0     H56389   4.796   4.729   8.301  1.7099 -2.2351 -1.2088
  418MOL0     H56390   4.878   4.622   8.171 -2.3644 -1.2984  2.3663
  418MOL0     H56391   5.037   4.579   7.935 -0.1896  0.6914 -0.3269
  418MOL0     H56392   5.021   4.396   7.926 -0.6601  1.6867 -2.6617
  418MOL0     H56393   4.888   4.484   7.981 -0.0478 -0.2204 -1.7972
  418MOL0     H56394   5.514   4.341   8.084  2.4599  0.7399 -1.7421
  418MOL0     H56395   5.729   4.227   7.996  0.2575  0.0063 -2.3277
  418MOL0     H56396   5.726   3.784   7.969  2.5973  0.9155  1.1930
  418MOL0     H56397   5.677   3.853   7.809 -2.3978 -3.7313  1.2681
  418MOL0     H56398   5.975   3.823   7.915  1.3233  2.0834 -0.8178
  418MOL0     H56399   5.888   3.698   7.824 -2.5056 -0.3607  0.0410
  418MOL0     H56400   5.928   3.974   7.712  1.1056 -0.2148 -0.1348
  418MOL0     H56401   5.887   3.826   7.628 -2.7142  4.1983 -0.1217
  418MOL0     H56402   6.143   3.922   7.758  1.5722  2.2386 -2.7315
  418MOL0     H56403   6.127   3.753   7.740 -0.3899  1.9441  2.3919
  418MOL0     H56404   6.259   3.881   7.578  0.8683 -3.0840  1.7394
  418MOL0     H56405   6.103   3.949   7.510 -1.0731 -1.9655 -3.3733
  418MOL0     H56406   6.193   3.653   7.511 -1.6798 -0.2631  3.7259
  418MOL0     H56407   6.030   3.711   7.466 -0.4185  1.0248  4.6700
  418MOL0     H56408   6.296   3.803   7.347  0.2705 -2.8132  4.1312
  418MOL0     H56409   6.133   3.859   7.298  0.9708 -0.1232 -1.3521
  418MOL0     H56410   6.201   3.676   7.144 -0.9776  1.2882 -0.0440
  418MOL0     H56411   6.080   3.606   7.237  0.0373  1.2481 -1.6347
  418MOL0     H56412   5.549   3.847   8.084 -1.9738 -0.3801 -2.3013
  418MOL0     H56413   5.351   3.954   8.188 -0.2254 -1.7733 -1.7080
  418MOL0     H56414   5.247   4.358   8.366 -0.9470 -1.2344 -0.6913
  418MOL0     H56415   5.123   4.502   8.499 -0.4001 -0.1429 -0.0364
  418MOL0     H56416   3.479   3.746   7.949 -2.0900  0.8589 -1.4758
  418MOL0     H56417   3.235   3.731   7.929 -0.3750 -2.2638  1.6969
  418MOL0     H56418   2.863   4.010   8.054  0.5862  1.0983 -1.3937
  418MOL0     H56419   2.633   4.060   8.065 -1.7978 -0.5513  0.0031
  418MOL0     H56420   2.238   3.905   7.968  2.4622  2.7962 -2.2166
  418MOL0     H56421   2.325   3.747   7.952 -1.3822 -1.1431  1.6759
  418MOL0     H56422   2.338   3.751   8.209  0.6479  0.1380 -2.2675
  418MOL0     H56423   2.184   3.725   8.128  0.3970  0.0717 -2.1145
  418MOL0     H56424   2.163   3.866   8.335  3.1672 -1.2919 -0.4062
  418MOL0     H56425   2.118   3.949   8.183 -2.6783  0.0329  2.8276
  418MOL0     H56426   2.262   4.098   8.345  1.6277  3.8608 -2.6020
  418MOL0     H56427   2.332   4.070   8.193 -2.4980 -2.5755 -1.6202
  418MOL0     H56428   2.600   3.921   8.492  0.6347  1.8743  0.3346
  418MOL0     H56429   2.513   3.675   7.949 -0.2918  0.4491 -0.4621
  418MOL0     H56430   2.764   3.589   7.982 -1.1307 -0.3901  0.4584
  419MOL0     O56431   6.301   5.687   5.841  0.1250  0.1315 -0.0227
  419MOL0     C56432   6.215   5.758   5.890  0.0513 -0.7248 -1.1243
  419MOL0     O56433   6.167   5.874   5.841  0.2350  0.0509 -0.3864
  419MOL0     C56434   6.231   5.943   5.743  0.8106  0.8460 -0.4604
  419MOL0     C56435   6.165   5.978   5.624 -0.2758 -0.1036  0.7916
  419MOL0     C56436   6.227   6.052   5.527  0.3999 -0.8898  0.0154
  419MOL0     C56437   6.347   6.108   5.553 -0.4005  0.8336 -0.4624
  419MOL0     O56438   6.401   6.189   5.454 -0.2675  0.0753 -0.0729
  419MOL0     C56439   6.501   6.282   5.483 -0.2705 -0.5601  0.2090
  419MOL0     C56440   6.494   6.395   5.404  0.5837 -0.2545 -0.0589
  419MOL0     C56441   6.534   6.379   5.256  0.2154 -0.3729 -0.6258
  419MOL0     C56442   6.686   6.371   5.232  0.4809 -0.3398 -0.6002
  419MOL0     C56443   6.710   6.380   5.081 -0.3220  0.2429  0.2893
  419MOL0     C56444   6.851   6.409   5.014  0.1607  0.9015  0.4406
  419MOL0     C56445   6.835   6.406   4.854  0.2436 -0.5203  0.3898
  419MOL0     C56446   6.853   6.261   4.818 -0.5772 -0.0649 -0.6291
  419MOL0     N56447   6.834   6.245   4.677  0.1472 -0.0819  0.4809
  419MOL0     C56448   6.712   6.221   4.616  0.2228  0.0374 -1.0356
  419MOL0     C56449   6.746   6.201   4.487 -0.0681 -0.8373 -0.3814
  419MOL0     C56450   6.637   6.179   4.381  0.0239  1.2993 -1.2395
  419MOL0     C56451   6.640   6.282   4.273 -0.4546  0.1281 -0.1778
  419MOL0     C56452   6.560   6.407   4.320  0.2720 -0.3596  0.5096
  419MOL0     C56453   6.557   6.518   4.214 -0.2072 -0.3248 -0.0791
  419MOL0     O56454   6.479   6.464   4.110 -0.2824 -0.3251 -1.0045
  419MOL0     C56455   6.384   6.547   4.053 -0.0567 -0.6141  0.9183
  419MOL0     C56456   6.388   6.580   3.917 -0.1476 -0.2905 -0.6157
  419MOL0     C56457   6.285   6.662   3.859 -0.2943 -0.1062 -0.8033
  419MOL0     C56458   6.266   6.657   3.710  0.5901 -0.2785 -0.3605
  419MOL0     C56459   6.197   6.728   3.955 -0.8994 -0.2964 -0.3623
  419MOL0     C56460   6.095   6.837   3.928  0.6233  0.8915  1.6156
  419MOL0     O56461   6.093   6.882   3.800  0.4394  0.4040  0.7474
  419MOL0     C56462   5.991   6.959   3.747 -0.0585 -0.7432  0.0345
  419MOL0     C56463   5.872   7.005   3.814 -0.6944 -0.3079 -0.1349
  419MOL0     C56464   5.790   7.083   3.733 -0.3377 -0.8748 -0.1978
  419MOL0     C56465   5.810   7.113   3.599 -0.5103 -0.0446  0.3544
  419MOL0     O56466   5.717   7.197   3.538 -1.0100 -0.1674  0.3946
  419MOL0     C56467   5.583   7.160   3.557  0.7171 -0.6272  0.3396
  419MOL0     C56468   5.503   7.265   3.477 -0.1659  0.1626 -0.6011
  419MOL0     C56469   5.357   7.208   3.469 -0.3011 -0.1990  0.5227
  419MOL0     C56470   5.281   7.279   3.359 -0.4873 -0.0185  0.6496
  419MOL0     C56471   5.132   7.250   3.377  1.0313 -0.3959 -0.0736
  419MOL0     C56472   5.043   7.298   3.267 -0.0857  0.4402 -0.0284
  419MOL0     C56473   4.902   7.226   3.277 -0.3577 -0.0087  0.0440
  419MOL0     C56474   4.847   7.205   3.132 -0.1443  1.3686 -0.4083
  419MOL0    Cl56475   4.694   7.124   3.124 -0.2501  0.7496  0.3207
  419MOL0     C56476   5.921   7.069   3.527 -0.6780  0.3018 -0.1419
  419MOL0     C56477   6.002   6.985   3.607 -0.5333  0.3641 -0.3537
  419MOL0     O56478   6.049   6.894   4.027  0.3135  0.4800  0.4122
  419MOL0     C56479   6.207   6.693   4.095 -0.0571  0.6264 -0.0537
  419MOL0     C56480   6.290   6.602   4.132 -0.1420 -0.4906 -0.1685
  419MOL0     N56481   6.880   6.201   4.468  0.3162  0.5364  0.2753
  419MOL0     N56482   6.928   6.235   4.582 -0.1889  0.1969  0.2275
  419MOL0     C56483   6.417   6.074   5.671 -0.1801 -0.6384  0.1458
  419MOL0     C56484   6.358   5.994   5.767 -1.1251 -0.1972  0.1493
  419MOL0     C56485   6.165   5.700   6.023 -1.0949 -0.0865 -0.6438
  419MOL0     C56486   6.199   5.569   6.070 -1.0803  0.2615 -0.8530
  419MOL0     C56487   6.161   5.525   6.200 -1.0862  0.2395 -0.3535
  419MOL0     C56488   6.105   5.608   6.291  1.3216 -0.5954 -0.4405
  419MOL0     O56489   6.066   5.556   6.409 -0.8297  0.1758  0.7161
  419MOL0     C56490   6.073   5.654   6.512 -0.5297  0.3955 -0.2217
  419MOL0     C56491   6.105   5.563   6.643 -0.2834  0.4140  0.3668
  419MOL0     C56492   6.255   5.553   6.644  0.5995 -0.0777 -0.8311
  419MOL0     C56493   6.294   5.416   6.701  0.3230 -0.6747 -0.5364
  419MOL0     C56494   6.436   5.431   6.737  0.5663 -0.0120 -0.1630
  419MOL0     C56495   6.543   5.433   6.777  0.8330 -0.2325  1.0180
  419MOL0     C56496   6.061   5.733   6.243  0.4332  1.2611  0.3449
  419MOL0     C56497   6.097   5.782   6.111 -0.0461  0.2582  0.1973
  419MOL0     H56498   6.074   5.920   5.609  1.9652 -3.7209 -0.1702
  419MOL0     H56499   6.186   6.068   5.427 -0.6274 -2.1838  0.2007
  419MOL0     H56500   6.484   6.324   5.583 -0.5054 -1.2318  0.4653
  419MOL0     H56501   6.596   6.231   5.466  0.0667  0.8120 -2.5489
  419MOL0     H56502   6.390   6.428   5.415  1.0062  0.3223  3.3376
  419MOL0     H56503   6.558   6.473   5.446  1.1505 -0.1451 -1.0882
  419MOL0     H56504   6.489   6.293   5.204  0.5055 -1.1387  0.3637
  419MOL0     H56505   6.498   6.474   5.215  0.5403  1.0184  2.0564
  419MOL0     H56506   6.746   6.441   5.291  3.3174 -2.4488 -0.7850
  419MOL0     H56507   6.717   6.272   5.264 -0.0682 -0.6665 -1.0672
  419MOL0     H56508   6.672   6.292   5.028  0.8463  0.2480 -0.5934
  419MOL0     H56509   6.645   6.463   5.051  0.2697  1.7895  2.8929
  419MOL0     H56510   6.884   6.506   5.052  2.4859 -0.8358  3.3430
  419MOL0     H56511   6.929   6.338   5.043 -0.6336 -3.3664 -5.8329
  419MOL0     H56512   6.738   6.439   4.815  0.5938 -0.6877 -0.6519
  419MOL0     H56513   6.918   6.462   4.811  2.8994 -4.7865 -0.6543
  419MOL0     H56514   6.774   6.208   4.871 -0.7211  2.6021  2.1075
  419MOL0     H56515   6.952   6.218   4.837 -0.5230 -0.4088 -1.6406
  419MOL0     H56516   6.615   6.231   4.664  1.8815  1.3809  2.3857
  419MOL0     H56517   6.667   6.080   4.348  1.0381  0.8793  0.8145
  419MOL0     H56518   6.544   6.162   4.436 -0.3300  2.1089 -1.5574
  419MOL0     H56519   6.583   6.256   4.184  0.5904 -1.3647 -0.4476
  419MOL0     H56520   6.743   6.309   4.248  0.9399 -3.1222  1.4185
  419MOL0     H56521   6.603   6.451   4.410 -0.3814 -4.0394  2.8638
  419MOL0     H56522   6.457   6.374   4.339 -0.5652  1.9150  0.2009
  419MOL0     H56523   6.652   6.549   4.168 -0.1067  1.5320  1.2650
  419MOL0     H56524   6.517   6.608   4.261 -2.0524 -1.1370 -0.0481
  419MOL0     H56525   6.457   6.521   3.858  0.4056 -3.2577  2.7304
  419MOL0     H56526   6.288   6.758   3.674  0.8456  0.6272  2.0915
  419MOL0     H56527   6.339   6.590   3.663 -0.4152 -2.6428  1.2598
  419MOL0     H56528   6.163   6.627   3.688  0.5402 -0.2816 -0.1279
  419MOL0     H56529   5.864   6.994   3.921  1.6970  0.6730  0.2151
  419MOL0     H56530   5.705   7.126   3.784 -0.4513  0.8044 -1.7097
  419MOL0     H56531   5.570   7.061   3.513 -2.3881 -0.4724  0.6241
  419MOL0     H56532   5.536   7.160   3.657  1.3070  2.3374  0.7197
  419MOL0     H56533   5.506   7.358   3.535 -2.0553  1.9087 -3.0624
  419MOL0     H56534   5.541   7.278   3.375  2.9970 -1.8023  0.1953
  419MOL0     H56535   5.307   7.241   3.561  0.3856 -1.9856  1.5832
  419MOL0     H56536   5.355   7.100   3.451 -1.9759 -0.1947  0.5057
  419MOL0     H56537   5.315   7.383   3.353 -0.8481  0.0109 -2.1554
  419MOL0     H56538   5.302   7.227   3.265 -0.0155 -3.3937  2.4574
  419MOL0     H56539   5.097   7.279   3.476 -1.2528 -2.6019 -0.1144
  419MOL0     H56540   5.120   7.142   3.393  3.5279 -0.1934  4.7066
  419MOL0     H56541   5.043   7.406   3.282  2.7371  0.0747  5.2262
  419MOL0     H56542   5.098   7.280   3.174  0.4249  1.1322  0.1271
  419MOL0     H56543   4.832   7.280   3.342 -2.0075 -2.7204  0.6404
  419MOL0     H56544   4.912   7.125   3.317  1.6369 -0.3304 -1.0965
  419MOL0     H56545   4.921   7.147   3.077 -1.7555  1.5044 -2.8972
  419MOL0     H56546   4.847   7.306   3.089  0.2302  2.5208  2.1151
  419MOL0     H56547   5.925   7.082   3.420  1.4580  0.6609 -0.0626
  419MOL0     H56548   6.094   6.947   3.564 -0.1537 -1.1987  1.6884
  419MOL0     H56549   6.143   6.725   4.177 -1.2990  0.3077 -0.8730
  419MOL0     H56550   6.282   6.569   4.235 -1.1387 -0.8262 -0.3494
  419MOL0     H56551   6.522   6.101   5.669 -0.7501  1.7761 -0.0623
  419MOL0     H56552   6.407   5.975   5.862  0.8060 -1.4363 -1.0265
  419MOL0     H56553   6.255   5.501   6.007 -2.0601  0.9095 -2.5079
  419MOL0     H56554   6.176   5.421   6.230  0.3496  0.5146 -0.0815
  419MOL0     H56555   6.155   5.725   6.498 -0.4359  0.2748 -0.2911
  419MOL0     H56556   5.978   5.708   6.517 -1.6763 -1.3420 -1.6708
  419MOL0     H56557   6.061   5.463   6.638 -0.8647  0.3498  4.0833
  419MOL0     H56558   6.070   5.600   6.739 -3.5513 -2.3996  0.4204
  419MOL0     H56559   6.303   5.625   6.710  0.2883  0.2734 -0.9828
  419MOL0     H56560   6.298   5.557   6.544  1.2384 -1.1847 -0.6216
  419MOL0     H56561   6.293   5.333   6.630 -0.6917 -0.4214 -0.8399
  419MOL0     H56562   6.227   5.397   6.786  0.9137  3.5545  1.1610
  419MOL0     H56563   6.642   5.443   6.816  1.8771 -0.4537 -1.4221
  419MOL0     H56564   6.005   5.798   6.310 -1.6362  1.4588 -1.4683
  419MOL0     H56565   6.071   5.884   6.087 -0.0554 -0.1557 -1.7229
  420MOL0     O56566   5.385   1.197   5.866  0.2151  0.2865  0.5113
  420MOL0     C56567   5.290   1.149   5.803  0.9987  0.4697 -0.8303
  420MOL0     O56568   5.153   1.178   5.837  0.1811  0.0398  0.1646
  420MOL0     C56569   5.108   1.284   5.906  0.2542 -0.0911  0.4861
  420MOL0     C56570   5.110   1.275   6.053  1.2985 -0.2287  0.3130
  420MOL0     C56571   5.082   1.394   6.127  0.3028  0.3691  0.0636
  420MOL0     C56572   5.039   1.505   6.066  0.0207 -0.2988  0.3133
  420MOL0     O56573   5.015   1.604   6.153 -0.0325  0.3856 -0.1116
  420MOL0     C56574   4.958   1.725   6.114 -0.9640 -0.5065  0.2743
  420MOL0     C56575   5.058   1.845   6.079 -0.3427 -0.1147 -0.6113
  420MOL0     C56576   4.993   1.955   6.003 -0.3223 -0.2198  0.5929
  420MOL0     C56577   4.873   2.014   6.070  0.4353  0.5778 -0.4753
  420MOL0     C56578   4.827   2.147   6.026 -0.2592 -0.6763  0.4254
  420MOL0     C56579   4.698   2.201   6.105 -0.8623 -0.2812 -0.1938
  420MOL0     C56580   4.573   2.131   6.056 -0.5993  0.2717 -0.1062
  420MOL0     C56581   4.529   2.189   5.918  0.2919  0.1664  0.2156
  420MOL0     N56582   4.448   2.311   5.928 -0.0280  0.6524  1.5028
  420MOL0     C56583   4.460   2.415   5.840 -0.6188 -0.1147 -0.2537
  420MOL0     C56584   4.391   2.516   5.899 -0.0810 -0.0334  0.0423
  420MOL0     C56585   4.385   2.652   5.837 -0.2137  0.2188 -0.1198
  420MOL0     C56586   4.242   2.692   5.813 -0.4088 -0.9321 -0.0117
  420MOL0     C56587   4.236   2.825   5.744 -0.1156  0.2259  0.0079
  420MOL0     C56588   4.092   2.871   5.725 -0.4964  0.6151  0.2708
  420MOL0     O56589   4.094   2.962   5.616 -0.3890 -0.2926 -1.1833
  420MOL0     C56590   4.080   3.092   5.639  0.1264  0.1012  0.1249
  420MOL0     C56591   4.084   3.171   5.524 -0.8330  0.4160 -0.6655
  420MOL0     C56592   4.057   3.312   5.524  0.0034 -0.1611 -0.2195
  420MOL0     C56593   4.057   3.377   5.390  0.5099 -0.2893 -0.4226
  420MOL0     C56594   4.037   3.377   5.655  0.1054  0.4995 -0.8398
  420MOL0     C56595   4.025   3.526   5.685  0.7783  1.4877 -0.7666
  420MOL0     O56596   3.975   3.603   5.591  0.0067  0.0118 -0.7964
  420MOL0     C56597   3.992   3.736   5.622 -0.0427  0.1384 -0.0112
  420MOL0     C56598   3.903   3.816   5.678  0.1039  0.3302  0.7597
  420MOL0     C56599   3.927   3.947   5.720 -0.3546 -0.8204 -0.8351
  420MOL0     C56600   4.052   4.006   5.707 -0.4634  0.2849 -0.4301
  420MOL0     O56601   4.072   4.131   5.742  0.5092  0.2331 -0.1431
  420MOL0     C56602   4.058   4.155   5.884 -0.1155 -0.8861  0.0029
  420MOL0     C56603   4.186   4.241   5.922  0.1406  0.8890  0.0262
  420MOL0     C56604   4.323   4.167   5.896  0.1054 -0.1516 -0.6318
  420MOL0     C56605   4.423   4.170   6.006 -1.1912  0.8612 -0.1530
  420MOL0     C56606   4.527   4.292   6.004 -0.2263  0.0314 -0.1252
  420MOL0     C56607   4.600   4.303   6.139 -0.7497  0.0820  0.4085
  420MOL0     C56608   4.671   4.182   6.194 -0.2112 -0.3330 -0.0264
  420MOL0     C56609   4.799   4.144   6.129 -0.3331 -0.2824 -0.2254
  420MOL0    Cl56610   4.880   4.049   6.256 -0.4660 -0.0534 -0.1470
  420MOL0     C56611   4.150   3.917   5.645  0.4724  0.4228 -0.3478
  420MOL0     C56612   4.125   3.788   5.600 -0.4791  0.1636  0.5791
  420MOL0     O56613   4.056   3.557   5.799  0.5676  0.9728 -0.8827
  420MOL0     C56614   4.058   3.292   5.770  0.4956 -0.4588  0.2632
  420MOL0     C56615   4.069   3.156   5.760 -0.1923 -1.2537 -1.1832
  420MOL0     N56616   4.325   2.471   6.017  0.3593  0.3211  0.3043
  420MOL0     N56617   4.358   2.352   6.022 -0.8555  0.9786  0.4710
  420MOL0     C56618   5.030   1.520   5.926 -0.6436 -0.3094  0.0248
  420MOL0     C56619   5.067   1.405   5.853 -0.1025  0.3395  0.8533
  420MOL0     C56620   5.313   1.050   5.689  0.0384  0.1885  0.3057
  420MOL0     C56621   5.207   0.988   5.617 -0.3044 -0.0590 -0.2045
  420MOL0     C56622   5.226   0.918   5.500  1.5193  0.2954 -0.5355
  420MOL0     C56623   5.362   0.894   5.462 -0.2842  0.1424  0.0239
  420MOL0     O56624   5.385   0.835   5.339 -0.2488 -0.0198 -0.2087
  420MOL0     C56625   5.507   0.845   5.270  0.5878  0.5584  0.1417
  420MOL0     C56626   5.525   0.979   5.187 -0.6070  0.6796  0.0497
  420MOL0     C56627   5.664   0.978   5.120  1.3394 -0.0138  0.2156
  420MOL0     C56628   5.778   0.956   5.217 -1.3079 -0.0452  0.3422
  420MOL0     C56629   5.907   1.001   5.152 -0.3072 -1.0151 -0.1936
  420MOL0     C56630   5.994   1.063   5.093 -0.0609  0.2485  0.0477
  420MOL0     C56631   5.470   0.961   5.533  0.5748 -0.0080  0.5978
  420MOL0     C56632   5.446   1.029   5.647  0.5122  0.4621 -0.0864
  420MOL0     H56633   5.162   1.189   6.095  3.0172 -0.1932 -1.5994
  420MOL0     H56634   5.096   1.402   6.234 -0.1892 -0.1237  0.1710
  420MOL0     H56635   4.882   1.714   6.036  0.1080  1.1985 -1.0927
  420MOL0     H56636   4.909   1.755   6.207  0.8320  0.9531  0.8261
  420MOL0     H56637   5.100   1.893   6.168 -2.2259 -0.8117  0.7173
  420MOL0     H56638   5.137   1.800   6.017 -1.6425 -1.0855 -1.6168
  420MOL0     H56639   5.061   2.039   5.988 -0.3379 -0.0047  1.6691
  420MOL0     H56640   4.960   1.918   5.905 -3.0360  0.3459  1.1867
  420MOL0     H56641   4.795   1.938   6.056  3.5336 -2.5228 -2.6954
  420MOL0     H56642   4.889   2.025   6.177 -0.3679  0.8395 -0.3726
  420MOL0     H56643   4.907   2.220   6.037  1.0079 -1.9423  0.0035
  420MOL0     H56644   4.816   2.138   5.917  2.2794 -2.9957  0.2220
  420MOL0     H56645   4.708   2.223   6.211 -0.8108 -1.6460  0.1071
  420MOL0     H56646   4.690   2.305   6.073 -1.1482  0.2903  1.6770
  420MOL0     H56647   4.582   2.022   6.058 -0.5491  0.2813  1.5291
  420MOL0     H56648   4.495   2.151   6.130 -0.7996 -0.6947 -0.0335
  420MOL0     H56649   4.456   2.115   5.883 -1.3775  1.5652  0.6167
  420MOL0     H56650   4.611   2.202   5.845  0.2983 -0.5413  0.0916
  420MOL0     H56651   4.529   2.423   5.757 -1.5578 -0.8749 -1.1551
  420MOL0     H56652   4.440   2.726   5.895 -0.3435 -0.4614  0.8900
  420MOL0     H56653   4.430   2.642   5.738 -1.2357 -1.7706 -0.4457
  420MOL0     H56654   4.184   2.692   5.905  2.1110  1.2453  1.7462
  420MOL0     H56655   4.202   2.614   5.747 -1.6752 -1.3132  1.1728
  420MOL0     H56656   4.292   2.809   5.652  2.2273  1.5952  1.0867
  420MOL0     H56657   4.293   2.900   5.799  1.0455  0.3362 -1.2962
  420MOL0     H56658   4.055   2.909   5.820  0.4707  2.4651 -0.0497
  420MOL0     H56659   4.024   2.794   5.686 -1.0591  2.1493 -1.9810
  420MOL0     H56660   4.107   3.118   5.432  1.7887 -2.0925  1.2255
  420MOL0     H56661   4.103   3.476   5.386  0.6299 -0.2855  0.6466
  420MOL0     H56662   4.126   3.325   5.323  2.4236 -0.5888  1.6403
  420MOL0     H56663   3.956   3.385   5.350  1.3243  1.0653 -2.3698
  420MOL0     H56664   3.804   3.773   5.686  0.1253  0.0823 -0.1853
  420MOL0     H56665   3.844   3.998   5.767 -1.9367 -5.1625  1.5710
  420MOL0     H56666   3.969   4.218   5.893  0.5709  0.7207 -3.1114
  420MOL0     H56667   4.055   4.070   5.952  0.6768 -1.2721 -0.4309
  420MOL0     H56668   4.181   4.335   5.867  2.5944  1.7883  1.1826
  420MOL0     H56669   4.166   4.277   6.024 -0.9891  1.0299 -0.2275
  420MOL0     H56670   4.370   4.218   5.811  5.9547 -1.2283  1.4818
  420MOL0     H56671   4.310   4.061   5.873 -0.2922  0.0058 -1.1420
  420MOL0     H56672   4.379   4.154   6.105  1.0512  2.2018  1.1616
  420MOL0     H56673   4.481   4.078   5.991 -1.6561  0.3290  1.0953
  420MOL0     H56674   4.464   4.381   5.996 -0.1400 -0.1034 -3.7671
  420MOL0     H56675   4.580   4.289   5.909 -2.7682 -0.2391 -1.6352
  420MOL0     H56676   4.664   4.391   6.148 -0.7459  0.7251 -3.9746
  420MOL0     H56677   4.520   4.321   6.212 -2.4009  1.2336 -1.5755
  420MOL0     H56678   4.610   4.092   6.201 -0.6542  0.0499  1.2370
  420MOL0     H56679   4.696   4.204   6.298 -0.2989  1.3011 -0.3325
  420MOL0     H56680   4.854   4.233   6.098  0.3424 -1.7865 -3.7930
  420MOL0     H56681   4.781   4.073   6.047  2.6535 -0.9264 -0.4367
  420MOL0     H56682   4.251   3.954   5.629  0.5749  1.2496  1.8841
  420MOL0     H56683   4.202   3.723   5.559  1.8348  2.8861  0.3026
  420MOL0     H56684   4.042   3.332   5.870 -0.3289  0.5637 -0.2559
  420MOL0     H56685   4.076   3.108   5.858 -0.2712  2.0620  0.5864
  420MOL0     H56686   5.010   1.620   5.889  2.2798  0.3125 -0.1420
  420MOL0     H56687   5.060   1.416   5.745 -3.1084  0.2152  0.9626
  420MOL0     H56688   5.102   1.000   5.642  0.3546  0.4031  2.7449
  420MOL0     H56689   5.140   0.891   5.438 -2.3513 -1.3811  4.8261
  420MOL0     H56690   5.595   0.837   5.335  1.9373 -0.7491 -1.6977
  420MOL0     H56691   5.511   0.764   5.196 -1.8865  0.3136  0.2094
  420MOL0     H56692   5.516   1.055   5.265 -1.5211 -0.3589  0.9906
  420MOL0     H56693   5.434   0.996   5.129  0.6188 -1.8931 -2.9140
  420MOL0     H56694   5.668   1.072   5.064 -1.2105 -1.4686 -2.7642
  420MOL0     H56695   5.655   0.893   5.052  2.1884  0.0358  0.0278
  420MOL0     H56696   5.793   0.849   5.233 -4.0039 -0.6790 -0.8224
  420MOL0     H56697   5.757   1.013   5.308 -1.2367 -0.9363  0.9283
  420MOL0     H56698   6.074   1.113   5.043 -0.3201  2.4654  1.6735
  420MOL0     H56699   5.570   0.938   5.499  0.3342  0.8624 -0.7475
  420MOL0     H56700   5.524   1.075   5.707 -1.6303 -0.9228  4.1850
  421MOL0     O56701   0.629   7.138   6.689 -0.7783 -0.2036  0.1442
  421MOL0     C56702   0.575   7.252   6.687 -0.6881 -0.1914 -0.3820
  421MOL0     O56703   0.572   7.336   6.580 -0.0982 -0.0921 -0.2031
  421MOL0     C56704   0.590   7.293   6.461 -0.2522  0.7692  0.5812
  421MOL0     C56705   0.619   7.386   6.367  0.0038 -0.1576  0.3496
  421MOL0     C56706   0.620   7.348   6.228 -0.7466 -0.0411 -0.2367
  421MOL0     C56707   0.586   7.218   6.182  0.1610 -0.0811 -0.0015
  421MOL0     O56708   0.563   7.208   6.050 -0.0755  0.4648 -0.5976
  421MOL0     C56709   0.663   7.230   5.951 -0.3815  0.3573 -0.2511
  421MOL0     C56710   0.598   7.269   5.813 -0.9566 -0.3564 -0.0363
  421MOL0     C56711   0.544   7.415   5.818  0.8581  0.1510 -0.1331
  421MOL0     C56712   0.449   7.444   5.693  0.4435 -0.1750 -0.2214
  421MOL0     C56713   0.427   7.590   5.667  0.8517  0.3150  0.4832
  421MOL0     C56714   0.354   7.655   5.778  0.4481 -0.4164 -0.3435
  421MOL0     C56715   0.327   7.803   5.757  0.0614 -0.3812 -0.4687
  421MOL0     C56716   0.273   7.848   5.900 -0.7501  0.6410  0.1614
  421MOL0     N56717   0.263   7.991   5.911  0.3450 -0.4694 -0.1993
  421MOL0     C56718   0.283   8.075   6.025  0.1587  0.4726 -0.3200
  421MOL0     C56719   0.245   8.195   5.973 -0.2731  0.0737  0.0749
  421MOL0     C56720   0.247   8.325   6.038 -0.1147  0.2482 -0.9565
  421MOL0     C56721   0.376   8.394   6.090  0.1157  0.6336 -0.1299
  421MOL0     C56722   0.342   8.508   6.194 -0.3211 -0.0091 -1.2984
  421MOL0     C56723   0.443   8.622   6.186 -0.3194  0.4103 -0.4043
  421MOL0     O56724   0.472   8.660   6.318  0.1904 -0.4378  0.2996
  421MOL0     C56725   0.551   8.773   6.340 -0.3227  0.2017 -0.5067
  421MOL0     C56726   0.603   8.861   6.247 -1.0879 -0.2219 -1.2350
  421MOL0     C56727   0.680   8.968   6.300  0.4583  0.3897  0.6121
  421MOL0     C56728   0.756   9.052   6.206  0.0078  0.0652  0.2564
  421MOL0     C56729   0.688   9.000   6.439  0.1776 -0.2924 -0.8396
  421MOL0     C56730   0.766   9.116   6.510 -0.4371  0.9866  0.1559
  421MOL0     O56731   0.732   9.136   6.640 -0.6406 -0.3422  0.0198
  421MOL0     C56732   0.814   9.223   6.706 -0.4774 -0.3512  0.1547
  421MOL0     C56733   0.763   9.351   6.739 -0.6855 -0.4582  0.5482
  421MOL0     C56734   0.847   9.444   6.810  0.1886  0.2722  0.2210
  421MOL0     C56735   0.974   9.410   6.857 -0.5981 -0.3423 -0.3560
  421MOL0     O56736   1.051   9.489   6.931  0.0267  0.9231 -0.7628
  421MOL0     C56737   0.999   9.531   7.060 -0.0069 -0.7523  0.0674
  421MOL0     C56738   1.092   9.648   7.105 -0.0341  0.7349 -1.1298
  421MOL0     C56739   1.087   9.776   7.015  0.5976 -0.7355 -0.6750
  421MOL0     C56740   0.959   9.839   6.969 -0.3430  0.4335  0.6518
  421MOL0     C56741   0.961   9.972   6.897 -0.2785  0.8301 -0.8813
  421MOL0     C56742   0.969  10.100   6.989 -0.8537  0.2776  0.6149
  421MOL0     C56743   0.981  10.240   6.910 -1.0363  0.5532 -0.3357
  421MOL0     C56744   1.113  10.235   6.823  0.6411  0.2405 -0.4824
  421MOL0    Cl56745   1.259  10.199   6.915  0.3008 -0.0295  0.0562
  421MOL0     C56746   1.030   9.291   6.823 -0.5503  1.1916 -0.1773
  421MOL0     C56747   0.951   9.200   6.748 -0.6691 -0.0763  1.2988
  421MOL0     O56748   0.844   9.179   6.447 -0.6383  0.5527  0.1752
  421MOL0     C56749   0.635   8.905   6.530  1.1634  0.4936 -0.3638
  421MOL0     C56750   0.573   8.796   6.476 -0.3977 -0.0634 -0.1812
  421MOL0     N56751   0.209   8.182   5.846  0.1319 -0.6509 -0.0248
  421MOL0     N56752   0.203   8.065   5.811  0.5936 -0.8676  0.0629
  421MOL0     C56753   0.557   7.122   6.285 -0.3976 -0.0240  1.1999
  421MOL0     C56754   0.563   7.155   6.422 -1.0308 -0.6172 -0.8702
  421MOL0     C56755   0.522   7.305   6.812  0.1893 -0.1607  0.6814
  421MOL0     C56756   0.525   7.233   6.934  0.2759 -0.1757  0.9817
  421MOL0     C56757   0.479   7.287   7.054 -0.2777 -0.9513 -0.7443
  421MOL0     C56758   0.423   7.413   7.052 -0.1865  1.1165 -0.6788
  421MOL0     O56759   0.369   7.455   7.170  0.1186 -0.4989 -0.4362
  421MOL0     C56760   0.267   7.561   7.167 -0.5387  0.0070 -1.0695
  421MOL0     C56761   0.181   7.564   7.296  0.5585  0.0748 -0.7833
  421MOL0     C56762   0.066   7.656   7.262 -0.6429 -0.1619 -0.0838
  421MOL0     C56763   0.016   7.693   7.396  0.4401 -0.6703 -1.2080
  421MOL0     C56764  -0.109   7.767   7.369  0.0904  0.5173 -0.7172
  421MOL0     C56765  -0.224   7.809   7.361  0.3736  0.4097  0.0898
  421MOL0     C56766   0.422   7.484   6.935 -0.1169 -0.2149 -0.7212
  421MOL0     C56767   0.474   7.433   6.820 -0.0416 -0.5611  0.2163
  421MOL0     H56768   0.611   7.491   6.391 -3.7521 -0.2328  0.0585
  421MOL0     H56769   0.653   7.421   6.155 -1.2332  1.0442  0.6073
  421MOL0     H56770   0.727   7.310   5.991 -1.3726 -0.4199  3.2091
  421MOL0     H56771   0.720   7.136   5.942 -1.2950 -0.0407 -3.1533
  421MOL0     H56772   0.672   7.261   5.733 -1.0075 -0.2636 -0.0923
  421MOL0     H56773   0.515   7.199   5.803  0.3239 -2.0379  0.5659
  421MOL0     H56774   0.492   7.426   5.914  0.0976 -1.8425 -0.2716
  421MOL0     H56775   0.627   7.487   5.823  1.2486  0.1213 -3.5540
  421MOL0     H56776   0.492   7.391   5.608  0.2998  1.7045 -1.5306
  421MOL0     H56777   0.354   7.391   5.704  1.3940 -1.6322  1.4948
  421MOL0     H56778   0.515   7.651   5.644  0.0185  1.4161  0.1866
  421MOL0     H56779   0.354   7.595   5.586  2.3151 -2.4758 -1.1677
  421MOL0     H56780   0.258   7.605   5.794  0.8511 -0.7574  1.1843
  421MOL0     H56781   0.415   7.635   5.866 -0.9434  0.6126  0.9118
  421MOL0     H56782   0.420   7.860   5.748  0.1006  0.1552  2.3650
  421MOL0     H56783   0.266   7.822   5.668 -0.5368 -0.3157 -0.0575
  421MOL0     H56784   0.349   7.818   5.973  0.1499  2.4389  0.0292
  421MOL0     H56785   0.179   7.796   5.921 -3.1210  3.6720 -2.0395
  421MOL0     H56786   0.296   8.053   6.131 -1.0640 -0.4597 -0.3463
  421MOL0     H56787   0.216   8.402   5.968  1.9611 -0.1864 -2.4464
  421MOL0     H56788   0.171   8.327   6.117 -0.0293 -0.5925 -0.8442
  421MOL0     H56789   0.429   8.436   6.004  0.4451  1.7523  0.5912
  421MOL0     H56790   0.438   8.318   6.137  1.1232  1.9176  0.6855
  421MOL0     H56791   0.326   8.461   6.291 -2.4740  0.4168 -1.4091
  421MOL0     H56792   0.245   8.555   6.174  1.3397  2.9218 -3.3505
  421MOL0     H56793   0.384   8.703   6.144 -2.6207  0.8297  3.1750
  421MOL0     H56794   0.523   8.603   6.114  0.1944  3.5321 -0.7931
  421MOL0     H56795   0.594   8.835   6.142 -1.9364 -0.4534 -1.1139
  421MOL0     H56796   0.863   9.032   6.216 -0.4771 -3.6735 -0.4719
  421MOL0     H56797   0.745   9.020   6.102  2.1259 -2.3760  0.6989
  421MOL0     H56798   0.731   9.158   6.216  0.9906  0.2144  1.2581
  421MOL0     H56799   0.658   9.372   6.720 -0.4412  0.4259  0.1373
  421MOL0     H56800   0.803   9.534   6.854 -0.2628  0.0203  0.2904
  421MOL0     H56801   0.900   9.577   7.060  0.5366  0.4560  0.2615
  421MOL0     H56802   0.991   9.447   7.129 -2.5845 -2.1165 -1.7228
  421MOL0     H56803   1.077   9.685   7.207 -0.0207 -2.0156 -0.0498
  421MOL0     H56804   1.195   9.614   7.119  0.7721  3.9985  3.1581
  421MOL0     H56805   1.132   9.740   6.922 -0.8685 -0.6790 -1.4343
  421MOL0     H56806   1.148   9.855   7.058  1.3444 -2.2397  1.1848
  421MOL0     H56807   0.917   9.769   6.896  0.2764  3.1910 -2.6140
  421MOL0     H56808   0.901   9.845   7.062  1.1795  1.6675  1.5886
  421MOL0     H56809   0.874   9.976   6.830 -2.5619  0.1225  1.8363
  421MOL0     H56810   1.045   9.965   6.828 -1.4484 -2.7825 -2.1488
  421MOL0     H56811   0.876  10.105   7.047 -0.5404 -0.2180  1.1709
  421MOL0     H56812   1.055  10.088   7.055 -0.7531 -0.7355  0.3070
  421MOL0     H56813   0.974  10.326   6.977 -1.5806  1.5846 -1.6832
  421MOL0     H56814   0.894  10.261   6.848 -1.3288  1.5328  0.3793
  421MOL0     H56815   1.128  10.334   6.779  3.7144  0.0716 -0.0110
  421MOL0     H56816   1.108  10.162   6.741  4.2535 -2.2445  1.2363
  421MOL0     H56817   1.133   9.277   6.856 -0.3562  0.8802 -0.8767
  421MOL0     H56818   0.989   9.102   6.722  1.9325  0.8903  1.0776
  421MOL0     H56819   0.641   8.904   6.638 -3.9274 -0.6254  0.1391
  421MOL0     H56820   0.525   8.741   6.557 -0.4531  1.9333  1.2293
  421MOL0     H56821   0.539   7.029   6.232  0.3602  0.6501 -0.2939
  421MOL0     H56822   0.525   7.082   6.492 -3.7950  0.5776 -0.9774
  421MOL0     H56823   0.555   7.129   6.928  0.3601 -0.0895 -0.7902
  421MOL0     H56824   0.483   7.229   7.145 -0.4333 -0.1947 -0.2394
  421MOL0     H56825   0.310   7.660   7.154 -3.6071  1.6197  0.1207
  421MOL0     H56826   0.209   7.547   7.075  1.2099 -0.6266 -2.1056
  421MOL0     H56827   0.253   7.594   7.373 -0.6590 -0.3447  0.5501
  421MOL0     H56828   0.149   7.467   7.334 -1.9002  1.3979  0.7651
  421MOL0     H56829  -0.003   7.603   7.196 -1.8045  1.8692 -0.5975
  421MOL0     H56830   0.104   7.748   7.217  3.1930 -0.8391  1.3530
  421MOL0     H56831   0.083   7.759   7.452 -2.5770  0.4349  1.3721
  421MOL0     H56832  -0.008   7.609   7.460 -2.4921  0.7783 -0.2242
  421MOL0     H56833  -0.321   7.853   7.362  0.7051  1.3574  3.1939
  421MOL0     H56834   0.387   7.587   6.927 -0.3856  0.0513  2.5065
  421MOL0     H56835   0.475   7.507   6.741  3.2474  1.2337  1.6855
  422MOL0     O56836   0.161   0.415   6.116  0.0538  1.0753  0.2281
  422MOL0     C56837   0.048   0.429   6.147  0.5249 -0.8255 -0.4827
  422MOL0     O56838   0.003   0.518   6.245  0.0165  0.7510  0.1004
  422MOL0     C56839   0.080   0.596   6.325 -0.6370 -0.4200  0.2978
  422MOL0     C56840   0.184   0.669   6.265 -0.8435 -0.5936  0.5885
  422MOL0     C56841   0.258   0.763   6.334  0.6927  0.3791  0.2477
  422MOL0     C56842   0.210   0.795   6.464 -1.0127  0.1431  0.9702
  422MOL0     O56843   0.262   0.901   6.537 -0.2535  0.1835  0.8541
  422MOL0     C56844   0.387   0.960   6.508 -0.0406 -0.0459  0.0221
  422MOL0     C56845   0.515   0.862   6.523 -0.1213  0.0251  1.0762
  422MOL0     C56846   0.575   0.820   6.659  0.4315 -0.1544 -0.0966
  422MOL0     C56847   0.486   0.716   6.737 -0.5053  0.3803 -0.1779
  422MOL0     C56848   0.512   0.729   6.882 -0.1682  0.1292  0.4031
  422MOL0     C56849   0.463   0.614   6.960  0.1960  0.4510  0.0196
  422MOL0     C56850   0.309   0.582   6.955  0.2318  0.0419  0.5599
  422MOL0     C56851   0.288   0.471   6.853  0.4809  0.7000  0.3892
  422MOL0     N56852   0.146   0.432   6.827 -0.0918 -0.8156  0.5258
  422MOL0     C56853   0.102   0.302   6.804  0.3659 -0.3532 -0.4729
  422MOL0     C56854  -0.033   0.315   6.813 -0.1752  1.0411  0.2563
  422MOL0     C56855  -0.130   0.197   6.794  0.0230 -0.7633  0.5969
  422MOL0     C56856  -0.110   0.097   6.901  0.0766 -0.2123 -0.7550
  422MOL0     C56857  -0.236   0.028   6.964 -0.3505  0.3546 -0.1829
  422MOL0     C56858  -0.202  -0.073   7.077  0.7532 -0.7035 -0.7528
  422MOL0     O56859  -0.314  -0.151   7.126  0.4653 -0.4865  0.6128
  422MOL0     C56860  -0.331  -0.271   7.056 -0.0767 -1.1848 -0.2204
  422MOL0     C56861  -0.253  -0.329   6.952  1.3689  0.4370  0.4590
  422MOL0     C56862  -0.299  -0.446   6.887  0.2490 -0.3868  0.0759
  422MOL0     C56863  -0.210  -0.482   6.770  0.0519 -0.1504 -0.1957
  422MOL0     C56864  -0.408  -0.516   6.940  0.7453  0.3365  0.8870
  422MOL0     C56865  -0.443  -0.655   6.891  1.2043  0.6480 -0.0276
  422MOL0     O56866  -0.569  -0.712   6.939  0.2338 -0.3744  0.8670
  422MOL0     C56867  -0.619  -0.827   6.895  0.5604 -0.4313 -1.0535
  422MOL0     C56868  -0.759  -0.842   6.879 -0.0257  0.2212  0.1653
  422MOL0     C56869  -0.817  -0.964   6.852  0.0611  0.6794  0.4996
  422MOL0     C56870  -0.743  -1.088   6.848 -0.2845 -0.8599 -0.1023
  422MOL0     O56871  -0.787  -1.217   6.825  0.2381  0.6513 -0.8589
  422MOL0     C56872  -0.933  -1.224   6.808 -0.4363 -0.0247  0.1226
  422MOL0     C56873  -0.971  -1.371   6.793  0.1071  0.0382  1.1911
  422MOL0     C56874  -1.117  -1.389   6.718 -0.8183 -0.9133 -0.0573
  422MOL0     C56875  -1.195  -1.504   6.775  0.2868  0.2812 -1.3215
  422MOL0     C56876  -1.132  -1.653   6.776 -0.2172 -1.2451  0.0963
  422MOL0     C56877  -1.078  -1.694   6.642  0.3909 -0.2408  0.4286
  422MOL0     C56878  -1.055  -1.847   6.637  0.3235 -0.1010  1.4972
  422MOL0     C56879  -1.022  -1.916   6.499 -0.9878 -0.3968 -0.8174
  422MOL0    Cl56880  -1.169  -1.921   6.398 -0.0838  0.6324 -0.4083
  422MOL0     C56881  -0.603  -1.069   6.851 -0.2317 -0.1544  0.0377
  422MOL0     C56882  -0.542  -0.944   6.872  0.1758 -0.0018 -0.8252
  422MOL0     O56883  -0.364  -0.712   6.825  0.1368 -0.2638 -0.7704
  422MOL0     C56884  -0.500  -0.454   7.024 -0.2371 -1.8252 -0.1019
  422MOL0     C56885  -0.455  -0.330   7.084  0.8135  0.5203  0.4111
  422MOL0     N56886  -0.067   0.444   6.837  0.1840  1.5040  0.1962
  422MOL0     N56887   0.042   0.519   6.831  0.7895 -0.4297 -1.3636
  422MOL0     C56888   0.096   0.735   6.522  0.3078  0.3590  0.5525
  422MOL0     C56889   0.029   0.631   6.452 -0.0309 -0.3552  1.1087
  422MOL0     C56890  -0.065   0.363   6.078  0.0549 -0.8721  0.9844
  422MOL0     C56891  -0.200   0.393   6.098 -0.3813  0.2578 -0.2674
  422MOL0     C56892  -0.301   0.331   6.021 -0.3892 -0.3664  1.2427
  422MOL0     C56893  -0.257   0.246   5.915  0.2454  0.0267 -0.5974
  422MOL0     O56894  -0.346   0.208   5.816 -0.7967  0.7228 -0.0198
  422MOL0     C56895  -0.477   0.264   5.817  0.6393 -0.7701 -0.1863
  422MOL0     C56896  -0.543   0.257   5.678 -1.2708 -0.2741 -0.2188
  422MOL0     C56897  -0.575   0.122   5.628  0.6414 -0.5271  0.2916
  422MOL0     C56898  -0.686   0.059   5.704  0.9717 -0.0298 -0.3693
  422MOL0     C56899  -0.753  -0.032   5.624  0.4957  0.2024  0.1709
  422MOL0     C56900  -0.804  -0.105   5.541 -0.4549  0.7848  0.2689
  422MOL0     C56901  -0.127   0.206   5.897  0.1208 -0.6961 -0.9160
  422MOL0     C56902  -0.033   0.259   5.988 -0.0388 -0.6736  0.3583
  422MOL0     H56903   0.203   0.660   6.158 -2.5433 -0.3839  0.2424
  422MOL0     H56904   0.320   0.837   6.285  0.3118  1.1693  0.9555
  422MOL0     H56905   0.383   1.001   6.406 -0.0926 -1.0495 -0.3899
  422MOL0     H56906   0.393   1.056   6.561 -2.4786  0.9567 -1.3244
  422MOL0     H56907   0.489   0.773   6.465 -1.5615 -0.2428  2.0806
  422MOL0     H56908   0.593   0.922   6.476 -2.4521  2.4980  0.1295
  422MOL0     H56909   0.679   0.791   6.642  0.8684  0.4247  1.4387
  422MOL0     H56910   0.576   0.911   6.720  1.9733 -1.7055  2.3523
  422MOL0     H56911   0.378   0.732   6.731 -0.7496 -0.0685  2.0409
  422MOL0     H56912   0.500   0.614   6.699 -0.5032 -0.3848  1.7538
  422MOL0     H56913   0.621   0.738   6.886 -0.0484 -0.9055 -0.2344
  422MOL0     H56914   0.452   0.813   6.919 -2.0187 -0.2013 -1.6813
  422MOL0     H56915   0.528   0.530   6.932  1.8781  1.4287  0.8276
  422MOL0     H56916   0.484   0.624   7.067 -1.5544 -1.5506  0.6305
  422MOL0     H56917   0.269   0.543   7.049  0.8645 -1.4720  0.2294
  422MOL0     H56918   0.258   0.675   6.930  0.8089  0.6440  1.5270
  422MOL0     H56919   0.345   0.378   6.864 -1.6490 -0.8282 -0.6531
  422MOL0     H56920   0.322   0.511   6.757  2.6723  1.1152  1.2760
  422MOL0     H56921   0.165   0.215   6.786  2.1404  1.1120 -1.7356
  422MOL0     H56922  -0.230   0.240   6.797  0.4440  0.3574 -0.4327
  422MOL0     H56923  -0.117   0.164   6.690  0.7083  0.3100  0.3230
  422MOL0     H56924  -0.061   0.147   6.985 -0.7919  2.2808 -1.6314
  422MOL0     H56925  -0.059   0.008   6.863  1.2177 -0.6091  1.5388
  422MOL0     H56926  -0.285  -0.027   6.884 -0.3182  2.1990 -1.5437
  422MOL0     H56927  -0.305   0.099   7.011  0.7636 -0.1715  2.4272
  422MOL0     H56928  -0.167  -0.012   7.161 -0.8414 -1.5979  0.5990
  422MOL0     H56929  -0.119  -0.143   7.061 -0.5250 -3.0526  2.1490
  422MOL0     H56930  -0.164  -0.282   6.913  0.9550  1.2418  0.4576
  422MOL0     H56931  -0.264  -0.524   6.684  0.1376  1.4645 -1.0663
  422MOL0     H56932  -0.148  -0.395   6.748  0.4061  0.0430  1.4633
  422MOL0     H56933  -0.140  -0.553   6.816 -1.7528 -0.1551  2.8535
  422MOL0     H56934  -0.818  -0.752   6.862 -1.6299 -1.0269 -1.2012
  422MOL0     H56935  -0.921  -0.949   6.825  0.0276 -0.6742 -0.2113
  422MOL0     H56936  -0.992  -1.178   6.889  2.3972  2.5199  0.8802
  422MOL0     H56937  -0.949  -1.175   6.712 -1.7649 -2.2037 -0.8530
  422MOL0     H56938  -0.891  -1.400   6.725  0.4108  2.6425  0.3114
  422MOL0     H56939  -0.965  -1.428   6.886  1.2946  0.6972  1.5363
  422MOL0     H56940  -1.097  -1.377   6.611  1.0336  3.7528  0.5533
  422MOL0     H56941  -1.163  -1.292   6.738  0.1914 -0.3423 -0.3846
  422MOL0     H56942  -1.230  -1.486   6.877  0.1498 -0.7268 -1.1780
  422MOL0     H56943  -1.290  -1.510   6.720  0.1234 -0.6850 -0.9477
  422MOL0     H56944  -1.189  -1.739   6.812  1.0660 -1.7693  0.9381
  422MOL0     H56945  -1.047  -1.642   6.844 -1.5074 -0.7870  1.6974
  422MOL0     H56946  -1.155  -1.671   6.567 -0.1020  1.9349  1.5063
  422MOL0     H56947  -0.988  -1.644   6.607  1.2414 -0.2465  2.4436
  422MOL0     H56948  -1.148  -1.895   6.669 -1.2427  1.9538  0.2706
  422MOL0     H56949  -0.976  -1.863   6.711  2.5554  2.6828 -0.0833
  422MOL0     H56950  -0.981  -2.015   6.520  3.5787  1.8241  2.7398
  422MOL0     H56951  -0.932  -1.871   6.456 -0.6688 -1.0479 -0.8494
  422MOL0     H56952  -0.551  -1.161   6.824 -3.1753 -1.5404 -1.3270
  422MOL0     H56953  -0.433  -0.944   6.866  0.2850 -0.1166  0.7929
  422MOL0     H56954  -0.602  -0.483   7.046  0.1788 -1.1164  3.1339
  422MOL0     H56955  -0.521  -0.285   7.158  1.4504  0.2720  1.1521
  422MOL0     H56956   0.060   0.776   6.615 -0.3248  0.8828  0.0920
  422MOL0     H56957  -0.060   0.583   6.490 -0.5214  2.0090  3.1805
  422MOL0     H56958  -0.222   0.469   6.172 -0.9150 -3.0904  3.3566
  422MOL0     H56959  -0.398   0.374   6.047  1.0055  3.3187  0.9571
  422MOL0     H56960  -0.541   0.215   5.890 -1.9059 -0.2020 -1.8773
  422MOL0     H56961  -0.480   0.369   5.847 -2.0128 -0.9816  0.6050
  422MOL0     H56962  -0.470   0.286   5.601 -1.6922 -0.2607 -0.6211
  422MOL0     H56963  -0.632   0.319   5.671 -1.0052 -0.0202 -1.8197
  422MOL0     H56964  -0.483   0.063   5.631  0.3879 -0.8833  1.7326
  422MOL0     H56965  -0.601   0.135   5.522  2.2640  2.7341  0.1668
  422MOL0     H56966  -0.758   0.136   5.734  0.1258 -1.5679  1.7952
  422MOL0     H56967  -0.644   0.013   5.794  0.0242 -1.5897 -0.7027
  422MOL0     H56968  -0.849  -0.171   5.470  1.6821 -2.3406  1.5901
  422MOL0     H56969  -0.108   0.128   5.825  4.0747  0.1502 -1.0340
  422MOL0     H56970   0.070   0.229   5.971 -0.2656 -0.3653 -1.8335
  423MOL0     O56971   9.742   8.453   6.325  0.3624 -0.2796 -0.7832
  423MOL0     C56972   9.794   8.343   6.323  0.2095 -0.1390  0.4409
  423MOL0     O56973   9.799   8.253   6.217  0.3491 -0.4726  0.1753
  423MOL0     C56974   9.724   8.309   6.111 -0.5352 -0.7304  0.6352
  423MOL0     C56975   9.589   8.308   6.098 -0.7830 -0.3942  0.7401
  423MOL0     C56976   9.517   8.367   5.988  0.5795  0.2612 -0.8978
  423MOL0     C56977   9.590   8.431   5.889  1.0542 -0.1206  0.0020
  423MOL0     O56978   9.522   8.499   5.794 -0.1036  0.0210  0.0956
  423MOL0     C56979   9.599   8.553   5.691  0.6273 -0.8061  0.8577
  423MOL0     C56980   9.508   8.638   5.593  0.2915 -0.1580 -0.3198
  423MOL0     C56981   9.541   8.615   5.444 -0.7777  1.4157  0.2901
  423MOL0     C56982   9.469   8.717   5.361 -0.1996 -0.0674 -1.0922
  423MOL0     C56983   9.510   8.712   5.219 -0.0379 -0.5666  0.8233
  423MOL0     C56984   9.490   8.575   5.152  0.3261 -0.6037 -0.4224
  423MOL0     C56985   9.502   8.571   5.008 -0.4832 -1.3779  1.6827
  423MOL0     C56986   9.410   8.670   4.933 -0.5513  0.5292 -0.3939
  423MOL0     N56987   9.267   8.630   4.947 -0.3294 -1.1602  0.5518
  423MOL0     C56988   9.177   8.592   4.854  1.0203 -1.1141  0.7471
  423MOL0     C56989   9.051   8.594   4.902 -0.7079 -0.3554 -0.5835
  423MOL0     C56990   8.925   8.577   4.827  0.5408 -0.5299  0.0837
  423MOL0     C56991   8.915   8.462   4.726  0.2546 -0.1037 -0.0616
  423MOL0     C56992   8.777   8.409   4.685  0.0290 -0.3206 -0.5942
  423MOL0     C56993   8.707   8.486   4.576  0.9471  0.2774 -0.2883
  423MOL0     O56994   8.573   8.440   4.563 -0.6352 -0.9949  0.8190
  423MOL0     C56995   8.542   8.408   4.442  1.0501 -0.2083  1.1368
  423MOL0     C56996   8.571   8.274   4.405  0.9721  0.3993 -0.8231
  423MOL0     C56997   8.539   8.229   4.275 -0.9497 -0.1748 -0.1155
  423MOL0     C56998   8.569   8.086   4.244  0.6136  0.7880 -0.1942
  423MOL0     C56999   8.472   8.313   4.185  0.8976 -0.0770  0.8947
  423MOL0     C57000   8.424   8.278   4.045  0.5294  1.3680 -0.3350
  423MOL0     O57001   8.298   8.297   4.017  0.5802  0.0935 -0.8550
  423MOL0     C57002   8.249   8.258   3.898  0.1901  0.2371 -0.5454
  423MOL0     C57003   8.204   8.350   3.800  0.1889  0.4309  0.0627
  423MOL0     C57004   8.137   8.296   3.691 -0.5340  0.1068 -0.1086
  423MOL0     C57005   8.132   8.166   3.660 -0.1585 -0.0044  0.7535
  423MOL0     O57006   8.078   8.133   3.537 -0.1323 -0.1485  0.6701
  423MOL0     C57007   7.979   8.030   3.537 -0.1909  0.1924 -0.4436
  423MOL0     C57008   8.022   7.915   3.445  1.3373  0.6608  0.6928
  423MOL0     C57009   7.915   7.802   3.426 -0.0836  0.2184  0.1717
  423MOL0     C57010   7.993   7.674   3.412  0.0674 -0.2760 -0.6069
  423MOL0     C57011   7.903   7.561   3.443  0.1844 -0.7547 -0.1153
  423MOL0     C57012   7.987   7.431   3.453  0.4005 -0.2034 -0.6816
  423MOL0     C57013   7.915   7.338   3.559 -0.0415 -0.2271 -0.4528
  423MOL0     C57014   7.943   7.186   3.539  0.0301 -0.6362 -0.3782
  423MOL0    Cl57015   7.876   7.096   3.677  0.1240  0.6784  0.5269
  423MOL0     C57016   8.182   8.073   3.755 -0.2159  0.5395 -0.2092
  423MOL0     C57017   8.219   8.123   3.884  0.0712 -0.2618  0.9985
  423MOL0     O57018   8.505   8.237   3.974 -0.0204 -0.0288  0.4222
  423MOL0     C57019   8.435   8.446   4.233  0.1353  0.1511 -0.3231
  423MOL0     C57020   8.467   8.486   4.360  0.0108 -0.2748  0.5719
  423MOL0     N57021   9.064   8.623   5.036  0.5217 -0.6026 -1.6636
  423MOL0     N57022   9.189   8.642   5.057 -0.0658 -0.7380  0.0990
  423MOL0     C57023   9.735   8.437   5.903  0.6788  0.0285  0.8267
  423MOL0     C57024   9.798   8.367   6.011 -0.6165  0.3268  0.2676
  423MOL0     C57025   9.877   8.303   6.439 -0.7620  0.4292  0.5342
  423MOL0     C57026   9.931   8.386   6.538 -0.5053 -0.2103  0.5422
  423MOL0     C57027  10.010   8.335   6.637 -0.5656  0.4112 -0.5415
  423MOL0     C57028  10.044   8.205   6.651  0.2032  0.5018  0.3062
  423MOL0     O57029  10.112   8.163   6.770 -0.1374 -0.4058 -0.3684
  423MOL0     C57030  10.133   8.025   6.777  0.1347  0.0681 -0.0820
  423MOL0     C57031  10.236   7.993   6.884  0.7290  0.8287 -0.7853
  423MOL0     C57032  10.154   7.997   7.014  0.2605  0.5184  0.5643
  423MOL0     C57033  10.103   8.134   7.061  0.5250 -0.8061  0.0488
  423MOL0     C57034  10.047   8.131   7.196  0.0578  0.7791 -0.6206
  423MOL0     C57035  10.007   8.142   7.307 -0.0339 -0.0827 -0.8130
  423MOL0     C57036  10.016   8.128   6.538  0.3996 -0.2869  0.1544
  423MOL0     C57037   9.943   8.169   6.433 -0.1208  0.5981  0.6186
  423MOL0     H57038   9.529   8.258   6.172 -0.5657 -0.5530  0.8115
  423MOL0     H57039   9.409   8.365   5.977  0.2742  0.2321  1.6379
  423MOL0     H57040   9.672   8.620   5.736 -0.4718 -1.1661  3.3140
  423MOL0     H57041   9.643   8.472   5.633  2.6141  2.4780 -2.6736
  423MOL0     H57042   9.404   8.615   5.617  0.6818  0.6901  2.6581
  423MOL0     H57043   9.509   8.745   5.616  0.1368  0.0433 -1.2154
  423MOL0     H57044   9.648   8.607   5.422 -1.3468  2.0953 -3.5142
  423MOL0     H57045   9.500   8.515   5.426 -0.6807  1.1926  1.2709
  423MOL0     H57046   9.360   8.710   5.372 -0.1026  1.4952  1.6638
  423MOL0     H57047   9.493   8.820   5.386 -1.9045  0.7707 -2.6426
  423MOL0     H57048   9.446   8.782   5.164 -2.1315 -2.8597  0.1281
  423MOL0     H57049   9.615   8.736   5.205  0.2849 -0.2884  3.1784
  423MOL0     H57050   9.574   8.514   5.189  1.2597  0.7627 -0.2220
  423MOL0     H57051   9.394   8.532   5.181 -0.0298 -0.9461 -2.0110
  423MOL0     H57052   9.604   8.597   4.979 -2.3941  3.9527 -1.5510
  423MOL0     H57053   9.477   8.474   4.964  1.1412 -0.5772 -1.2282
  423MOL0     H57054   9.444   8.678   4.829  0.0520  0.5606 -0.1982
  423MOL0     H57055   9.420   8.769   4.977 -0.9392 -0.5257  2.2777
  423MOL0     H57056   9.193   8.572   4.748  0.9557 -0.3505  0.5893
  423MOL0     H57057   8.850   8.561   4.905  1.6031  1.5776  1.6109
  423MOL0     H57058   8.902   8.665   4.767 -0.1997  0.2201  1.4282
  423MOL0     H57059   8.974   8.386   4.778 -1.2890 -0.2168  1.6246
  423MOL0     H57060   8.976   8.485   4.638  3.2646 -0.3657  1.8260
  423MOL0     H57061   8.705   8.397   4.767  1.0882  0.5624  0.5025
  423MOL0     H57062   8.786   8.310   4.639  2.5157 -1.5164  2.1748
  423MOL0     H57063   8.765   8.474   4.484  0.4810 -0.4422 -0.4985
  423MOL0     H57064   8.695   8.594   4.591 -1.5491 -0.1104  0.9221
  423MOL0     H57065   8.642   8.209   4.455  0.3401 -0.1992 -0.7011
  423MOL0     H57066   8.481   8.033   4.281  0.9892  0.5402  0.3614
  423MOL0     H57067   8.581   8.056   4.140  1.1085  0.7278 -0.1242
  423MOL0     H57068   8.654   8.044   4.299 -0.8068 -1.3211  0.5295
  423MOL0     H57069   8.206   8.454   3.829 -1.1224  0.4802  0.0232
  423MOL0     H57070   8.103   8.379   3.630  0.8887  0.4900 -0.4037
  423MOL0     H57071   7.954   7.988   3.635  2.7557  0.8096  0.6680
  423MOL0     H57072   7.886   8.077   3.504  0.0398  1.3313  0.4713
  423MOL0     H57073   8.043   7.944   3.341  0.1584 -0.7945  0.0126
  423MOL0     H57074   8.108   7.870   3.495 -0.4843 -3.9273  0.1947
  423MOL0     H57075   7.854   7.818   3.337  2.7493  0.1926 -1.8915
  423MOL0     H57076   7.861   7.796   3.521  2.1249 -0.5782  1.4412
  423MOL0     H57077   8.031   7.654   3.311 -0.1266  1.1552 -0.9859
  423MOL0     H57078   8.085   7.684   3.471  0.0699  0.1506 -0.6784
  423MOL0     H57079   7.828   7.535   3.367  0.2048 -3.5841  0.7096
  423MOL0     H57080   7.854   7.590   3.536  2.3377  0.6609  0.6606
  423MOL0     H57081   7.995   7.396   3.350  0.6953  1.2611 -1.1859
  423MOL0     H57082   8.092   7.442   3.480 -0.0879 -1.2575  1.9548
  423MOL0     H57083   7.808   7.355   3.545 -0.0225 -0.6765 -1.1875
  423MOL0     H57084   7.951   7.371   3.657 -0.6821 -0.1518 -0.2381
  423MOL0     H57085   8.051   7.172   3.533  0.1196 -0.9717  1.4440
  423MOL0     H57086   7.894   7.148   3.449  0.6617 -3.1214  0.2462
  423MOL0     H57087   8.182   7.966   3.738  4.3649  0.2418  0.4155
  423MOL0     H57088   8.249   8.058   3.966  0.2306 -0.4136  0.8201
  423MOL0     H57089   8.383   8.516   4.169 -0.1996  1.3139  1.1752
  423MOL0     H57090   8.444   8.589   4.388 -3.3865  0.5170 -3.9765
  423MOL0     H57091   9.800   8.486   5.831  1.2517 -1.6836  0.1278
  423MOL0     H57092   9.905   8.367   6.029 -0.8985  0.9059  2.1936
  423MOL0     H57093   9.901   8.489   6.550  0.6632  0.1829  0.2511
  423MOL0     H57094  10.019   8.407   6.718 -4.0297 -0.8188  1.1335
  423MOL0     H57095  10.048   7.962   6.806  1.7699 -1.2762  2.1104
  423MOL0     H57096  10.175   7.994   6.681 -0.4696 -2.1465  0.3000
  423MOL0     H57097  10.309   8.074   6.895  0.1038  1.3060 -0.0095
  423MOL0     H57098  10.284   7.895   6.876  0.8502  0.6697  1.2290
  423MOL0     H57099  10.219   7.955   7.092  1.2124  0.1432 -0.4051
  423MOL0     H57100  10.067   7.930   7.014  1.7833 -1.7395  3.7108
  423MOL0     H57101  10.020   8.160   6.995  2.9671  0.8114 -2.5808
  423MOL0     H57102  10.180   8.211   7.068 -1.0909  0.9768 -1.0918
  423MOL0     H57103   9.984   8.164   7.410  1.0811  0.6995 -0.7038
  423MOL0     H57104  10.047   8.024   6.544  1.4990 -0.1926 -2.4536
  423MOL0     H57105   9.921   8.090   6.362  1.9049 -1.3203  1.9779
  424MOL0     O57106   2.900   7.097   9.939  0.4725 -0.1046  0.2608
  424MOL0     C57107   2.982   7.014   9.988  1.0129 -0.0439  0.0338
  424MOL0     O57108   3.106   7.028  10.001  0.5408  0.2768 -0.4255
  424MOL0     C57109   3.166   7.140   9.945  0.0028 -0.3010 -0.1216
  424MOL0     C57110   3.269   7.118   9.846  0.0940  0.8409  0.0201
  424MOL0     C57111   3.342   7.219   9.793  0.3652 -0.3865 -0.1104
  424MOL0     C57112   3.315   7.350   9.824  0.1385 -0.3547 -0.3837
  424MOL0     O57113   3.389   7.456   9.780  0.0646  0.4159 -0.0898
  424MOL0     C57114   3.505   7.428   9.699 -0.2719 -1.3326  0.3321
  424MOL0     C57115   3.587   7.555   9.701  0.3420 -0.0413  0.6047
  424MOL0     C57116   3.501   7.677   9.646 -0.3361  0.4714  0.3028
  424MOL0     C57117   3.587   7.803   9.652  0.4121  0.5028 -0.2422
  424MOL0     C57118   3.550   7.908   9.543 -0.0234 -0.0012  0.0256
  424MOL0     C57119   3.404   7.947   9.538  0.2738 -0.0236 -0.4778
  424MOL0     C57120   3.381   8.070   9.446 -0.4275  0.7523 -0.5690
  424MOL0     C57121   3.250   8.138   9.438 -0.1674  0.3084 -0.7198
  424MOL0     N57122   3.137   8.059   9.394 -0.6407 -0.3885 -0.1458
  424MOL0     C57123   3.124   8.023   9.260 -0.3009  0.1043  0.0578
  424MOL0     C57124   3.031   7.922   9.267  0.0473 -0.5153  0.2131
  424MOL0     C57125   2.982   7.828   9.157 -0.3170  0.4467  0.5686
  424MOL0     C57126   3.104   7.724   9.134  0.1470 -0.3954  0.5877
  424MOL0     C57127   3.089   7.644   9.003 -0.2681 -0.2103 -1.2534
  424MOL0     C57128   3.171   7.512   9.001  0.9847 -0.7480 -0.0093
  424MOL0     O57129   3.157   7.454   9.141 -0.0379  0.1163  0.5723
  424MOL0     C57130   3.281   7.427   9.204 -0.4328 -0.4725 -0.5017
  424MOL0     C57131   3.389   7.518   9.203  0.7538 -0.0548 -0.9975
  424MOL0     C57132   3.511   7.486   9.260 -0.4202 -0.0321 -0.5612
  424MOL0     C57133   3.622   7.583   9.257 -0.6777  0.2144 -0.6276
  424MOL0     C57134   3.529   7.355   9.322 -0.2763  0.5481  1.3584
  424MOL0     C57135   3.649   7.303   9.384  0.4562 -0.6942 -0.1712
  424MOL0     O57136   3.645   7.229   9.501  0.0318  0.4418  0.3603
  424MOL0     C57137   3.747   7.136   9.519  0.7721 -0.2046  0.3515
  424MOL0     C57138   3.855   7.177   9.599 -0.0762  0.0650 -0.8934
  424MOL0     C57139   3.955   7.087   9.632 -0.3691  0.3372 -0.3786
  424MOL0     C57140   3.951   6.957   9.575  0.2311 -0.8979 -0.0869
  424MOL0     O57141   4.054   6.877   9.621 -0.4182  0.8283  0.7560
  424MOL0     C57142   4.077   6.746   9.566 -0.4131 -0.2748 -0.4963
  424MOL0     C57143   4.175   6.673   9.667 -0.3337  0.0365  0.2553
  424MOL0     C57144   4.114   6.657   9.808 -0.7463 -0.2178  0.4802
  424MOL0     C57145   3.976   6.589   9.821  0.7891  0.8817 -0.2517
  424MOL0     C57146   3.914   6.596   9.961  0.2382 -0.8024  0.1641
  424MOL0     C57147   3.986   6.496  10.051 -0.0562 -0.4341 -1.4570
  424MOL0     C57148   3.922   6.487  10.192 -1.1049  0.8122  0.4705
  424MOL0     C57149   3.919   6.617  10.265  0.1290 -1.0493  0.2491
  424MOL0    Cl57150   3.773   6.714  10.222 -0.0672  0.1317 -0.0581
  424MOL0     C57151   3.845   6.915   9.494  0.1737  0.4746 -0.1537
  424MOL0     C57152   3.739   7.004   9.477  0.0003  0.7778 -0.1207
  424MOL0     O57153   3.749   7.316   9.318 -1.1913 -0.1357  0.0724
  424MOL0     C57154   3.418   7.269   9.327 -0.1679  0.8545 -0.3272
  424MOL0     C57155   3.296   7.311   9.269  0.3043  0.0952 -0.9277
  424MOL0     N57156   2.992   7.918   9.405 -0.3333  0.7358 -0.6989
  424MOL0     N57157   3.051   7.995   9.479 -0.3914 -0.3538 -0.8440
  424MOL0     C57158   3.216   7.378   9.920 -0.2735 -0.0124 -0.0202
  424MOL0     C57159   3.144   7.272   9.994 -0.4043 -0.0377  0.2233
  424MOL0     C57160   2.924   6.881  10.032 -0.3480 -0.8100  0.5571
  424MOL0     C57161   2.998   6.763  10.064  0.0843  0.8650 -0.6859
  424MOL0     C57162   2.926   6.651  10.112 -0.1401 -0.6010  0.3797
  424MOL0     C57163   2.789   6.653  10.121 -0.0852 -0.6855  0.6148
  424MOL0     O57164   2.710   6.550  10.160 -0.1763  0.0895 -0.4216
  424MOL0     C57165   2.765   6.425  10.210 -0.6785 -0.8846 -0.0715
  424MOL0     C57166   2.803   6.315  10.102  0.0898  0.1470  0.4265
  424MOL0     C57167   2.894   6.201  10.153  0.2373 -0.4179  0.9964
  424MOL0     C57168   2.844   6.119  10.268  0.2186 -1.2998 -0.5603
  424MOL0     C57169   2.947   6.022  10.305  0.0538  0.0430 -0.6402
  424MOL0     C57170   3.048   5.961  10.308 -0.4035  0.2604  0.3330
  424MOL0     C57171   2.715   6.766  10.094 -0.3370 -0.1555  0.2175
  424MOL0     C57172   2.778   6.880  10.056  0.4345  0.0266 -0.2044
  424MOL0     H57173   3.306   7.018   9.829  1.8880  1.4906 -0.0556
  424MOL0     H57174   3.432   7.199   9.735 -0.4156 -2.3884 -0.7405
  424MOL0     H57175   3.579   7.361   9.743  2.4677  3.3173  3.6211
  424MOL0     H57176   3.474   7.410   9.595 -3.0851  1.9002  0.4444
  424MOL0     H57177   3.624   7.569   9.803  2.4402  0.5673 -0.1782
  424MOL0     H57178   3.673   7.540   9.634 -0.9052 -3.2254 -0.5117
  424MOL0     H57179   3.474   7.662   9.541  1.3259  0.2534 -0.1218
  424MOL0     H57180   3.413   7.686   9.709 -0.5944 -1.8164  0.3515
  424MOL0     H57181   3.594   7.848   9.752  3.3082  2.5827 -1.2505
  424MOL0     H57182   3.691   7.783   9.625  1.4535 -0.2207  3.7230
  424MOL0     H57183   3.617   7.994   9.537  0.9238 -0.7923 -1.4652
  424MOL0     H57184   3.559   7.876   9.439  0.2740  1.1997 -0.3408
  424MOL0     H57185   3.333   7.866   9.520 -2.5581  2.7159 -2.4964
  424MOL0     H57186   3.377   7.978   9.640  5.1944 -1.4462  1.5966
  424MOL0     H57187   3.454   8.148   9.472  0.3726 -0.2591  0.3072
  424MOL0     H57188   3.398   8.041   9.342  0.5537 -2.1478  0.3108
  424MOL0     H57189   3.261   8.220   9.365 -2.2849  1.8046  0.5279
  424MOL0     H57190   3.224   8.180   9.535 -1.3434  0.5082 -1.1015
  424MOL0     H57191   3.178   8.073   9.180 -2.0578 -0.4091 -1.5045
  424MOL0     H57192   2.887   7.778   9.175 -0.6920  1.1375  0.5667
  424MOL0     H57193   2.946   7.886   9.071 -3.1873 -0.2094  1.2223
  424MOL0     H57194   3.102   7.673   9.230 -1.3460  0.6002  1.1156
  424MOL0     H57195   3.195   7.780   9.113 -1.0152  0.8180 -1.6217
  424MOL0     H57196   3.119   7.706   8.919  0.5065 -0.1434 -0.9405
  424MOL0     H57197   2.984   7.616   8.992 -1.2479  3.3197 -2.1005
  424MOL0     H57198   3.274   7.530   8.971 -0.0600  1.6071 -2.6065
  424MOL0     H57199   3.119   7.453   8.924 -3.2413  1.7956  0.5331
  424MOL0     H57200   3.381   7.619   9.164  0.0891  0.7869  1.1720
  424MOL0     H57201   3.666   7.593   9.357  0.8660 -1.9390 -0.9937
  424MOL0     H57202   3.706   7.540   9.200 -0.1591  0.9777 -0.4425
  424MOL0     H57203   3.595   7.685   9.228 -1.0732 -0.2502 -1.9769
  424MOL0     H57204   3.872   7.282   9.621  1.3298 -0.0205 -1.5339
  424MOL0     H57205   4.028   7.114   9.707  0.4899 -2.9637  0.1113
  424MOL0     H57206   3.978   6.701   9.551 -0.6785 -0.5898  1.8121
  424MOL0     H57207   4.108   6.754   9.461  1.2521  0.8134  0.0500
  424MOL0     H57208   4.208   6.572   9.641  2.9006  1.1219 -0.3239
  424MOL0     H57209   4.272   6.723   9.674 -0.4312  0.0439  2.0537
  424MOL0     H57210   4.126   6.756   9.853  0.9895  0.6148 -1.6247
  424MOL0     H57211   4.177   6.582   9.857 -0.1217 -0.0032  0.0226
  424MOL0     H57212   3.905   6.663   9.783 -1.0790 -0.7134 -0.0845
  424MOL0     H57213   3.960   6.492   9.771  1.5097 -0.6367  2.3021
  424MOL0     H57214   3.807   6.577   9.963  0.1461 -0.2472  0.5602
  424MOL0     H57215   3.944   6.694  10.000 -2.7094  0.5104 -0.6235
  424MOL0     H57216   3.987   6.401   9.997 -1.8233 -0.0549 -2.2366
  424MOL0     H57217   4.091   6.521  10.068  1.0277 -5.0722  0.2937
  424MOL0     H57218   3.977   6.415  10.252 -0.9220  0.3939 -0.1921
  424MOL0     H57219   3.822   6.444  10.182 -1.2034  1.2802 -0.8483
  424MOL0     H57220   4.008   6.677  10.247  0.1763 -0.3100  2.6142
  424MOL0     H57221   3.932   6.605  10.373 -0.4118 -0.1013  0.4349
  424MOL0     H57222   3.854   6.821   9.439  0.2162  1.7842 -2.5246
  424MOL0     H57223   3.649   6.967   9.428  0.0946 -1.8938  1.5592
  424MOL0     H57224   3.431   7.175   9.380  0.3389  2.6569  3.0051
  424MOL0     H57225   3.210   7.245   9.278  2.7219 -3.2930 -0.8025
  424MOL0     H57226   3.189   7.476   9.956  1.1550  0.7188 -0.8734
  424MOL0     H57227   3.082   7.279  10.082 -2.8894  1.8922 -1.5186
  424MOL0     H57228   3.107   6.757  10.059  0.0643 -2.2477  0.3648
  424MOL0     H57229   2.988   6.564  10.126  2.7074  1.4488  1.4574
  424MOL0     H57230   2.843   6.460  10.277 -1.6300  1.5268 -0.1433
  424MOL0     H57231   2.695   6.381  10.282 -0.8405  2.7761  2.2114
  424MOL0     H57232   2.862   6.369  10.027 -0.0867  1.1425  0.9854
  424MOL0     H57233   2.711   6.266  10.071  0.9770 -3.9955  3.4839
  424MOL0     H57234   2.984   6.245  10.198  1.1560 -1.9030  0.6972
  424MOL0     H57235   2.933   6.148  10.066 -0.5704  0.9733 -0.2661
  424MOL0     H57236   2.748   6.074  10.241 -0.2988 -0.7719  0.3561
  424MOL0     H57237   2.820   6.186  10.351 -3.3737  0.0418 -2.4718
  424MOL0     H57238   3.141   5.908  10.310 -0.0654  0.6427 -2.1903
  424MOL0     H57239   2.609   6.768  10.119 -0.1564  0.4919  0.9660
  424MOL0     H57240   2.718   6.965  10.026  0.7794 -0.4298 -2.3299
  425MOL0     O57241   4.612   7.668   8.768 -0.0528  0.9324 -0.0034
  425MOL0     C57242   4.538   7.734   8.707 -1.4342  0.0760 -0.4826
  425MOL0     O57243   4.570   7.849   8.647  0.2282 -0.6078  0.0811
  425MOL0     C57244   4.703   7.891   8.650  1.1265 -0.0249 -0.4945
  425MOL0     C57245   4.724   8.030   8.648 -0.1764 -0.2566  0.9255
  425MOL0     C57246   4.853   8.088   8.643  0.5353  1.4076  1.0319
  425MOL0     C57247   4.970   8.016   8.644  0.0218  0.4013 -0.2687
  425MOL0     O57248   5.092   8.073   8.627  0.2725  0.0234  0.4633
  425MOL0     C57249   5.176   8.069   8.742 -0.8234  0.5225  0.7123
  425MOL0     C57250   5.251   8.198   8.757  0.7259  0.2147 -0.3263
  425MOL0     C57251   5.360   8.216   8.648  0.0113 -0.0468 -0.3917
  425MOL0     C57252   5.470   8.301   8.689  0.0439 -1.3141  0.5077
  425MOL0     C57253   5.436   8.451   8.684 -0.1943 -0.3481 -0.2313
  425MOL0     C57254   5.542   8.527   8.753 -0.4572 -0.9618  0.3493
  425MOL0     C57255   5.530   8.522   8.905  0.8801 -0.3636  0.4389
  425MOL0     C57256   5.397   8.585   8.962 -0.1724  0.3640  0.1124
  425MOL0     N57257   5.413   8.608   9.104 -0.3335  0.3874 -0.2757
  425MOL0     C57258   5.467   8.723   9.159 -0.2430 -0.1259  0.4465
  425MOL0     C57259   5.456   8.695   9.291 -1.5767  0.2533 -0.0706
  425MOL0     C57260   5.523   8.765   9.406 -1.2367  0.7892 -0.4138
  425MOL0     C57261   5.680   8.736   9.420 -0.1214  0.3408 -0.3032
  425MOL0     C57262   5.743   8.842   9.507  0.4070 -0.7965  0.1436
  425MOL0     C57263   5.897   8.826   9.504  0.4171  0.3773  0.1297
  425MOL0     O57264   5.929   8.722   9.586  0.4747  0.2852  0.2722
  425MOL0     C57265   6.061   8.690   9.617 -0.3614 -0.7594 -0.3383
  425MOL0     C57266   6.088   8.574   9.695  0.5237  0.1369 -0.2117
  425MOL0     C57267   6.219   8.521   9.711  0.0508 -0.1048  0.3947
  425MOL0     C57268   6.230   8.400   9.801 -0.6846  0.4513 -0.3089
  425MOL0     C57269   6.330   8.586   9.651  0.5278 -0.5624  0.2734
  425MOL0     C57270   6.469   8.532   9.664  0.5237 -0.4175 -0.3072
  425MOL0     O57271   6.550   8.545   9.555  0.7625 -0.8020 -0.1629
  425MOL0     C57272   6.683   8.524   9.572 -1.2052 -0.0912 -0.5164
  425MOL0     C57273   6.774   8.624   9.577  0.3513 -0.9207  1.2074
  425MOL0     C57274   6.903   8.596   9.603  0.0389 -0.5890 -0.7292
  425MOL0     C57275   6.947   8.462   9.632 -0.1572  0.7661  0.2343
  425MOL0     O57276   7.068   8.437   9.673 -0.1117  0.1233  0.4706
  425MOL0     C57277   7.176   8.399   9.582  0.1973 -0.0831 -0.2146
  425MOL0     C57278   7.310   8.396   9.647  0.9701 -0.5938 -0.8424
  425MOL0     C57279   7.364   8.516   9.711  0.3767 -0.4095  0.0636
  425MOL0     C57280   7.507   8.504   9.758  1.2633  1.2068 -0.7018
  425MOL0     C57281   7.621   8.502   9.659 -0.4929 -0.6680 -0.1471
  425MOL0     C57282   7.747   8.505   9.740 -0.9710  0.8117  0.5718
  425MOL0     C57283   7.856   8.462   9.648  0.1332  0.5115  0.8337
  425MOL0     C57284   7.995   8.512   9.680 -0.3935  0.0721 -0.4743
  425MOL0    Cl57285   7.998   8.697   9.682 -0.0859  0.0967  0.5059
  425MOL0     C57286   6.851   8.361   9.630 -1.1561 -0.0755  0.3415
  425MOL0     C57287   6.725   8.391   9.585  0.2555 -0.5803  0.2965
  425MOL0     O57288   6.507   8.498   9.775 -0.1457  0.7976  0.3920
  425MOL0     C57289   6.304   8.694   9.568  0.0297 -0.1181  0.2318
  425MOL0     C57290   6.170   8.746   9.552 -0.2482 -0.7154  1.1649
  425MOL0     N57291   5.411   8.561   9.309  0.8775 -0.4525 -0.1676
  425MOL0     N57292   5.385   8.514   9.200 -0.2049  0.8044  0.7940
  425MOL0     C57293   4.949   7.875   8.643 -1.0719  0.3585  0.0887
  425MOL0     C57294   4.821   7.810   8.636  0.1537 -0.5142  0.2395
  425MOL0     C57295   4.400   7.682   8.695  1.2574  0.0044  1.0339
  425MOL0     C57296   4.305   7.758   8.639  0.1874 -0.1962  0.9577
  425MOL0     C57297   4.174   7.711   8.614  0.4218  0.2279 -0.5323
  425MOL0     C57298   4.139   7.587   8.657  0.0616 -0.1467 -0.5072
  425MOL0     O57299   4.014   7.539   8.628  0.8138 -0.2522  0.1990
  425MOL0     C57300   3.932   7.607   8.533  1.2798 -0.1813  0.0936
  425MOL0     C57301   3.820   7.507   8.507  0.8570 -0.7278 -0.0646
  425MOL0     C57302   3.702   7.566   8.435 -0.2138 -0.4912  0.5839
  425MOL0     C57303   3.571   7.477   8.433  0.3368  0.9494 -0.1653
  425MOL0     C57304   3.594   7.361   8.354 -0.8937  0.0836 -0.2205
  425MOL0     C57305   3.630   7.265   8.285  0.3621  0.3756 -0.6735
  425MOL0     C57306   4.231   7.510   8.725 -0.9804  0.9379  1.2201
  425MOL0     C57307   4.366   7.552   8.742  0.2594 -0.0835 -0.0140
  425MOL0     H57308   4.635   8.092   8.654 -0.1683  0.8754 -4.9921
  425MOL0     H57309   4.854   8.196   8.640 -1.4143  1.4473 -1.3007
  425MOL0     H57310   5.114   8.048   8.829 -1.6779  0.1899  0.0430
  425MOL0     H57311   5.250   7.989   8.739  0.7326  1.8317  2.2717
  425MOL0     H57312   5.190   8.288   8.758 -1.0055 -0.9125  0.2723
  425MOL0     H57313   5.300   8.176   8.852 -1.7965 -1.2361  0.7236
  425MOL0     H57314   5.395   8.118   8.613 -0.4947 -0.1371 -0.6554
  425MOL0     H57315   5.314   8.258   8.558  1.0479  2.4598  0.1600
  425MOL0     H57316   5.495   8.269   8.790  0.0676  0.6948  1.1675
  425MOL0     H57317   5.550   8.284   8.617 -1.2814 -1.5429 -0.9840
  425MOL0     H57318   5.432   8.482   8.579 -0.4221 -0.3419 -0.2211
  425MOL0     H57319   5.338   8.469   8.728 -0.4255 -0.3504 -0.7335
  425MOL0     H57320   5.640   8.488   8.724 -0.4532  0.1542 -1.2983
  425MOL0     H57321   5.530   8.626   8.708 -0.9224 -2.1536 -2.3309
  425MOL0     H57322   5.536   8.422   8.948  0.8238  0.2818  2.0014
  425MOL0     H57323   5.617   8.572   8.948  0.1088  0.9324  0.5544
  425MOL0     H57324   5.318   8.512   8.943 -1.2469  1.9125 -1.5999
  425MOL0     H57325   5.363   8.677   8.914 -1.8587  0.7342  1.8852
  425MOL0     H57326   5.524   8.805   9.117  1.9528 -0.9608  1.6414
  425MOL0     H57327   5.517   8.874   9.394  2.3836  1.0633 -0.9899
  425MOL0     H57328   5.486   8.745   9.507  0.9188  2.6475  0.8771
  425MOL0     H57329   5.725   8.738   9.320  1.8126 -0.5306  0.5042
  425MOL0     H57330   5.696   8.639   9.469 -1.7964  1.6527  3.1355
  425MOL0     H57331   5.704   8.834   9.609 -3.3315 -3.0258 -1.2673
  425MOL0     H57332   5.735   8.944   9.469  1.5106 -0.6229  0.3401
  425MOL0     H57333   5.933   8.924   9.535 -3.3641  2.3670 -1.1319
  425MOL0     H57334   5.931   8.809   9.402 -1.8920  0.0719 -0.6402
  425MOL0     H57335   6.000   8.535   9.744 -0.2444  1.5381 -0.4326
  425MOL0     H57336   6.139   8.340   9.794  0.8664 -1.8945 -1.8098
  425MOL0     H57337   6.304   8.339   9.748 -0.8749 -1.3474  1.3846
  425MOL0     H57338   6.254   8.438   9.901 -3.7192  2.4843 -0.2283
  425MOL0     H57339   6.737   8.724   9.558 -1.3967 -1.9561 -1.1937
  425MOL0     H57340   6.982   8.669   9.590  1.2750 -1.6212  0.6376
  425MOL0     H57341   7.158   8.304   9.531  5.0267 -1.9476  1.0194
  425MOL0     H57342   7.180   8.478   9.506 -0.4888  0.9617  0.7916
  425MOL0     H57343   7.302   8.305   9.708 -2.9645 -1.3063 -2.0847
  425MOL0     H57344   7.386   8.366   9.574  3.0386 -0.4805  1.1585
  425MOL0     H57345   7.301   8.532   9.800  0.2683  2.1342 -0.3764
  425MOL0     H57346   7.340   8.600   9.645 -4.0203 -1.0598  0.4890
  425MOL0     H57347   7.510   8.597   9.816 -0.6819  1.6959 -1.2890
  425MOL0     H57348   7.517   8.419   9.825 -0.2738  1.1699 -0.4740
  425MOL0     H57349   7.619   8.590   9.594 -3.4187 -0.7337 -0.2612
  425MOL0     H57350   7.626   8.418   9.589 -0.8315  0.1466 -1.1745
  425MOL0     H57351   7.757   8.600   9.794 -2.4029  0.9084  0.6957
  425MOL0     H57352   7.751   8.431   9.820  2.4140  0.0847 -0.0983
  425MOL0     H57353   7.841   8.502   9.547  3.9444 -0.4641 -0.2777
  425MOL0     H57354   7.855   8.353   9.658  0.1091  0.6869  3.4407
  425MOL0     H57355   8.065   8.486   9.599 -1.7383 -0.5860 -1.4624
  425MOL0     H57356   8.042   8.462   9.765  0.5470  1.9735  0.1625
  425MOL0     H57357   6.881   8.262   9.664  0.3395  0.3757  0.3859
  425MOL0     H57358   6.650   8.314   9.594  2.0464 -2.6418 -1.5088
  425MOL0     H57359   6.387   8.724   9.505  1.2478 -1.4071  1.1532
  425MOL0     H57360   6.154   8.813   9.468  0.2244 -2.7441 -0.6262
  425MOL0     H57361   5.035   7.810   8.642 -0.6421  0.8032  2.2664
  425MOL0     H57362   4.810   7.704   8.652  3.7859 -1.6270 -3.1737
  425MOL0     H57363   4.322   7.855   8.593 -2.7655  0.4308  0.9888
  425MOL0     H57364   4.110   7.774   8.554  0.0675  0.2929 -0.0970
  425MOL0     H57365   3.899   7.705   8.569 -1.0177 -0.6869 -0.4873
  425MOL0     H57366   3.976   7.627   8.435 -1.2477  0.3481 -1.0243
  425MOL0     H57367   3.780   7.487   8.607  0.5246  3.0807  0.7088
  425MOL0     H57368   3.862   7.422   8.451  0.9653 -0.1832 -0.8209
  425MOL0     H57369   3.720   7.599   8.333 -0.6600 -1.0202  0.3280
  425MOL0     H57370   3.667   7.654   8.491 -1.4543  0.9328 -2.2453
  425MOL0     H57371   3.497   7.544   8.388  1.5896  1.7064 -1.1941
  425MOL0     H57372   3.537   7.447   8.533  0.2228  0.5773 -0.3145
  425MOL0     H57373   3.647   7.170   8.238  0.7911  0.4925 -0.7551
  425MOL0     H57374   4.188   7.416   8.757 -1.5055  1.0526  0.8522
  425MOL0     H57375   4.434   7.478   8.782 -0.3794 -1.4923 -1.4413
  426MOL0     O57376   3.123  10.266   6.442  0.1780 -0.2280  0.3128
  426MOL0     C57377   3.199  10.294   6.344 -0.1089  0.5788 -0.4216
  426MOL0     O57378   3.197  10.410   6.276  0.5114 -0.3662  0.2901
  426MOL0     C57379   3.070  10.466   6.245  0.2457 -0.1471 -0.4609
  426MOL0     C57380   2.939  10.417   6.285 -0.6403 -0.6328  0.6861
  426MOL0     C57381   2.831  10.494   6.271  0.7394 -1.0908  0.4235
  426MOL0     C57382   2.834  10.610   6.186 -0.1782 -0.9336 -0.3755
  426MOL0     O57383   2.735  10.707   6.181 -0.3465 -0.4609 -1.1202
  426MOL0     C57384   2.628  10.690   6.086 -0.3044  0.1606 -0.9861
  426MOL0     C57385   2.500  10.635   6.155 -0.2159 -0.0115 -0.5295
  426MOL0     C57386   2.417  10.736   6.236 -0.7011 -0.1035  0.5699
  426MOL0     C57387   2.504  10.833   6.320 -0.2791 -0.2611 -0.1111
  426MOL0     C57388   2.420  10.921   6.411  0.2035 -0.7766 -0.0387
  426MOL0     C57389   2.506  11.008   6.508 -0.7837 -0.1012  0.2842
  426MOL0     C57390   2.433  11.142   6.528  0.0788  0.3562 -0.1207
  426MOL0     C57391   2.497  11.212   6.646  0.6148 -0.5619 -0.0399
  426MOL0     N57392   2.413  11.332   6.683 -0.1007  0.7554  0.5736
  426MOL0     C57393   2.439  11.455   6.626  1.2368  0.0748  0.2534
  426MOL0     C57394   2.328  11.530   6.652 -0.1800  0.3846 -0.3648
  426MOL0     C57395   2.291  11.664   6.598 -0.6088 -0.1206 -0.3933
  426MOL0     C57396   2.377  11.718   6.477  0.7649  0.2595  0.3545
  426MOL0     C57397   2.512  11.797   6.502  0.3424 -0.5214 -0.0383
  426MOL0     C57398   2.480  11.928   6.571  0.8483 -0.3608  0.1784
  426MOL0     O57399   2.430  11.908   6.703 -0.0638  0.3002 -0.4141
  426MOL0     C57400   2.516  11.871   6.802  0.1341  0.1435  0.1448
  426MOL0     C57401   2.649  11.923   6.814 -0.0042  0.6781  0.8346
  426MOL0     C57402   2.723  11.928   6.934  1.5908  0.2762 -0.8050
  426MOL0     C57403   2.849  11.996   6.942 -0.6732  0.1338  0.1774
  426MOL0     C57404   2.672  11.859   7.048 -0.5683  1.2741  0.0468
  426MOL0     C57405   2.733  11.844   7.180  0.0112 -1.1785  0.2927
  426MOL0     O57406   2.676  11.744   7.258 -0.1784  0.7068  0.4715
  426MOL0     C57407   2.755  11.701   7.375  0.4533 -0.0611  0.8142
  426MOL0     C57408   2.743  11.565   7.406  0.6340 -0.2768 -0.4158
  426MOL0     C57409   2.830  11.522   7.506 -0.6789  0.3390  0.0361
  426MOL0     C57410   2.913  11.603   7.576 -0.3727  0.4513  0.4598
  426MOL0     O57411   3.004  11.549   7.658  0.1362  0.0940 -0.2394
  426MOL0     C57412   3.105  11.472   7.597 -0.5962 -0.0290 -0.8832
  426MOL0     C57413   3.223  11.480   7.687 -0.6301  0.2203  0.0182
  426MOL0     C57414   3.350  11.467   7.613  0.4608 -0.5050  0.0238
  426MOL0     C57415   3.468  11.512   7.689 -0.0719  1.6065 -0.5448
  426MOL0     C57416   3.595  11.528   7.599 -0.3651  0.2582 -0.5990
  426MOL0     C57417   3.723  11.541   7.670  0.4276 -0.4190  0.1355
  426MOL0     C57418   3.834  11.595   7.577  0.2651  1.6383  0.6291
  426MOL0     C57419   3.951  11.643   7.651  0.8459  0.3944  0.0018
  426MOL0    Cl57420   4.084  11.649   7.536 -0.3817  0.0454 -0.3776
  426MOL0     C57421   2.906  11.743   7.556  0.1693 -0.3717  1.2239
  426MOL0     C57422   2.825  11.789   7.455  1.1228  0.2752 -0.0803
  426MOL0     O57423   2.839  11.897   7.200 -0.2758 -0.1346 -1.3154
  426MOL0     C57424   2.549  11.791   7.029 -0.4168 -0.1034  0.0631
  426MOL0     C57425   2.463  11.810   6.913 -0.3192 -0.0735  0.0831
  426MOL0     N57426   2.241  11.453   6.722 -0.5178  0.7304  0.2345
  426MOL0     N57427   2.296  11.335   6.744 -0.2436  0.7891  0.1917
  426MOL0     C57428   2.959  10.657   6.135 -0.7785 -0.3648 -1.1103
  426MOL0     C57429   3.077  10.599   6.171 -0.0522  0.7771  0.1070
  426MOL0     C57430   3.313  10.212   6.322 -0.4778 -0.5377 -0.1072
  426MOL0     C57431   3.407  10.245   6.217 -0.1005  0.2687  0.2303
  426MOL0     C57432   3.526  10.159   6.198 -0.9765 -0.4672  0.2927
  426MOL0     C57433   3.532  10.047   6.273 -0.6436 -0.2350  0.6936
  426MOL0     O57434   3.640   9.962   6.252  0.3492  0.6002 -1.4415
  426MOL0     C57435   3.762  10.014   6.310  0.0198 -0.1277 -0.5577
  426MOL0     C57436   3.864   9.901   6.308  0.3465  0.4100 -0.2907
  426MOL0     C57437   3.824   9.797   6.408 -0.1227  0.9147 -0.2738
  426MOL0     C57438   3.933   9.693   6.432 -0.4249  0.3634  0.2355
  426MOL0     C57439   3.873   9.563   6.404 -0.2379  0.5617  0.0399
  426MOL0     C57440   3.827   9.452   6.379  0.2448 -0.5327 -0.2026
  426MOL0     C57441   3.431  10.011   6.353 -0.1580  0.1952 -0.2027
  426MOL0     C57442   3.329  10.093   6.386  0.1490  1.4396  0.1927
  426MOL0     H57443   2.922  10.321   6.332  0.9452 -2.2044 -1.7154
  426MOL0     H57444   2.733  10.470   6.312  0.6134 -0.7157  0.3464
  426MOL0     H57445   2.610  10.791   6.048  0.6707  0.8822  0.3756
  426MOL0     H57446   2.657  10.621   6.007  2.9071 -2.3284  2.0485
  426MOL0     H57447   2.430  10.612   6.074 -0.4245  1.3042 -0.7556
  426MOL0     H57448   2.523  10.544   6.211  1.4297  0.0574 -1.0379
  426MOL0     H57449   2.348  10.791   6.172 -1.9944 -2.1285  0.1390
  426MOL0     H57450   2.349  10.676   6.297  0.6048  1.1840  3.5268
  426MOL0     H57451   2.579  10.771   6.371 -0.4963 -0.4801 -0.0534
  426MOL0     H57452   2.560  10.900   6.255  1.6686  0.5292  2.2151
  426MOL0     H57453   2.349  10.980   6.352  0.8385  3.6019  3.0919
  426MOL0     H57454   2.357  10.867   6.483 -3.7407 -0.5467 -2.9841
  426MOL0     H57455   2.511  10.944   6.596 -5.6143 -0.9317  0.2116
  426MOL0     H57456   2.601  11.037   6.462 -1.6418  0.4631 -1.2262
  426MOL0     H57457   2.443  11.205   6.439 -0.0884 -2.0517 -1.9615
  426MOL0     H57458   2.332  11.118   6.563  0.1899 -2.0920 -1.2549
  426MOL0     H57459   2.599  11.247   6.627  0.8170 -1.2496 -0.2322
  426MOL0     H57460   2.498  11.140   6.728 -1.5719  1.6731  2.1386
  426MOL0     H57461   2.518  11.484   6.557  1.3680  2.0885  1.1992
  426MOL0     H57462   2.185  11.659   6.572 -0.6328 -1.6532 -0.0720
  426MOL0     H57463   2.292  11.723   6.691  1.9742  0.9256 -0.9962
  426MOL0     H57464   2.321  11.795   6.424  1.6254  1.7242  1.4729
  426MOL0     H57465   2.410  11.637   6.412  2.7527 -0.6654  2.3905
  426MOL0     H57466   2.545  11.823   6.401 -4.2261  2.3358 -1.1237
  426MOL0     H57467   2.580  11.740   6.566 -1.4196  0.7980  3.2409
  426MOL0     H57468   2.399  11.960   6.505  1.7079 -1.1405 -1.3253
  426MOL0     H57469   2.562  11.999   6.562 -1.6309  2.8613  1.2442
  426MOL0     H57470   2.685  11.980   6.728 -2.2521 -1.1736 -1.5083
  426MOL0     H57471   2.929  11.923   6.958 -1.6507 -1.5539 -2.0520
  426MOL0     H57472   2.886  12.026   6.843  4.2526  1.0651  1.9832
  426MOL0     H57473   2.835  12.081   7.009 -0.8026  0.1137  0.1749
  426MOL0     H57474   2.685  11.499   7.342 -0.5673  0.9760 -0.6663
  426MOL0     H57475   2.855  11.418   7.527 -0.9380 -0.1033 -1.7372
  426MOL0     H57476   3.081  11.366   7.586 -0.5558 -0.1887  0.4207
  426MOL0     H57477   3.130  11.508   7.497  3.2204 -1.2742 -0.5226
  426MOL0     H57478   3.230  11.577   7.737  0.3886  0.3803 -0.4172
  426MOL0     H57479   3.222  11.392   7.752 -1.7714  1.0060  1.1239
  426MOL0     H57480   3.355  11.527   7.522 -2.0189 -0.2678 -0.0331
  426MOL0     H57481   3.358  11.364   7.576 -1.4313 -0.1083 -1.6588
  426MOL0     H57482   3.452  11.607   7.739  1.4015  1.3396  0.4808
  426MOL0     H57483   3.483  11.443   7.772  2.1423  3.8315  1.0084
  426MOL0     H57484   3.591  11.619   7.538  1.3461  1.2061  0.6128
  426MOL0     H57485   3.603  11.448   7.524  1.4448 -0.9876  0.8303
  426MOL0     H57486   3.723  11.613   7.753  0.1360  2.1186 -1.9550
  426MOL0     H57487   3.745  11.445   7.718  4.1529  1.0520  1.7194
  426MOL0     H57488   3.794  11.689   7.538  0.9462  1.7814  0.2748
  426MOL0     H57489   3.840  11.514   7.504 -4.7570  0.8328  0.7356
  426MOL0     H57490   3.976  11.560   7.719 -0.4599 -1.9968 -2.2372
  426MOL0     H57491   3.944  11.743   7.694  1.3549 -0.5461  2.4818
  426MOL0     H57492   2.983  11.797   7.609 -1.3204 -0.7461  3.9579
  426MOL0     H57493   2.821  11.896   7.440 -0.9659 -0.0698 -3.0347
  426MOL0     H57494   2.513  11.739   7.117 -1.2240  1.0850  0.4473
  426MOL0     H57495   2.360  11.776   6.916  0.0428 -1.1760  0.9874
  426MOL0     H57496   2.961  10.753   6.083  0.9650  1.5956  2.2378
  426MOL0     H57497   3.173  10.644   6.149  0.4249  0.4256  1.3998
  426MOL0     H57498   3.406  10.339   6.163  0.2960  1.8745  2.8405
  426MOL0     H57499   3.603  10.189   6.129 -0.3634  1.4369  1.7196
  426MOL0     H57500   3.790  10.100   6.248  0.5107  1.3381  1.5981
  426MOL0     H57501   3.746  10.057   6.409 -1.3202  0.7387 -1.1218
  426MOL0     H57502   3.962   9.943   6.329  2.0651 -2.7930 -1.2734
  426MOL0     H57503   3.876   9.851   6.212 -1.8233  0.2323 -0.5147
  426MOL0     H57504   3.737   9.748   6.361  1.0620 -2.4218  0.6854
  426MOL0     H57505   3.804   9.847   6.503 -0.7246 -2.5523  1.6309
  426MOL0     H57506   3.964   9.709   6.536  0.8574 -0.0318 -0.0691
  426MOL0     H57507   4.022   9.720   6.375 -1.5872  4.9915  0.1861
  426MOL0     H57508   3.784   9.357   6.355  1.8646 -1.4572  0.3786
  426MOL0     H57509   3.445   9.911   6.394 -0.7608 -1.0809 -2.8736
  426MOL0     H57510   3.258  10.064   6.463 -2.7005  2.1357 -2.0002
  427MOL0     O57511   0.054   7.081   3.593 -0.2522  0.6284 -0.1783
  427MOL0     C57512   0.135   7.074   3.691 -0.8356 -0.8397  0.3230
  427MOL0     O57513   0.141   6.973   3.786 -0.8498 -0.5368 -0.4486
  427MOL0     C57514   0.035   6.888   3.790 -0.0257 -0.8387  1.0055
  427MOL0     C57515   0.029   6.777   3.714 -0.1570 -0.7430  0.1801
  427MOL0     C57516  -0.071   6.682   3.740  0.4271  0.3930 -0.4824
  427MOL0     C57517  -0.163   6.695   3.847  0.4317 -0.3747 -0.2281
  427MOL0     O57518  -0.246   6.585   3.872  0.8725 -0.7428  0.4370
  427MOL0     C57519  -0.328   6.569   3.989  0.1004 -0.1799 -0.1262
  427MOL0     C57520  -0.461   6.649   3.970 -0.1102  0.0146 -1.1010
  427MOL0     C57521  -0.523   6.593   3.845 -0.7592 -1.2256  0.6935
  427MOL0     C57522  -0.646   6.675   3.814 -0.4894 -0.1271  0.3946
  427MOL0     C57523  -0.744   6.607   3.710  0.2273  0.6446 -0.1359
  427MOL0     C57524  -0.712   6.602   3.561 -0.2275  0.2530  0.0327
  427MOL0     C57525  -0.811   6.528   3.477 -0.8390 -0.2783 -0.4691
  427MOL0     C57526  -0.829   6.572   3.333  1.1774  0.0137 -1.1941
  427MOL0     N57527  -0.704   6.578   3.252 -0.5371  0.8653  0.3659
  427MOL0     C57528  -0.656   6.465   3.193  0.7735  0.0796 -0.6302
  427MOL0     C57529  -0.520   6.483   3.192 -0.2450  0.3627  0.7580
  427MOL0     C57530  -0.415   6.383   3.136 -0.2198 -0.5160  0.4330
  427MOL0     C57531  -0.367   6.426   2.991  0.8153  0.3653 -0.3103
  427MOL0     C57532  -0.474   6.440   2.878 -0.5092  0.2149  0.5120
  427MOL0     C57533  -0.408   6.370   2.753  1.2752 -0.4535 -0.1096
  427MOL0     O57534  -0.440   6.232   2.756 -0.2427  0.4977  0.3864
  427MOL0     C57535  -0.392   6.158   2.661  0.1629  0.3893  0.8105
  427MOL0     C57536  -0.309   6.205   2.556 -0.1914 -0.1243  0.5084
  427MOL0     C57537  -0.238   6.115   2.475  0.2063  0.1968  0.4696
  427MOL0     C57538  -0.139   6.178   2.384 -0.3535 -1.0364 -0.1144
  427MOL0     C57539  -0.260   5.970   2.487  0.1684 -0.4427  0.2439
  427MOL0     C57540  -0.203   5.861   2.408 -0.5464 -0.5931 -0.4906
  427MOL0     O57541  -0.172   5.892   2.276 -0.2244 -0.5692  0.2575
  427MOL0     C57542  -0.146   5.796   2.186  0.9999 -0.3869  0.3149
  427MOL0     C57543  -0.239   5.687   2.177  0.1711 -0.8169 -0.3127
  427MOL0     C57544  -0.227   5.592   2.080 -1.2714 -0.2758 -0.6920
  427MOL0     C57545  -0.118   5.595   1.999 -0.1817  0.5262 -0.5915
  427MOL0     O57546  -0.123   5.520   1.885  0.4994 -0.0831 -0.2410
  427MOL0     C57547  -0.151   5.374   1.901 -0.7237 -1.1811 -0.0156
  427MOL0     C57548  -0.078   5.292   1.791  0.5041  0.9290  0.9172
  427MOL0     C57549  -0.126   5.148   1.805 -0.1246 -0.4107 -0.6674
  427MOL0     C57550  -0.271   5.122   1.764  0.6113 -0.5062 -0.4678
  427MOL0     C57551  -0.316   4.972   1.774 -0.1875  0.2087  0.7162
  427MOL0     C57552  -0.260   4.906   1.641  0.1973 -0.2170 -0.1967
  427MOL0     C57553  -0.336   4.778   1.634 -0.5805 -0.3315 -0.5588
  427MOL0     C57554  -0.283   4.694   1.519 -0.1357 -0.9471 -0.7960
  427MOL0    Cl57555  -0.386   4.562   1.466 -0.6125  0.2396  0.0367
  427MOL0     C57556  -0.020   5.700   2.008 -0.3187  0.6997 -0.6334
  427MOL0     C57557  -0.038   5.795   2.102  0.2178 -0.3246 -0.6591
  427MOL0     O57558  -0.200   5.749   2.466  0.0084 -0.4199 -0.1278
  427MOL0     C57559  -0.357   5.929   2.583  0.0122  0.2948 -0.2426
  427MOL0     C57560  -0.413   6.019   2.668  0.7597 -0.4872  0.7142
  427MOL0     N57561  -0.486   6.602   3.246 -0.0369  0.0172  0.2299
  427MOL0     N57562  -0.600   6.661   3.282 -0.4288  0.9955  0.6663
  427MOL0     C57563  -0.157   6.812   3.924 -0.5293 -0.2401 -1.0297
  427MOL0     C57564  -0.061   6.911   3.888  0.3705  0.4698  0.5573
  427MOL0     C57565   0.237   7.187   3.698  0.4238  0.4583 -0.4039
  427MOL0     C57566   0.348   7.193   3.789 -0.6806 -0.0972  0.5640
  427MOL0     C57567   0.443   7.298   3.792 -0.0554  0.5330  0.1626
  427MOL0     C57568   0.425   7.406   3.711 -0.8657 -0.6283  0.2510
  427MOL0     O57569   0.502   7.518   3.722 -0.0894  0.4560  0.3928
  427MOL0     C57570   0.609   7.519   3.817  0.5462 -0.0740 -0.6858
  427MOL0     C57571   0.694   7.648   3.784 -0.7375  0.2417  0.8007
  427MOL0     C57572   0.795   7.677   3.891 -0.4703 -0.2990 -0.2926
  427MOL0     C57573   0.714   7.749   4.004 -0.3137 -0.2484  0.5074
  427MOL0     C57574   0.787   7.834   4.086 -0.4246 -0.0920  0.5894
  427MOL0     C57575   0.852   7.901   4.161 -0.8154  0.2185  0.4711
  427MOL0     C57576   0.320   7.399   3.618 -0.5572  0.2154  0.1510
  427MOL0     C57577   0.227   7.298   3.615 -0.3309  0.8777  0.6084
  427MOL0     H57578   0.105   6.754   3.640  1.5035  3.5645  0.2261
  427MOL0     H57579  -0.076   6.591   3.680  1.5728 -0.2885  0.4108
  427MOL0     H57580  -0.342   6.464   4.015  0.1322  0.1550  1.3086
  427MOL0     H57581  -0.282   6.608   4.080  2.2830 -2.3570 -0.1927
  427MOL0     H57582  -0.532   6.649   4.053 -0.1200  1.4561 -1.0823
  427MOL0     H57583  -0.432   6.753   3.954  1.8841  0.2863  2.9524
  427MOL0     H57584  -0.448   6.613   3.768  0.3888  1.5998  2.3615
  427MOL0     H57585  -0.543   6.486   3.848 -0.9651 -1.3693 -2.5000
  427MOL0     H57586  -0.698   6.691   3.909  2.3954  0.8280  1.9336
  427MOL0     H57587  -0.610   6.771   3.775 -1.7422  0.3571  0.4033
  427MOL0     H57588  -0.753   6.504   3.744 -0.6016  0.0939 -1.8878
  427MOL0     H57589  -0.843   6.651   3.723 -0.1624 -0.7002  1.9565
  427MOL0     H57590  -0.693   6.707   3.538 -4.3882  1.6023  1.7313
  427MOL0     H57591  -0.613   6.556   3.552 -0.1131  0.3337  0.8007
  427MOL0     H57592  -0.784   6.422   3.481  3.3099  0.4963 -2.2520
  427MOL0     H57593  -0.906   6.546   3.528  0.7567 -0.8320  2.9981
  427MOL0     H57594  -0.876   6.671   3.331  1.2269  0.0361 -1.2242
  427MOL0     H57595  -0.903   6.509   3.283  0.9807  0.3662 -1.3524
  427MOL0     H57596  -0.712   6.379   3.157  2.9420 -0.0618 -4.0238
  427MOL0     H57597  -0.326   6.381   3.199 -1.6557 -2.8341  2.5777
  427MOL0     H57598  -0.426   6.274   3.131  1.4459 -0.6586 -1.0517
  427MOL0     H57599  -0.308   6.337   2.968 -2.3314 -1.4614 -2.0251
  427MOL0     H57600  -0.305   6.517   2.993  0.4792  0.6107 -0.7700
  427MOL0     H57601  -0.488   6.547   2.860  0.6681  0.5180  1.2704
  427MOL0     H57602  -0.570   6.391   2.898 -0.2863  0.2134  1.6576
  427MOL0     H57603  -0.303   6.397   2.742  1.1839  0.7572  1.6593
  427MOL0     H57604  -0.465   6.415   2.671  0.9231 -1.1369 -0.2512
  427MOL0     H57605  -0.301   6.310   2.527  0.9856 -0.5181 -0.7052
  427MOL0     H57606  -0.039   6.156   2.420  0.7780  3.8316  0.3034
  427MOL0     H57607  -0.157   6.167   2.276  5.1154  0.3891 -1.4386
  427MOL0     H57608  -0.139   6.287   2.385 -0.5258 -1.0241  1.7814
  427MOL0     H57609  -0.317   5.680   2.252 -1.1785 -1.8392 -1.7430
  427MOL0     H57610  -0.305   5.517   2.071  1.6616 -3.3706 -3.7418
  427MOL0     H57611  -0.113   5.340   1.998 -1.7729 -0.7072  0.5805
  427MOL0     H57612  -0.259   5.358   1.897 -0.5460 -2.5218  0.0789
  427MOL0     H57613  -0.101   5.323   1.689  0.6665 -0.1554  0.5366
  427MOL0     H57614   0.030   5.302   1.802  1.0154  0.1680 -2.5490
  427MOL0     H57615  -0.110   5.103   1.904  0.3564 -1.7535 -1.3317
  427MOL0     H57616  -0.058   5.096   1.737 -0.9654  1.5767 -3.1778
  427MOL0     H57617  -0.347   5.172   1.824  0.8635 -1.8758  1.0633
  427MOL0     H57618  -0.278   5.150   1.659  3.4171 -0.2276 -0.6553
  427MOL0     H57619  -0.425   4.963   1.780 -0.5443  0.5087 -2.8825
  427MOL0     H57620  -0.273   4.931   1.866  0.3482 -1.6771 -0.3153
  427MOL0     H57621  -0.284   4.960   1.549  2.6163 -1.5864 -1.7266
  427MOL0     H57622  -0.152   4.894   1.647 -0.1294 -3.9296  0.3096
  427MOL0     H57623  -0.434   4.809   1.598 -0.2734  3.7845  1.5948
  427MOL0     H57624  -0.337   4.729   1.733 -1.5314 -3.7104 -2.0903
  427MOL0     H57625  -0.195   4.652   1.569  0.2943  2.4746  1.7207
  427MOL0     H57626  -0.243   4.760   1.441 -1.0356 -2.0109 -2.2038
  427MOL0     H57627   0.065   5.714   1.942 -0.3685  1.1574 -0.6006
  427MOL0     H57628   0.024   5.883   2.116 -0.9621  0.3715  0.3848
  427MOL0     H57629  -0.391   5.826   2.585  2.0449 -0.4317 -0.7742
  427MOL0     H57630  -0.478   5.978   2.745  0.8485 -3.5701 -0.7137
  427MOL0     H57631  -0.220   6.829   4.011 -0.0925 -2.1270 -0.2926
  427MOL0     H57632  -0.053   7.000   3.950  0.0690 -0.7444  2.3880
  427MOL0     H57633   0.367   7.104   3.848 -0.2805 -0.8686 -0.6884
  427MOL0     H57634   0.517   7.285   3.870 -0.6053 -5.0122  0.1692
  427MOL0     H57635   0.578   7.527   3.921  0.4435  0.0796 -0.7272
  427MOL0     H57636   0.673   7.431   3.815  1.3685  0.3890  1.8203
  427MOL0     H57637   0.624   7.727   3.758  1.3373  1.6902 -0.7156
  427MOL0     H57638   0.757   7.624   3.698 -0.9434 -1.3914  1.0747
  427MOL0     H57639   0.866   7.748   3.848 -1.1525 -0.1053 -1.1144
  427MOL0     H57640   0.847   7.584   3.916 -0.3406 -0.1064  0.1737
  427MOL0     H57641   0.659   7.671   4.058 -0.2919 -2.6553 -2.6032
  427MOL0     H57642   0.643   7.814   3.954 -0.2769  1.8327  2.9530
  427MOL0     H57643   0.902   7.972   4.225  0.7500 -0.1591 -0.2930
  427MOL0     H57644   0.321   7.490   3.558 -0.1378 -0.1375 -0.3937
  427MOL0     H57645   0.133   7.308   3.561 -0.1400 -3.2119 -0.8000
  428MOL0     O57646   0.630  10.219  10.274  0.2351  0.0496 -0.6079
  428MOL0     C57647   0.641  10.110  10.222 -1.1181  0.3375 -1.4424
  428MOL0     O57648   0.546  10.047  10.141 -0.4754  0.0370  0.1546
  428MOL0     C57649   0.416  10.085  10.131  1.0891  0.0290  0.3463
  428MOL0     C57650   0.363  10.213  10.151 -0.3306 -0.4001 -0.8035
  428MOL0     C57651   0.234  10.233  10.145  0.4965  0.9301 -1.3773
  428MOL0     C57652   0.145  10.128  10.117  0.2706 -0.1615  0.1869
  428MOL0     O57653   0.004  10.143  10.111 -0.7083 -0.8186 -0.2517
  428MOL0     C57654  -0.070  10.120   9.997 -0.2576  0.2767  0.8981
  428MOL0     C57655  -0.214  10.163  10.003 -1.1228  0.5647  0.6192
  428MOL0     C57656  -0.316  10.088   9.909 -0.2658 -0.5750 -0.0946
  428MOL0     C57657  -0.280  10.097   9.760 -0.4858  0.1006 -0.2320
  428MOL0     C57658  -0.383  10.037   9.659 -0.1381  0.5660 -0.4333
  428MOL0     C57659  -0.336  10.061   9.509 -0.0198  0.0890 -0.8980
  428MOL0     C57660  -0.440  10.003   9.401  0.2919 -0.2797 -0.4363
  428MOL0     C57661  -0.508  10.116   9.319 -0.8061  0.3779 -0.4432
  428MOL0     N57662  -0.597  10.204   9.408 -0.3781  0.2195 -0.1525
  428MOL0     C57663  -0.679  10.172   9.509  0.0962  0.2608  0.4567
  428MOL0     C57664  -0.747  10.286   9.535 -0.0886  0.2058  0.4883
  428MOL0     C57665  -0.857  10.292   9.630 -0.4540 -0.3806 -0.5689
  428MOL0     C57666  -1.000  10.266   9.565 -0.4608 -0.5925  0.8107
  428MOL0     C57667  -1.047  10.373   9.455 -0.4202 -0.5135 -0.2719
  428MOL0     C57668  -1.167  10.324   9.379  0.2142  0.0570 -0.4153
  428MOL0     O57669  -1.271  10.286   9.464  0.4337 -0.8103  0.4243
  428MOL0     C57670  -1.378  10.233   9.417  0.5193  0.6778 -0.7269
  428MOL0     C57671  -1.427  10.115   9.475  0.3165 -0.4650 -0.1079
  428MOL0     C57672  -1.532  10.042   9.421  0.1770 -0.1580 -0.1339
  428MOL0     C57673  -1.557   9.917   9.491 -0.6101  1.5247  0.1610
  428MOL0     C57674  -1.598  10.084   9.303 -0.0077 -0.3558 -1.0282
  428MOL0     C57675  -1.712  10.008   9.246 -0.5080  0.7723 -0.3792
  428MOL0     O57676  -1.834  10.041   9.281 -0.1499  0.1410  0.0818
  428MOL0     C57677  -1.940   9.992   9.215 -0.6939 -0.2737  0.3217
  428MOL0     C57678  -1.971  10.040   9.087  0.1212  0.3948 -0.3533
  428MOL0     C57679  -2.080   9.983   9.028 -0.0325  0.3279  1.1123
  428MOL0     C57680  -2.171   9.912   9.097  0.3822  0.1348  0.0621
  428MOL0     O57681  -2.289   9.883   9.040 -0.2514  0.2698 -0.3421
  428MOL0     C57682  -2.391   9.983   9.073  0.2964  0.4677  0.1778
  428MOL0     C57683  -2.522   9.936   9.009 -0.3052 -0.1883  0.3808
  428MOL0     C57684  -2.576   9.795   9.034  0.4184 -0.0332  0.4110
  428MOL0     C57685  -2.563   9.744   9.174 -1.1819  1.0817 -1.5356
  428MOL0     C57686  -2.646   9.624   9.207 -0.5767 -0.1211 -0.1986
  428MOL0     C57687  -2.611   9.506   9.126 -0.1571  1.3798  0.1894
  428MOL0     C57688  -2.689   9.382   9.163 -0.3351  0.6230 -0.5690
  428MOL0     C57689  -2.824   9.380   9.095 -0.8626 -0.4361  0.6364
  428MOL0    Cl57690  -2.876   9.214   9.084 -0.1788  0.2523 -0.3788
  428MOL0     C57691  -2.135   9.864   9.231  0.0136 -0.4378  0.1737
  428MOL0     C57692  -2.018   9.898   9.282  0.6859  0.1475 -0.5449
  428MOL0     O57693  -1.682   9.951   9.150 -0.4267  0.2313  0.6734
  428MOL0     C57694  -1.555  10.200   9.242  0.1251 -1.1056 -0.1867
  428MOL0     C57695  -1.447  10.267   9.294  0.7688  0.5247  0.3535
  428MOL0     N57696  -0.705  10.392   9.456 -0.0480 -0.0713 -0.5988
  428MOL0     N57697  -0.624  10.341   9.377  0.4368  1.6269  0.1827
  428MOL0     C57698   0.197  10.003  10.081  0.3996  0.9636  0.7999
  428MOL0     C57699   0.334   9.983  10.091 -0.1809  0.6674 -0.6058
  428MOL0     C57700   0.784  10.055  10.229 -0.2330  0.0537  0.2708
  428MOL0     C57701   0.896  10.134  10.212  0.3771  1.3159  0.6576
  428MOL0     C57702   1.016  10.071  10.200 -0.3050 -0.3252  0.2984
  428MOL0     C57703   1.030   9.928  10.206 -0.4203  0.1558  0.0471
  428MOL0     O57704   1.150   9.862  10.208 -0.1004 -0.0160 -0.2448
  428MOL0     C57705   1.249   9.909  10.112 -0.2424 -0.3400 -0.1856
  428MOL0     C57706   1.208   9.899   9.961 -0.6745 -0.8904 -0.0886
  428MOL0     C57707   1.339   9.910   9.883 -0.8274  0.3940  0.4171
  428MOL0     C57708   1.313   9.855   9.740 -0.5907 -0.4154  0.0569
  428MOL0     C57709   1.404   9.921   9.646  0.4570 -0.3647  0.4254
  428MOL0     C57710   1.471   9.990   9.575 -0.3651  0.7074  0.8353
  428MOL0     C57711   0.908   9.863  10.229  0.8720  0.1218 -0.0050
  428MOL0     C57712   0.786   9.926  10.248 -1.2689 -0.5077 -0.3867
  428MOL0     H57713   0.423  10.300  10.174 -1.1178 -0.1837  0.5456
  428MOL0     H57714   0.190  10.329  10.171  0.5767  0.4448  0.7555
  428MOL0     H57715  -0.022  10.166   9.910  1.0915 -3.0304 -0.2572
  428MOL0     H57716  -0.070  10.012   9.980 -1.9419 -0.0130  2.4211
  428MOL0     H57717  -0.247  10.173  10.107 -0.2111 -1.2043  1.1177
  428MOL0     H57718  -0.215  10.267   9.969 -1.1484  1.9521  4.4209
  428MOL0     H57719  -0.342   9.989   9.947  2.9840 -1.8159 -0.7955
  428MOL0     H57720  -0.407  10.147   9.918  0.7137  1.1002 -0.6937
  428MOL0     H57721  -0.256  10.202   9.741  2.2260 -0.2885  0.6857
  428MOL0     H57722  -0.182  10.061   9.728  1.2584  0.7003  3.8447
  428MOL0     H57723  -0.391   9.929   9.671  1.0701  0.5788  0.6240
  428MOL0     H57724  -0.485  10.074   9.674 -0.4896 -0.3021 -0.6137
  428MOL0     H57725  -0.332  10.170   9.503 -5.4725  0.8633  2.1704
  428MOL0     H57726  -0.239  10.014   9.496 -0.0311  0.0555 -0.8643
  428MOL0     H57727  -0.385   9.935   9.335 -0.3196 -0.1575 -1.0857
  428MOL0     H57728  -0.509   9.938   9.455  1.3977 -2.2141 -1.2380
  428MOL0     H57729  -0.568  10.067   9.242 -1.4367  0.2898  0.0984
  428MOL0     H57730  -0.430  10.173   9.268  3.1573 -3.1721  1.0799
  428MOL0     H57731  -0.695  10.072   9.548  0.3036 -0.3759 -1.0576
  428MOL0     H57732  -0.836  10.227   9.716  1.7212  2.0019  0.8810
  428MOL0     H57733  -0.856  10.395   9.667 -1.2336 -1.0738  1.5261
  428MOL0     H57734  -1.078  10.268   9.642  0.0393  0.3575  1.3192
  428MOL0     H57735  -1.002  10.168   9.518  2.7430  0.4841 -1.9720
  428MOL0     H57736  -0.958  10.408   9.402  0.8345 -0.4515  1.7708
  428MOL0     H57737  -1.071  10.463   9.511 -1.2097  0.8162 -2.5977
  428MOL0     H57738  -1.145  10.226   9.335  0.6383 -1.0053  1.9873
  428MOL0     H57739  -1.196  10.386   9.293 -0.8661  1.7587  1.1143
  428MOL0     H57740  -1.373  10.085   9.565 -0.5508  0.0581  0.5973
  428MOL0     H57741  -1.483   9.904   9.571  0.5824 -0.9288 -1.2513
  428MOL0     H57742  -1.659   9.903   9.527 -0.2537 -1.1727  0.3387
  428MOL0     H57743  -1.543   9.842   9.413 -1.8016 -1.7892  2.9024
  428MOL0     H57744  -1.897  10.101   9.036  2.3794 -2.7706 -1.1487
  428MOL0     H57745  -2.107  10.026   8.932  1.9712 -2.3789 -0.8030
  428MOL0     H57746  -2.410   9.997   9.180  0.6765  0.5581  0.2346
  428MOL0     H57747  -2.365  10.084   9.042  3.2485 -0.0713  0.6487
  428MOL0     H57748  -2.600  10.008   9.035 -1.3619 -0.8652 -0.8244
  428MOL0     H57749  -2.500   9.945   8.902 -2.5461  1.6157 -0.0041
  428MOL0     H57750  -2.514   9.727   8.975  1.6415 -0.4517  2.1228
  428MOL0     H57751  -2.681   9.786   9.004  0.2064  0.7732  0.8806
  428MOL0     H57752  -2.461   9.718   9.202 -1.9995 -0.7228 -0.0176
  428MOL0     H57753  -2.586   9.831   9.237 -0.1261  0.3109 -0.0224
  428MOL0     H57754  -2.751   9.645   9.185 -1.7248 -2.6462  2.1239
  428MOL0     H57755  -2.632   9.597   9.313 -1.9596 -0.2157 -0.0267
  428MOL0     H57756  -2.626   9.536   9.022 -0.4515 -0.3768 -0.3150
  428MOL0     H57757  -2.510   9.466   9.132 -0.5665  0.0079 -1.2868
  428MOL0     H57758  -2.686   9.384   9.273  1.6196 -0.0475 -0.5658
  428MOL0     H57759  -2.632   9.290   9.144  0.6186  0.7505  1.3585
  428MOL0     H57760  -2.812   9.415   8.993  2.2123  0.3356  1.1521
  428MOL0     H57761  -2.902   9.445   9.136  0.2214  1.5812 -0.3306
  428MOL0     H57762  -2.224   9.831   9.282 -1.2603  0.1287 -1.5976
  428MOL0     H57763  -1.982   9.873   9.382  1.1786 -2.3343 -1.2799
  428MOL0     H57764  -1.609  10.252   9.164  1.2598  1.2646  0.5015
  428MOL0     H57765  -1.410  10.356   9.244 -0.5118  0.6751 -0.3639
  428MOL0     H57766   0.143   9.914  10.051  0.3732  1.2175  0.0808
  428MOL0     H57767   0.376   9.883  10.080  0.5130  0.9728 -0.8155
  428MOL0     H57768   0.887  10.240  10.193 -2.0199  1.1923  0.8760
  428MOL0     H57769   1.106  10.131  10.205  0.0590 -0.9904  3.1872
  428MOL0     H57770   1.280  10.014  10.122  4.0304 -1.4181 -0.1936
  428MOL0     H57771   1.336   9.845  10.129 -1.1426 -1.4147  0.4871
  428MOL0     H57772   1.144   9.983   9.932 -1.8764 -2.3438 -1.9410
  428MOL0     H57773   1.156   9.803   9.953  1.2321 -2.2623  2.5002
  428MOL0     H57774   1.412   9.845   9.932 -1.3237  0.4353  1.2350
  428MOL0     H57775   1.377  10.012   9.890  1.8782 -0.4464 -0.6738
  428MOL0     H57776   1.211   9.869   9.704 -0.4196 -2.1236 -1.2263
  428MOL0     H57777   1.331   9.748   9.754 -2.8350 -0.6730  1.4682
  428MOL0     H57778   1.516  10.055   9.502  3.0590  0.4623  2.5366
  428MOL0     H57779   0.899   9.756  10.212 -0.9649  0.6725 -3.2614
  428MOL0     H57780   0.694   9.872  10.270  0.0121 -2.6322  0.0494
  429MOL0     O57781  10.660   6.201   7.334  0.5144  0.4170 -0.3713
  429MOL0     C57782  10.638   6.309   7.289  0.1189  0.5002  0.1100
  429MOL0     O57783  10.643   6.346   7.159 -0.2626 -0.2705  0.8182
  429MOL0     C57784  10.685   6.259   7.070  0.2079  0.4067  0.5822
  429MOL0     C57785  10.820   6.217   7.078 -0.6982 -0.0524  0.2233
  429MOL0     C57786  10.866   6.134   6.968 -0.4311 -0.1785 -0.4349
  429MOL0     C57787  10.772   6.078   6.868  0.2316 -0.3409  0.1216
  429MOL0     O57788  10.805   5.992   6.762  0.0110 -0.4978  0.4881
  429MOL0     C57789  10.942   5.965   6.743 -1.6103  0.1373 -0.2382
  429MOL0     C57790  10.973   5.895   6.612 -0.9776  1.1167 -0.1659
  429MOL0     C57791  10.951   5.981   6.493 -0.1212  0.2219  0.6476
  429MOL0     C57792  10.938   5.901   6.360 -0.3480  0.0109 -0.4029
  429MOL0     C57793  10.953   5.991   6.232 -0.0159 -0.8990  0.3652
  429MOL0     C57794  10.847   6.091   6.213 -0.0474 -0.1956  0.6585
  429MOL0     C57795  10.856   6.151   6.070  0.2561  0.9720 -0.2646
  429MOL0     C57796  10.972   6.253   6.047  0.2146 -0.3661  0.1439
  429MOL0     N57797  11.004   6.308   5.912 -0.7880 -0.2295 -0.1519
  429MOL0     C57798  10.900   6.340   5.826 -0.7219  0.8446 -0.5109
  429MOL0     C57799  10.961   6.376   5.710 -0.4215 -0.6169  0.1745
  429MOL0     C57800  10.902   6.393   5.579 -0.2494  0.2759 -0.8119
  429MOL0     C57801  10.784   6.296   5.545  0.1908 -0.3901  1.0621
  429MOL0     C57802  10.786   6.247   5.396  0.1008 -0.8294  0.3938
  429MOL0     C57803  10.661   6.159   5.367  1.0938  0.0617  0.1239
  429MOL0     O57804  10.535   6.225   5.392 -0.3305 -0.0002  0.5907
  429MOL0     C57805  10.509   6.315   5.289 -0.3017 -0.4622 -1.5358
  429MOL0     C57806  10.468   6.444   5.329  1.1400 -0.1295 -0.7137
  429MOL0     C57807  10.411   6.527   5.233  0.0957  1.1223  0.3758
  429MOL0     C57808  10.365   6.662   5.274  0.1086 -0.2668  0.0563
  429MOL0     C57809  10.405   6.492   5.097  0.0126 -0.3462 -0.9209
  429MOL0     C57810  10.342   6.583   5.003  0.9333 -0.0283 -0.8360
  429MOL0     O57811  10.205   6.570   4.996 -0.0055  0.6251 -0.3507
  429MOL0     C57812  10.132   6.654   4.921 -0.0232 -0.1935  0.3929
  429MOL0     C57813  10.012   6.700   4.985 -0.4754  0.4929 -0.1668
  429MOL0     C57814   9.914   6.765   4.903  0.1538  0.1277  0.5267
  429MOL0     C57815   9.941   6.796   4.768  0.8255  0.1040  0.3149
  429MOL0     O57816   9.843   6.844   4.679  0.2445 -0.5049  0.8907
  429MOL0     C57817   9.708   6.857   4.713  0.0181  0.4076 -0.1514
  429MOL0     C57818   9.618   6.875   4.593  0.9458 -1.0575 -0.1867
  429MOL0     C57819   9.658   6.993   4.491  0.1222  0.5106 -0.5810
  429MOL0     C57820   9.559   7.008   4.377  0.9739 -0.0928  0.1255
  429MOL0     C57821   9.617   7.118   4.286  0.4770  0.1757  0.1110
  429MOL0     C57822   9.567   7.099   4.138 -0.2648  0.0378  0.4636
  429MOL0     C57823   9.673   7.011   4.067 -0.6483 -0.1026 -0.0175
  429MOL0     C57824   9.646   7.001   3.921  0.2546 -0.0095 -0.6555
  429MOL0    Cl57825   9.494   6.913   3.867  0.0892 -0.1809 -0.0064
  429MOL0     C57826  10.065   6.758   4.714 -1.6012  0.4916  0.1416
  429MOL0     C57827  10.154   6.682   4.789 -1.2881  0.5171 -0.2746
  429MOL0     O57828  10.408   6.672   4.951  0.5461  0.1018  0.2001
  429MOL0     C57829  10.456   6.371   5.061  0.0672  0.0932  0.0624
  429MOL0     C57830  10.505   6.277   5.151 -0.1990 -0.6808 -0.1617
  429MOL0     N57831  11.100   6.371   5.728  0.2543  0.3822  0.9176
  429MOL0     N57832  11.117   6.324   5.847 -1.4237  0.6257  0.8079
  429MOL0     C57833  10.642   6.117   6.877 -1.0783  0.4058  0.5648
  429MOL0     C57834  10.600   6.207   6.973  0.0236 -0.0037  0.2818
  429MOL0     C57835  10.592   6.418   7.373  0.4927  0.4344 -0.6494
  429MOL0     C57836  10.524   6.385   7.494 -0.2097 -0.5076 -0.3959
  429MOL0     C57837  10.464   6.495   7.563 -0.4086 -1.3161  0.2526
  429MOL0     C57838  10.481   6.627   7.522  0.4660  0.4355 -0.2119
  429MOL0     O57839  10.424   6.737   7.577  0.6011 -0.2030  0.9317
  429MOL0     C57840  10.300   6.733   7.644  1.5109 -0.3101 -0.1636
  429MOL0     C57841  10.296   6.859   7.732 -0.2212 -0.5582 -0.6514
  429MOL0     C57842  10.184   6.868   7.831  0.5494  0.2924 -0.5662
  429MOL0     C57843  10.192   6.991   7.922 -0.5835  0.0019  0.6178
  429MOL0     C57844  10.282   6.977   8.045 -0.2684 -0.3139 -0.4008
  429MOL0     C57845  10.352   6.965   8.148 -0.3755 -0.1020  0.2459
  429MOL0     C57846  10.565   6.657   7.412 -0.3155  0.5028 -0.2471
  429MOL0     C57847  10.614   6.549   7.336 -0.5682  0.2743  0.5831
  429MOL0     H57848  10.879   6.268   7.154 -4.5281  1.4663  2.4273
  429MOL0     H57849  10.970   6.105   6.955 -0.3293  0.7314 -1.7900
  429MOL0     H57850  11.007   6.053   6.749 -0.7274  0.2188 -5.8796
  429MOL0     H57851  10.964   5.895   6.824 -3.8546  1.1810  1.3793
  429MOL0     H57852  11.077   5.863   6.615 -0.9299  0.7259 -3.1745
  429MOL0     H57853  10.905   5.810   6.600 -1.0530  1.0680  0.5531
  429MOL0     H57854  10.855   6.030   6.509 -0.2777 -0.5563  2.3603
  429MOL0     H57855  11.023   6.063   6.497 -3.4305  3.4102 -0.1606
  429MOL0     H57856  11.021   5.832   6.344  1.2707  1.3072  1.7589
  429MOL0     H57857  10.841   5.850   6.363 -1.6978  2.3557 -0.8788
  429MOL0     H57858  11.051   6.038   6.235  0.2043 -1.2395 -0.8581
  429MOL0     H57859  10.955   5.917   6.152  2.3915 -0.6798  0.1721
  429MOL0     H57860  10.751   6.044   6.235  0.2394 -0.3636  1.5970
  429MOL0     H57861  10.862   6.178   6.278  3.2267 -0.4309  0.3931
  429MOL0     H57862  10.856   6.063   6.004 -4.5340  1.9894 -2.0777
  429MOL0     H57863  10.764   6.201   6.037 -0.6486 -0.2503  0.2898
  429MOL0     H57864  11.064   6.211   6.088 -0.5399 -1.5579  0.6936
  429MOL0     H57865  10.958   6.338   6.114  1.2949 -0.7476  0.8831
  429MOL0     H57866  10.797   6.312   5.844 -0.9359  1.6658 -0.4233
  429MOL0     H57867  10.872   6.496   5.561  2.0587  0.6250 -3.2130
  429MOL0     H57868  10.983   6.390   5.507  2.6649 -0.1196  2.2471
  429MOL0     H57869  10.689   6.344   5.568 -0.6803 -0.4411 -2.0728
  429MOL0     H57870  10.798   6.204   5.603  0.5376 -1.3784 -0.5212
  429MOL0     H57871  10.879   6.193   5.379 -0.3933 -1.4733 -0.3116
  429MOL0     H57872  10.791   6.338   5.335 -3.6281  2.0507  3.7643
  429MOL0     H57873  10.675   6.076   5.438  0.4466  0.0413  0.2382
  429MOL0     H57874  10.672   6.116   5.267  2.5229  1.1573 -0.2165
  429MOL0     H57875  10.454   6.480   5.430  0.0339 -1.7169 -0.2723
  429MOL0     H57876  10.449   6.732   5.285 -1.7997  1.9775  1.2764
  429MOL0     H57877  10.279   6.704   5.221 -0.8061 -0.2760  1.5005
  429MOL0     H57878  10.324   6.653   5.375  1.7587 -0.3101  0.7471
  429MOL0     H57879   9.968   6.675   5.081  1.3863 -0.3212  0.5393
  429MOL0     H57880   9.828   6.804   4.956 -0.4093  0.3739 -0.5238
  429MOL0     H57881   9.680   6.761   4.758  1.0140  0.1863  0.0234
  429MOL0     H57882   9.695   6.938   4.784  1.1355 -1.8955  2.9206
  429MOL0     H57883   9.599   6.783   4.537  0.2975 -0.4854 -0.9163
  429MOL0     H57884   9.518   6.907   4.626  0.7163  1.6285 -3.0422
  429MOL0     H57885   9.758   6.967   4.455  0.6532 -1.8775  2.2300
  429MOL0     H57886   9.668   7.084   4.551 -0.4270 -0.8628  1.7405
  429MOL0     H57887   9.555   6.909   4.331 -2.0832 -0.6766  1.4026
  429MOL0     H57888   9.463   7.042   4.416 -0.8200 -2.0874 -2.2484
  429MOL0     H57889   9.726   7.115   4.279  0.5166 -0.1130  0.7716
  429MOL0     H57890   9.587   7.213   4.330 -0.2094 -0.4735  1.0827
  429MOL0     H57891   9.467   7.056   4.134 -0.8849  1.5135 -2.3001
  429MOL0     H57892   9.577   7.198   4.094 -0.7295  1.7816  3.9807
  429MOL0     H57893   9.673   6.912   4.114  0.3575 -1.2869 -2.3361
  429MOL0     H57894   9.774   7.051   4.072 -0.3837 -0.9166  3.0856
  429MOL0     H57895   9.730   6.943   3.881  0.4030 -2.0361  2.3232
  429MOL0     H57896   9.631   7.095   3.868  2.0025  0.6067 -0.1193
  429MOL0     H57897  10.081   6.775   4.608  0.0214  0.7104  0.3923
  429MOL0     H57898  10.230   6.631   4.732 -0.8667  3.6444 -2.8094
  429MOL0     H57899  10.464   6.358   4.953  1.3714  4.0169 -0.5024
  429MOL0     H57900  10.531   6.179   5.114 -0.5285 -0.4412 -1.0511
  429MOL0     H57901  10.580   6.076   6.797  1.3339 -0.4838 -0.9407
  429MOL0     H57902  10.493   6.220   6.961 -0.5436 -1.8590  2.5490
  429MOL0     H57903  10.508   6.285   7.532  2.0739 -1.6771 -2.2023
  429MOL0     H57904  10.409   6.467   7.653  0.4478 -0.1315  1.1824
  429MOL0     H57905  10.217   6.740   7.573 -0.4377 -2.2305  1.7490
  429MOL0     H57906  10.292   6.643   7.706  1.9798  1.4580  2.6528
  429MOL0     H57907  10.286   6.956   7.682 -0.9559  1.5862  3.2022
  429MOL0     H57908  10.384   6.867   7.796 -0.5501  3.1472 -0.4501
  429MOL0     H57909  10.164   6.775   7.886 -2.1121  1.7638  1.1883
  429MOL0     H57910  10.103   6.881   7.758  0.8707  1.4358 -0.7300
  429MOL0     H57911  10.093   7.012   7.965 -0.3137 -1.2757  1.9488
  429MOL0     H57912  10.212   7.068   7.847  0.0799 -2.3180 -1.7254
  429MOL0     H57913  10.426   6.946   8.224 -0.5080 -0.6612  0.2397
  429MOL0     H57914  10.592   6.755   7.376  1.3803 -0.3194 -1.3311
  429MOL0     H57915  10.687   6.559   7.257 -0.5547 -2.4116  0.1484
  430MOL0     O57916   3.652   9.364   9.730 -0.7224 -0.1234 -0.5097
  430MOL0     C57917   3.719   9.299   9.805 -0.1378  0.7542 -0.5105
  430MOL0     O57918   3.697   9.276   9.938  0.5274  0.2136  0.3474
  430MOL0     C57919   3.572   9.326   9.987 -1.1960 -0.1828 -1.2325
  430MOL0     C57920   3.446   9.280   9.944 -0.4888  0.2987  0.8314
  430MOL0     C57921   3.332   9.307  10.021  0.1245 -1.3691  0.0052
  430MOL0     C57922   3.336   9.367  10.147  0.4290 -0.0743 -1.1578
  430MOL0     O57923   3.213   9.397  10.204  0.3403  0.2883  1.0486
  430MOL0     C57924   3.206   9.484  10.317  0.4717  0.3470  0.0535
  430MOL0     C57925   3.204   9.623  10.264 -0.4458 -0.4030  0.3609
  430MOL0     C57926   3.159   9.726  10.365  1.3430 -0.0254 -0.4252
  430MOL0     C57927   3.197   9.876  10.338  0.1482  0.6663  0.7808
  430MOL0     C57928   3.193   9.958  10.472 -0.6068 -0.2090 -0.0400
  430MOL0     C57929   3.156  10.110  10.471  0.7317  0.0459  0.0310
  430MOL0     C57930   3.207  10.174  10.599 -0.4891  0.5201  0.0241
  430MOL0     C57931   3.178  10.322  10.594  0.4781  0.2803  0.0522
  430MOL0     N57932   3.184  10.377  10.731 -0.8571 -0.1842  0.9435
  430MOL0     C57933   3.085  10.373  10.831  0.0225 -0.4164  0.5581
  430MOL0     C57934   3.130  10.452  10.939 -0.9410  0.3176  1.0257
  430MOL0     C57935   3.051  10.475  11.063  0.6086  0.3898  0.2874
  430MOL0     C57936   3.137  10.483  11.200  0.7417 -0.4935 -0.7610
  430MOL0     C57937   3.221  10.620  11.208  0.5281  0.7446 -0.1015
  430MOL0     C57938   3.300  10.624  11.341  0.5110  0.6445 -1.1875
  430MOL0     O57939   3.412  10.521  11.329 -0.6491 -0.2636 -0.6505
  430MOL0     C57940   3.516  10.557  11.250 -0.3043 -0.6590  0.2913
  430MOL0     C57941   3.551  10.471  11.141 -0.3846  0.3068 -0.3601
  430MOL0     C57942   3.635  10.507  11.038 -0.1864 -0.5168 -0.5265
  430MOL0     C57943   3.647  10.407  10.920 -0.6380  0.2246 -0.3060
  430MOL0     C57944   3.703  10.633  11.057 -0.4847  0.5668 -0.2838
  430MOL0     C57945   3.805  10.684  10.958  0.4302  0.2787  0.8805
  430MOL0     O57946   3.903  10.767  10.993 -0.4865  0.4973 -0.5902
  430MOL0     C57947   3.973  10.823  10.903  0.2743 -0.1055 -0.2299
  430MOL0     C57948   4.103  10.787  10.871 -0.1313 -0.2828  0.7435
  430MOL0     C57949   4.185  10.844  10.767  0.2672  0.4834 -0.9800
  430MOL0     C57950   4.138  10.963  10.710 -0.4862 -0.4158  0.6539
  430MOL0     O57951   4.211  11.029  10.615  0.6004  0.7822 -0.5905
  430MOL0     C57952   4.275  11.147  10.675  0.1085  0.9839  0.1192
  430MOL0     C57953   4.407  11.130  10.753 -0.3356 -0.5895 -1.2328
  430MOL0     C57954   4.516  11.078  10.663 -0.5229 -0.0098  0.3713
  430MOL0     C57955   4.588  10.960  10.731  0.4249  0.6759 -0.2115
  430MOL0     C57956   4.689  10.887  10.645 -0.0141  0.6473  0.4788
  430MOL0     C57957   4.820  10.964  10.618  0.3857 -0.5133  0.2565
  430MOL0     C57958   4.950  10.875  10.607  0.2402 -0.4163  0.5769
  430MOL0     C57959   4.946  10.777  10.491 -0.1448  0.3335  0.3967
  430MOL0    Cl57960   4.899  10.861  10.334 -0.3967  0.0076 -0.1603
  430MOL0     C57961   4.007  11.013  10.747 -0.5134  0.1755  0.3322
  430MOL0     C57962   3.935  10.944  10.847  0.6750 -0.3522  0.0230
  430MOL0     O57963   3.761  10.672  10.843  0.1777  0.3405 -0.8376
  430MOL0     C57964   3.686  10.713  11.167  0.5275  0.4022 -0.3687
  430MOL0     C57965   3.587  10.674  11.262 -0.6418  0.0876 -1.3083
  430MOL0     N57966   3.250  10.504  10.897 -0.2758 -0.5401 -0.2171
  430MOL0     N57967   3.287  10.459  10.775  0.0322  0.6581  0.4600
  430MOL0     C57968   3.460   9.421  10.180 -0.4009 -0.4107 -0.3018
  430MOL0     C57969   3.579   9.390  10.107  0.3940 -0.3533 -0.0450
  430MOL0     C57970   3.853   9.238   9.757  0.3918  0.1527 -0.6107
  430MOL0     C57971   3.892   9.223   9.619 -0.3865 -0.1315  0.0053
  430MOL0     C57972   4.013   9.160   9.593  0.6911  0.3162 -0.4568
  430MOL0     C57973   4.090   9.097   9.692 -0.8624 -1.0688  0.3020
  430MOL0     O57974   4.207   9.032   9.663  0.4547  0.5686 -0.1147
  430MOL0     C57975   4.291   9.101   9.569 -0.4443 -1.0595 -0.1638
  430MOL0     C57976   4.339   9.242   9.620  0.2223 -1.0613 -0.0368
  430MOL0     C57977   4.444   9.221   9.739 -0.2745 -1.0053  0.5477
  430MOL0     C57978   4.544   9.341   9.720 -0.7048 -0.6443  0.8837
  430MOL0     C57979   4.633   9.364   9.836 -0.3670  0.7639  0.2568
  430MOL0     C57980   4.702   9.384   9.933  0.1653  0.3717 -0.1275
  430MOL0     C57981   4.043   9.105   9.821 -0.6649  0.5060 -0.6307
  430MOL0     C57982   3.933   9.179   9.850  0.6198  0.4901  0.1839
  430MOL0     H57983   3.446   9.223   9.852 -0.0828 -0.5127  1.3335
  430MOL0     H57984   3.231   9.286   9.987 -1.6253  1.1002  3.2319
  430MOL0     H57985   3.117   9.458  10.375  3.1048 -1.3654  3.7167
  430MOL0     H57986   3.292   9.480  10.385  1.6209 -0.9040 -1.3884
  430MOL0     H57987   3.289   9.651  10.202  0.3787  2.7450  2.6852
  430MOL0     H57988   3.130   9.605  10.186  1.9868 -3.1550 -1.5396
  430MOL0     H57989   3.058   9.703  10.399  1.6837  0.7876  1.2029
  430MOL0     H57990   3.216   9.695  10.453  1.6351 -3.0251 -1.5662
  430MOL0     H57991   3.293   9.887  10.286  0.6472 -1.4027  1.1816
  430MOL0     H57992   3.126   9.924  10.269  2.2990 -0.6709 -2.6312
  430MOL0     H57993   3.128   9.912  10.547 -1.0088  0.7822  0.2330
  430MOL0     H57994   3.295   9.955  10.513 -0.4457  0.4030 -0.3826
  430MOL0     H57995   3.201  10.157  10.383  3.2548 -0.9650  0.6911
  430MOL0     H57996   3.048  10.120  10.461  0.5006 -0.7914  1.4114
  430MOL0     H57997   3.156  10.131  10.686 -1.0651  1.9345  0.4117
  430MOL0     H57998   3.315  10.186  10.608 -0.6981  4.3744 -0.6780
  430MOL0     H57999   3.080  10.337  10.547  0.5558 -1.0492 -0.5599
  430MOL0     H58000   3.252  10.373  10.531  3.0435 -2.9213  0.2250
  430MOL0     H58001   2.994  10.315  10.825  0.2836 -0.6568 -2.4598
  430MOL0     H58002   3.000  10.572  11.055 -0.9751 -0.4762 -0.7040
  430MOL0     H58003   2.965  10.408  11.069 -0.9246  2.2195 -0.0660
  430MOL0     H58004   3.202  10.395  11.199  0.3357 -0.9793  2.6781
  430MOL0     H58005   3.071  10.468  11.286  1.3817  1.2322  0.0802
  430MOL0     H58006   3.153  10.705  11.198 -0.3302  0.2103  0.9600
  430MOL0     H58007   3.283  10.627  11.118 -3.0365  0.5144 -2.7943
  430MOL0     H58008   3.246  10.595  11.431  0.5182  5.2344  0.5848
  430MOL0     H58009   3.340  10.722  11.368 -3.0863  1.9131  0.1854
  430MOL0     H58010   3.509  10.371  11.150  0.7664 -0.3094 -1.4616
  430MOL0     H58011   3.583  10.431  10.835 -0.0473  0.4853 -0.6785
  430MOL0     H58012   3.751  10.398  10.889  0.0914 -0.8522  2.1584
  430MOL0     H58013   3.613  10.313  10.965  1.4017  0.0380  0.9897
  430MOL0     H58014   4.147  10.697  10.914  0.0471 -0.7626 -0.3940
  430MOL0     H58015   4.284  10.809  10.739  0.7329  0.3461  0.7063
  430MOL0     H58016   4.297  11.216  10.593  2.3794 -0.4983 -0.6275
  430MOL0     H58017   4.199  11.198  10.735  0.9657  1.4954  0.8064
  430MOL0     H58018   4.432  11.224  10.805 -1.9965 -0.9025  0.2450
  430MOL0     H58019   4.384  11.051  10.825  1.4221  0.3242  0.4331
  430MOL0     H58020   4.595  11.147  10.635 -1.0058  0.4653  0.1614
  430MOL0     H58021   4.476  11.046  10.566  0.4202  0.1948 -0.0942
  430MOL0     H58022   4.630  10.995  10.825  2.2383 -0.4944 -0.5377
  430MOL0     H58023   4.510  10.884  10.737  1.8691 -1.0072 -1.4867
  430MOL0     H58024   4.647  10.862  10.547  1.1012  1.0750 -0.1274
  430MOL0     H58025   4.710  10.787  10.684 -2.3263 -1.6149 -3.3397
  430MOL0     H58026   4.812  11.030  10.531 -1.4117 -0.4169  0.4623
  430MOL0     H58027   4.836  11.030  10.704  0.1905 -1.3313  0.9410
  430MOL0     H58028   4.957  10.822  10.702 -3.6890 -0.8393  0.7846
  430MOL0     H58029   5.041  10.936  10.601  0.3673 -0.6248  0.3464
  430MOL0     H58030   4.882  10.690  10.509  1.1214 -0.5405  0.9067
  430MOL0     H58031   5.044  10.728  10.491 -1.4249 -2.7990 -3.4138
  430MOL0     H58032   3.966  11.104  10.703  1.9958  0.3997 -1.7608
  430MOL0     H58033   3.839  10.982  10.880  0.7656  0.5567 -0.7424
  430MOL0     H58034   3.742  10.805  11.179 -1.4981  1.5672  0.6596
  430MOL0     H58035   3.551  10.746  11.334 -0.1446 -2.1519  1.3240
  430MOL0     H58036   3.466   9.480  10.270 -4.5409 -1.1467  0.6649
  430MOL0     H58037   3.675   9.421  10.146 -0.7207  3.3366  0.1930
  430MOL0     H58038   3.817   9.248   9.544 -1.9541 -2.8024  0.5284
  430MOL0     H58039   4.048   9.148   9.491  0.0239 -0.2156 -0.6303
  430MOL0     H58040   4.374   9.039   9.533  0.0371 -0.2123 -0.5672
  430MOL0     H58041   4.237   9.113   9.474 -1.1313 -1.8637  0.1150
  430MOL0     H58042   4.263   9.315   9.649  0.3532 -0.4270 -1.2625
  430MOL0     H58043   4.402   9.288   9.544 -1.0552  1.5632  0.3835
  430MOL0     H58044   4.492   9.126   9.713 -1.5850 -1.5196 -0.1029
  430MOL0     H58045   4.398   9.215   9.838  1.3321 -2.6907  1.2409
  430MOL0     H58046   4.483   9.433   9.719  0.3372  0.1105  2.3561
  430MOL0     H58047   4.601   9.326   9.628 -0.1281 -0.8846  1.2762
  430MOL0     H58048   4.751   9.403  10.026 -1.2176 -0.5674  0.8264
  430MOL0     H58049   4.088   9.047   9.901 -2.0040  1.9561  1.2957
  430MOL0     H58050   3.916   9.200   9.955 -0.7460  0.4945 -0.0305
  431MOL0     O58051   8.191  11.146   2.845 -1.1898  0.6585  0.2017
  431MOL0     C58052   8.230  11.124   2.728  0.9728 -0.1220  0.3557
  431MOL0     O58053   8.367  11.119   2.692  0.6988  0.5125  0.9544
  431MOL0     C58054   8.444  11.166   2.784 -0.9050  0.1350 -0.4308
  431MOL0     C58055   8.496  11.085   2.886 -1.0148 -0.0747  1.1697
  431MOL0     C58056   8.568  11.135   2.993 -0.2219 -0.5232 -0.6879
  431MOL0     C58057   8.634  11.265   2.982 -0.8547  0.7833  0.0458
  431MOL0     O58058   8.741  11.286   3.071 -0.1542  0.4725 -0.0757
  431MOL0     C58059   8.783  11.426   3.078 -0.3457  0.6144 -0.4234
  431MOL0     C58060   8.858  11.465   3.207  0.0478 -0.5312  0.7226
  431MOL0     C58061   8.959  11.352   3.218 -0.4232  0.3693  0.5725
  431MOL0     C58062   9.083  11.379   3.313  0.4396 -0.6443 -0.1080
  431MOL0     C58063   9.164  11.248   3.363  0.5758 -0.1192  0.1534
  431MOL0     C58064   9.283  11.284   3.455 -0.0358  0.4699 -0.4735
  431MOL0     C58065   9.424  11.287   3.382 -0.2270  0.2294 -0.8867
  431MOL0     C58066   9.491  11.154   3.345  0.4198 -0.0784 -0.9037
  431MOL0     N58067   9.641  11.155   3.354  0.6179  0.7769  0.1401
  431MOL0     C58068   9.723  11.061   3.409  1.2853  0.2784 -0.0318
  431MOL0     C58069   9.845  11.090   3.367 -0.1662 -0.8112  0.0014
  431MOL0     C58070   9.962  11.003   3.402 -0.1032  0.3286  0.2564
  431MOL0     C58071   9.983  10.900   3.303 -0.7494  0.0481  0.5099
  431MOL0     C58072  10.068  10.961   3.187 -0.3982 -0.2418  0.5990
  431MOL0     C58073  10.062  10.864   3.066  0.4973 -0.0972  0.8280
  431MOL0     O58074   9.994  10.916   2.956  0.8341  0.0507 -0.2977
  431MOL0     C58075  10.014  10.853   2.840 -0.7745 -0.5339  0.7720
  431MOL0     C58076  10.007  10.713   2.826 -0.8678  0.4426  0.1642
  431MOL0     C58077  10.039  10.643   2.716 -0.3774  0.3553 -0.4187
  431MOL0     C58078  10.041  10.487   2.724 -0.5367 -0.6125  0.5368
  431MOL0     C58079  10.068  10.724   2.601 -0.9138  0.6014  0.2780
  431MOL0     C58080  10.109  10.666   2.477 -0.7079 -0.0215 -0.0322
  431MOL0     O58081  10.199  10.581   2.472 -0.6082 -0.3387  0.5428
  431MOL0     C58082  10.224  10.523   2.350 -0.6152 -0.4306 -0.0222
  431MOL0     C58083  10.210  10.379   2.359 -0.8968 -0.2177 -0.0420
  431MOL0     C58084  10.265  10.306   2.246 -1.3652 -1.2288  0.6641
  431MOL0     C58085  10.316  10.367   2.129 -0.6743 -0.0498  0.6656
  431MOL0     O58086  10.380  10.296   2.017 -0.5921 -0.5702  0.3476
  431MOL0     C58087  10.360  10.154   1.992 -0.1876 -0.0642  0.0778
  431MOL0     C58088  10.454  10.061   2.080 -0.5198 -0.6809 -0.2485
  431MOL0     C58089  10.591  10.053   2.014 -0.1650  0.3317 -0.5192
  431MOL0     C58090  10.626  10.005   1.868 -0.3842 -0.0678  0.8878
  431MOL0     C58091  10.532   9.890   1.816  0.1141  0.2305 -0.5521
  431MOL0     C58092  10.553   9.864   1.660  0.3093 -0.4371 -0.1886
  431MOL0     C58093  10.475   9.741   1.612  0.7064 -0.1056  0.8936
  431MOL0     C58094  10.452   9.747   1.463  0.1175 -0.3760  0.2916
  431MOL0    Cl58095  10.579   9.669   1.364  0.2738 -0.0026 -0.5027
  431MOL0     C58096  10.323  10.504   2.133  0.1271  0.3299 -0.0610
  431MOL0     C58097  10.277  10.582   2.236 -0.2773 -0.1706 -0.0081
  431MOL0     O58098  10.041  10.704   2.385  0.4670 -0.1910 -0.3408
  431MOL0     C58099  10.074  10.864   2.605  0.1650  0.9299 -1.1161
  431MOL0     C58100  10.048  10.926   2.729  1.1726  0.1190 -0.7848
  431MOL0     N58101   9.831  11.205   3.288  0.4730 -0.3209  0.5943
  431MOL0     N58102   9.710  11.244   3.274 -0.3193 -0.4930  0.8469
  431MOL0     C58103   8.605  11.347   2.868 -0.5346  0.3323  0.3355
  431MOL0     C58104   8.505  11.302   2.776  0.0141  0.4890  0.6837
  431MOL0     C58105   8.137  11.132   2.614  0.0656  0.9096 -0.1773
  431MOL0     C58106   8.154  11.078   2.483  0.3743  1.2915 -0.0900
  431MOL0     C58107   8.061  11.105   2.381 -0.6516  0.4565 -0.2918
  431MOL0     C58108   7.948  11.190   2.395 -1.2436  0.2384  0.4588
  431MOL0     O58109   7.881  11.220   2.280  0.9537 -0.5087 -0.3222
  431MOL0     C58110   7.848  11.356   2.281  0.5660 -1.1969 -0.4183
  431MOL0     C58111   7.784  11.400   2.154 -0.1650  0.3225  0.0345
  431MOL0     C58112   7.877  11.392   2.035  0.9290  0.0532 -0.3098
  431MOL0     C58113   7.786  11.421   1.918  0.1202  0.3163  0.7873
  431MOL0     C58114   7.870  11.439   1.794  0.2675  0.4999  0.8139
  431MOL0     C58115   7.938  11.440   1.690  0.1491  0.1568  0.2354
  431MOL0     C58116   7.928  11.235   2.530  0.1027 -0.3310  0.4502
  431MOL0     C58117   8.019  11.216   2.637 -0.2385  0.4107  0.2011
  431MOL0     H58118   8.468  10.980   2.877 -1.7082  0.2496 -4.4143
  431MOL0     H58119   8.592  11.073   3.078  0.1311  2.0359  1.2034
  431MOL0     H58120   8.839  11.462   2.992 -1.4769  0.6781 -1.1621
  431MOL0     H58121   8.695  11.491   3.073  0.4684  1.7180 -0.6993
  431MOL0     H58122   8.913  11.557   3.188  0.6191 -0.9851  0.1207
  431MOL0     H58123   8.787  11.465   3.290  1.9852 -1.0769  2.4804
  431MOL0     H58124   8.912  11.261   3.255  0.8154  0.1410  1.6506
  431MOL0     H58125   9.012  11.335   3.124  1.7970 -2.0490  2.1182
  431MOL0     H58126   9.154  11.455   3.277  1.8005 -2.4716 -1.4699
  431MOL0     H58127   9.046  11.425   3.405 -0.3269 -2.2446  0.4170
  431MOL0     H58128   9.088  11.188   3.415  1.0678 -3.3177 -2.5049
  431MOL0     H58129   9.203  11.205   3.271 -1.2050  2.2962 -1.8770
  431MOL0     H58130   9.266  11.383   3.498 -0.1176  0.2250  0.0747
  431MOL0     H58131   9.287  11.216   3.541  2.6400 -0.2834 -1.0914
  431MOL0     H58132   9.415  11.351   3.294 -2.8985  0.1071 -0.7906
  431MOL0     H58133   9.492  11.338   3.451 -3.5330 -0.0429  2.9558
  431MOL0     H58134   9.466  11.127   3.242 -4.7838  0.6413 -0.0819
  431MOL0     H58135   9.452  11.073   3.407 -1.8380 -0.6508 -2.9449
  431MOL0     H58136   9.694  10.965   3.450  0.2276 -0.5748 -2.5235
  431MOL0     H58137  10.047  11.071   3.416  2.0116 -2.2716  0.8693
  431MOL0     H58138   9.952  10.959   3.502  3.6574 -0.2175  0.5302
  431MOL0     H58139   9.889  10.867   3.258  0.2167  1.3208 -2.7628
  431MOL0     H58140  10.029  10.815   3.352 -1.6342  0.5164  2.2097
  431MOL0     H58141  10.169  10.957   3.227 -0.2298 -2.2779  0.1110
  431MOL0     H58142  10.027  11.058   3.159 -1.0816 -0.2156  1.6400
  431MOL0     H58143  10.024  10.762   3.075 -2.1782  0.7472  0.0384
  431MOL0     H58144  10.168  10.851   3.043  1.1025 -0.0684  3.3544
  431MOL0     H58145   9.980  10.649   2.909  3.5760  0.4454  1.8954
  431MOL0     H58146  10.048  10.461   2.830  3.2567  3.9572  1.7475
  431MOL0     H58147   9.950  10.465   2.667 -1.1086  5.0946 -1.3527
  431MOL0     H58148  10.126  10.449   2.668  0.5832  2.1506  0.2445
  431MOL0     H58149  10.153  10.343   2.444  1.4696 -0.5003  1.4939
  431MOL0     H58150  10.260  10.199   2.258  0.6086 -1.5327 -0.6454
  431MOL0     H58151  10.256  10.118   2.000 -0.0051 -1.3151 -2.1881
  431MOL0     H58152  10.389  10.141   1.888 -2.9043 -1.1442 -0.6564
  431MOL0     H58153  10.465  10.111   2.177 -0.9430  1.9547 -1.4502
  431MOL0     H58154  10.403   9.965   2.085 -1.0953 -0.4068 -0.6597
  431MOL0     H58155  10.647   9.991   2.086 -1.8614  0.3071  0.8695
  431MOL0     H58156  10.640  10.151   2.013  0.7707 -0.1263 -2.0308
  431MOL0     H58157  10.599  10.091   1.806 -1.3805 -0.1533  1.1774
  431MOL0     H58158  10.731   9.976   1.858 -1.0089 -2.6772  1.0843
  431MOL0     H58159  10.427   9.906   1.839  0.6357  2.5298  0.5314
  431MOL0     H58160  10.572   9.802   1.869  1.0793 -1.2332 -3.5140
  431MOL0     H58161  10.526   9.953   1.602  5.1434  2.0855  0.9201
  431MOL0     H58162  10.661   9.857   1.644  0.4373  0.7774  0.0293
  431MOL0     H58163  10.373   9.733   1.653  0.5624  3.2796  1.4580
  431MOL0     H58164  10.531   9.650   1.636  1.7929  0.6893  1.4156
  431MOL0     H58165  10.426   9.849   1.434  0.1466  0.7435  3.8514
  431MOL0     H58166  10.359   9.694   1.439 -0.4152  2.2905 -5.0771
  431MOL0     H58167  10.372  10.551   2.049 -0.8376  1.8983  0.2090
  431MOL0     H58168  10.285  10.690   2.232 -0.1073 -0.1897 -0.2027
  431MOL0     H58169  10.089  10.923   2.516 -1.8062  0.7236 -1.6402
  431MOL0     H58170  10.074  11.032   2.732  0.4201  0.3160 -0.8050
  431MOL0     H58171   8.652  11.445   2.859  1.4924 -0.6137 -0.1275
  431MOL0     H58172   8.482  11.378   2.703  1.1868  0.9298  0.7555
  431MOL0     H58173   8.231  11.005   2.462 -1.1642 -0.4098 -0.1269
  431MOL0     H58174   8.074  11.053   2.287 -0.7451  0.1084 -0.1151
  431MOL0     H58175   7.781  11.378   2.364  3.8583 -1.4262  2.5188
  431MOL0     H58176   7.937  11.419   2.285 -1.0676  1.1989  0.2309
  431MOL0     H58177   7.748  11.499   2.181 -1.7309 -0.7100  2.0249
  431MOL0     H58178   7.702  11.330   2.135  1.8348 -1.6121 -2.0729
  431MOL0     H58179   7.930  11.297   2.028  1.8614  0.6481 -5.4332
  431MOL0     H58180   7.958  11.465   2.030  0.9446  0.0089 -0.7773
  431MOL0     H58181   7.732  11.514   1.939  1.3050  0.6928  2.3038
  431MOL0     H58182   7.712  11.345   1.889  0.7516  1.4060 -4.9503
  431MOL0     H58183   7.976  11.460   1.592 -0.0235 -0.5881  0.0082
  431MOL0     H58184   7.836  11.291   2.546 -0.3213 -0.1492 -2.1823
  431MOL0     H58185   7.999  11.248   2.739 -2.7524  2.9935 -0.9665
  432MOL0     O58186   0.251   7.969   9.151  0.1597 -0.0238  0.1701
  432MOL0     C58187   0.254   8.058   9.073  0.1877 -0.6456 -0.0100
  432MOL0     O58188   0.349   8.071   8.972  0.0168 -0.5017  0.0825
  432MOL0     C58189   0.396   7.965   8.899 -0.8169  1.1547  0.3035
  432MOL0     C58190   0.485   7.989   8.787  0.4494 -0.3231  0.6723
  432MOL0     C58191   0.540   7.892   8.707 -0.2718  0.8432  0.1275
  432MOL0     C58192   0.536   7.757   8.740  0.1642 -0.2015  0.4029
  432MOL0     O58193   0.601   7.663   8.659 -0.1876 -0.1125 -0.7043
  432MOL0     C58194   0.629   7.541   8.738  1.1617 -0.0727  0.1742
  432MOL0     C58195   0.531   7.430   8.678  0.6363  0.0792  0.2612
  432MOL0     C58196   0.575   7.381   8.544  0.1069  0.0562 -0.3015
  432MOL0     C58197   0.480   7.268   8.491 -0.2825  0.4206  0.0509
  432MOL0     C58198   0.492   7.133   8.565  0.2318  0.1155  0.9478
  432MOL0     C58199   0.409   7.020   8.507 -0.2802  0.0187  0.1681
  432MOL0     C58200   0.458   6.884   8.561  0.2698 -1.2667 -0.3171
  432MOL0     C58201   0.367   6.777   8.501  1.0986  0.6854 -0.0589
  432MOL0     N58202   0.351   6.787   8.356  1.0733  0.5742  0.3581
  432MOL0     C58203   0.231   6.821   8.294 -0.2661 -0.5450  0.9943
  432MOL0     C58204   0.248   6.797   8.162  0.3272  0.2727  0.1885
  432MOL0     C58205   0.141   6.815   8.057 -1.4211 -0.1802 -0.0360
  432MOL0     C58206   0.164   6.725   7.939  0.0622  0.8795  0.1349
  432MOL0     C58207   0.267   6.769   7.834 -0.2792  0.1460 -0.0837
  432MOL0     C58208   0.293   6.648   7.735  1.1370  0.4210  0.4996
  432MOL0     O58209   0.430   6.657   7.704 -0.2879  0.1601 -0.1841
  432MOL0     C58210   0.452   6.723   7.581 -0.3616 -1.1206 -1.2125
  432MOL0     C58211   0.512   6.849   7.574 -0.4370 -0.1557  0.4113
  432MOL0     C58212   0.538   6.903   7.443  0.4194 -0.5093 -0.0524
  432MOL0     C58213   0.587   7.048   7.416  0.6184  0.6174 -0.5300
  432MOL0     C58214   0.501   6.819   7.327 -0.4476 -1.3064 -0.7887
  432MOL0     C58215   0.517   6.867   7.188  0.9821  1.2015 -0.7406
  432MOL0     O58216   0.527   6.776   7.091  0.1006  0.3558  0.0731
  432MOL0     C58217   0.473   6.795   6.970 -0.5154 -0.0654  0.0531
  432MOL0     C58218   0.555   6.842   6.863 -0.2482 -0.2694  0.2552
  432MOL0     C58219   0.511   6.856   6.728  0.2621  0.9916 -0.0938
  432MOL0     C58220   0.373   6.823   6.709  0.4486  0.1525 -0.0837
  432MOL0     O58221   0.322   6.833   6.583  0.7374 -1.1942  0.1684
  432MOL0     C58222   0.191   6.789   6.546  0.5416 -0.2312 -0.0172
  432MOL0     C58223   0.191   6.743   6.407 -0.5849 -0.4342  0.3867
  432MOL0     C58224   0.241   6.847   6.304  0.6687  0.1219 -0.8536
  432MOL0     C58225   0.160   6.980   6.286  0.1470 -1.1124 -0.2953
  432MOL0     C58226   0.179   7.059   6.157 -0.3093 -0.0900 -0.6688
  432MOL0     C58227   0.109   7.008   6.039  0.0980 -1.4702  0.2362
  432MOL0     C58228   0.182   7.067   5.916 -0.1735 -0.0464  1.1953
  432MOL0     C58229   0.109   7.017   5.794  0.6173 -0.1853  0.4946
  432MOL0    Cl58230   0.128   6.825   5.783  0.5369  0.1573  0.3712
  432MOL0     C58231   0.296   6.776   6.818 -0.1057  0.1015 -1.5374
  432MOL0     C58232   0.347   6.753   6.946  1.0074 -0.1602  0.1198
  432MOL0     O58233   0.493   6.988   7.161 -0.4659 -0.5591  0.3348
  432MOL0     C58234   0.446   6.694   7.344 -0.0795 -0.8237  0.0346
  432MOL0     C58235   0.423   6.647   7.472 -0.0519  0.5080  0.2510
  432MOL0     N58236   0.382   6.762   8.148  0.1911 -0.4712  0.8126
  432MOL0     N58237   0.432   6.743   8.260 -0.1587 -0.2582  0.0878
  432MOL0     C58238   0.446   7.731   8.853 -0.0119 -0.3483 -0.0911
  432MOL0     C58239   0.377   7.828   8.925  1.3331 -0.6058  0.2190
  432MOL0     C58240   0.178   8.182   9.103  0.9114  0.7736  0.0131
  432MOL0     C58241   0.089   8.179   9.215  0.6815  0.5844 -0.0582
  432MOL0     C58242   0.020   8.291   9.252  0.2021  0.5698  0.3340
  432MOL0     C58243   0.030   8.406   9.185 -0.5768 -0.2985 -0.2903
  432MOL0     O58244  -0.054   8.509   9.224  0.2502  0.5791 -0.1755
  432MOL0     C58245  -0.072   8.625   9.141  0.2603 -0.8172 -1.0988
  432MOL0     C58246  -0.112   8.604   8.994  0.1932 -0.3034 -0.9033
  432MOL0     C58247  -0.096   8.729   8.904 -0.7324  0.1108 -0.0332
  432MOL0     C58248  -0.147   8.693   8.763 -0.2231 -0.6261 -0.2951
  432MOL0     C58249  -0.298   8.657   8.760 -0.1198  0.4861 -0.4441
  432MOL0     C58250  -0.413   8.639   8.752 -0.2526 -0.1131  0.1848
  432MOL0     C58251   0.137   8.424   9.094  0.0910 -0.1877 -0.2775
  432MOL0     C58252   0.209   8.310   9.048 -0.5305  0.7057 -0.0119
  432MOL0     H58253   0.489   8.096   8.768 -1.0599 -0.3509  0.0683
  432MOL0     H58254   0.598   7.919   8.620  1.4636 -0.9292  0.6769
  432MOL0     H58255   0.731   7.509   8.714  0.7634 -1.9982  0.8442
  432MOL0     H58256   0.629   7.559   8.846  1.8690  2.9819 -0.2350
  432MOL0     H58257   0.527   7.338   8.737  0.4049 -2.0204 -2.7661
  432MOL0     H58258   0.429   7.469   8.671  1.6032  3.0080  1.3175
  432MOL0     H58259   0.578   7.466   8.475  1.0978 -1.4028 -2.1534
  432MOL0     H58260   0.671   7.332   8.565  0.2381  0.5681  0.3200
  432MOL0     H58261   0.378   7.305   8.499 -0.2237  0.5457  0.2172
  432MOL0     H58262   0.506   7.250   8.386 -1.5715 -1.2736 -0.0216
  432MOL0     H58263   0.597   7.103   8.574 -0.0209 -0.7424  1.2093
  432MOL0     H58264   0.466   7.144   8.670  0.2705 -1.7166  1.1882
  432MOL0     H58265   0.304   7.037   8.529 -0.6462 -0.8926 -0.7883
  432MOL0     H58266   0.431   7.025   8.400 -0.5283 -1.5840  0.0118
  432MOL0     H58267   0.564   6.879   8.534  1.4587  0.4260  3.3226
  432MOL0     H58268   0.460   6.884   8.671 -0.0209 -2.7785 -0.2929
  432MOL0     H58269   0.264   6.767   8.536 -0.1335  1.8469 -3.0512
  432MOL0     H58270   0.418   6.683   8.524 -1.1655 -0.9498 -1.2552
  432MOL0     H58271   0.142   6.862   8.342 -0.5022  0.6831 -0.4287
  432MOL0     H58272   0.051   6.773   8.102 -1.2188 -2.9402 -1.9957
  432MOL0     H58273   0.127   6.920   8.029  0.4950  0.0819 -0.2115
  432MOL0     H58274   0.069   6.724   7.885 -0.0593  1.2181  0.3323
  432MOL0     H58275   0.186   6.624   7.975  0.1718  1.2458  1.1308
  432MOL0     H58276   0.359   6.800   7.885  1.1237 -0.4672 -2.1181
  432MOL0     H58277   0.233   6.857   7.779  2.7386  1.9795  0.7395
  432MOL0     H58278   0.222   6.663   7.653 -0.9450 -1.2449  1.8767
  432MOL0     H58279   0.271   6.552   7.782 -1.1045  0.3740 -0.4970
  432MOL0     H58280   0.549   6.894   7.665  1.9386 -0.1487 -0.4896
  432MOL0     H58281   0.517   7.123   7.380  1.7516  1.8492 -0.2334
  432MOL0     H58282   0.606   7.101   7.509 -3.4484  1.7433 -0.1386
  432MOL0     H58283   0.685   7.039   7.369  1.2172  3.0485  0.1553
  432MOL0     H58284   0.654   6.867   6.898  0.2899 -0.9367 -0.7225
  432MOL0     H58285   0.580   6.872   6.646  1.3493  0.9797  0.7922
  432MOL0     H58286   0.184   6.703   6.614  3.2312  1.6603  2.9934
  432MOL0     H58287   0.113   6.864   6.551 -0.8129 -1.5611 -0.5196
  432MOL0     H58288   0.243   6.647   6.408  1.2531  0.4896  1.8269
  432MOL0     H58289   0.091   6.712   6.378  0.1715 -3.9055  1.0377
  432MOL0     H58290   0.230   6.788   6.213  0.4636 -2.6067  0.8322
  432MOL0     H58291   0.350   6.858   6.308  1.2375 -3.4480 -2.7572
  432MOL0     H58292   0.055   6.979   6.318  0.6509  2.7840  2.1817
  432MOL0     H58293   0.203   7.049   6.360  1.3738 -1.9923 -0.1526
  432MOL0     H58294   0.287   7.062   6.139 -0.3026  0.4755 -0.5472
  432MOL0     H58295   0.144   7.162   6.168  1.7314  0.6077 -0.1335
  432MOL0     H58296   0.122   6.900   6.028 -1.7092 -1.8067  1.0490
  432MOL0     H58297   0.001   7.019   6.048  0.2044 -1.9151  2.8334
  432MOL0     H58298   0.289   7.044   5.918  0.7130  3.5141  1.3616
  432MOL0     H58299   0.186   7.176   5.920  0.7937 -0.0789  1.3631
  432MOL0     H58300   0.154   7.060   5.703  0.9664 -2.0918 -0.2877
  432MOL0     H58301   0.001   7.034   5.795  0.4352 -1.0943  3.0766
  432MOL0     H58302   0.191   6.761   6.798 -0.7580  0.7922  0.9401
  432MOL0     H58303   0.286   6.701   7.020 -0.6844 -1.0685 -1.7974
  432MOL0     H58304   0.420   6.633   7.258 -1.2431 -1.8754  1.0883
  432MOL0     H58305   0.380   6.547   7.477  1.2305 -0.0263  1.3190
  432MOL0     H58306   0.424   7.635   8.899  0.6162  0.7767  2.7531
  432MOL0     H58307   0.315   7.795   9.007  0.3995 -0.4520 -0.4136
  432MOL0     H58308   0.075   8.087   9.270  0.9938 -1.0775 -2.6021
  432MOL0     H58309  -0.050   8.276   9.333 -1.0244 -1.0279 -0.9460
  432MOL0     H58310  -0.140   8.695   9.193 -0.1629 -1.5210 -0.6890
  432MOL0     H58311   0.019   8.684   9.157 -0.7787  0.9221 -1.3274
  432MOL0     H58312  -0.220   8.594   8.994  0.0615  0.7192  0.6777
  432MOL0     H58313  -0.060   8.518   8.951  1.3249 -0.4906  0.7543
  432MOL0     H58314   0.005   8.769   8.894  0.3507 -2.2104  0.8984
  432MOL0     H58315  -0.143   8.815   8.952 -2.2150 -0.7052  0.0449
  432MOL0     H58316  -0.083   8.623   8.708 -1.3378 -0.3987 -1.9533
  432MOL0     H58317  -0.147   8.786   8.706 -0.2505 -1.2089 -1.2825
  432MOL0     H58318  -0.514   8.619   8.721  0.4331 -0.3349 -2.1048
  432MOL0     H58319   0.150   8.518   9.041 -0.1281 -0.0766 -0.1354
  432MOL0     H58320   0.286   8.325   8.974 -1.4805 -0.2991 -1.2653
  433MOL0     O58321  10.128   0.724   3.468 -0.1744  0.2881  0.3892
  433MOL0     C58322  10.021   0.734   3.410 -0.3899  0.3124  0.2971
  433MOL0     O58323   9.995   0.774   3.283  0.5299 -0.8340  0.2891
  433MOL0     C58324  10.099   0.814   3.213  1.1661  0.4566  0.4981
  433MOL0     C58325  10.162   0.933   3.241  0.0285 -0.2775  0.2287
  433MOL0     C58326  10.267   0.978   3.159  0.3729  0.7683  0.5466
  433MOL0     C58327  10.310   0.896   3.047  1.0912  0.1865  1.0975
  433MOL0     O58328  10.434   0.907   2.975  0.1761 -0.3739  0.2097
  433MOL0     C58329  10.516   1.028   2.995  0.7478  0.6688  0.8940
  433MOL0     C58330  10.644   1.007   2.924 -0.1048  0.4474  0.2402
  433MOL0     C58331  10.727   0.891   2.986  0.8439 -0.8170 -0.7455
  433MOL0     C58332  10.743   0.771   2.882  0.0795  0.2462 -1.0406
  433MOL0     C58333  10.608   0.699   2.876 -0.4668  0.0730  1.3701
  433MOL0     C58334  10.626   0.579   2.781  1.3658  0.1038 -0.1268
  433MOL0     C58335  10.491   0.522   2.744 -0.3854 -0.4728 -0.3860
  433MOL0     C58336  10.414   0.449   2.852  0.6959  0.0327  0.2315
  433MOL0     N58337  10.282   0.417   2.803  0.0680 -0.1523 -0.6893
  433MOL0     C58338  10.250   0.289   2.759 -0.3543 -0.0117 -1.1385
  433MOL0     C58339  10.134   0.307   2.705  1.0311 -0.4163  0.0020
  433MOL0     C58340  10.043   0.196   2.657 -0.1852  0.4638  0.1423
  433MOL0     C58341  10.044   0.063   2.733 -0.7463  0.9464 -0.5355
  433MOL0     C58342   9.958  -0.038   2.660 -0.5379 -0.8718 -0.4293
  433MOL0     C58343   9.932  -0.161   2.744 -0.6630 -0.3853  0.5996
  433MOL0     O58344   9.872  -0.274   2.670 -0.6776 -0.4144 -0.2308
  433MOL0     C58345   9.744  -0.265   2.613  1.0008  0.9200  0.0231
  433MOL0     C58346   9.649  -0.165   2.643  1.0034 -0.0105  0.1455
  433MOL0     C58347   9.518  -0.164   2.587  0.8361  0.2863  0.8362
  433MOL0     C58348   9.428  -0.041   2.603 -0.0685  0.1972 -0.4629
  433MOL0     C58349   9.480  -0.274   2.499 -0.5065  0.0789 -0.6049
  433MOL0     C58350   9.340  -0.297   2.452 -0.2201 -1.3028 -1.3445
  433MOL0     O58351   9.308  -0.429   2.437 -0.3762 -0.8305 -0.6947
  433MOL0     C58352   9.205  -0.463   2.352 -0.5380 -0.3650 -0.8445
  433MOL0     C58353   9.120  -0.558   2.403 -0.5211 -0.1913  0.7757
  433MOL0     C58354   9.011  -0.597   2.323  0.9812 -0.2466  0.4925
  433MOL0     C58355   8.967  -0.536   2.205  0.1187  0.1523  0.0982
  433MOL0     O58356   8.854  -0.563   2.125 -0.1503  0.1823 -0.0316
  433MOL0     C58357   8.756  -0.654   2.171  0.3706 -0.6694  0.7305
  433MOL0     C58358   8.777  -0.795   2.110  0.3261 -0.1074 -0.0615
  433MOL0     C58359   8.915  -0.862   2.115 -0.1700 -0.0719 -0.4404
  433MOL0     C58360   8.942  -0.960   2.226 -0.3072 -0.4589 -0.5702
  433MOL0     C58361   9.102  -0.995   2.235 -0.2746 -0.4279  0.1736
  433MOL0     C58362   9.140  -1.092   2.350 -0.0529  0.1885 -0.2145
  433MOL0     C58363   9.059  -1.228   2.332  0.4322  0.1161  0.1868
  433MOL0     C58364   9.126  -1.342   2.420 -0.5431 -1.1014  0.3481
  433MOL0    Cl58365   9.081  -1.500   2.358  0.2450 -0.3328 -0.7841
  433MOL0     C58366   9.050  -0.430   2.161 -0.0773 -0.5514 -1.0732
  433MOL0     C58367   9.165  -0.396   2.240 -0.4209 -1.1946  0.2520
  433MOL0     O58368   9.277  -0.202   2.412  0.2107  0.0210  1.1125
  433MOL0     C58369   9.574  -0.374   2.480 -1.1962 -0.2970 -0.5754
  433MOL0     C58370   9.703  -0.370   2.533  0.8809  0.8102  0.0889
  433MOL0     N58371  10.087   0.433   2.723 -0.2334  1.1663  0.0826
  433MOL0     N58372  10.172   0.503   2.780  1.1217 -0.4252  0.1427
  433MOL0     C58373  10.233   0.779   3.019 -0.1496 -0.0879 -0.2783
  433MOL0     C58374  10.134   0.740   3.103  0.7822 -0.2168  0.3979
  433MOL0     C58375   9.903   0.702   3.485 -0.5456  0.5503 -0.2024
  433MOL0     C58376   9.912   0.646   3.622 -0.3305 -0.8294  0.3038
  433MOL0     C58377   9.786   0.610   3.674  0.1288 -0.2781 -0.4160
  433MOL0     C58378   9.664   0.622   3.618 -0.8359  0.8178 -0.6566
  433MOL0     O58379   9.550   0.591   3.696 -1.5349  0.1092  0.8109
  433MOL0     C58380   9.496   0.708   3.767 -0.2122  0.1167  0.4613
  433MOL0     C58381   9.348   0.685   3.795  1.3189 -0.0787 -0.4674
  433MOL0     C58382   9.267   0.694   3.664 -0.2437 -0.0945  0.3448
  433MOL0     C58383   9.120   0.728   3.681  0.0008 -0.0164 -0.4312
  433MOL0     C58384   9.097   0.871   3.735  0.5928 -0.1169 -0.9241
  433MOL0     C58385   9.080   0.985   3.784 -1.5011 -1.0204  0.0167
  433MOL0     C58386   9.657   0.675   3.487  0.5585  0.8356  0.1482
  433MOL0     C58387   9.775   0.706   3.418 -0.3745 -0.4098  0.5503
  433MOL0     H58388  10.136   0.994   3.327  2.8111  1.2793  0.0847
  433MOL0     H58389  10.330   1.062   3.186  0.9829  2.3967 -4.6587
  433MOL0     H58390  10.464   1.116   2.956 -0.2308  0.1868  1.0877
  433MOL0     H58391  10.546   1.046   3.099 -0.9527  2.3905  1.1341
  433MOL0     H58392  10.603   0.979   2.826 -3.2949 -2.1212  2.0935
  433MOL0     H58393  10.690   1.105   2.913 -3.0900  1.6963 -5.0749
  433MOL0     H58394  10.826   0.930   3.012  1.0854 -2.0452  0.2691
  433MOL0     H58395  10.682   0.850   3.077  1.6953 -0.5720 -0.2024
  433MOL0     H58396  10.779   0.807   2.785  0.8815 -2.1569 -1.7042
  433MOL0     H58397  10.824   0.708   2.919  1.5257  1.5834 -1.7811
  433MOL0     H58398  10.574   0.684   2.979 -2.3693 -1.8090  0.5390
  433MOL0     H58399  10.539   0.767   2.823 -2.9122 -3.0573  0.2209
  433MOL0     H58400  10.680   0.605   2.690 -1.6189  1.7096 -1.5933
  433MOL0     H58401  10.676   0.499   2.837 -2.2385 -0.6105  2.3887
  433MOL0     H58402  10.431   0.605   2.705  3.3916  2.4852 -0.5521
  433MOL0     H58403  10.505   0.451   2.662  0.3642  1.4068 -1.9820
  433MOL0     H58404  10.405   0.518   2.937 -1.9543  1.5463 -1.1506
  433MOL0     H58405  10.464   0.360   2.891  0.6479 -1.2462 -2.4349
  433MOL0     H58406  10.314   0.203   2.777  2.4431  2.1450 -0.0423
  433MOL0     H58407   9.938   0.228   2.662 -0.4296 -0.5540  3.6109
  433MOL0     H58408  10.072   0.176   2.553  2.5964 -2.7754  1.3679
  433MOL0     H58409  10.004   0.071   2.835 -4.6082 -1.2043 -1.6808
  433MOL0     H58410  10.144   0.023   2.747  0.2200  3.8221  1.8598
  433MOL0     H58411  10.016  -0.062   2.571 -0.0572  3.3076 -1.4541
  433MOL0     H58412   9.868   0.017   2.631 -0.4809  1.3821  3.0336
  433MOL0     H58413   9.867  -0.140   2.829 -6.0565  0.0119 -3.0985
  433MOL0     H58414  10.027  -0.200   2.782 -0.8850 -1.0011  0.5394
  433MOL0     H58415   9.678  -0.081   2.705  0.6697  0.7956 -0.7563
  433MOL0     H58416   9.423   0.020   2.512 -0.2881  0.0573 -0.5430
  433MOL0     H58417   9.330  -0.075   2.637  0.0469  1.1430  0.8700
  433MOL0     H58418   9.468   0.025   2.681 -2.0831  2.2894 -1.1104
  433MOL0     H58419   9.155  -0.622   2.483 -0.6617  0.2319  1.1826
  433MOL0     H58420   8.946  -0.681   2.346  1.1535 -1.6265 -3.3095
  433MOL0     H58421   8.753  -0.666   2.280 -1.3279 -1.4362  0.6393
  433MOL0     H58422   8.659  -0.610   2.147  0.2231 -0.4255  1.7295
  433MOL0     H58423   8.702  -0.871   2.132 -0.8657  1.1613  0.3447
  433MOL0     H58424   8.763  -0.767   2.005 -1.2823 -1.1751 -0.1660
  433MOL0     H58425   8.986  -0.779   2.118 -0.8272  0.4966 -0.3474
  433MOL0     H58426   8.926  -0.917   2.021  2.9569 -0.7917  0.2666
  433MOL0     H58427   8.915  -0.931   2.328 -1.1198 -2.5005 -0.1630
  433MOL0     H58428   8.893  -1.054   2.198 -0.0813  0.0842 -3.0211
  433MOL0     H58429   9.161  -0.904   2.248 -1.5127  0.9009 -2.6484
  433MOL0     H58430   9.131  -1.047   2.144  0.9890  0.4118  0.0774
  433MOL0     H58431   9.247  -1.115   2.349 -0.2984 -1.0211 -0.1536
  433MOL0     H58432   9.116  -1.047   2.446  3.7649 -0.1186  1.0423
  433MOL0     H58433   9.062  -1.264   2.229 -1.9223 -0.0911  0.1383
  433MOL0     H58434   8.953  -1.214   2.357 -0.7183 -0.0639 -3.9042
  433MOL0     H58435   9.098  -1.337   2.526  1.3914 -0.4148  0.8561
  433MOL0     H58436   9.232  -1.319   2.426 -1.3941  3.4350  1.7728
  433MOL0     H58437   9.030  -0.380   2.067 -2.2991  0.8881  0.0919
  433MOL0     H58438   9.208  -0.304   2.202 -2.7316 -0.7367 -1.4715
  433MOL0     H58439   9.555  -0.471   2.436 -0.9037 -0.4248 -0.4226
  433MOL0     H58440   9.764  -0.458   2.516 -0.1142  0.2491 -0.7011
  433MOL0     H58441  10.261   0.719   2.933  1.7064 -0.9254  0.8415
  433MOL0     H58442  10.065   0.660   3.078  3.2509 -1.0992 -5.2284
  433MOL0     H58443  10.003   0.606   3.666 -0.0221 -1.2371 -0.6744
  433MOL0     H58444   9.780   0.566   3.773 -0.3712  0.6463 -0.0161
  433MOL0     H58445   9.548   0.730   3.861 -1.8805  2.9464  0.8551
  433MOL0     H58446   9.515   0.800   3.711  0.6469 -0.9402 -1.0587
  433MOL0     H58447   9.305   0.761   3.862  0.6802 -2.1935  1.6393
  433MOL0     H58448   9.329   0.584   3.832 -0.3278  1.1654  2.3992
  433MOL0     H58449   9.262   0.597   3.614 -0.0907  2.0919 -4.4146
  433MOL0     H58450   9.304   0.771   3.596 -1.9635 -0.1555 -0.6901
  433MOL0     H58451   9.070   0.654   3.744 -1.1911 -1.1850 -2.6350
  433MOL0     H58452   9.067   0.721   3.586 -1.6104  3.4686  0.0489
  433MOL0     H58453   9.054   1.082   3.821  0.9291  0.3534 -1.5761
  433MOL0     H58454   9.559   0.675   3.439 -0.1653 -4.3005  1.0826
  433MOL0     H58455   9.761   0.720   3.311 -3.1308  1.4147  1.0363
  434MOL0     O58456   4.106   7.055   5.423  0.5173  0.5370  0.3173
  434MOL0     C58457   4.099   7.105   5.533 -0.5999  0.3455  0.9705
  434MOL0     O58458   4.009   7.196   5.566  0.1976  1.0187 -0.4770
  434MOL0     C58459   3.926   7.260   5.470  0.2577 -0.0180 -0.2154
  434MOL0     C58460   3.943   7.403   5.463  0.0368  0.5834 -0.1650
  434MOL0     C58461   3.869   7.486   5.375  0.3639  0.2547 -0.6691
  434MOL0     C58462   3.788   7.418   5.278 -0.0919 -0.6536  0.1134
  434MOL0     O58463   3.754   7.482   5.160 -0.1046 -0.3004  0.6753
  434MOL0     C58464   3.622   7.527   5.147  0.2773  0.7239 -0.6091
  434MOL0     C58465   3.626   7.677   5.108 -0.4622  0.2169 -0.3833
  434MOL0     C58466   3.683   7.705   4.962 -0.9597 -0.2196 -1.0729
  434MOL0     C58467   3.678   7.858   4.938  0.4304 -0.8182  0.0350
  434MOL0     C58468   3.716   7.916   4.810 -0.0757 -0.9231  0.0718
  434MOL0     C58469   3.622   7.875   4.683  0.2823 -1.3871 -0.0239
  434MOL0     C58470   3.695   7.898   4.561 -0.5027  1.2642  0.3675
  434MOL0     C58471   3.686   8.050   4.524 -0.1530  0.2773  0.3612
  434MOL0     N58472   3.760   8.069   4.397  0.8338 -1.1392  0.4959
  434MOL0     C58473   3.701   8.118   4.280  0.2744  1.1688  0.6537
  434MOL0     C58474   3.815   8.141   4.202 -0.1171 -0.7236 -0.3115
  434MOL0     C58475   3.796   8.223   4.079  0.0009  1.3752  0.0128
  434MOL0     C58476   3.924   8.274   4.028 -0.4885  0.3764 -0.0837
  434MOL0     C58477   3.910   8.386   3.917  0.2434  0.6509  0.1946
  434MOL0     C58478   3.810   8.348   3.811 -0.5155 -0.5060  0.4507
  434MOL0     O58479   3.851   8.409   3.685 -0.3234  0.0258 -0.2301
  434MOL0     C58480   3.817   8.351   3.571 -0.3897 -0.6543  0.1029
  434MOL0     C58481   3.737   8.237   3.560  0.6650 -0.0589  0.0460
  434MOL0     C58482   3.710   8.183   3.439  0.3162 -0.5178  0.2956
  434MOL0     C58483   3.598   8.085   3.448 -0.0104  1.2466 -0.1207
  434MOL0     C58484   3.774   8.223   3.316 -0.6958  0.0449  0.5697
  434MOL0     C58485   3.724   8.179   3.186 -0.1339  1.0856 -0.7833
  434MOL0     O58486   3.828   8.094   3.127  0.0198 -0.1029  0.3163
  434MOL0     C58487   3.806   8.038   3.006 -0.6803  0.6998 -0.3451
  434MOL0     C58488   3.784   7.894   3.004 -0.8524  0.0658  0.1254
  434MOL0     C58489   3.748   7.834   2.885 -0.6002  0.6211  0.5758
  434MOL0     C58490   3.756   7.906   2.768  0.5306 -0.5077  0.3541
  434MOL0     O58491   3.722   7.859   2.650 -0.8933 -0.6714 -0.2303
  434MOL0     C58492   3.838   7.836   2.557  0.0928  1.6811 -0.1561
  434MOL0     C58493   3.792   7.803   2.417 -0.0430 -0.3664 -0.5883
  434MOL0     C58494   3.650   7.735   2.411  1.3000 -0.0427  0.6426
  434MOL0     C58495   3.660   7.604   2.486 -0.5187  0.1070  0.2056
  434MOL0     C58496   3.578   7.493   2.420 -0.3153 -0.3068 -1.0777
  434MOL0     C58497   3.427   7.502   2.439 -0.6460  0.3949 -0.5443
  434MOL0     C58498   3.350   7.362   2.441 -0.4087 -0.4672  0.2892
  434MOL0     C58499   3.217   7.353   2.504  0.2594  0.4788  0.7533
  434MOL0    Cl58500   3.149   7.189   2.486  0.1690 -0.5281  0.2108
  434MOL0     C58501   3.794   8.042   2.773 -0.2479 -0.6881 -0.2020
  434MOL0     C58502   3.809   8.111   2.894 -0.5889 -0.6202 -0.3555
  434MOL0     O58503   3.612   8.200   3.150  0.5900 -0.9397 -0.4142
  434MOL0     C58504   3.859   8.327   3.323 -0.5798  0.1227 -0.6977
  434MOL0     C58505   3.875   8.395   3.448 -0.4133  0.3216  0.0125
  434MOL0     N58506   3.922   8.118   4.279 -0.3769 -0.3454 -0.0069
  434MOL0     N58507   3.897   8.072   4.391  0.5684 -0.1711 -0.2115
  434MOL0     C58508   3.779   7.284   5.281  1.2810  1.2337 -0.9529
  434MOL0     C58509   3.844   7.201   5.375  0.0032  0.3436 -0.0390
  434MOL0     C58510   4.206   7.088   5.638  0.6870 -0.2354 -0.1532
  434MOL0     C58511   4.328   7.019   5.593  0.0932  1.4957 -0.1325
  434MOL0     C58512   4.433   6.995   5.684  0.4919 -1.0284  0.3318
  434MOL0     C58513   4.423   7.042   5.818  1.7626 -0.2004  0.1728
  434MOL0     O58514   4.521   7.030   5.900  0.6408 -0.6602 -0.9951
  434MOL0     C58515   4.657   7.039   5.856 -0.0500 -0.1571 -0.2088
  434MOL0     C58516   4.755   7.075   5.970 -0.2073 -0.0219 -0.6537
  434MOL0     C58517   4.895   7.095   5.924 -0.6359  0.0488 -0.1945
  434MOL0     C58518   4.991   7.114   6.035 -0.8733  0.5477 -0.5158
  434MOL0     C58519   4.944   7.240   6.100 -0.4862 -0.5983  1.0836
  434MOL0     C58520   4.916   7.353   6.139  0.1529  0.0123  0.3578
  434MOL0     C58521   4.295   7.093   5.858 -0.6779 -0.2391 -1.2007
  434MOL0     C58522   4.189   7.112   5.773  0.4062 -0.5592  1.0837
  434MOL0     H58523   4.013   7.446   5.535 -0.9075  2.3612 -0.2595
  434MOL0     H58524   3.888   7.592   5.360 -0.9215  0.2191 -2.8746
  434MOL0     H58525   3.573   7.476   5.064 -1.2958 -0.4631  0.9562
  434MOL0     H58526   3.561   7.519   5.238  1.5488  5.1302  0.8821
  434MOL0     H58527   3.523   7.713   5.115 -0.3700  0.2074  1.6053
  434MOL0     H58528   3.689   7.735   5.176 -0.2548 -0.5943  0.1262
  434MOL0     H58529   3.781   7.657   4.952 -1.2468 -1.0276 -0.1058
  434MOL0     H58530   3.613   7.665   4.889 -1.5266  1.3188 -1.4167
  434MOL0     H58531   3.576   7.886   4.968  1.2567  0.9901  1.3432
  434MOL0     H58532   3.748   7.894   5.014  1.1776 -0.1310 -0.9622
  434MOL0     H58533   3.712   8.025   4.818  1.3764 -0.6699 -1.7624
  434MOL0     H58534   3.819   7.883   4.795 -0.8139 -2.9695 -0.9390
  434MOL0     H58535   3.609   7.766   4.694  0.8661 -1.3583  1.0516
  434MOL0     H58536   3.529   7.933   4.681  0.7746 -0.4621  2.0310
  434MOL0     H58537   3.803   7.880   4.560 -0.4022  1.0139 -3.7681
  434MOL0     H58538   3.636   7.846   4.484  1.1200 -0.7479  0.3874
  434MOL0     H58539   3.743   8.109   4.597 -1.0556 -0.9325  2.1014
  434MOL0     H58540   3.581   8.077   4.508 -0.1505 -0.7280 -1.7283
  434MOL0     H58541   3.602   8.130   4.239  0.1507  0.7592  0.8322
  434MOL0     H58542   3.751   8.148   4.014  2.8892  1.4042 -2.2008
  434MOL0     H58543   3.722   8.298   4.109 -1.3127 -0.1088  0.6027
  434MOL0     H58544   3.979   8.187   3.991 -1.9512  0.7512 -3.4854
  434MOL0     H58545   3.985   8.321   4.106 -1.8511 -0.6285  1.6791
  434MOL0     H58546   4.010   8.395   3.874  0.6509 -0.6996  0.8152
  434MOL0     H58547   3.878   8.483   3.956  1.7475  1.5524 -0.7297
  434MOL0     H58548   3.711   8.374   3.848 -0.1105 -0.2539  1.3662
  434MOL0     H58549   3.800   8.239   3.808 -3.3248 -0.3707  2.2796
  434MOL0     H58550   3.691   8.194   3.648 -0.0768 -1.1239 -0.8426
  434MOL0     H58551   3.517   8.132   3.504 -0.0963 -1.6718  2.4570
  434MOL0     H58552   3.568   8.045   3.350 -0.2872 -0.5867  0.6629
  434MOL0     H58553   3.633   8.005   3.514 -1.3474 -1.5575 -2.5717
  434MOL0     H58554   3.774   7.839   3.097  2.8578 -2.3969 -0.7505
  434MOL0     H58555   3.722   7.729   2.891  2.0945 -0.0508  2.1593
  434MOL0     H58556   3.921   7.906   2.546  1.2122  0.0468 -3.1812
  434MOL0     H58557   3.890   7.748   2.597  0.1973  0.7544 -2.2116
  434MOL0     H58558   3.784   7.894   2.357  1.6561  1.0606  1.2231
  434MOL0     H58559   3.864   7.737   2.367  2.1723  3.2012 -2.5133
  434MOL0     H58560   3.616   7.724   2.308  2.9627 -0.4604  0.1150
  434MOL0     H58561   3.582   7.810   2.455  1.6774  2.1889 -2.2711
  434MOL0     H58562   3.761   7.564   2.475 -0.3783  0.8601 -1.6104
  434MOL0     H58563   3.642   7.613   2.594  2.4445 -2.1094  1.0411
  434MOL0     H58564   3.613   7.395   2.454 -4.5152 -1.6654 -0.1411
  434MOL0     H58565   3.586   7.498   2.311  2.2163  1.1741 -0.9111
  434MOL0     H58566   3.411   7.542   2.540 -0.4608 -0.0909 -0.3141
  434MOL0     H58567   3.376   7.567   2.369  1.1679  1.1883 -1.1951
  434MOL0     H58568   3.418   7.289   2.486  2.7634  2.6092  0.9923
  434MOL0     H58569   3.349   7.334   2.336  0.2093 -3.1754  0.9277
  434MOL0     H58570   3.146   7.421   2.456  1.2916  1.1272  0.1123
  434MOL0     H58571   3.213   7.376   2.611 -2.2217  0.4433  0.7391
  434MOL0     H58572   3.784   8.112   2.690  1.8570 -1.2351 -0.9898
  434MOL0     H58573   3.819   8.219   2.901  2.1794 -0.8829  1.1303
  434MOL0     H58574   3.909   8.375   3.240  1.3602 -1.5906 -0.5991
  434MOL0     H58575   3.944   8.478   3.457  2.4623 -1.8088 -0.7861
  434MOL0     H58576   3.712   7.244   5.206  1.8780 -0.5342 -0.5917
  434MOL0     H58577   3.842   7.093   5.372 -2.9379  0.2783 -3.3412
  434MOL0     H58578   4.356   6.986   5.493  0.9560 -1.4279  0.9619
  434MOL0     H58579   4.526   6.970   5.635  1.3886  2.9296 -0.3575
  434MOL0     H58580   4.702   6.950   5.811 -1.3017 -1.3321  0.7973
  434MOL0     H58581   4.665   7.112   5.774 -0.4149  0.1101 -0.0112
  434MOL0     H58582   4.750   7.008   6.057 -1.6882  1.5044  0.5034
  434MOL0     H58583   4.726   7.173   6.010  1.0548 -0.4439  1.4455
  434MOL0     H58584   4.902   7.183   5.860 -1.2203 -0.1209 -0.4941
  434MOL0     H58585   4.926   7.005   5.870  1.5730  1.6984 -1.9074
  434MOL0     H58586   5.088   7.137   5.990 -0.3898 -1.5504 -0.6358
  434MOL0     H58587   5.000   7.021   6.091  2.1709 -0.5954 -2.5959
  434MOL0     H58588   4.896   7.453   6.172  1.3672  1.6016 -3.1494
  434MOL0     H58589   4.294   7.112   5.964  0.2621 -1.8836 -0.8690
  434MOL0     H58590   4.101   7.170   5.800 -0.9206 -2.4864  1.0819
  435MOL0     O58591   3.453   9.480   5.923 -0.0864  0.4733 -0.4856
  435MOL0     C58592   3.518   9.493   5.814 -1.0435 -0.6140 -0.1960
  435MOL0     O58593   3.463   9.507   5.687 -0.9749 -0.3081  1.2141
  435MOL0     C58594   3.331   9.522   5.686 -0.5203  0.3903  0.2321
  435MOL0     C58595   3.273   9.648   5.657  0.1501 -0.1532  0.7461
  435MOL0     C58596   3.142   9.658   5.629  0.4355 -0.7282  0.2205
  435MOL0     C58597   3.058   9.542   5.639  0.8624 -0.5349 -0.6336
  435MOL0     O58598   2.927   9.546   5.606  0.0796 -0.0917  0.6731
  435MOL0     C58599   2.918   9.585   5.466 -1.7722 -0.5269 -0.1229
  435MOL0     C58600   2.772   9.576   5.403 -0.4936 -0.3448  0.0840
  435MOL0     C58601   2.663   9.636   5.489 -1.9338 -0.8173 -0.2657
  435MOL0     C58602   2.535   9.628   5.408 -1.1276  0.1044  0.5583
  435MOL0     C58603   2.421   9.690   5.473  0.7640 -0.6049 -0.2595
  435MOL0     C58604   2.392   9.654   5.620  0.0065 -0.8102 -0.5219
  435MOL0     C58605   2.268   9.740   5.669 -0.6704  0.8626  0.7071
  435MOL0     C58606   2.221   9.669   5.803 -0.3318 -0.5291  0.6548
  435MOL0     N58607   2.320   9.660   5.903 -0.5383 -0.7313 -1.0120
  435MOL0     C58608   2.324   9.541   5.971  0.2641  0.8311 -0.1685
  435MOL0     C58609   2.384   9.559   6.093  0.7229 -0.2112  0.2474
  435MOL0     C58610   2.408   9.464   6.208  0.2278 -0.8623  0.7376
  435MOL0     C58611   2.293   9.469   6.304  0.2804  0.1743  0.4715
  435MOL0     C58612   2.322   9.471   6.448  0.0603 -0.6504 -0.1685
  435MOL0     C58613   2.378   9.611   6.491  0.6369 -0.5003 -0.4564
  435MOL0     O58614   2.302   9.727   6.446 -0.2653 -0.2596  0.3020
  435MOL0     C58615   2.369   9.849   6.444  0.6858 -0.2403 -0.0017
  435MOL0     C58616   2.356   9.934   6.330 -0.6349 -0.3261 -0.7222
  435MOL0     C58617   2.400  10.063   6.335  0.4291 -0.4244  0.8263
  435MOL0     C58618   2.362  10.148   6.215  0.0082 -0.4551 -0.6188
  435MOL0     C58619   2.477  10.105   6.453  0.5955  0.4609  0.0801
  435MOL0     C58620   2.513  10.245   6.480  0.3263 -0.3012  0.4607
  435MOL0     O58621   2.579  10.267   6.597  0.8800 -1.0495 -0.0394
  435MOL0     C58622   2.631  10.391   6.630  0.7498  0.2171  0.0983
  435MOL0     C58623   2.565  10.483   6.719 -0.4031  0.7271  0.0499
  435MOL0     C58624   2.634  10.605   6.758  0.0239  0.3021  0.4694
  435MOL0     C58625   2.771  10.620   6.733 -0.7881 -1.0278  0.6223
  435MOL0     O58626   2.843  10.712   6.798 -0.6334  0.6803 -0.5365
  435MOL0     C58627   2.797  10.847   6.811 -0.6393  0.2528 -0.0578
  435MOL0     C58628   2.849  10.892   6.945  0.7195  0.1086  0.8255
  435MOL0     C58629   2.816  10.794   7.060  0.2359 -0.5287 -0.2585
  435MOL0     C58630   2.667  10.810   7.126 -0.8516 -0.6807 -0.9639
  435MOL0     C58631   2.664  10.754   7.263 -0.7133 -0.2428 -0.0751
  435MOL0     C58632   2.538  10.769   7.341 -0.0050  0.3253 -0.6455
  435MOL0     C58633   2.545  10.774   7.491  0.0910 -0.5890 -1.0660
  435MOL0     C58634   2.411  10.739   7.563  0.3368 -0.0465  0.1852
  435MOL0    Cl58635   2.451  10.689   7.731  0.8124 -0.4140  0.2585
  435MOL0     C58636   2.829  10.533   6.641 -1.1201 -0.2913  0.0477
  435MOL0     C58637   2.762  10.422   6.591  0.0662 -0.0991  0.5338
  435MOL0     O58638   2.505  10.329   6.385  0.3191  0.4302 -0.0080
  435MOL0     C58639   2.509  10.014   6.555  0.2212  0.5308  0.4009
  435MOL0     C58640   2.448   9.887   6.549 -0.3572 -0.1321  0.5912
  435MOL0     N58641   2.406   9.695   6.107  0.3967 -0.7335 -0.0887
  435MOL0     N58642   2.377   9.753   5.989  0.5030  0.6157  0.3163
  435MOL0     C58643   3.106   9.414   5.672 -0.4664  0.2187 -0.8085
  435MOL0     C58644   3.247   9.409   5.701  0.4521  0.2866  0.9858
  435MOL0     C58645   3.671   9.490   5.831  0.5984 -0.1976  0.1861
  435MOL0     C58646   3.734   9.447   5.713 -0.4602  0.2214 -0.9568
  435MOL0     C58647   3.872   9.425   5.717  0.1516  0.2032 -1.0846
  435MOL0     C58648   3.945   9.453   5.839 -0.5516  0.2968  0.5713
  435MOL0     O58649   4.076   9.421   5.844 -0.3311  0.1436  0.5017
  435MOL0     C58650   4.112   9.331   5.942 -0.7842  0.2538  0.6787
  435MOL0     C58651   4.259   9.304   5.906 -0.3727 -0.4945  0.3598
  435MOL0     C58652   4.291   9.218   5.776 -0.3680 -0.4311 -1.0956
  435MOL0     C58653   4.435   9.247   5.719 -0.2620 -0.1939 -0.6374
  435MOL0     C58654   4.462   9.156   5.600  1.0827  0.4782  0.1497
  435MOL0     C58655   4.478   9.092   5.501  1.0501 -0.8422 -0.7057
  435MOL0     C58656   3.871   9.499   5.953  0.1327 -0.7706  0.4545
  435MOL0     C58657   3.735   9.516   5.952 -0.1100 -0.7775 -0.8601
  435MOL0     H58658   3.341   9.730   5.637  0.3906 -0.7501 -1.0566
  435MOL0     H58659   3.094   9.751   5.603  1.6243 -0.4313 -1.0052
  435MOL0     H58660   2.958   9.687   5.471 -1.3366 -0.6498 -1.0018
  435MOL0     H58661   2.978   9.528   5.394 -0.6135  2.1161 -1.3660
  435MOL0     H58662   2.777   9.624   5.305  1.0828 -0.1103  0.2437
  435MOL0     H58663   2.759   9.469   5.386  0.1273 -0.4409  0.1915
  435MOL0     H58664   2.661   9.592   5.589 -3.0728  0.6960  0.4226
  435MOL0     H58665   2.683   9.742   5.510  1.4825 -1.6929  1.6724
  435MOL0     H58666   2.548   9.673   5.309 -2.9763  0.3994  0.4088
  435MOL0     H58667   2.520   9.522   5.384  0.3406 -0.0334  0.1914
  435MOL0     H58668   2.438   9.798   5.464 -1.1203 -0.3273 -0.8791
  435MOL0     H58669   2.324   9.674   5.427  0.1740  0.8162  0.4218
  435MOL0     H58670   2.377   9.545   5.622  0.9438 -1.0316 -2.8530
  435MOL0     H58671   2.473   9.685   5.687 -2.1358  4.1246  0.1300
  435MOL0     H58672   2.285   9.844   5.700 -2.0074  0.5830  2.5989
  435MOL0     H58673   2.189   9.733   5.595 -1.0426  2.8245  0.8645
  435MOL0     H58674   2.176   9.573   5.778 -1.7638  0.1444  0.5061
  435MOL0     H58675   2.138   9.722   5.850  1.5132  0.0248  3.5385
  435MOL0     H58676   2.289   9.450   5.924  0.7314  1.1962 -1.2744
  435MOL0     H58677   2.422   9.365   6.164  1.9018  0.0503 -0.9251
  435MOL0     H58678   2.500   9.486   6.263  1.4374  0.3147 -1.5858
  435MOL0     H58679   2.250   9.371   6.283  2.3162 -0.8089  0.5874
  435MOL0     H58680   2.223   9.552   6.289  1.2482  0.7602 -1.0632
  435MOL0     H58681   2.395   9.394   6.474 -0.9890 -1.8516 -0.6382
  435MOL0     H58682   2.228   9.445   6.499  0.8985 -3.4262  0.1312
  435MOL0     H58683   2.485   9.616   6.469  0.4591 -0.1566 -1.2645
  435MOL0     H58684   2.370   9.604   6.600  0.5869  2.2420 -0.2031
  435MOL0     H58685   2.301   9.897   6.244 -0.6708 -2.3145  0.1009
  435MOL0     H58686   2.320  10.085   6.135 -1.2172 -0.2597 -0.1417
  435MOL0     H58687   2.292  10.228   6.240  3.1962  1.2693  4.0553
  435MOL0     H58688   2.441  10.208   6.169 -1.7045  1.4093 -1.2665
  435MOL0     H58689   2.462  10.462   6.743 -0.1846 -0.0947  0.3100
  435MOL0     H58690   2.592  10.658   6.843 -1.2268 -1.7850  1.2118
  435MOL0     H58691   2.837  10.919   6.739  0.6944  2.7503  2.9453
  435MOL0     H58692   2.688  10.847   6.803 -0.6961  1.0325  0.5634
  435MOL0     H58693   2.957  10.905   6.940  0.9748 -1.7325  1.1487
  435MOL0     H58694   2.805  10.988   6.976  0.8427  1.1241 -1.8721
  435MOL0     H58695   2.889  10.824   7.137 -0.1573 -0.7669  0.2157
  435MOL0     H58696   2.835  10.688   7.044 -2.4052 -1.1468  0.2814
  435MOL0     H58697   2.624  10.910   7.128 -4.1859 -1.9985  0.9132
  435MOL0     H58698   2.591  10.759   7.065 -1.0286 -0.1504 -1.1985
  435MOL0     H58699   2.739  10.812   7.319 -1.3056  1.1044 -0.6331
  435MOL0     H58700   2.693  10.649   7.269 -2.0035 -0.5308  2.1676
  435MOL0     H58701   2.484  10.860   7.311  0.7429  1.2460  0.6788
  435MOL0     H58702   2.472  10.684   7.323 -1.8773  1.6555 -0.4343
  435MOL0     H58703   2.566  10.875   7.528 -0.5651 -1.6166  2.4078
  435MOL0     H58704   2.616  10.699   7.527  0.8043  0.4627 -0.2212
  435MOL0     H58705   2.363  10.653   7.515 -1.6348 -0.5189  2.7780
  435MOL0     H58706   2.339  10.822   7.559 -0.8776 -0.9028  2.4688
  435MOL0     H58707   2.927  10.559   6.603 -2.2700 -0.6212 -3.5050
  435MOL0     H58708   2.800  10.355   6.515  3.0296  0.4450  1.4032
  435MOL0     H58709   2.560  10.048   6.645 -1.7871  0.2537  1.7050
  435MOL0     H58710   2.463   9.830   6.640 -1.8775 -1.3674  0.1109
  435MOL0     H58711   3.036   9.331   5.680  1.1506 -1.2862 -1.7143
  435MOL0     H58712   3.297   9.314   5.715  1.0858  0.4275 -0.1906
  435MOL0     H58713   3.679   9.428   5.621 -1.9548  0.1032 -0.0711
  435MOL0     H58714   3.934   9.388   5.636  0.0494  0.8779 -1.4810
  435MOL0     H58715   4.117   9.386   6.036  0.8982  2.0278 -0.3683
  435MOL0     H58716   4.048   9.243   5.935  0.4598 -0.5694 -1.5028
  435MOL0     H58717   4.294   9.240   5.988  0.4930 -2.1324 -1.2141
  435MOL0     H58718   4.322   9.393   5.909  1.7012 -1.8774  0.8398
  435MOL0     H58719   4.225   9.247   5.693  0.2813  1.6151 -0.9637
  435MOL0     H58720   4.290   9.112   5.800  2.2474 -0.4192 -0.6464
  435MOL0     H58721   4.509   9.226   5.796  1.1596 -0.1582 -1.9355
  435MOL0     H58722   4.439   9.348   5.676  0.0158  0.1612  0.2131
  435MOL0     H58723   4.489   9.024   5.418  0.4281 -2.2426  0.3199
  435MOL0     H58724   3.911   9.530   6.049 -4.3984  2.1445  1.6948
  435MOL0     H58725   3.695   9.559   6.043  0.5878  0.2892 -1.0427
  436MOL0     O58726   8.882   9.103   1.991 -0.4511  0.1981 -0.0411
  436MOL0     C58727   8.946   9.089   1.886  0.2562 -0.4768  1.0377
  436MOL0     O58728   9.088   9.093   1.868 -0.6860 -0.1563 -0.3306
  436MOL0     C58729   9.140   9.168   1.973 -0.0665  0.4725  1.1015
  436MOL0     C58730   9.194   9.111   2.083  0.3326 -0.3004 -0.0952
  436MOL0     C58731   9.287   9.194   2.155  0.5510  0.1555  0.0844
  436MOL0     C58732   9.298   9.329   2.133  0.4201 -0.2114  0.3451
  436MOL0     O58733   9.378   9.411   2.206 -0.6975 -0.1519 -0.5863
  436MOL0     C58734   9.506   9.358   2.221 -0.1402 -0.0969  0.4057
  436MOL0     C58735   9.585   9.449   2.315  0.3378  0.1593 -0.3267
  436MOL0     C58736   9.713   9.387   2.365  0.8807  0.7097 -0.9862
  436MOL0     C58737   9.757   9.438   2.508  0.9104  0.6053 -0.2421
  436MOL0     C58738   9.908   9.412   2.540 -0.0596  0.6566 -0.8247
  436MOL0     C58739   9.939   9.261   2.537 -0.6129  1.3348 -0.0740
  436MOL0     C58740  10.091   9.225   2.562 -0.8328 -0.0591  1.0587
  436MOL0     C58741  10.154   9.303   2.680  0.7845  0.9161 -0.3661
  436MOL0     N58742  10.099   9.261   2.809 -0.3793  0.3189 -0.3220
  436MOL0     C58743   9.989   9.311   2.877 -0.1280  0.2183 -0.2610
  436MOL0     C58744   9.994   9.240   2.987 -0.5810  0.5125 -0.5470
  436MOL0     C58745   9.899   9.261   3.099  0.7606 -0.2834  0.5516
  436MOL0     C58746   9.953   9.369   3.187 -0.1211 -0.7362  0.5216
  436MOL0     C58747   9.871   9.439   3.289  0.9834  0.1472 -0.2506
  436MOL0     C58748   9.798   9.336   3.395 -0.7511  0.5168  0.7594
  436MOL0     O58749   9.758   9.418   3.512  0.7446 -0.3294  0.5222
  436MOL0     C58750   9.798   9.389   3.636 -0.3847 -0.2753 -0.0325
  436MOL0     C58751   9.827   9.490   3.726  0.0630 -0.5838  0.1301
  436MOL0     C58752   9.836   9.475   3.869 -0.3668 -0.4035  0.6181
  436MOL0     C58753   9.850   9.589   3.949 -0.0828 -0.4840 -0.3852
  436MOL0     C58754   9.850   9.344   3.918 -0.5485  0.2125 -0.0519
  436MOL0     C58755   9.885   9.310   4.052 -0.0103 -0.5928 -0.4860
  436MOL0     O58756   9.941   9.405   4.126  0.0195 -0.1204 -0.0934
  436MOL0     C58757   9.954   9.400   4.266  0.3288  0.6813  0.6843
  436MOL0     C58758   9.873   9.331   4.357  0.4554 -0.6009 -0.4310
  436MOL0     C58759   9.891   9.351   4.494  0.6926  0.5497  0.1347
  436MOL0     C58760   9.995   9.430   4.546 -0.0940  0.0714 -0.0587
  436MOL0     O58761  10.012   9.446   4.686 -0.1588  0.2543  0.1295
  436MOL0     C58762   9.903   9.449   4.769 -0.4248  1.0300  0.1153
  436MOL0     C58763   9.958   9.471   4.920  0.3117  0.1023  0.5266
  436MOL0     C58764  10.009   9.349   4.994 -0.4421 -0.3272  0.4682
  436MOL0     C58765   9.892   9.258   5.031  0.7029 -0.2412 -0.5878
  436MOL0     C58766   9.892   9.227   5.187  0.0712 -0.2426  0.4981
  436MOL0     C58767   9.796   9.118   5.228 -0.0360  0.4940 -0.0946
  436MOL0     C58768   9.800   9.106   5.375 -1.0341 -0.2771  0.0307
  436MOL0     C58769   9.731   8.977   5.419  0.3171  0.0696 -0.8950
  436MOL0    Cl58770   9.836   8.835   5.396  0.4231  0.0418  0.5992
  436MOL0     C58771  10.090   9.480   4.451 -0.4527 -0.0054  0.7556
  436MOL0     C58772  10.061   9.469   4.316  0.4922  0.1844  0.0557
  436MOL0     O58773   9.845   9.198   4.095 -0.0512 -0.1369  0.1763
  436MOL0     C58774   9.822   9.235   3.830  0.3387 -0.7692  0.2967
  436MOL0     C58775   9.803   9.260   3.690  0.7053  0.1581 -0.6048
  436MOL0     N58776  10.115   9.168   3.001 -1.6874 -1.0548  0.9745
  436MOL0     N58777  10.176   9.185   2.883  0.7693  0.5142  0.1949
  436MOL0     C58778   9.219   9.387   2.041 -0.6520 -0.0098  0.3696
  436MOL0     C58779   9.144   9.309   1.954 -0.0819 -1.0150  0.6560
  436MOL0     C58780   8.856   9.053   1.774 -0.1592 -0.3928 -0.2061
  436MOL0     C58781   8.735   8.984   1.801 -0.7395 -0.1333  0.4281
  436MOL0     C58782   8.650   8.961   1.702 -0.0449 -0.9165  0.7393
  436MOL0     C58783   8.681   9.000   1.574 -0.0452  0.3913  0.9574
  436MOL0     O58784   8.576   8.975   1.483  0.1957 -0.2348  0.0422
  436MOL0     C58785   8.547   9.066   1.374 -0.2649  0.1773 -0.3450
  436MOL0     C58786   8.517   9.203   1.433 -0.2105  0.5893  0.4149
  436MOL0     C58787   8.445   9.302   1.343  0.1888  0.3600 -0.0643
  436MOL0     C58788   8.293   9.284   1.348 -0.7207  0.0346  0.6305
  436MOL0     C58789   8.237   9.371   1.247  0.8898  1.0837 -0.4014
  436MOL0     C58790   8.183   9.448   1.167  0.0094  0.1508 -0.5382
  436MOL0     C58791   8.813   9.064   1.547  0.6260  0.5581  0.4865
  436MOL0     C58792   8.903   9.084   1.648 -0.3004  1.0159  0.1022
  436MOL0     H58793   9.161   9.014   2.117 -2.3459  0.8483  0.7780
  436MOL0     H58794   9.332   9.156   2.246  1.8828 -2.2021 -1.4329
  436MOL0     H58795   9.514   9.263   2.274  1.0502  2.1991  4.8476
  436MOL0     H58796   9.553   9.336   2.125 -0.2275 -1.0888  0.5829
  436MOL0     H58797   9.601   9.548   2.270  1.2436 -1.5109 -4.1147
  436MOL0     H58798   9.522   9.469   2.402 -1.1223 -1.8748 -0.8423
  436MOL0     H58799   9.681   9.284   2.384 -1.1181  1.4235 -0.1987
  436MOL0     H58800   9.793   9.389   2.290  2.3910 -0.7368  0.4785
  436MOL0     H58801   9.737   9.546   2.512 -0.8402  0.4004 -2.0607
  436MOL0     H58802   9.684   9.403   2.582 -0.6322  3.8646 -0.0173
  436MOL0     H58803   9.975   9.457   2.466  2.6534 -1.3245  0.2764
  436MOL0     H58804   9.934   9.459   2.635 -2.1000 -2.8769  1.7255
  436MOL0     H58805   9.876   9.211   2.611 -3.1669 -1.0289 -3.5156
  436MOL0     H58806   9.921   9.210   2.442  3.4185 -1.0467  0.2153
  436MOL0     H58807  10.104   9.117   2.565 -1.4229 -0.1705  0.1396
  436MOL0     H58808  10.137   9.250   2.466 -1.7980 -0.5879  0.4355
  436MOL0     H58809  10.117   9.406   2.670 -3.0845 -0.1527  0.9794
  436MOL0     H58810  10.263   9.298   2.683  0.8361 -1.1192  5.0665
  436MOL0     H58811   9.907   9.374   2.844 -1.9984 -2.6651 -1.4602
  436MOL0     H58812   9.803   9.296   3.062  2.0488  2.8323 -0.1529
  436MOL0     H58813   9.890   9.168   3.156 -2.2188  0.3497  1.2587
  436MOL0     H58814   9.988   9.452   3.125 -2.8266  0.2899  0.2338
  436MOL0     H58815  10.039   9.330   3.242  0.1931 -0.0984  0.4921
  436MOL0     H58816   9.795   9.505   3.247 -0.3853  0.1113  1.9947
  436MOL0     H58817   9.934   9.503   3.351 -1.4949  1.0363  1.5327
  436MOL0     H58818   9.854   9.249   3.428 -3.0359 -2.0417 -1.6340
  436MOL0     H58819   9.707   9.297   3.349 -1.4653  1.1092  1.6442
  436MOL0     H58820   9.813   9.590   3.687  1.0279 -1.7008 -3.4975
  436MOL0     H58821   9.774   9.583   4.028  1.0067 -0.4879  0.6966
  436MOL0     H58822   9.951   9.595   3.992  1.4276  0.0928 -3.6656
  436MOL0     H58823   9.846   9.687   3.900  2.3683 -0.5127 -0.7934
  436MOL0     H58824   9.796   9.260   4.328 -2.4041  1.3198  1.8455
  436MOL0     H58825   9.816   9.303   4.556  0.1636 -0.4257 -1.2151
  436MOL0     H58826   9.844   9.533   4.732  0.1354  2.3260  1.9865
  436MOL0     H58827   9.860   9.349   4.767  0.6418  0.5024  1.5171
  436MOL0     H58828  10.026   9.556   4.913 -1.2341  1.3043 -0.4839
  436MOL0     H58829   9.874   9.515   4.974 -2.8504 -3.0720 -1.3820
  436MOL0     H58830  10.059   9.382   5.085  1.6674  1.0212 -1.0963
  436MOL0     H58831  10.071   9.282   4.934 -1.4513 -1.0935  0.2343
  436MOL0     H58832   9.797   9.307   5.006  0.9313  0.4704 -0.0733
  436MOL0     H58833   9.905   9.168   4.970 -0.1604 -1.9937  1.6943
  436MOL0     H58834   9.880   9.313   5.255 -2.2927 -0.1846  0.1156
  436MOL0     H58835   9.990   9.182   5.195  0.5359  0.3183 -1.4526
  436MOL0     H58836   9.692   9.142   5.203 -0.4182 -2.0226 -1.2809
  436MOL0     H58837   9.824   9.025   5.178 -0.5348 -0.2175  0.9052
  436MOL0     H58838   9.763   9.193   5.430  1.2978  2.4237 -2.3298
  436MOL0     H58839   9.907   9.090   5.390 -0.9734 -1.7679 -1.6583
  436MOL0     H58840   9.644   8.959   5.354 -1.5747 -1.3917  1.8486
  436MOL0     H58841   9.684   8.987   5.517  1.2990 -2.1268 -0.1382
  436MOL0     H58842  10.183   9.523   4.488  0.0023 -0.4990  0.2179
  436MOL0     H58843  10.135   9.521   4.256  0.2240  0.3202 -0.1593
  436MOL0     H58844   9.804   9.133   3.863  0.6258 -0.9726 -0.1633
  436MOL0     H58845   9.778   9.182   3.619  1.0755 -1.1164  0.6164
  436MOL0     H58846   9.221   9.490   2.008 -4.1559 -0.5451 -2.1508
  436MOL0     H58847   9.112   9.363   1.866  0.0590 -0.3082  1.0363
  436MOL0     H58848   8.715   8.962   1.905 -2.8846 -0.0974  0.0659
  436MOL0     H58849   8.551   8.920   1.720 -0.9843  1.2792  0.9578
  436MOL0     H58850   8.625   9.067   1.298  1.7829 -1.1883  1.6363
  436MOL0     H58851   8.456   9.031   1.324  0.9948 -2.0032 -1.2648
  436MOL0     H58852   8.610   9.241   1.475  1.6231 -1.9836 -1.0327
  436MOL0     H58853   8.447   9.187   1.516  0.9683 -0.2358  1.2809
  436MOL0     H58854   8.489   9.300   1.243 -1.7232 -1.8826 -0.9558
  436MOL0     H58855   8.472   9.399   1.385  1.0957  0.1413 -0.1322
  436MOL0     H58856   8.249   9.298   1.447  0.8317 -0.7519  1.4710
  436MOL0     H58857   8.286   9.178   1.320  0.2518  0.6526 -2.3637
  436MOL0     H58858   8.157   9.523   1.095  0.2041  2.0565  1.2771
  436MOL0     H58859   8.837   9.098   1.447  2.9183  2.6342  1.6313
  436MOL0     H58860   8.998   9.127   1.620  0.2233  1.0388  1.8273
  437MOL0     O58861   9.715   7.707   4.681 -0.4732  0.3627  0.1739
  437MOL0     C58862   9.594   7.746   4.684  0.8606  0.2229 -0.0501
  437MOL0     O58863   9.549   7.860   4.750  0.3553 -0.0418 -0.3074
  437MOL0     C58864   9.638   7.921   4.835 -0.5341 -0.9103 -0.3590
  437MOL0     C58865   9.666   7.864   4.957 -0.0157 -0.5311  0.1255
  437MOL0     C58866   9.764   7.919   5.036 -1.4663  0.1093 -0.6289
  437MOL0     C58867   9.831   8.026   4.986  0.2386 -1.2659 -0.1089
  437MOL0     O58868   9.916   8.092   5.069  0.0010  0.1760 -0.0147
  437MOL0     C58869  10.043   8.028   5.092 -0.0044 -0.2083 -0.2693
  437MOL0     C58870  10.123   8.120   5.184  1.2335 -0.0705 -0.0976
  437MOL0     C58871  10.269   8.065   5.201  0.7417 -0.1288 -0.0161
  437MOL0     C58872  10.350   8.164   5.282 -0.6130  0.7602 -0.2390
  437MOL0     C58873  10.313   8.164   5.439 -0.5031  0.1485 -1.0468
  437MOL0     C58874  10.403   8.255   5.524 -0.0368 -0.2083 -0.3272
  437MOL0     C58875  10.548   8.215   5.537 -0.3241 -0.5095  1.4810
  437MOL0     C58876  10.581   8.067   5.549  0.4423 -0.1449 -0.1796
  437MOL0     N58877  10.546   8.032   5.689  0.3124  0.7014 -0.2655
  437MOL0     C58878  10.431   7.976   5.737  0.9153 -0.0285 -0.6184
  437MOL0     C58879  10.440   7.984   5.873 -0.0909  0.1434 -0.0579
  437MOL0     C58880  10.328   7.952   5.968 -0.5912 -0.5074 -0.4895
  437MOL0     C58881  10.255   8.081   6.026 -0.0453  0.4119  0.5464
  437MOL0     C58882  10.120   8.025   6.089 -0.1373 -0.0896  0.3704
  437MOL0     C58883  10.168   7.933   6.198 -0.9201 -0.2337  0.0339
  437MOL0     O58884  10.063   7.897   6.290  0.0555 -0.0225 -0.0151
  437MOL0     C58885  10.086   7.797   6.381  0.2028 -0.2178  0.3813
  437MOL0     C58886   9.985   7.765   6.471 -0.7580 -0.2106 -0.3830
  437MOL0     C58887   9.996   7.659   6.560  0.0866  0.0567 -0.6912
  437MOL0     C58888   9.863   7.618   6.636  0.1648 -0.6919  0.8089
  437MOL0     C58889  10.120   7.593   6.579  0.6399 -0.0146  0.6518
  437MOL0     C58890  10.132   7.483   6.677  0.7838  0.1855 -0.7349
  437MOL0     O58891  10.165   7.353   6.640  0.0499  0.1343 -0.1328
  437MOL0     C58892  10.187   7.255   6.731 -0.3465  0.2882  0.8151
  437MOL0     C58893  10.277   7.262   6.836  0.6821  0.2800  0.8383
  437MOL0     C58894  10.287   7.164   6.930 -0.0648 -0.0962 -0.1122
  437MOL0     C58895  10.211   7.046   6.924 -0.4047 -0.7238 -0.2738
  437MOL0     O58896  10.230   6.938   6.991 -0.6247  0.2254 -0.8000
  437MOL0     C58897  10.361   6.879   6.984  0.3201 -0.7489  0.1211
  437MOL0     C58898  10.335   6.729   7.004 -0.5872  0.3554 -0.0303
  437MOL0     C58899  10.464   6.635   6.994  0.4197  0.0461 -0.2773
  437MOL0     C58900  10.531   6.650   6.857 -0.3113 -0.3715 -1.1499
  437MOL0     C58901  10.651   6.553   6.838 -0.3685  0.6896 -0.8527
  437MOL0     C58902  10.734   6.588   6.716  0.9493 -1.2345 -0.7398
  437MOL0     C58903  10.846   6.487   6.673 -0.3337  0.7015  0.1614
  437MOL0     C58904  10.934   6.466   6.800  0.8250  0.9632  0.9773
  437MOL0    Cl58905  11.090   6.393   6.738 -0.1553  0.3361 -0.4059
  437MOL0     C58906  10.126   7.026   6.815  0.4643 -0.3993 -0.7782
  437MOL0     C58907  10.112   7.136   6.723 -0.1619  0.5856  0.3921
  437MOL0     O58908  10.117   7.517   6.803  0.1614 -0.1227  0.6542
  437MOL0     C58909  10.228   7.631   6.500 -0.0911 -0.1406  0.2786
  437MOL0     C58910  10.211   7.728   6.402  0.3610 -0.2950 -0.2851
  437MOL0     N58911  10.568   8.024   5.907 -0.4214 -1.0443  1.2202
  437MOL0     N58912  10.630   8.060   5.798 -0.0335  0.0011  0.0777
  437MOL0     C58913   9.806   8.081   4.856  0.0269  0.4824  0.0631
  437MOL0     C58914   9.706   8.028   4.779  0.5613  0.2504 -0.1322
  437MOL0     C58915   9.495   7.666   4.615  0.2241  0.0743  0.2186
  437MOL0     C58916   9.542   7.580   4.521  0.1484 -0.1535 -0.4222
  437MOL0     C58917   9.464   7.501   4.433  0.0271  0.6145  0.9939
  437MOL0     C58918   9.323   7.514   4.443 -0.7759  0.4046 -0.5580
  437MOL0     O58919   9.238   7.444   4.361 -0.6864 -0.2119 -0.1508
  437MOL0     C58920   9.297   7.382   4.253  0.3558 -0.4257 -0.6907
  437MOL0     C58921   9.179   7.328   4.161 -0.0026 -0.3141  0.4805
  437MOL0     C58922   9.242   7.275   4.032 -0.3487  0.2383  0.3568
  437MOL0     C58923   9.128   7.243   3.936 -0.1088  0.5435 -0.7193
  437MOL0     C58924   9.057   7.346   3.864  0.0251  0.4621 -0.5613
  437MOL0     C58925   8.996   7.434   3.809 -0.3276  0.1223 -0.8202
  437MOL0     C58926   9.278   7.600   4.547  0.3734 -1.2448  0.3551
  437MOL0     C58927   9.362   7.694   4.622  0.1452 -0.5074  0.3878
  437MOL0     H58928   9.613   7.775   4.988 -1.9339 -0.4219 -2.5080
  437MOL0     H58929   9.796   7.875   5.131  3.8521  1.1899 -1.5986
  437MOL0     H58930  10.030   7.936   5.149 -1.9601  0.9987  1.3532
  437MOL0     H58931  10.100   8.013   4.999  1.8062  3.4242  0.0584
  437MOL0     H58932  10.123   8.222   5.147  0.6198  0.1087  0.3798
  437MOL0     H58933  10.071   8.117   5.281 -0.4350  0.5515 -0.9246
  437MOL0     H58934  10.279   7.974   5.260 -0.9176 -0.8922 -0.8376
  437MOL0     H58935  10.311   8.032   5.106  0.9870 -1.1709  0.4434
  437MOL0     H58936  10.457   8.143   5.274 -0.5744 -0.3491  2.1729
  437MOL0     H58937  10.342   8.267   5.244 -1.7248  1.9013  2.7912
  437MOL0     H58938  10.215   8.205   5.463 -0.6600 -0.7716 -0.0284
  437MOL0     H58939  10.304   8.064   5.484 -3.4630 -0.1170 -2.0248
  437MOL0     H58940  10.391   8.359   5.489 -2.5503 -1.1468 -2.7304
  437MOL0     H58941  10.357   8.245   5.622 -0.8723 -2.9638 -0.9137
  437MOL0     H58942  10.591   8.251   5.443 -0.9318 -0.1581  1.3340
  437MOL0     H58943  10.603   8.260   5.621  0.3005  1.7383 -0.0102
  437MOL0     H58944  10.685   8.040   5.526  0.5346 -1.4556  1.5951
  437MOL0     H58945  10.515   8.027   5.471  1.6552 -2.5183 -0.0948
  437MOL0     H58946  10.349   7.933   5.680 -2.1460  3.2411  0.9331
  437MOL0     H58947  10.257   7.882   5.923  0.5503 -1.0519 -1.5081
  437MOL0     H58948  10.371   7.892   6.049 -1.3835 -0.0496  0.2944
  437MOL0     H58949  10.233   8.155   5.947  0.2392  0.6414  0.6809
  437MOL0     H58950  10.320   8.127   6.101  1.2924  0.3364 -0.5381
  437MOL0     H58951  10.049   7.972   6.025 -1.9829 -0.0647  2.2697
  437MOL0     H58952  10.064   8.115   6.116 -2.4805 -0.3531 -2.9850
  437MOL0     H58953  10.253   7.985   6.243  1.1656 -1.0205 -2.6895
  437MOL0     H58954  10.210   7.841   6.157  0.5645  1.1374 -1.6627
  437MOL0     H58955   9.899   7.831   6.472 -0.9906 -0.5125 -0.2762
  437MOL0     H58956   9.870   7.636   6.743 -4.1003  1.9901  0.8669
  437MOL0     H58957   9.773   7.668   6.601 -2.4489 -5.3318  0.1182
  437MOL0     H58958   9.842   7.515   6.606 -1.3971  0.3594 -2.0776
  437MOL0     H58959  10.343   7.348   6.838  1.3255 -0.1925  0.2256
  437MOL0     H58960  10.367   7.163   7.003  0.7877 -0.6052 -1.0453
  437MOL0     H58961  10.386   6.900   6.879 -2.7768 -2.6736 -1.1440
  437MOL0     H58962  10.429   6.918   7.060 -1.7691  0.1682  1.6028
  437MOL0     H58963  10.294   6.712   7.104  2.0820 -2.1002  0.8050
  437MOL0     H58964  10.252   6.696   6.941  0.2242 -2.4253  0.2116
  437MOL0     H58965  10.439   6.530   7.014  2.1982 -0.6851 -1.6182
  437MOL0     H58966  10.540   6.643   7.073  0.1292 -5.0890  0.9187
  437MOL0     H58967  10.453   6.638   6.781 -1.4750 -0.7302  0.0566
  437MOL0     H58968  10.570   6.751   6.842 -3.9005  1.0154 -2.2084
  437MOL0     H58969  10.616   6.450   6.820  3.7262 -0.6983 -1.9505
  437MOL0     H58970  10.720   6.572   6.920  1.4620  0.3091 -2.2303
  437MOL0     H58971  10.653   6.600   6.644  1.3194  1.0116 -0.8308
  437MOL0     H58972  10.771   6.689   6.733 -2.4464 -0.1162  1.0093
  437MOL0     H58973  10.902   6.523   6.586  1.2212  1.2707  1.3547
  437MOL0     H58974  10.808   6.385   6.659 -1.3447  0.9996  0.6213
  437MOL0     H58975  10.884   6.411   6.880 -0.4887 -1.6896 -1.4605
  437MOL0     H58976  10.952   6.567   6.836  1.9253  1.1754 -0.0827
  437MOL0     H58977  10.056   6.944   6.815  1.7854 -1.6261  1.3080
  437MOL0     H58978  10.040   7.140   6.641  1.0910  0.6491 -0.7403
  437MOL0     H58979  10.324   7.588   6.525  0.7322  2.0308  1.1783
  437MOL0     H58980  10.298   7.755   6.343  2.0662 -2.1592  1.2065
  437MOL0     H58981   9.846   8.172   4.813  0.4881 -0.9186 -2.6895
  437MOL0     H58982   9.683   8.084   4.690 -0.4510 -1.2004 -0.8324
  437MOL0     H58983   9.649   7.561   4.513  0.6374  1.0638  2.0321
  437MOL0     H58984   9.516   7.431   4.368  0.0590  0.2937  1.3626
  437MOL0     H58985   9.345   7.453   4.185 -1.5533  1.6317 -0.0165
  437MOL0     H58986   9.353   7.295   4.290  1.2524  0.0268 -0.9513
  437MOL0     H58987   9.113   7.412   4.139  1.5068  0.9175  0.4248
  437MOL0     H58988   9.125   7.246   4.208 -1.1253 -1.6458 -2.8583
  437MOL0     H58989   9.299   7.186   4.059  0.3349  0.2577 -0.9013
  437MOL0     H58990   9.316   7.343   3.987  0.2770 -0.1062  0.8479
  437MOL0     H58991   9.050   7.189   3.990  0.1985  0.8570  0.0443
  437MOL0     H58992   9.159   7.172   3.858 -1.3001  0.6572 -1.3201
  437MOL0     H58993   8.953   7.519   3.760 -0.3622 -1.5994 -4.0233
  437MOL0     H58994   9.172   7.624   4.549  1.1319  2.9032 -0.0743
  437MOL0     H58995   9.326   7.767   4.693  1.2839  0.4547  0.0120
  438MOL0     O58996   8.072   8.290   5.371  0.2590 -0.0361  0.2267
  438MOL0     C58997   8.106   8.393   5.307  0.2624  0.4752 -1.0628
  438MOL0     O58998   8.207   8.478   5.339 -0.0011 -0.0501  0.5596
  438MOL0     C58999   8.259   8.467   5.467 -0.8170  0.2266  0.1644
  438MOL0     C59000   8.203   8.540   5.571  0.2606  0.3919 -0.6400
  438MOL0     C59001   8.251   8.516   5.700 -0.6331  0.2073 -0.0723
  438MOL0     C59002   8.366   8.441   5.735  0.4651  0.5161  0.9445
  438MOL0     O59003   8.404   8.431   5.866  0.2909  0.6356 -0.5078
  438MOL0     C59004   8.538   8.371   5.887  0.3411  0.6832  0.6088
  438MOL0     C59005   8.566   8.369   6.044 -0.5127  0.8575  0.3244
  438MOL0     C59006   8.451   8.321   6.120  1.1787  0.0098 -0.3035
  438MOL0     C59007   8.500   8.304   6.264 -0.0503  0.1183  1.1515
  438MOL0     C59008   8.525   8.438   6.325  0.3192  0.0094 -1.0030
  438MOL0     C59009   8.544   8.415   6.477 -0.3645  0.2591  1.1165
  438MOL0     C59010   8.564   8.543   6.548 -0.6244 -0.7868 -0.1167
  438MOL0     C59011   8.607   8.526   6.699  0.3103 -0.0433  0.3510
  438MOL0     N59012   8.669   8.650   6.752 -0.0905  0.3528 -0.2624
  438MOL0     C59013   8.626   8.726   6.851  0.2032  0.4783 -0.2443
  438MOL0     C59014   8.672   8.849   6.823 -0.0361  0.1243 -0.4492
  438MOL0     C59015   8.646   8.978   6.885  0.4731 -0.0466 -0.5621
  438MOL0     C59016   8.711   8.986   7.031 -0.2071  1.1079  0.3388
  438MOL0     C59017   8.706   9.123   7.094 -0.4928  0.5757 -0.1265
  438MOL0     C59018   8.805   9.227   7.022  0.4088  0.1923 -0.3098
  438MOL0     O59019   8.942   9.176   7.026 -0.1187  0.1533  0.5124
  438MOL0     C59020   9.020   9.223   7.128 -0.6748 -0.7026 -0.6341
  438MOL0     C59021   9.076   9.147   7.229 -0.7482 -0.0904  0.0227
  438MOL0     C59022   9.154   9.208   7.328 -1.0598  0.0489  0.7634
  438MOL0     C59023   9.203   9.116   7.432 -0.0669  0.2920 -1.0717
  438MOL0     C59024   9.188   9.346   7.326  0.5398 -0.1211 -0.4865
  438MOL0     C59025   9.259   9.424   7.432  0.2085 -0.5672  0.6133
  438MOL0     O59026   9.232   9.556   7.440  0.1496  0.1132  0.0605
  438MOL0     C59027   9.309   9.638   7.527  0.6277 -0.6702  0.6636
  438MOL0     C59028   9.315   9.632   7.669  0.6592  0.0113  0.2678
  438MOL0     C59029   9.391   9.728   7.741 -0.2991  0.5138  0.1203
  438MOL0     C59030   9.451   9.825   7.665 -0.4466 -0.6204 -0.8036
  438MOL0     O59031   9.512   9.927   7.722  0.1739 -0.0067  0.5315
  438MOL0     C59032   9.446  10.000   7.826 -0.4517  0.8027  0.4776
  438MOL0     C59033   9.532  10.083   7.910  0.5478  0.7509 -0.2921
  438MOL0     C59034   9.473  10.132   8.041  0.5710 -0.3516  0.4371
  438MOL0     C59035   9.353  10.218   8.022 -0.0113 -0.7780  0.5610
  438MOL0     C59036   9.289  10.257   8.159  0.7052  0.0721 -0.3761
  438MOL0     C59037   9.157  10.334   8.129 -0.6300  0.6021 -0.5587
  438MOL0     C59038   9.099  10.388   8.260 -0.5253  1.5687  0.1057
  438MOL0     C59039   9.008  10.500   8.233  1.1202  0.6727 -0.2846
  438MOL0    Cl59040   8.867  10.450   8.153 -0.3929 -0.3831 -0.3400
  438MOL0     C59041   9.449   9.827   7.526  0.0814 -0.1885  0.5390
  438MOL0     C59042   9.373   9.732   7.454 -0.0467  0.6326 -0.6708
  438MOL0     O59043   9.332   9.363   7.508  0.4902  0.5663  0.1513
  438MOL0     C59044   9.128   9.424   7.223  0.7276  0.8525  0.6362
  438MOL0     C59045   9.042   9.364   7.130 -0.1550 -0.6675  0.3835
  438MOL0     N59046   8.747   8.844   6.713  0.4057  0.0757 -0.7519
  438MOL0     N59047   8.750   8.725   6.673  0.0655 -0.2203 -0.7295
  438MOL0     C59048   8.428   8.383   5.622  0.0273 -0.7031  1.2390
  438MOL0     C59049   8.377   8.394   5.492  0.7980 -0.2256  0.1797
  438MOL0     C59050   8.016   8.422   5.194 -0.0365  0.6983 -0.3213
  438MOL0     C59051   7.918   8.325   5.164  0.0846 -0.3234  0.4201
  438MOL0     C59052   7.841   8.362   5.054  0.0512 -0.1230  0.6405
  438MOL0     C59053   7.853   8.471   4.972 -0.9505 -0.5503 -0.5717
  438MOL0     O59054   7.765   8.494   4.872  0.6509  0.6420  0.3759
  438MOL0     C59055   7.791   8.427   4.751 -0.6514 -0.2886  0.6162
  438MOL0     C59056   7.765   8.522   4.626 -0.8490  1.4691 -0.3923
  438MOL0     C59057   7.633   8.593   4.613  0.6827  1.1486 -0.4172
  438MOL0     C59058   7.638   8.651   4.478  0.4538  0.9548 -0.1896
  438MOL0     C59059   7.534   8.752   4.449  0.2091 -0.2420  0.3963
  438MOL0     C59060   7.458   8.844   4.459  0.4862  0.4069 -1.3340
  438MOL0     C59061   7.956   8.574   5.004 -0.7317  0.4059  0.1862
  438MOL0     C59062   8.030   8.541   5.114 -0.0312  0.6392 -0.2691
  438MOL0     H59063   8.112   8.598   5.562 -2.1578 -2.9135  0.5655
  438MOL0     H59064   8.200   8.569   5.780  0.7901  2.6826 -0.6896
  438MOL0     H59065   8.545   8.268   5.850 -3.6927  0.1454  0.8872
  438MOL0     H59066   8.616   8.431   5.839  2.7200  0.1378  3.4538
  438MOL0     H59067   8.652   8.302   6.047 -2.7533 -2.1600  1.6349
  438MOL0     H59068   8.588   8.469   6.082  2.1179  0.5109 -0.1324
  438MOL0     H59069   8.362   8.384   6.125  0.4136 -1.1175  1.0862
  438MOL0     H59070   8.430   8.219   6.086 -0.9196  0.0725  0.6692
  438MOL0     H59071   8.421   8.247   6.314 -0.0967 -0.1040  0.8277
  438MOL0     H59072   8.583   8.233   6.271  0.4643  0.1048 -2.8519
  438MOL0     H59073   8.623   8.472   6.291  0.5039 -1.4717 -2.0403
  438MOL0     H59074   8.458   8.524   6.312 -1.8950 -1.0462  2.2019
  438MOL0     H59075   8.458   8.366   6.523 -0.5330 -1.2464 -0.6667
  438MOL0     H59076   8.633   8.352   6.489  0.0806  0.7392  0.4489
  438MOL0     H59077   8.649   8.589   6.496 -1.3486 -0.0392 -0.6537
  438MOL0     H59078   8.477   8.608   6.560  2.4494  3.4197  1.8751
  438MOL0     H59079   8.682   8.447   6.712  1.3386  0.6775 -0.9058
  438MOL0     H59080   8.519   8.516   6.763 -0.7106  2.8978 -0.4381
  438MOL0     H59081   8.551   8.710   6.928  0.6178 -2.3623 -0.3378
  438MOL0     H59082   8.692   9.059   6.829  0.0281  3.5097  3.6339
  438MOL0     H59083   8.538   8.990   6.887  0.2514 -1.7668  0.2610
  438MOL0     H59084   8.808   8.936   7.037 -0.2792  1.1073  2.1165
  438MOL0     H59085   8.646   8.920   7.090 -0.8967  0.8310 -0.7083
  438MOL0     H59086   8.746   9.108   7.195 -0.6897  0.6552 -0.0356
  438MOL0     H59087   8.604   9.159   7.103 -0.6369  0.0117  0.6017
  438MOL0     H59088   8.789   9.320   7.077 -2.7957 -0.3062 -0.2192
  438MOL0     H59089   8.757   9.235   6.923  0.5317 -0.2975 -0.4121
  438MOL0     H59090   9.050   9.042   7.228  2.7294 -1.0626  0.9020
  438MOL0     H59091   9.186   9.011   7.407 -1.1730  0.3808 -0.7219
  438MOL0     H59092   9.309   9.129   7.460 -0.1181  0.3904 -0.9171
  438MOL0     H59093   9.139   9.136   7.519  0.0716  1.1735 -1.1603
  438MOL0     H59094   9.258   9.558   7.724  1.4502 -1.3220 -0.6651
  438MOL0     H59095   9.397   9.721   7.849  0.9388 -1.8243 -0.0384
  438MOL0     H59096   9.363  10.058   7.784 -1.1153 -0.7516 -0.4457
  438MOL0     H59097   9.398   9.929   7.895 -0.9265  0.7823  0.1333
  438MOL0     H59098   9.612  10.014   7.936 -1.9452 -2.8134 -1.3058
  438MOL0     H59099   9.587  10.163   7.860  3.2351 -0.4196  0.6561
  438MOL0     H59100   9.549  10.183   8.101  0.0604 -1.1634  1.7990
  438MOL0     H59101   9.439  10.049   8.102 -2.9437  0.7357  0.1701
  438MOL0     H59102   9.396  10.305   7.972 -1.1989 -1.8626 -2.5863
  438MOL0     H59103   9.274  10.176   7.959  1.4812 -2.3209 -0.3531
  438MOL0     H59104   9.364  10.308   8.221 -0.5086  1.5491 -0.0470
  438MOL0     H59105   9.253  10.173   8.218 -0.8024  2.3393  2.1981
  438MOL0     H59106   9.182  10.407   8.052  0.5148  0.5518 -0.2486
  438MOL0     H59107   9.099  10.247   8.096 -0.3200 -0.3585  1.3226
  438MOL0     H59108   9.184  10.441   8.303 -0.3051 -0.3786  2.1903
  438MOL0     H59109   9.058  10.313   8.327  0.2995  0.2911 -0.7814
  438MOL0     H59110   9.059  10.585   8.187 -0.1999  0.3107 -2.6083
  438MOL0     H59111   8.979  10.532   8.333 -0.6463  1.3489 -0.9841
  438MOL0     H59112   9.488   9.913   7.473 -1.6461  0.2818 -0.0480
  438MOL0     H59113   9.358   9.730   7.347 -0.1189  0.4624 -0.6591
  438MOL0     H59114   9.133   9.531   7.207 -0.8499  0.5646 -2.5398
  438MOL0     H59115   8.990   9.415   7.050  0.3618 -0.8771 -0.0929
  438MOL0     H59116   8.513   8.316   5.622  0.6651  0.0412 -0.8313
  438MOL0     H59117   8.421   8.329   5.418  0.1333  1.7369 -2.0655
  438MOL0     H59118   7.900   8.224   5.201 -0.9428 -0.7631 -1.1899
  438MOL0     H59119   7.760   8.293   5.032  1.1128 -1.3915  0.5590
  438MOL0     H59120   7.897   8.402   4.746 -1.0683 -2.4735  1.7510
  438MOL0     H59121   7.741   8.331   4.738  2.7713 -1.9459 -2.1295
  438MOL0     H59122   7.766   8.451   4.543 -2.0337  0.0456  0.7514
  438MOL0     H59123   7.852   8.589   4.619 -0.6748  1.2453 -0.3779
  438MOL0     H59124   7.626   8.666   4.694 -0.3227 -1.3565  1.9268
  438MOL0     H59125   7.552   8.519   4.617 -0.4731  2.4321  2.3208
  438MOL0     H59126   7.621   8.577   4.399 -1.3443  2.2611 -1.1059
  438MOL0     H59127   7.736   8.694   4.453  0.6012 -0.0809 -1.4877
  438MOL0     H59128   7.404   8.932   4.486  2.1744  1.1341 -0.1866
  438MOL0     H59129   7.970   8.663   4.945 -0.2307  2.3291  3.0315
  438MOL0     H59130   8.104   8.616   5.141  0.3294 -0.3274  1.5686
  439MOL0     O59131   7.803   8.390  10.937  0.3783  0.1124 -0.3427
  439MOL0     C59132   7.887   8.452  10.878 -0.6219 -0.0984 -0.4757
  439MOL0     O59133   7.859   8.574  10.823 -0.2406 -0.5225 -0.7883
  439MOL0     C59134   7.737   8.640  10.825 -0.4961  0.6867 -0.6535
  439MOL0     C59135   7.712   8.733  10.731  0.5008 -0.3862 -0.7067
  439MOL0     C59136   7.587   8.799  10.719 -0.5919  0.1225 -0.2807
  439MOL0     C59137   7.476   8.781  10.805 -0.7794 -0.6393  0.8448
  439MOL0     O59138   7.354   8.838  10.772  0.1686 -0.6029  0.8108
  439MOL0     C59139   7.245   8.751  10.731  0.1097  0.0529  0.5053
  439MOL0     C59140   7.112   8.826  10.760  0.5759 -0.6127 -1.2253
  439MOL0     C59141   7.086   8.859  10.902 -0.0906  0.2592  0.0343
  439MOL0     C59142   7.081   8.740  10.993 -0.1074 -0.4468 -0.5989
  439MOL0     C59143   7.062   8.757  11.137  0.1541 -0.0900 -0.9824
  439MOL0     C59144   7.152   8.869  11.197  0.1029  0.7911 -0.0797
  439MOL0     C59145   7.138   8.875  11.352 -0.9877  0.4359  0.1802
  439MOL0     C59146   6.992   8.870  11.391  0.5754 -0.1963 -0.3437
  439MOL0     N59147   6.979   8.918  11.525 -0.7157 -1.2936 -0.5750
  439MOL0     C59148   7.043   9.015  11.596  0.3746 -0.8502  0.8057
  439MOL0     C59149   6.991   9.008  11.725  0.0155 -0.4711 -0.6070
  439MOL0     C59150   7.032   9.105  11.835 -0.3264  0.8302  0.3582
  439MOL0     C59151   7.175   9.075  11.876 -1.2954 -0.2841  0.2819
  439MOL0     C59152   7.223   9.160  11.994  0.1723  0.5836  0.0876
  439MOL0     C59153   7.361   9.121  12.047  0.7073 -0.2204 -0.5494
  439MOL0     O59154   7.467   9.140  11.957 -0.4400 -0.3935  0.0884
  439MOL0     C59155   7.587   9.075  11.974 -0.2926  0.0307 -0.2399
  439MOL0     C59156   7.608   8.991  12.086 -0.9392 -0.6714  0.2321
  439MOL0     C59157   7.727   8.926  12.107 -0.8684 -0.4210 -0.4375
  439MOL0     C59158   7.729   8.847  12.238 -0.0471  0.2508 -0.2679
  439MOL0     C59159   7.844   8.951  12.027  0.0726 -0.4845 -0.0930
  439MOL0     C59160   7.982   8.898  12.044  0.7677 -0.1210 -0.2368
  439MOL0     O59161   8.083   8.961  11.980  0.9954 -1.3793  0.2146
  439MOL0     C59162   8.193   8.893  11.940 -0.6566  0.0599 -0.2857
  439MOL0     C59163   8.314   8.913  12.014  0.3884  0.0467 -0.0325
  439MOL0     C59164   8.442   8.877  11.953 -0.6942 -0.8263  0.0726
  439MOL0     C59165   8.441   8.806  11.829 -0.6411 -0.4611 -0.2525
  439MOL0     O59166   8.560   8.761  11.783 -0.3944  0.5713  0.4619
  439MOL0     C59167   8.578   8.619  11.761 -0.1129 -0.4343 -0.0132
  439MOL0     C59168   8.734   8.598  11.752  0.4594  0.1625 -0.4676
  439MOL0     C59169   8.771   8.461  11.709  0.1000  0.4806 -0.5116
  439MOL0     C59170   8.918   8.450  11.743  0.0081 -1.0190 -0.2953
  439MOL0     C59171   8.975   8.317  11.711  0.4923  1.0034  0.9166
  439MOL0     C59172   8.980   8.286  11.561 -0.5246  0.3927 -0.0719
  439MOL0     C59173   8.983   8.132  11.553 -0.2756 -0.3005  0.0356
  439MOL0     C59174   9.105   8.053  11.592  0.1822  0.4962 -0.2259
  439MOL0    Cl59175   9.252   8.103  11.510  0.0475 -0.0415  0.1141
  439MOL0     C59176   8.326   8.776  11.760  0.4311  0.6796  0.4600
  439MOL0     C59177   8.204   8.823  11.819 -0.4408  0.6255 -0.0961
  439MOL0     O59178   7.997   8.796  12.102  0.2422  0.4476  0.2897
  439MOL0     C59179   7.819   9.040  11.917  1.5854  0.4205  0.6244
  439MOL0     C59180   7.688   9.100  11.884 -0.7109 -0.4985  0.0755
  439MOL0     N59181   6.909   8.904  11.732 -0.1901  0.5817  0.1708
  439MOL0     N59182   6.900   8.855  11.613 -0.2898 -0.2519 -0.6105
  439MOL0     C59183   7.502   8.691  10.906  0.7107 -0.3949  0.1470
  439MOL0     C59184   7.624   8.630  10.918 -0.8110 -0.2986 -0.1681
  439MOL0     C59185   8.031   8.401  10.874 -0.2891  0.6228 -0.0574
  439MOL0     C59186   8.142   8.478  10.821 -0.0991  0.6198  0.4373
  439MOL0     C59187   8.274   8.439  10.825  0.8246  1.0745 -0.6016
  439MOL0     C59188   8.304   8.315  10.892 -0.0786 -0.3639  0.1474
  439MOL0     O59189   8.434   8.272  10.907  0.7403  0.1361  1.0562
  439MOL0     C59190   8.536   8.339  10.836 -0.4225 -0.2810  0.3169
  439MOL0     C59191   8.673   8.261  10.856  1.3872  0.0200  0.9370
  439MOL0     C59192   8.689   8.220  10.999 -0.2731 -0.4245 -0.9132
  439MOL0     C59193   8.831   8.177  11.034  0.4741 -0.2205 -0.2762
  439MOL0     C59194   8.835   8.031  11.020  0.4909 -0.1878  0.1805
  439MOL0     C59195   8.838   7.911  11.030 -0.3174 -0.0602 -0.2077
  439MOL0     C59196   8.199   8.242  10.942  0.2790  0.2669 -0.2576
  439MOL0     C59197   8.065   8.283  10.933 -0.1923 -0.4184 -0.9675
  439MOL0     H59198   7.792   8.767  10.667 -0.6858  1.5344 -1.2543
  439MOL0     H59199   7.581   8.867  10.635  1.8712 -1.6163 -2.0063
  439MOL0     H59200   7.273   8.723  10.629  0.8881  0.9588  0.4557
  439MOL0     H59201   7.251   8.656  10.785 -0.4754  0.1989  0.8331
  439MOL0     H59202   7.103   8.915  10.696  0.3142  0.0840 -0.2331
  439MOL0     H59203   7.031   8.757  10.735 -0.9036  0.6070 -0.0191
  439MOL0     H59204   7.155   8.928  10.950 -0.6056  0.9897 -0.2573
  439MOL0     H59205   6.985   8.901  10.897 -1.7400 -3.4060 -1.1911
  439MOL0     H59206   6.995   8.681  10.961 -0.4841 -0.9051  1.1023
  439MOL0     H59207   7.172   8.680  10.983 -0.6131 -0.7950 -4.0253
  439MOL0     H59208   6.958   8.784  11.154  0.1395 -1.4714  1.5421
  439MOL0     H59209   7.081   8.663  11.189 -3.2723  1.3696  3.5232
  439MOL0     H59210   7.254   8.833  11.179 -0.5541 -0.4159 -1.5628
  439MOL0     H59211   7.128   8.964  11.149 -0.9494 -0.0755 -1.3375
  439MOL0     H59212   7.197   8.792  11.392 -1.0803  0.6155  0.6904
  439MOL0     H59213   7.186   8.972  11.367  0.6003 -0.5156  1.5904
  439MOL0     H59214   6.958   8.766  11.390 -0.0885  0.0169 -0.7568
  439MOL0     H59215   6.939   8.927  11.314  0.5164 -1.1267 -0.9934
  439MOL0     H59216   7.115   9.082  11.550 -1.0987  1.0592  1.1501
  439MOL0     H59217   7.013   9.210  11.808 -0.9596  0.7847  0.6061
  439MOL0     H59218   6.966   9.074  11.917 -0.6655 -2.9534 -1.1314
  439MOL0     H59219   7.238   9.096  11.789  2.2906  2.9522  3.2680
  439MOL0     H59220   7.189   8.969  11.899  1.5349 -0.8213 -3.0920
  439MOL0     H59221   7.152   9.150  12.076  0.5975 -2.0878  0.2079
  439MOL0     H59222   7.233   9.262  11.956  1.8619  0.5757  0.4524
  439MOL0     H59223   7.363   9.013  12.067  1.9848  0.3262  2.9239
  439MOL0     H59224   7.378   9.180  12.137 -1.2864  1.1221 -0.9974
  439MOL0     H59225   7.537   8.968  12.165  0.0454  1.6864  1.9224
  439MOL0     H59226   7.656   8.767  12.231  0.6734 -0.7836  2.8260
  439MOL0     H59227   7.826   8.798  12.250 -0.6975 -1.0973 -0.4297
  439MOL0     H59228   7.705   8.919  12.317  2.3451  1.2998 -0.3905
  439MOL0     H59229   8.305   8.958  12.112  0.3605 -1.4174  0.6520
  439MOL0     H59230   8.540   8.901  11.992 -1.8199 -3.0143  5.0353
  439MOL0     H59231   8.528   8.568  11.845  0.5459 -1.3090 -0.1328
  439MOL0     H59232   8.537   8.576  11.669 -0.5725 -2.6279  1.1357
  439MOL0     H59233   8.769   8.685  11.694  0.2955  2.4087  2.5666
  439MOL0     H59234   8.774   8.612  11.852  1.2159  0.9627 -0.8692
  439MOL0     H59235   8.737   8.432  11.609 -0.3429  1.1666 -0.5641
  439MOL0     H59236   8.725   8.387  11.775 -0.2940  0.9897 -0.2054
  439MOL0     H59237   8.970   8.530  11.688 -2.0259  2.4680  2.4280
  439MOL0     H59238   8.936   8.470  11.850  0.5077 -1.1261 -0.3555
  439MOL0     H59239   8.923   8.231  11.753  2.2967 -2.1337 -2.6213
  439MOL0     H59240   9.077   8.311  11.750  0.9306  0.7244 -0.2246
  439MOL0     H59241   8.886   8.323  11.518 -1.2351  0.5630  1.5300
  439MOL0     H59242   9.069   8.332  11.519 -0.3022 -0.8353 -1.0105
  439MOL0     H59243   8.952   8.107  11.451  4.4248 -1.2277 -1.4152
  439MOL0     H59244   8.902   8.090  11.612 -2.2853  1.0784 -1.6110
  439MOL0     H59245   9.082   7.946  11.585 -2.4364  1.0689 -1.5624
  439MOL0     H59246   9.117   8.065  11.700 -0.1047 -0.6739 -0.0501
  439MOL0     H59247   8.327   8.726  11.664  4.2917  1.4782 -0.0672
  439MOL0     H59248   8.116   8.795  11.763 -0.9254  1.1531  0.3903
  439MOL0     H59249   7.905   9.054  11.852  1.4479 -2.3344 -0.2988
  439MOL0     H59250   7.691   9.170  11.801  2.5138 -1.6703 -0.9835
  439MOL0     H59251   7.430   8.672  10.985 -1.3306  2.6494 -0.8401
  439MOL0     H59252   7.628   8.559  11.000  1.9653  0.7287  0.7030
  439MOL0     H59253   8.117   8.569  10.767  2.1763 -1.0312 -3.8062
  439MOL0     H59254   8.357   8.500  10.790  0.7158  1.9797  0.6441
  439MOL0     H59255   8.514   8.349  10.729 -0.9643 -1.6730  0.2900
  439MOL0     H59256   8.551   8.443  10.869  1.0229 -0.5092  0.4751
  439MOL0     H59257   8.756   8.325  10.822  0.5333  1.1155  0.8412
  439MOL0     H59258   8.667   8.168  10.800 -1.8623 -0.0869  1.2804
  439MOL0     H59259   8.616   8.142  11.022 -0.6805  0.0404 -0.6111
  439MOL0     H59260   8.668   8.313  11.053  0.1609  1.2972 -3.5019
  439MOL0     H59261   8.855   8.196  11.139  1.4945 -1.9470 -0.1640
  439MOL0     H59262   8.906   8.228  10.972  0.4795  0.4562  0.2744
  439MOL0     H59263   8.843   7.805  11.036 -0.0752 -0.3683 -3.8924
  439MOL0     H59264   8.216   8.150  10.997  0.0532  0.4946  0.2022
  439MOL0     H59265   7.986   8.219  10.972 -0.2240  1.5723  2.6782
  440MOL0     O59266   3.353   4.728   6.926  0.6373  0.3185 -1.2729
  440MOL0     C59267   3.372   4.689   6.814 -0.3718  0.4566 -0.6196
  440MOL0     O59268   3.452   4.749   6.724  0.7421 -0.0664 -0.7547
  440MOL0     C59269   3.490   4.872   6.763  0.8064  1.0152  0.2364
  440MOL0     C59270   3.398   4.970   6.803  0.2985 -0.1189  0.4606
  440MOL0     C59271   3.433   5.097   6.848  0.4543  0.7302  0.2905
  440MOL0     C59272   3.570   5.137   6.837 -0.3606  0.6281  0.1581
  440MOL0     O59273   3.627   5.254   6.876  0.6949 -0.1891 -0.2339
  440MOL0     C59274   3.542   5.363   6.928  0.1365  0.3636  0.7309
  440MOL0     C59275   3.634   5.458   6.997  0.2161  0.2393 -0.1183
  440MOL0     C59276   3.762   5.516   6.927 -0.2170 -0.0231 -0.3786
  440MOL0     C59277   3.732   5.566   6.790 -0.3484 -0.3680 -0.2208
  440MOL0     C59278   3.835   5.665   6.755 -0.5098 -0.8575 -1.1312
  440MOL0     C59279   3.821   5.702   6.614 -0.3981  0.3531 -0.0801
  440MOL0     C59280   3.918   5.805   6.560  0.1146 -0.2030  0.9801
  440MOL0     C59281   3.876   5.864   6.423 -0.4372 -0.0540 -0.1475
  440MOL0     N59282   3.984   5.944   6.368 -0.1846 -0.2685  0.2109
  440MOL0     C59283   4.095   5.887   6.308  0.3752 -1.1668 -0.1881
  440MOL0     C59284   4.153   5.987   6.237 -0.2754  1.2538  0.2867
  440MOL0     C59285   4.279   5.963   6.150  0.3894 -0.5168  0.1097
  440MOL0     C59286   4.254   5.949   5.999  0.2992  0.7530 -0.2752
  440MOL0     C59287   4.175   5.825   5.954 -0.5935 -0.1307  0.3427
  440MOL0     C59288   4.040   5.860   5.904 -0.5561  1.5710  0.0046
  440MOL0     O59289   3.950   5.745   5.914 -0.0834  0.2107 -0.6372
  440MOL0     C59290   3.977   5.660   5.814  0.8203  0.4175  0.0999
  440MOL0     C59291   4.033   5.532   5.848 -0.1119  0.1413  0.5331
  440MOL0     C59292   4.057   5.431   5.747 -0.0749 -0.1306  0.1284
  440MOL0     C59293   4.111   5.297   5.804  0.2094 -0.4591 -0.7724
  440MOL0     C59294   4.016   5.452   5.615 -0.7842  0.3517 -0.1220
  440MOL0     C59295   4.031   5.360   5.502 -0.2062  0.1947  0.6246
  440MOL0     O59296   3.957   5.383   5.393  0.3049 -0.7109 -0.2168
  440MOL0     C59297   3.937   5.303   5.282  0.3202  0.5361  0.3123
  440MOL0     C59298   3.881   5.369   5.171 -0.7542 -1.4217  0.1387
  440MOL0     C59299   3.872   5.309   5.048  0.5588 -0.3396  0.0658
  440MOL0     C59300   3.905   5.177   5.045  0.6236  0.4131 -0.7140
  440MOL0     O59301   3.882   5.130   4.914 -0.2666  0.3780 -0.6417
  440MOL0     C59302   3.883   4.991   4.916  0.2316  0.8936  0.3327
  440MOL0     C59303   3.866   4.945   4.772  0.8287  0.2867  0.3508
  440MOL0     C59304   3.996   4.978   4.693  0.0382  0.7210  0.4348
  440MOL0     C59305   4.113   4.884   4.727  1.2962  0.0319 -0.4353
  440MOL0     C59306   4.250   4.969   4.722  0.2204 -0.0620 -0.1411
  440MOL0     C59307   4.365   4.876   4.746  0.0197 -0.6968  0.0692
  440MOL0     C59308   4.504   4.950   4.715  0.5086 -0.6245 -0.4992
  440MOL0     C59309   4.623   4.860   4.754  0.0106  0.5383 -0.2268
  440MOL0    Cl59310   4.600   4.703   4.675  0.0340 -0.0084  0.3719
  440MOL0     C59311   3.927   5.101   5.164 -0.2701 -0.0209 -0.2256
  440MOL0     C59312   3.949   5.158   5.285 -0.2941 -0.6224 -0.8068
  440MOL0     O59313   4.115   5.270   5.508  0.4067 -0.2677 -0.8289
  440MOL0     C59314   3.968   5.582   5.581  0.6301 -0.3667  0.3043
  440MOL0     C59315   3.938   5.679   5.683 -0.4709 -0.5963 -0.5367
  440MOL0     N59316   4.075   6.095   6.255 -0.0310 -0.0674  1.1102
  440MOL0     N59317   3.982   6.081   6.347 -0.6230  0.9114  0.5876
  440MOL0     C59318   3.668   5.039   6.798  0.9182 -0.3116  0.6182
  440MOL0     C59319   3.624   4.912   6.766 -0.2312  0.3225 -0.0416
  440MOL0     C59320   3.310   4.566   6.781  0.3987 -0.9064  0.5233
  440MOL0     C59321   3.195   4.518   6.850  0.5487 -0.4288  0.1275
  440MOL0     C59322   3.120   4.413   6.808 -0.8603  1.7794 -0.5536
  440MOL0     C59323   3.163   4.343   6.697 -0.0073  0.0971  0.9057
  440MOL0     O59324   3.084   4.232   6.686 -0.3472  0.1430 -0.0527
  440MOL0     C59325   3.146   4.104   6.666  0.3092  0.2180  0.3425
  440MOL0     C59326   3.127   4.028   6.812 -0.8410  0.1865  0.2080
  440MOL0     C59327   2.986   4.014   6.856  0.4969 -0.2963 -0.1458
  440MOL0     C59328   2.963   3.945   6.994  0.4816 -0.1976 -0.1586
  440MOL0     C59329   3.014   4.002   7.121 -0.2199  0.7696  0.1051
  440MOL0     C59330   3.048   4.040   7.231  0.0295  0.2647 -0.5833
  440MOL0     C59331   3.272   4.389   6.614  0.2799  0.0796 -0.7775
  440MOL0     C59332   3.336   4.501   6.662  0.1928 -0.8695 -0.1775
  440MOL0     H59333   3.296   4.933   6.796  0.5203 -0.9847  1.5138
  440MOL0     H59334   3.356   5.160   6.892  1.1218  1.4022  0.5174
  440MOL0     H59335   3.496   5.415   6.844 -1.1311  0.0320  1.1884
  440MOL0     H59336   3.465   5.317   6.990  0.7213 -1.0621  0.4349
  440MOL0     H59337   3.579   5.547   7.028  1.4188  0.7530  0.6099
  440MOL0     H59338   3.669   5.421   7.094  1.0177  3.4936  0.9367
  440MOL0     H59339   3.804   5.595   6.989 -0.8626 -1.0009  1.3694
  440MOL0     H59340   3.838   5.437   6.925 -2.8030 -2.7176 -1.9527
  440MOL0     H59341   3.729   5.483   6.719 -4.3707 -1.1192  0.5644
  440MOL0     H59342   3.635   5.616   6.791 -0.6196 -0.8539 -1.0816
  440MOL0     H59343   3.822   5.757   6.812 -3.1818 -1.8572  0.0344
  440MOL0     H59344   3.931   5.613   6.767 -2.4952 -4.5349  0.4777
  440MOL0     H59345   3.830   5.621   6.541  0.7202  1.3725 -1.1383
  440MOL0     H59346   3.719   5.736   6.595  0.4154  1.0443 -3.9152
  440MOL0     H59347   3.911   5.886   6.633 -2.4568 -1.2954  2.0841
  440MOL0     H59348   4.016   5.757   6.551  0.8110  1.4273 -1.1536
  440MOL0     H59349   3.796   5.937   6.434 -0.2848  0.1076 -0.1110
  440MOL0     H59350   3.844   5.786   6.353 -2.3824  0.1881  0.4360
  440MOL0     H59351   4.132   5.786   6.320  0.2981 -1.4033 -1.7863
  440MOL0     H59352   4.356   6.041   6.151  0.7242 -0.8421  0.9854
  440MOL0     H59353   4.327   5.869   6.179  1.2458  0.8016  3.3980
  440MOL0     H59354   4.352   5.953   5.950 -0.0276  2.8172 -0.8699
  440MOL0     H59355   4.195   6.039   5.976  1.5811  1.6384 -0.2241
  440MOL0     H59356   4.166   5.750   6.033 -2.8462  0.5338  0.7667
  440MOL0     H59357   4.241   5.784   5.877 -1.1493  0.8629 -0.6981
  440MOL0     H59358   4.054   5.906   5.806  1.5696 -0.5936 -0.8248
  440MOL0     H59359   3.988   5.938   5.960  0.7160  3.1164 -0.8774
  440MOL0     H59360   4.053   5.522   5.954  2.4043  0.5308  0.1698
  440MOL0     H59361   4.080   5.211   5.745 -0.5921 -1.7628  1.4340
  440MOL0     H59362   4.220   5.298   5.799  0.4190 -1.5909  2.0416
  440MOL0     H59363   4.089   5.289   5.911  0.7441  0.4795 -0.5763
  440MOL0     H59364   3.873   5.476   5.187  3.4031 -0.0606 -4.2292
  440MOL0     H59365   3.840   5.351   4.954  2.9159 -2.3103 -1.7496
  440MOL0     H59366   3.982   4.951   4.941  0.1711 -0.6864 -1.6859
  440MOL0     H59367   3.801   4.955   4.979 -0.1629  2.1171  0.5546
  440MOL0     H59368   3.851   4.838   4.762 -1.1848  0.5452  0.1278
  440MOL0     H59369   3.785   5.004   4.729  0.6629 -1.5321 -2.0001
  440MOL0     H59370   4.018   5.083   4.717  0.9571  0.7332 -0.4187
  440MOL0     H59371   3.976   4.976   4.586 -1.6335  1.8151  0.6934
  440MOL0     H59372   4.100   4.842   4.827  3.8059  1.8378  0.7475
  440MOL0     H59373   4.112   4.801   4.656 -0.6424  0.4690 -0.9981
  440MOL0     H59374   4.253   5.053   4.791 -3.4367 -0.8006  1.1328
  440MOL0     H59375   4.270   5.006   4.621  0.9724  0.5574  0.2283
  440MOL0     H59376   4.351   4.837   4.848 -3.7777 -0.2396 -0.1414
  440MOL0     H59377   4.346   4.800   4.669 -3.7043 -1.5105  1.5592
  440MOL0     H59378   4.513   5.042   4.772  0.0451 -0.7302 -0.2466
  440MOL0     H59379   4.518   4.979   4.610  2.2672 -0.9801 -0.3986
  440MOL0     H59380   4.627   4.860   4.864  1.3999  2.0256 -0.2363
  440MOL0     H59381   4.719   4.903   4.724 -0.0648  1.0586  0.2603
  440MOL0     H59382   3.941   4.994   5.154  2.7388  0.3465 -0.9963
  440MOL0     H59383   3.971   5.108   5.378  2.0434 -2.1818 -2.1077
  440MOL0     H59384   3.948   5.608   5.478 -0.6783 -1.2198  0.3177
  440MOL0     H59385   3.894   5.773   5.653  1.0063  0.9479  1.8171
  440MOL0     H59386   3.772   5.069   6.790  0.8212  0.3782  1.8356
  440MOL0     H59387   3.703   4.839   6.752  1.7921  2.4286 -0.2530
  440MOL0     H59388   3.180   4.556   6.951 -0.2237 -0.9385  0.2114
  440MOL0     H59389   3.038   4.378   6.871  1.0668 -0.1221  1.0698
  440MOL0     H59390   3.095   4.058   6.581 -0.5378  2.0057 -0.1749
  440MOL0     H59391   3.253   4.113   6.647  0.3493  2.6810  1.3079
  440MOL0     H59392   3.165   4.101   6.884 -3.6428  1.2481  0.7679
  440MOL0     H59393   3.180   3.932   6.810  1.5646  1.4414  0.0550
  440MOL0     H59394   2.923   3.958   6.786 -1.3501 -0.2363  1.3780
  440MOL0     H59395   2.933   4.109   6.858 -0.5826 -0.8835  0.9089
  440MOL0     H59396   2.988   3.838   6.995  2.0326  0.1461  0.7966
  440MOL0     H59397   2.858   3.960   7.021  0.6797 -0.7984  1.0021
  440MOL0     H59398   3.080   4.068   7.330 -1.5708 -0.1423  0.0719
  440MOL0     H59399   3.298   4.343   6.519 -0.6287 -0.9036 -0.5577
  440MOL0     H59400   3.409   4.529   6.587 -0.0822  0.4003  0.0016
  441MOL0     O59401   5.315   9.007   7.156  0.4645 -0.6957  0.3114
  441MOL0     C59402   5.197   9.046   7.160 -0.5848 -0.5556 -0.3862
  441MOL0     O59403   5.152   9.155   7.108  0.3948  0.3649  0.7344
  441MOL0     C59404   5.233   9.236   7.031 -0.3792  1.3318  0.4866
  441MOL0     C59405   5.280   9.207   6.903  0.3620  0.1058 -1.1257
  441MOL0     C59406   5.353   9.287   6.815  0.2851 -0.1779  0.7057
  441MOL0     C59407   5.401   9.407   6.868  0.0463  1.0853  1.5464
  441MOL0     O59408   5.496   9.470   6.786  0.1635  0.2046 -0.4631
  441MOL0     C59409   5.571   9.580   6.846  0.4864  0.1414  0.0077
  441MOL0     C59410   5.687   9.624   6.749  0.1401 -0.2165  0.3782
  441MOL0     C59411   5.821   9.550   6.774  0.1746 -0.2507  0.2707
  441MOL0     C59412   5.823   9.401   6.749  0.0070 -0.3053  0.0403
  441MOL0     C59413   5.950   9.334   6.810  0.7009  1.0091  0.8170
  441MOL0     C59414   6.078   9.333   6.723  0.3085  0.0648  0.1501
  441MOL0     C59415   6.188   9.264   6.808  1.2872  0.3151 -0.2644
  441MOL0     C59416   6.320   9.202   6.747  0.7568 -0.7428  0.4081
  441MOL0     N59417   6.391   9.314   6.680  0.6029  0.1836  0.1305
  441MOL0     C59418   6.437   9.426   6.740 -0.2747  0.5795 -0.2460
  441MOL0     C59419   6.517   9.488   6.649 -0.1958  1.0334  0.4187
  441MOL0     C59420   6.603   9.615   6.656  0.0229 -0.3536 -0.7041
  441MOL0     C59421   6.560   9.712   6.544  0.3375  0.5843 -1.0768
  441MOL0     C59422   6.418   9.761   6.572  0.7836 -0.0152  0.0188
  441MOL0     C59423   6.393   9.820   6.709  0.6612  0.7474  0.3253
  441MOL0     O59424   6.291   9.927   6.709 -0.5092  0.1946  0.1365
  441MOL0     C59425   6.281  10.003   6.825  0.3024 -0.7960 -0.2480
  441MOL0     C59426   6.377   9.991   6.928 -0.0114  0.0875 -0.2841
  441MOL0     C59427   6.356  10.063   7.049 -0.1320 -0.5202  0.2392
  441MOL0     C59428   6.465  10.048   7.155  0.4342 -1.5748  0.1604
  441MOL0     C59429   6.239  10.142   7.074  0.0532 -0.3747 -0.4003
  441MOL0     C59430   6.192  10.197   7.204 -0.0927  0.4017 -0.1102
  441MOL0     O59431   6.133  10.320   7.204  0.1591  0.0042  0.5007
  441MOL0     C59432   6.139  10.381   7.329  0.6214 -0.4312 -0.6930
  441MOL0     C59433   6.241  10.475   7.353  0.2738  0.2790 -0.4276
  441MOL0     C59434   6.256  10.546   7.470  0.2164 -0.9364 -0.9682
  441MOL0     C59435   6.156  10.532   7.575 -0.2460  0.1252  1.1328
  441MOL0     O59436   6.174  10.611   7.683  0.5282  0.8310 -0.6825
  441MOL0     C59437   6.092  10.610   7.803  0.0755  0.2277 -0.1242
  441MOL0     C59438   6.141  10.738   7.890  0.5997  0.6495  0.1096
  441MOL0     C59439   6.104  10.720   8.040 -0.0116 -0.2868  1.4067
  441MOL0     C59440   6.200  10.639   8.121 -0.4144 -0.5879 -1.3658
  441MOL0     C59441   6.120  10.604   8.254  1.4270 -0.4249 -0.2376
  441MOL0     C59442   6.071  10.453   8.262 -0.6696  0.1030  0.4968
  441MOL0     C59443   5.987  10.407   8.140 -1.1255  0.2506  0.0236
  441MOL0     C59444   6.007  10.258   8.120  0.5219  0.5766  0.7406
  441MOL0    Cl59445   6.177  10.225   8.081 -0.0143 -0.0608  1.0147
  441MOL0     C59446   6.045  10.447   7.543 -0.2912 -0.5770  0.4343
  441MOL0     C59447   6.036  10.369   7.420  0.5116 -0.0228 -0.1935
  441MOL0     O59448   6.211  10.132   7.303  0.1779  0.1732 -0.4111
  441MOL0     C59449   6.147  10.167   6.963 -0.1797  0.3496 -0.5109
  441MOL0     C59450   6.166  10.086   6.851  0.0570  1.1736  0.3929
  441MOL0     N59451   6.504   9.425   6.527  0.8039 -0.3384  0.4026
  441MOL0     N59452   6.437   9.317   6.550  0.2991  0.4079  0.2854
  441MOL0     C59453   5.371   9.439   6.999 -0.9909  0.0874 -0.6575
  441MOL0     C59454   5.291   9.356   7.083 -0.2831 -0.3770  0.2078
  441MOL0     C59455   5.090   8.951   7.219  0.0511 -0.3656  0.7475
  441MOL0     C59456   4.947   8.986   7.207  0.0506  0.0463  0.7181
  441MOL0     C59457   4.851   8.898   7.257  0.5021 -0.4311 -0.0679
  441MOL0     C59458   4.889   8.770   7.304  1.2616  0.8623  0.2615
  441MOL0     O59459   4.776   8.700   7.344  0.3316  0.5889 -0.6599
  441MOL0     C59460   4.785   8.554   7.354  0.6450  0.7068 -0.2168
  441MOL0     C59461   4.647   8.491   7.369 -0.2673 -0.1515  0.0020
  441MOL0     C59462   4.569   8.488   7.248  0.0755 -0.3716  0.0225
  441MOL0     C59463   4.615   8.400   7.141 -0.0747  1.2454  0.1845
  441MOL0     C59464   4.611   8.252   7.173 -0.4533  1.1353 -0.2899
  441MOL0     C59465   4.582   8.131   7.203 -0.8344 -0.0217 -0.3867
  441MOL0     C59466   5.023   8.736   7.316  0.4752  0.4386  0.4115
  441MOL0     C59467   5.126   8.828   7.274 -0.8020 -0.3702  0.2370
  441MOL0     H59468   5.246   9.111   6.866 -0.7136 -0.5789  1.4044
  441MOL0     H59469   5.375   9.262   6.711 -1.4081  1.2305 -0.0533
  441MOL0     H59470   5.499   9.659   6.867  1.8444  1.3746  0.1953
  441MOL0     H59471   5.621   9.551   6.939  0.1705  0.2666  0.2171
  441MOL0     H59472   5.665   9.610   6.642 -3.9377 -0.5476  1.0810
  441MOL0     H59473   5.704   9.730   6.766  0.5162  0.3756 -2.9559
  441MOL0     H59474   5.893   9.591   6.702  1.4848 -0.3647  1.4730
  441MOL0     H59475   5.866   9.563   6.872  0.3209  0.2347  0.1409
  441MOL0     H59476   5.732   9.354   6.788  0.9508 -1.2913  1.1541
  441MOL0     H59477   5.833   9.385   6.641  1.0884 -2.7784  0.4202
  441MOL0     H59478   5.982   9.373   6.907 -0.9648  0.0201  1.8112
  441MOL0     H59479   5.934   9.226   6.818  1.0942  0.4330 -3.5476
  441MOL0     H59480   6.058   9.282   6.628  1.6531  1.2386 -0.8083
  441MOL0     H59481   6.109   9.434   6.694  0.1972 -0.0571 -0.3964
  441MOL0     H59482   6.218   9.344   6.877  2.5922 -0.0486 -0.3857
  441MOL0     H59483   6.150   9.177   6.863  1.0935 -0.9312 -2.2580
  441MOL0     H59484   6.298   9.129   6.669  0.1090  0.4967 -0.6070
  441MOL0     H59485   6.393   9.155   6.814  1.1951 -1.4060 -0.5129
  441MOL0     H59486   6.421   9.443   6.846 -0.2893 -1.7636  0.1959
  441MOL0     H59487   6.599   9.657   6.757 -2.0370 -1.2858 -0.3440
  441MOL0     H59488   6.701   9.576   6.628 -0.1114  0.8612 -3.0732
  441MOL0     H59489   6.569   9.662   6.447  0.4120  0.5115 -1.0331
  441MOL0     H59490   6.626   9.799   6.540  4.3436 -1.8870  2.3834
  441MOL0     H59491   6.339   9.689   6.548 -0.4558  0.7647  1.6468
  441MOL0     H59492   6.404   9.843   6.501 -0.4050  0.0183  0.2687
  441MOL0     H59493   6.490   9.866   6.730  1.7850 -1.9168  1.4576
  441MOL0     H59494   6.368   9.745   6.785 -0.4982  1.6004  0.8102
  441MOL0     H59495   6.465   9.929   6.913 -0.1995 -1.2708  3.2867
  441MOL0     H59496   6.484  10.147   7.197  3.2906 -2.7784  1.9959
  441MOL0     H59497   6.439   9.978   7.235  0.8648 -1.0606  0.7567
  441MOL0     H59498   6.558  10.026   7.101 -0.3374 -0.6257 -1.6345
  441MOL0     H59499   6.314  10.480   7.274  0.4110  0.8163 -0.2737
  441MOL0     H59500   6.348  10.600   7.486  0.2797 -1.7634  2.0492
  441MOL0     H59501   5.986  10.611   7.776  0.1042 -0.2729 -0.2716
  441MOL0     H59502   6.116  10.517   7.857 -1.9542  0.1868  0.8269
  441MOL0     H59503   6.250  10.753   7.887  0.3393  3.3457  1.1222
  441MOL0     H59504   6.100  10.833   7.853  1.2278  1.5732  1.6895
  441MOL0     H59505   6.005  10.673   8.040  0.6734 -1.8594  3.3176
  441MOL0     H59506   6.086  10.815   8.090  1.3604 -0.0980  1.5935
  441MOL0     H59507   6.236  10.547   8.073  0.4851 -0.6072 -0.6754
  441MOL0     H59508   6.287  10.702   8.142 -1.0345 -0.8715  2.8811
  441MOL0     H59509   6.030  10.665   8.265  3.9225  3.9538 -1.3711
  441MOL0     H59510   6.187  10.619   8.340  0.6728 -1.4217  0.5509
  441MOL0     H59511   6.163  10.396   8.275 -1.7131 -1.7744  0.0962
  441MOL0     H59512   6.010  10.444   8.353 -0.5228 -1.9596  0.4416
  441MOL0     H59513   6.014  10.467   8.053 -0.2686 -0.3702 -0.1526
  441MOL0     H59514   5.884  10.434   8.165 -1.1043 -0.4021  0.8449
  441MOL0     H59515   5.955  10.223   8.030  3.0148 -1.6120 -0.0055
  441MOL0     H59516   5.976  10.217   8.217 -1.7963  2.4936  0.9098
  441MOL0     H59517   5.964  10.431   7.613 -1.8270  1.0961 -0.8682
  441MOL0     H59518   5.956  10.297   7.406  2.3541 -2.0577 -0.7305
  441MOL0     H59519   6.055  10.223   6.973 -0.6525 -0.4972 -0.0794
  441MOL0     H59520   6.083  10.072   6.782  2.5779 -0.7588 -2.5069
  441MOL0     H59521   5.404   9.527   7.054 -0.4607  0.0443 -0.9055
  441MOL0     H59522   5.285   9.380   7.189 -0.3687 -2.5619  0.7616
  441MOL0     H59523   4.918   9.087   7.180 -0.1387  0.4975  2.4828
  441MOL0     H59524   4.747   8.928   7.257  0.6908  0.2620 -0.9484
  441MOL0     H59525   4.829   8.517   7.261  1.6255 -0.6862  0.7675
  441MOL0     H59526   4.837   8.522   7.444  0.6001  2.4019  0.4438
  441MOL0     H59527   4.585   8.552   7.436 -1.4233 -1.8921  0.5965
  441MOL0     H59528   4.654   8.386   7.399 -1.3356 -0.5404 -1.0219
  441MOL0     H59529   4.548   8.586   7.205 -1.2069 -1.4700 -2.0147
  441MOL0     H59530   4.474   8.448   7.286  0.0473  1.5930  2.2432
  441MOL0     H59531   4.718   8.432   7.122  0.8238  0.0789  2.6680
  441MOL0     H59532   4.558   8.417   7.049 -1.2286 -0.5827  0.5169
  441MOL0     H59533   4.563   8.027   7.221  0.9756 -0.0937  1.3802
  441MOL0     H59534   5.047   8.638   7.356 -5.4847 -1.9867 -0.8149
  441MOL0     H59535   5.232   8.805   7.271 -0.6812  0.2529 -2.0570
  442MOL0     O59536   9.776   0.575   7.753  0.5392 -0.1746  0.2467
  442MOL0     C59537   9.803   0.692   7.709  0.5219  0.8224 -0.1680
  442MOL0     O59538   9.919   0.762   7.732  0.1840 -0.9827 -0.3567
  442MOL0     C59539  10.026   0.694   7.768 -1.0087 -0.8159 -0.0043
  442MOL0     C59540  10.057   0.636   7.888 -0.1892  0.6196 -1.0350
  442MOL0     C59541  10.163   0.553   7.911 -0.0200  0.2972 -0.3327
  442MOL0     C59542  10.245   0.507   7.810  1.1224 -1.1346  0.4752
  442MOL0     O59543  10.349   0.424   7.839  0.2830  0.5887  0.0668
  442MOL0     C59544  10.404   0.340   7.736 -0.5808 -0.3324 -0.6676
  442MOL0     C59545  10.481   0.214   7.805 -0.0301 -0.3785  0.2621
  442MOL0     C59546  10.390   0.097   7.827  0.4438 -0.3175 -0.6125
  442MOL0     C59547  10.465  -0.019   7.900 -1.0688  0.4269 -0.2540
  442MOL0     C59548  10.372  -0.132   7.931 -0.0056 -0.6969  0.4290
  442MOL0     C59549  10.331  -0.219   7.809 -0.5948 -0.6960 -0.7474
  442MOL0     C59550  10.268  -0.343   7.860  1.1314 -0.4157 -0.0030
  442MOL0     C59551  10.185  -0.422   7.761 -0.1368  0.8066  0.2024
  442MOL0     N59552  10.044  -0.374   7.773 -0.7659  0.3721 -0.6810
  442MOL0     C59553   9.954  -0.435   7.857 -0.6544  0.1253 -0.3243
  442MOL0     C59554   9.836  -0.365   7.847  0.8325 -0.4241 -0.5221
  442MOL0     C59555   9.705  -0.395   7.925 -0.1428  0.7926  0.7773
  442MOL0     C59556   9.612  -0.279   7.915 -0.5673  0.6445 -0.5421
  442MOL0     C59557   9.641  -0.149   7.964 -0.0244 -0.7458 -0.4219
  442MOL0     C59558   9.519  -0.060   7.970  0.2479  1.0685  0.0326
  442MOL0     O59559   9.422  -0.108   8.068 -0.2611 -0.0606 -0.6452
  442MOL0     C59560   9.411  -0.014   8.172  0.0116  0.6197  0.4823
  442MOL0     C59561   9.513   0.029   8.262 -0.7761 -0.1305  0.4252
  442MOL0     C59562   9.491   0.154   8.332 -0.6239 -0.5693 -0.3270
  442MOL0     C59563   9.599   0.196   8.426  0.5222  0.0627  1.2336
  442MOL0     C59564   9.382   0.223   8.306  0.4537  0.2022  1.0877
  442MOL0     C59565   9.349   0.346   8.382  0.3026  0.3920  0.8714
  442MOL0     O59566   9.265   0.331   8.487  0.2976  0.0558  0.3237
  442MOL0     C59567   9.235   0.443   8.549  0.0432  0.3502  0.3879
  442MOL0     C59568   9.099   0.456   8.586 -0.2504  0.3051 -0.9863
  442MOL0     C59569   9.050   0.575   8.648 -0.7002 -0.0425 -0.6434
  442MOL0     C59570   9.138   0.675   8.686  0.6658  0.4656 -0.3410
  442MOL0     O59571   9.097   0.775   8.764  0.1231 -0.0997 -0.5812
  442MOL0     C59572   9.159   0.906   8.759 -0.2926  0.2251  0.0709
  442MOL0     C59573   9.070   1.022   8.784 -0.1377 -0.5711  0.6928
  442MOL0     C59574   8.956   1.030   8.676  0.5563 -0.2205 -1.3580
  442MOL0     C59575   8.951   1.174   8.622 -0.6035  0.7803 -0.2008
  442MOL0     C59576   8.885   1.183   8.478  0.2535 -1.0182 -0.2981
  442MOL0     C59577   8.917   1.323   8.427  0.3330 -0.8522  0.9904
  442MOL0     C59578   8.821   1.358   8.308 -0.1210  0.7930 -0.2923
  442MOL0     C59579   8.864   1.297   8.172  0.9833 -0.3475 -0.4190
  442MOL0    Cl59580   8.730   1.310   8.053 -0.2241  0.0907 -0.3236
  442MOL0     C59581   9.274   0.653   8.671 -0.5896  0.1773  1.1722
  442MOL0     C59582   9.324   0.544   8.589 -0.2892 -0.3972  0.0855
  442MOL0     O59583   9.415   0.452   8.349  0.0007  0.1893 -0.2134
  442MOL0     C59584   9.277   0.162   8.239  0.8075  0.7941  0.2774
  442MOL0     C59585   9.291   0.050   8.162 -0.0884 -0.5812  0.3925
  442MOL0     N59586   9.864  -0.259   7.759 -0.2975 -0.9703  0.0825
  442MOL0     N59587   9.992  -0.266   7.715 -0.0936 -0.2456 -0.0311
  442MOL0     C59588  10.225   0.576   7.685 -0.8997  0.2291  1.0512
  442MOL0     C59589  10.115   0.658   7.668 -0.7334 -0.3192  0.5090
  442MOL0     C59590   9.685   0.758   7.639 -0.1980 -0.9079 -0.3502
  442MOL0     C59591   9.674   0.898   7.632 -0.1053  0.0195  0.3152
  442MOL0     C59592   9.571   0.959   7.566 -1.0629  0.0307  0.2062
  442MOL0     C59593   9.460   0.884   7.520 -0.9781 -0.2053 -0.1024
  442MOL0     O59594   9.354   0.951   7.463  1.3351  0.2002 -0.3791
  442MOL0     C59595   9.231   0.873   7.452 -0.2520 -0.7222  0.3654
  442MOL0     C59596   9.108   0.971   7.459 -0.2282 -0.2012 -0.4104
  442MOL0     C59597   8.978   0.903   7.404 -0.1868  0.6182  0.0097
  442MOL0     C59598   8.853   0.978   7.425 -0.8296 -0.6506 -0.4775
  442MOL0     C59599   8.840   1.030   7.563 -0.9951  0.7209  0.5964
  442MOL0     C59600   8.833   1.078   7.671 -0.2215 -0.2459 -0.4793
  442MOL0     C59601   9.463   0.737   7.531 -0.4919  1.3009 -0.2108
  442MOL0     C59602   9.581   0.674   7.584  0.3724 -0.4509  0.3485
  442MOL0     H59603   9.986   0.642   7.970  1.0307 -0.5748  0.1709
  442MOL0     H59604  10.166   0.496   8.003 -1.2400  2.9281  1.4699
  442MOL0     H59605  10.318   0.312   7.675 -0.1224  2.7394 -2.9702
  442MOL0     H59606  10.476   0.401   7.680 -1.4464  3.4520  1.9355
  442MOL0     H59607  10.554   0.194   7.725 -2.6702  1.4624 -2.8334
  442MOL0     H59608  10.532   0.254   7.893 -1.1327  0.0099  0.7369
  442MOL0     H59609  10.302   0.118   7.889  0.0789 -3.8607  0.2588
  442MOL0     H59610  10.352   0.060   7.732  1.4739 -0.7029 -0.8861
  442MOL0     H59611  10.539  -0.060   7.830  0.8480  0.7599  1.4601
  442MOL0     H59612  10.521   0.006   7.991 -0.6360  1.9162 -0.9007
  442MOL0     H59613  10.440  -0.193   7.991 -0.7201 -0.0822  1.9281
  442MOL0     H59614  10.288  -0.105   7.996  0.3191  0.0746  0.5438
  442MOL0     H59615  10.272  -0.158   7.741 -0.2428  0.5409  0.0151
  442MOL0     H59616  10.417  -0.253   7.750  0.0321 -1.4585  0.5694
  442MOL0     H59617  10.350  -0.407   7.894  3.0487  1.5945 -0.6333
  442MOL0     H59618  10.207  -0.322   7.949  1.6631  2.2815 -0.2020
  442MOL0     H59619  10.191  -0.526   7.794 -1.1204  0.6133 -0.2114
  442MOL0     H59620  10.232  -0.420   7.662  0.9301 -2.3042  0.5268
  442MOL0     H59621   9.963  -0.511   7.933 -1.6558 -0.1547 -0.4689
  442MOL0     H59622   9.671  -0.485   7.872 -1.0751  0.9201  1.1424
  442MOL0     H59623   9.720  -0.401   8.033  1.4665 -2.7735  0.4998
  442MOL0     H59624   9.520  -0.302   7.969  0.3355  3.2044  2.4067
  442MOL0     H59625   9.569  -0.270   7.814 -0.6159 -0.8477 -0.6736
  442MOL0     H59626   9.711  -0.108   7.891  0.8268  1.4594  1.4995
  442MOL0     H59627   9.683  -0.155   8.065 -1.1421  1.1428  0.2094
  442MOL0     H59628   9.473  -0.038   7.873 -1.7426 -2.0662  0.1293
  442MOL0     H59629   9.552   0.039   8.001  2.5501  0.5422 -0.5728
  442MOL0     H59630   9.610  -0.020   8.266  1.2878  3.2612 -2.4179
  442MOL0     H59631   9.696   0.152   8.401 -0.1035 -0.9817  0.5643
  442MOL0     H59632   9.613   0.305   8.419  0.3464  0.0079 -4.1733
  442MOL0     H59633   9.574   0.175   8.530  0.0091 -1.4280  0.8289
  442MOL0     H59634   9.026   0.377   8.573 -1.8646  0.9220  2.8895
  442MOL0     H59635   8.944   0.587   8.666 -0.6364  1.4295 -1.0535
  442MOL0     H59636   9.243   0.906   8.829 -0.5050  0.1814  0.3259
  442MOL0     H59637   9.204   0.917   8.660  1.9820  0.5984  1.0724
  442MOL0     H59638   9.018   1.027   8.881 -1.9845  2.3818 -0.3183
  442MOL0     H59639   9.126   1.115   8.778 -4.3295  2.1383 -0.7578
  442MOL0     H59640   8.860   1.020   8.727  2.7529 -4.5274  2.7013
  442MOL0     H59641   8.960   0.959   8.593 -0.0647 -0.7265 -0.9623
  442MOL0     H59642   8.907   1.238   8.700 -0.0586  0.1259  0.6711
  442MOL0     H59643   9.055   1.205   8.610 -0.6170  0.9002 -0.0262
  442MOL0     H59644   8.777   1.201   8.485 -0.0688 -2.5238 -0.9505
  442MOL0     H59645   8.915   1.103   8.410 -1.9950 -1.5849 -0.7178
  442MOL0     H59646   8.908   1.400   8.503 -3.8981  1.7998 -1.7626
  442MOL0     H59647   9.018   1.325   8.385 -0.1494  1.9764 -0.2451
  442MOL0     H59648   8.816   1.466   8.291  0.2307  0.7489 -0.7066
  442MOL0     H59649   8.718   1.336   8.338  0.8678 -1.3277  1.8997
  442MOL0     H59650   8.870   1.190   8.194 -2.1576 -0.6594 -0.5639
  442MOL0     H59651   8.964   1.327   8.141  3.0349 -3.2604  2.6694
  442MOL0     H59652   9.342   0.722   8.720 -3.9458  1.0162  5.1883
  442MOL0     H59653   9.431   0.537   8.574  0.6749 -1.1154  5.3035
  442MOL0     H59654   9.189   0.226   8.231  1.7681  2.3667  1.6285
  442MOL0     H59655   9.214   0.018   8.093 -0.1238  0.1620  0.0786
  442MOL0     H59656  10.274   0.552   7.592 -1.9814  1.0841  0.2381
  442MOL0     H59657  10.087   0.705   7.574  0.5216  3.6889  1.9306
  442MOL0     H59658   9.747   0.956   7.689  1.4347  0.2890 -1.8053
  442MOL0     H59659   9.556   1.066   7.555 -1.0048 -0.1501 -2.4837
  442MOL0     H59660   9.236   0.816   7.359  0.5589 -1.3014  0.7486
  442MOL0     H59661   9.220   0.808   7.540 -0.4616  0.6737  1.4045
  442MOL0     H59662   9.128   1.054   7.390 -2.1993  0.1680 -0.6156
  442MOL0     H59663   9.083   1.010   7.559 -1.4646  0.1370 -0.8352
  442MOL0     H59664   8.961   0.815   7.467  1.3136  0.6027  0.4313
  442MOL0     H59665   8.977   0.870   7.300 -2.6291 -2.3780  0.8125
  442MOL0     H59666   8.774   0.904   7.412  0.9550 -2.2462 -3.1777
  442MOL0     H59667   8.828   1.053   7.349 -2.6374  1.8128  2.3089
  442MOL0     H59668   8.806   1.119   7.766  0.0778  0.5197 -0.7114
  442MOL0     H59669   9.380   0.678   7.491 -0.3735 -0.2073  1.6231
  442MOL0     H59670   9.584   0.566   7.580  0.4208 -0.6061  2.9661
  443MOL0     O59671   0.992   5.898   5.401 -0.0612 -0.2612 -0.5451
  443MOL0     C59672   0.930   5.803   5.351 -0.4655 -0.3864  0.2040
  443MOL0     O59673   0.908   5.684   5.410  0.4061 -0.5764 -0.6588
  443MOL0     C59674   0.992   5.641   5.516 -0.3339  0.0724  0.3863
  443MOL0     C59675   1.021   5.720   5.630 -0.3173  0.2970  0.5215
  443MOL0     C59676   1.094   5.669   5.738 -0.4231  1.3636  0.5000
  443MOL0     C59677   1.140   5.543   5.736 -0.1304  0.8761 -1.0934
  443MOL0     O59678   1.210   5.479   5.837  0.2334 -0.0341 -0.0640
  443MOL0     C59679   1.251   5.542   5.962 -0.3645 -0.3350  0.4132
  443MOL0     C59680   1.377   5.476   6.013 -0.6053  0.5166  0.4088
  443MOL0     C59681   1.340   5.347   6.083 -0.0358  0.6432  0.0309
  443MOL0     C59682   1.447   5.243   6.100  0.3604 -0.4488 -0.2161
  443MOL0     C59683   1.388   5.109   6.154  0.0608 -0.2515 -0.0686
  443MOL0     C59684   1.503   5.005   6.159 -0.1725 -0.1794 -0.0114
  443MOL0     C59685   1.473   4.875   6.234  0.0516 -0.7671 -0.6409
  443MOL0     C59686   1.608   4.803   6.282 -0.3089 -0.1054  1.0330
  443MOL0     N59687   1.727   4.804   6.199 -0.7201 -0.3657 -0.2116
  443MOL0     C59688   1.814   4.921   6.169  0.6928  0.1537 -0.0348
  443MOL0     C59689   1.916   4.875   6.096  0.7447 -0.4305 -0.4697
  443MOL0     C59690   2.021   4.975   6.045 -0.1372 -0.6717 -0.4665
  443MOL0     C59691   1.975   5.111   5.990  0.0062 -0.4500 -0.2227
  443MOL0     C59692   2.104   5.209   5.969 -0.0659  0.5078  0.5648
  443MOL0     C59693   2.169   5.263   6.094 -0.8909  0.0454 -0.7462
  443MOL0     O59694   2.297   5.326   6.066 -0.4201  0.4033 -0.2150
  443MOL0     C59695   2.395   5.249   6.013 -0.4569  0.3956  0.5133
  443MOL0     C59696   2.488   5.321   5.937 -0.5169 -0.1783 -1.0197
  443MOL0     C59697   2.596   5.258   5.870 -0.7728 -0.5481 -0.6478
  443MOL0     C59698   2.690   5.353   5.805 -0.4940 -0.0698 -0.1731
  443MOL0     C59699   2.605   5.111   5.874 -0.3479 -0.0057 -0.5623
  443MOL0     C59700   2.719   5.036   5.812 -0.9956  0.2945  1.0456
  443MOL0     O59701   2.751   5.069   5.687  0.1381  0.4994  0.0165
  443MOL0     C59702   2.867   5.017   5.631 -0.4325  0.9782 -0.3442
  443MOL0     C59703   2.997   5.058   5.673 -0.3367  0.9355 -0.5767
  443MOL0     C59704   3.113   5.001   5.608 -0.2229  0.7502  0.8569
  443MOL0     C59705   3.105   4.904   5.503  0.7784  0.0523 -0.9640
  443MOL0     O59706   3.205   4.848   5.429 -0.2456  0.3653  0.4658
  443MOL0     C59707   3.325   4.937   5.428  0.4034 -0.8240 -0.2448
  443MOL0     C59708   3.427   4.882   5.328  0.4303 -0.5560 -0.4976
  443MOL0     C59709   3.538   4.983   5.283  0.4843  0.2775 -0.3144
  443MOL0     C59710   3.615   4.953   5.154  0.7095  0.7167 -0.0045
  443MOL0     C59711   3.655   4.797   5.135  1.1805 -0.3145  0.1003
  443MOL0     C59712   3.770   4.748   5.218  0.3893 -0.2825  0.3153
  443MOL0     C59713   3.855   4.621   5.171 -0.0392 -0.1533 -1.3896
  443MOL0     C59714   3.997   4.634   5.217  0.5101  0.4078  0.4632
  443MOL0    Cl59715   4.088   4.717   5.099 -0.2245  0.2155  0.3093
  443MOL0     C59716   2.970   4.877   5.469 -0.4944 -0.1731  0.1169
  443MOL0     C59717   2.861   4.928   5.531  0.2998 -0.3990  0.0900
  443MOL0     O59718   2.763   4.935   5.868 -0.4719 -0.8140  0.2923
  443MOL0     C59719   2.507   5.039   5.941 -0.0852 -0.7005 -0.3349
  443MOL0     C59720   2.405   5.115   6.010  1.0787  0.9284  0.3791
  443MOL0     N59721   1.900   4.740   6.075  0.4984  0.8917 -0.1393
  443MOL0     N59722   1.786   4.699   6.137  0.1935 -0.4777 -0.2833
  443MOL0     C59723   1.123   5.468   5.620  0.2933  0.2358  1.1740
  443MOL0     C59724   1.056   5.519   5.502 -0.0726 -0.4053 -0.7924
  443MOL0     C59725   0.870   5.825   5.219  0.1851  0.0515  0.9102
  443MOL0     C59726   0.860   5.722   5.122 -1.6475  0.7151 -0.6349
  443MOL0     C59727   0.803   5.731   5.002  0.2655  0.0804 -0.0780
  443MOL0     C59728   0.727   5.849   4.969 -0.5642  0.7754  0.1669
  443MOL0     O59729   0.667   5.849   4.845 -0.8023  0.1945 -0.1320
  443MOL0     C59730   0.597   5.959   4.789  0.2495  0.1220 -0.0813
  443MOL0     C59731   0.570   5.927   4.643  0.3086 -0.1030 -1.9123
  443MOL0     C59732   0.696   5.922   4.558  0.2372 -0.4590  0.5525
  443MOL0     C59733   0.655   5.853   4.427  0.3149 -0.6941  0.2158
  443MOL0     C59734   0.685   5.707   4.424 -0.4069 -0.0444  0.0480
  443MOL0     C59735   0.704   5.584   4.430 -0.7537 -0.1290  0.1251
  443MOL0     C59736   0.742   5.956   5.058 -0.1523 -0.3155 -0.4435
  443MOL0     C59737   0.812   5.948   5.181  0.0719 -0.0038 -0.9011
  443MOL0     H59738   0.966   5.814   5.630 -0.6902  0.1202  2.3678
  443MOL0     H59739   1.100   5.720   5.833 -0.6564  0.8598  0.7938
  443MOL0     H59740   1.274   5.648   5.947  1.5037 -0.9532 -1.6223
  443MOL0     H59741   1.167   5.528   6.030 -0.2950 -2.6555  0.1003
  443MOL0     H59742   1.447   5.452   5.933 -0.5896  1.6892  0.0535
  443MOL0     H59743   1.431   5.542   6.081  1.7499  0.3688 -1.2124
  443MOL0     H59744   1.294   5.366   6.180 -1.5397 -0.0326 -0.5270
  443MOL0     H59745   1.255   5.303   6.030  1.9869 -1.9153 -1.3688
  443MOL0     H59746   1.506   5.210   6.013  3.4397  0.8982  1.1998
  443MOL0     H59747   1.524   5.286   6.164 -0.6321 -1.4235  1.7092
  443MOL0     H59748   1.333   5.135   6.245 -0.7406 -0.3757 -0.5056
  443MOL0     H59749   1.315   5.054   6.094  3.2415 -4.3148 -0.6938
  443MOL0     H59750   1.511   4.976   6.054 -3.6148 -0.5987 -0.2796
  443MOL0     H59751   1.594   5.050   6.199  0.1583 -0.5454 -0.3337
  443MOL0     H59752   1.417   4.886   6.327  0.6012  2.0058 -0.5688
  443MOL0     H59753   1.415   4.808   6.169  0.2591 -1.2071 -0.3810
  443MOL0     H59754   1.594   4.695   6.299 -0.3300  0.1993  3.1641
  443MOL0     H59755   1.638   4.853   6.374  0.1582 -1.0183  1.3934
  443MOL0     H59756   1.796   5.024   6.198 -3.0248 -1.0884  2.8880
  443MOL0     H59757   2.100   5.003   6.115  0.2547 -2.0720 -0.3130
  443MOL0     H59758   2.066   4.917   5.963 -2.9404 -1.0944 -1.8512
  443MOL0     H59759   1.901   5.152   6.059  0.1207 -0.5023 -0.0684
  443MOL0     H59760   1.925   5.080   5.898 -2.4707 -1.9329  1.5087
  443MOL0     H59761   2.071   5.292   5.907  0.7960  0.1246 -0.4343
  443MOL0     H59762   2.163   5.149   5.899 -1.3414  2.1658 -2.0466
  443MOL0     H59763   2.178   5.185   6.171  0.9436  1.4939  0.5933
  443MOL0     H59764   2.109   5.341   6.143  1.7728  1.1930  0.8857
  443MOL0     H59765   2.469   5.427   5.951  0.4357 -0.3725  2.7448
  443MOL0     H59766   2.790   5.309   5.818 -0.7893 -0.2967  1.6320
  443MOL0     H59767   2.658   5.365   5.701  1.2734  2.3706 -0.5276
  443MOL0     H59768   2.691   5.452   5.851  3.4893 -0.3692  0.8016
  443MOL0     H59769   2.994   5.132   5.753  0.8710 -2.2561  2.7456
  443MOL0     H59770   3.212   5.040   5.632 -0.3163  0.7766  1.2124
  443MOL0     H59771   3.295   5.036   5.391 -1.1776  0.2503  3.4262
  443MOL0     H59772   3.368   4.957   5.527  0.0987  1.4035 -0.5004
  443MOL0     H59773   3.474   4.791   5.367 -1.7255 -0.3235  3.0696
  443MOL0     H59774   3.370   4.873   5.235  0.5404  2.6509 -0.9809
  443MOL0     H59775   3.606   4.992   5.368 -0.4422 -2.0789  0.7689
  443MOL0     H59776   3.499   5.085   5.274 -0.9704 -0.3282 -1.2883
  443MOL0     H59777   3.549   4.984   5.073 -0.4217  1.6336  1.2353
  443MOL0     H59778   3.701   5.020   5.160  1.2326 -0.0822  2.4124
  443MOL0     H59779   3.681   4.790   5.029  0.7270  0.7046 -0.0928
  443MOL0     H59780   3.566   4.736   5.153 -0.9887  1.9399 -2.1639
  443MOL0     H59781   3.830   4.838   5.236 -1.4121  1.5385 -2.0781
  443MOL0     H59782   3.742   4.724   5.321  0.5047 -1.2085  0.1411
  443MOL0     H59783   3.853   4.615   5.062  2.7838 -1.2452 -1.4432
  443MOL0     H59784   3.808   4.530   5.208  1.1347 -1.2853 -2.5951
  443MOL0     H59785   4.036   4.533   5.233  0.9850  0.8315  2.1566
  443MOL0     H59786   4.010   4.683   5.314 -0.1154 -1.3431  1.4722
  443MOL0     H59787   2.960   4.820   5.377 -0.8940  2.4085 -1.5507
  443MOL0     H59788   2.760   4.902   5.499  0.3023  0.5936 -0.7632
  443MOL0     H59789   2.522   4.932   5.943 -2.2821 -1.1619 -2.8651
  443MOL0     H59790   2.354   5.050   6.081 -2.3781 -0.4529 -3.0260
  443MOL0     H59791   1.172   5.373   5.600  3.6709  1.7958  1.4797
  443MOL0     H59792   1.041   5.454   5.416 -2.3413 -2.0500  0.7347
  443MOL0     H59793   0.889   5.626   5.163 -1.0642  0.5027 -1.5070
  443MOL0     H59794   0.800   5.646   4.935  2.8247 -1.5338  1.6904
  443MOL0     H59795   0.502   5.966   4.844  1.0735  1.9480  1.1897
  443MOL0     H59796   0.645   6.056   4.802  2.6784 -1.1918  1.4344
  443MOL0     H59797   0.498   5.997   4.600  1.7189  2.3435 -0.5121
  443MOL0     H59798   0.537   5.823   4.651  3.2567 -1.1217 -1.7018
  443MOL0     H59799   0.777   5.871   4.611  0.2928  1.0778  1.9950
  443MOL0     H59800   0.723   6.027   4.541 -0.2501 -0.7999 -3.2002
  443MOL0     H59801   0.699   5.916   4.349 -2.0286  1.3872  0.4359
  443MOL0     H59802   0.548   5.869   4.411  0.0288 -2.4457  0.1708
  443MOL0     H59803   0.728   5.480   4.439  1.2967  0.1923 -1.0589
  443MOL0     H59804   0.695   6.054   5.052 -0.0320  0.2191  3.8601
  443MOL0     H59805   0.836   6.040   5.233 -0.8388 -0.7401  0.9249
  444MOL0     O59806   3.203   3.910   1.451  0.6681  0.1592 -0.5974
  444MOL0     C59807   3.249   3.901   1.336 -1.0308  0.2380 -0.1128
  444MOL0     O59808   3.277   4.012   1.257  0.4952  0.1970 -0.9731
  444MOL0     C59809   3.239   4.147   1.285 -0.1846 -0.3246  0.1258
  444MOL0     C59810   3.328   4.253   1.236 -0.0622  0.5231  0.5373
  444MOL0     C59811   3.281   4.389   1.267 -0.5835 -0.5318  0.5553
  444MOL0     C59812   3.173   4.425   1.339  0.3992 -0.8582 -0.2243
  444MOL0     O59813   3.152   4.557   1.366 -0.2412  0.3742  0.0296
  444MOL0     C59814   3.018   4.610   1.347  0.4999 -0.8229 -0.0951
  444MOL0     C59815   3.003   4.735   1.435  0.0241  0.6583  0.3687
  444MOL0     C59816   2.861   4.803   1.414  0.6719  0.2157 -0.0649
  444MOL0     C59817   2.854   4.928   1.497 -0.3499  0.2397  0.3250
  444MOL0     C59818   2.708   4.978   1.498 -0.6542 -1.2241  0.1721
  444MOL0     C59819   2.697   5.103   1.570  0.0934 -0.8482  0.2469
  444MOL0     C59820   2.565   5.185   1.548 -0.0984  0.1804  0.0965
  444MOL0     C59821   2.432   5.110   1.570  0.1537  0.1647 -0.3803
  444MOL0     N59822   2.438   5.042   1.702 -0.0225  0.2756  0.3959
  444MOL0     C59823   2.428   4.904   1.713 -0.1115 -1.0667  0.1066
  444MOL0     C59824   2.366   4.886   1.832 -0.3152  0.0072  0.6393
  444MOL0     C59825   2.327   4.749   1.875  0.6123  0.6433 -1.1526
  444MOL0     C59826   2.435   4.665   1.951  0.1339 -0.2212 -0.2047
  444MOL0     C59827   2.382   4.525   1.981 -0.2238 -0.7597  0.2635
  444MOL0     C59828   2.485   4.448   2.058  0.3550 -0.0418  0.9345
  444MOL0     O59829   2.552   4.518   2.160 -0.5776 -0.2488 -0.3257
  444MOL0     C59830   2.646   4.460   2.243  0.8021 -0.1364  1.1823
  444MOL0     C59831   2.713   4.344   2.226  0.3404 -0.5091  1.1582
  444MOL0     C59832   2.821   4.302   2.312 -0.1822 -0.3556  0.4560
  444MOL0     C59833   2.911   4.185   2.275  0.5609 -0.1426  0.9084
  444MOL0     C59834   2.825   4.366   2.441 -0.6023 -0.6717 -1.8558
  444MOL0     C59835   2.907   4.323   2.563 -0.0174 -0.1693  1.2630
  444MOL0     O59836   2.881   4.377   2.689  0.0587 -0.6584  0.1611
  444MOL0     C59837   2.971   4.351   2.789  0.3629  0.7436  0.3661
  444MOL0     C59838   3.015   4.451   2.874 -0.2979  0.1786  1.1506
  444MOL0     C59839   3.084   4.428   2.994  0.8075 -0.5515  0.5499
  444MOL0     C59840   3.097   4.297   3.041 -1.0497  0.6863 -0.2865
  444MOL0     O59841   3.167   4.257   3.154 -0.4328  0.5564  0.2034
  444MOL0     C59842   3.118   4.293   3.285  0.4313 -0.2709  0.8070
  444MOL0     C59843   3.152   4.189   3.406  0.0210 -1.0244  0.4803
  444MOL0     C59844   3.288   4.119   3.391 -0.9022 -0.3692  0.2899
  444MOL0     C59845   3.302   4.008   3.503 -0.6222 -0.9120 -0.3287
  444MOL0     C59846   3.278   4.036   3.649 -0.1687  0.3868  0.1882
  444MOL0     C59847   3.395   4.123   3.701  0.0652  0.0596  0.1769
  444MOL0     C59848   3.513   4.036   3.743 -0.1387  1.1301 -0.0407
  444MOL0     C59849   3.551   4.065   3.889  0.0118  0.5850 -0.3147
  444MOL0    Cl59850   3.683   4.185   3.916 -0.6796  0.6432 -0.3317
  444MOL0     C59851   3.045   4.191   2.967 -0.2074 -0.5853  0.5673
  444MOL0     C59852   2.988   4.221   2.838  0.1378  1.1059  0.8032
  444MOL0     O59853   2.990   4.234   2.541  0.1136  0.5321  0.2337
  444MOL0     C59854   2.742   4.473   2.467 -0.8176  0.2443 -0.1363
  444MOL0     C59855   2.658   4.525   2.370  0.2146 -0.9812 -0.0729
  444MOL0     N59856   2.361   5.004   1.899  0.4321  0.3123  0.0634
  444MOL0     N59857   2.409   5.102   1.825  0.6442 -0.2518  0.7513
  444MOL0     C59858   3.087   4.321   1.377  0.4321 -0.7173 -0.4505
  444MOL0     C59859   3.120   4.186   1.354  0.2312  0.2961  0.7577
  444MOL0     C59860   3.301   3.773   1.294  0.2030  0.2207  0.7039
  444MOL0     C59861   3.308   3.673   1.387 -0.5623  0.5963 -0.5309
  444MOL0     C59862   3.360   3.549   1.359  0.2195 -0.0602 -0.0941
  444MOL0     C59863   3.417   3.525   1.235  0.3310  0.0626  0.0764
  444MOL0     O59864   3.483   3.406   1.188  0.1610  0.3215 -0.2116
  444MOL0     C59865   3.492   3.298   1.288 -0.7496  0.0902 -0.1256
  444MOL0     C59866   3.564   3.174   1.239  0.6294  0.2254 -0.1039
  444MOL0     C59867   3.525   3.123   1.100 -0.6013 -0.1056 -0.0973
  444MOL0     C59868   3.582   2.982   1.068  0.3597  0.0639 -0.9557
  444MOL0     C59869   3.730   2.987   1.078 -0.0646  0.4862  0.4556
  444MOL0     C59870   3.853   2.982   1.070 -0.3879 -0.3811  0.8868
  444MOL0     C59871   3.407   3.626   1.131 -0.0311  0.5955  0.0376
  444MOL0     C59872   3.363   3.753   1.164 -0.8947  0.1341 -0.1813
  444MOL0     H59873   3.406   4.224   1.167 -0.6033 -0.7433  0.4270
  444MOL0     H59874   3.342   4.471   1.230  0.2287 -1.4948 -0.2668
  444MOL0     H59875   3.001   4.652   1.247 -0.0771  0.4513  0.5162
  444MOL0     H59876   2.942   4.536   1.374  0.4769 -0.9342 -0.4592
  444MOL0     H59877   3.029   4.711   1.539 -0.7983 -1.7258  0.1050
  444MOL0     H59878   3.086   4.802   1.415  2.4507 -2.0935  0.5127
  444MOL0     H59879   2.830   4.818   1.311 -1.1610 -2.2673  0.0385
  444MOL0     H59880   2.784   4.732   1.446  0.1090  0.7913 -0.1288
  444MOL0     H59881   2.884   4.892   1.596 -2.6727 -0.0833  0.9792
  444MOL0     H59882   2.916   5.008   1.457  1.8925 -1.4546  0.2241
  444MOL0     H59883   2.668   4.992   1.397 -1.5614 -2.7870  0.2767
  444MOL0     H59884   2.647   4.900   1.543 -0.6867 -0.7562  0.9516
  444MOL0     H59885   2.695   5.077   1.677 -1.1610  1.2846  0.7868
  444MOL0     H59886   2.785   5.166   1.555  0.7542 -0.2436  5.0751
  444MOL0     H59887   2.563   5.281   1.600  1.8670  2.4430 -3.5357
  444MOL0     H59888   2.563   5.218   1.443 -1.2685  0.9230  0.3284
  444MOL0     H59889   2.409   5.043   1.487 -0.5395 -3.4943  2.4994
  444MOL0     H59890   2.344   5.174   1.569  0.5142  0.6746 -0.2159
  444MOL0     H59891   2.456   4.828   1.641  1.7115  1.4349 -2.0092
  444MOL0     H59892   2.245   4.762   1.946  2.3200  1.7852  0.7408
  444MOL0     H59893   2.298   4.682   1.794  0.5765 -2.3988  1.1732
  444MOL0     H59894   2.456   4.718   2.044 -0.6709  4.6045 -2.4346
  444MOL0     H59895   2.521   4.659   1.884  0.7007  0.6384  0.4199
  444MOL0     H59896   2.360   4.486   1.882  0.1103  1.9548 -0.9757
  444MOL0     H59897   2.290   4.548   2.036  1.8842  4.6947  2.2445
  444MOL0     H59898   2.553   4.404   1.983 -1.2474  0.6937 -1.0403
  444MOL0     H59899   2.426   4.369   2.105 -0.1618  0.9423  1.9877
  444MOL0     H59900   2.693   4.295   2.132  0.0592 -0.0252  0.9588
  444MOL0     H59901   2.880   4.102   2.339 -2.2673 -0.9479 -1.2919
  444MOL0     H59902   2.903   4.152   2.171  3.4941  0.2045  0.4966
  444MOL0     H59903   3.013   4.222   2.285 -0.1917  3.5420 -2.3267
  444MOL0     H59904   2.994   4.552   2.841 -1.8252  0.4501  2.7977
  444MOL0     H59905   3.110   4.510   3.059  0.6446 -0.8217  0.9618
  444MOL0     H59906   3.171   4.386   3.310  0.8854 -0.5193  0.7811
  444MOL0     H59907   3.013   4.320   3.271  0.2561 -1.5332 -0.4771
  444MOL0     H59908   3.141   4.253   3.494  1.8201  1.3355 -0.9170
  444MOL0     H59909   3.067   4.121   3.393 -0.9768  0.5071 -1.4638
  444MOL0     H59910   3.369   4.192   3.403 -0.3669 -1.0265  0.7444
  444MOL0     H59911   3.291   4.076   3.290  1.8866 -0.0375  0.1449
  444MOL0     H59912   3.223   3.936   3.481 -1.4696 -0.6039  1.5216
  444MOL0     H59913   3.388   3.949   3.470 -2.1129 -0.3976 -6.1057
  444MOL0     H59914   3.279   3.945   3.711 -3.3132  0.1809  0.0723
  444MOL0     H59915   3.179   4.080   3.662 -0.2619 -0.4837  3.3121
  444MOL0     H59916   3.426   4.201   3.631  0.7788 -1.0840 -0.8326
  444MOL0     H59917   3.350   4.167   3.790 -1.8312 -2.5204  0.5990
  444MOL0     H59918   3.596   4.061   3.676  0.3263  0.6763  0.3549
  444MOL0     H59919   3.490   3.930   3.733  0.4718  0.9474  0.4220
  444MOL0     H59920   3.591   3.975   3.935  0.1327  1.4019  1.2419
  444MOL0     H59921   3.460   4.089   3.946 -0.6614  1.9798 -1.8962
  444MOL0     H59922   3.031   4.089   3.001 -0.2188 -0.1213  2.0118
  444MOL0     H59923   2.938   4.144   2.780  1.5095 -0.2864  1.3802
  444MOL0     H59924   2.737   4.519   2.565 -2.7540  1.7822 -0.8868
  444MOL0     H59925   2.602   4.612   2.403  0.3629 -1.6042  1.9473
  444MOL0     H59926   2.999   4.350   1.434 -0.6007  0.7558 -2.6547
  444MOL0     H59927   3.047   4.108   1.373 -1.1464  1.1001 -0.9084
  444MOL0     H59928   3.275   3.688   1.489  0.2975  0.5913 -0.2392
  444MOL0     H59929   3.360   3.478   1.440  5.7182  0.8964  1.1835
  444MOL0     H59930   3.548   3.348   1.367  0.3497 -1.3522  0.0596
  444MOL0     H59931   3.387   3.276   1.311  0.1451 -2.6167  2.0448
  444MOL0     H59932   3.557   3.082   1.299 -0.4364 -0.4925 -1.2820
  444MOL0     H59933   3.668   3.206   1.238  0.8433 -0.4501 -0.3723
  444MOL0     H59934   3.557   3.184   1.015 -1.0566 -1.8969 -1.6321
  444MOL0     H59935   3.416   3.109   1.100 -0.5974 -0.6228  2.6182
  444MOL0     H59936   3.559   2.927   0.977  0.8929 -1.4527 -0.2017
  444MOL0     H59937   3.558   2.908   1.145  2.3788  0.7601  0.4335
  444MOL0     H59938   3.960   2.977   1.081 -0.1776 -2.2215 -1.1625
  444MOL0     H59939   3.451   3.614   1.033  1.2871  2.2434  0.3884
  444MOL0     H59940   3.365   3.836   1.094  1.1543 -0.3845 -0.8041
  445MOL0     O59941   8.743  11.100   5.126  0.1044 -0.6590  0.0903
  445MOL0     C59942   8.842  11.032   5.128 -0.6111  0.6121 -0.8550
  445MOL0     O59943   8.898  10.975   5.241 -1.2188 -0.1812 -0.0962
  445MOL0     C59944   8.839  10.989   5.365 -1.7893  0.2409 -0.3173
  445MOL0     C59945   8.818  10.876   5.442  0.2976 -0.2752  0.5119
  445MOL0     C59946   8.769  10.884   5.577 -0.9976 -0.5152  0.2172
  445MOL0     C59947   8.751  11.008   5.632 -0.5598 -0.7581 -0.6590
  445MOL0     O59948   8.708  11.021   5.762 -1.0094 -0.0793  0.1015
  445MOL0     C59949   8.813  11.068   5.845  0.2584 -0.2198  0.3993
  445MOL0     C59950   8.752  11.059   5.991 -0.2318 -0.4850 -0.0480
  445MOL0     C59951   8.748  10.918   6.036  0.1659 -0.8281 -0.8604
  445MOL0     C59952   8.732  10.915   6.190 -0.4114 -0.0389 -1.0813
  445MOL0     C59953   8.660  10.783   6.227 -0.7122 -0.3332  0.5625
  445MOL0     C59954   8.727  10.657   6.175 -0.1928  1.0975 -0.5910
  445MOL0     C59955   8.669  10.524   6.237 -0.7303 -0.4804  0.2224
  445MOL0     C59956   8.761  10.461   6.348  0.4497 -1.0219  0.4747
  445MOL0     N59957   8.885  10.399   6.289  0.5315  0.9691  0.3241
  445MOL0     C59958   8.886  10.340   6.165  0.2014  0.4745  0.3361
  445MOL0     C59959   9.002  10.272   6.163 -0.4115 -0.0324 -0.2123
  445MOL0     C59960   9.056  10.187   6.055  0.6888 -0.5778  0.5666
  445MOL0     C59961   9.166  10.256   5.978 -0.6399 -0.3439 -0.8001
  445MOL0     C59962   9.237  10.152   5.890 -0.4068  1.3142 -0.7078
  445MOL0     C59963   9.329  10.048   5.971 -0.8498 -0.4505  0.0894
  445MOL0     O59964   9.439  10.128   6.033 -0.4607  0.6035  0.7482
  445MOL0     C59965   9.536  10.069   6.096  0.2401  0.5196  0.1341
  445MOL0     C59966   9.647  10.138   6.119  0.0987 -0.5031 -0.1854
  445MOL0     C59967   9.748  10.085   6.207  0.3450  0.2872 -0.5356
  445MOL0     C59968   9.859  10.180   6.257  0.3885 -0.8083  0.7146
  445MOL0     C59969   9.745   9.954   6.254 -0.5958 -0.3329 -0.6290
  445MOL0     C59970   9.837   9.891   6.349 -0.1458 -0.2839  0.1607
  445MOL0     O59971   9.789   9.783   6.423  0.7025  0.5181  0.4344
  445MOL0     C59972   9.803   9.763   6.550 -0.3416  0.0579  0.8160
  445MOL0     C59973   9.874   9.857   6.633  0.8162  0.0512  0.2223
  445MOL0     C59974   9.907   9.819   6.769  0.7268 -0.7502  0.8733
  445MOL0     C59975   9.856   9.697   6.816 -0.7201 -0.5430  0.1977
  445MOL0     O59976   9.889   9.642   6.937  0.1169 -0.7583  0.5067
  445MOL0     C59977  10.031   9.626   6.965  0.0198  0.5764 -0.2994
  445MOL0     C59978  10.038   9.529   7.084  0.6456  0.3516 -0.4073
  445MOL0     C59979   9.973   9.394   7.052 -0.7720  0.4457 -1.5016
  445MOL0     C59980  10.003   9.298   7.170 -0.1518  0.2138  0.3765
  445MOL0     C59981   9.966   9.151   7.131  0.7338 -0.6960 -0.2980
  445MOL0     C59982   9.998   9.061   7.242 -0.0842  0.1853  0.2570
  445MOL0     C59983   9.886   9.014   7.339 -0.0703 -0.8539  0.2142
  445MOL0     C59984   9.941   8.966   7.471 -0.0003 -0.5861  0.0922
  445MOL0    Cl59985  10.058   8.836   7.459 -0.1643  0.1212  0.0461
  445MOL0     C59986   9.789   9.618   6.737 -0.0696 -0.0737 -0.0600
  445MOL0     C59987   9.754   9.648   6.605  1.4048  0.4200  0.2258
  445MOL0     O59988   9.948   9.940   6.359 -0.0705 -0.2013 -1.1691
  445MOL0     C59989   9.632   9.881   6.216 -1.1303 -0.2531  0.1176
  445MOL0     C59990   9.534   9.936   6.140  0.3622  0.0487  0.1029
  445MOL0     N59991   9.062  10.282   6.283  0.3652  0.3079  0.4720
  445MOL0     N59992   9.002  10.362   6.357  0.6226 -0.0627 -0.3057
  445MOL0     C59993   8.777  11.124   5.557 -0.1006 -0.5307  0.1411
  445MOL0     C59994   8.813  11.123   5.419  0.0722 -0.5724 -0.1507
  445MOL0     C59995   8.899  11.015   4.997  0.0040  0.6823 -1.4818
  445MOL0     C59996   8.860  11.105   4.897 -0.1226 -0.1695  0.7647
  445MOL0     C59997   8.894  11.084   4.763  0.3544 -0.5064  0.4781
  445MOL0     C59998   8.966  10.967   4.727 -0.0295  0.4922 -0.4124
  445MOL0     O59999   9.002  10.920   4.605  0.4631  0.2937  0.3426
  445MOL0     C60000   8.915  10.979   4.500 -0.4113  0.1273 -0.7070
  445MOL0     C60001   8.934  10.915   4.356  0.3991 -0.1182  0.3331
  445MOL0     C60002   8.873  10.775   4.340  0.6439  0.3403  1.0645
  445MOL0     C60003   8.842  10.744   4.195 -0.2755 -0.8018 -0.8280
  445MOL0     C60004   8.954  10.766   4.095  0.3093  0.5277  0.2327
  445MOL0     C60005   9.046  10.773   4.010 -0.1459  0.4420  0.5807
  445MOL0     C60006   9.004  10.878   4.829  0.1288 -0.1877  0.4655
  445MOL0     C60007   8.967  10.901   4.959  0.4248 -1.2293 -0.7608
  445MOL0     H60008   8.843  10.784   5.392  1.4368  0.7868 -0.9297
  445MOL0     H60009   8.740  10.802   5.642 -3.3828  1.7249  2.1707
  445MOL0     H60010   8.904  11.010   5.831 -0.4833 -0.6738 -3.8422
  445MOL0     H60011   8.825  11.176   5.827 -0.3787  0.4789  3.5400
  445MOL0     H60012   8.817  11.114   6.060 -0.1647 -1.4250  0.6434
  445MOL0     H60013   8.653  11.106   5.993 -0.0992 -0.2174  0.6567
  445MOL0     H60014   8.656  10.886   5.986 -1.7385  1.4175  0.9787
  445MOL0     H60015   8.843  10.874   6.007  2.4465  3.0217  0.1273
  445MOL0     H60016   8.829  10.921   6.241  0.2037  0.1105 -2.2413
  445MOL0     H60017   8.678  11.004   6.223 -0.2955 -0.3679  0.0429
  445MOL0     H60018   8.643  10.771   6.334  0.1562 -1.1429  0.6115
  445MOL0     H60019   8.562  10.787   6.178  0.1910  1.9548 -1.2535
  445MOL0     H60020   8.715  10.648   6.066 -3.1752  0.7901 -0.3292
  445MOL0     H60021   8.834  10.669   6.192 -0.0838  0.7996 -1.0643
  445MOL0     H60022   8.569  10.549   6.272 -0.3712  2.0944 -0.4045
  445MOL0     H60023   8.656  10.446   6.162  0.9555 -0.2257 -0.3772
  445MOL0     H60024   8.713  10.375   6.397 -1.3417 -1.3167 -1.6260
  445MOL0     H60025   8.792  10.532   6.425  0.5563  1.2597 -1.5721
  445MOL0     H60026   8.804  10.338   6.094 -1.3702 -1.3703  2.1135
  445MOL0     H60027   9.087  10.091   6.098  0.9899 -0.4963  0.5331
  445MOL0     H60028   8.984  10.163   5.976  0.9808 -1.8515  0.6557
  445MOL0     H60029   9.237  10.298   6.050 -1.2194 -3.4760  1.8534
  445MOL0     H60030   9.129  10.330   5.906  1.9718  0.7843 -1.1175
  445MOL0     H60031   9.291  10.201   5.808 -0.4023  2.4010 -0.0725
  445MOL0     H60032   9.168  10.089   5.833  0.7485 -1.4935  0.8026
  445MOL0     H60033   9.367   9.965   5.911 -0.1955 -0.3995  0.4319
  445MOL0     H60034   9.272  10.010   6.056  0.3974 -2.0524  0.2347
  445MOL0     H60035   9.632  10.240   6.088 -0.8386  0.0691  1.9577
  445MOL0     H60036   9.882  10.186   6.364  0.1182  2.1061  0.6798
  445MOL0     H60037   9.950  10.143   6.209 -0.1671 -1.3767  0.0817
  445MOL0     H60038   9.849  10.283   6.222  0.3541 -0.9822  0.2080
  445MOL0     H60039   9.904   9.954   6.597 -0.1555 -0.6351 -2.6823
  445MOL0     H60040   9.946   9.885   6.846 -1.3154  1.6264  0.0408
  445MOL0     H60041  10.091   9.577   6.887 -0.3882  0.0661 -0.2994
  445MOL0     H60042  10.066   9.725   6.994 -1.7808  1.2177 -0.1943
  445MOL0     H60043  10.145   9.517   7.102  0.1079 -3.3897  1.3879
  445MOL0     H60044   9.991   9.585   7.165 -2.9417 -1.1987 -1.2130
  445MOL0     H60045  10.027   9.356   6.965 -1.1995  0.6713 -1.8731
  445MOL0     H60046   9.865   9.392   7.032 -1.6345  0.2560  2.3383
  445MOL0     H60047  10.111   9.291   7.178 -0.0746  0.7691 -0.1044
  445MOL0     H60048   9.962   9.331   7.266 -1.5151 -1.5640  0.4603
  445MOL0     H60049  10.024   9.123   7.043 -0.1754 -0.5401 -0.9621
  445MOL0     H60050   9.860   9.138   7.105 -0.1399 -1.4520  3.0847
  445MOL0     H60051  10.012   8.965   7.191  0.0975  0.6615 -0.6077
  445MOL0     H60052  10.089   9.096   7.292 -0.0093 -0.4542  0.5735
  445MOL0     H60053   9.816   8.942   7.296 -1.4181  0.8700 -0.6296
  445MOL0     H60054   9.832   9.109   7.347  0.9081 -0.2724 -0.0190
  445MOL0     H60055   9.868   8.917   7.536  0.0975  0.0637  0.6957
  445MOL0     H60056   9.979   9.051   7.528  1.7233  0.3264 -2.2223
  445MOL0     H60057   9.761   9.515   6.760 -0.8429  0.7895  3.3061
  445MOL0     H60058   9.696   9.575   6.551  1.8721  0.1380  0.0938
  445MOL0     H60059   9.623   9.778   6.252 -0.3534 -0.0889  0.8171
  445MOL0     H60060   9.455   9.866   6.115  0.9249  0.0380 -1.8046
  445MOL0     H60061   8.751  11.222   5.598 -3.0245 -1.4233  0.6313
  445MOL0     H60062   8.832  11.211   5.359 -1.6493  0.3956  0.6762
  445MOL0     H60063   8.813  11.200   4.919  2.1753  1.2263 -0.0498
  445MOL0     H60064   8.848  11.154   4.694 -2.4473 -1.6228  1.0632
  445MOL0     H60065   8.809  10.972   4.528 -0.0045  0.8041  1.1166
  445MOL0     H60066   8.943  11.084   4.487 -0.8976  0.6039  1.6138
  445MOL0     H60067   9.043  10.909   4.343  0.7339  1.8244  1.7545
  445MOL0     H60068   8.886  10.979   4.282  1.0596 -1.8421 -1.6766
  445MOL0     H60069   8.778  10.765   4.393 -0.6265 -3.4997 -1.4224
  445MOL0     H60070   8.939  10.697   4.379  0.7218  0.9949  2.2651
  445MOL0     H60071   8.755  10.799   4.158  1.6709  2.8354 -0.4364
  445MOL0     H60072   8.816  10.637   4.199  0.3195 -0.9609  3.5884
  445MOL0     H60073   9.113  10.776   3.927 -2.7990 -0.3477 -1.7743
  445MOL0     H60074   9.063  10.794   4.795  0.6471  0.1789  0.4444
  445MOL0     H60075   8.983  10.829   5.039 -1.2111  1.7956  2.6208
  446MOL0     O60076   6.758   0.338   0.382 -0.3978 -0.0969 -1.4840
  446MOL0     C60077   6.748   0.302   0.507  0.2596  0.0800  0.0912
  446MOL0     O60078   6.670   0.208   0.562  0.2446 -0.4962 -0.5841
  446MOL0     C60079   6.583   0.147   0.477  0.4275 -0.4871  0.0516
  446MOL0     C60080   6.447   0.163   0.468  0.3840  0.5779  0.3510
  446MOL0     C60081   6.382   0.092   0.363 -0.1455 -0.2023  0.0569
  446MOL0     C60082   6.445   0.005   0.281 -0.8765  0.5486  0.2176
  446MOL0     O60083   6.378  -0.062   0.177  0.2109 -0.0047  0.4784
  446MOL0     C60084   6.454  -0.128   0.064  0.4496 -0.6833  0.2387
  446MOL0     C60085   6.364  -0.161  -0.054  0.4437 -0.0129  1.1161
  446MOL0     C60086   6.267  -0.271  -0.021 -0.4392 -0.5065 -0.2233
  446MOL0     C60087   6.335  -0.403  -0.028  0.5784 -0.0859  0.6731
  446MOL0     C60088   6.237  -0.518  -0.004  0.3383 -0.3823 -0.7259
  446MOL0     C60089   6.211  -0.524   0.145  0.3196  0.1885  0.0171
  446MOL0     C60090   6.106  -0.625   0.171  0.3838  1.0467 -0.8022
  446MOL0     C60091   6.143  -0.771   0.142  0.0414 -0.0143 -0.3997
  446MOL0     N60092   6.277  -0.806   0.192 -0.1982  0.2645 -0.1610
  446MOL0     C60093   6.337  -0.771   0.306  0.6806  0.1215 -0.1758
  446MOL0     C60094   6.464  -0.793   0.292 -0.0495 -0.1837  0.2055
  446MOL0     C60095   6.579  -0.738   0.362 -0.0670 -0.5628  0.7832
  446MOL0     C60096   6.662  -0.659   0.255  0.0724  0.2233  0.6587
  446MOL0     C60097   6.796  -0.593   0.300  0.8183  0.5598  0.6556
  446MOL0     C60098   6.771  -0.514   0.427 -1.0147 -0.3885 -0.4231
  446MOL0     O60099   6.668  -0.416   0.407 -0.4328  0.0266 -0.3443
  446MOL0     C60100   6.618  -0.357   0.523  0.1428 -0.7531  0.2030
  446MOL0     C60101   6.698  -0.281   0.607 -0.6096 -0.0593 -0.9946
  446MOL0     C60102   6.638  -0.200   0.707 -0.0095 -0.2652  0.2142
  446MOL0     C60103   6.730  -0.098   0.771  0.5889  0.3116  0.6415
  446MOL0     C60104   6.503  -0.201   0.722  0.0656  0.6533 -0.0386
  446MOL0     C60105   6.421  -0.115   0.820  0.4411 -1.0300  0.8456
  446MOL0     O60106   6.493  -0.020   0.882 -0.5505  0.5472  0.4383
  446MOL0     C60107   6.438   0.084   0.948  0.0883  0.6439  0.6579
  446MOL0     C60108   6.374   0.053   1.070 -0.2389  0.4789 -0.5779
  446MOL0     C60109   6.308   0.157   1.140 -0.7527 -0.8390 -0.3357
  446MOL0     C60110   6.315   0.295   1.105 -0.2686  0.1495  0.6108
  446MOL0     O60111   6.260   0.392   1.182  0.8863 -0.6230 -0.6713
  446MOL0     C60112   6.329   0.513   1.209  0.4378 -0.5550  0.1128
  446MOL0     C60113   6.247   0.606   1.306 -0.6967 -0.2773  1.3895
  446MOL0     C60114   6.205   0.530   1.437 -0.4391 -0.4280 -1.3983
  446MOL0     C60115   6.339   0.494   1.516  0.0514 -0.4360 -0.7131
  446MOL0     C60116   6.306   0.483   1.667 -0.1513  0.0212 -0.0828
  446MOL0     C60117   6.422   0.425   1.756 -0.0956  0.4055  0.7797
  446MOL0     C60118   6.384   0.408   1.911  0.0634 -0.2766 -0.2697
  446MOL0     C60119   6.498   0.377   2.010  0.6605 -0.5482  0.2470
  446MOL0    Cl60120   6.406   0.326   2.165 -0.3183  0.3395  0.1580
  446MOL0     C60121   6.377   0.315   0.976  0.2243  0.3810 -0.0868
  446MOL0     C60122   6.438   0.216   0.900  0.6242  1.0259 -0.8321
  446MOL0     O60123   6.302  -0.134   0.834  0.4179  0.5339  0.0072
  446MOL0     C60124   6.417  -0.292   0.644  0.0361 -0.9703  0.4716
  446MOL0     C60125   6.479  -0.363   0.539 -0.0029  1.5319 -1.0543
  446MOL0     N60126   6.482  -0.862   0.174  0.3858 -0.2129  0.7356
  446MOL0     N60127   6.365  -0.885   0.128 -0.6187  0.5368  0.4789
  446MOL0     C60128   6.581  -0.009   0.298 -0.6495 -0.1556  0.7208
  446MOL0     C60129   6.650   0.067   0.398 -0.1848  0.2668 -0.4240
  446MOL0     C60130   6.845   0.372   0.591  0.6470 -0.3231  0.6343
  446MOL0     C60131   6.925   0.471   0.545  0.3959  0.6439  0.8170
  446MOL0     C60132   7.019   0.534   0.625  0.1262 -0.3843 -0.1182
  446MOL0     C60133   7.047   0.483   0.755 -0.0357 -0.3387 -0.0341
  446MOL0     O60134   7.138   0.536   0.839 -0.1754  0.5830 -0.3786
  446MOL0     C60135   7.201   0.666   0.809  0.8087 -0.0752  0.4466
  446MOL0     C60136   7.332   0.648   0.726 -0.7536 -0.0141 -0.3619
  446MOL0     C60137   7.455   0.630   0.814  0.0268 -0.3053  0.7964
  446MOL0     C60138   7.516   0.491   0.803 -0.3856  0.1188 -0.1971
  446MOL0     C60139   7.628   0.475   0.905  0.5481  0.4785  0.1773
  446MOL0     C60140   7.720   0.466   0.981 -0.2731  0.2924 -0.2409
  446MOL0     C60141   6.981   0.368   0.793 -0.7111 -0.3828  0.0183
  446MOL0     C60142   6.872   0.322   0.720 -0.7117 -0.5257  0.2484
  446MOL0     H60143   6.402   0.231   0.539  3.0895 -1.0048  3.9297
  446MOL0     H60144   6.278   0.109   0.335 -0.2340 -2.7666 -1.4950
  446MOL0     H60145   6.539  -0.069   0.027  1.8931 -2.3619  0.7260
  446MOL0     H60146   6.515  -0.216   0.086 -1.5206 -2.3468 -0.6497
  446MOL0     H60147   6.314  -0.076  -0.101  1.5263 -0.8790 -1.8740
  446MOL0     H60148   6.428  -0.190  -0.138 -0.2844  1.0779  0.1490
  446MOL0     H60149   6.211  -0.248   0.071  1.8878  2.2068  0.6852
  446MOL0     H60150   6.185  -0.264  -0.093 -1.2565  0.1657  0.7493
  446MOL0     H60151   6.376  -0.415  -0.128 -2.3069 -1.2736 -0.4789
  446MOL0     H60152   6.414  -0.406   0.047  1.6156  0.5352 -0.3663
  446MOL0     H60153   6.140  -0.518  -0.055  0.1036 -3.2341 -0.4408
  446MOL0     H60154   6.278  -0.607  -0.052  0.2692  1.2076 -4.1173
  446MOL0     H60155   6.300  -0.532   0.208  1.7192 -2.0728 -2.0754
  446MOL0     H60156   6.170  -0.427   0.177 -1.3214 -0.3594 -0.3246
  446MOL0     H60157   6.097  -0.629   0.280  1.6008 -2.6345 -0.6933
  446MOL0     H60158   6.012  -0.598   0.123 -0.9569  1.9520  2.0822
  446MOL0     H60159   6.150  -0.780   0.034  1.2124  0.2346 -0.3590
  446MOL0     H60160   6.072  -0.852   0.157 -1.2122  0.8550 -1.4443
  446MOL0     H60161   6.282  -0.719   0.383 -2.1720 -1.1181 -1.2144
  446MOL0     H60162   6.560  -0.675   0.449 -1.2166  0.6827 -0.3130
  446MOL0     H60163   6.654  -0.811   0.394 -0.1817  0.4614  3.5943
  446MOL0     H60164   6.587  -0.588   0.217 -1.1590 -1.6997 -0.6799
  446MOL0     H60165   6.682  -0.728   0.173 -4.4009 -2.3915  1.4028
  446MOL0     H60166   6.830  -0.534   0.214  0.7763 -2.3500 -1.5104
  446MOL0     H60167   6.878  -0.666   0.301 -0.4963 -1.0799 -1.7408
  446MOL0     H60168   6.863  -0.457   0.442 -1.9463  0.5215  2.3725
  446MOL0     H60169   6.761  -0.582   0.512  1.9122 -0.7217 -0.2468
  446MOL0     H60170   6.805  -0.292   0.594 -0.7311  0.1238 -2.3934
  446MOL0     H60171   6.833  -0.131   0.757  0.6965 -0.2975  2.5319
  446MOL0     H60172   6.708   0.002   0.734 -0.1929 -0.4631 -1.0901
  446MOL0     H60173   6.729  -0.103   0.881  3.4510 -0.6800  0.7050
  446MOL0     H60174   6.367  -0.046   1.115  5.2807  0.1375  0.2321
  446MOL0     H60175   6.246   0.130   1.225  4.1963 -1.4736  3.5129
  446MOL0     H60176   6.425   0.485   1.252 -0.1616 -0.1663  1.8150
  446MOL0     H60177   6.365   0.555   1.115  2.1401  1.2166  1.4768
  446MOL0     H60178   6.312   0.689   1.335  2.4511 -1.4078 -1.7299
  446MOL0     H60179   6.158   0.649   1.260  1.3316  0.9371 -1.6466
  446MOL0     H60180   6.153   0.435   1.426  2.1248 -1.6875 -4.0581
  446MOL0     H60181   6.153   0.601   1.502  3.2717  1.5241 -0.2579
  446MOL0     H60182   6.365   0.391   1.486 -1.7840 -1.8107  2.0186
  446MOL0     H60183   6.426   0.555   1.490  1.2954 -2.1034 -0.7045
  446MOL0     H60184   6.227   0.407   1.671 -0.8049  0.7662  2.4963
  446MOL0     H60185   6.270   0.582   1.697 -1.9662 -0.2372 -1.2441
  446MOL0     H60186   6.456   0.330   1.714  2.2574  1.9540 -1.0864
  446MOL0     H60187   6.501   0.501   1.751 -0.1691  0.4074 -0.9992
  446MOL0     H60188   6.315   0.325   1.929 -0.7523  0.6892  1.1558
  446MOL0     H60189   6.332   0.496   1.949 -2.2201 -0.6018 -2.3406
  446MOL0     H60190   6.565   0.462   2.028  0.0985  0.1186 -0.7704
  446MOL0     H60191   6.552   0.291   1.969 -0.9850 -2.0414  1.0843
  446MOL0     H60192   6.382   0.416   0.937 -1.3672  1.8899  3.1646
  446MOL0     H60193   6.495   0.246   0.813 -0.9408  1.7169 -1.6603
  446MOL0     H60194   6.310  -0.270   0.644  0.2833  0.6819 -2.2739
  446MOL0     H60195   6.427  -0.426   0.468 -0.3066  1.3511 -0.6793
  446MOL0     H60196   6.642  -0.063   0.225  1.3932  3.4849 -0.5018
  446MOL0     H60197   6.756   0.054   0.414 -0.3959 -2.1382 -0.5413
  446MOL0     H60198   6.910   0.510   0.444  1.8771  1.9107  1.0467
  446MOL0     H60199   7.077   0.607   0.570 -1.0305  1.2357  0.7437
  446MOL0     H60200   7.130   0.734   0.761  0.5393  0.1293  1.1196
  446MOL0     H60201   7.227   0.723   0.899  0.3135  2.5721 -1.0063
  446MOL0     H60202   7.360   0.733   0.664 -0.1635 -0.6796 -1.0402
  446MOL0     H60203   7.323   0.570   0.649  0.8075  1.8260 -2.5281
  446MOL0     H60204   7.427   0.659   0.915 -0.4149  1.5522  0.1835
  446MOL0     H60205   7.532   0.699   0.777  0.1516 -0.4446  0.7950
  446MOL0     H60206   7.575   0.487   0.710  2.0566 -0.1344  1.2800
  446MOL0     H60207   7.439   0.414   0.798  0.6514 -0.9246 -0.8426
  446MOL0     H60208   7.811   0.472   1.036 -0.1062 -1.5903 -0.2400
  446MOL0     H60209   6.996   0.321   0.890  0.5260  3.0448  1.6898
  446MOL0     H60210   6.817   0.236   0.757 -0.6023 -0.2432  1.0852
  447MOL0     O60211   1.618   1.082   1.179 -0.5761  0.1678 -0.7067
  447MOL0     C60212   1.576   1.022   1.080 -0.3801  0.3647 -0.0888
  447MOL0     O60213   1.509   0.894   1.085 -1.1044 -0.6935 -0.4681
  447MOL0     C60214   1.465   0.845   1.213 -1.0301  0.3515  0.2002
  447MOL0     C60215   1.502   0.718   1.272 -0.5811 -0.9750  0.5682
  447MOL0     C60216   1.455   0.677   1.395  0.0658  0.5602  0.6818
  447MOL0     C60217   1.359   0.754   1.458 -0.3499 -0.6996  0.5275
  447MOL0     O60218   1.304   0.720   1.580  0.2644 -0.2936  0.0472
  447MOL0     C60219   1.364   0.627   1.666 -0.3746  0.1622 -0.4599
  447MOL0     C60220   1.358   0.668   1.814  0.9400 -0.5736  0.0517
  447MOL0     C60221   1.216   0.656   1.867 -0.5163  0.2076 -0.2335
  447MOL0     C60222   1.194   0.513   1.918  0.2688 -0.3486 -0.1669
  447MOL0     C60223   1.051   0.497   1.977 -1.1932 -0.1845 -0.7027
  447MOL0     C60224   1.040   0.525   2.125 -0.5612 -0.3845  0.6764
  447MOL0     C60225   0.910   0.518   2.203 -0.5899  0.4941 -0.3921
  447MOL0     C60226   0.862   0.377   2.225  0.1197  1.3518 -0.9922
  447MOL0     N60227   0.949   0.286   2.313 -0.6717 -0.0418  0.2699
  447MOL0     C60228   0.926   0.159   2.316 -0.8129  0.1594 -0.9062
  447MOL0     C60229   0.999   0.107   2.417  0.1312  0.1675 -0.1533
  447MOL0     C60230   1.028  -0.038   2.433  0.5818  0.0375  0.6224
  447MOL0     C60231   0.895  -0.111   2.455  0.1509  0.1748 -0.2807
  447MOL0     C60232   0.922  -0.255   2.477  0.8184  1.0470 -0.2710
  447MOL0     C60233   0.971  -0.300   2.626  0.1852 -0.2522  0.0744
  447MOL0     O60234   0.948  -0.443   2.650 -0.2813 -0.0683  0.2209
  447MOL0     C60235   1.014  -0.538   2.578  0.3410 -0.8943 -0.1860
  447MOL0     C60236   1.148  -0.550   2.573 -0.1208 -0.0700  0.1867
  447MOL0     C60237   1.212  -0.634   2.477 -0.1085  0.4371  0.0783
  447MOL0     C60238   1.363  -0.652   2.481  0.6970 -0.6858 -0.0849
  447MOL0     C60239   1.129  -0.713   2.393 -0.6720 -0.0844  0.6777
  447MOL0     C60240   1.174  -0.788   2.271 -0.9713  0.5429  0.4560
  447MOL0     O60241   1.121  -0.908   2.250 -0.1768  0.8294  0.7806
  447MOL0     C60242   1.148  -0.982   2.137 -0.9693 -0.2270  0.1136
  447MOL0     C60243   1.043  -1.037   2.054  0.7492  0.5448 -0.4845
  447MOL0     C60244   1.065  -1.122   1.942  0.0439 -0.3294  0.3732
  447MOL0     C60245   1.195  -1.144   1.899  0.5184 -0.0284 -0.5844
  447MOL0     O60246   1.215  -1.206   1.782 -0.1898 -0.0449 -0.7236
  447MOL0     C60247   1.350  -1.230   1.744  0.1966 -0.1800 -0.2235
  447MOL0     C60248   1.339  -1.292   1.610 -0.1132  0.3530 -0.6874
  447MOL0     C60249   1.267  -1.200   1.509  1.0395 -0.1910 -0.0782
  447MOL0     C60250   1.275  -1.240   1.363  0.2805 -0.6291  0.4311
  447MOL0     C60251   1.199  -1.143   1.267 -0.5014  0.4492 -0.4426
  447MOL0     C60252   1.244  -1.186   1.127 -0.5999 -0.7304 -0.2295
  447MOL0     C60253   1.188  -1.081   1.026 -0.5304 -0.2998  0.4972
  447MOL0     C60254   1.181  -1.142   0.888  0.3279 -0.7518  0.1618
  447MOL0    Cl60255   1.345  -1.199   0.841 -0.2001  0.1547 -0.0746
  447MOL0     C60256   1.298  -1.094   1.981 -0.1008 -0.1577  0.3510
  447MOL0     C60257   1.279  -1.013   2.100 -0.7542  0.5287  0.8793
  447MOL0     O60258   1.265  -0.738   2.198  0.1744  0.6404 -0.3344
  447MOL0     C60259   0.994  -0.701   2.410  0.2036 -0.4763 -0.6960
  447MOL0     C60260   0.936  -0.617   2.505 -0.3031  0.1945  0.1831
  447MOL0     N60261   1.063   0.210   2.473 -0.2812  0.7629  0.2428
  447MOL0     N60262   1.039   0.312   2.407 -0.9457 -0.8602 -0.7142
  447MOL0     C60263   1.305   0.868   1.394 -1.0017  0.5310 -0.5605
  447MOL0     C60264   1.372   0.923   1.272 -0.5128 -0.0027 -0.0415
  447MOL0     C60265   1.599   1.076   0.942  1.3220 -0.1597 -0.6003
  447MOL0     C60266   1.664   1.197   0.924  0.1169  0.8262  0.6407
  447MOL0     C60267   1.667   1.250   0.784 -0.0368  0.6380 -0.3313
  447MOL0     C60268   1.611   1.179   0.679 -0.2084  0.4036  0.2957
  447MOL0     O60269   1.599   1.225   0.550  0.2463  0.6956 -0.3876
  447MOL0     C60270   1.611   1.362   0.534  0.1783 -0.9081 -0.0040
  447MOL0     C60271   1.587   1.400   0.389  0.2750 -0.4501  0.0042
  447MOL0     C60272   1.572   1.554   0.363 -0.4877 -0.9664 -0.1525
  447MOL0     C60273   1.500   1.595   0.237  0.0976  0.0708  0.5153
  447MOL0     C60274   1.355   1.588   0.246 -0.5321 -0.2848 -0.2236
  447MOL0     C60275   1.240   1.592   0.250  0.9508 -0.3408  0.5914
  447MOL0     C60276   1.565   1.049   0.710 -0.9821 -1.0125  0.0656
  447MOL0     C60277   1.553   1.000   0.836 -0.3573  0.7822 -0.0009
  447MOL0     H60278   1.567   0.646   1.223 -0.8956  0.0326 -1.4410
  447MOL0     H60279   1.486   0.577   1.425  0.5574  1.4250  3.3668
  447MOL0     H60280   1.308   0.537   1.640  0.5672 -0.3761 -0.6658
  447MOL0     H60281   1.470   0.616   1.640  0.2714  2.5303  0.8662
  447MOL0     H60282   1.422   0.600   1.871  0.2614  0.1089  1.7017
  447MOL0     H60283   1.396   0.770   1.827 -3.4754  1.3295  0.1032
  447MOL0     H60284   1.194   0.743   1.930  4.1870 -0.7847  3.2927
  447MOL0     H60285   1.152   0.660   1.778  0.6938  1.0378 -1.0872
  447MOL0     H60286   1.203   0.441   1.836  1.6444  2.0808 -2.2697
  447MOL0     H60287   1.254   0.468   1.997 -3.0462 -0.9773  2.2263
  447MOL0     H60288   0.980   0.552   1.914 -0.2986 -0.7295 -2.2576
  447MOL0     H60289   1.009   0.397   1.962 -1.9030  0.4291 -3.3956
  447MOL0     H60290   1.120   0.469   2.173  0.3255  0.0558 -0.2593
  447MOL0     H60291   1.072   0.630   2.124  0.8501 -0.7311  2.7538
  447MOL0     H60292   0.934   0.563   2.300 -4.8505  1.8932  0.2026
  447MOL0     H60293   0.836   0.579   2.151  0.0853  0.9231 -0.8590
  447MOL0     H60294   0.831   0.331   2.130 -1.0898  3.1531 -1.5126
  447MOL0     H60295   0.773   0.385   2.287 -0.9544  3.4677 -2.6441
  447MOL0     H60296   0.859   0.114   2.243 -0.3990  4.0020 -4.0064
  447MOL0     H60297   1.082  -0.067   2.343  0.1252 -1.2911  0.7559
  447MOL0     H60298   1.091  -0.058   2.521  2.0377  1.2950 -0.0874
  447MOL0     H60299   0.837  -0.105   2.363  0.0090  0.9517 -0.1494
  447MOL0     H60300   0.832  -0.076   2.538  3.1144 -0.0509  2.2383
  447MOL0     H60301   0.994  -0.301   2.408 -0.4256  0.7196 -1.3912
  447MOL0     H60302   0.830  -0.313   2.466  0.6728  1.4643 -1.3308
  447MOL0     H60303   0.914  -0.248   2.704 -0.7929  1.8699 -1.9431
  447MOL0     H60304   1.079  -0.285   2.624  0.3648 -1.5617 -0.7996
  447MOL0     H60305   1.206  -0.487   2.640 -0.6901  0.9573 -0.2623
  447MOL0     H60306   1.424  -0.605   2.403  1.9679 -1.4492  0.4073
  447MOL0     H60307   1.404  -0.617   2.577  5.9006 -1.7403 -1.5838
  447MOL0     H60308   1.392  -0.757   2.476 -1.3615 -1.2274 -1.8424
  447MOL0     H60309   0.942  -1.027   2.092  0.6438 -1.1223 -0.2343
  447MOL0     H60310   0.984  -1.154   1.879 -1.0042  3.2372 -0.2756
  447MOL0     H60311   1.398  -1.132   1.736 -3.3241  1.6371 -1.6440
  447MOL0     H60312   1.404  -1.300   1.809 -2.6003 -3.6351 -1.3018
  447MOL0     H60313   1.437  -1.310   1.566 -0.8667 -1.5092 -1.7070
  447MOL0     H60314   1.292  -1.390   1.624  2.9169 -1.1440 -0.0081
  447MOL0     H60315   1.314  -1.101   1.514  0.6051  0.0890 -1.2284
  447MOL0     H60316   1.163  -1.199   1.544  0.4105 -1.0178 -1.8170
  447MOL0     H60317   1.380  -1.251   1.334  0.2025  0.0497 -0.1362
  447MOL0     H60318   1.232  -1.338   1.339 -0.8347 -0.0576 -0.0056
  447MOL0     H60319   1.233  -1.040   1.274  0.9006  0.2499 -3.0867
  447MOL0     H60320   1.091  -1.153   1.286  0.0385 -0.1971  2.9689
  447MOL0     H60321   1.353  -1.196   1.117 -0.4423 -1.1219  1.4576
  447MOL0     H60322   1.192  -1.277   1.099  0.9363 -1.0393 -2.2669
  447MOL0     H60323   1.260  -1.000   1.015 -3.6070  2.3172 -2.4526
  447MOL0     H60324   1.089  -1.057   1.068 -0.7843 -1.9546  0.9352
  447MOL0     H60325   1.143  -1.056   0.832  2.2729  0.1282  0.1303
  447MOL0     H60326   1.120  -1.233   0.891 -1.4481  0.3498 -1.1031
  447MOL0     H60327   1.400  -1.119   1.951  0.0574 -0.8407  1.4065
  447MOL0     H60328   1.368  -0.980   2.152  1.6354 -4.1285  0.2529
  447MOL0     H60329   0.931  -0.747   2.334 -0.5251 -1.3358  0.3918
  447MOL0     H60330   0.829  -0.621   2.522 -0.0414  0.5613  2.1496
  447MOL0     H60331   1.233   0.929   1.447 -2.8136 -1.6089 -0.4094
  447MOL0     H60332   1.349   1.020   1.229  4.9467  2.0479  0.9253
  447MOL0     H60333   1.720   1.252   0.999  0.0761 -0.3428  1.5532
  447MOL0     H60334   1.705   1.352   0.781 -0.2420  0.7364  0.1790
  447MOL0     H60335   1.538   1.425   0.584  1.7448  2.3054 -1.4528
  447MOL0     H60336   1.709   1.397   0.568 -0.7743  2.5837 -0.4716
  447MOL0     H60337   1.494   1.349   0.362  0.8420 -1.7063  0.3376
  447MOL0     H60338   1.669   1.359   0.329  0.1210 -6.0344  2.9636
  447MOL0     H60339   1.671   1.599   0.357 -1.1180  0.8775  1.9160
  447MOL0     H60340   1.532   1.604   0.452  1.3506 -2.0677  1.3755
  447MOL0     H60341   1.541   1.546   0.148  2.7143  0.4186  1.4215
  447MOL0     H60342   1.517   1.702   0.226  1.2973 -0.3604 -2.9177
  447MOL0     H60343   1.134   1.592   0.266  0.0883 -0.1463 -3.8364
  447MOL0     H60344   1.531   1.008   0.615 -0.9928  2.2881 -1.5073
  447MOL0     H60345   1.497   0.912   0.865  0.7031  0.1839  0.3051
  448MOL0     O60346   0.435   8.237   3.791  0.1157  0.2226 -0.0423
  448MOL0     C60347   0.416   8.278   3.678  0.5522  0.4604  0.4162
  448MOL0     O60348   0.325   8.225   3.593 -0.9285 -0.4166  0.0795
  448MOL0     C60349   0.246   8.132   3.646 -0.7419  0.6321  0.1988
  448MOL0     C60350   0.122   8.163   3.710 -0.2838 -0.4422 -0.2747
  448MOL0     C60351   0.043   8.071   3.759 -0.2384  0.0239  0.3583
  448MOL0     C60352   0.076   7.932   3.740  0.8471  0.1029 -0.4670
  448MOL0     O60353   0.003   7.820   3.781 -0.4308 -0.3534  0.0951
  448MOL0     C60354  -0.104   7.844   3.872  0.0214 -0.2338 -0.0442
  448MOL0     C60355  -0.066   7.920   4.006  0.0796 -0.4792 -0.2994
  448MOL0     C60356  -0.122   7.854   4.132 -0.6906  0.1423 -0.0953
  448MOL0     C60357  -0.120   7.934   4.264  0.4783  0.3806 -0.1593
  448MOL0     C60358  -0.170   7.853   4.383 -0.0856 -0.8404  0.3823
  448MOL0     C60359  -0.094   7.734   4.426 -0.0898  0.7215 -0.6748
  448MOL0     C60360  -0.105   7.704   4.575 -0.3281 -0.7807 -0.1829
  448MOL0     C60361  -0.031   7.579   4.623  0.1318 -0.4668 -0.2568
  448MOL0     N60362  -0.079   7.447   4.578  0.2443 -0.6888  0.3460
  448MOL0     C60363   0.006   7.353   4.530 -0.2042  0.0143 -0.2045
  448MOL0     C60364  -0.067   7.235   4.551 -0.1991 -0.3968  0.7463
  448MOL0     C60365  -0.004   7.103   4.511 -0.7791  0.6805  1.3078
  448MOL0     C60366   0.032   7.011   4.620  0.6396  0.1258  0.0449
  448MOL0     C60367   0.119   7.083   4.735  0.7608  1.2690 -0.0927
  448MOL0     C60368   0.175   6.972   4.837 -0.4111 -0.2375 -0.8298
  448MOL0     O60369   0.071   6.955   4.941 -0.2323  0.0117  0.0593
  448MOL0     C60370   0.107   6.869   5.038  0.4354 -0.2271  0.4659
  448MOL0     C60371   0.015   6.767   5.066  0.2456  0.3668 -0.1089
  448MOL0     C60372   0.042   6.670   5.160  1.1382 -0.3246 -1.0016
  448MOL0     C60373  -0.065   6.559   5.173  1.0882  0.4653 -0.2798
  448MOL0     C60374   0.167   6.675   5.236  0.2348 -0.4735  0.3497
  448MOL0     C60375   0.198   6.590   5.353  0.2588 -0.5586 -0.7781
  448MOL0     O60376   0.330   6.576   5.400 -0.6811  0.1702  0.2868
  448MOL0     C60377   0.346   6.548   5.533 -0.0530  0.3954 -0.0740
  448MOL0     C60378   0.298   6.430   5.588 -0.4171 -0.5620 -0.6421
  448MOL0     C60379   0.305   6.406   5.733 -0.0356 -0.1611 -0.8548
  448MOL0     C60380   0.357   6.503   5.812  0.0100  0.0094 -0.5165
  448MOL0     O60381   0.346   6.494   5.951 -0.2293  0.0703  0.1453
  448MOL0     C60382   0.219   6.497   6.010 -0.4600 -0.4309 -0.9270
  448MOL0     C60383   0.197   6.371   6.076 -0.1492  0.8060 -0.5438
  448MOL0     C60384   0.200   6.381   6.223 -0.2723  0.2875 -0.5428
  448MOL0     C60385   0.228   6.246   6.281  0.2430 -0.1157  0.0457
  448MOL0     C60386   0.252   6.257   6.424 -0.2927  0.0665 -0.8871
  448MOL0     C60387   0.279   6.130   6.511 -0.4723 -0.6830 -0.2745
  448MOL0     C60388   0.317   6.187   6.658  0.8200  1.2540 -0.1070
  448MOL0     C60389   0.189   6.205   6.740  0.6935 -0.3743 -0.7531
  448MOL0    Cl60390   0.230   6.278   6.904  0.1607  0.1540 -0.0727
  448MOL0     C60391   0.399   6.626   5.760 -0.2932 -0.2023  0.1471
  448MOL0     C60392   0.402   6.649   5.620  0.3527 -0.2543  0.1852
  448MOL0     O60393   0.099   6.544   5.418 -0.3369 -0.0008  0.9088
  448MOL0     C60394   0.257   6.782   5.203 -0.6036 -0.1699  0.8030
  448MOL0     C60395   0.224   6.876   5.110 -0.5646  0.1011  0.8616
  448MOL0     N60396  -0.191   7.263   4.594 -0.3080  0.8118  0.6211
  448MOL0     N60397  -0.193   7.390   4.622 -1.5439 -0.3016  0.9866
  448MOL0     C60398   0.195   7.904   3.679  0.2677 -0.3289  0.3017
  448MOL0     C60399   0.283   7.995   3.631  0.2075  0.3664 -1.1962
  448MOL0     C60400   0.516   8.378   3.633 -0.3050 -0.5202 -1.0775
  448MOL0     C60401   0.557   8.477   3.737 -0.1520 -0.1523  0.3313
  448MOL0     C60402   0.636   8.583   3.696 -0.3300 -0.6582  0.6119
  448MOL0     C60403   0.671   8.608   3.555  0.1287  0.1690 -0.5931
  448MOL0     O60404   0.743   8.725   3.528  1.0217  0.0951  0.5607
  448MOL0     C60405   0.774   8.771   3.398  0.8468  0.6117  0.1515
  448MOL0     C60406   0.861   8.899   3.400  0.6730 -0.6765  0.0852
  448MOL0     C60407   0.913   8.936   3.262 -0.1104  0.4240  0.5511
  448MOL0     C60408   0.979   8.818   3.190  0.1760  0.1023 -1.4487
  448MOL0     C60409   1.057   8.880   3.080 -0.3709  0.0513  0.6655
  448MOL0     C60410   1.128   8.925   2.993  0.4697 -0.3869  0.8210
  448MOL0     C60411   0.646   8.501   3.464  0.2966 -0.7700 -0.3383
  448MOL0     C60412   0.565   8.394   3.497  0.8055 -1.2881  0.6281
  448MOL0     H60413   0.092   8.266   3.722 -0.5456 -0.0650 -3.4367
  448MOL0     H60414  -0.058   8.085   3.795 -1.4401  0.2353 -2.7892
  448MOL0     H60415  -0.190   7.888   3.821 -0.1355 -0.3720  0.1003
  448MOL0     H60416  -0.147   7.747   3.897  0.6437 -1.1337 -2.2474
  448MOL0     H60417   0.042   7.934   4.017 -0.2944  1.1311  6.7878
  448MOL0     H60418  -0.118   8.016   4.004  0.1285 -0.4625 -0.7557
  448MOL0     H60419  -0.221   7.813   4.111 -0.3515  0.7980 -3.8253
  448MOL0     H60420  -0.070   7.758   4.136 -1.5806 -0.3111  1.0734
  448MOL0     H60421  -0.014   7.962   4.272  0.9027 -1.3687  0.9271
  448MOL0     H60422  -0.191   8.016   4.251  0.7238  0.1406 -4.4016
  448MOL0     H60423  -0.166   7.923   4.466  1.8566 -1.4928  0.8914
  448MOL0     H60424  -0.273   7.825   4.359  0.1729 -0.0482 -1.9529
  448MOL0     H60425  -0.136   7.647   4.374 -0.3939  0.2450  0.3190
  448MOL0     H60426   0.011   7.730   4.397 -0.5670  3.4048 -3.1411
  448MOL0     H60427  -0.059   7.781   4.638 -1.7583 -0.3681  0.3984
  448MOL0     H60428  -0.208   7.706   4.613 -0.4305  1.3817 -0.4419
  448MOL0     H60429  -0.020   7.581   4.732  0.0433  3.4247 -0.1867
  448MOL0     H60430   0.068   7.596   4.579  0.4192  0.0221  0.5557
  448MOL0     H60431   0.109   7.373   4.504 -0.5260 -1.6188 -3.2466
  448MOL0     H60432  -0.068   7.046   4.444 -0.8068 -0.4114  2.2376
  448MOL0     H60433   0.083   7.115   4.446 -0.1028  1.8425  2.3627
  448MOL0     H60434   0.085   6.936   4.561  0.2253  2.3796 -3.4852
  448MOL0     H60435  -0.063   6.981   4.664  0.4882  1.1568  0.4539
  448MOL0     H60436   0.050   7.144   4.794  0.9452 -0.7262  2.3537
  448MOL0     H60437   0.199   7.145   4.694  2.3025 -0.3497  0.2923
  448MOL0     H60438   0.268   7.008   4.883 -2.7479  2.9170  1.8769
  448MOL0     H60439   0.207   6.882   4.783 -1.6121 -0.7597 -0.6904
  448MOL0     H60440  -0.066   6.764   4.993 -0.6555  0.3031  0.8724
  448MOL0     H60441  -0.026   6.458   5.154 -1.1164 -0.9181  1.9419
  448MOL0     H60442  -0.095   6.563   5.278 -0.0910  0.9441 -0.6180
  448MOL0     H60443  -0.152   6.582   5.111 -0.5110 -3.2641  0.3212
  448MOL0     H60444   0.244   6.354   5.533 -1.1043 -1.3554  1.0751
  448MOL0     H60445   0.261   6.318   5.778  5.7559 -3.1609 -0.0336
  448MOL0     H60446   0.208   6.578   6.083  3.3595 -1.4699  1.0546
  448MOL0     H60447   0.142   6.519   5.935  0.7610  2.0059 -1.5625
  448MOL0     H60448   0.099   6.335   6.043 -1.8639  1.3628  3.4541
  448MOL0     H60449   0.278   6.305   6.042  0.0449 -0.2516  1.7875
  448MOL0     H60450   0.107   6.423   6.264  0.8923  1.5934  0.8704
  448MOL0     H60451   0.272   6.458   6.252 -0.7957  0.4446  0.3838
  448MOL0     H60452   0.145   6.178   6.257  1.0384 -2.1519  2.5455
  448MOL0     H60453   0.317   6.205   6.233 -1.5260 -2.1018 -1.7185
  448MOL0     H60454   0.155   6.282   6.469 -0.0030 -0.3015 -0.0224
  448MOL0     H60455   0.323   6.337   6.446  0.3444 -0.6229 -0.3964
  448MOL0     H60456   0.186   6.072   6.510  0.6151 -2.6343  1.6723
  448MOL0     H60457   0.358   6.070   6.466 -1.2602 -0.0995 -2.5323
  448MOL0     H60458   0.374   6.281   6.651  1.7939  0.8605  1.7397
  448MOL0     H60459   0.368   6.105   6.710 -2.8820 -1.4173 -0.3157
  448MOL0     H60460   0.140   6.107   6.751 -3.8802  1.8431  2.1798
  448MOL0     H60461   0.128   6.279   6.687  0.3474  0.8116  1.1791
  448MOL0     H60462   0.426   6.701   5.834  1.1052 -1.2999  0.7884
  448MOL0     H60463   0.436   6.739   5.570  1.9358 -1.3624 -0.8486
  448MOL0     H60464   0.356   6.790   5.249 -1.7082  1.3284  3.1358
  448MOL0     H60465   0.300   6.950   5.088  0.3921 -1.2968 -0.8318
  448MOL0     H60466   0.229   7.800   3.683 -1.8591 -1.0588  0.6936
  448MOL0     H60467   0.375   7.962   3.582 -0.2425 -0.3813 -1.5600
  448MOL0     H60468   0.512   8.479   3.836  1.6087  2.1696  1.1489
  448MOL0     H60469   0.666   8.655   3.771  0.9064  1.0490 -1.3945
  448MOL0     H60470   0.835   8.698   3.345 -2.0196 -2.0485  0.2514
  448MOL0     H60471   0.680   8.782   3.343 -0.8664 -1.9503  2.3607
  448MOL0     H60472   0.945   8.878   3.467 -0.1491 -0.9134  1.0627
  448MOL0     H60473   0.807   8.978   3.453 -0.1865 -2.5373  2.1250
  448MOL0     H60474   0.968   9.028   3.287 -0.6338  0.5619  1.2196
  448MOL0     H60475   0.823   8.959   3.204  0.2026  1.3764  0.4179
  448MOL0     H60476   0.896   8.756   3.154 -2.5666  2.2369  0.6822
  448MOL0     H60477   1.042   8.759   3.258  0.3546  2.6445  0.7558
  448MOL0     H60478   1.177   8.984   2.919 -2.9426  1.1244 -0.3781
  448MOL0     H60479   0.699   8.499   3.369  4.2135 -3.9025  1.5607
  448MOL0     H60480   0.560   8.318   3.419  0.6374 -0.4820 -0.1752
  449MOL0     O60481   5.775  10.771   5.654 -0.1866 -0.4543  0.4935
  449MOL0     C60482   5.718  10.814   5.750 -0.1856 -0.2716 -0.9798
  449MOL0     O60483   5.582  10.818   5.772 -0.0965 -0.0966  0.1744
  449MOL0     C60484   5.490  10.776   5.680  0.5626  0.1309  0.2939
  449MOL0     C60485   5.369  10.850   5.663 -1.2431  0.7614 -0.8898
  449MOL0     C60486   5.271  10.799   5.578 -0.2771 -0.1740  0.3971
  449MOL0     C60487   5.297  10.688   5.502 -1.2158 -1.6994  0.7064
  449MOL0     O60488   5.197  10.652   5.427  0.0526  0.0537 -0.1111
  449MOL0     C60489   5.208  10.572   5.305  0.5918 -0.6194 -0.5968
  449MOL0     C60490   5.291  10.639   5.199 -0.0705  0.1343  0.2015
  449MOL0     C60491   5.217  10.760   5.153  0.2455  0.1219 -0.5551
  449MOL0     C60492   5.310  10.837   5.059 -0.1653 -0.2193  0.3171
  449MOL0     C60493   5.252  10.964   4.993 -0.6650  0.4510 -0.1590
  449MOL0     C60494   5.166  10.939   4.881 -0.6258 -1.2244  0.0891
  449MOL0     C60495   5.236  10.936   4.745 -0.6394 -0.3620  0.2521
  449MOL0     C60496   5.142  10.956   4.619 -0.6374  0.0216  0.0662
  449MOL0     N60497   5.114  11.095   4.601 -0.5535 -0.1953  0.2624
  449MOL0     C60498   4.999  11.158   4.635 -0.5793 -0.7778 -0.0120
  449MOL0     C60499   5.009  11.289   4.590 -0.1270 -0.5749 -0.2499
  449MOL0     C60500   4.916  11.408   4.599  0.9207  0.4406  0.0040
  449MOL0     C60501   4.786  11.398   4.681 -0.6050 -0.1956  0.2018
  449MOL0     C60502   4.711  11.524   4.712  0.0616  1.1749 -0.3982
  449MOL0     C60503   4.580  11.495   4.780 -0.0738 -0.7485  0.6654
  449MOL0     O60504   4.495  11.430   4.687  0.5032  0.1629 -0.0665
  449MOL0     C60505   4.429  11.323   4.748  0.2016  0.6361  0.0982
  449MOL0     C60506   4.423  11.199   4.675  0.4523 -0.6507  0.3381
  449MOL0     C60507   4.365  11.084   4.730  0.0603  0.3576 -0.5684
  449MOL0     C60508   4.368  10.956   4.648 -0.0627 -0.0991  0.3707
  449MOL0     C60509   4.321  11.088   4.861 -0.0105  0.7294 -0.2582
  449MOL0     C60510   4.256  10.977   4.940 -0.0551 -0.1336 -0.1884
  449MOL0     O60511   4.191  10.890   4.868  0.6278  0.1831  0.0600
  449MOL0     C60512   4.114  10.784   4.918  0.2875 -0.5389 -0.1743
  449MOL0     C60513   4.093  10.762   5.060 -0.3278  0.0803 -0.2763
  449MOL0     C60514   4.032  10.651   5.110 -0.4117 -0.6596  0.1852
  449MOL0     C60515   3.965  10.563   5.024 -0.5211  1.3409  1.2106
  449MOL0     O60516   3.874  10.465   5.071 -0.1096 -0.0174 -0.2361
  449MOL0     C60517   3.764  10.434   4.986 -0.1556  0.2368  0.4098
  449MOL0     C60518   3.648  10.369   5.062 -0.2456  0.5624  0.1653
  449MOL0     C60519   3.672  10.231   5.115 -0.1635  0.0190 -0.4386
  449MOL0     C60520   3.541  10.195   5.192 -0.6816 -0.1806 -0.4669
  449MOL0     C60521   3.536  10.062   5.265 -0.5609  0.5876  0.4710
  449MOL0     C60522   3.416  10.053   5.359 -0.8168 -0.4083 -0.1524
  449MOL0     C60523   3.413   9.916   5.423  0.4745 -0.3133 -0.3705
  449MOL0     C60524   3.343   9.810   5.338 -1.2427 -1.2721  1.0459
  449MOL0    Cl60525   3.166   9.846   5.321  0.1970  0.2613 -0.3843
  449MOL0     C60526   3.989  10.581   4.887  0.2332 -0.5391  0.6714
  449MOL0     C60527   4.054  10.694   4.832 -0.5243  0.6285 -0.1710
  449MOL0     O60528   4.266  10.970   5.063 -0.1706  0.4198  0.1486
  449MOL0     C60529   4.317  11.209   4.933 -0.4960 -0.8204  0.3252
  449MOL0     C60530   4.366  11.332   4.870 -1.0238  0.6560 -0.0299
  449MOL0     N60531   5.126  11.307   4.530 -0.8522  0.7174 -0.3320
  449MOL0     N60532   5.187  11.188   4.550 -0.0942  0.0273 -0.3739
  449MOL0     C60533   5.424  10.619   5.509  0.5473  0.3268  0.3800
  449MOL0     C60534   5.518  10.670   5.600 -0.8883 -0.4836  0.6593
  449MOL0     C60535   5.800  10.847   5.869 -1.2397 -0.5727  0.9872
  449MOL0     C60536   5.751  10.926   5.966 -0.7185  1.1743  0.5348
  449MOL0     C60537   5.831  10.963   6.075  0.4325  0.1959  0.4783
  449MOL0     C60538   5.951  10.911   6.092 -0.2421 -1.0935 -0.1493
  449MOL0     O60539   6.031  10.946   6.196  0.2487  0.2643 -0.5333
  449MOL0     C60540   5.998  11.055   6.276  0.9207  0.4972 -0.0543
  449MOL0     C60541   6.100  11.086   6.382  0.6044  0.2683  0.0338
  449MOL0     C60542   6.053  11.213   6.461 -0.2919 -0.3523 -0.8387
  449MOL0     C60543   6.144  11.242   6.581  0.5571 -0.0006 -0.0820
  449MOL0     C60544   6.267  11.321   6.547 -0.1013  0.4545 -0.4121
  449MOL0     C60545   6.360  11.391   6.512  0.5196  0.7275 -0.3082
  449MOL0     C60546   5.997  10.814   6.007  1.0754 -0.0980  0.2879
  449MOL0     C60547   5.923  10.777   5.891  0.6779  0.1152  0.1514
  449MOL0     H60548   5.347  10.932   5.731  1.5956  0.4465  0.5572
  449MOL0     H60549   5.174  10.847   5.576 -0.4125 -0.1414  3.1575
  449MOL0     H60550   5.251  10.476   5.336  0.3903 -0.2926  0.7745
  449MOL0     H60551   5.111  10.544   5.263  1.9585 -2.4910 -2.6972
  449MOL0     H60552   5.393  10.660   5.232  0.3281 -1.4622  0.0548
  449MOL0     H60553   5.305  10.573   5.113  1.9252  0.1963  0.4291
  449MOL0     H60554   5.120  10.725   5.116  1.5931 -7.5559  1.4473
  449MOL0     H60555   5.204  10.827   5.239  2.0162  1.0305 -0.9457
  449MOL0     H60556   5.399  10.859   5.118  0.8371 -1.6957 -0.5709
  449MOL0     H60557   5.351  10.772   4.981  2.5504 -2.8207  3.5816
  449MOL0     H60558   5.209  11.028   5.070 -0.8074  0.1504  0.0113
  449MOL0     H60559   5.335  11.024   4.955 -1.1666 -0.2239 -2.4897
  449MOL0     H60560   5.112  10.844   4.895  0.6972 -2.1671 -0.9052
  449MOL0     H60561   5.095  11.021   4.892  1.1862  0.2692  1.2319
  449MOL0     H60562   5.319  11.006   4.729  0.3535 -1.6184 -0.3214
  449MOL0     H60563   5.284  10.838   4.736  0.2613  0.1444 -0.5887
  449MOL0     H60564   5.049  10.906   4.645  0.5129 -2.1228  0.2887
  449MOL0     H60565   5.190  10.911   4.532 -2.1414 -1.0008 -0.2649
  449MOL0     H60566   4.922  11.118   4.700  0.2906  0.2226  1.6986
  449MOL0     H60567   4.972  11.496   4.630  1.7326  1.0017 -2.7413
  449MOL0     H60568   4.884  11.435   4.498 -2.3118  0.1016  0.8477
  449MOL0     H60569   4.808  11.347   4.775 -3.0470  2.5612  2.4415
  449MOL0     H60570   4.717  11.338   4.620 -1.9642  1.4018  0.0983
  449MOL0     H60571   4.672  11.567   4.619  1.0228 -0.5194 -1.6361
  449MOL0     H60572   4.780  11.595   4.758  2.6869 -3.1187  3.1714
  449MOL0     H60573   4.531  11.589   4.806 -0.7182 -1.6716  3.0526
  449MOL0     H60574   4.593  11.431   4.868 -0.2659 -0.9051  0.5802
  449MOL0     H60575   4.471  11.196   4.578 -0.7166 -1.1784 -0.2500
  449MOL0     H60576   4.407  10.981   4.549  1.8199  0.7224  1.2707
  449MOL0     H60577   4.427  10.877   4.695  1.7753  2.7850  3.3613
  449MOL0     H60578   4.264  10.926   4.631  0.2753 -1.5687  0.8170
  449MOL0     H60579   4.119  10.830   5.140 -2.2081 -1.4303  1.7482
  449MOL0     H60580   4.011  10.623   5.213  0.3769  2.5096  1.3069
  449MOL0     H60581   3.730  10.523   4.933 -1.5330 -1.4452 -1.7132
  449MOL0     H60582   3.798  10.367   4.905  3.6316  5.1361 -2.6234
  449MOL0     H60583   3.609  10.442   5.134  0.4603  3.7296 -2.4682
  449MOL0     H60584   3.567  10.367   4.989  0.1178  1.1773 -0.2604
  449MOL0     H60585   3.755  10.227   5.186 -0.2429  0.2129 -0.3354
  449MOL0     H60586   3.689  10.153   5.040  3.6144  0.1152  0.0992
  449MOL0     H60587   3.510  10.257   5.277 -3.1527 -0.5134 -1.0684
  449MOL0     H60588   3.459  10.183   5.121 -1.6177 -2.1395  0.8634
  449MOL0     H60589   3.630  10.054   5.321  1.3365 -4.4242 -2.7060
  449MOL0     H60590   3.530   9.973   5.202  0.0869 -1.0521  2.6135
  449MOL0     H60591   3.436  10.125   5.439 -1.0882 -2.2926  1.7284
  449MOL0     H60592   3.324  10.084   5.309  0.1066  0.3659 -1.4148
  449MOL0     H60593   3.354   9.920   5.515  1.2618 -0.8983  0.1781
  449MOL0     H60594   3.519   9.896   5.444  1.3271  2.6848 -1.3401
  449MOL0     H60595   3.374   9.716   5.385  0.9165 -1.8913 -1.4005
  449MOL0     H60596   3.391   9.806   5.240  1.5096 -2.8283  2.3063
  449MOL0     H60597   3.951  10.505   4.820 -0.4952  1.2575 -1.0605
  449MOL0     H60598   4.047  10.690   4.723 -0.2189  0.8947 -0.1989
  449MOL0     H60599   4.268  11.220   5.029  1.0073 -1.5742  1.2170
  449MOL0     H60600   4.381  11.411   4.942 -0.0042 -1.1120  1.7886
  449MOL0     H60601   5.433  10.530   5.447  0.5112  0.5247  0.0945
  449MOL0     H60602   5.597  10.601   5.629 -2.6033 -2.1231  1.6482
  449MOL0     H60603   5.648  10.960   5.973 -1.6954 -1.3067 -0.6443
  449MOL0     H60604   5.771  11.024   6.142 -2.5420 -0.0448 -1.7803
  449MOL0     H60605   5.992  11.149   6.220  1.4652  0.6449  0.1316
  449MOL0     H60606   5.908  11.029   6.332  2.0236 -1.9176  0.7428
  449MOL0     H60607   6.196  11.102   6.333  0.8427  1.7944  0.9393
  449MOL0     H60608   6.103  11.001   6.451  1.0586 -1.0216 -1.5165
  449MOL0     H60609   5.950  11.208   6.499 -1.0213  2.1108 -2.2588
  449MOL0     H60610   6.058  11.300   6.395 -1.9186  0.0962 -0.4189
  449MOL0     H60611   6.175  11.153   6.636  0.5267 -0.1466 -0.2979
  449MOL0     H60612   6.091  11.303   6.654 -1.7642 -2.5540  0.5471
  449MOL0     H60613   6.438  11.459   6.482 -1.8027  4.0086  0.4730
  449MOL0     H60614   6.095  10.768   6.020 -0.4833 -4.1597 -0.6419
  449MOL0     H60615   5.963  10.716   5.810  2.1237  3.3899 -1.7909
  450MOL0     O60616  11.137  10.770   0.045  1.0099 -0.5521 -0.2154
  450MOL0     C60617  11.185  10.827  -0.053  0.1648 -0.6875 -0.5049
  450MOL0     O60618  11.273  10.928  -0.046 -0.7806 -0.2125  0.0514
  450MOL0     C60619  11.267  11.034   0.055 -0.2907 -0.2812  0.1822
  450MOL0     C60620  11.144  11.106   0.081 -0.2147 -0.2370  0.9191
  450MOL0     C60621  11.156  11.218   0.161 -0.2979  0.2611 -1.2792
  450MOL0     C60622  11.272  11.256   0.221  0.0428 -0.0888  0.4681
  450MOL0     O60623  11.269  11.362   0.317 -0.2105  0.5062  0.8604
  450MOL0     C60624  11.392  11.408   0.378 -0.4512  0.0350 -0.6986
  450MOL0     C60625  11.373  11.526   0.459 -0.0676  0.0540 -0.0782
  450MOL0     C60626  11.290  11.483   0.584 -0.2391 -0.1856 -0.6239
  450MOL0     C60627  11.265  11.598   0.689 -0.6872 -0.3880 -0.1096
  450MOL0     C60628  11.200  11.534   0.810 -1.7770 -0.7588  0.9133
  450MOL0     C60629  11.191  11.620   0.936 -0.4065  0.0973 -0.0350
  450MOL0     C60630  11.136  11.770   0.917  0.1130 -0.2151 -0.6348
  450MOL0     C60631  10.992  11.780   0.899  0.5112 -0.1257  0.6259
  450MOL0     N60632  10.939  11.911   0.850 -0.0665 -0.6503 -0.1113
  450MOL0     C60633  11.004  12.037   0.877  1.0358  0.6877 -1.1403
  450MOL0     C60634  10.901  12.121   0.863  0.1089  0.2457 -0.3532
  450MOL0     C60635  10.914  12.266   0.893  0.6304  0.2579 -0.1644
  450MOL0     C60636  11.040  12.338   0.827 -0.3673 -1.0746 -0.0784
  450MOL0     C60637  11.010  12.481   0.782  1.2117  0.3720  0.0987
  450MOL0     C60638  11.116  12.541   0.692 -0.5663  0.0229  0.3412
  450MOL0     O60639  11.241  12.577   0.765 -0.2126 -0.0768  0.3221
  450MOL0     C60640  11.231  12.634   0.887 -0.4237  0.4196  0.5875
  450MOL0     C60641  11.191  12.767   0.893 -0.7503 -0.0203  0.7669
  450MOL0     C60642  11.212  12.846   1.011 -0.0609  0.7605 -0.3195
  450MOL0     C60643  11.148  12.992   1.004  0.3656  0.3201  0.2057
  450MOL0     C60644  11.274  12.779   1.123  0.9786 -0.0931 -0.2521
  450MOL0     C60645  11.309  12.859   1.248 -0.1725  0.6736 -0.4287
  450MOL0     O60646  11.303  12.989   1.237 -1.3617  0.0628  0.6640
  450MOL0     C60647  11.321  13.078   1.340 -0.3014 -0.0159  0.1191
  450MOL0     C60648  11.420  13.073   1.444 -0.5691  0.3357 -0.2895
  450MOL0     C60649  11.428  13.172   1.546  0.3770  0.5459  0.6196
  450MOL0     C60650  11.335  13.278   1.537  0.1329  0.0433 -1.3234
  450MOL0     O60651  11.326  13.379   1.623  0.5256  0.2127  0.1600
  450MOL0     C60652  11.284  13.344   1.752 -1.0812  0.0714 -0.1750
  450MOL0     C60653  11.225  13.474   1.815  0.2223 -0.8911  1.0042
  450MOL0     C60654  11.186  13.452   1.963 -0.1640 -0.3423 -0.2833
  450MOL0     C60655  11.322  13.455   2.048  0.1236  0.2717 -0.6766
  450MOL0     C60656  11.268  13.452   2.201  0.6538 -0.0740  1.2586
  450MOL0     C60657  11.372  13.385   2.293 -0.3588 -0.3829 -0.3138
  450MOL0     C60658  11.331  13.376   2.441  0.0122  0.3317 -0.3517
  450MOL0     C60659  11.434  13.319   2.540 -0.9927  0.9690 -0.5755
  450MOL0    Cl60660  11.536  13.193   2.478 -0.1368 -0.0677  0.3967
  450MOL0     C60661  11.232  13.281   1.450  0.6661  1.9611 -0.0348
  450MOL0     C60662  11.228  13.179   1.354 -0.2863  0.0027 -0.4263
  450MOL0     O60663  11.333  12.800   1.354 -0.0601  0.1261  1.0645
  450MOL0     C60664  11.318  12.645   1.113  0.1283  0.7871 -0.2421
  450MOL0     C60665  11.299  12.575   0.995  0.1878 -0.1605 -0.3106
  450MOL0     N60666  10.792  12.049   0.828 -0.4692  1.2171  0.6968
  450MOL0     N60667  10.807  11.926   0.832  0.7450 -0.0207  0.5454
  450MOL0     C60668  11.387  11.183   0.202 -1.2044 -0.3501 -0.0998
  450MOL0     C60669  11.385  11.064   0.114  0.1306 -0.4779 -0.1474
  450MOL0     C60670  11.166  10.778  -0.190 -0.1615  1.0120  0.1948
  450MOL0     C60671  11.143  10.642  -0.218  0.3507  0.3476  0.9780
  450MOL0     C60672  11.141  10.588  -0.349 -0.4510 -0.0016  0.3546
  450MOL0     C60673  11.163  10.676  -0.463  0.1368 -0.2643 -0.1736
  450MOL0     O60674  11.151  10.642  -0.603  0.2288 -0.4913 -0.7859
  450MOL0     C60675  11.128  10.502  -0.631 -0.2395  0.2834  0.6277
  450MOL0     C60676  11.075  10.500  -0.786 -0.2632 -0.5437 -0.0099
  450MOL0     C60677  10.950  10.573  -0.805  0.3501 -0.2454 -0.0238
  450MOL0     C60678  10.847  10.478  -0.859  0.8892  0.9266  0.0263
  450MOL0     C60679  10.802  10.377  -0.760  0.2446 -0.0953  0.8347
  450MOL0     C60680  10.761  10.290  -0.688  0.7324  0.8393 -0.1313
  450MOL0     C60681  11.174  10.811  -0.429 -0.2955 -0.6235 -0.1871
  450MOL0     C60682  11.175  10.859  -0.299  0.0567 -0.0775  0.1860
  450MOL0     H60683  11.056  11.097   0.019  2.4495 -0.8927 -3.2119
  450MOL0     H60684  11.067  11.275   0.185  0.8482  3.3570 -3.7632
  450MOL0     H60685  11.437  11.331   0.441 -1.4704  0.2430  0.3183
  450MOL0     H60686  11.460  11.436   0.298 -1.8420  1.6533 -1.3769
  450MOL0     H60687  11.471  11.564   0.489  2.1059 -5.0512  0.3559
  450MOL0     H60688  11.315  11.598   0.400  0.3530  1.1926  0.8504
  450MOL0     H60689  11.201  11.433   0.546  0.2426 -2.7179  1.3219
  450MOL0     H60690  11.357  11.410   0.631 -0.8491 -0.3898 -0.0632
  450MOL0     H60691  11.362  11.639   0.719 -0.5274  0.9282 -2.1841
  450MOL0     H60692  11.205  11.682   0.652 -2.5899 -1.0935  1.2226
  450MOL0     H60693  11.094  11.522   0.784 -1.4074 -3.5685  0.3264
  450MOL0     H60694  11.229  11.429   0.819 -0.2435 -0.9952 -3.7639
  450MOL0     H60695  11.118  11.558   0.990 -3.5161  2.0231 -1.7130
  450MOL0     H60696  11.290  11.628   0.981 -0.9278  0.7567  1.0318
  450MOL0     H60697  11.161  11.824   1.009 -2.7948  0.0972  0.0584
  450MOL0     H60698  11.172  11.825   0.829  1.4385  0.4479  0.2984
  450MOL0     H60699  10.949  11.761   0.998 -0.1141 -1.3210  0.1466
  450MOL0     H60700  10.974  11.699   0.828  3.2808  0.8746 -1.4015
  450MOL0     H60701  11.108  12.047   0.906  0.1173  1.6000  2.1967
  450MOL0     H60702  10.813  12.300   0.866 -2.6622 -4.3637  4.2952
  450MOL0     H60703  10.909  12.275   1.002 -1.1400 -0.0681 -0.1856
  450MOL0     H60704  11.077  12.276   0.744 -1.9028  0.1105 -1.7232
  450MOL0     H60705  11.110  12.348   0.910 -3.3784 -3.9829  3.1354
  450MOL0     H60706  10.997  12.546   0.869 -1.6473 -1.4009  1.1347
  450MOL0     H60707  10.917  12.483   0.724  1.5285  2.6116 -0.4115
  450MOL0     H60708  11.066  12.626   0.644 -2.0455  1.0776  3.4091
  450MOL0     H60709  11.136  12.471   0.611  1.5020  2.4052 -1.3606
  450MOL0     H60710  11.156  12.817   0.803  1.4562 -1.5327 -1.0371
  450MOL0     H60711  11.212  13.080   1.012 -2.7391  2.7446  0.2170
  450MOL0     H60712  11.093  13.011   0.912  3.1252  0.1797 -1.5952
  450MOL0     H60713  11.078  12.997   1.088 -1.6360 -4.6648 -0.8216
  450MOL0     H60714  11.489  12.989   1.446  1.2206  1.7337  2.0090
  450MOL0     H60715  11.498  13.155   1.627  0.6435 -1.7791 -0.0010
  450MOL0     H60716  11.208  13.266   1.747 -3.0981  1.5809  3.3270
  450MOL0     H60717  11.377  13.307   1.796 -0.7314  0.3966 -0.6386
  450MOL0     H60718  11.269  13.573   1.798 -2.9504  0.8000  1.9068
  450MOL0     H60719  11.137  13.490   1.752  1.9251  1.3445 -1.0189
  450MOL0     H60720  11.121  13.366   1.978 -0.2215 -0.6156 -1.8675
  450MOL0     H60721  11.131  13.541   1.994  2.7762  1.3958  0.3679
  450MOL0     H60722  11.383  13.364   2.042  1.0410  0.5289  2.6009
  450MOL0     H60723  11.393  13.532   2.018 -0.2893 -0.5138 -4.0891
  450MOL0     H60724  11.179  13.390   2.211 -1.2766  2.2981  0.1012
  450MOL0     H60725  11.245  13.557   2.222  0.0206  0.6797 -2.4333
  450MOL0     H60726  11.378  13.284   2.254 -2.2246 -0.7361  0.1972
  450MOL0     H60727  11.467  13.440   2.297 -0.4231 -0.3382  1.4691
  450MOL0     H60728  11.250  13.302   2.439  1.2284 -1.1020  0.8048
  450MOL0     H60729  11.279  13.465   2.475 -2.6779 -1.6673  1.1887
  450MOL0     H60730  11.383  13.281   2.630 -1.8355 -1.3086 -1.9186
  450MOL0     H60731  11.498  13.404   2.564 -0.4950  0.4231  0.0482
  450MOL0     H60732  11.164  13.365   1.444 -0.7438  0.7953 -3.8941
  450MOL0     H60733  11.153  13.172   1.275 -1.4680  1.3724  0.5244
  450MOL0     H60734  11.391  12.612   1.186  2.6688  2.4341 -1.8562
  450MOL0     H60735  11.337  12.474   0.989 -2.7923 -1.6396  2.4913
  450MOL0     H60736  11.482  11.220   0.237 -1.5492  1.6051 -1.0781
  450MOL0     H60737  11.468  10.995   0.101  1.2852  0.8029  0.2368
  450MOL0     H60738  11.130  10.585  -0.126  0.8000  1.1419  1.5478
  450MOL0     H60739  11.161  10.482  -0.364 -4.0198 -0.7943  0.4305
  450MOL0     H60740  11.225  10.452  -0.631 -0.6103 -1.0597 -4.6037
  450MOL0     H60741  11.059  10.448  -0.566 -0.3001 -0.0249  0.3065
  450MOL0     H60742  11.065  10.396  -0.816  2.3354 -0.5607 -1.1238
  450MOL0     H60743  11.147  10.549  -0.852 -0.5181 -1.1660 -0.7603
  450MOL0     H60744  10.953  10.648  -0.885  2.6245  1.0178  1.1351
  450MOL0     H60745  10.920  10.625  -0.714  1.5507 -0.4051  0.4890
  450MOL0     H60746  10.892  10.424  -0.943 -0.3236 -1.2900  0.7114
  450MOL0     H60747  10.754  10.524  -0.893  0.6208  0.1543 -0.3124
  450MOL0     H60748  10.722  10.213  -0.625  0.1957  2.4745  1.6309
  450MOL0     H60749  11.203  10.881  -0.507  1.1992 -1.4012 -0.3616
  450MOL0     H60750  11.202  10.962  -0.283  2.5364 -0.6698  0.2675
  451MOL0     O60751   0.764   9.897   8.422  0.1586  0.2549  0.4600
  451MOL0     C60752   0.798   9.945   8.524 -0.1855  0.0729 -0.0643
  451MOL0     O60753   0.712  10.007   8.604 -0.3297  0.3162 -0.6067
  451MOL0     C60754   0.586  10.022   8.557  0.1561  0.2949  0.0989
  451MOL0     C60755   0.536  10.123   8.473  0.5594  0.2427 -0.1297
  451MOL0     C60756   0.401  10.132   8.435  0.4123  0.3840  1.1451
  451MOL0     C60757   0.321  10.020   8.450 -0.0127  0.5783 -0.6198
  451MOL0     O60758   0.200  10.022   8.376  0.2848  0.2815 -0.4716
  451MOL0     C60759   0.109  10.138   8.366  0.0573  0.5668  0.3875
  451MOL0     C60760  -0.011  10.094   8.286 -0.5379 -0.0298 -0.4047
  451MOL0     C60761  -0.105  10.221   8.271  0.9371 -0.4184  0.1568
  451MOL0     C60762  -0.054  10.317   8.160  0.1109  0.5906  0.4506
  451MOL0     C60763  -0.130  10.447   8.164  0.0250  0.5629  1.0382
  451MOL0     C60764  -0.270  10.431   8.098 -0.5136  0.1353  0.7910
  451MOL0     C60765  -0.327  10.567   8.042 -0.4734  0.6361  0.6998
  451MOL0     C60766  -0.340  10.666   8.143  0.5541  0.2216 -0.0484
  451MOL0     N60767  -0.464  10.655   8.216  0.9876  0.2189  0.4146
  451MOL0     C60768  -0.488  10.558   8.308  0.0077 -0.4485  0.1766
  451MOL0     C60769  -0.619  10.561   8.340 -1.0840  0.3140  0.3990
  451MOL0     C60770  -0.704  10.483   8.448  0.5801  0.0619  0.4274
  451MOL0     C60771  -0.863  10.482   8.431  0.2377 -0.0801 -0.4820
  451MOL0     C60772  -0.910  10.379   8.330 -1.0592  0.5790  0.8335
  451MOL0     C60773  -1.065  10.363   8.325 -0.3745  0.9763 -0.4204
  451MOL0     O60774  -1.133  10.491   8.309  0.0438 -0.2761 -0.2297
  451MOL0     C60775  -1.252  10.496   8.373 -0.4585  1.2001 -0.0460
  451MOL0     C60776  -1.283  10.608   8.455  0.1773 -0.6423 -1.1009
  451MOL0     C60777  -1.394  10.625   8.529  0.7897 -0.5931  0.4900
  451MOL0     C60778  -1.426  10.742   8.615 -0.6364 -0.1846  0.0367
  451MOL0     C60779  -1.498  10.526   8.513 -1.1518  0.4133 -0.0766
  451MOL0     C60780  -1.639  10.536   8.548  0.1901 -0.4847 -0.9057
  451MOL0     O60781  -1.740  10.468   8.484 -0.8740  0.2551 -0.1365
  451MOL0     C60782  -1.871  10.495   8.512 -1.1628 -0.2058  0.6295
  451MOL0     C60783  -1.922  10.619   8.476  0.2564 -0.1163 -0.4871
  451MOL0     C60784  -2.067  10.628   8.489 -0.4653 -0.3617 -0.0191
  451MOL0     C60785  -2.145  10.523   8.536  0.4580  0.3263  0.5934
  451MOL0     O60786  -2.277  10.561   8.572 -0.0697  0.2080 -0.4916
  451MOL0     C60787  -2.306  10.555   8.705  0.8507 -0.3649 -0.8214
  451MOL0     C60788  -2.449  10.517   8.725  1.2007 -0.2395  0.2207
  451MOL0     C60789  -2.551  10.603   8.639  0.3250 -0.0106 -0.3609
  451MOL0     C60790  -2.697  10.547   8.658  0.6468 -0.4313  0.3617
  451MOL0     C60791  -2.789  10.642   8.576  0.3114  0.8797  0.5367
  451MOL0     C60792  -2.933  10.595   8.574 -0.4949 -0.6888 -0.0860
  451MOL0     C60793  -2.947  10.441   8.569  0.0756 -0.8653 -0.3769
  451MOL0     C60794  -3.088  10.394   8.549 -0.2982  0.0607  0.0655
  451MOL0    Cl60795  -3.193  10.438   8.678 -1.2173 -0.4250  0.3346
  451MOL0     C60796  -2.085  10.396   8.571  0.5676  0.2065 -0.0452
  451MOL0     C60797  -1.953  10.394   8.554 -0.4305  0.0099 -0.1422
  451MOL0     O60798  -1.661  10.594   8.651 -0.5335 -0.6585  0.1348
  451MOL0     C60799  -1.464  10.406   8.445 -0.8292 -0.6190 -1.0465
  451MOL0     C60800  -1.340  10.388   8.378  0.0611 -0.5633 -0.0374
  451MOL0     N60801  -0.677  10.660   8.261 -0.0311 -0.3587  0.7959
  451MOL0     N60802  -0.585  10.712   8.192  0.2842 -0.7522 -0.2438
  451MOL0     C60803   0.369   9.910   8.528  0.2790  1.4298 -0.1976
  451MOL0     C60804   0.504   9.906   8.573 -0.0462  0.4311 -0.7499
  451MOL0     C60805   0.948   9.957   8.539  0.1540 -0.6171 -0.5963
  451MOL0     C60806   1.006   9.985   8.667 -0.1252  0.9160  0.2169
  451MOL0     C60807   1.145   9.996   8.684  0.7273  0.9494 -0.3420
  451MOL0     C60808   1.226   9.967   8.571 -0.9173  0.6732  0.8544
  451MOL0     O60809   1.367   9.979   8.595  0.1592 -0.1495  0.4765
  451MOL0     C60810   1.452   9.919   8.497  0.0204 -0.3772 -0.2161
  451MOL0     C60811   1.513  10.009   8.399  0.2783 -0.3410 -0.0719
  451MOL0     C60812   1.616   9.937   8.302  0.2419  0.6636  0.5747
  451MOL0     C60813   1.548   9.826   8.206 -0.2034 -0.9638 -0.5099
  451MOL0     C60814   1.469   9.873   8.106 -0.0927  0.3283  0.2006
  451MOL0     C60815   1.389   9.905   8.029  0.1980 -0.3526  0.7636
  451MOL0     C60816   1.169   9.940   8.440  0.5349 -0.6006  0.1106
  451MOL0     C60817   1.027   9.933   8.429 -0.2374  0.2655  0.0970
  451MOL0     H60818   0.604  10.203   8.447 -1.1452  1.0258 -2.4571
  451MOL0     H60819   0.387  10.215   8.367  1.6088  0.8309  1.4169
  451MOL0     H60820   0.082  10.173   8.465  1.4425  2.6486  0.0886
  451MOL0     H60821   0.160  10.219   8.313  2.8850  0.5596  2.8328
  451MOL0     H60822   0.014  10.054   8.188 -2.1076 -0.8715 -0.4850
  451MOL0     H60823  -0.063  10.018   8.345 -0.2352 -1.5370 -2.0075
  451MOL0     H60824  -0.207  10.188   8.252  2.1933 -3.4517 -2.1870
  451MOL0     H60825  -0.101  10.282   8.361 -0.9720  0.2209 -0.1487
  451MOL0     H60826   0.051  10.339   8.179 -0.1567 -0.2683  3.3833
  451MOL0     H60827  -0.051  10.277   8.058 -0.1678  1.8137 -0.0563
  451MOL0     H60828  -0.139  10.492   8.264  1.0742  3.4219 -0.0522
  451MOL0     H60829  -0.072  10.518   8.104  0.4424 -0.3522  0.3392
  451MOL0     H60830  -0.245  10.360   8.019  0.6182  0.2183  1.0618
  451MOL0     H60831  -0.349  10.394   8.163 -0.7196 -1.7559 -0.4763
  451MOL0     H60832  -0.266  10.616   7.966 -1.4648  1.8293  0.6465
  451MOL0     H60833  -0.424  10.547   7.995  0.2764  1.9760 -1.5664
  451MOL0     H60834  -0.337  10.760   8.087  1.5433  1.5176  2.0561
  451MOL0     H60835  -0.252  10.672   8.207  1.0152  0.4793 -0.6887
  451MOL0     H60836  -0.414  10.498   8.360 -1.2917  1.1471  4.3255
  451MOL0     H60837  -0.677  10.377   8.451 -3.7985 -1.2512  0.2790
  451MOL0     H60838  -0.684  10.529   8.545 -0.1891 -1.2233  1.2284
  451MOL0     H60839  -0.903  10.580   8.403 -1.0432 -0.0352  1.3063
  451MOL0     H60840  -0.913  10.462   8.526  2.5610 -0.0538  0.8068
  451MOL0     H60841  -0.870  10.281   8.358  1.2642  1.5499  1.0629
  451MOL0     H60842  -0.864  10.388   8.231  2.4500 -2.9017  1.8877
  451MOL0     H60843  -1.091  10.296   8.407  3.4346 -1.6429 -1.0793
  451MOL0     H60844  -1.095  10.299   8.241 -0.5924  0.2683  0.1837
  451MOL0     H60845  -1.195  10.669   8.465  0.3852 -0.7678 -2.0493
  451MOL0     H60846  -1.348  10.816   8.594  0.0988 -0.5370  1.4184
  451MOL0     H60847  -1.522  10.790   8.591 -0.1430 -0.4172 -2.7385
  451MOL0     H60848  -1.424  10.722   8.722  5.3243 -1.0143  0.0909
  451MOL0     H60849  -1.858  10.697   8.436  0.5279 -0.1012 -0.0188
  451MOL0     H60850  -2.113  10.725   8.479 -0.1357  0.1249  2.5663
  451MOL0     H60851  -2.259  10.473   8.760  0.4335  2.0365  3.4909
  451MOL0     H60852  -2.285  10.651   8.752 -2.5392 -0.4960  1.2894
  451MOL0     H60853  -2.474  10.417   8.690  0.0931 -0.5974  1.9040
  451MOL0     H60854  -2.467  10.518   8.833  0.0432  2.9430  0.1205
  451MOL0     H60855  -2.518  10.611   8.535  1.0351  1.8247 -0.0359
  451MOL0     H60856  -2.549  10.707   8.672  2.1162 -0.4960  1.2261
  451MOL0     H60857  -2.693  10.441   8.633  0.7627 -0.6380  1.2314
  451MOL0     H60858  -2.724  10.558   8.763 -0.5777 -1.0557  0.1367
  451MOL0     H60859  -2.741  10.647   8.478  1.7499  3.9889  1.2774
  451MOL0     H60860  -2.785  10.747   8.605  0.7220  0.5818  1.5831
  451MOL0     H60861  -2.992  10.645   8.652  1.8685 -1.2134  2.1874
  451MOL0     H60862  -2.974  10.639   8.482 -2.0594  0.5818  1.1429
  451MOL0     H60863  -2.913  10.413   8.669  1.9766  0.8122 -0.4879
  451MOL0     H60864  -2.872  10.394   8.503 -1.3617 -2.4851 -0.9214
  451MOL0     H60865  -3.093  10.285   8.541 -0.2298 -0.4171  4.4093
  451MOL0     H60866  -3.122  10.435   8.453  4.1672  0.4284 -1.6208
  451MOL0     H60867  -2.132  10.303   8.604  0.4030 -0.7031 -2.5959
  451MOL0     H60868  -1.909  10.296   8.573 -0.4543 -1.3451 -5.4513
  451MOL0     H60869  -1.540  10.328   8.448 -1.1602 -0.3012  1.6754
  451MOL0     H60870  -1.314  10.286   8.352 -1.6883 -1.4257  1.3991
  451MOL0     H60871   0.306   9.822   8.539  1.7987  0.1088 -1.4675
  451MOL0     H60872   0.561   9.825   8.616  0.2043  0.8124 -0.3582
  451MOL0     H60873   0.945  10.001   8.755 -5.1343 -0.6308 -2.5587
  451MOL0     H60874   1.192  10.013   8.780 -0.2760  0.4933  0.2459
  451MOL0     H60875   1.544   9.887   8.549  2.0280  1.4571 -2.3989
  451MOL0     H60876   1.409   9.828   8.456 -1.8142  0.7279 -0.8338
  451MOL0     H60877   1.563  10.089   8.454  0.5262 -0.4390 -0.1575
  451MOL0     H60878   1.435  10.055   8.338 -0.6643  1.1815  2.1486
  451MOL0     H60879   1.688   9.878   8.359  1.0701  0.4800 -0.6027
  451MOL0     H60880   1.665  10.004   8.230 -1.0053  0.5332 -0.4299
  451MOL0     H60881   1.487   9.761   8.269  1.6098  0.0508  2.5218
  451MOL0     H60882   1.635   9.767   8.176  3.4583  2.2998  2.5922
  451MOL0     H60883   1.333   9.949   7.949 -0.0081  1.1399  1.6974
  451MOL0     H60884   1.218   9.934   8.343 -2.4136  1.4701 -1.6781
  451MOL0     H60885   0.990   9.924   8.328  2.6435 -1.2289 -0.9251
  452MOL0     O60886   7.807   7.902   2.213 -0.5471  0.0045 -0.0973
  452MOL0     C60887   7.825   7.792   2.164 -0.5602 -0.1507  0.3143
  452MOL0     O60888   7.795   7.670   2.227 -0.8900 -0.5843 -1.0028
  452MOL0     C60889   7.721   7.670   2.347 -0.6454 -0.3371 -0.3215
  452MOL0     C60890   7.580   7.659   2.321  0.4728 -0.1061 -0.1120
  452MOL0     C60891   7.485   7.652   2.425  0.5194 -0.2319 -0.5321
  452MOL0     C60892   7.531   7.648   2.555 -0.0437  0.0492  0.4511
  452MOL0     O60893   7.451   7.609   2.655 -0.0924 -0.3089 -0.6178
  452MOL0     C60894   7.506   7.536   2.762 -0.2817 -1.2406 -0.7522
  452MOL0     C60895   7.421   7.416   2.784  0.2479 -0.3612 -0.4466
  452MOL0     C60896   7.279   7.444   2.819  0.8324  0.3281 -0.0986
  452MOL0     C60897   7.183   7.326   2.818 -0.5927  0.3010  0.4003
  452MOL0     C60898   7.207   7.226   2.927 -0.1052 -0.4357  0.7338
  452MOL0     C60899   7.107   7.106   2.899  0.3552 -0.3808 -0.6152
  452MOL0     C60900   7.105   7.000   3.019 -0.8249  0.1880 -0.3826
  452MOL0     C60901   6.991   7.020   3.114  0.8670  0.1933 -0.5995
  452MOL0     N60902   6.975   6.905   3.202 -0.6925  1.0384  0.9944
  452MOL0     C60903   6.882   6.872   3.295 -0.2799  0.0409 -0.1538
  452MOL0     C60904   6.938   6.770   3.367  0.4213 -0.1859  0.2208
  452MOL0     C60905   6.847   6.699   3.465 -1.2449  1.2826 -0.8737
  452MOL0     C60906   6.901   6.739   3.603 -0.7507 -0.1197  0.2614
  452MOL0     C60907   6.831   6.660   3.712  1.1359 -0.2075  0.9796
  452MOL0     C60908   6.862   6.701   3.852  0.1274 -0.1111  0.1555
  452MOL0     O60909   6.998   6.662   3.895 -0.4102 -0.6423  0.3362
  452MOL0     C60910   7.048   6.727   4.006  0.3000  0.6759  0.0877
  452MOL0     C60911   6.964   6.780   4.106 -0.3883 -0.0591  0.0205
  452MOL0     C60912   7.011   6.858   4.213  1.0537  0.5167  0.6162
  452MOL0     C60913   6.911   6.909   4.307 -0.5564 -0.0696  0.0043
  452MOL0     C60914   7.156   6.871   4.230  0.4724 -0.4696 -0.2755
  452MOL0     C60915   7.212   6.936   4.344 -0.6737 -0.3392 -0.2409
  452MOL0     O60916   7.349   6.907   4.353  0.6093 -0.4414 -0.7798
  452MOL0     C60917   7.417   6.940   4.467  0.3279  1.0767 -1.1454
  452MOL0     C60918   7.402   7.042   4.566 -0.2538 -0.1216 -0.3026
  452MOL0     C60919   7.477   7.042   4.686  0.1838  0.6610  0.3222
  452MOL0     C60920   7.580   6.955   4.701  0.4458  0.1131  0.7228
  452MOL0     O60921   7.665   6.959   4.800 -0.7415  0.0003  0.5309
  452MOL0     C60922   7.667   7.072   4.892 -0.2063  0.4348 -0.3358
  452MOL0     C60923   7.803   7.083   4.957 -0.2353 -0.2620  0.2803
  452MOL0     C60924   7.819   7.194   5.058 -0.0961  0.4280  0.3437
  452MOL0     C60925   7.788   7.133   5.204  1.2029 -0.5706  0.0180
  452MOL0     C60926   7.784   7.246   5.304  0.2020  0.6850 -1.1566
  452MOL0     C60927   7.653   7.327   5.290  0.7171  0.5813 -0.6186
  452MOL0     C60928   7.522   7.238   5.313  0.3194 -0.4846 -0.1153
  452MOL0     C60929   7.394   7.319   5.342 -0.5213  0.3890 -0.4368
  452MOL0    Cl60930   7.263   7.204   5.334  0.0529 -0.1347  0.1113
  452MOL0     C60931   7.596   6.848   4.607 -0.0074 -0.1272 -0.5342
  452MOL0     C60932   7.517   6.834   4.495 -0.1941  0.2005 -0.2193
  452MOL0     O60933   7.146   7.009   4.423  0.0079  0.1757 -0.2785
  452MOL0     C60934   7.239   6.825   4.132 -0.0926 -0.1760  0.1150
  452MOL0     C60935   7.189   6.753   4.021  1.0378  0.6905  1.2590
  452MOL0     N60936   7.059   6.741   3.314  0.2618 -0.2745 -0.1372
  452MOL0     N60937   7.079   6.817   3.215  0.1563  0.8131  0.7402
  452MOL0     C60938   7.664   7.671   2.582 -0.6885  0.2237 -0.2305
  452MOL0     C60939   7.757   7.681   2.478 -0.9920 -1.1124 -0.3707
  452MOL0     C60940   7.894   7.774   2.036 -0.3436  0.2414 -0.2349
  452MOL0     C60941   7.966   7.657   2.013  0.8510 -0.4446 -0.1828
  452MOL0     C60942   8.009   7.618   1.891 -0.0928  0.4044 -0.5947
  452MOL0     C60943   7.987   7.711   1.787 -0.2848 -0.3440  0.6054
  452MOL0     O60944   8.037   7.677   1.668 -0.1495  0.3001 -0.2703
  452MOL0     C60945   7.943   7.597   1.602  0.0338  0.8353 -0.2278
  452MOL0     C60946   8.016   7.542   1.483  0.1495 -0.3602  1.2495
  452MOL0     C60947   8.142   7.453   1.530 -0.2048  0.0018  0.1042
  452MOL0     C60948   8.183   7.364   1.410 -0.2370 -0.3040 -0.2769
  452MOL0     C60949   8.278   7.254   1.439 -0.2255 -0.2000 -0.0755
  452MOL0     C60950   8.371   7.173   1.458 -0.3319  0.0783 -0.1771
  452MOL0     C60951   7.922   7.841   1.808 -0.8559  0.3266 -0.1215
  452MOL0     C60952   7.871   7.871   1.931  0.0409  0.0361 -0.1451
  452MOL0     H60953   7.562   7.652   2.214  0.3017  4.2329 -0.5663
  452MOL0     H60954   7.378   7.640   2.411  0.6715 -0.3567 -1.7144
  452MOL0     H60955   7.606   7.498   2.740  0.3518  0.8732 -1.7377
  452MOL0     H60956   7.504   7.603   2.849 -1.7422 -1.2395 -0.7715
  452MOL0     H60957   7.428   7.352   2.696  3.4770  0.3953 -0.8645
  452MOL0     H60958   7.450   7.354   2.869 -1.2532 -0.9804 -0.3537
  452MOL0     H60959   7.267   7.510   2.905 -2.8599 -1.6470  1.1290
  452MOL0     H60960   7.232   7.500   2.737  0.3019  1.0443  0.6725
  452MOL0     H60961   7.078   7.356   2.825 -0.9357 -1.1131  2.2859
  452MOL0     H60962   7.201   7.275   2.723 -1.2725 -1.1268  1.0098
  452MOL0     H60963   7.303   7.174   2.922 -0.9287 -1.9287 -0.4273
  452MOL0     H60964   7.192   7.273   3.024  1.1798  0.1380  0.6823
  452MOL0     H60965   7.005   7.143   2.888  1.4225  2.5542 -1.7583
  452MOL0     H60966   7.139   7.051   2.809  0.5672 -1.5950  0.1744
  452MOL0     H60967   7.103   6.896   2.984 -0.2232 -0.5080  1.5418
  452MOL0     H60968   7.203   7.012   3.065 -0.5068  2.9532 -1.5566
  452MOL0     H60969   6.904   7.033   3.048  1.4311 -0.1322 -1.4299
  452MOL0     H60970   7.003   7.111   3.173  2.3763  2.2370 -3.7676
  452MOL0     H60971   6.784   6.916   3.310 -0.9065 -2.0917  2.9317
  452MOL0     H60972   6.744   6.736   3.461 -1.4746  0.5848 -1.9465
  452MOL0     H60973   6.857   6.590   3.456  4.3911  1.4129  0.0683
  452MOL0     H60974   6.893   6.848   3.612  1.1517  0.3670 -2.6037
  452MOL0     H60975   7.008   6.713   3.609 -0.8045 -0.1033  1.5866
  452MOL0     H60976   6.871   6.560   3.693  0.5695 -0.2309 -0.2049
  452MOL0     H60977   6.722   6.661   3.700  1.0338 -0.1126  1.8759
  452MOL0     H60978   6.779   6.662   3.911  0.4709 -0.6417  0.2904
  452MOL0     H60979   6.850   6.810   3.858 -0.9015 -0.2037  0.0804
  452MOL0     H60980   6.859   6.765   4.084 -0.7196 -0.1046  1.5815
  452MOL0     H60981   6.808   6.878   4.286 -0.2426 -0.7671 -0.5835
  452MOL0     H60982   6.939   6.869   4.405 -1.6954  1.0876  0.8409
  452MOL0     H60983   6.921   7.017   4.307  0.9609 -0.1893 -0.6964
  452MOL0     H60984   7.334   7.127   4.561  0.0027  0.5016  3.7552
  452MOL0     H60985   7.451   7.118   4.759  2.9715  0.5562  1.5482
  452MOL0     H60986   7.652   7.168   4.841 -3.2209  0.1995 -0.0862
  452MOL0     H60987   7.587   7.052   4.963  2.8027  0.9519  3.5072
  452MOL0     H60988   7.827   6.984   4.996  0.6259 -0.5401 -0.8953
  452MOL0     H60989   7.880   7.097   4.880  1.1849  0.3613  1.7310
  452MOL0     H60990   7.755   7.280   5.034 -0.8266 -0.8528 -2.7535
  452MOL0     H60991   7.922   7.232   5.054  0.4150  0.0322  4.8068
  452MOL0     H60992   7.693   7.080   5.196  1.8873 -1.8094 -0.0498
  452MOL0     H60993   7.871   7.064   5.223  2.1444  0.3934 -0.4526
  452MOL0     H60994   7.875   7.305   5.292  0.7289  0.0480 -0.3626
  452MOL0     H60995   7.783   7.211   5.407 -0.3369  2.8196 -0.3654
  452MOL0     H60996   7.661   7.405   5.366  0.4252 -0.5146  0.5795
  452MOL0     H60997   7.637   7.379   5.195  0.0429 -3.7473 -3.1402
  452MOL0     H60998   7.545   7.160   5.386  6.0048  0.5946 -0.2734
  452MOL0     H60999   7.499   7.189   5.218 -2.3438 -0.5079  0.4614
  452MOL0     H61000   7.386   7.402   5.271 -1.8611  1.6592  1.0860
  452MOL0     H61001   7.386   7.363   5.442 -3.1749 -2.1507  0.6421
  452MOL0     H61002   7.678   6.780   4.630 -0.7197 -0.4882  1.0103
  452MOL0     H61003   7.541   6.746   4.437 -1.1520  0.2691 -0.7245
  452MOL0     H61004   7.347   6.839   4.136 -0.2592  2.2701 -1.8464
  452MOL0     H61005   7.257   6.712   3.947 -1.0220 -0.3634 -0.1563
  452MOL0     H61006   7.716   7.680   2.677  0.1497  0.6904 -0.7224
  452MOL0     H61007   7.863   7.699   2.492 -1.1814  2.0548 -1.9331
  452MOL0     H61008   7.972   7.586   2.095 -1.6963 -1.2891 -0.6133
  452MOL0     H61009   8.063   7.524   1.884 -0.9665 -0.0619 -1.1856
  452MOL0     H61010   7.913   7.513   1.665 -1.7302  0.6371 -1.2775
  452MOL0     H61011   7.854   7.656   1.580 -2.1879 -1.9907  0.5539
  452MOL0     H61012   8.064   7.623   1.426  0.6177 -1.8544 -0.6045
  452MOL0     H61013   7.947   7.486   1.419 -0.3613  2.6108 -1.0411
  452MOL0     H61014   8.114   7.394   1.617 -0.8610  3.4302  2.4173
  452MOL0     H61015   8.221   7.516   1.572 -2.7661  1.3613  3.2824
  452MOL0     H61016   8.212   7.428   1.326  0.9962 -2.6011 -1.7074
  452MOL0     H61017   8.094   7.319   1.364 -0.3402  0.3834 -0.7603
  452MOL0     H61018   8.455   7.110   1.480 -2.0290 -2.5075 -0.7261
  452MOL0     H61019   7.937   7.921   1.736 -0.3776 -0.3429 -0.7824
  452MOL0     H61020   7.847   7.974   1.957  3.4233  0.0860  3.8187
  453MOL0     O61021   5.441   2.174   0.623 -0.8907  0.5388  0.4773
  453MOL0     C61022   5.332   2.219   0.609  1.0382 -0.4039 -0.4541
  453MOL0     O61023   5.218   2.159   0.562  0.3871 -0.2686  0.4317
  453MOL0     C61024   5.221   2.024   0.543 -0.0498  0.2426  0.0643
  453MOL0     C61025   5.177   1.971   0.418 -0.3112  0.0091 -0.3577
  453MOL0     C61026   5.197   1.832   0.393  0.2499 -0.1793  0.9250
  453MOL0     C61027   5.246   1.743   0.489 -0.7180  0.8032  0.7747
  453MOL0     O61028   5.250   1.604   0.458  0.3031  0.0821  0.3606
  453MOL0     C61029   5.368   1.535   0.478  1.0505  0.3783  0.2767
  453MOL0     C61030   5.359   1.387   0.489 -0.6966  0.1679  0.1098
  453MOL0     C61031   5.250   1.324   0.579 -0.0904 -0.3535  0.6038
  453MOL0     C61032   5.262   1.176   0.605  0.7588 -0.3921 -0.2025
  453MOL0     C61033   5.128   1.113   0.639  0.2431  0.1389  0.0101
  453MOL0     C61034   5.093   0.989   0.573  0.2722 -0.8184  0.3110
  453MOL0     C61035   5.152   0.870   0.640 -1.0320 -0.3198  0.5191
  453MOL0     C61036   5.108   0.742   0.565  0.0565 -0.3558  1.1500
  453MOL0     N61037   5.175   0.724   0.431  0.0927  1.1308 -0.1846
  453MOL0     C61038   5.285   0.787   0.389 -0.2064 -0.4271  0.1898
  453MOL0     C61039   5.290   0.758   0.257  1.5568  0.5155  0.4593
  453MOL0     C61040   5.378   0.815   0.143  0.0775 -0.1466 -0.2917
  453MOL0     C61041   5.420   0.957   0.175  0.0993  1.0191  0.2402
  453MOL0     C61042   5.518   1.005   0.068 -0.5977 -0.0844  0.1969
  453MOL0     C61043   5.464   1.071  -0.056 -0.4884 -0.6759  0.5294
  453MOL0     O61044   5.439   1.206  -0.021  0.9856  1.3643  0.2233
  453MOL0     C61045   5.536   1.297  -0.001 -0.0279 -0.7872  0.4302
  453MOL0     C61046   5.499   1.412   0.055 -0.1913  0.0845 -0.4963
  453MOL0     C61047   5.587   1.512   0.081  0.2063 -1.2379  0.4313
  453MOL0     C61048   5.528   1.643   0.122 -0.6878 -0.2675  1.0157
  453MOL0     C61049   5.724   1.501   0.050  0.5488  0.0771  0.6478
  453MOL0     C61050   5.836   1.610   0.065 -0.1802 -0.2199 -0.7471
  453MOL0     O61051   5.951   1.581  -0.006  0.2370 -0.0921  0.7947
  453MOL0     C61052   6.074   1.653   0.009 -1.2051 -0.5015 -0.2502
  453MOL0     C61053   6.103   1.778   0.084  0.1803  0.3263 -0.0591
  453MOL0     C61054   6.225   1.852   0.071 -0.2934  0.4409 -0.0941
  453MOL0     C61055   6.330   1.789   0.014  0.9360 -0.6489 -0.9967
  453MOL0     O61056   6.446   1.853   0.022  0.3130  0.1524  0.0467
  453MOL0     C61057   6.562   1.778   0.053  1.3221  0.8306 -0.6655
  453MOL0     C61058   6.682   1.872   0.071  0.4566  0.5454 -0.4058
  453MOL0     C61059   6.813   1.803   0.111  0.3869 -0.1995  0.5580
  453MOL0     C61060   6.931   1.904   0.133  0.3831 -0.3483 -0.3063
  453MOL0     C61061   7.052   1.818   0.123 -0.5794  0.2839 -0.0076
  453MOL0     C61062   7.070   1.698   0.218  0.0058 -0.5070 -0.0735
  453MOL0     C61063   7.066   1.734   0.373 -0.4284  0.8359 -0.3424
  453MOL0     C61064   7.031   1.611   0.469  0.0514 -0.6021  0.9939
  453MOL0    Cl61065   7.150   1.477   0.476  0.1114 -0.0034  0.1836
  453MOL0     C61066   6.307   1.667  -0.049 -0.2925  1.7763 -1.2142
  453MOL0     C61067   6.187   1.598  -0.053  0.0940 -0.5017 -0.4140
  453MOL0     O61068   5.823   1.710   0.137 -0.2643  0.4542  0.5252
  453MOL0     C61069   5.762   1.380  -0.020 -0.3634  0.5224 -0.0292
  453MOL0     C61070   5.675   1.272  -0.038 -0.1955 -0.6512  0.4481
  453MOL0     N61071   5.186   0.671   0.221 -1.1466 -0.2904 -0.0554
  453MOL0     N61072   5.121   0.645   0.338  0.2271  0.4030  0.2687
  453MOL0     C61073   5.289   1.798   0.614 -0.7267  0.3338  0.6534
  453MOL0     C61074   5.269   1.935   0.641  0.5915 -0.5861  1.2212
  453MOL0     C61075   5.305   2.360   0.673  0.2476 -0.1245 -0.7135
  453MOL0     C61076   5.179   2.430   0.679 -0.2676 -0.6749 -0.7521
  453MOL0     C61077   5.172   2.548   0.756  1.0017  0.6045  0.1840
  453MOL0     C61078   5.280   2.599   0.825 -0.1593 -0.1722  0.6723
  453MOL0     O61079   5.259   2.728   0.883 -0.4263 -0.0077  1.2007
  453MOL0     C61080   5.378   2.795   0.940 -0.3088  0.8448  0.0317
  453MOL0     C61081   5.327   2.930   0.982 -0.3436 -0.8516 -0.5409
  453MOL0     C61082   5.298   3.028   0.868  0.5355 -0.1182 -0.3202
  453MOL0     C61083   5.310   3.182   0.909 -0.4099 -0.4058  0.6143
  453MOL0     C61084   5.317   3.275   0.796  0.2049 -0.4295 -0.4447
  453MOL0     C61085   5.312   3.357   0.705  0.9176  0.4527 -0.2451
  453MOL0     C61086   5.395   2.526   0.828  0.7206 -0.6804 -0.4997
  453MOL0     C61087   5.414   2.405   0.754  1.1462 -0.1401 -0.4510
  453MOL0     H61088   5.149   2.038   0.338  2.2792  0.1220 -1.2425
  453MOL0     H61089   5.172   1.810   0.290  2.3759 -1.4852  0.6209
  453MOL0     H61090   5.445   1.571   0.410  0.0712 -1.8636 -2.1710
  453MOL0     H61091   5.399   1.571   0.577  0.0960 -0.5387  0.9345
  453MOL0     H61092   5.354   1.351   0.386  0.8495  2.3317 -0.7907
  453MOL0     H61093   5.459   1.368   0.527 -1.7755 -0.4151  2.9242
  453MOL0     H61094   5.242   1.369   0.678  0.0325 -1.0714  0.9520
  453MOL0     H61095   5.160   1.345   0.521 -1.7174 -4.1966  1.3869
  453MOL0     H61096   5.308   1.132   0.516 -1.9837  0.7147 -2.2998
  453MOL0     H61097   5.329   1.148   0.687 -0.4528  0.2491  1.0571
  453MOL0     H61098   5.126   1.099   0.748  1.8776  0.3195  0.0976
  453MOL0     H61099   5.058   1.195   0.622  1.3307  1.3576  1.1417
  453MOL0     H61100   4.986   0.978   0.550  0.0167  1.7491 -0.0497
  453MOL0     H61101   5.138   1.000   0.474 -0.6879  1.6795  0.0717
  453MOL0     H61102   5.261   0.867   0.635 -1.0046  1.1514 -0.1002
  453MOL0     H61103   5.119   0.875   0.744 -0.8133  0.9249  0.5417
  453MOL0     H61104   5.000   0.742   0.554 -0.0628  1.4654  1.9399
  453MOL0     H61105   5.145   0.658   0.625  0.2305 -0.4235  0.9521
  453MOL0     H61106   5.364   0.848   0.432 -0.2062 -0.3900  0.1376
  453MOL0     H61107   5.473   0.762   0.133 -0.1411 -1.3985  3.0128
  453MOL0     H61108   5.320   0.812   0.050 -2.0374  0.7120  0.9168
  453MOL0     H61109   5.469   0.960   0.272  1.4198  0.0785 -0.3650
  453MOL0     H61110   5.339   1.031   0.178 -0.9776 -0.0668 -0.9637
  453MOL0     H61111   5.582   0.920   0.040 -1.5970 -0.4271 -1.1306
  453MOL0     H61112   5.586   1.067   0.127  0.0601 -1.3863  0.8611
  453MOL0     H61113   5.378   1.022  -0.102  0.7843 -2.3294 -0.1723
  453MOL0     H61114   5.532   1.081  -0.141  1.4217  1.1134  2.1653
  453MOL0     H61115   5.395   1.422   0.084  0.2070  1.8986  0.4070
  453MOL0     H61116   5.419   1.636   0.114 -0.7753  2.2735 -1.4382
  453MOL0     H61117   5.553   1.674   0.223 -3.2015  1.0661  1.3207
  453MOL0     H61118   5.571   1.715   0.052 -1.3629 -0.9950 -0.1989
  453MOL0     H61119   6.030   1.829   0.145 -0.1075  0.1752 -0.2739
  453MOL0     H61120   6.238   1.942   0.129  2.2873 -0.2212  0.4998
  453MOL0     H61121   6.536   1.730   0.149  0.4828  0.1147 -1.2338
  453MOL0     H61122   6.582   1.699  -0.019 -1.0147 -0.2575 -0.2223
  453MOL0     H61123   6.706   1.919  -0.025  2.8728 -1.5100 -0.8921
  453MOL0     H61124   6.660   1.946   0.149 -1.6624  0.6262 -1.0053
  453MOL0     H61125   6.821   1.743   0.020  1.7291  3.0420 -1.6789
  453MOL0     H61126   6.797   1.749   0.204 -0.7472  0.7834  0.9645
  453MOL0     H61127   6.948   1.987   0.063  1.0815  0.0148  0.2828
  453MOL0     H61128   6.913   1.957   0.226 -0.9010 -1.5803  0.1774
  453MOL0     H61129   7.131   1.887   0.151 -1.7784  1.1466  1.4169
  453MOL0     H61130   7.068   1.787   0.019 -2.1161  0.9832 -0.4937
  453MOL0     H61131   6.987   1.633   0.191  0.6602 -0.3520 -2.6691
  453MOL0     H61132   7.157   1.634   0.199  2.0782  2.2644 -0.5794
  453MOL0     H61133   6.996   1.816   0.390  0.0714  1.4497 -1.1585
  453MOL0     H61134   7.170   1.760   0.394  0.3702 -3.3005  1.8302
  453MOL0     H61135   6.938   1.575   0.424  2.0671 -0.6272 -3.6549
  453MOL0     H61136   7.008   1.655   0.567  1.5213  2.6619  0.0136
  453MOL0     H61137   6.389   1.629  -0.109  1.7546  4.0582 -0.0420
  453MOL0     H61138   6.187   1.498  -0.094  1.3601 -0.8171  0.2852
  453MOL0     H61139   5.866   1.367  -0.046 -0.9722 -1.4037 -1.8042
  453MOL0     H61140   5.708   1.173  -0.069 -0.3480  0.6801 -5.0009
  453MOL0     H61141   5.327   1.739   0.696  0.2467 -0.2513 -0.1915
  453MOL0     H61142   5.304   1.976   0.735  1.7741  2.5299 -0.4339
  453MOL0     H61143   5.093   2.401   0.620 -1.5067  1.3893 -0.0654
  453MOL0     H61144   5.081   2.604   0.741  1.3953  1.3798  0.6386
  453MOL0     H61145   5.413   2.736   1.025  1.7626  1.2279 -0.4890
  453MOL0     H61146   5.456   2.808   0.864  0.7887  1.3832  1.1978
  453MOL0     H61147   5.408   2.980   1.036 -0.9097 -1.7279  1.1939
  453MOL0     H61148   5.254   2.912   1.061  2.3966 -3.7251  1.5764
  453MOL0     H61149   5.195   3.008   0.838 -0.7832  2.8998  1.6663
  453MOL0     H61150   5.372   3.011   0.790 -0.9217 -0.3139 -1.7108
  453MOL0     H61151   5.402   3.188   0.969  1.7822  2.8304 -2.6119
  453MOL0     H61152   5.232   3.213   0.979  0.1092 -0.2938  1.1581
  453MOL0     H61153   5.333   3.434   0.634 -0.0630  2.8788  1.9176
  453MOL0     H61154   5.486   2.570   0.867 -0.4500  3.2516 -1.8331
  453MOL0     H61155   5.513   2.361   0.756  0.0950 -2.7140 -0.5429
  454MOL0     O61156   1.390   7.394   0.571  0.0953 -0.0498 -0.4538
  454MOL0     C61157   1.317   7.423   0.669 -0.3278  0.7981  0.1200
  454MOL0     O61158   1.353   7.457   0.791  0.6863  0.0412 -0.0333
  454MOL0     C61159   1.480   7.446   0.845  0.2527 -0.4561  0.8959
  454MOL0     C61160   1.507   7.502   0.971 -0.5655 -0.9722 -0.3913
  454MOL0     C61161   1.623   7.475   1.039 -0.4024  0.0963 -0.1924
  454MOL0     C61162   1.729   7.403   0.979  0.1135 -0.7140  0.8857
  454MOL0     O61163   1.847   7.386   1.043 -0.1000  0.1839  0.6379
  454MOL0     C61164   1.954   7.314   0.984  0.7983 -0.7495  0.5436
  454MOL0     C61165   2.089   7.374   1.037  0.3344  0.8639 -0.1252
  454MOL0     C61166   2.106   7.352   1.190 -0.1002 -0.0185 -0.3952
  454MOL0     C61167   2.257   7.358   1.229  0.8882 -0.7089  0.5586
  454MOL0     C61168   2.258   7.278   1.364 -0.1146 -0.1834  0.4764
  454MOL0     C61169   2.406   7.257   1.395  0.2599  0.9089 -0.3269
  454MOL0     C61170   2.451   7.127   1.332  0.3985  0.5301  0.0164
  454MOL0     C61171   2.592   7.084   1.362 -0.2819 -0.3680  0.1940
  454MOL0     N61172   2.615   7.106   1.502  0.4397  0.0539 -0.8729
  454MOL0     C61173   2.542   7.044   1.607 -0.0491  0.8224  0.0366
  454MOL0     C61174   2.595   7.110   1.716  0.9782 -0.1485  0.9063
  454MOL0     C61175   2.560   7.092   1.852 -0.3134 -0.1141 -0.4442
  454MOL0     C61176   2.484   7.208   1.928  0.3291  0.2564  0.4359
  454MOL0     C61177   2.341   7.148   1.959 -0.9270  0.7777  0.3752
  454MOL0     C61178   2.240   7.174   1.839  0.6062  0.1136 -0.2058
  454MOL0     O61179   2.259   7.078   1.734  0.3838 -0.5219  0.1093
  454MOL0     C61180   2.152   6.997   1.707  0.7417 -0.6304 -0.0114
  454MOL0     C61181   2.038   7.047   1.633 -0.4324  0.2801  1.0959
  454MOL0     C61182   1.934   6.949   1.605  0.3984 -0.0259 -0.1232
  454MOL0     C61183   1.835   6.985   1.509  0.0562  0.0527  0.5727
  454MOL0     C61184   1.945   6.819   1.667 -0.1070 -0.8091  0.0408
  454MOL0     C61185   1.851   6.713   1.623 -0.4815  0.3162 -0.4369
  454MOL0     O61186   1.751   6.674   1.711 -0.0362  0.3986  0.5409
  454MOL0     C61187   1.661   6.585   1.669  0.7927  0.0362 -0.0037
  454MOL0     C61188   1.578   6.592   1.558 -0.2417 -0.0922  0.0383
  454MOL0     C61189   1.493   6.488   1.508  0.2035  0.0498 -0.4051
  454MOL0     C61190   1.499   6.372   1.582  0.7412  0.8082 -0.7644
  454MOL0     O61191   1.426   6.265   1.543  0.2699  0.3885  0.2211
  454MOL0     C61192   1.376   6.252   1.401 -0.1970  0.4012  0.0885
  454MOL0     C61193   1.345   6.101   1.379  0.1893 -0.2431  0.4078
  454MOL0     C61194   1.289   6.079   1.237 -0.1502  0.3911  1.1959
  454MOL0     C61195   1.210   5.952   1.210  0.4262  1.3498 -0.4885
  454MOL0     C61196   1.144   5.961   1.066  0.2541 -0.4383  0.3852
  454MOL0     C61197   1.070   5.835   1.029  0.3078  0.7974  1.1595
  454MOL0     C61198   0.924   5.845   1.044  0.2649  0.0515  0.3943
  454MOL0     C61199   0.845   5.714   1.010 -0.4379  0.1817  1.2828
  454MOL0    Cl61200   0.837   5.599   1.149 -0.2459 -0.6821  0.2378
  454MOL0     C61201   1.577   6.364   1.693  0.8781  0.9898  0.1552
  454MOL0     C61202   1.649   6.474   1.742 -0.5060 -0.9510 -0.1696
  454MOL0     O61203   1.871   6.662   1.512 -0.0427  0.8794  0.3359
  454MOL0     C61204   2.048   6.789   1.760 -0.1465 -0.7453  0.8030
  454MOL0     C61205   2.151   6.880   1.775 -0.1834 -0.7339  0.3349
  454MOL0     N61206   2.693   7.200   1.677 -0.4699  0.0031  0.5450
  454MOL0     N61207   2.691   7.206   1.551  0.7168  0.6246  0.2754
  454MOL0     C61208   1.712   7.359   0.848 -0.3690 -0.4162  0.3203
  454MOL0     C61209   1.590   7.379   0.787 -0.5847  0.8430  0.6232
  454MOL0     C61210   1.171   7.418   0.646  0.2315 -0.1789 -0.1899
  454MOL0     C61211   1.083   7.445   0.759 -0.9844  0.3324 -0.5182
  454MOL0     C61212   0.951   7.436   0.738 -0.4039  0.3156 -0.3422
  454MOL0     C61213   0.889   7.398   0.623  1.6971 -0.1443  0.6835
  454MOL0     O61214   0.750   7.420   0.614 -0.6004 -1.2072  0.0119
  454MOL0     C61215   0.689   7.461   0.491 -0.4500  0.6108 -0.7761
  454MOL0     C61216   0.575   7.551   0.527  0.9377  0.1767 -0.8135
  454MOL0     C61217   0.478   7.600   0.417 -0.4875 -1.1136  0.4106
  454MOL0     C61218   0.415   7.482   0.355  0.7141 -0.6834  0.4411
  454MOL0     C61219   0.291   7.510   0.280 -0.4301  0.1276  0.2503
  454MOL0     C61220   0.192   7.522   0.209 -0.1503  0.4020 -0.4287
  454MOL0     C61221   0.966   7.365   0.507  0.4480  0.3627  0.2088
  454MOL0     C61222   1.110   7.375   0.521 -0.1140 -0.6533  0.8984
  454MOL0     H61223   1.431   7.569   1.009  0.7812  0.2964  0.1501
  454MOL0     H61224   1.651   7.523   1.133  0.5375 -0.6754 -0.0642
  454MOL0     H61225   1.945   7.212   1.022  2.9268 -1.3631 -0.4065
  454MOL0     H61226   1.963   7.329   0.876  2.2317 -1.5457  0.5231
  454MOL0     H61227   2.172   7.341   0.975 -0.0066  0.9085 -0.6117
  454MOL0     H61228   2.083   7.482   1.022  0.9835  0.6665 -2.1015
  454MOL0     H61229   2.046   7.429   1.240 -0.0802  1.7196 -2.8658
  454MOL0     H61230   2.059   7.254   1.203  0.0756 -0.0955 -0.3424
  454MOL0     H61231   2.328   7.320   1.156 -0.3129 -1.7996 -0.0821
  454MOL0     H61232   2.290   7.462   1.239  1.8151 -0.7878 -1.2520
  454MOL0     H61233   2.198   7.330   1.440 -0.5158  0.6342 -0.3749
  454MOL0     H61234   2.221   7.176   1.354  0.4221 -0.2184 -1.5638
  454MOL0     H61235   2.459   7.349   1.365  1.6486  0.1274 -0.3562
  454MOL0     H61236   2.398   7.270   1.503  1.5622 -0.6162 -0.0073
  454MOL0     H61237   2.389   7.051   1.380  0.9109 -1.7687 -2.6823
  454MOL0     H61238   2.435   7.124   1.223 -0.2696 -1.0684  0.1362
  454MOL0     H61239   2.669   7.135   1.303  1.2476 -2.5898  0.1314
  454MOL0     H61240   2.603   6.980   1.331 -0.3448 -0.1328 -0.6592
  454MOL0     H61241   2.469   6.964   1.597 -0.6008  1.3222  0.0001
  454MOL0     H61242   2.496   7.003   1.850 -0.9583  0.2632  1.3600
  454MOL0     H61243   2.653   7.074   1.905 -0.4547 -1.5326 -0.6535
  454MOL0     H61244   2.468   7.297   1.867 -0.8444 -1.8946 -2.6261
  454MOL0     H61245   2.531   7.232   2.024 -1.0238 -3.6092  2.2786
  454MOL0     H61246   2.296   7.215   2.032  0.0171 -1.3364  3.0886
  454MOL0     H61247   2.348   7.044   1.994 -0.1595  0.7230  0.0798
  454MOL0     H61248   2.242   7.275   1.798  0.5866 -0.3306 -1.3446
  454MOL0     H61249   2.147   7.167   1.895  1.0115 -1.2187  0.3464
  454MOL0     H61250   2.040   7.137   1.573 -2.0826  0.3131  1.0388
  454MOL0     H61251   1.738   6.994   1.559 -1.0209 -1.2725 -1.1653
  454MOL0     H61252   1.858   7.080   1.461 -2.6853  0.0939 -0.8962
  454MOL0     H61253   1.825   6.905   1.435 -0.4666  0.6040  0.0377
  454MOL0     H61254   1.590   6.683   1.499 -2.1136  0.2228  0.0985
  454MOL0     H61255   1.435   6.501   1.418  1.1264 -0.8567 -1.1459
  454MOL0     H61256   1.280   6.301   1.382  0.2542  1.4970  0.5238
  454MOL0     H61257   1.451   6.287   1.330  0.7639 -2.3258 -0.3631
  454MOL0     H61258   1.443   6.052   1.383  1.1547  1.5472 -0.3232
  454MOL0     H61259   1.291   6.060   1.465  2.8013  0.3620  2.4977
  454MOL0     H61260   1.364   6.091   1.158  0.9645  0.1524  2.1947
  454MOL0     H61261   1.219   6.161   1.215  0.8916  0.8625 -0.5458
  454MOL0     H61262   1.285   5.872   1.211 -0.8469  0.0869  1.3781
  454MOL0     H61263   1.132   5.940   1.286 -0.5492 -1.3305 -1.7575
  454MOL0     H61264   1.219   5.983   0.989 -0.2500 -0.7840 -0.2076
  454MOL0     H61265   1.067   6.038   1.064  2.2666  1.8876  3.0171
  454MOL0     H61266   1.092   5.810   0.925 -2.5805 -3.8389  1.3510
  454MOL0     H61267   1.116   5.751   1.084  1.9788  0.5428 -0.5096
  454MOL0     H61268   0.891   5.920   0.971 -0.4634  0.1390  0.8041
  454MOL0     H61269   0.902   5.886   1.143  1.4988  2.6235 -0.2938
  454MOL0     H61270   0.874   5.670   0.914 -1.3285  0.1099  1.0354
  454MOL0     H61271   0.738   5.736   1.000 -0.5684 -0.4573  1.1895
  454MOL0     H61272   1.580   6.273   1.753 -1.5737  0.0274 -1.0387
  454MOL0     H61273   1.702   6.481   1.836  0.3247  1.8215 -0.7556
  454MOL0     H61274   2.047   6.694   1.813  0.7140 -1.3617 -0.2407
  454MOL0     H61275   2.232   6.834   1.831  0.7759 -2.2622 -2.1819
  454MOL0     H61276   1.776   7.302   0.781 -2.1261 -0.0679 -1.7945
  454MOL0     H61277   1.588   7.331   0.690 -1.0141  1.4444  0.3339
  454MOL0     H61278   1.112   7.447   0.863 -2.6946 -1.4388  0.0566
  454MOL0     H61279   0.884   7.462   0.819 -0.1770  1.2805 -0.4543
  454MOL0     H61280   0.751   7.527   0.430  1.8667 -0.0050  0.7639
  454MOL0     H61281   0.667   7.368   0.439  2.5473  1.3548 -3.7035
  454MOL0     H61282   0.617   7.637   0.580 -0.7968  1.1185 -0.8875
  454MOL0     H61283   0.523   7.501   0.610  0.5172 -0.5233 -1.4862
  454MOL0     H61284   0.535   7.651   0.340  0.7522 -2.6974  0.2366
  454MOL0     H61285   0.396   7.666   0.449  0.3979 -0.5588  1.6034
  454MOL0     H61286   0.389   7.420   0.442 -0.9303  2.1192  2.1143
  454MOL0     H61287   0.486   7.434   0.288 -0.0257  0.5837 -1.3383
  454MOL0     H61288   0.105   7.531   0.146 -1.9471  2.3827  2.1049
  454MOL0     H61289   0.926   7.336   0.411 -1.4269  4.5778 -0.5062
  454MOL0     H61290   1.163   7.358   0.428 -0.3481  0.7386  0.4981
  455MOL0     O61291   6.612   1.356   4.404 -0.8885 -0.6494  0.5926
  455MOL0     C61292   6.627   1.416   4.508 -0.8130 -0.0672 -0.1749
  455MOL0     O61293   6.539   1.407   4.617  0.2130  0.0717  0.1484
  455MOL0     C61294   6.419   1.335   4.617  0.2274 -0.3265 -0.1489
  455MOL0     C61295   6.385   1.235   4.528  0.0927  0.7762 -0.7236
  455MOL0     C61296   6.259   1.175   4.527  1.2745 -0.8755  0.3613
  455MOL0     C61297   6.152   1.213   4.609 -0.8901 -0.9924 -0.2986
  455MOL0     O61298   6.030   1.161   4.620 -0.6024 -0.6258  0.0699
  455MOL0     C61299   6.027   1.021   4.632 -0.0317 -0.8102  0.1042
  455MOL0     C61300   6.101   0.975   4.758 -0.3838  0.3880  0.6171
  455MOL0     C61301   6.077   0.822   4.797 -0.2253 -0.2074  0.4766
  455MOL0     C61302   6.115   0.770   4.940  0.3573 -0.7431 -0.0121
  455MOL0     C61303   6.100   0.616   4.949 -0.1345  0.2085  0.5254
  455MOL0     C61304   5.962   0.561   4.928  0.0869  0.0578  0.1015
  455MOL0     C61305   5.958   0.407   4.935  0.8507  0.4638 -0.2746
  455MOL0     C61306   5.922   0.363   5.081 -0.1750 -0.4901 -0.5845
  455MOL0     N61307   5.787   0.396   5.123  0.1659 -0.0371 -0.6455
  455MOL0     C61308   5.681   0.314   5.082 -0.9686  0.0194  0.2435
  455MOL0     C61309   5.568   0.375   5.135 -0.3393 -0.0009 -0.3048
  455MOL0     C61310   5.429   0.320   5.110  0.2010  0.3005  0.3242
  455MOL0     C61311   5.340   0.414   5.016 -0.6012  0.8952  0.0475
  455MOL0     C61312   5.409   0.417   4.887  0.2297 -0.1690  0.6447
  455MOL0     C61313   5.313   0.475   4.784 -0.0522  0.2245 -0.2621
  455MOL0     O61314   5.254   0.596   4.832  0.8453 -0.3332  1.1439
  455MOL0     C61315   5.184   0.680   4.743 -0.8633 -0.0640 -0.2793
  455MOL0     C61316   5.123   0.791   4.796  0.0859  1.6487 -0.6252
  455MOL0     C61317   5.053   0.871   4.719  1.3301  0.1465 -0.7287
  455MOL0     C61318   5.010   1.004   4.799 -0.7680  0.7285 -1.0726
  455MOL0     C61319   5.030   0.848   4.583  1.3952  0.1023  0.2973
  455MOL0     C61320   4.946   0.933   4.497 -0.1207 -0.0248  0.5879
  455MOL0     O61321   4.883   0.866   4.393 -0.3162  0.9295 -0.0606
  455MOL0     C61322   4.809   0.941   4.319  0.1912 -1.3915  0.9199
  455MOL0     C61323   4.857   1.006   4.199 -0.1861  0.8962  1.2295
  455MOL0     C61324   4.779   1.095   4.125 -0.0680  0.6241  0.5670
  455MOL0     C61325   4.648   1.115   4.162  0.6607  0.2089 -0.4629
  455MOL0     O61326   4.567   1.207   4.107 -0.3892  0.0959  1.0249
  455MOL0     C61327   4.629   1.306   4.015  0.5562  0.4936 -0.9001
  455MOL0     C61328   4.534   1.428   4.026  0.4936  0.1640  0.0101
  455MOL0     C61329   4.628   1.549   4.011  0.0257  0.3142 -0.3001
  455MOL0     C61330   4.534   1.675   4.013  0.5732 -0.3692 -0.3988
  455MOL0     C61331   4.616   1.814   4.013 -0.4877 -0.5969  0.5687
  455MOL0     C61332   4.711   1.822   3.897  0.4940  0.8374  1.0806
  455MOL0     C61333   4.785   1.957   3.904  0.0936  1.2281  0.5847
  455MOL0     C61334   4.896   1.966   3.798  0.1758  0.3158 -1.0871
  455MOL0    Cl61335   5.048   1.910   3.865  0.3278 -0.3328 -0.0110
  455MOL0     C61336   4.598   1.053   4.281 -0.2532 -0.8621 -0.0691
  455MOL0     C61337   4.680   0.967   4.354  0.5831 -0.2693  0.7871
  455MOL0     O61338   4.933   1.050   4.514  0.0129 -0.6804  0.0968
  455MOL0     C61339   5.084   0.727   4.530  0.0695 -0.1959  0.1564
  455MOL0     C61340   5.164   0.637   4.612 -0.1758 -0.6366  0.2449
  455MOL0     N61341   5.615   0.480   5.214  0.3250  1.4753 -0.0767
  455MOL0     N61342   5.744   0.499   5.202  0.1412  0.7737 -0.2086
  455MOL0     C61343   6.186   1.308   4.706  0.3731  0.1866  0.5571
  455MOL0     C61344   6.313   1.372   4.705 -0.9616  0.0250  0.7157
  455MOL0     C61345   6.753   1.483   4.526 -0.1889 -0.2745 -0.0021
  455MOL0     C61346   6.764   1.583   4.615  0.3356  0.5229 -1.1193
  455MOL0     C61347   6.890   1.644   4.639  0.3814 -0.4792 -0.6572
  455MOL0     C61348   6.998   1.614   4.558  0.2292 -0.4069 -0.1360
  455MOL0     O61349   7.089   1.715   4.564 -0.8985  0.5029 -0.1048
  455MOL0     C61350   7.186   1.738   4.466 -0.8708  0.4585 -0.3453
  455MOL0     C61351   7.323   1.725   4.530 -1.0210 -0.7842 -1.0693
  455MOL0     C61352   7.444   1.762   4.451  0.6372 -0.2422  0.3148
  455MOL0     C61353   7.439   1.907   4.431 -0.4726 -0.2847  0.4310
  455MOL0     C61354   7.566   1.952   4.378 -0.2929 -0.3109  0.1129
  455MOL0     C61355   7.664   1.978   4.309 -0.7269 -0.4455 -0.2409
  455MOL0     C61356   6.985   1.515   4.467 -0.0833 -0.6149 -0.1322
  455MOL0     C61357   6.866   1.450   4.453 -0.5431 -0.5194  0.2232
  455MOL0     H61358   6.467   1.201   4.465 -0.0956  0.8218 -0.9981
  455MOL0     H61359   6.222   1.105   4.452  1.7229 -0.2787 -0.4254
  455MOL0     H61360   5.921   0.997   4.644  0.3072 -2.7603 -0.3943
  455MOL0     H61361   6.054   0.970   4.538 -0.5021 -0.8756  0.0036
  455MOL0     H61362   6.206   0.993   4.737 -1.1785  1.1436 -3.7026
  455MOL0     H61363   6.064   1.040   4.838  0.9615  0.3544  1.2886
  455MOL0     H61364   5.975   0.797   4.768  0.4713 -0.2717 -2.2876
  455MOL0     H61365   6.148   0.774   4.728 -3.1657  0.7553 -3.5860
  455MOL0     H61366   6.215   0.808   4.963 -1.7895  4.2634  2.7526
  455MOL0     H61367   6.049   0.811   5.017 -1.4520  0.9273 -2.2810
  455MOL0     H61368   6.166   0.559   4.883 -1.3208 -0.9871  0.3104
  455MOL0     H61369   6.123   0.586   5.052  3.2882 -1.0540 -0.4835
  455MOL0     H61370   5.880   0.600   4.990 -1.9426 -0.5787 -2.0619
  455MOL0     H61371   5.921   0.589   4.831  0.8521 -0.0390 -0.2595
  455MOL0     H61372   5.880   0.366   4.871  0.7715 -1.4606  0.9665
  455MOL0     H61373   6.054   0.375   4.893  3.0589  2.8716  2.5358
  455MOL0     H61374   5.995   0.400   5.155 -1.7946  2.3884 -0.2676
  455MOL0     H61375   5.929   0.254   5.088 -1.0993 -0.6076 -1.2934
  455MOL0     H61376   5.690   0.237   5.006  0.1214  0.2522  0.1123
  455MOL0     H61377   5.441   0.219   5.069  3.5346  0.6404  0.2238
  455MOL0     H61378   5.380   0.328   5.208  0.7180  3.7805  0.4117
  455MOL0     H61379   5.346   0.516   5.055  0.1222  0.7703  0.2715
  455MOL0     H61380   5.234   0.388   5.017 -0.8911  1.8972 -1.7039
  455MOL0     H61381   5.419   0.313   4.853 -0.6433  0.3454 -1.3325
  455MOL0     H61382   5.498   0.479   4.895  1.8803 -2.0840 -1.4915
  455MOL0     H61383   5.224   0.412   4.783 -1.0472  1.5802  0.1134
  455MOL0     H61384   5.367   0.494   4.691 -1.3200 -0.3738 -1.1526
  455MOL0     H61385   5.159   0.821   4.893  0.7783  1.0088 -0.6732
  455MOL0     H61386   4.918   1.054   4.769  0.4616  3.2773 -0.8061
  455MOL0     H61387   4.988   0.968   4.900 -0.2623 -1.8367 -1.7859
  455MOL0     H61388   5.097   1.069   4.811 -0.3245  0.0385 -0.3634
  455MOL0     H61389   4.951   0.971   4.156 -1.6727 -2.8444  0.6045
  455MOL0     H61390   4.818   1.127   4.029  0.2356  1.1356  0.8516
  455MOL0     H61391   4.733   1.332   4.037 -0.6472  2.3026  4.1084
  455MOL0     H61392   4.639   1.275   3.911 -1.3616  2.9737 -1.9194
  455MOL0     H61393   4.465   1.427   3.941  0.3157  0.5996  0.1426
  455MOL0     H61394   4.482   1.434   4.122  0.5925 -1.9386  0.2263
  455MOL0     H61395   4.684   1.538   3.918  1.0536 -0.9671  0.4319
  455MOL0     H61396   4.700   1.553   4.093 -1.8079  5.5015  1.4567
  455MOL0     H61397   4.479   1.671   3.919  0.9371 -2.2489 -0.5659
  455MOL0     H61398   4.471   1.665   4.103  1.0182 -0.1370 -0.0561
  455MOL0     H61399   4.677   1.826   4.103  0.9492  3.2982 -0.6962
  455MOL0     H61400   4.548   1.899   4.007  0.2956 -0.0525 -2.5413
  455MOL0     H61401   4.788   1.745   3.906 -0.0389  0.1216 -0.2042
  455MOL0     H61402   4.664   1.802   3.799 -0.8446  0.6014  1.7401
  455MOL0     H61403   4.826   1.981   4.003  1.8479 -1.3745  0.5965
  455MOL0     H61404   4.715   2.036   3.875  0.1436  0.9297 -0.3688
  455MOL0     H61405   4.913   2.069   3.766  0.6214  0.2480 -1.0749
  455MOL0     H61406   4.861   1.912   3.710  3.3816 -0.0064 -2.3249
  455MOL0     H61407   4.492   1.064   4.300  0.1922  0.8709  1.6641
  455MOL0     H61408   4.637   0.917   4.440  1.0660 -3.5483 -0.7389
  455MOL0     H61409   5.075   0.694   4.427  2.4821 -3.0614  0.7394
  455MOL0     H61410   5.196   0.541   4.572  0.4800 -2.8032  5.2349
  455MOL0     H61411   6.113   1.356   4.771  0.8408 -1.7414  2.6561
  455MOL0     H61412   6.333   1.457   4.768 -0.0388  0.2793  0.1000
  455MOL0     H61413   6.675   1.624   4.661  2.1142  3.0967  0.2907
  455MOL0     H61414   6.901   1.737   4.694  1.8089  0.1885 -1.9940
  455MOL0     H61415   7.170   1.657   4.394 -4.2278 -0.8985  1.6684
  455MOL0     H61416   7.155   1.835   4.427 -2.9710 -0.2027 -0.4458
  455MOL0     H61417   7.332   1.625   4.573 -3.2107 -1.1270 -1.3226
  455MOL0     H61418   7.307   1.788   4.618  0.1648  0.0498 -1.4286
  455MOL0     H61419   7.438   1.704   4.358  0.9325 -0.7976  0.6315
  455MOL0     H61420   7.526   1.735   4.518 -2.7904  0.2339  5.2539
  455MOL0     H61421   7.420   1.964   4.523 -1.6258  2.8800 -1.6098
  455MOL0     H61422   7.367   1.947   4.360  2.2964  4.0786 -0.3534
  455MOL0     H61423   7.752   2.022   4.265 -1.6943 -0.3299 -2.1187
  455MOL0     H61424   7.071   1.483   4.408  1.1642  1.9967  0.0877
  455MOL0     H61425   6.850   1.378   4.373 -0.0876  1.1609 -1.4315
  456MOL0     O61426   0.570   3.955   5.126 -0.5577  0.0110  0.1264
  456MOL0     C61427   0.689   3.947   5.128 -0.2959  1.7876 -0.1851
  456MOL0     O61428   0.757   3.835   5.096 -0.1129  0.6562  0.2173
  456MOL0     C61429   0.714   3.713   5.044 -0.4692  0.3450 -0.1106
  456MOL0     C61430   0.815   3.618   5.044 -0.1019  0.0176 -0.7026
  456MOL0     C61431   0.788   3.488   4.995  0.0833 -0.3826 -0.9470
  456MOL0     C61432   0.660   3.461   4.942  0.1352  0.7784  0.0038
  456MOL0     O61433   0.627   3.338   4.873 -0.7803 -1.3227  0.6602
  456MOL0     C61434   0.709   3.228   4.896  0.3425 -0.3427  0.3874
  456MOL0     C61435   0.663   3.103   4.814 -0.2864 -0.6231 -0.1833
  456MOL0     C61436   0.727   2.981   4.885 -0.0281  0.3607  0.2991
  456MOL0     C61437   0.700   2.857   4.807  0.7418 -0.9369  0.3103
  456MOL0     C61438   0.553   2.821   4.824  0.6974  0.4759  0.0650
  456MOL0     C61439   0.518   2.674   4.772 -0.3085 -0.2042 -0.3646
  456MOL0     C61440   0.425   2.587   4.862 -0.0551 -0.0243  0.1320
  456MOL0     C61441   0.280   2.618   4.888  0.0972  0.1875  0.5625
  456MOL0     N61442   0.226   2.549   5.007  0.8117 -0.8476 -0.4236
  456MOL0     C61443   0.165   2.616   5.114 -0.4543 -0.0098  0.6850
  456MOL0     C61444   0.100   2.516   5.171  0.1896  0.2605 -0.4033
  456MOL0     C61445  -0.004   2.539   5.288 -0.0090  0.0764  0.1413
  456MOL0     C61446  -0.002   2.420   5.390  0.1027 -0.2576  0.0776
  456MOL0     C61447  -0.083   2.295   5.348  0.1867 -0.0578  0.0456
  456MOL0     C61448  -0.075   2.189   5.452 -0.4204  0.4803  0.1081
  456MOL0     O61449  -0.166   2.081   5.399 -0.0165  0.3556  0.4736
  456MOL0     C61450  -0.255   2.030   5.492 -0.5736  0.0603  0.9742
  456MOL0     C61451  -0.388   2.004   5.462 -0.0612 -0.3209  0.1828
  456MOL0     C61452  -0.480   1.945   5.546  0.4943 -0.0329 -0.6348
  456MOL0     C61453  -0.626   1.905   5.489  0.6461  0.5848 -1.2698
  456MOL0     C61454  -0.439   1.898   5.679  0.0474  0.3781 -1.0288
  456MOL0     C61455  -0.521   1.817   5.774  0.2039  0.0579  0.1635
  456MOL0     O61456  -0.474   1.793   5.905 -0.8967  0.0790  0.0347
  456MOL0     C61457  -0.544   1.700   5.987 -0.8483 -0.1385 -1.3030
  456MOL0     C61458  -0.644   1.728   6.077  0.9638 -0.1611 -1.0810
  456MOL0     C61459  -0.700   1.621   6.151  0.1956 -0.3309 -1.0224
  456MOL0     C61460  -0.660   1.488   6.130  0.1387  0.8281  0.4998
  456MOL0     O61461  -0.736   1.395   6.190  0.1743 -0.5440  0.3562
  456MOL0     C61462  -0.690   1.263   6.197  0.8384 -0.2861 -0.5840
  456MOL0     C61463  -0.756   1.168   6.300  1.6792 -0.2543  0.9691
  456MOL0     C61464  -0.908   1.170   6.299  0.3058  0.1890  0.1901
  456MOL0     C61465  -0.975   1.091   6.178  0.1164 -0.1829 -0.2859
  456MOL0     C61466  -1.025   0.948   6.207 -0.0062 -0.3694 -0.5593
  456MOL0     C61467  -1.149   0.941   6.288  0.1635  0.2838 -1.3900
  456MOL0     C61468  -1.173   0.783   6.300 -0.3266 -0.2953 -1.2744
  456MOL0     C61469  -1.253   0.764   6.420  0.4586  0.6084  0.0292
  456MOL0    Cl61470  -1.238   0.597   6.477  0.2845 -0.6857 -0.0036
  456MOL0     C61471  -0.551   1.461   6.050 -0.1667 -0.0392  0.1390
  456MOL0     C61472  -0.499   1.566   5.973  0.2152  0.3701  0.8041
  456MOL0     O61473  -0.628   1.775   5.732  0.4249 -0.7410  0.4690
  456MOL0     C61474  -0.305   1.926   5.713  0.3773 -0.6954  1.1121
  456MOL0     C61475  -0.211   1.984   5.622 -0.3164  0.1739 -0.4544
  456MOL0     N61476   0.113   2.394   5.098 -0.1663  0.3817 -0.0560
  456MOL0     N61477   0.206   2.411   5.011  0.1891 -0.5983  0.0327
  456MOL0     C61478   0.568   3.562   4.934  0.8537  0.4836 -0.4781
  456MOL0     C61479   0.586   3.682   5.005  0.2026  0.1666  0.0827
  456MOL0     C61480   0.770   4.055   5.170 -0.2166 -0.2453 -0.1581
  456MOL0     C61481   0.713   4.179   5.216 -0.1307  0.6175  0.1520
  456MOL0     C61482   0.794   4.271   5.279  0.2311  0.3313 -1.3678
  456MOL0     C61483   0.937   4.263   5.277  0.1086  0.7270 -0.0023
  456MOL0     O61484   1.006   4.370   5.314 -0.9739 -0.2796 -0.0107
  456MOL0     C61485   1.152   4.374   5.292 -0.2612  0.2037  0.8877
  456MOL0     C61486   1.197   4.519   5.327 -1.2011  0.4312 -0.4422
  456MOL0     C61487   1.219   4.544   5.476  1.3748  0.1388 -0.2022
  456MOL0     C61488   1.337   4.472   5.537  0.6966  0.2250 -0.0670
  456MOL0     C61489   1.345   4.528   5.676 -0.1977  0.1627 -0.9639
  456MOL0     C61490   1.379   4.590   5.782  0.1496 -0.4784 -0.1620
  456MOL0     C61491   0.994   4.151   5.213  0.6144 -0.0932 -0.6071
  456MOL0     C61492   0.911   4.045   5.169 -0.6418 -0.1262  0.6360
  456MOL0     H61493   0.916   3.640   5.079 -0.5427 -0.4350  0.9468
  456MOL0     H61494   0.862   3.408   4.991 -2.1265 -2.6618  0.7784
  456MOL0     H61495   0.811   3.245   4.859  0.3845  3.7397  1.9321
  456MOL0     H61496   0.717   3.216   5.004  2.3282  0.2544  0.3451
  456MOL0     H61497   0.553   3.108   4.813 -0.3719  5.6780  1.1741
  456MOL0     H61498   0.697   3.096   4.711 -1.3395 -1.9829 -0.4778
  456MOL0     H61499   0.832   3.004   4.905 -0.7013  0.3814  4.6888
  456MOL0     H61500   0.679   2.982   4.983 -3.0145 -1.2760 -1.0125
  456MOL0     H61501   0.733   2.857   4.703 -1.1616 -0.3846 -0.3315
  456MOL0     H61502   0.756   2.781   4.862  0.6262  0.2712  2.2052
  456MOL0     H61503   0.531   2.834   4.930  0.8669  0.3362  0.1184
  456MOL0     H61504   0.496   2.893   4.765  2.3072  1.4934 -0.3068
  456MOL0     H61505   0.496   2.680   4.665 -2.2146  2.9706  0.0979
  456MOL0     H61506   0.611   2.616   4.774 -1.0784 -1.5371 -1.4586
  456MOL0     H61507   0.422   2.484   4.826 -0.2420 -0.1579  0.5227
  456MOL0     H61508   0.480   2.573   4.956  2.0440 -1.4174 -1.2081
  456MOL0     H61509   0.213   2.592   4.806 -0.5318  1.2360  0.7359
  456MOL0     H61510   0.275   2.727   4.898  1.0313  0.3429 -0.4761
  456MOL0     H61511   0.181   2.718   5.147  2.1919 -0.0121 -0.3334
  456MOL0     H61512  -0.006   2.640   5.329 -1.3673  0.5231 -0.9367
  456MOL0     H61513  -0.101   2.528   5.238  0.5105  0.5820 -1.0004
  456MOL0     H61514  -0.050   2.461   5.479  2.8977  1.7376  0.7956
  456MOL0     H61515   0.101   2.392   5.411  1.2010  2.7856 -0.6945
  456MOL0     H61516  -0.044   2.250   5.256  1.9337 -1.7411  1.5146
  456MOL0     H61517  -0.191   2.312   5.343 -0.1203 -1.7413  0.3014
  456MOL0     H61518  -0.114   2.229   5.546 -1.7966 -1.0731  0.2501
  456MOL0     H61519   0.027   2.153   5.467 -0.3893  0.0551 -1.0129
  456MOL0     H61520  -0.416   2.037   5.362  0.9240 -0.0761 -0.0241
  456MOL0     H61521  -0.705   1.950   5.550  0.2771 -1.0533 -0.5072
  456MOL0     H61522  -0.634   1.945   5.387  0.6769  2.1856 -0.6714
  456MOL0     H61523  -0.637   1.797   5.483  3.9353 -0.0642  1.3366
  456MOL0     H61524  -0.667   1.829   6.108  1.2647 -1.2599  3.3282
  456MOL0     H61525  -0.780   1.652   6.218  0.4695  0.9151 -1.2336
  456MOL0     H61526  -0.702   1.227   6.095 -0.9022  2.7922 -1.6189
  456MOL0     H61527  -0.585   1.262   6.227  0.5859  0.0625  0.3479
  456MOL0     H61528  -0.726   1.063   6.293 -1.9759 -1.3466 -0.8792
  456MOL0     H61529  -0.735   1.216   6.396  2.0356  1.3801  0.1172
  456MOL0     H61530  -0.953   1.270   6.294 -2.8403 -1.0890  0.8897
  456MOL0     H61531  -0.947   1.125   6.391  2.3760 -2.1698  0.0114
  456MOL0     H61532  -1.059   1.148   6.138 -1.8406 -1.9928  1.0280
  456MOL0     H61533  -0.895   1.098   6.103 -1.8219 -1.1270 -2.5632
  456MOL0     H61534  -0.939   0.899   6.253 -1.9322 -3.0584  0.4532
  456MOL0     H61535  -1.048   0.905   6.109  0.3629  0.9527 -1.2562
  456MOL0     H61536  -1.121   0.989   6.382  0.2263 -0.8344 -0.8276
  456MOL0     H61537  -1.234   1.003   6.257 -0.4345  0.5424  0.6578
  456MOL0     H61538  -1.076   0.735   6.316  0.4359  1.1580 -1.3544
  456MOL0     H61539  -1.209   0.733   6.209  0.7327  2.2501 -3.2048
  456MOL0     H61540  -1.356   0.793   6.396  0.4157  1.9725  1.7130
  456MOL0     H61541  -1.218   0.822   6.506 -4.3123  0.6921  2.2184
  456MOL0     H61542  -0.518   1.359   6.036 -1.8540 -0.5219 -0.5606
  456MOL0     H61543  -0.421   1.540   5.902 -1.5938 -2.9984 -0.1665
  456MOL0     H61544  -0.274   1.889   5.810 -1.4970  0.6470  2.2669
  456MOL0     H61545  -0.110   1.978   5.660 -0.9280 -0.9947  1.1117
  456MOL0     H61546   0.467   3.535   4.904  1.1872 -0.7194 -0.5677
  456MOL0     H61547   0.503   3.752   5.001 -0.3982 -0.5050  0.6645
  456MOL0     H61548   0.616   4.219   5.189 -1.3036 -2.3635 -0.4118
  456MOL0     H61549   0.748   4.364   5.310 -2.0939 -0.9513 -0.7839
  456MOL0     H61550   1.193   4.295   5.356 -0.6937 -0.1419  0.7474
  456MOL0     H61551   1.176   4.373   5.186  0.6077 -1.1926  1.0674
  456MOL0     H61552   1.140   4.590   5.268 -2.1910 -0.8056 -1.0197
  456MOL0     H61553   1.304   4.525   5.302 -1.1842 -0.0231 -0.4852
  456MOL0     H61554   1.125   4.515   5.525  0.7381  1.0101 -0.8659
  456MOL0     H61555   1.230   4.653   5.485  0.8009  0.0746  2.0059
  456MOL0     H61556   1.441   4.491   5.507  1.6416  1.0831  3.2121
  456MOL0     H61557   1.308   4.368   5.548 -2.8530  1.1446  0.4663
  456MOL0     H61558   1.401   4.651   5.867 -2.0619  0.9893 -0.5535
  456MOL0     H61559   1.102   4.145   5.204  0.6355 -2.3787  0.4816
  456MOL0     H61560   0.969   3.962   5.131  1.6307  0.1539  3.1441
  457MOL0     O61561   0.379   4.724   5.956 -0.4072 -0.1672  0.2255
  457MOL0     C61562   0.477   4.796   5.992  0.0261  0.2606  0.1389
  457MOL0     O61563   0.477   4.930   5.989 -0.4309  0.1528  0.6585
  457MOL0     C61564   0.382   5.002   5.923 -0.3088 -0.0966 -0.1583
  457MOL0     C61565   0.433   5.104   5.842  0.3639 -0.3294  0.2607
  457MOL0     C61566   0.355   5.194   5.756 -1.2054  0.9691 -0.1386
  457MOL0     C61567   0.219   5.175   5.752 -0.5055 -0.6130  0.9182
  457MOL0     O61568   0.124   5.244   5.666 -0.5663  0.3250  0.7933
  457MOL0     C61569   0.144   5.253   5.523 -0.5755 -0.0563  0.1789
  457MOL0     C61570   0.090   5.125   5.438  0.5108 -0.4465 -0.6572
  457MOL0     C61571   0.175   5.087   5.327  0.5708  1.1017 -0.1384
  457MOL0     C61572   0.117   5.155   5.196  0.3548 -0.3455  0.5704
  457MOL0     C61573   0.206   5.129   5.074 -0.1890  0.2140 -0.5453
  457MOL0     C61574   0.137   5.155   4.934 -1.0722 -0.1878  0.7259
  457MOL0     C61575   0.013   5.070   4.906 -0.7623 -0.7783 -0.8636
  457MOL0     C61576  -0.038   5.091   4.762  0.4631  0.6931 -1.0066
  457MOL0     N61577   0.053   5.044   4.650 -0.3491 -0.7348 -0.3403
  457MOL0     C61578   0.139   4.935   4.669 -0.0058 -0.6052  0.0425
  457MOL0     C61579   0.227   4.945   4.562  0.0128  0.9111  0.2630
  457MOL0     C61580   0.344   4.858   4.546  0.0311  0.8410  0.1071
  457MOL0     C61581   0.432   4.851   4.671 -0.2190 -0.2711  0.1535
  457MOL0     C61582   0.431   4.707   4.741  0.2768  0.6231  0.7585
  457MOL0     C61583   0.517   4.593   4.686 -0.2152  0.3065  0.2196
  457MOL0     O61584   0.639   4.650   4.641  0.1212 -0.0703 -0.0895
  457MOL0     C61585   0.735   4.565   4.599 -0.5320  0.6939  0.0624
  457MOL0     C61586   0.852   4.627   4.551  0.3081 -0.6618  0.1655
  457MOL0     C61587   0.951   4.551   4.489 -0.7638 -0.4180  0.1781
  457MOL0     C61588   1.066   4.617   4.416 -0.5487 -0.4042 -0.2060
  457MOL0     C61589   0.940   4.409   4.478  0.5607 -0.1375 -0.6266
  457MOL0     C61590   1.032   4.312   4.411  0.5913  0.5198 -0.4990
  457MOL0     O61591   0.973   4.218   4.318 -0.0471  0.5629  0.6819
  457MOL0     C61592   1.046   4.121   4.255 -0.3107 -0.9723 -0.8078
  457MOL0     C61593   1.187   4.098   4.266  0.7433  0.2424  0.6510
  457MOL0     C61594   1.241   4.004   4.184 -0.2141  0.3494  0.5351
  457MOL0     C61595   1.166   3.920   4.092 -0.8185 -0.8139 -0.1557
  457MOL0     O61596   1.227   3.812   4.036 -0.1833  0.9640  0.6666
  457MOL0     C61597   1.162   3.760   3.918 -0.1396 -0.7960  0.2504
  457MOL0     C61598   1.160   3.881   3.806 -0.0168  0.8764 -0.0301
  457MOL0     C61599   1.121   3.836   3.660  0.1593  0.8909  0.5010
  457MOL0     C61600   1.238   3.848   3.548 -0.4278  0.7262  0.4700
  457MOL0     C61601   1.333   3.734   3.558  0.4411  0.3956 -0.2899
  457MOL0     C61602   1.465   3.746   3.476  0.9148  0.8533  0.2167
  457MOL0     C61603   1.577   3.820   3.558  0.6097  1.6123  0.4274
  457MOL0     C61604   1.719   3.795   3.507  0.4299  0.0403  0.2207
  457MOL0    Cl61605   1.766   3.623   3.542 -0.4687 -0.2091  0.5065
  457MOL0     C61606   1.028   3.941   4.086 -0.1664  0.3965 -0.0289
  457MOL0     C61607   0.973   4.045   4.163  0.2037 -0.2905 -0.8021
  457MOL0     O61608   1.150   4.328   4.434 -0.2928 -0.5852  0.4858
  457MOL0     C61609   0.828   4.351   4.530  0.3606 -0.4799 -0.4158
  457MOL0     C61610   0.724   4.423   4.599  0.6622  0.0659 -0.3744
  457MOL0     N61611   0.189   5.050   4.484  0.2001 -0.7696  0.0121
  457MOL0     N61612   0.085   5.112   4.531  0.2900  0.7890  0.2738
  457MOL0     C61613   0.163   5.069   5.832 -0.6944  0.0985 -0.3177
  457MOL0     C61614   0.248   4.979   5.906  0.2602 -0.2421 -0.2572
  457MOL0     C61615   0.582   4.724   6.074 -0.8138 -0.6898 -1.2710
  457MOL0     C61616   0.595   4.586   6.075  0.0959 -1.1868 -0.4381
  457MOL0     C61617   0.667   4.513   6.179  0.1493 -0.7776  0.0392
  457MOL0     C61618   0.746   4.585   6.263  0.6070  0.0954  0.0790
  457MOL0     O61619   0.816   4.506   6.346 -0.5941  0.0443 -1.1011
  457MOL0     C61620   0.876   4.557   6.469  0.0059  0.4992  0.5489
  457MOL0     C61621   0.788   4.538   6.596 -0.1209 -0.5791 -0.1633
  457MOL0     C61622   0.675   4.638   6.617  0.0246 -0.2875 -0.2793
  457MOL0     C61623   0.587   4.600   6.727  0.3263 -0.1760  1.0915
  457MOL0     C61624   0.630   4.642   6.862 -0.0509  0.3108  0.3085
  457MOL0     C61625   0.672   4.685   6.967 -0.1110 -0.0521 -0.0299
  457MOL0     C61626   0.760   4.723   6.238 -0.5515 -0.4330 -0.2592
  457MOL0     C61627   0.679   4.795   6.145 -0.3917 -0.7569  0.0362
  457MOL0     H61628   0.539   5.128   5.837  0.3237  0.0677  1.1617
  457MOL0     H61629   0.399   5.260   5.682 -1.8840  0.1757 -1.2779
  457MOL0     H61630   0.084   5.340   5.494  1.4000  1.0236 -0.8725
  457MOL0     H61631   0.250   5.276   5.510 -0.3384 -0.2097  1.7002
  457MOL0     H61632   0.088   5.040   5.508 -0.6983 -0.8313 -1.1308
  457MOL0     H61633  -0.018   5.129   5.423  0.4377  0.1967 -0.0396
  457MOL0     H61634   0.277   5.117   5.349  1.4004 -0.3065 -1.7668
  457MOL0     H61635   0.184   4.980   5.303  0.6433  1.3401 -1.2554
  457MOL0     H61636   0.022   5.103   5.181  2.2243 -3.7206 -0.7139
  457MOL0     H61637   0.092   5.261   5.209  3.8312  0.5117  1.1698
  457MOL0     H61638   0.295   5.192   5.077  1.1983 -1.6714 -0.4812
  457MOL0     H61639   0.252   5.030   5.081  0.9934  0.7154 -0.9718
  457MOL0     H61640   0.109   5.260   4.940 -0.3849 -0.0572  2.3392
  457MOL0     H61641   0.216   5.133   4.862  1.1235 -0.7824  3.1476
  457MOL0     H61642   0.035   4.964   4.921 -1.5992 -1.0973 -1.7874
  457MOL0     H61643  -0.063   5.096   4.980  1.2313 -0.9493  1.3588
  457MOL0     H61644  -0.041   5.199   4.743  3.2054  0.9594 -0.2615
  457MOL0     H61645  -0.137   5.044   4.761  0.0406  1.5380 -1.8142
  457MOL0     H61646   0.134   4.860   4.747  2.1843  1.2428  2.1152
  457MOL0     H61647   0.301   4.758   4.528 -0.6410  1.5803 -3.0293
  457MOL0     H61648   0.409   4.876   4.460 -2.2921 -2.2358 -2.5614
  457MOL0     H61649   0.405   4.926   4.746  2.8944  1.4329 -0.2232
  457MOL0     H61650   0.536   4.868   4.639  0.5049 -1.9412  1.4298
  457MOL0     H61651   0.329   4.669   4.757 -0.5239  0.5816 -3.2636
  457MOL0     H61652   0.473   4.719   4.841 -1.0156  0.3859  1.3551
  457MOL0     H61653   0.453   4.549   4.608  1.5356  2.6781 -2.8019
  457MOL0     H61654   0.538   4.521   4.765  2.2806  0.8603  0.1558
  457MOL0     H61655   0.860   4.735   4.558  0.2938 -0.7536  2.7730
  457MOL0     H61656   1.114   4.580   4.325  1.4546  1.4685  0.0196
  457MOL0     H61657   1.025   4.712   4.380  0.8779 -0.1211 -1.1367
  457MOL0     H61658   1.152   4.618   4.484  0.1699 -1.2577 -1.0842
  457MOL0     H61659   1.260   4.154   4.324  1.3790  0.6295 -0.4758
  457MOL0     H61660   1.347   3.981   4.188 -0.5869 -1.4368  1.6793
  457MOL0     H61661   1.217   3.675   3.877  0.7591  0.2157 -0.7079
  457MOL0     H61662   1.060   3.734   3.950 -1.8849  2.0968 -2.4274
  457MOL0     H61663   1.083   3.955   3.828  0.1187  1.6131 -1.8545
  457MOL0     H61664   1.261   3.923   3.802 -0.0663  0.8799 -1.5797
  457MOL0     H61665   1.037   3.896   3.626  0.6517  1.1654 -0.2546
  457MOL0     H61666   1.092   3.730   3.657 -2.6246  1.3500  4.2440
  457MOL0     H61667   1.209   3.853   3.443 -3.3502  0.3360  1.1752
  457MOL0     H61668   1.310   3.928   3.570  0.2769  0.7804 -1.7660
  457MOL0     H61669   1.283   3.656   3.501  0.7356  1.4758 -2.1197
  457MOL0     H61670   1.355   3.707   3.661  1.2433 -3.8495 -1.4029
  457MOL0     H61671   1.497   3.642   3.460  1.2440  0.7267  1.5511
  457MOL0     H61672   1.448   3.794   3.380  1.5771  2.9503  1.0911
  457MOL0     H61673   1.558   3.791   3.661 -1.9297  3.3187  0.5340
  457MOL0     H61674   1.554   3.926   3.544  1.3719  1.9816  1.8050
  457MOL0     H61675   1.784   3.872   3.549 -0.9681  0.7997  1.0895
  457MOL0     H61676   1.723   3.805   3.398  1.2185  0.5922  0.2943
  457MOL0     H61677   0.969   3.865   4.037  3.2475 -1.1398 -2.1321
  457MOL0     H61678   0.866   4.062   4.159  0.0598 -0.4676  1.2561
  457MOL0     H61679   0.834   4.243   4.526  4.3829 -0.3932 -0.1457
  457MOL0     H61680   0.632   4.370   4.619  0.5497 -0.0690 -1.2003
  457MOL0     H61681   0.056   5.054   5.828 -0.7982  0.1084  1.6691
  457MOL0     H61682   0.198   4.903   5.966 -3.6757  1.9620 -0.3631
  457MOL0     H61683   0.535   4.547   5.994 -1.4404  2.1153 -1.0737
  457MOL0     H61684   0.664   4.406   6.194 -1.9086 -0.8203 -0.3587
  457MOL0     H61685   0.971   4.503   6.471 -0.3554 -1.0654 -5.6380
  457MOL0     H61686   0.910   4.659   6.450 -1.0841  0.3888 -2.5421
  457MOL0     H61687   0.854   4.545   6.684 -1.8871  2.2867  1.0896
  457MOL0     H61688   0.750   4.436   6.607 -0.9635 -0.0206  3.7479
  457MOL0     H61689   0.615   4.641   6.526  2.0521 -0.4466 -1.7048
  457MOL0     H61690   0.704   4.740   6.646 -0.0919 -1.0739  2.9595
  457MOL0     H61691   0.556   4.495   6.725 -0.2337 -0.0110 -0.2003
  457MOL0     H61692   0.495   4.655   6.705  1.7789  1.2442 -2.0687
  457MOL0     H61693   0.703   4.752   7.045 -0.1663 -0.0114 -0.0428
  457MOL0     H61694   0.819   4.792   6.299 -2.5330 -0.9542  2.4485
  457MOL0     H61695   0.690   4.902   6.130  3.8620 -0.7903  1.5633
  458MOL0     O61696   3.009  11.152   8.182 -0.6792  0.1005 -0.3927
  458MOL0     C61697   2.968  11.262   8.202 -1.1154 -0.4063  0.6037
  458MOL0     O61698   2.852  11.287   8.257  0.6175 -0.6387 -1.0749
  458MOL0     C61699   2.769  11.183   8.298 -0.4310 -0.1409  0.2047
  458MOL0     C61700   2.684  11.128   8.204 -1.0540  0.6893 -0.0026
  458MOL0     C61701   2.592  11.029   8.232  0.1744  0.4857 -0.9287
  458MOL0     C61702   2.589  10.981   8.368 -0.0374 -0.0207  0.0409
  458MOL0     O61703   2.505  10.874   8.392 -0.1173  0.2366 -0.0038
  458MOL0     C61704   2.365  10.880   8.340  0.5835 -0.5330 -1.1330
  458MOL0     C61705   2.270  10.914   8.461  0.2620  0.2397  0.2558
  458MOL0     C61706   2.301  11.048   8.530  0.8011 -0.4992 -0.0956
  458MOL0     C61707   2.185  11.090   8.613  0.3470  0.9297 -0.0615
  458MOL0     C61708   2.232  11.204   8.711 -0.3503 -0.6725  0.0083
  458MOL0     C61709   2.114  11.229   8.808 -0.1261 -0.4127 -0.3208
  458MOL0     C61710   2.160  11.323   8.926  0.0255  0.0163 -0.0294
  458MOL0     C61711   2.187  11.462   8.873  1.0305 -0.5869  1.0254
  458MOL0     N61712   2.221  11.569   8.970  0.6277 -0.4099  0.8508
  458MOL0     C61713   2.321  11.569   9.066  0.1102 -0.9009  1.0071
  458MOL0     C61714   2.288  11.675   9.141  0.1296 -0.0756 -0.9850
  458MOL0     C61715   2.361  11.705   9.263  0.8678 -0.3146  0.5362
  458MOL0     C61716   2.505  11.672   9.248  0.5714  0.7491  0.9582
  458MOL0     C61717   2.589  11.709   9.363  1.0482 -0.2575 -0.6884
  458MOL0     C61718   2.551  11.643   9.503  0.1527  0.0144 -0.1666
  458MOL0     O61719   2.634  11.710   9.603 -0.3079  0.2682  1.0630
  458MOL0     C61720   2.757  11.663   9.639  0.3629  0.9331 -1.1871
  458MOL0     C61721   2.814  11.738   9.746  0.2579 -0.3363 -0.1902
  458MOL0     C61722   2.941  11.710   9.793  0.0656  0.1258  0.3301
  458MOL0     C61723   2.987  11.786   9.911  0.0211  0.7972 -0.6671
  458MOL0     C61724   3.022  11.608   9.723 -0.0168  0.3113  0.1616
  458MOL0     C61725   3.163  11.571   9.757  0.1971  0.7394  0.5182
  458MOL0     O61726   3.201  11.448   9.722  0.5121  0.7580 -0.8205
  458MOL0     C61727   3.328  11.405   9.744 -0.3041 -0.8159 -0.8227
  458MOL0     C61728   3.434  11.428   9.657 -0.9478  0.0257  0.3962
  458MOL0     C61729   3.571  11.382   9.695  0.0973  0.7487  0.5978
  458MOL0     C61730   3.591  11.315   9.816  0.5573 -0.2721 -0.0802
  458MOL0     O61731   3.702  11.277   9.882 -0.1247  0.0470  0.6058
  458MOL0     C61732   3.827  11.283   9.816 -1.1470  0.6115  0.3339
  458MOL0     C61733   3.923  11.218   9.914 -0.1001 -0.1103 -0.3794
  458MOL0     C61734   4.075  11.212   9.876 -1.0196  0.3073 -0.1455
  458MOL0     C61735   4.136  11.348   9.886  0.2988  0.1446  0.0312
  458MOL0     C61736   4.294  11.336   9.900  0.7051  0.2161 -0.5040
  458MOL0     C61737   4.363  11.471   9.910 -0.9654  0.2756  0.3538
  458MOL0     C61738   4.514  11.449   9.907 -0.1573 -0.0805  0.5512
  458MOL0     C61739   4.570  11.506   9.775  0.1036  0.6833 -0.0643
  458MOL0    Cl61740   4.742  11.478   9.797  0.2867  0.2327 -0.0952
  458MOL0     C61741   3.484  11.298   9.899  0.4316 -0.3904 -0.7373
  458MOL0     C61742   3.362  11.348   9.870  0.0942  0.2763  0.1352
  458MOL0     O61743   3.241  11.654   9.803  1.1680 -0.1158 -0.0085
  458MOL0     C61744   2.967  11.541   9.613  0.0651 -0.2554 -0.4499
  458MOL0     C61745   2.840  11.581   9.559  0.8091  0.2252  0.0306
  458MOL0     N61746   2.174  11.738   9.101 -0.0099 -0.3687 -0.6941
  458MOL0     N61747   2.134  11.677   8.994  0.1576  0.3090  0.4284
  458MOL0     C61748   2.666  11.047   8.468 -0.5429 -0.6144  0.5678
  458MOL0     C61749   2.757  11.145   8.427  0.2896  0.5844  0.2552
  458MOL0     C61750   3.052  11.371   8.125  0.6180 -1.3694  0.2473
  458MOL0     C61751   3.181  11.356   8.085  0.2119  0.0868  0.8456
  458MOL0     C61752   3.255  11.461   8.042  0.1541 -0.4374 -0.7546
  458MOL0     C61753   3.207  11.584   8.047  0.4125 -0.1007 -0.2962
  458MOL0     O61754   3.288  11.680   7.995 -0.2570  0.2752 -0.0865
  458MOL0     C61755   3.231  11.811   7.974 -0.5509  0.4428  0.2595
  458MOL0     C61756   3.340  11.890   7.887 -0.5855 -0.4007 -0.0488
  458MOL0     C61757   3.481  11.883   7.951 -0.7473  0.3976  0.2288
  458MOL0     C61758   3.591  11.960   7.877 -0.2850 -0.1168  0.9678
  458MOL0     C61759   3.597  11.939   7.727 -0.1391 -0.1873 -1.7085
  458MOL0     C61760   3.609  11.910   7.609 -0.1240  0.1945  0.0698
  458MOL0     C61761   3.080  11.612   8.093  1.2712  0.4998  0.6530
  458MOL0     C61762   3.001  11.497   8.132  0.4765  0.1656  0.2149
  458MOL0     H61763   2.687  11.163   8.101 -0.8072  2.4912  0.5742
  458MOL0     H61764   2.534  10.981   8.153 -1.4125 -1.7888  1.4296
  458MOL0     H61765   2.343  10.959   8.268 -1.0393  1.8533  1.7522
  458MOL0     H61766   2.339  10.783   8.297  0.1016 -0.9205  0.0067
  458MOL0     H61767   2.171  10.931   8.420  0.4544  2.7872  0.6668
  458MOL0     H61768   2.277  10.830   8.532 -2.5719  1.9426  2.7766
  458MOL0     H61769   2.395  11.052   8.586  0.0137  2.8002  1.2900
  458MOL0     H61770   2.305  11.121   8.448  1.3452  1.5496  1.6620
  458MOL0     H61771   2.094  11.125   8.562  1.3400 -0.1773 -2.8286
  458MOL0     H61772   2.155  11.005   8.675 -1.4418  0.6770 -1.2055
  458MOL0     H61773   2.324  11.166   8.756  1.4424  2.9303 -0.2712
  458MOL0     H61774   2.256  11.295   8.654  0.0599  0.2662  1.6226
  458MOL0     H61775   2.034  11.278   8.753 -1.1928 -1.3534  0.3585
  458MOL0     H61776   2.057  11.142   8.840 -4.3547  1.7513 -1.3276
  458MOL0     H61777   2.075  11.319   8.995 -0.6541  2.0048 -0.6947
  458MOL0     H61778   2.250  11.276   8.969  0.7117  0.4045 -1.0120
  458MOL0     H61779   2.088  11.487   8.832  0.4017 -0.3896  2.5983
  458MOL0     H61780   2.255  11.465   8.788 -1.4416 -1.3286 -1.1065
  458MOL0     H61781   2.406  11.502   9.066  0.9960  0.0748 -1.8179
  458MOL0     H61782   2.364  11.814   9.275 -0.5175 -0.0027 -1.4668
  458MOL0     H61783   2.327  11.650   9.351 -1.5923  0.4326  0.1383
  458MOL0     H61784   2.543  11.716   9.155 -1.8475 -3.3049 -2.3535
  458MOL0     H61785   2.528  11.566   9.233  3.7448  1.5324 -0.6258
  458MOL0     H61786   2.587  11.818   9.370 -0.4205 -0.2561 -0.9269
  458MOL0     H61787   2.690  11.675   9.338  0.7774 -1.7420  0.0962
  458MOL0     H61788   2.578  11.537   9.504  0.9418  0.2107 -0.0881
  458MOL0     H61789   2.448  11.661   9.536  0.9503  1.8191  1.5748
  458MOL0     H61790   2.770  11.824   9.794 -0.4856  0.3977 -2.0679
  458MOL0     H61791   2.909  11.798   9.987 -0.3124  0.6572 -0.9838
  458MOL0     H61792   3.069  11.745   9.970  0.4583  0.5774 -1.4155
  458MOL0     H61793   3.011  11.883   9.868  1.8498  0.9956  0.6849
  458MOL0     H61794   3.407  11.463   9.558  0.4314 -0.7389 -0.2871
  458MOL0     H61795   3.646  11.404   9.620 -2.3142 -0.5569 -2.4385
  458MOL0     H61796   3.827  11.227   9.723 -2.0779  1.6304 -0.3045
  458MOL0     H61797   3.857  11.388   9.802  2.3631  0.0692  2.5741
  458MOL0     H61798   3.914  11.263  10.013  0.7677 -3.5508  1.4269
  458MOL0     H61799   3.887  11.116   9.929  1.8376 -1.1126 -2.0550
  458MOL0     H61800   4.096  11.178   9.774  3.6325 -1.9180  1.2750
  458MOL0     H61801   4.125  11.146   9.948 -4.3210 -1.1528  1.0230
  458MOL0     H61802   4.110  11.399   9.793  0.2365 -0.3731 -0.2365
  458MOL0     H61803   4.089  11.398   9.971 -0.6580 -3.2042  1.6269
  458MOL0     H61804   4.330  11.269   9.821  3.3185  0.2656  0.5367
  458MOL0     H61805   4.323  11.272   9.985  3.1935 -1.8163 -2.6873
  458MOL0     H61806   4.323  11.510   9.816  0.6596 -1.3765 -1.0919
  458MOL0     H61807   4.319  11.528   9.993 -2.0556 -3.3994  2.5621
  458MOL0     H61808   4.529  11.342   9.926 -3.4571 -0.1784  3.5383
  458MOL0     H61809   4.566  11.503   9.986 -0.9566  2.1400 -0.3714
  458MOL0     H61810   4.549  11.613   9.762  0.6243  0.6172 -1.7110
  458MOL0     H61811   4.535  11.453   9.687 -1.3642  1.6113 -0.0704
  458MOL0     H61812   3.503  11.250   9.994  0.7026 -0.6642 -0.9303
  458MOL0     H61813   3.288  11.360   9.948 -0.0031 -4.6646  1.0847
  458MOL0     H61814   3.026  11.469   9.556 -1.9476  0.2244 -3.3288
  458MOL0     H61815   2.797  11.558   9.462 -0.6401  2.4672  0.0627
  458MOL0     H61816   2.654  11.021   8.573 -1.6354 -0.2693  0.5450
  458MOL0     H61817   2.821  11.200   8.496  1.4511  1.7582 -1.6860
  458MOL0     H61818   3.231  11.261   8.100 -0.2088 -0.1841  0.5586
  458MOL0     H61819   3.359  11.450   8.013  0.5478  1.4386 -0.1631
  458MOL0     H61820   3.138  11.823   7.917  0.0868 -1.1961 -1.2230
  458MOL0     H61821   3.219  11.867   8.067  4.3405  2.3483 -0.0107
  458MOL0     H61822   3.306  11.993   7.875 -0.3758 -0.1903  1.0583
  458MOL0     H61823   3.354  11.843   7.789 -0.0078  0.9739 -0.6514
  458MOL0     H61824   3.507  11.777   7.961 -4.0832 -0.4218  1.1789
  458MOL0     H61825   3.477  11.917   8.055  0.3135 -0.5306  0.5994
  458MOL0     H61826   3.691  11.939   7.917  1.2502 -0.8364 -2.8180
  458MOL0     H61827   3.579  12.067   7.892  1.0546  0.3449 -0.8306
  458MOL0     H61828   3.619  11.871   7.510 -0.3588 -0.6384  0.3684
  458MOL0     H61829   3.047  11.714   8.111 -0.2504 -0.1629  1.9024
  458MOL0     H61830   2.907  11.511   8.184 -0.6824 -1.8070 -1.2185
  459MOL0     O61831   2.276   1.625   3.801 -0.3154 -0.7293  0.5071
  459MOL0     C61832   2.292   1.722   3.727  0.1151  0.3340  0.3082
  459MOL0     O61833   2.335   1.848   3.764  0.2072 -0.5729 -0.1168
  459MOL0     C61834   2.339   1.878   3.893 -0.0320 -0.2756 -0.6830
  459MOL0     C61835   2.237   1.957   3.941 -0.2676 -0.6631  0.8926
  459MOL0     C61836   2.223   1.976   4.077  0.0772  0.5317  0.5355
  459MOL0     C61837   2.309   1.908   4.169 -1.2213 -0.1300  0.1823
  459MOL0     O61838   2.316   1.920   4.307  1.0961  0.6393  0.0578
  459MOL0     C61839   2.272   2.052   4.375 -0.2414  0.5738 -0.0109
  459MOL0     C61840   2.272   2.052   4.527  0.6288  0.3222  0.5118
  459MOL0     C61841   2.414   2.080   4.566 -0.1626  0.4853  0.2766
  459MOL0     C61842   2.437   2.235   4.588  0.4819 -0.2513 -0.5147
  459MOL0     C61843   2.588   2.263   4.605 -0.6794 -1.1354 -1.3353
  459MOL0     C61844   2.649   2.410   4.599 -0.9174  0.1485 -0.4639
  459MOL0     C61845   2.603   2.489   4.476 -0.1059 -0.5915 -0.6098
  459MOL0     C61846   2.644   2.641   4.484 -0.1072 -0.3091 -1.1582
  459MOL0     N61847   2.606   2.705   4.357 -0.4860 -0.1688 -0.3026
  459MOL0     C61848   2.474   2.739   4.326  0.1947  0.3755 -0.0817
  459MOL0     C61849   2.463   2.729   4.186 -0.1617 -0.3493 -0.6739
  459MOL0     C61850   2.341   2.769   4.110  0.1116 -0.1843  0.2137
  459MOL0     C61851   2.307   2.912   4.119  0.6273  0.1956  0.4726
  459MOL0     C61852   2.224   2.962   3.992 -0.2355  0.1497  0.2171
  459MOL0     C61853   2.224   3.114   3.989 -0.0526  0.1327 -0.4314
  459MOL0     O61854   2.164   3.148   3.871 -0.3469 -0.8041 -0.1570
  459MOL0     C61855   2.144   3.284   3.838 -1.1559  0.2888  0.5861
  459MOL0     C61856   2.179   3.399   3.910  0.2851 -0.1922  0.0901
  459MOL0     C61857   2.159   3.528   3.866 -0.3116  0.3287  0.3095
  459MOL0     C61858   2.185   3.638   3.969  0.2588 -0.3003 -0.7056
  459MOL0     C61859   2.103   3.544   3.740 -0.6833  0.2823  1.0791
  459MOL0     C61860   2.090   3.680   3.671 -0.5484 -0.1317 -0.0340
  459MOL0     O61861   2.110   3.683   3.537  0.0149 -0.9295  0.0522
  459MOL0     C61862   2.099   3.803   3.477  0.1415  0.4641 -0.2046
  459MOL0     C61863   2.005   3.829   3.370 -0.2627  0.8910  0.5210
  459MOL0     C61864   2.003   3.960   3.310  0.1599  0.3116 -0.7309
  459MOL0     C61865   2.093   4.064   3.350  0.0660 -0.8157  0.4544
  459MOL0     O61866   2.087   4.190   3.304  0.5005 -0.4701  0.3704
  459MOL0     C61867   1.957   4.241   3.273 -0.2667  1.0518  0.0264
  459MOL0     C61868   1.960   4.393   3.263 -0.2508 -0.0803 -0.5844
  459MOL0     C61869   1.836   4.446   3.187 -0.2031  0.8471 -0.5791
  459MOL0     C61870   1.874   4.458   3.034  0.5443 -0.4756  0.1411
  459MOL0     C61871   1.756   4.475   2.941  0.9014  0.3221 -0.5842
  459MOL0     C61872   1.667   4.607   2.956  0.7727 -0.3271  0.0659
  459MOL0     C61873   1.532   4.606   2.898  0.3993  0.7608  0.0129
  459MOL0     C61874   1.463   4.734   2.922  0.8620  0.0816 -0.5682
  459MOL0    Cl61875   1.543   4.862   2.832  0.1901  0.2718 -0.2582
  459MOL0     C61876   2.189   4.033   3.443  0.9276  0.3982 -0.3349
  459MOL0     C61877   2.190   3.910   3.510 -0.1752 -0.0107 -0.6027
  459MOL0     O61878   2.067   3.774   3.746  0.6846 -0.2895  0.6014
  459MOL0     C61879   2.056   3.429   3.676 -0.5024 -0.8156  0.9223
  459MOL0     C61880   2.079   3.302   3.722  0.4912  0.3753  0.7523
  459MOL0     N61881   2.589   2.692   4.140 -0.1928  0.6482 -0.5734
  459MOL0     N61882   2.667   2.669   4.241 -0.6263 -0.7462  0.3149
  459MOL0     C61883   2.408   1.824   4.114  0.4741  0.1616 -0.1798
  459MOL0     C61884   2.426   1.808   3.977 -0.0417 -0.4904  0.6444
  459MOL0     C61885   2.299   1.713   3.589 -1.0903  0.6941  0.0069
  459MOL0     C61886   2.331   1.591   3.524 -0.3449  0.8578 -0.3119
  459MOL0     C61887   2.319   1.573   3.393 -0.3577 -0.6901  0.3415
  459MOL0     C61888   2.283   1.671   3.303 -0.7628  0.3458 -0.5429
  459MOL0     O61889   2.283   1.662   3.169  0.5510 -0.2811  0.4253
  459MOL0     C61890   2.266   1.526   3.111 -0.4267  0.4787  1.1419
  459MOL0     C61891   2.132   1.459   3.145  0.2147 -0.2696 -0.4317
  459MOL0     C61892   2.127   1.334   3.063 -0.1482  0.9700 -0.0769
  459MOL0     C61893   2.008   1.251   3.118 -0.0217 -0.3538  0.2054
  459MOL0     C61894   1.875   1.282   3.066 -0.1818 -0.3674 -0.3967
  459MOL0     C61895   1.761   1.320   3.042 -0.0548  0.9323 -0.3192
  459MOL0     C61896   2.266   1.800   3.354 -0.2855  0.0068  0.0623
  459MOL0     C61897   2.262   1.821   3.499 -0.3240  0.2041  0.1114
  459MOL0     H61898   2.164   2.001   3.874 -0.9418 -3.1686 -0.1009
  459MOL0     H61899   2.155   2.054   4.110 -1.4155  0.2088 -1.5838
  459MOL0     H61900   2.333   2.132   4.331 -0.1343 -0.4436 -1.8007
  459MOL0     H61901   2.171   2.070   4.338  0.1713  0.7912 -1.0810
  459MOL0     H61902   2.201   2.122   4.574 -1.7382 -1.8542  0.4213
  459MOL0     H61903   2.240   1.957   4.571  1.7846 -0.4987 -0.3595
  459MOL0     H61904   2.439   2.031   4.661 -0.1427 -0.5244 -0.2441
  459MOL0     H61905   2.486   2.053   4.488  0.7482  0.3810  1.1285
  459MOL0     H61906   2.399   2.299   4.507  1.9692 -0.3574 -1.3207
  459MOL0     H61907   2.381   2.257   4.679  0.0381 -0.5069 -0.7193
  459MOL0     H61908   2.608   2.224   4.706  1.4684 -0.7365 -1.5519
  459MOL0     H61909   2.639   2.203   4.529 -0.9575  0.0455 -2.4871
  459MOL0     H61910   2.617   2.458   4.692 -1.3706  1.5193 -1.3020
  459MOL0     H61911   2.758   2.402   4.600 -1.0067 -1.3600  1.5532
  459MOL0     H61912   2.637   2.441   4.384 -0.5620 -1.2313 -0.4500
  459MOL0     H61913   2.493   2.486   4.476 -0.0865 -2.7861  0.1897
  459MOL0     H61914   2.750   2.646   4.512 -0.7198  0.8386  1.1484
  459MOL0     H61915   2.603   2.698   4.567  0.7967  0.1375 -1.0093
  459MOL0     H61916   2.392   2.770   4.389  1.3039 -0.8708  2.0655
  459MOL0     H61917   2.366   2.742   4.006  0.8053  1.7032 -0.1343
  459MOL0     H61918   2.257   2.703   4.134  0.2462 -1.8991 -3.3609
  459MOL0     H61919   2.400   2.968   4.133  2.3287 -2.4728  0.4587
  459MOL0     H61920   2.243   2.932   4.205 -0.1398 -0.8827  0.1738
  459MOL0     H61921   2.123   2.922   3.982  0.4488 -1.0138 -2.9712
  459MOL0     H61922   2.279   2.926   3.904  2.5148  1.1500  1.3850
  459MOL0     H61923   2.325   3.156   3.982 -0.1494  0.1301 -2.6883
  459MOL0     H61924   2.170   3.154   4.076  0.3792  0.5230 -0.3402
  459MOL0     H61925   2.228   3.378   4.005  1.1454  0.9796 -0.0714
  459MOL0     H61926   2.270   3.699   3.936  0.7724  0.8253  2.3933
  459MOL0     H61927   2.101   3.708   3.973  1.0693  0.7611 -1.6567
  459MOL0     H61928   2.223   3.600   4.064  1.2909 -0.5156 -1.1811
  459MOL0     H61929   1.949   3.744   3.334  0.2737 -0.5988  2.9759
  459MOL0     H61930   1.932   3.980   3.230  0.2952  0.7232 -0.7514
  459MOL0     H61931   1.935   4.190   3.179 -0.8195 -1.8338  1.6131
  459MOL0     H61932   1.888   4.207   3.350  1.8184 -1.2660  1.0079
  459MOL0     H61933   1.968   4.432   3.365 -0.3130 -0.6021 -0.3773
  459MOL0     H61934   2.054   4.438   3.231 -1.0077  2.1665  0.1407
  459MOL0     H61935   1.803   4.539   3.233 -4.2190 -2.6922  5.0328
  459MOL0     H61936   1.753   4.375   3.199  1.0586 -0.4480  1.1493
  459MOL0     H61937   1.942   4.544   3.025  0.2703 -0.3472 -0.8972
  459MOL0     H61938   1.947   4.379   3.012  1.0965  0.0728 -0.0375
  459MOL0     H61939   1.695   4.386   2.961  2.5081 -0.6646  0.1723
  459MOL0     H61940   1.784   4.468   2.836 -1.6175  0.6969 -1.3497
  459MOL0     H61941   1.659   4.617   3.064  1.8506 -1.6119  0.2858
  459MOL0     H61942   1.726   4.686   2.908 -3.2845  0.8742 -3.6633
  459MOL0     H61943   1.464   4.532   2.941 -0.7645  1.2865 -0.8590
  459MOL0     H61944   1.536   4.565   2.796 -2.1472 -2.3025  0.9760
  459MOL0     H61945   1.464   4.755   3.029  0.2650  0.1004 -0.5651
  459MOL0     H61946   1.358   4.716   2.900 -0.3161  3.8913  1.0481
  459MOL0     H61947   2.263   4.108   3.469  3.1903 -0.9831 -2.3868
  459MOL0     H61948   2.258   3.906   3.595  0.3824 -1.4484 -1.0696
  459MOL0     H61949   2.015   3.436   3.576 -2.7934  0.9067  1.8847
  459MOL0     H61950   2.030   3.220   3.670  2.0743  1.3104 -2.5141
  459MOL0     H61951   2.466   1.762   4.182  0.0537 -0.0659 -0.0240
  459MOL0     H61952   2.495   1.733   3.939  0.8685  0.6480 -0.0129
  459MOL0     H61953   2.362   1.508   3.587 -0.3478  0.7736 -0.4200
  459MOL0     H61954   2.352   1.478   3.352 -2.3826 -0.5683 -1.7235
  459MOL0     H61955   2.254   1.538   3.003  1.0532  0.3536  0.9457
  459MOL0     H61956   2.352   1.465   3.143  0.0252 -0.0458 -0.9604
  459MOL0     H61957   2.051   1.526   3.116  1.9026  1.6961 -0.8884
  459MOL0     H61958   2.114   1.433   3.250 -1.0388  0.7299 -0.3827
  459MOL0     H61959   2.214   1.270   3.084  0.0968  0.5106 -2.2754
  459MOL0     H61960   2.124   1.349   2.955  1.3267  1.7348 -0.0448
  459MOL0     H61961   2.007   1.257   3.228 -3.1683  0.1840  0.2135
  459MOL0     H61962   2.025   1.147   3.091 -1.7817 -1.5050  3.0940
  459MOL0     H61963   1.663   1.362   3.028 -0.4760 -0.3219 -1.3295
  459MOL0     H61964   2.255   1.883   3.285 -0.4891 -1.4555 -1.7370
  459MOL0     H61965   2.248   1.920   3.540 -3.3765  0.5798 -1.5647
  460MOL0     O61966   9.524   7.647   8.463  0.8622 -0.3851 -0.0974
  460MOL0     C61967   9.473   7.577   8.552 -0.8211 -0.7670 -0.7686
  460MOL0     O61968   9.374   7.613   8.637 -0.0100 -0.4209  0.3757
  460MOL0     C61969   9.270   7.694   8.587  0.6934 -0.2703 -0.2492
  460MOL0     C61970   9.140   7.650   8.597  0.0202 -0.2312 -0.4571
  460MOL0     C61971   9.035   7.732   8.572  0.2608  0.1427  0.4471
  460MOL0     C61972   9.058   7.867   8.526 -0.4169 -0.7397  0.5569
  460MOL0     O61973   8.961   7.966   8.490 -0.4003  0.4910  0.4664
  460MOL0     C61974   8.825   7.949   8.526 -0.4177 -0.0967 -0.2688
  460MOL0     C61975   8.745   8.059   8.463  0.3923 -0.0388 -0.7326
  460MOL0     C61976   8.617   8.088   8.543 -0.1655  0.0663 -0.1463
  460MOL0     C61977   8.604   8.231   8.606  0.3582  0.2254 -1.1240
  460MOL0     C61978   8.486   8.265   8.695  0.3410  0.3778 -0.6171
  460MOL0     C61979   8.440   8.164   8.799  0.0419 -0.3612  0.9362
  460MOL0     C61980   8.313   8.196   8.888 -0.5595  0.1072  0.0496
  460MOL0     C61981   8.307   8.343   8.945  0.1068  0.1812 -0.4085
  460MOL0     N61982   8.212   8.348   9.057 -0.1750  0.1972  0.4596
  460MOL0     C61983   8.225   8.275   9.174  0.2241  0.1199  0.7405
  460MOL0     C61984   8.104   8.282   9.247  0.0577 -1.1522 -0.1810
  460MOL0     C61985   8.070   8.208   9.365 -0.0259  0.4776  0.2920
  460MOL0     C61986   7.931   8.150   9.344 -0.1430  0.7072  0.2804
  460MOL0     C61987   7.913   8.057   9.222 -0.3347 -0.7242 -0.2336
  460MOL0     C61988   7.978   7.926   9.256 -0.5480 -0.5756  0.2114
  460MOL0     O61989   7.971   7.852   9.141 -0.1974  0.4483  0.3276
  460MOL0     C61990   8.024   7.729   9.145  1.0224  0.8068 -0.3794
  460MOL0     C61991   7.980   7.657   9.024  1.1646  0.0494  1.2027
  460MOL0     C61992   8.024   7.524   9.002 -0.4154 -0.8992 -1.1083
  460MOL0     C61993   7.977   7.468   8.872 -0.1453 -0.2471  0.6439
  460MOL0     C61994   8.103   7.461   9.105  0.2637  0.1962  0.4224
  460MOL0     C61995   8.148   7.313   9.094  0.6234 -0.8232 -0.0468
  460MOL0     O61996   8.248   7.284   9.179  0.1506  0.4064  0.6679
  460MOL0     C61997   8.255   7.152   9.213  0.6066  0.0887  0.0324
  460MOL0     C61998   8.214   7.118   9.338 -0.6391  0.0536 -0.6641
  460MOL0     C61999   8.232   6.991   9.387  0.5512 -0.0481 -0.0546
  460MOL0     C62000   8.293   6.882   9.314 -0.6427 -0.5341 -0.0470
  460MOL0     O62001   8.310   6.754   9.359 -0.2971  0.6459 -0.2603
  460MOL0     C62002   8.383   6.653   9.278 -0.0539  0.0305  0.3311
  460MOL0     C62003   8.379   6.521   9.346  0.1273 -0.3166 -0.4270
  460MOL0     C62004   8.240   6.463   9.346  0.1007  0.2734 -0.5103
  460MOL0     C62005   8.207   6.417   9.201 -0.2799  0.1071  0.3383
  460MOL0     C62006   8.071   6.470   9.160  0.0874 -0.4555  0.3875
  460MOL0     C62007   8.014   6.417   9.030  0.2791 -0.1653 -0.7146
  460MOL0     C62008   7.871   6.465   9.000 -0.1873 -0.4478 -0.5391
  460MOL0     C62009   7.810   6.382   8.881  0.6754  0.1283 -0.0638
  460MOL0    Cl62010   7.862   6.434   8.729 -0.3888  0.0259  0.2777
  460MOL0     C62011   8.332   6.918   9.178  0.1282 -0.0824  0.4290
  460MOL0     C62012   8.320   7.056   9.140 -0.4015 -0.2556 -0.0821
  460MOL0     O62013   8.106   7.248   9.000 -0.4552  0.3706  1.3444
  460MOL0     C62014   8.157   7.539   9.208  0.1121  0.0760 -0.3769
  460MOL0     C62015   8.100   7.662   9.235 -0.8123 -0.2802 -1.0327
  460MOL0     N62016   8.016   8.348   9.158 -0.2318  0.1911  0.2463
  460MOL0     N62017   8.087   8.389   9.057  0.2630 -1.1769 -0.7311
  460MOL0     C62018   9.197   7.908   8.508  0.3204 -0.5677 -1.3111
  460MOL0     C62019   9.296   7.821   8.543 -0.8355 -0.5707 -0.5370
  460MOL0     C62020   9.548   7.457   8.589 -0.9993  0.6980  0.1108
  460MOL0     C62021   9.666   7.418   8.522  0.8266  0.1118 -0.5246
  460MOL0     C62022   9.738   7.302   8.567  0.1051 -0.1996  0.6072
  460MOL0     C62023   9.695   7.230   8.686 -1.0196 -0.4745  0.0610
  460MOL0     O62024   9.781   7.131   8.717 -0.5039  0.0467 -0.4995
  460MOL0     C62025   9.761   7.061   8.841  0.0472 -0.6135  0.1917
  460MOL0     C62026   9.779   6.915   8.817  1.1158 -0.0346  0.5040
  460MOL0     C62027   9.741   6.811   8.934  0.2713 -0.2181 -0.2900
  460MOL0     C62028   9.848   6.813   9.040  0.6289 -0.2572 -0.0255
  460MOL0     C62029   9.874   6.929   9.126  0.4803  0.3116  0.6591
  460MOL0     C62030   9.891   6.984   9.227  0.0662 -0.0685 -0.2526
  460MOL0     C62031   9.572   7.263   8.735  0.1403  0.6428  1.1746
  460MOL0     C62032   9.499   7.375   8.693  0.5866  0.5891  0.1696
  460MOL0     H62033   9.120   7.544   8.608 -1.7979  0.3573  3.9991
  460MOL0     H62034   8.930   7.706   8.571 -0.3347  2.2174 -2.4530
  460MOL0     H62035   8.793   7.854   8.483  1.6800 -1.2096  0.4595
  460MOL0     H62036   8.822   7.939   8.635  0.5621 -1.8515 -0.3709
  460MOL0     H62037   8.803   8.149   8.484 -1.0046  0.5785  0.7003
  460MOL0     H62038   8.731   8.037   8.357  1.9431 -1.6918 -0.6566
  460MOL0     H62039   8.540   8.081   8.466  0.7831  1.8834 -1.3075
  460MOL0     H62040   8.607   8.011   8.621  0.0591 -1.5640 -1.6529
  460MOL0     H62041   8.690   8.247   8.671 -1.5195 -1.4123  2.0214
  460MOL0     H62042   8.606   8.305   8.525  2.0640  1.5095  0.0276
  460MOL0     H62043   8.505   8.353   8.756 -0.3000 -0.1885  0.4223
  460MOL0     H62044   8.394   8.284   8.638 -0.0110  0.4565 -0.0267
  460MOL0     H62045   8.402   8.077   8.745  1.1507  0.3326 -1.0637
  460MOL0     H62046   8.523   8.124   8.858 -1.5375 -1.8081  2.2869
  460MOL0     H62047   8.228   8.197   8.820 -1.0117  0.3665  0.6173
  460MOL0     H62048   8.304   8.125   8.971 -0.0270 -0.4385 -0.3438
  460MOL0     H62049   8.272   8.407   8.864 -1.6185  0.8568  0.8047
  460MOL0     H62050   8.401   8.382   8.986  1.8543 -2.0671 -2.0094
  460MOL0     H62051   8.321   8.232   9.201  2.5111  3.0602 -1.9033
  460MOL0     H62052   8.142   8.125   9.368  0.9844  1.0649 -3.2234
  460MOL0     H62053   8.069   8.267   9.457  1.3994 -1.4644  1.6332
  460MOL0     H62054   7.846   8.219   9.348 -1.5649 -0.7436 -2.1696
  460MOL0     H62055   7.920   8.082   9.429  2.0502  1.4729  1.2292
  460MOL0     H62056   7.968   8.100   9.137  0.7658  0.2908  0.9520
  460MOL0     H62057   7.808   8.054   9.193 -0.4120 -0.8855  0.0649
  460MOL0     H62058   7.917   7.886   9.337  1.2918  0.8823  2.4542
  460MOL0     H62059   8.082   7.938   9.288 -0.2384  1.9090 -1.4419
  460MOL0     H62060   7.921   7.707   8.949  1.7444  1.1484  1.4525
  460MOL0     H62061   8.051   7.405   8.821 -2.0911 -0.8365 -1.6731
  460MOL0     H62062   7.885   7.410   8.885  0.3488 -0.8869  1.3201
  460MOL0     H62063   7.949   7.543   8.797 -1.4497 -1.8355 -0.5577
  460MOL0     H62064   8.161   7.197   9.391 -0.3742  0.4088 -0.9214
  460MOL0     H62065   8.188   6.971   9.484 -0.3180 -1.1652 -0.6425
  460MOL0     H62066   8.332   6.646   9.182  0.4598 -0.4223  0.0901
  460MOL0     H62067   8.487   6.682   9.259 -1.0253  2.3449 -2.0854
  460MOL0     H62068   8.450   6.453   9.298 -0.1882  1.2650 -3.4239
  460MOL0     H62069   8.407   6.545   9.449 -0.0256  2.3926 -0.9344
  460MOL0     H62070   8.168   6.525   9.400  2.2191  1.8017  0.6843
  460MOL0     H62071   8.215   6.368   9.395 -1.9734 -1.2962 -4.2248
  460MOL0     H62072   8.284   6.442   9.127 -1.4816 -0.8865 -1.3328
  460MOL0     H62073   8.188   6.309   9.193 -2.4002  0.5169 -1.1584
  460MOL0     H62074   8.069   6.580   9.160  2.0260 -0.3911 -0.2497
  460MOL0     H62075   8.006   6.438   9.242 -1.6896  1.9056  0.0050
  460MOL0     H62076   8.078   6.441   8.944  1.6692 -2.7461 -0.5195
  460MOL0     H62077   8.012   6.307   9.030 -0.4999 -0.2042  2.0204
  460MOL0     H62078   7.898   6.565   8.966  1.8124 -1.3009 -1.6712
  460MOL0     H62079   7.817   6.469   9.095  3.1227 -0.1014  1.4877
  460MOL0     H62080   7.702   6.396   8.881  1.1101  5.2143  0.2368
  460MOL0     H62081   7.834   6.276   8.894 -1.7164 -0.7106 -1.7710
  460MOL0     H62082   8.361   6.841   9.106 -1.0829 -1.1485  1.0373
  460MOL0     H62083   8.346   7.086   9.039 -2.0896  0.2440 -0.3907
  460MOL0     H62084   8.235   7.508   9.277  0.6632 -1.3183 -1.5809
  460MOL0     H62085   8.123   7.708   9.331 -1.0794 -1.4973 -0.3647
  460MOL0     H62086   9.220   8.008   8.474 -0.9450  0.3347  0.3319
  460MOL0     H62087   9.395   7.864   8.553  0.0696 -2.7108  0.4309
  460MOL0     H62088   9.696   7.479   8.437 -0.2049 -0.3310 -1.2259
  460MOL0     H62089   9.841   7.283   8.539  0.3995 -1.3684  2.3665
  460MOL0     H62090   9.838   7.095   8.911 -1.2818  0.4838  1.1857
  460MOL0     H62091   9.662   7.072   8.886 -0.9669 -0.8750 -1.8759
  460MOL0     H62092   9.882   6.893   8.789  0.3809 -1.9335 -0.9335
  460MOL0     H62093   9.731   6.880   8.726  4.6637 -1.4821 -0.9867
  460MOL0     H62094   9.734   6.708   8.898  1.3852 -0.3079 -0.2899
  460MOL0     H62095   9.641   6.834   8.972  0.1156 -1.8953  0.3844
  460MOL0     H62096   9.946   6.797   8.994  0.3124  0.3739 -0.9325
  460MOL0     H62097   9.832   6.730   9.110  2.2303 -3.2476 -2.9446
  460MOL0     H62098   9.913   7.043   9.314 -2.3351  3.2907 -1.6975
  460MOL0     H62099   9.520   7.216   8.819 -1.2873 -0.1747 -0.1178
  460MOL0     H62100   9.406   7.396   8.746 -0.2195 -1.6030 -0.2919
  461MOL0     O62101   0.921   3.951  11.362  0.2777 -0.1791  0.0738
  461MOL0     C62102   0.871   3.918  11.466  0.2488  0.1719  0.6552
  461MOL0     O62103   0.737   3.930  11.488 -0.2514 -0.3440 -0.5682
  461MOL0     C62104   0.661   3.986  11.390  0.0373 -0.9815 -0.6839
  461MOL0     C62105   0.572   3.902  11.327 -1.3918  0.1306  0.4889
  461MOL0     C62106   0.478   3.940  11.227  0.2093 -0.8227  0.2203
  461MOL0     C62107   0.490   4.073  11.179  0.1753  0.3927 -0.4374
  461MOL0     O62108   0.411   4.142  11.089 -0.2149 -0.5012  0.6826
  461MOL0     C62109   0.307   4.063  11.027  1.0872 -0.1630 -0.4928
  461MOL0     C62110   0.178   4.146  10.988  0.4511  0.0632 -0.3286
  461MOL0     C62111   0.219   4.265  10.893  0.9203  0.1780  0.3419
  461MOL0     C62112   0.208   4.223  10.744  0.8570 -0.1724 -0.2953
  461MOL0     C62113   0.213   4.350  10.656 -0.8602 -0.6564  0.2304
  461MOL0     C62114   0.366   4.395  10.623  0.0739  1.3246  0.4544
  461MOL0     C62115   0.368   4.541  10.580 -0.1318  0.0287 -0.8114
  461MOL0     C62116   0.350   4.559  10.439  1.0984 -0.5025  0.7609
  461MOL0     N62117   0.336   4.704  10.398  0.1946  0.6270 -0.3617
  461MOL0     C62118   0.440   4.781  10.371  0.1237 -1.8289  1.2884
  461MOL0     C62119   0.385   4.908  10.348 -0.2082  0.3126 -0.6561
  461MOL0     C62120   0.467   5.031  10.309  0.4343  0.8798 -0.4790
  461MOL0     C62121   0.434   5.100  10.178 -0.0889 -0.7440  0.0910
  461MOL0     C62122   0.425   5.017  10.047 -0.0943  0.6455  0.4572
  461MOL0     C62123   0.409   5.119   9.929  1.4966  1.2502 -0.6050
  461MOL0     O62124   0.518   5.204   9.906  0.6661 -1.0706 -0.3155
  461MOL0     C62125   0.593   5.178   9.796 -0.1354  0.2312 -0.2582
  461MOL0     C62126   0.698   5.088   9.818  0.8875  0.1786  0.4500
  461MOL0     C62127   0.796   5.071   9.720 -0.0267 -0.8144  0.4741
  461MOL0     C62128   0.897   4.959   9.743  0.9985 -0.2118  0.7336
  461MOL0     C62129   0.782   5.143   9.595 -1.0297  0.8204 -0.4198
  461MOL0     C62130   0.870   5.123   9.479  0.4097  1.0975  0.7460
  461MOL0     O62131   0.892   4.994   9.441  0.2564  0.5646 -0.1811
  461MOL0     C62132   0.987   4.957   9.345  0.8555 -0.1229 -0.5716
  461MOL0     C62133   0.972   4.851   9.253  0.1736 -0.0400  0.1517
  461MOL0     C62134   1.079   4.826   9.170 -0.9433 -1.1019 -0.6050
  461MOL0     C62135   1.196   4.897   9.178  0.1716 -0.7684  0.1068
  461MOL0     O62136   1.297   4.863   9.096 -0.7635  0.2288 -0.4142
  461MOL0     C62137   1.393   4.963   9.060  0.3260 -0.2629  0.2475
  461MOL0     C62138   1.533   4.957   9.126 -0.0843  0.4675  0.2089
  461MOL0     C62139   1.612   4.838   9.105 -0.9376 -0.4337  0.7987
  461MOL0     C62140   1.738   4.830   9.193 -0.8112 -0.9020 -0.0084
  461MOL0     C62141   1.832   4.724   9.147  0.2370  0.2754  0.7796
  461MOL0     C62142   1.945   4.704   9.253 -0.5036 -0.0180 -0.3861
  461MOL0     C62143   1.909   4.605   9.362  0.4726 -0.0968 -0.3798
  461MOL0     C62144   2.014   4.604   9.475 -0.2311 -0.7960  0.1223
  461MOL0    Cl62145   2.149   4.501   9.408 -0.0129 -0.4181 -0.7798
  461MOL0     C62146   1.217   4.983   9.284 -0.6427 -0.0001 -0.3971
  461MOL0     C62147   1.118   5.014   9.369  0.5252  0.6516 -0.4532
  461MOL0     O62148   0.920   5.222   9.429  0.2178 -1.1110 -0.6593
  461MOL0     C62149   0.676   5.239   9.580 -0.1266 -0.0475  0.4166
  461MOL0     C62150   0.583   5.245   9.681  0.8270 -1.0893  1.6696
  461MOL0     N62151   0.249   4.896  10.360  0.5367  0.1613  0.3137
  461MOL0     N62152   0.222   4.772  10.399 -0.2658 -0.2111  0.7674
  461MOL0     C62153   0.595   4.154  11.230 -0.2354 -0.0875  1.1487
  461MOL0     C62154   0.678   4.113  11.338  1.2417  0.0929  0.3216
  461MOL0     C62155   0.958   3.856  11.566 -0.5119  0.3565 -0.2720
  461MOL0     C62156   1.097   3.831  11.548 -0.8065  0.6400  1.1221
  461MOL0     C62157   1.170   3.744  11.630  0.5118 -0.4196  0.5202
  461MOL0     C62158   1.110   3.685  11.743 -0.2312 -0.1890 -0.5005
  461MOL0     O62159   1.202   3.606  11.820 -0.3685  0.4318 -0.3153
  461MOL0     C62160   1.155   3.549  11.941  0.1121  0.0246 -0.2120
  461MOL0     C62161   1.084   3.418  11.921 -0.5154 -0.2980  0.5548
  461MOL0     C62162   1.148   3.314  12.013  0.6742 -1.4658  0.4169
  461MOL0     C62163   1.262   3.247  11.937 -0.5155  0.9292 -0.2206
  461MOL0     C62164   1.330   3.151  12.022  0.0675 -0.6830 -0.9369
  461MOL0     C62165   1.402   3.076  12.079 -0.6757 -0.0357 -1.0415
  461MOL0     C62166   0.971   3.713  11.773  0.0592  0.6121  0.3399
  461MOL0     C62167   0.896   3.794  11.680 -0.2635  0.3840 -0.3821
  461MOL0     H62168   0.566   3.807  11.378 -0.4976  1.4625  3.3208
  461MOL0     H62169   0.419   3.856  11.190  0.9046 -2.8763  3.3257
  461MOL0     H62170   0.351   4.013  10.941  0.4781  0.1675 -1.0078
  461MOL0     H62171   0.263   3.993  11.099  0.0979  2.0618  1.1697
  461MOL0     H62172   0.110   4.069  10.952  2.8153 -3.8771  2.7203
  461MOL0     H62173   0.121   4.184  11.074 -1.6406 -1.1159 -1.1193
  461MOL0     H62174   0.145   4.343  10.913 -2.8732 -1.1976 -5.7071
  461MOL0     H62175   0.319   4.302  10.917  0.8574 -0.4534  1.6744
  461MOL0     H62176   0.285   4.146  10.728  0.0575 -2.6037  5.3932
  461MOL0     H62177   0.110   4.175  10.733 -0.8935  3.1792 -0.4571
  461MOL0     H62178   0.154   4.330  10.566 -1.1414  2.1346 -0.2861
  461MOL0     H62179   0.159   4.429  10.710 -0.6366  1.9423 -2.9942
  461MOL0     H62180   0.428   4.373  10.711  0.8428  3.3222  0.4656
  461MOL0     H62181   0.409   4.341  10.538  1.2002  0.3230  1.6105
  461MOL0     H62182   0.295   4.599  10.637 -0.7437 -0.2022 -1.3500
  461MOL0     H62183   0.466   4.584  10.604 -2.0213  2.4881  3.6735
  461MOL0     H62184   0.262   4.505  10.404  0.4146  0.8105  0.3978
  461MOL0     H62185   0.441   4.525  10.388 -0.0422  2.1639 -3.5393
  461MOL0     H62186   0.545   4.755  10.365 -0.3412 -3.8951  1.4186
  461MOL0     H62187   0.438   5.103  10.387 -0.8225 -1.1471  1.0074
  461MOL0     H62188   0.575   5.012  10.302  0.2239 -0.8393  0.4936
  461MOL0     H62189   0.507   5.180  10.167 -1.3608  0.4895  0.3391
  461MOL0     H62190   0.344   5.161  10.185  0.6423  0.1903  1.8838
  461MOL0     H62191   0.346   4.944  10.067  1.4997 -1.0380  0.8740
  461MOL0     H62192   0.511   4.953  10.032 -1.3285 -1.0038  0.1467
  461MOL0     H62193   0.314   5.173   9.940  0.7083 -0.5550  3.1489
  461MOL0     H62194   0.393   5.057   9.841 -3.0723  1.1134  0.0610
  461MOL0     H62195   0.698   5.033   9.912 -0.0189  0.7543  0.8015
  461MOL0     H62196   0.989   5.004   9.784 -0.8440  3.0939  1.6233
  461MOL0     H62197   0.863   4.888   9.819  0.8282  1.4542  2.3056
  461MOL0     H62198   0.920   4.893   9.659 -2.0832 -2.6791  1.6331
  461MOL0     H62199   0.877   4.800   9.242 -0.0485  0.0833  1.3437
  461MOL0     H62200   1.059   4.747   9.099 -0.4649 -2.3460  0.6014
  461MOL0     H62201   1.406   4.948   8.952 -0.1825  1.0268 -0.0044
  461MOL0     H62202   1.353   5.065   9.066 -2.0902 -0.9529 -2.0592
  461MOL0     H62203   1.603   5.029   9.083  0.5984  0.6227  1.5419
  461MOL0     H62204   1.525   4.978   9.233 -1.3066  0.7506  0.0730
  461MOL0     H62205   1.658   4.854   9.007  1.3987 -0.1413  1.8746
  461MOL0     H62206   1.555   4.745   9.107 -2.6049  0.5675  1.1243
  461MOL0     H62207   1.792   4.925   9.189 -0.8592 -0.8790 -0.1013
  461MOL0     H62208   1.716   4.806   9.297 -0.9456 -2.0069 -0.2785
  461MOL0     H62209   1.872   4.741   9.046 -0.0206 -2.5074  0.1112
  461MOL0     H62210   1.773   4.632   9.143 -0.3050  0.6389  0.2415
  461MOL0     H62211   2.032   4.659   9.205  3.2795  1.8285  3.9816
  461MOL0     H62212   1.971   4.797   9.305  3.5686 -0.8936 -0.4948
  461MOL0     H62213   1.903   4.505   9.317 -1.2183 -0.0576 -0.3006
  461MOL0     H62214   1.813   4.629   9.409  1.7296  3.5099  0.6931
  461MOL0     H62215   1.961   4.561   9.560  0.1840  0.8869  1.2854
  461MOL0     H62216   2.047   4.704   9.506 -1.7368  0.2376 -1.4037
  461MOL0     H62217   1.316   5.023   9.302  0.3155 -1.9344 -1.0808
  461MOL0     H62218   1.126   5.087   9.449 -2.5119  1.9330 -1.1734
  461MOL0     H62219   0.673   5.301   9.491  0.2687 -1.9449 -0.9785
  461MOL0     H62220   0.497   5.311   9.678  0.9720 -0.8657 -1.7113
  461MOL0     H62221   0.605   4.250  11.181 -2.1602 -0.7821 -0.8276
  461MOL0     H62222   0.749   4.185  11.378  2.1008 -1.6998  2.1949
  461MOL0     H62223   1.165   3.868  11.472  0.4923 -2.9880  0.3089
  461MOL0     H62224   1.278   3.740  11.624  0.4110 -0.8764 -2.4660
  461MOL0     H62225   1.240   3.554  12.010  0.0454 -0.9753 -0.0430
  461MOL0     H62226   1.083   3.616  11.988  1.2214  0.5779  0.7356
  461MOL0     H62227   1.089   3.384  11.817  1.7755  2.5111 -0.4045
  461MOL0     H62228   0.981   3.437  11.954  0.0823  2.8849  0.9217
  461MOL0     H62229   1.068   3.240  12.021  0.4413 -1.5608 -1.9059
  461MOL0     H62230   1.163   3.355  12.113 -1.4931 -1.5695  0.8384
  461MOL0     H62231   1.331   3.325  11.902 -0.2943 -0.1259 -2.3197
  461MOL0     H62232   1.229   3.184  11.854  4.0973 -3.2721  0.6679
  461MOL0     H62233   1.476   3.007  12.113  0.4203  0.6049 -2.0217
  461MOL0     H62234   0.915   3.671  11.857 -0.4940 -0.1213 -0.3774
  461MOL0     H62235   0.788   3.784  11.685 -0.3211  0.7510 -0.8533
  462MOL0     O62236   2.601   9.423   0.145  0.0654 -0.0772  0.1266
  462MOL0     C62237   2.686   9.494   0.098  0.1444  0.5847  0.3641
  462MOL0     O62238   2.784   9.553   0.175  0.1647 -0.0441  0.0747
  462MOL0     C62239   2.758   9.548   0.309 -0.0860  0.1860 -0.0645
  462MOL0     C62240   2.719   9.662   0.378 -0.4565 -0.2276  0.1041
  462MOL0     C62241   2.691   9.665   0.510 -1.0430 -0.3529 -0.4218
  462MOL0     C62242   2.695   9.550   0.587  0.4185 -0.4942  0.8285
  462MOL0     O62243   2.683   9.558   0.718  0.0554  0.2616 -0.0930
  462MOL0     C62244   2.565   9.536   0.787 -0.0634 -0.2101  0.0313
  462MOL0     C62245   2.466   9.647   0.801  0.3918  0.3059  0.2840
  462MOL0     C62246   2.515   9.777   0.840  1.3644 -0.2349 -0.1302
  462MOL0     C62247   2.570   9.773   0.978 -0.5964  0.5903 -1.4150
  462MOL0     C62248   2.637   9.898   1.018 -0.2520 -0.4259  0.1815
  462MOL0     C62249   2.535  10.018   1.033  0.2935 -0.6800 -0.0220
  462MOL0     C62250   2.595  10.147   1.089  0.0557  0.1177 -0.5045
  462MOL0     C62251   2.703  10.196   1.003  0.2338  0.5858  0.6413
  462MOL0     N62252   2.775  10.310   1.057  0.7053  1.3704  0.1766
  462MOL0     C62253   2.740  10.440   1.052  0.4951  0.0419 -0.9514
  462MOL0     C62254   2.822  10.504   1.137 -0.1167  0.8284  0.1774
  462MOL0     C62255   2.811  10.649   1.174 -0.6535 -0.1871 -0.1201
  462MOL0     C62256   2.830  10.731   1.040  0.4180  0.4897 -0.8773
  462MOL0     C62257   2.780  10.873   1.057 -0.4522  0.3058  0.2478
  462MOL0     C62258   2.872  10.965   1.145 -0.4820 -0.5387 -0.9035
  462MOL0     O62259   2.829  11.106   1.144 -0.2146  0.0088  0.1243
  462MOL0     C62260   2.867  11.185   1.246  0.1325  0.2627  0.3389
  462MOL0     C62261   2.984  11.174   1.331  0.2034  0.6143  0.4635
  462MOL0     C62262   3.017  11.274   1.426  0.4298  0.0296 -0.2697
  462MOL0     C62263   3.133  11.244   1.514 -0.0827 -0.3241 -1.0419
  462MOL0     C62264   2.953  11.402   1.426 -0.2091 -0.0554  0.4503
  462MOL0     C62265   2.989  11.524   1.512  0.9013 -0.3007 -0.0562
  462MOL0     O62266   2.894  11.629   1.532  0.6059  0.0336  0.1422
  462MOL0     C62267   2.927  11.751   1.595  1.1736  0.7554 -0.5154
  462MOL0     C62268   3.046  11.802   1.607 -0.5468 -0.3782 -0.2702
  462MOL0     C62269   3.056  11.934   1.666 -0.3529  0.1953 -1.1706
  462MOL0     C62270   2.943  12.011   1.703 -0.1030  0.8417  0.4551
  462MOL0     O62271   2.944  12.131   1.766  0.1909  0.2184 -0.2601
  462MOL0     C62272   2.918  12.247   1.685 -0.2446 -0.2589  0.0725
  462MOL0     C62273   3.044  12.283   1.591  0.2300  0.7370 -0.2293
  462MOL0     C62274   3.031  12.422   1.516 -0.1952  0.3528  0.6643
  462MOL0     C62275   3.046  12.541   1.600  0.4107 -0.6390 -0.5035
  462MOL0     C62276   3.079  12.672   1.504 -0.6898  0.3514 -0.2523
  462MOL0     C62277   3.057  12.802   1.577  1.2183  0.2304 -0.0454
  462MOL0     C62278   3.112  12.806   1.721 -0.3496 -0.0646  0.1364
  462MOL0     C62279   3.091  12.943   1.778  0.1042  0.6718 -0.4399
  462MOL0    Cl62280   3.241  13.036   1.724  0.1699 -0.1180  0.5602
  462MOL0     C62281   2.820  11.951   1.681 -0.0698  0.3315 -0.0640
  462MOL0     C62282   2.806  11.820   1.635 -0.2086 -0.0035 -0.1514
  462MOL0     O62283   3.105  11.515   1.558  0.5412  0.0842 -0.3471
  462MOL0     C62284   2.843  11.405   1.341  0.2589 -0.6781  0.6141
  462MOL0     C62285   2.796  11.303   1.260 -0.2663 -1.4546  0.5283
  462MOL0     N62286   2.914  10.413   1.199  0.5992  0.4702  0.8539
  462MOL0     N62287   2.873  10.293   1.150 -0.1932 -0.2349 -0.0809
  462MOL0     C62288   2.729   9.434   0.526 -0.5732 -0.8998 -0.8191
  462MOL0     C62289   2.764   9.427   0.388  0.4212  0.2528  0.4186
  462MOL0     C62290   2.697   9.496  -0.053 -0.2183 -0.5659 -0.0887
  462MOL0     C62291   2.789   9.591  -0.110 -0.1841 -0.2266  0.1806
  462MOL0     C62292   2.809   9.605  -0.251  0.9958 -0.0752 -0.0826
  462MOL0     C62293   2.737   9.515  -0.330  0.8611  0.2487 -0.2890
  462MOL0     O62294   2.760   9.509  -0.464  0.1899  0.0230 -0.0851
  462MOL0     C62295   2.747   9.629  -0.541 -0.1824 -0.0386  1.3365
  462MOL0     C62296   2.864   9.672  -0.632  0.6949  0.3980 -0.9301
  462MOL0     C62297   2.912   9.555  -0.702 -0.4901 -0.0448 -0.4527
  462MOL0     C62298   3.027   9.595  -0.801 -0.2096 -0.1033 -0.7457
  462MOL0     C62299   3.097   9.471  -0.842  0.6609 -0.0386 -1.1180
  462MOL0     C62300   3.157   9.365  -0.857 -0.4125 -0.9253 -0.1227
  462MOL0     C62301   2.647   9.425  -0.278 -0.0714 -0.6173 -0.0786
  462MOL0     C62302   2.626   9.407  -0.140 -0.2335  0.5583  0.2626
  462MOL0     H62303   2.714   9.755   0.322  1.7247 -0.5323 -0.7410
  462MOL0     H62304   2.667   9.759   0.559 -0.4276 -0.3562 -0.0959
  462MOL0     H62305   2.505   9.448   0.760  1.6451 -1.8081  1.1942
  462MOL0     H62306   2.603   9.493   0.880 -0.3085 -3.1189 -1.0928
  462MOL0     H62307   2.408   9.651   0.708 -0.5066  0.3582  0.8241
  462MOL0     H62308   2.394   9.612   0.876 -0.9152 -1.9816 -1.8931
  462MOL0     H62309   2.592   9.810   0.769  1.5124  1.2635  0.6848
  462MOL0     H62310   2.429   9.845   0.843  0.6857 -1.0844  2.4517
  462MOL0     H62311   2.488   9.749   1.046 -2.2393  0.9080 -3.2095
  462MOL0     H62312   2.644   9.692   0.988 -2.1038 -1.0815 -2.9306
  462MOL0     H62313   2.692   9.884   1.111  2.1760  2.6711 -0.6093
  462MOL0     H62314   2.714   9.921   0.944 -1.4432  0.7615 -0.7556
  462MOL0     H62315   2.502  10.041   0.932  0.4447  0.1381  0.1032
  462MOL0     H62316   2.452   9.982   1.094 -2.3041  1.3181 -2.1283
  462MOL0     H62317   2.524  10.227   1.112  1.3233  1.6646 -1.6507
  462MOL0     H62318   2.652  10.125   1.179  0.8145 -1.2837 -1.2992
  462MOL0     H62319   2.672  10.237   0.907  1.8357  0.0229 -0.1559
  462MOL0     H62320   2.776  10.118   0.978 -0.4024 -0.3925  1.7666
  462MOL0     H62321   2.655  10.484   1.000  0.0868 -0.2763 -0.5635
  462MOL0     H62322   2.713  10.669   1.217 -1.1009 -1.6951 -0.3773
  462MOL0     H62323   2.886  10.673   1.250 -1.5075 -0.9243  0.9791
  462MOL0     H62324   2.765  10.692   0.961  1.7760 -0.3567 -1.6093
  462MOL0     H62325   2.932  10.715   1.005  0.2697 -1.3635 -0.5598
  462MOL0     H62326   2.674  10.878   1.082 -0.4499 -0.7941  0.5290
  462MOL0     H62327   2.794  10.930   0.965 -0.6126 -1.8937 -1.2022
  462MOL0     H62328   2.979  10.960   1.125  1.8615 -0.8668  7.6712
  462MOL0     H62329   2.874  10.928   1.248  0.8000  1.2836 -0.2013
  462MOL0     H62330   3.043  11.083   1.326 -0.4852  0.1588  0.4432
  462MOL0     H62331   3.106  11.257   1.620 -0.4402 -0.2024 -1.1461
  462MOL0     H62332   3.156  11.138   1.509 -1.9705 -0.8349 -0.0083
  462MOL0     H62333   3.226  11.296   1.490 -0.8511  0.8286 -1.5843
  462MOL0     H62334   3.132  11.752   1.565  1.1735  1.4733  0.8580
  462MOL0     H62335   3.156  11.964   1.693  0.9738 -2.6552 -2.5686
  462MOL0     H62336   2.827  12.234   1.626  0.9799  2.8491 -2.8367
  462MOL0     H62337   2.889  12.334   1.745  1.1997  0.0535  0.3448
  462MOL0     H62338   3.131  12.283   1.658  0.2294 -0.6715 -0.1825
  462MOL0     H62339   3.058  12.202   1.518 -0.1838 -0.9876  1.5269
  462MOL0     H62340   2.939  12.433   1.457 -1.0308  2.4197  2.2260
  462MOL0     H62341   3.118  12.422   1.449 -0.7177 -1.5266 -0.0952
  462MOL0     H62342   2.951  12.558   1.650  0.8773 -0.7239  0.4418
  462MOL0     H62343   3.119  12.528   1.681 -0.1955  3.2703  0.9055
  462MOL0     H62344   3.027  12.678   1.408  4.8129  1.4601 -3.5722
  462MOL0     H62345   3.185  12.659   1.482 -0.6108 -0.0485  0.3486
  462MOL0     H62346   3.095  12.884   1.516 -2.9220  1.4575 -1.3495
  462MOL0     H62347   2.949  12.822   1.573  1.6553  2.9187 -0.4034
  462MOL0     H62348   3.220  12.794   1.727 -0.0652  2.3992  1.1740
  462MOL0     H62349   3.068  12.733   1.790  3.9530 -3.7022 -0.5256
  462MOL0     H62350   3.087  12.931   1.886  2.0811 -1.5781 -0.5340
  462MOL0     H62351   3.000  12.986   1.734 -0.0803  2.0956  1.2285
  462MOL0     H62352   2.730  12.006   1.704 -0.7021 -0.9947  0.7640
  462MOL0     H62353   2.707  11.780   1.613 -1.0123  1.9868 -0.3182
  462MOL0     H62354   2.781  11.491   1.318 -3.0034 -3.2783 -1.2309
  462MOL0     H62355   2.707  11.323   1.201 -0.4885  0.6038  1.4842
  462MOL0     H62356   2.745   9.346   0.588  4.0614 -0.7437 -1.4697
  462MOL0     H62357   2.787   9.334   0.336  2.4971  2.1405 -2.3945
  462MOL0     H62358   2.855   9.642  -0.040  3.2351 -2.0517 -1.4761
  462MOL0     H62359   2.882   9.667  -0.302  2.5913 -2.8052 -1.3211
  462MOL0     H62360   2.659   9.606  -0.603  0.9061 -1.2218  0.1690
  462MOL0     H62361   2.723   9.706  -0.468 -0.5269  0.3424  0.8313
  462MOL0     H62362   2.945   9.713  -0.571 -0.6755 -0.1722  1.3955
  462MOL0     H62363   2.833   9.748  -0.704  0.8284 -1.2388 -2.8234
  462MOL0     H62364   2.833   9.510  -0.763 -1.8642  0.8717  0.5945
  462MOL0     H62365   2.950   9.480  -0.631  0.9677  0.4505 -0.6837
  462MOL0     H62366   3.096   9.661  -0.748 -1.9057  0.2061  1.2263
  462MOL0     H62367   2.984   9.657  -0.880 -1.4503  1.2506  0.9193
  462MOL0     H62368   3.208   9.271  -0.863  1.3207  0.0449 -1.3947
  462MOL0     H62369   2.588   9.369  -0.350  0.2723 -2.1038  0.7551
  462MOL0     H62370   2.560   9.324  -0.117  0.1759 -0.7870 -2.9770
  463MOL0     O62371   5.631   1.675   0.871  0.3937 -0.1243 -0.2585
  463MOL0     C62372   5.620   1.718   0.988  0.1654  1.0324 -0.2795
  463MOL0     O62373   5.623   1.645   1.110 -1.2363 -0.9299  0.4916
  463MOL0     C62374   5.680   1.521   1.110 -0.5301 -0.0178 -0.4923
  463MOL0     C62375   5.807   1.499   1.044 -1.4452  0.3039  1.1078
  463MOL0     C62376   5.872   1.370   1.052  0.0555 -0.4096  0.7908
  463MOL0     C62377   5.813   1.263   1.112 -0.3172  0.1770 -0.4145
  463MOL0     O62378   5.892   1.149   1.114 -0.3277  0.2560 -0.0418
  463MOL0     C62379   5.841   1.013   1.109 -0.4394 -0.0511  0.1660
  463MOL0     C62380   5.958   0.920   1.130 -1.1818  0.5753  0.3616
  463MOL0     C62381   6.017   0.932   1.273 -0.3255  0.1871  0.4515
  463MOL0     C62382   5.948   0.852   1.385  0.9367 -0.5247  0.5027
  463MOL0     C62383   5.988   0.880   1.533  0.3026  0.0713 -0.0174
  463MOL0     C62384   5.888   0.806   1.631 -0.1746 -0.2867  0.6370
  463MOL0     C62385   5.875   0.894   1.758  0.6824 -0.2478  0.2041
  463MOL0     C62386   5.758   0.983   1.774 -0.5402 -0.3189 -0.7253
  463MOL0     N62387   5.763   1.073   1.662 -0.7408 -0.8984 -0.0997
  463MOL0     C62388   5.858   1.176   1.662 -0.0617  0.6661 -0.6055
  463MOL0     C62389   5.840   1.237   1.540 -1.0175  0.7799  0.8339
  463MOL0     C62390   5.901   1.361   1.494  1.3491 -0.2783 -0.0178
  463MOL0     C62391   5.847   1.493   1.558  0.1044  0.7283 -0.1086
  463MOL0     C62392   5.913   1.623   1.494  0.1393  0.1436  0.0280
  463MOL0     C62393   5.867   1.655   1.355 -0.4871 -0.0765  0.5889
  463MOL0     O62394   5.914   1.784   1.306 -0.1986 -0.1364 -0.4863
  463MOL0     C62395   5.866   1.896   1.366 -0.3007 -0.1265 -0.2155
  463MOL0     C62396   5.939   2.011   1.358 -0.0818 -0.0294  1.0974
  463MOL0     C62397   5.924   2.129   1.426  0.3768 -1.0404  0.2332
  463MOL0     C62398   6.030   2.236   1.401 -1.1419 -0.5513 -0.2162
  463MOL0     C62399   5.803   2.146   1.505  0.6634  0.5575 -1.1786
  463MOL0     C62400   5.767   2.267   1.585 -0.3348  0.8136  0.4262
  463MOL0     O62401   5.843   2.380   1.559  0.3441 -0.6079  0.0335
  463MOL0     C62402   5.807   2.487   1.635  0.8493 -0.7554  0.1282
  463MOL0     C62403   5.891   2.526   1.745  1.0581  0.0504  1.0260
  463MOL0     C62404   5.861   2.639   1.816  0.0839  0.9825 -0.2162
  463MOL0     C62405   5.751   2.717   1.784 -0.1499 -0.6148  0.0227
  463MOL0     O62406   5.723   2.833   1.850  0.3993 -0.2015  0.4214
  463MOL0     C62407   5.720   2.839   2.001  0.2965 -0.0463  1.1093
  463MOL0     C62408   5.702   2.983   2.037 -0.4512 -0.1871  0.4216
  463MOL0     C62409   5.798   3.067   1.955 -0.2555  0.7856 -1.1644
  463MOL0     C62410   5.832   3.201   2.020  0.0005  0.2119  0.3721
  463MOL0     C62411   5.915   3.290   1.923  0.7703  0.1270 -0.4303
  463MOL0     C62412   5.958   3.423   1.990 -0.2392  0.7682  0.0013
  463MOL0     C62413   6.075   3.416   2.091  0.8040  0.0611 -0.2086
  463MOL0     C62414   6.075   3.531   2.193 -0.4998  0.4140 -0.1301
  463MOL0    Cl62415   5.926   3.534   2.298 -0.2637  0.2978 -0.4500
  463MOL0     C62416   5.660   2.679   1.687 -0.4407  0.3989  1.2514
  463MOL0     C62417   5.688   2.561   1.609  0.5862 -0.5621  0.3116
  463MOL0     O62418   5.674   2.256   1.663  0.0516  0.3822  0.2392
  463MOL0     C62419   5.723   2.029   1.517  0.9521 -0.8072  0.3395
  463MOL0     C62420   5.751   1.915   1.446  0.1234  0.7358 -0.5824
  463MOL0     N62421   5.750   1.158   1.470  0.5024  1.2208 -0.8082
  463MOL0     N62422   5.690   1.075   1.547  0.8705 -0.6183  0.7506
  463MOL0     C62423   5.689   1.274   1.176 -0.2165 -0.1798 -0.0742
  463MOL0     C62424   5.626   1.399   1.171 -0.5188 -0.0900 -0.0572
  463MOL0     C62425   5.626   1.860   1.000  0.0120 -1.0687 -0.6639
  463MOL0     C62426   5.658   1.926   1.121  0.1764 -0.1569  0.7454
  463MOL0     C62427   5.665   2.068   1.135  0.1140 -0.2951 -0.2637
  463MOL0     C62428   5.641   2.147   1.024 -0.0120  0.0205 -0.3699
  463MOL0     O62429   5.652   2.282   1.022 -0.1036 -0.0803 -0.6690
  463MOL0     C62430   5.675   2.349   1.148 -0.5370 -0.0204  0.5373
  463MOL0     C62431   5.632   2.495   1.128 -0.4735  0.3468 -0.0167
  463MOL0     C62432   5.705   2.583   1.236  0.0187 -0.8334 -0.5448
  463MOL0     C62433   5.625   2.707   1.277 -0.2146 -0.7394 -0.2923
  463MOL0     C62434   5.689   2.799   1.370  0.6094 -0.3029 -0.5300
  463MOL0     C62435   5.743   2.879   1.441 -0.1419 -0.2652 -0.4189
  463MOL0     C62436   5.604   2.073   0.907 -0.4665  0.9968 -0.5964
  463MOL0     C62437   5.609   1.939   0.890  0.9156 -0.2653  0.2018
  463MOL0     H62438   5.872   1.579   1.008 -0.7970 -1.7401 -2.8520
  463MOL0     H62439   5.970   1.364   1.007 -0.8258  0.1770 -1.3553
  463MOL0     H62440   5.765   1.004   1.188  1.3881 -0.8820  1.9318
  463MOL0     H62441   5.796   0.991   1.012  2.3146  1.5016 -1.5882
  463MOL0     H62442   5.937   0.818   1.098 -1.2132  0.8724 -0.6131
  463MOL0     H62443   6.034   0.961   1.062 -0.6024  1.3000  1.4096
  463MOL0     H62444   6.122   0.903   1.262  0.3241  2.5905 -0.3063
  463MOL0     H62445   6.024   1.035   1.309  2.1362 -0.0868  0.8954
  463MOL0     H62446   5.841   0.870   1.371  1.0844  0.2557  0.3149
  463MOL0     H62447   5.966   0.746   1.364 -0.3635 -0.7739  0.5485
  463MOL0     H62448   6.092   0.852   1.556  0.9786  1.6128 -0.9899
  463MOL0     H62449   5.982   0.988   1.550  0.8792  0.4480 -1.9458
  463MOL0     H62450   5.789   0.784   1.589  0.9722 -0.6445 -2.0931
  463MOL0     H62451   5.932   0.709   1.656 -1.1185 -1.0149 -0.4212
  463MOL0     H62452   5.885   0.829   1.845  0.9996 -1.3423 -0.6184
  463MOL0     H62453   5.962   0.959   1.772 -1.6276  2.3870  4.0059
  463MOL0     H62454   5.763   1.032   1.872  1.8563 -0.4514 -0.7244
  463MOL0     H62455   5.668   0.921   1.781  0.3216 -1.5912 -0.2933
  463MOL0     H62456   5.916   1.220   1.742 -1.8914  3.8290 -0.8364
  463MOL0     H62457   6.010   1.364   1.508  1.2109  1.1932  0.9141
  463MOL0     H62458   5.886   1.359   1.385  1.4203 -1.2183 -0.0175
  463MOL0     H62459   5.853   1.480   1.667 -1.6072 -1.6338 -0.2132
  463MOL0     H62460   5.739   1.487   1.539  0.3608 -4.6033 -1.4838
  463MOL0     H62461   6.020   1.611   1.514  0.2062  3.3094  2.3058
  463MOL0     H62462   5.896   1.709   1.560  2.0485  1.3031 -0.9101
  463MOL0     H62463   5.758   1.646   1.348 -0.3425 -0.1441 -2.7369
  463MOL0     H62464   5.899   1.564   1.305  0.2827 -1.4772  3.3892
  463MOL0     H62465   6.034   2.002   1.308  0.6872 -0.6844  2.6111
  463MOL0     H62466   6.087   2.220   1.309  0.0750  4.1324 -0.5486
  463MOL0     H62467   5.990   2.336   1.383  2.0514  1.2986  1.9479
  463MOL0     H62468   6.093   2.263   1.486 -1.8934  4.4107 -0.8965
  463MOL0     H62469   5.974   2.459   1.764 -0.2090 -2.4188 -1.5392
  463MOL0     H62470   5.921   2.658   1.904 -0.1015 -0.8625  0.3620
  463MOL0     H62471   5.642   2.771   2.037  1.1326 -1.6300  0.0235
  463MOL0     H62472   5.817   2.804   2.038  0.9766  0.2456 -0.3466
  463MOL0     H62473   5.600   3.020   2.034  0.1586  2.8187  5.3180
  463MOL0     H62474   5.726   3.001   2.142  0.2078 -3.1554  0.8743
  463MOL0     H62475   5.756   3.081   1.855  2.9102 -1.5599 -3.0133
  463MOL0     H62476   5.886   3.004   1.939 -0.4420  0.3500 -0.5009
  463MOL0     H62477   5.736   3.243   2.051 -0.7607  1.6379 -3.4220
  463MOL0     H62478   5.881   3.180   2.115 -0.6382  0.0026  0.6635
  463MOL0     H62479   5.869   3.322   1.829 -0.8620  0.5030  0.4479
  463MOL0     H62480   6.003   3.236   1.888  1.4838  0.7572  0.3452
  463MOL0     H62481   5.994   3.485   1.907  2.1367 -1.1676 -0.4988
  463MOL0     H62482   5.874   3.472   2.041 -1.1467 -0.8988  0.1577
  463MOL0     H62483   6.174   3.417   2.045  1.3597 -0.8012  0.9121
  463MOL0     H62484   6.061   3.323   2.148  2.7736 -0.0611  0.1296
  463MOL0     H62485   6.089   3.628   2.144  2.5534  0.5320  0.7811
  463MOL0     H62486   6.160   3.527   2.262  0.5132 -0.5542 -1.3976
  463MOL0     H62487   5.579   2.748   1.670  1.1571  2.0089 -0.2510
  463MOL0     H62488   5.623   2.524   1.531 -0.0783 -2.6790  1.7958
  463MOL0     H62489   5.631   2.028   1.574  0.7046  0.4644 -0.0064
  463MOL0     H62490   5.691   1.825   1.458  1.9643 -0.9693 -3.1489
  463MOL0     H62491   5.646   1.185   1.221 -1.5126  0.3925 -0.1546
  463MOL0     H62492   5.528   1.383   1.216 -0.2429 -1.5792  0.0765
  463MOL0     H62493   5.678   1.856   1.201  0.9609  0.0434  0.7289
  463MOL0     H62494   5.697   2.109   1.231 -1.3222  2.9472 -1.0333
  463MOL0     H62495   5.612   2.303   1.224 -0.6116 -1.0180 -0.1134
  463MOL0     H62496   5.778   2.342   1.182 -1.1303 -0.7981  2.2675
  463MOL0     H62497   5.525   2.516   1.138 -0.6924 -0.4311 -0.6129
  463MOL0     H62498   5.675   2.518   1.030  6.2621 -2.5053  1.7013
  463MOL0     H62499   5.796   2.624   1.192  0.8230 -0.6283  1.2132
  463MOL0     H62500   5.737   2.530   1.327  2.0900 -0.5418 -1.0580
  463MOL0     H62501   5.527   2.683   1.320  0.6963 -3.8159  0.3605
  463MOL0     H62502   5.623   2.775   1.192 -1.3474  1.6209  1.5095
  463MOL0     H62503   5.795   2.945   1.507 -1.2976 -1.2411  1.5512
  463MOL0     H62504   5.569   2.132   0.823  0.8860  1.7975 -0.6241
  463MOL0     H62505   5.584   1.889   0.797  0.6775  1.0422 -0.4618
  464MOL0     O62506   3.530   3.487  11.284 -0.5367 -0.4252 -0.6248
  464MOL0     C62507   3.643   3.447  11.320 -0.3407  0.6569  0.0361
  464MOL0     O62508   3.749   3.436  11.242 -0.6349  0.1488  0.3199
  464MOL0     C62509   3.760   3.491  11.117  0.0714 -0.0095  0.6570
  464MOL0     C62510   3.686   3.447  11.003  0.5266 -0.3705 -0.0360
  464MOL0     C62511   3.696   3.506  10.879 -0.4018  0.3871  0.2151
  464MOL0     C62512   3.788   3.616  10.863  0.9814  0.6276  1.0588
  464MOL0     O62513   3.789   3.678  10.737  1.1844  0.1834  0.6652
  464MOL0     C62514   3.887   3.778  10.719  0.4221  0.5177 -0.3826
  464MOL0     C62515   3.883   3.827  10.574  0.5816  0.2901  0.2140
  464MOL0     C62516   3.744   3.871  10.526 -0.6849 -0.1891  1.0349
  464MOL0     C62517   3.755   3.926  10.387 -0.9231 -0.0812  0.9610
  464MOL0     C62518   3.616   3.964  10.325 -0.0097 -0.4403 -0.3892
  464MOL0     C62519   3.575   4.103  10.352 -0.5645 -0.0524 -0.5420
  464MOL0     C62520   3.425   4.112  10.379 -0.6975  0.1906 -0.0151
  464MOL0     C62521   3.376   4.249  10.427 -0.1515 -0.5616 -0.2330
  464MOL0     N62522   3.430   4.299  10.554 -0.4155 -0.2117  0.2082
  464MOL0     C62523   3.427   4.226  10.676  0.0186  0.5447  0.7394
  464MOL0     C62524   3.513   4.294  10.746 -0.8485 -0.2721 -0.1473
  464MOL0     C62525   3.541   4.262  10.892 -0.2875  0.3757  0.8715
  464MOL0     C62526   3.426   4.301  10.995  0.1472 -0.2511 -0.7427
  464MOL0     C62527   3.483   4.304  11.134 -0.0358 -0.0322 -0.0820
  464MOL0     C62528   3.386   4.341  11.245  0.0375 -0.5487  0.3786
  464MOL0     O62529   3.276   4.241  11.261 -0.1115  0.5205  0.3936
  464MOL0     C62530   3.272   4.165  11.366  0.5657 -0.5207 -1.0961
  464MOL0     C62531   3.320   4.201  11.494  0.6648 -0.6138 -0.2875
  464MOL0     C62532   3.316   4.107  11.594  0.3821  0.2925 -0.3716
  464MOL0     C62533   3.391   4.140  11.719  0.0232  0.0911  1.2523
  464MOL0     C62534   3.254   3.985  11.583  1.1105 -0.6103  0.0469
  464MOL0     C62535   3.233   3.872  11.679  0.1177 -0.3587  0.2433
  464MOL0     O62536   3.225   3.749  11.624  0.2490  0.9948  0.4984
  464MOL0     C62537   3.191   3.630  11.692 -1.9295 -0.3687  0.0067
  464MOL0     C62538   3.129   3.519  11.626 -0.8073 -0.0330  0.1197
  464MOL0     C62539   3.075   3.413  11.697  0.3772  0.8308 -0.1165
  464MOL0     C62540   3.136   3.384  11.819 -0.3905  0.1705 -0.4585
  464MOL0     O62541   3.104   3.266  11.897  0.1148  0.3197  0.4003
  464MOL0     C62542   3.036   3.159  11.834  0.0846  0.4157 -0.6277
  464MOL0     C62543   3.080   3.029  11.909  0.5667  0.1178 -0.0062
  464MOL0     C62544   3.026   2.903  11.835 -0.2578 -0.5219  0.6700
  464MOL0     C62545   3.056   2.766  11.908  0.3755 -0.2936  0.2338
  464MOL0     C62546   3.003   2.646  11.837 -0.4622  0.5165  0.2877
  464MOL0     C62547   3.066   2.612  11.709 -0.1066 -0.3261  0.0948
  464MOL0     C62548   3.023   2.477  11.637  0.1171 -0.6916 -0.5701
  464MOL0     C62549   2.876   2.443  11.604 -0.7931  0.8045 -0.5437
  464MOL0    Cl62550   2.764   2.585  11.608  0.2743  0.3488  0.8757
  464MOL0     C62551   3.217   3.478  11.887  0.5338  1.9096  0.3050
  464MOL0     C62552   3.239   3.604  11.821  0.1448 -0.9924  1.0223
  464MOL0     O62553   3.236   3.892  11.800  0.2020 -0.7311  0.1031
  464MOL0     C62554   3.204   3.956  11.456  0.0776  0.3376 -0.6447
  464MOL0     C62555   3.219   4.043  11.355 -0.0657 -0.8578  0.7520
  464MOL0     N62556   3.546   4.415  10.695  0.7498  0.2234  0.1030
  464MOL0     N62557   3.503   4.414  10.575  1.1268 -0.7061 -1.0239
  464MOL0     C62558   3.879   3.645  10.969  0.1085  0.1887  0.2348
  464MOL0     C62559   3.858   3.593  11.102 -0.5848  0.1104  0.2439
  464MOL0     C62560   3.667   3.430  11.459 -0.6906  0.3918  0.0935
  464MOL0     C62561   3.774   3.346  11.506 -0.5420 -0.6350  0.0680
  464MOL0     C62562   3.794   3.309  11.637  1.2225  0.1724  0.0002
  464MOL0     C62563   3.708   3.361  11.735  0.4709  0.4112 -0.2169
  464MOL0     O62564   3.728   3.318  11.870  0.3116 -0.1451  0.2693
  464MOL0     C62565   3.712   3.403  11.982  0.5097 -0.4283  0.5562
  464MOL0     C62566   3.752   3.313  12.094  0.2966  0.2686 -0.1444
  464MOL0     C62567   3.730   3.379  12.236  0.4923 -0.4348  0.5519
  464MOL0     C62568   3.587   3.420  12.266  0.1004 -1.3797 -0.4230
  464MOL0     C62569   3.498   3.304  12.251 -0.0308  0.7330  0.1426
  464MOL0     C62570   3.428   3.210  12.229 -1.1683  1.4915 -0.5957
  464MOL0     C62571   3.602   3.445  11.694 -0.1839 -0.6475 -0.1478
  464MOL0     C62572   3.578   3.470  11.559  0.3751 -0.0316 -0.6379
  464MOL0     H62573   3.612   3.367  11.013 -1.3123  1.0949 -1.2313
  464MOL0     H62574   3.631   3.496  10.793  1.0082  4.1962 -1.4863
  464MOL0     H62575   3.873   3.863  10.786 -0.3090  2.9594 -3.3762
  464MOL0     H62576   3.984   3.730  10.733 -0.4878 -0.5208  4.0611
  464MOL0     H62577   3.954   3.905  10.548 -0.4115  0.9653 -0.5453
  464MOL0     H62578   3.909   3.738  10.515  1.5730  0.2880  0.6323
  464MOL0     H62579   3.672   3.789  10.526 -1.3868  0.3777 -0.6068
  464MOL0     H62580   3.702   3.953  10.585  0.5352  0.6508  0.7787
  464MOL0     H62581   3.828   4.001  10.355 -0.9932 -1.8829 -4.5163
  464MOL0     H62582   3.790   3.837  10.334  0.8905  1.4502 -0.5401
  464MOL0     H62583   3.610   3.942  10.218 -1.5998 -1.0192 -0.2102
  464MOL0     H62584   3.553   3.887  10.370  2.9337 -4.3970 -2.4106
  464MOL0     H62585   3.627   4.144  10.439 -1.5953  1.1604 -0.4646
  464MOL0     H62586   3.597   4.160  10.261 -3.3890 -0.4977 -1.6032
  464MOL0     H62587   3.368   4.071  10.295  2.1945 -2.8378 -0.7031
  464MOL0     H62588   3.413   4.038  10.460 -2.7456  0.2323 -0.2313
  464MOL0     H62589   3.267   4.245  10.437 -0.4491  0.3989 -2.4826
  464MOL0     H62590   3.390   4.317  10.342  0.5746 -0.0252  0.2991
  464MOL0     H62591   3.368   4.138  10.700 -1.4715  1.8343  2.0504
  464MOL0     H62592   3.564   4.156  10.900  0.2209  0.5102  1.2040
  464MOL0     H62593   3.631   4.318  10.918  0.7039 -1.8732  2.5233
  464MOL0     H62594   3.353   4.220  10.981  0.9129 -0.8233 -1.5225
  464MOL0     H62595   3.378   4.398  10.977  1.3370  0.4724 -0.0915
  464MOL0     H62596   3.557   4.384  11.125 -0.3174  0.1823 -0.5492
  464MOL0     H62597   3.528   4.206  11.152 -1.9231 -0.8282  0.5681
  464MOL0     H62598   3.341   4.438  11.222  1.0243 -0.5761 -1.9100
  464MOL0     H62599   3.433   4.362  11.341  0.6352 -1.2191  0.2379
  464MOL0     H62600   3.371   4.293  11.520 -1.6250  0.4549  0.7566
  464MOL0     H62601   3.323   4.159  11.802  0.0090  0.0751  1.2452
  464MOL0     H62602   3.458   4.059  11.749 -0.8239 -1.2584 -0.2720
  464MOL0     H62603   3.458   4.225  11.713  2.6843 -1.9632 -2.4272
  464MOL0     H62604   3.085   3.540  11.530 -1.6286 -0.1388  0.4626
  464MOL0     H62605   3.009   3.343  11.648  2.8671 -0.9084 -1.1789
  464MOL0     H62606   2.928   3.173  11.845  0.3348  1.2143  1.1655
  464MOL0     H62607   3.055   3.146  11.727 -1.6921  3.4914 -1.4496
  464MOL0     H62608   3.186   3.012  11.887  0.6816  0.4810  0.2647
  464MOL0     H62609   3.048   3.030  12.014 -0.7397  2.3933 -0.3714
  464MOL0     H62610   3.068   2.905  11.734 -0.7072 -0.3185  0.4820
  464MOL0     H62611   2.918   2.922  11.838 -0.3340 -0.7324 -0.4683
  464MOL0     H62612   3.159   2.746  11.940  0.2345 -0.2929  0.7027
  464MOL0     H62613   3.009   2.775  12.007 -1.4842  4.3413 -0.8280
  464MOL0     H62614   2.897   2.664  11.821 -0.7285 -0.2169  1.1942
  464MOL0     H62615   3.014   2.559  11.902 -1.7305 -0.7730 -1.1382
  464MOL0     H62616   3.057   2.701  11.645  1.9361  0.0963  0.3241
  464MOL0     H62617   3.172   2.595  11.733 -0.5836  0.3290  2.9947
  464MOL0     H62618   3.050   2.389  11.695 -1.8323  0.5075  2.3747
  464MOL0     H62619   3.071   2.469  11.539  3.4572 -1.4532  0.9816
  464MOL0     H62620   2.850   2.362  11.673  1.7443 -0.8896 -1.4301
  464MOL0     H62621   2.870   2.390  11.508 -4.7138 -2.1958  1.1001
  464MOL0     H62622   3.260   3.458  11.985  2.5014 -0.5460 -0.9454
  464MOL0     H62623   3.291   3.683  11.875 -2.5003  1.5821  0.0828
  464MOL0     H62624   3.150   3.864  11.439 -0.9737  0.0306  3.3275
  464MOL0     H62625   3.190   4.024  11.253 -0.6435 -3.1010  1.2840
  464MOL0     H62626   3.953   3.724  10.961  0.6894 -0.3222  0.4027
  464MOL0     H62627   3.919   3.634  11.182 -1.2690  0.8664  0.3889
  464MOL0     H62628   3.837   3.303  11.429 -2.2545 -1.5086 -0.8894
  464MOL0     H62629   3.878   3.248  11.670  2.3506  1.1818 -0.9444
  464MOL0     H62630   3.780   3.489  11.987 -0.1317  0.0144  3.3426
  464MOL0     H62631   3.614   3.450  11.986  0.9691  1.1894 -3.1749
  464MOL0     H62632   3.855   3.278  12.077  0.1304 -0.1867 -0.2286
  464MOL0     H62633   3.694   3.220  12.090  1.1251 -0.2293 -1.5026
  464MOL0     H62634   3.807   3.452  12.261  0.2292  0.2091 -0.4893
  464MOL0     H62635   3.745   3.304  12.315  0.6254 -2.8158 -1.5846
  464MOL0     H62636   3.563   3.499  12.194  1.4004 -0.4740  0.0813
  464MOL0     H62637   3.582   3.470  12.363  1.5582  0.2283 -1.1131
  464MOL0     H62638   3.370   3.121  12.215  1.0669 -0.2719  0.5999
  464MOL0     H62639   3.523   3.488  11.755 -1.2297 -1.9092 -0.5779
  464MOL0     H62640   3.489   3.525  11.530  0.7087  0.0132 -1.5997
  465MOL0     O62641   9.659   9.917  10.505 -0.4216 -0.3134  0.2647
  465MOL0     C62642   9.677   9.903  10.387  0.4856  0.9486  0.4052
  465MOL0     O62643   9.578   9.875  10.299 -0.3630  0.4048 -0.3448
  465MOL0     C62644   9.448   9.853  10.345  0.8954 -0.8957  0.4175
  465MOL0     C62645   9.408   9.746  10.418  0.2942  0.1340  0.3682
  465MOL0     C62646   9.273   9.723  10.441 -0.0606  0.0710  0.3041
  465MOL0     C62647   9.176   9.804  10.381 -0.2208 -1.8146  0.2284
  465MOL0     O62648   9.049   9.777  10.399  0.4393  0.0885  0.1877
  465MOL0     C62649   8.985   9.826  10.515 -0.1338  0.4823 -0.3277
  465MOL0     C62650   8.840   9.801  10.519  0.2506 -0.3581  0.6877
  465MOL0     C62651   8.757   9.842  10.394 -0.3856  0.1962 -1.0182
  465MOL0     C62652   8.610   9.808  10.416 -0.4684 -0.4039 -0.5572
  465MOL0     C62653   8.539   9.796  10.291  0.4097  0.3067  0.4683
  465MOL0     C62654   8.501   9.928  10.222  0.6592 -0.1296  0.2449
  465MOL0     C62655   8.385   9.906  10.117  0.0959  0.7712  0.0865
  465MOL0     C62656   8.397   9.800  10.002  0.1928  0.4045  0.1108
  465MOL0     N62657   8.519   9.840   9.924 -0.3819 -0.3695  0.5252
  465MOL0     C62658   8.652   9.820   9.955  0.2464 -0.0228 -0.5407
  465MOL0     C62659   8.719   9.885   9.856  0.2759  0.3684 -0.4348
  465MOL0     C62660   8.868   9.882   9.847  0.1135  0.4187  0.6053
  465MOL0     C62661   8.931  10.013   9.900 -0.0050  0.7698 -0.9140
  465MOL0     C62662   8.878  10.069  10.032  0.5244 -0.8281  0.6497
  465MOL0     C62663   8.994  10.164  10.073  0.5825 -0.7561 -0.6606
  465MOL0     O62664   8.971  10.224  10.205  0.6928  0.6668  0.6889
  465MOL0     C62665   8.860  10.309  10.223  0.0853 -0.1182 -0.9708
  465MOL0     C62666   8.787  10.386  10.136  0.4855 -1.2548  0.1345
  465MOL0     C62667   8.679  10.462  10.182 -0.3115  0.0049  0.0541
  465MOL0     C62668   8.624  10.569  10.096  0.0251 -0.3321 -0.5904
  465MOL0     C62669   8.651  10.459  10.332  0.7484 -0.2759  0.6150
  465MOL0     C62670   8.541  10.530  10.391 -0.4017 -0.0974  0.0915
  465MOL0     O62671   8.547  10.563  10.529  0.2862 -0.1456 -0.1455
  465MOL0     C62672   8.439  10.614  10.604  0.3513 -0.3263  0.0981
  465MOL0     C62673   8.478  10.649  10.731  1.1235 -0.7699 -0.4887
  465MOL0     C62674   8.372  10.701  10.817  0.0157 -0.2172 -0.4721
  465MOL0     C62675   8.246  10.722  10.771 -0.0026  0.1391 -0.1025
  465MOL0     O62676   8.167  10.783  10.865  0.0157  0.8152  0.3215
  465MOL0     C62677   8.043  10.848  10.823 -0.4154 -0.2930  0.5891
  465MOL0     C62678   7.975  10.912  10.946  0.2741 -0.3776  0.9601
  465MOL0     C62679   7.853  11.005  10.924  0.6677 -0.5442  0.6306
  465MOL0     C62680   7.817  11.091  11.045  0.9108  0.6183  1.1308
  465MOL0     C62681   7.701  11.186  11.012 -0.3490 -0.1090 -0.0930
  465MOL0     C62682   7.562  11.122  11.019 -0.0198  0.5265 -0.6130
  465MOL0     C62683   7.436  11.206  11.055 -0.7782 -0.0419  0.0404
  465MOL0     C62684   7.451  11.246  11.204  0.2122 -0.1272  0.5303
  465MOL0    Cl62685   7.296  11.332  11.241  0.6661  0.1232 -0.3110
  465MOL0     C62686   8.210  10.691  10.640 -0.0052  0.0077  0.3055
  465MOL0     C62687   8.307  10.634  10.561 -0.3529  0.2203 -0.4176
  465MOL0     O62688   8.450  10.556  10.317  1.2506  0.9482 -0.2330
  465MOL0     C62689   8.735  10.390  10.418 -0.0414  0.1675 -0.6631
  465MOL0     C62690   8.834  10.315  10.363 -0.9177 -0.8932 -0.9329
  465MOL0     N62691   8.625   9.948   9.770 -0.6635  0.1847 -0.1990
  465MOL0     N62692   8.509   9.925   9.809 -0.1424 -0.1533  0.0908
  465MOL0     C62693   9.222   9.923  10.333  0.2073  0.8799  0.6532
  465MOL0     C62694   9.356   9.958  10.327  0.1573 -0.1357 -0.9431
  465MOL0     C62695   9.810   9.919  10.345  0.2206 -0.5057  0.5881
  465MOL0     C62696   9.858   9.876  10.225 -1.2654 -0.5130  0.4442
  465MOL0     C62697   9.993   9.896  10.190 -0.0936  0.2034 -0.3329
  465MOL0     C62698  10.075   9.985  10.261 -0.3601 -0.4274  0.5150
  465MOL0     O62699  10.203  10.021  10.206  0.0175 -0.4589 -0.2631
  465MOL0     C62700  10.305  10.086  10.290 -0.5913  0.7048  0.8667
  465MOL0     C62701  10.361  10.002  10.411 -0.1150 -0.2230  0.0805
  465MOL0     C62702  10.486  10.074  10.459  0.3771  0.1441  0.0785
  465MOL0     C62703  10.606  10.036  10.380  0.2608  0.6809 -0.4528
  465MOL0     C62704  10.726  10.087  10.452 -0.3906 -0.1740  0.4052
  465MOL0     C62705  10.832  10.117  10.490 -0.3413 -0.1212  0.2099
  465MOL0     C62706  10.026  10.047  10.369  0.7233  0.1746  0.4795
  465MOL0     C62707   9.896  10.016  10.406 -0.5381 -0.6319  0.2347
  465MOL0     H62708   9.498   9.690  10.444  3.2778  3.4214 -1.8563
  465MOL0     H62709   9.254   9.631  10.496 -0.8210  0.6996  1.1319
  465MOL0     H62710   9.017   9.783  10.611 -0.1587  1.4008  0.1089
  465MOL0     H62711   9.013   9.932  10.522  2.5522 -0.2691  1.8580
  465MOL0     H62712   8.826   9.693  10.528 -1.2326 -0.3276 -0.6503
  465MOL0     H62713   8.800   9.843  10.612 -3.3854 -2.2628  0.1997
  465MOL0     H62714   8.758   9.951  10.390  3.1149  0.5841  2.6985
  465MOL0     H62715   8.798   9.806  10.299 -1.3067 -0.3188 -1.2244
  465MOL0     H62716   8.603   9.717  10.477 -1.3309 -0.2929 -0.4785
  465MOL0     H62717   8.573   9.884  10.486  0.3803  0.7592 -1.3343
  465MOL0     H62718   8.595   9.722  10.232  0.0405 -0.1301  0.6588
  465MOL0     H62719   8.448   9.739  10.308  0.7211 -1.3747 -2.6686
  465MOL0     H62720   8.468  10.006  10.291 -0.6173 -0.8841  0.5144
  465MOL0     H62721   8.588   9.967  10.168  1.1542 -3.2625 -1.4966
  465MOL0     H62722   8.293   9.883  10.170 -0.0091 -0.0256 -0.4111
  465MOL0     H62723   8.375   9.999  10.061  1.7548 -0.3425 -2.2936
  465MOL0     H62724   8.306   9.806   9.941 -0.5387  5.6052  1.2226
  465MOL0     H62725   8.419   9.704  10.050  2.3440  0.7068 -0.1774
  465MOL0     H62726   8.709   9.759  10.024 -1.1016 -0.3168  0.3601
  465MOL0     H62727   8.909   9.805   9.914  0.1158 -1.8064 -1.7748
  465MOL0     H62728   8.900   9.847   9.748 -2.8945 -1.2226  0.1083
  465MOL0     H62729   8.912  10.085   9.819  1.4419  0.8300 -1.2280
  465MOL0     H62730   9.036   9.987   9.914 -0.8587 -1.5337  2.4998
  465MOL0     H62731   8.868   9.998  10.114  0.6158 -2.4512 -0.6807
  465MOL0     H62732   8.791  10.135  10.023 -0.4287 -2.0603  0.7309
  465MOL0     H62733   9.018  10.235   9.993 -1.3094 -0.0289 -0.6243
  465MOL0     H62734   9.080  10.097  10.087  1.4546  0.8676  2.8041
  465MOL0     H62735   8.830  10.401  10.038 -1.4423 -1.8869 -0.8564
  465MOL0     H62736   8.692  10.571  10.010  1.3154  1.2676  0.4038
  465MOL0     H62737   8.519  10.551  10.073 -0.1275 -0.4286  0.1696
  465MOL0     H62738   8.644  10.660  10.154 -1.1327  0.5481 -1.5322
  465MOL0     H62739   8.578  10.634  10.770  0.9475  1.1521  0.8091
  465MOL0     H62740   8.405  10.747  10.909 -1.0734  0.5393 -0.4451
  465MOL0     H62741   8.053  10.928  10.749  1.0338  2.8967  3.9112
  465MOL0     H62742   7.979  10.773  10.776  0.5363 -1.1706  0.6404
  465MOL0     H62743   7.941  10.836  11.017 -1.6035 -0.4116  0.0785
  465MOL0     H62744   8.054  10.970  10.996  1.3081  1.0759 -2.1538
  465MOL0     H62745   7.770  10.939  10.896 -0.8901  1.9329 -1.0768
  465MOL0     H62746   7.880  11.066  10.838 -0.4408  0.6867  1.1042
  465MOL0     H62747   7.786  11.023  11.125 -1.4299 -0.1186 -0.3145
  465MOL0     H62748   7.907  11.139  11.085  2.4545 -1.5150  0.4496
  465MOL0     H62749   7.715  11.251  10.925  4.2918 -0.5663  0.0733
  465MOL0     H62750   7.704  11.253  11.099  1.6525  1.8492 -1.5638
  465MOL0     H62751   7.534  11.069  10.928 -0.7534  0.4453 -0.3463
  465MOL0     H62752   7.568  11.047  11.099  2.4474 -0.4780 -1.6291
  465MOL0     H62753   7.341  11.153  11.046 -0.7129 -0.7772  2.8318
  465MOL0     H62754   7.436  11.288  10.983 -0.9915 -1.9695 -2.2947
  465MOL0     H62755   7.537  11.310  11.221 -1.1072  1.9129 -0.1009
  465MOL0     H62756   7.461  11.163  11.275 -0.5530  0.0883  0.9130
  465MOL0     H62757   8.114  10.707  10.592  0.3911  1.5899 -0.0160
  465MOL0     H62758   8.276  10.623  10.457  1.0230 -0.8788 -0.7526
  465MOL0     H62759   8.732  10.391  10.526  1.7450  1.9931 -0.5875
  465MOL0     H62760   8.892  10.262  10.438 -3.8729 -0.8026  1.6047
  465MOL0     H62761   9.134   9.982  10.309 -0.8078 -0.2512  1.5160
  465MOL0     H62762   9.385  10.051  10.279  2.7012 -1.1969 -1.6526
  465MOL0     H62763   9.803   9.811  10.157 -1.8382  1.3997 -1.0455
  465MOL0     H62764  10.042   9.841  10.110  4.4340  1.0101  1.5499
  465MOL0     H62765  10.387  10.101  10.219 -1.2338  1.5769  0.2884
  465MOL0     H62766  10.275  10.185  10.327 -0.6992 -0.3051  3.7881
  465MOL0     H62767  10.386   9.898  10.385  1.4023  0.8788 -3.5224
  465MOL0     H62768  10.294   9.990  10.497 -0.1455 -1.6131 -0.1091
  465MOL0     H62769  10.496  10.038  10.562 -3.1520 -3.9024 -0.7047
  465MOL0     H62770  10.473  10.182  10.470 -1.4873  0.0555 -0.8339
  465MOL0     H62771  10.606  10.080  10.280  1.3830 -0.0982 -0.8196
  465MOL0     H62772  10.604   9.927  10.370 -2.4349  0.8149 -2.4133
  465MOL0     H62773  10.924  10.134  10.543 -0.5472 -1.3834  1.0027
  465MOL0     H62774  10.084  10.118  10.428 -1.8612  1.1220  2.0514
  465MOL0     H62775   9.857  10.078  10.486 -2.3432 -2.7706  1.1385
  466MOL0     O62776   3.608  10.718   9.714  0.4900  0.6560 -0.0144
  466MOL0     C62777   3.669  10.800   9.780 -0.1198  0.4056 -0.7961
  466MOL0     O62778   3.612  10.897   9.861  0.1985  0.0877 -0.1282
  466MOL0     C62779   3.482  10.923   9.850 -0.2307  0.0840 -1.1206
  466MOL0     C62780   3.391  10.842   9.913  0.1362 -1.1570 -0.0871
  466MOL0     C62781   3.254  10.864   9.889  1.0377  1.5885  0.5571
  466MOL0     C62782   3.204  10.959   9.797  0.2950 -0.6515  0.4233
  466MOL0     O62783   3.069  10.957   9.785  0.1924 -0.1315 -0.4180
  466MOL0     C62784   2.998  11.074   9.814  0.5549 -0.2106  1.1969
  466MOL0     C62785   2.857  11.051   9.751 -0.3489 -1.6738 -0.4709
  466MOL0     C62786   2.787  11.186   9.756  0.1990  0.5586  0.2183
  466MOL0     C62787   2.655  11.197   9.681 -0.3776  0.3223  0.1752
  466MOL0     C62788   2.583  11.330   9.707 -0.7653 -0.3703  0.3599
  466MOL0     C62789   2.499  11.341   9.834 -0.3814  0.8297  0.0809
  466MOL0     C62790   2.409  11.470   9.839 -0.0530  0.9407 -0.1842
  466MOL0     C62791   2.485  11.598   9.866 -0.2723 -0.1590  0.2141
  466MOL0     N62792   2.402  11.719   9.848 -0.1020 -0.6064  0.1481
  466MOL0     C62793   2.445  11.846   9.820 -0.0866 -0.6616  0.2923
  466MOL0     C62794   2.344  11.914   9.767 -0.4562 -1.0155  0.4874
  466MOL0     C62795   2.365  12.060   9.737 -0.4339  0.1966 -0.4133
  466MOL0     C62796   2.263  12.093   9.617 -0.3933 -0.1433 -0.5264
  466MOL0     C62797   2.300  12.027   9.490 -0.1149  0.3641 -0.5486
  466MOL0     C62798   2.258  12.114   9.372 -0.3985  0.3662 -0.7311
  466MOL0     O62799   2.291  12.038   9.253  0.3856 -0.5980 -0.1648
  466MOL0     C62800   2.297  12.108   9.139  0.4542 -1.5779  0.1415
  466MOL0     C62801   2.234  12.229   9.108  0.2527 -0.4266 -0.0656
  466MOL0     C62802   2.261  12.289   8.988  0.7269  0.2045  1.2802
  466MOL0     C62803   2.209  12.438   8.979 -1.1875 -0.6874  0.0500
  466MOL0     C62804   2.343  12.234   8.891  0.6570  0.0833 -0.9935
  466MOL0     C62805   2.358  12.289   8.764  0.3409 -0.6044  0.8005
  466MOL0     O62806   2.268  12.384   8.724 -0.1984 -0.8474 -0.0856
  466MOL0     C62807   2.290  12.429   8.598  0.0273  0.1649 -0.2887
  466MOL0     C62808   2.383  12.541   8.577  0.4452  0.0047 -0.4696
  466MOL0     C62809   2.440  12.567   8.456 -1.0495 -0.4111 -0.3812
  466MOL0     C62810   2.400  12.485   8.345 -0.1269  0.2868  0.7301
  466MOL0     O62811   2.465  12.505   8.229  0.0239  0.9105  0.1988
  466MOL0     C62812   2.459  12.396   8.137  0.2238  0.7243  0.1155
  466MOL0     C62813   2.560  12.412   8.023  0.7217  0.1600  0.3204
  466MOL0     C62814   2.684  12.486   8.074 -0.6579  0.3622 -0.1293
  466MOL0     C62815   2.796  12.484   7.978  0.2189 -0.3170  0.2113
  466MOL0     C62816   2.913  12.571   8.033 -0.8143 -0.1774  0.6166
  466MOL0     C62817   2.892  12.715   7.976 -1.3149  0.3353  0.2554
  466MOL0     C62818   3.015  12.808   8.015  0.6636 -0.1290  0.5692
  466MOL0     C62819   3.021  12.942   7.951 -0.7007  0.7247 -0.4125
  466MOL0    Cl62820   3.115  13.060   8.047 -0.4729 -0.3416  0.2204
  466MOL0     C62821   2.302  12.386   8.365 -0.4123 -0.6250 -0.0574
  466MOL0     C62822   2.238  12.365   8.483 -0.8897  0.1900  0.3593
  466MOL0     O62823   2.454  12.247   8.696  0.7724  0.2077  0.0400
  466MOL0     C62824   2.414  12.112   8.920 -0.6050  0.1875 -0.2848
  466MOL0     C62825   2.376  12.049   9.043 -0.2209 -0.2298 -0.5141
  466MOL0     N62826   2.234  11.826   9.768 -0.6105 -0.1144  0.1986
  466MOL0     N62827   2.268  11.721   9.831  0.9601  0.0311  0.1720
  466MOL0     C62828   3.293  11.047   9.737 -0.4733 -0.1575 -1.0702
  466MOL0     C62829   3.430  11.019   9.765 -0.1919 -0.8675  1.2290
  466MOL0     C62830   3.816  10.796   9.769 -0.1898  0.7694  0.3713
  466MOL0     C62831   3.878  10.755   9.644 -0.1034 -0.7824  0.2050
  466MOL0     C62832   4.019  10.761   9.626  0.3016  0.6481 -0.6906
  466MOL0     C62833   4.095  10.825   9.728  0.1695  0.2533  0.0662
  466MOL0     O62834   4.227  10.838   9.730 -1.1852 -0.9678  0.0354
  466MOL0     C62835   4.309  10.724   9.687 -0.0457 -0.3787  0.2858
  466MOL0     C62836   4.378  10.736   9.556 -0.6074  0.7664 -0.0221
  466MOL0     C62837   4.506  10.835   9.553  0.1235 -0.1539 -0.0661
  466MOL0     C62838   4.602  10.809   9.675  0.3937 -0.2640  0.1047
  466MOL0     C62839   4.547  10.875   9.796 -0.5775 -0.3573 -0.0926
  466MOL0     C62840   4.496  10.917   9.898 -0.4614  1.2291 -0.3141
  466MOL0     C62841   4.036  10.852   9.846 -0.8088  0.2976 -1.0852
  466MOL0     C62842   3.899  10.843   9.870  0.0320  0.5643  0.5280
  466MOL0     H62843   3.421  10.760   9.978  0.6790 -1.8389 -1.1839
  466MOL0     H62844   3.176  10.805   9.936  0.4725  1.7075 -0.2232
  466MOL0     H62845   2.994  11.077   9.924  2.9327 -1.5467  1.3852
  466MOL0     H62846   3.035  11.166   9.767 -3.7775  0.5565 -1.2370
  466MOL0     H62847   2.862  11.029   9.644 -1.0557  1.8880 -1.3751
  466MOL0     H62848   2.805  10.973   9.806  0.0427 -2.5136 -1.2601
  466MOL0     H62849   2.777  11.224   9.859 -0.9687  3.2232 -0.7713
  466MOL0     H62850   2.860  11.255   9.712  1.3914  0.7532  2.3636
  466MOL0     H62851   2.692  11.184   9.579  1.0769 -0.7642  0.8078
  466MOL0     H62852   2.586  11.113   9.696  1.8544 -1.9209 -1.3397
  466MOL0     H62853   2.658  11.410   9.704 -0.3187 -0.5986  3.1225
  466MOL0     H62854   2.524  11.340   9.615 -0.2505  0.0828  0.0718
  466MOL0     H62855   2.428  11.258   9.842 -0.6853  1.1259  0.4729
  466MOL0     H62856   2.573  11.327   9.914  0.8044 -0.3202 -1.1611
  466MOL0     H62857   2.354  11.477   9.745  1.9757  1.2211 -1.4094
  466MOL0     H62858   2.337  11.455   9.920  0.1336  1.7522  0.1438
  466MOL0     H62859   2.581  11.598   9.814 -0.4291  2.4379 -0.2357
  466MOL0     H62860   2.502  11.600   9.974 -3.9467 -0.7635  0.9362
  466MOL0     H62861   2.549  11.872   9.838  0.9270 -3.1284 -1.3847
  466MOL0     H62862   2.349  12.130   9.819  2.6959  2.4559 -1.5011
  466MOL0     H62863   2.471  12.079   9.718 -0.0393  2.1657  2.8954
  466MOL0     H62864   2.237  12.199   9.615 -2.2079 -0.4894  1.2104
  466MOL0     H62865   2.163  12.051   9.631 -1.1843  0.4872 -3.4710
  466MOL0     H62866   2.253  11.928   9.488 -0.6606  0.6126 -0.3870
  466MOL0     H62867   2.408  12.010   9.488 -0.2017 -0.1332 -1.9159
  466MOL0     H62868   2.304  12.213   9.380 -0.3345  0.2575  0.4443
  466MOL0     H62869   2.151  12.137   9.369 -1.1918 -2.9885 -1.4226
  466MOL0     H62870   2.151  12.260   9.171  1.1279  0.3747  0.7256
  466MOL0     H62871   2.288  12.510   8.954  0.6187 -2.7057 -0.3476
  466MOL0     H62872   2.132  12.448   8.903 -1.9375  1.2558  1.0038
  466MOL0     H62873   2.166  12.467   9.076 -1.5040  1.1608 -0.6139
  466MOL0     H62874   2.406  12.585   8.673 -4.4966  1.1403  0.5040
  466MOL0     H62875   2.517  12.643   8.447  0.2385 -1.4559  1.3438
  466MOL0     H62876   2.480  12.305   8.194  0.8583  0.6803 -0.1813
  466MOL0     H62877   2.361  12.398   8.088  0.8886 -0.1667 -1.2879
  466MOL0     H62878   2.579  12.317   7.973  0.0757  1.0009 -1.6535
  466MOL0     H62879   2.514  12.472   7.943 -1.9933 -2.9089 -0.6651
  466MOL0     H62880   2.724  12.430   8.159 -0.6349  4.7207  3.0483
  466MOL0     H62881   2.660  12.586   8.109  1.7484  0.5369  1.2634
  466MOL0     H62882   2.821  12.378   7.963  2.2127  0.4048 -2.2456
  466MOL0     H62883   2.761  12.524   7.883 -0.3427 -0.3751  0.3888
  466MOL0     H62884   3.002  12.534   7.980 -1.0993 -0.9806  0.6908
  466MOL0     H62885   2.924  12.570   8.142  3.8387  0.4508  0.3826
  466MOL0     H62886   2.880  12.716   7.867 -1.9549 -0.3698  0.3085
  466MOL0     H62887   2.814  12.760   8.037  0.1890 -0.2545  2.7598
  466MOL0     H62888   3.111  12.762   7.988  2.6454  4.0694 -0.3965
  466MOL0     H62889   3.012  12.814   8.124  0.9926 -2.3419  0.7423
  466MOL0     H62890   2.923  12.990   7.942 -0.0914  1.8379 -1.4838
  466MOL0     H62891   3.063  12.936   7.850 -0.0655 -2.9566 -0.0608
  466MOL0     H62892   2.268  12.315   8.290  0.6083 -2.1555  0.8808
  466MOL0     H62893   2.175  12.277   8.485  0.8573 -1.1569 -0.1550
  466MOL0     H62894   2.492  12.066   8.860  0.5417 -0.9603  1.9827
  466MOL0     H62895   2.427  11.955   9.061  0.6750  0.5608  1.5108
  466MOL0     H62896   3.267  11.143   9.694  0.4453  1.4037  1.5758
  466MOL0     H62897   3.506  11.073   9.711  1.7341 -1.3810  3.2941
  466MOL0     H62898   3.821  10.710   9.563  0.5516 -0.5336 -0.3991
  466MOL0     H62899   4.072  10.735   9.535 -2.5973 -2.7659 -1.6349
  466MOL0     H62900   4.378  10.677   9.758 -0.8846 -0.6225  0.9522
  466MOL0     H62901   4.247  10.634   9.693  4.2166 -3.5764  1.2607
  466MOL0     H62902   4.306  10.758   9.477  2.4595 -1.6366 -3.8560
  466MOL0     H62903   4.414  10.642   9.514 -0.1130  1.6530 -1.6424
  466MOL0     H62904   4.475  10.940   9.545  0.1317  0.2264  3.5253
  466MOL0     H62905   4.572  10.819   9.467  1.7882  2.6527  0.5811
  466MOL0     H62906   4.699  10.855   9.656  0.1805  0.5589  0.9465
  466MOL0     H62907   4.614  10.701   9.691  1.8868 -0.3142 -1.1024
  466MOL0     H62908   4.465  10.943   9.998  2.7966 -2.5917  1.9985
  466MOL0     H62909   4.095  10.886   9.930 -4.1801  0.6008  1.3900
  466MOL0     H62910   3.862  10.867   9.969  0.5802 -2.1452  1.4553
  467MOL0     O62911  10.466   8.816   0.747  0.1017 -0.0705 -1.0079
  467MOL0     C62912  10.381   8.895   0.701  0.6776 -0.7425  0.5064
  467MOL0     O62913  10.280   8.953   0.776 -0.0566  0.4807  0.8480
  467MOL0     C62914  10.235   8.890   0.899  0.3787 -0.9722  0.0618
  467MOL0     C62915  10.157   8.773   0.897  0.2520  0.1880  0.3847
  467MOL0     C62916  10.121   8.719   1.031  0.0206  0.2522  0.3349
  467MOL0     C62917  10.138   8.792   1.143  0.3504 -0.8654  0.0642
  467MOL0     O62918  10.099   8.762   1.266 -0.1265  0.1765 -0.3059
  467MOL0     C62919  10.034   8.633   1.292  0.0141 -0.0823  0.1678
  467MOL0     C62920   9.951   8.644   1.418 -0.5101  0.2321 -0.3914
  467MOL0     C62921  10.013   8.718   1.537 -0.8636 -0.2333 -0.0273
  467MOL0     C62922  10.133   8.640   1.593  0.1127  0.0227  0.9167
  467MOL0     C62923  10.173   8.669   1.741  0.2447 -0.9552 -0.5134
  467MOL0     C62924  10.219   8.820   1.771 -0.0312  0.7905  1.2309
  467MOL0     C62925  10.258   8.839   1.920 -0.0730 -0.5550  1.1945
  467MOL0     C62926  10.406   8.887   1.923  0.6223 -0.7889 -0.2507
  467MOL0     N62927  10.444   8.922   2.063  0.1394 -0.0929  0.1646
  467MOL0     C62928  10.413   9.029   2.141  0.7056  0.8354  0.9465
  467MOL0     C62929  10.505   9.030   2.245 -0.2633  0.2956 -0.4032
  467MOL0     C62930  10.510   9.136   2.347  0.0996  1.0063 -0.4547
  467MOL0     C62931  10.433   9.109   2.477  0.0674  0.4282 -0.2601
  467MOL0     C62932  10.468   8.980   2.541 -0.2778  0.4638 -0.2070
  467MOL0     C62933  10.375   8.936   2.665  0.6651 -0.5505 -0.0669
  467MOL0     O62934  10.249   8.886   2.622  0.0532  0.2176 -0.4582
  467MOL0     C62935  10.150   8.853   2.711 -0.3930  0.5897  0.4353
  467MOL0     C62936  10.171   8.794   2.829  0.2676  0.4586 -0.1378
  467MOL0     C62937  10.066   8.752   2.915  0.1253 -0.1552 -0.0340
  467MOL0     C62938  10.111   8.652   3.024  0.8405 -1.1175  0.6681
  467MOL0     C62939   9.936   8.808   2.894  0.6273 -0.1355 -0.3724
  467MOL0     C62940   9.818   8.772   2.982  0.1361 -0.7055 -0.2283
  467MOL0     O62941   9.828   8.665   3.062 -0.1266  0.6941 -0.0459
  467MOL0     C62942   9.712   8.625   3.130  0.9093 -0.6958  0.2450
  467MOL0     C62943   9.619   8.540   3.072 -0.2115 -0.0133  0.2000
  467MOL0     C62944   9.513   8.487   3.150  0.2257 -0.1565 -0.0484
  467MOL0     C62945   9.495   8.525   3.284  0.2911  0.1305 -0.2020
  467MOL0     O62946   9.394   8.465   3.360 -0.5453 -0.9390 -0.0082
  467MOL0     C62947   9.392   8.326   3.367 -0.6520  0.4093  0.2137
  467MOL0     C62948   9.488   8.277   3.470 -0.9908 -0.3725  0.5893
  467MOL0     C62949   9.575   8.153   3.430  0.5560 -0.5868 -0.2601
  467MOL0     C62950   9.485   8.024   3.409  0.2781  0.5315 -0.4308
  467MOL0     C62951   9.545   7.911   3.490  0.9192  0.6884  0.6474
  467MOL0     C62952   9.456   7.784   3.473 -0.5315 -0.4445  0.7359
  467MOL0     C62953   9.444   7.732   3.335  0.2496 -0.9259 -0.3221
  467MOL0     C62954   9.359   7.607   3.327 -0.4630 -0.1173  0.7722
  467MOL0    Cl62955   9.184   7.650   3.319 -0.2918 -0.5704 -0.0285
  467MOL0     C62956   9.588   8.612   3.345  0.0173  1.1338  0.0127
  467MOL0     C62957   9.695   8.663   3.265  0.6362 -0.5402  0.5231
  467MOL0     O62958   9.721   8.842   2.973 -0.5572 -0.2327 -0.2422
  467MOL0     C62959   9.915   8.894   2.781 -1.0622  0.8595  0.2705
  467MOL0     C62960  10.018   8.886   2.677  0.4541  0.1782 -0.0187
  467MOL0     N62961  10.590   8.925   2.220  1.0537  0.0529 -0.4257
  467MOL0     N62962  10.557   8.857   2.114 -0.6853  0.5062 -0.0224
  467MOL0     C62963  10.203   8.911   1.134  0.1075 -0.3056  0.5461
  467MOL0     C62964  10.253   8.960   1.013 -0.9897  0.6299 -0.0261
  467MOL0     C62965  10.410   8.956   0.567  0.7248 -0.3169  0.1762
  467MOL0     C62966  10.512   8.896   0.500  1.1876  0.1922  0.5552
  467MOL0     C62967  10.572   8.965   0.393 -1.0533  0.3037 -1.2824
  467MOL0     C62968  10.528   9.093   0.352 -0.6983 -0.5744 -0.6767
  467MOL0     O62969  10.579   9.149   0.232 -0.3651 -0.1797 -0.7021
  467MOL0     C62970  10.543   9.280   0.197 -0.0130  0.9836  0.0094
  467MOL0     C62971  10.407   9.281   0.130 -0.8275  0.2251 -0.8907
  467MOL0     C62972  10.344   9.425   0.115 -0.4068  0.0354  0.5836
  467MOL0     C62973  10.194   9.434   0.082  0.3694  0.0199  0.3373
  467MOL0     C62974  10.121   9.344   0.174  0.3743 -0.3089  0.3101
  467MOL0     C62975  10.067   9.264   0.243  0.5491  0.5334 -0.1121
  467MOL0     C62976  10.422   9.153   0.428 -0.1118  0.0562 -0.3777
  467MOL0     C62977  10.360   9.087   0.535 -0.1921 -0.3702  0.1565
  467MOL0     H62978  10.145   8.712   0.808  0.7982 -1.1251  1.1728
  467MOL0     H62979  10.073   8.622   1.031  2.1381 -0.9858 -2.8481
  467MOL0     H62980   9.959   8.610   1.216  0.5254 -0.3893 -0.2469
  467MOL0     H62981  10.101   8.546   1.295  0.0547 -0.0422  0.5521
  467MOL0     H62982   9.857   8.694   1.392  0.3267  0.1704 -3.9682
  467MOL0     H62983   9.928   8.540   1.446 -1.6259  0.3221 -0.8986
  467MOL0     H62984  10.032   8.823   1.514  1.1998 -0.0024  2.3389
  467MOL0     H62985   9.944   8.717   1.621 -0.0914 -0.7961  0.6245
  467MOL0     H62986  10.115   8.532   1.584 -0.9073  0.1946  0.8504
  467MOL0     H62987  10.224   8.671   1.540 -0.0193  0.0708  0.7188
  467MOL0     H62988  10.086   8.661   1.808 -0.6428 -0.0705 -1.5142
  467MOL0     H62989  10.238   8.594   1.787 -0.8075 -2.1152 -0.8414
  467MOL0     H62990  10.304   8.832   1.703 -2.7998 -2.1259 -3.2537
  467MOL0     H62991  10.133   8.883   1.745 -1.1200 -1.0975 -0.0186
  467MOL0     H62992  10.187   8.905   1.971 -1.1833  0.0972 -1.0703
  467MOL0     H62993  10.251   8.737   1.961  0.5621 -0.2163  2.1816
  467MOL0     H62994  10.437   8.964   1.852  3.5271 -1.0472  0.5712
  467MOL0     H62995  10.466   8.804   1.885  0.5726 -1.6263  1.4234
  467MOL0     H62996  10.334   9.100   2.117  1.0567  1.3508  1.3065
  467MOL0     H62997  10.614   9.136   2.380 -0.2475 -2.4362  1.1580
  467MOL0     H62998  10.466   9.231   2.315 -2.2906  0.4734  0.9854
  467MOL0     H62999  10.327   9.093   2.460 -0.5451 -1.2385  3.8640
  467MOL0     H63000  10.432   9.195   2.545  0.0470  0.8402 -0.7767
  467MOL0     H63001  10.570   8.996   2.578  0.6806 -1.9103 -1.6268
  467MOL0     H63002  10.471   8.888   2.483 -2.1568 -0.3996  0.9550
  467MOL0     H63003  10.369   9.028   2.724  0.3962 -1.2049  0.9422
  467MOL0     H63004  10.423   8.861   2.729  1.8991  1.0999  1.0542
  467MOL0     H63005  10.271   8.773   2.866 -0.2258  1.2194  1.7750
  467MOL0     H63006  10.203   8.604   2.987  0.0454 -1.8879 -0.3794
  467MOL0     H63007  10.131   8.694   3.123  0.7158 -1.2187  0.7370
  467MOL0     H63008  10.032   8.580   3.046 -0.2968 -0.8592 -2.1366
  467MOL0     H63009   9.634   8.500   2.973 -0.0634  1.7266 -0.5264
  467MOL0     H63010   9.445   8.412   3.113 -1.1550 -0.5555  2.9846
  467MOL0     H63011   9.293   8.296   3.400 -0.3841 -0.0853  0.5698
  467MOL0     H63012   9.421   8.282   3.271  2.6960 -0.0331  1.2861
  467MOL0     H63013   9.565   8.353   3.485  0.2497 -0.6793 -3.0894
  467MOL0     H63014   9.428   8.249   3.556  2.1062 -2.8356  2.1574
  467MOL0     H63015   9.643   8.144   3.515 -1.5958 -0.5627  1.5359
  467MOL0     H63016   9.626   8.170   3.334 -2.6890  0.7176 -1.9072
  467MOL0     H63017   9.378   8.035   3.428 -0.5434 -3.3418 -2.0367
  467MOL0     H63018   9.477   8.001   3.303 -0.8552  0.8706 -0.4353
  467MOL0     H63019   9.556   7.936   3.596  0.9629  1.9493  0.3575
  467MOL0     H63020   9.648   7.889   3.461  0.8054  1.4577 -0.3747
  467MOL0     H63021   9.496   7.696   3.525  0.4520 -1.1095 -1.0599
  467MOL0     H63022   9.359   7.815   3.514  0.7192  0.7338  3.0262
  467MOL0     H63023   9.540   7.715   3.287 -0.5955 -1.6698 -1.8220
  467MOL0     H63024   9.388   7.805   3.275 -0.2704 -0.9143  0.1630
  467MOL0     H63025   9.381   7.542   3.412  0.9577 -3.0580 -1.6478
  467MOL0     H63026   9.385   7.550   3.237 -2.4968  0.3407 -0.1568
  467MOL0     H63027   9.587   8.633   3.452  0.2424 -1.1906  0.5171
  467MOL0     H63028   9.753   8.732   3.326  0.7876 -0.6144  0.4635
  467MOL0     H63029   9.826   8.953   2.758  0.1367  2.6092 -0.1146
  467MOL0     H63030   9.997   8.949   2.591  3.9409 -1.8228 -2.5670
  467MOL0     H63031  10.213   8.963   1.229 -1.5087  0.6114  0.2553
  467MOL0     H63032  10.307   9.052   0.993 -2.4226  1.2487 -1.2045
  467MOL0     H63033  10.551   8.797   0.517 -2.2493 -1.0659  1.8795
  467MOL0     H63034  10.657   8.918   0.343  1.9642  2.2583  1.5622
  467MOL0     H63035  10.532   9.340   0.288  1.5097 -0.6550  1.3377
  467MOL0     H63036  10.627   9.315   0.137 -1.7843  1.6176 -2.2515
  467MOL0     H63037  10.342   9.208   0.179 -2.0258  0.9543 -1.3406
  467MOL0     H63038  10.437   9.238   0.034 -0.2247  0.1474 -0.6699
  467MOL0     H63039  10.399   9.472   0.032 -2.8334  0.7016 -0.7310
  467MOL0     H63040  10.362   9.479   0.209 -0.0988  2.0037 -0.5339
  467MOL0     H63041  10.178   9.385  -0.015 -0.8494  0.7684  0.1440
  467MOL0     H63042  10.153   9.534   0.100 -1.1825 -0.4382 -0.4986
  467MOL0     H63043  10.025   9.188   0.306  2.1522 -1.0259 -0.8351
  467MOL0     H63044  10.381   9.250   0.402  1.6868  0.9147 -0.1869
  467MOL0     H63045  10.279   9.125   0.597 -2.2603  1.5737 -3.4460
  468MOL0     O63046   6.096   7.013  11.121 -0.1138 -0.0712  0.6160
  468MOL0     C63047   6.073   7.127  11.070 -0.4135  0.1968 -0.5835
  468MOL0     O63048   6.020   7.149  10.951  0.3287 -0.5673  0.6756
  468MOL0     C63049   6.031   7.071  10.846 -0.6604 -0.1660 -0.2350
  468MOL0     C63050   6.136   6.982  10.823  0.0884 -0.8880 -0.4756
  468MOL0     C63051   6.135   6.901  10.712 -0.5149  0.2826  0.1877
  468MOL0     C63052   6.029   6.906  10.614  0.3729  0.2753  0.2596
  468MOL0     O63053   6.019   6.819  10.512  0.0135  0.2976  0.4179
  468MOL0     C63054   6.134   6.780  10.438  0.0886 -0.5003  0.1369
  468MOL0     C63055   6.091   6.658  10.338  0.3481  0.1860 -0.2662
  468MOL0     C63056   6.195   6.551  10.361  0.7344  0.2596  1.0960
  468MOL0     C63057   6.241   6.472  10.241 -0.6177  0.9705  0.1434
  468MOL0     C63058   6.134   6.381  10.182  0.0751 -0.3949 -0.0512
  468MOL0     C63059   6.204   6.267  10.100 -0.7186 -0.2539 -0.0748
  468MOL0     C63060   6.123   6.198  10.003  0.0659  0.3146 -0.2450
  468MOL0     C63061   6.121   6.277   9.880  0.5098 -0.5274  0.7428
  468MOL0     N63062   6.070   6.416   9.871 -0.3951 -0.3553  0.8529
  468MOL0     C63063   5.938   6.458   9.860  0.1202 -1.0858 -0.0392
  468MOL0     C63064   5.940   6.593   9.869  1.1285 -0.3706 -1.3579
  468MOL0     C63065   5.821   6.680   9.889 -0.4195 -0.2506  0.2689
  468MOL0     C63066   5.705   6.652   9.779  0.7911  0.2913  0.1562
  468MOL0     C63067   5.628   6.782   9.735 -0.5789  0.5256 -0.1944
  468MOL0     C63068   5.485   6.787   9.788  0.8029 -0.9405  0.2423
  468MOL0     O63069   5.480   6.793   9.932  0.6817  0.1885 -0.3153
  468MOL0     C63070   5.534   6.899   9.991  0.1297  0.3909 -0.1497
  468MOL0     C63071   5.632   6.879  10.081  0.0443 -0.1218 -0.7011
  468MOL0     C63072   5.698   6.986  10.148 -0.2127 -0.1292  1.0333
  468MOL0     C63073   5.822   6.945  10.237  0.8428 -0.1318  1.5684
  468MOL0     C63074   5.656   7.118  10.128  1.1432 -0.6257 -0.1747
  468MOL0     C63075   5.728   7.231  10.186 -0.5673  0.3893  0.7064
  468MOL0     O63076   5.825   7.223  10.293 -0.2425 -0.1424 -0.5393
  468MOL0     C63077   5.841   7.339  10.368 -0.2245  1.0802 -0.2673
  468MOL0     C63078   5.933   7.440  10.319  0.5798  0.1524 -0.5575
  468MOL0     C63079   5.954   7.547  10.394 -0.5119  0.0271  0.1407
  468MOL0     C63080   5.892   7.556  10.517  0.5085 -0.5310  0.0213
  468MOL0     O63081   5.933   7.664  10.595  0.3622 -0.0948 -0.5528
  468MOL0     C63082   5.824   7.728  10.676 -0.4411  0.6793 -0.6500
  468MOL0     C63083   5.776   7.859  10.611  0.6159  0.9505  0.0678
  468MOL0     C63084   5.890   7.959  10.585  0.3676  0.4809  0.2990
  468MOL0     C63085   5.853   8.105  10.545 -0.5668 -0.1225 -0.8095
  468MOL0     C63086   5.967   8.208  10.581  0.4123 -1.0036  1.3279
  468MOL0     C63087   5.926   8.353  10.535  0.2067 -0.9498 -0.4577
  468MOL0     C63088   6.018   8.467  10.565 -0.3612  0.5062  0.9277
  468MOL0     C63089   5.977   8.584  10.494 -0.7578  0.6612 -0.1493
  468MOL0    Cl63090   6.088   8.711  10.545  1.2485 -0.1820  0.0780
  468MOL0     C63091   5.813   7.452  10.564 -0.0861 -0.2706 -0.1456
  468MOL0     C63092   5.782   7.341  10.489 -0.7380 -0.1477 -0.8696
  468MOL0     O63093   5.704   7.331  10.125 -0.5090 -0.9202  0.2094
  468MOL0     C63094   5.537   7.139  10.044 -0.1347  0.4918 -1.2670
  468MOL0     C63095   5.481   7.025   9.976  0.9135  0.0672  0.2031
  468MOL0     N63096   6.068   6.630   9.882 -0.5022 -0.3857 -0.4824
  468MOL0     N63097   6.151   6.527   9.880  0.0093  0.0877  0.1480
  468MOL0     C63098   5.927   6.997  10.635  0.5744  0.1997 -0.1939
  468MOL0     C63099   5.927   7.072  10.752  0.0280 -0.2861  0.0475
  468MOL0     C63100   6.131   7.238  11.153  0.1484  0.0674 -0.0571
  468MOL0     C63101   6.246   7.217  11.226  0.4132 -0.6139 -1.5449
  468MOL0     C63102   6.314   7.327  11.291 -0.0134  0.1582 -0.3020
  468MOL0     C63103   6.250   7.458  11.291 -0.1889 -0.4877  0.1841
  468MOL0     O63104   6.309   7.575  11.336 -0.5266  0.0906 -0.6781
  468MOL0     C63105   6.296   7.587  11.478 -0.3049  0.4111  1.0506
  468MOL0     C63106   6.328   7.733  11.515  0.3158 -0.3733 -0.0899
  468MOL0     C63107   6.336   7.762  11.661 -0.4041  2.0672  0.5959
  468MOL0     C63108   6.394   7.895  11.715 -0.0402  1.4846 -0.0617
  468MOL0     C63109   6.541   7.890  11.697 -0.2508  0.2904  0.6725
  468MOL0     C63110   6.666   7.893  11.694 -0.2100  0.1903  0.0638
  468MOL0     C63111   6.136   7.472  11.209  0.8999  0.2779  0.0312
  468MOL0     C63112   6.079   7.368  11.138 -0.2262 -1.0556  0.2732
  468MOL0     H63113   6.214   6.988  10.898  0.3801  2.0971 -0.8858
  468MOL0     H63114   6.205   6.818  10.720  0.4011  1.1791  2.1232
  468MOL0     H63115   6.186   6.863  10.388 -0.5608 -0.3274 -0.2592
  468MOL0     H63116   6.197   6.738  10.516 -1.7995  0.4299  2.2647
  468MOL0     H63117   5.992   6.621  10.364  0.5818 -3.2575 -3.4186
  468MOL0     H63118   6.101   6.689  10.233 -1.7368  2.3556  0.0686
  468MOL0     H63119   6.283   6.603  10.401  2.1749 -0.4589 -0.9655
  468MOL0     H63120   6.148   6.485  10.435 -1.8235 -1.3083 -1.7260
  468MOL0     H63121   6.270   6.536  10.157 -2.6913 -1.4610 -2.6229
  468MOL0     H63122   6.328   6.413  10.271  1.4659  3.0882 -1.3056
  468MOL0     H63123   6.066   6.337  10.256 -2.1245  0.1278 -1.6494
  468MOL0     H63124   6.062   6.440  10.124 -0.9095  1.0198  2.4692
  468MOL0     H63125   6.299   6.300  10.058 -1.2688 -0.6385 -1.7007
  468MOL0     H63126   6.234   6.190  10.172  2.3919 -0.3615 -1.3315
  468MOL0     H63127   6.181   6.110   9.976  1.0068 -0.9891  4.9441
  468MOL0     H63128   6.024   6.168  10.038 -0.4377 -0.9160 -2.5231
  468MOL0     H63129   6.067   6.239   9.793 -0.4567 -0.1049  1.1457
  468MOL0     H63130   6.228   6.280   9.855  0.7236  0.4069  1.7353
  468MOL0     H63131   5.859   6.385   9.845  1.0981 -2.1454 -0.2705
  468MOL0     H63132   5.784   6.674   9.991  0.1078 -0.7188  0.4393
  468MOL0     H63133   5.857   6.783   9.880 -1.3100  0.1550  1.2752
  468MOL0     H63134   5.636   6.579   9.821  2.0308 -0.2213  1.3743
  468MOL0     H63135   5.742   6.597   9.692 -0.0414  1.6806 -1.1252
  468MOL0     H63136   5.618   6.784   9.626 -1.6376 -1.0502 -0.1563
  468MOL0     H63137   5.691   6.867   9.764 -0.7021  0.8899 -0.9678
  468MOL0     H63138   5.423   6.700   9.766 -0.7802  0.7788 -2.6367
  468MOL0     H63139   5.428   6.863   9.735 -2.1288 -0.5338  3.5857
  468MOL0     H63140   5.649   6.775  10.107  0.0255 -0.2253 -1.1008
  468MOL0     H63141   5.912   6.999  10.205 -0.4435  1.1680 -0.1079
  468MOL0     H63142   5.799   6.962  10.342  1.6907  0.7788  1.6225
  468MOL0     H63143   5.842   6.840  10.217  2.4361  0.5568 -0.9410
  468MOL0     H63144   5.984   7.423  10.225 -2.4976 -0.6651 -2.2023
  468MOL0     H63145   6.034   7.617  10.373  0.5641 -0.4171  2.3978
  468MOL0     H63146   5.736   7.668  10.703  0.5044 -0.9096 -0.9483
  468MOL0     H63147   5.880   7.751  10.767 -0.2513  0.5298 -0.7264
  468MOL0     H63148   5.735   7.840  10.511  1.0947  0.5633 -0.0607
  468MOL0     H63149   5.699   7.909  10.670 -0.5754 -0.7123 -0.0085
  468MOL0     H63150   5.964   7.924  10.513  0.1334  1.0397 -0.2199
  468MOL0     H63151   5.938   7.972  10.683 -1.7884  4.4832  1.0290
  468MOL0     H63152   5.849   8.110  10.436  1.7898 -2.0775 -1.0522
  468MOL0     H63153   5.756   8.131  10.588 -0.2318 -0.5475  0.2311
  468MOL0     H63154   6.059   8.174  10.533 -0.5181  0.2459 -1.5612
  468MOL0     H63155   5.981   8.214  10.689 -0.0326  0.9408  1.3053
  468MOL0     H63156   5.905   8.352  10.428 -2.3293 -1.9838 -0.0178
  468MOL0     H63157   5.826   8.369  10.576  0.3598  0.1601 -0.4972
  468MOL0     H63158   6.118   8.427  10.546  0.1571  0.5347  3.2484
  468MOL0     H63159   6.004   8.488  10.671 -2.0419  0.2681  0.7750
  468MOL0     H63160   5.872   8.607  10.512 -0.3338  2.1495  0.5719
  468MOL0     H63161   5.984   8.577  10.385 -0.3851  2.6373 -0.2819
  468MOL0     H63162   5.772   7.452  10.665 -0.1548  3.6426 -0.0123
  468MOL0     H63163   5.732   7.248  10.516  0.2624 -0.4120  0.1590
  468MOL0     H63164   5.505   7.242  10.027 -1.4516 -0.2722 -4.0314
  468MOL0     H63165   5.402   7.048   9.906  1.5016 -3.6636 -1.9888
  468MOL0     H63166   5.844   7.005  10.565  1.2349  0.7130 -0.9292
  468MOL0     H63167   5.856   7.155  10.762  1.5786  0.8609  2.3807
  468MOL0     H63168   6.283   7.115  11.229 -1.5462 -1.3555 -0.5553
  468MOL0     H63169   6.412   7.330  11.339  0.2535 -1.0617 -0.7526
  468MOL0     H63170   6.191   7.560  11.492  0.3595 -1.7931  2.2384
  468MOL0     H63171   6.356   7.516  11.536  2.4618  0.4881 -1.4678
  468MOL0     H63172   6.250   7.796  11.471 -1.0048 -2.0570 -0.2635
  468MOL0     H63173   6.427   7.755  11.474  0.5102 -0.9988  0.0282
  468MOL0     H63174   6.387   7.680  11.712 -2.0005  1.4623  1.3098
  468MOL0     H63175   6.233   7.749  11.697 -0.1417 -0.1837  0.7033
  468MOL0     H63176   6.386   7.908  11.823 -1.9027  0.1737  0.0079
  468MOL0     H63177   6.348   7.982  11.666  0.4725  0.0083 -3.4524
  468MOL0     H63178   6.771   7.872  11.687 -0.8185 -3.9566  0.6799
  468MOL0     H63179   6.099   7.574  11.212  1.9802  0.7217 -0.7515
  468MOL0     H63180   5.980   7.384  11.095 -0.8789 -0.8890  1.7595
  469MOL0     O63181   4.176   2.974   6.038 -0.7052 -0.4193 -0.5407
  469MOL0     C63182   4.151   2.889   6.132  0.1999  1.0078  0.8739
  469MOL0     O63183   4.017   2.866   6.186 -1.2015  0.6144  0.4689
  469MOL0     C63184   3.913   2.903   6.109 -1.3427 -0.3822 -0.3252
  469MOL0     C63185   3.840   3.020   6.126  0.4146  0.4407 -0.8295
  469MOL0     C63186   3.747   3.055   6.027 -0.3739  0.1669  0.6505
  469MOL0     C63187   3.718   2.978   5.909  0.3408 -0.2511  0.4898
  469MOL0     O63188   3.621   3.011   5.822 -0.7356  0.2316  1.3510
  469MOL0     C63189   3.674   3.114   5.742  0.5386 -1.6556  1.0553
  469MOL0     C63190   3.589   3.131   5.613 -1.2517 -0.1547 -0.9519
  469MOL0     C63191   3.646   3.244   5.526  0.2969  0.3510 -0.7937
  469MOL0     C63192   3.571   3.253   5.391 -0.2641 -0.2473 -0.2371
  469MOL0     C63193   3.629   3.364   5.301 -1.2133 -0.3543 -0.4558
  469MOL0     C63194   3.555   3.373   5.160  0.0836 -0.7783 -0.8087
  469MOL0     C63195   3.493   3.243   5.111 -0.2715 -0.6677 -0.4513
  469MOL0     C63196   3.399   3.274   4.997 -0.0567 -0.7873  0.5067
  469MOL0     N63197   3.266   3.313   5.049 -1.1730 -1.2753 -0.6442
  469MOL0     C63198   3.177   3.229   5.108  0.5605  1.1137  0.0286
  469MOL0     C63199   3.076   3.312   5.155  0.1558 -0.1323 -0.6056
  469MOL0     C63200   2.954   3.276   5.231  0.1422 -0.7893  0.0700
  469MOL0     C63201   2.987   3.223   5.369  0.0888  0.1304 -0.8028
  469MOL0     C63202   2.943   3.320   5.479  0.4865  0.0981 -0.3705
  469MOL0     C63203   2.959   3.265   5.617 -0.7181 -0.6392 -0.0076
  469MOL0     O63204   3.103   3.235   5.632  0.2983  0.9910 -1.1800
  469MOL0     C63205   3.173   3.338   5.669 -0.8348 -0.5860  0.6120
  469MOL0     C63206   3.172   3.373   5.805  0.0280  0.5688  0.7988
  469MOL0     C63207   3.266   3.470   5.859 -0.2986  0.2659  0.4764
  469MOL0     C63208   3.243   3.502   5.996  0.5453 -0.1201 -1.4129
  469MOL0     C63209   3.361   3.534   5.774  0.7651  0.1746  0.4957
  469MOL0     C63210   3.458   3.625   5.812 -0.4553  0.3246  0.2851
  469MOL0     O63211   3.507   3.607   5.936 -0.4369  0.5780 -0.2516
  469MOL0     C63212   3.618   3.681   5.973 -0.1599  0.6308 -0.6133
  469MOL0     C63213   3.608   3.816   5.999  0.4690 -0.4650  0.2262
  469MOL0     C63214   3.721   3.880   6.035 -0.3691 -0.1308 -0.1765
  469MOL0     C63215   3.847   3.814   6.057  1.1485 -0.5933 -0.3059
  469MOL0     O63216   3.948   3.899   6.107  0.6881 -0.6077  0.3144
  469MOL0     C63217   4.054   3.825   6.168  0.2727  1.3062 -0.3692
  469MOL0     C63218   4.154   3.926   6.228 -0.3954 -0.8568 -0.8475
  469MOL0     C63219   4.267   3.844   6.297  0.3247 -0.3339 -0.7067
  469MOL0     C63220   4.405   3.920   6.320 -0.1044  1.1174  0.0717
  469MOL0     C63221   4.472   3.857   6.444 -0.1136  0.8859 -0.3003
  469MOL0     C63222   4.615   3.905   6.458 -1.7718  0.5892 -0.2747
  469MOL0     C63223   4.696   3.833   6.568 -0.0819  0.3058 -0.3188
  469MOL0     C63224   4.840   3.881   6.585 -0.0851 -0.5467  0.7106
  469MOL0    Cl63225   4.868   4.048   6.566 -0.1175 -0.1767  0.0493
  469MOL0     C63226   3.853   3.676   6.027  0.0845 -0.2342 -0.7924
  469MOL0     C63227   3.736   3.609   5.987 -0.6596 -0.5411 -0.7572
  469MOL0     O63228   3.487   3.723   5.736 -0.5824  0.5489 -0.1245
  469MOL0     C63229   3.357   3.495   5.636  0.0601  0.5084  0.8496
  469MOL0     C63230   3.268   3.398   5.585 -0.6769 -0.7639 -0.2820
  469MOL0     N63231   3.103   3.442   5.132 -0.6878  0.2446  0.2136
  469MOL0     N63232   3.224   3.441   5.076  0.8512 -0.3255  0.4957
  469MOL0     C63233   3.783   2.860   5.908  0.8277  1.2771 -0.2759
  469MOL0     C63234   3.876   2.821   6.001  0.1908  0.3396 -0.6797
  469MOL0     C63235   4.262   2.809   6.196  0.0006 -0.4749  0.8434
  469MOL0     C63236   4.222   2.693   6.264 -0.5298 -0.0028 -0.7006
  469MOL0     C63237   4.313   2.601   6.317 -0.0541  0.2147  0.3948
  469MOL0     C63238   4.456   2.628   6.301 -0.2873 -0.0981  0.0984
  469MOL0     O63239   4.535   2.541   6.362 -0.3791  0.4385 -0.9851
  469MOL0     C63240   4.642   2.597   6.448 -1.3730 -0.2373 -0.6876
  469MOL0     C63241   4.769   2.529   6.418  0.8364 -0.1558 -0.8744
  469MOL0     C63242   4.771   2.383   6.479 -0.1842 -1.1883 -0.4203
  469MOL0     C63243   4.899   2.293   6.469 -0.5314 -0.9650 -0.2764
  469MOL0     C63244   4.985   2.318   6.353 -1.0085  0.4812 -0.1440
  469MOL0     C63245   5.063   2.333   6.264 -0.0806 -0.2740 -0.5605
  469MOL0     C63246   4.491   2.740   6.223 -0.2670 -0.5686 -0.2284
  469MOL0     C63247   4.397   2.830   6.159 -0.0590 -0.1662 -0.3031
  469MOL0     H63248   3.869   3.096   6.198  1.3115 -1.1947  0.6036
  469MOL0     H63249   3.702   3.154   6.036  0.8125  0.6293  1.7083
  469MOL0     H63250   3.666   3.207   5.798 -0.4772  1.5729 -3.8869
  469MOL0     H63251   3.778   3.107   5.707  1.8339  5.8766  1.7337
  469MOL0     H63252   3.591   3.033   5.564 -1.6217 -1.2772  1.1728
  469MOL0     H63253   3.483   3.154   5.628 -1.6612 -1.8867 -0.9757
  469MOL0     H63254   3.633   3.336   5.583  0.8719 -0.3271  0.4623
  469MOL0     H63255   3.751   3.219   5.513 -0.0604 -1.8418  0.0673
  469MOL0     H63256   3.560   3.149   5.358 -4.7924  0.3272 -1.1966
  469MOL0     H63257   3.467   3.279   5.414  0.3662  2.9476 -0.5461
  469MOL0     H63258   3.626   3.463   5.347 -3.6843 -0.5095 -0.1422
  469MOL0     H63259   3.729   3.339   5.264 -0.5487  3.9226 -2.1296
  469MOL0     H63260   3.461   3.426   5.179  0.5410 -0.4338  0.6173
  469MOL0     H63261   3.615   3.417   5.080  1.0792  0.3145  0.5142
  469MOL0     H63262   3.567   3.168   5.083 -1.9509 -1.9810 -1.5029
  469MOL0     H63263   3.440   3.187   5.188  2.1265 -1.1073  0.9746
  469MOL0     H63264   3.403   3.190   4.927 -1.0104  1.1316 -2.0121
  469MOL0     H63265   3.441   3.351   4.932  0.3087 -3.2249 -2.3392
  469MOL0     H63266   3.171   3.122   5.121  2.1337  0.8531 -1.0453
  469MOL0     H63267   2.888   3.362   5.240 -0.6537 -0.9712 -2.9784
  469MOL0     H63268   2.895   3.206   5.172 -0.3582 -0.7381  0.5024
  469MOL0     H63269   3.094   3.198   5.369  0.3797  1.3064 -0.9309
  469MOL0     H63270   2.945   3.122   5.379  0.6150 -0.2117 -1.8846
  469MOL0     H63271   2.839   3.344   5.454 -0.2041 -2.3460 -0.0269
  469MOL0     H63272   2.995   3.416   5.474  1.4546 -0.4939 -2.9169
  469MOL0     H63273   2.900   3.175   5.636 -1.3882 -0.5785 -1.6015
  469MOL0     H63274   2.924   3.334   5.695  1.2253 -1.6247  1.8417
  469MOL0     H63275   3.100   3.318   5.867 -1.6530  0.1513 -1.4052
  469MOL0     H63276   3.212   3.605   6.016 -0.4528 -0.6493 -0.0425
  469MOL0     H63277   3.153   3.448   6.028  0.8625 -0.2028 -0.6311
  469MOL0     H63278   3.330   3.472   6.055 -0.3560 -1.5537 -0.7558
  469MOL0     H63279   3.511   3.864   6.007  0.6781 -0.0665  0.3761
  469MOL0     H63280   3.718   3.986   6.058  0.3921  0.1433 -1.2395
  469MOL0     H63281   4.005   3.770   6.248 -4.2577  2.0188 -2.3503
  469MOL0     H63282   4.104   3.760   6.096  1.4142 -0.0647  1.5858
  469MOL0     H63283   4.210   3.989   6.159  0.6867  0.8249  1.4513
  469MOL0     H63284   4.101   3.992   6.297  1.3506 -1.2658  0.9617
  469MOL0     H63285   4.294   3.756   6.239  2.9215 -0.0169 -0.1033
  469MOL0     H63286   4.231   3.815   6.396  1.0749 -0.9293 -0.6036
  469MOL0     H63287   4.463   3.920   6.227  2.7475  2.5342  1.7243
  469MOL0     H63288   4.380   4.023   6.347  1.3673  1.8529 -1.2108
  469MOL0     H63289   4.472   3.750   6.425 -0.4095  0.4415  1.8926
  469MOL0     H63290   4.418   3.889   6.534  2.3215  1.4706  1.0605
  469MOL0     H63291   4.674   3.917   6.367  1.2332  0.2736  1.5069
  469MOL0     H63292   4.600   4.004   6.504 -1.2251 -0.2669  1.8587
  469MOL0     H63293   4.683   3.727   6.541 -6.1426  0.6164 -0.0784
  469MOL0     H63294   4.644   3.837   6.664  0.3112  0.4531 -0.1098
  469MOL0     H63295   4.898   3.843   6.500 -1.7513  0.1844 -0.8175
  469MOL0     H63296   4.881   3.854   6.683  3.6290 -1.5569 -0.9343
  469MOL0     H63297   3.953   3.635   6.028  0.3736  0.4516 -0.4325
  469MOL0     H63298   3.737   3.502   5.972 -0.0739 -1.1509  2.8099
  469MOL0     H63299   3.417   3.552   5.565 -4.0765  1.0803 -2.6008
  469MOL0     H63300   3.273   3.367   5.481  4.7498 -1.8885  0.0375
  469MOL0     H63301   3.763   2.789   5.828  1.4347  2.2743 -1.3459
  469MOL0     H63302   3.931   2.728   5.992 -0.3161 -0.0811  0.4781
  469MOL0     H63303   4.116   2.670   6.270 -0.0026 -3.8593 -3.0537
  469MOL0     H63304   4.286   2.507   6.365  0.3950 -0.0215  0.1972
  469MOL0     H63305   4.666   2.700   6.424  1.4627 -1.2957 -2.9323
  469MOL0     H63306   4.603   2.591   6.550  0.4436  0.4681  0.0678
  469MOL0     H63307   4.852   2.589   6.458 -1.8569  1.9087  2.0517
  469MOL0     H63308   4.777   2.508   6.311 -1.2500 -0.7188 -0.9644
  469MOL0     H63309   4.687   2.332   6.432 -1.0210 -0.1024 -0.1366
  469MOL0     H63310   4.747   2.391   6.586  2.4019  0.7545  0.1073
  469MOL0     H63311   4.876   2.187   6.475  1.4268 -1.5756 -2.2853
  469MOL0     H63312   4.966   2.311   6.554  0.7464  0.2213 -1.4954
  469MOL0     H63313   5.118   2.365   6.177  0.2306  3.8974  0.9805
  469MOL0     H63314   4.596   2.761   6.207 -0.5102 -0.9660 -2.7148
  469MOL0     H63315   4.430   2.915   6.099  1.7562 -0.0006  0.8509
  470MOL0     O63316  10.343   7.741   0.131 -0.0879  0.1502 -0.0977
  470MOL0     C63317  10.306   7.685   0.026  0.3560  0.3917 -0.4686
  470MOL0     O63318  10.381   7.656  -0.084 -0.0298 -0.1688  0.4721
  470MOL0     C63319  10.513   7.690  -0.081 -0.3950  0.8015  0.7766
  470MOL0     C63320  10.563   7.797  -0.159 -0.6797 -0.0885 -0.4282
  470MOL0     C63321  10.702   7.805  -0.183  0.0917 -0.9525  0.6814
  470MOL0     C63322  10.794   7.722  -0.117  0.5241 -0.5281  0.5722
  470MOL0     O63323  10.929   7.739  -0.123  0.7234  0.2958 -0.4079
  470MOL0     C63324  11.003   7.852  -0.186  0.5976 -0.8066  0.3508
  470MOL0     C63325  11.018   7.824  -0.342 -0.0812  0.6449 -0.6417
  470MOL0     C63326  11.108   7.939  -0.404  0.7158  0.4543 -0.1487
  470MOL0     C63327  11.120   7.926  -0.554  0.2847  0.5133 -0.4521
  470MOL0     C63328  11.183   8.055  -0.610  0.0860  0.3513  0.3075
  470MOL0     C63329  11.330   8.077  -0.597 -0.0417  0.5507  1.0557
  470MOL0     C63330  11.408   8.111  -0.732 -0.7810 -0.1854  0.8688
  470MOL0     C63331  11.432   7.985  -0.819 -0.1719  0.3652 -0.7175
  470MOL0     N63332  11.460   8.038  -0.955  0.4924 -0.2989 -0.0278
  470MOL0     C63333  11.377   8.088  -1.045  0.1597  0.1008 -0.4845
  470MOL0     C63334  11.451   8.136  -1.147  0.6319  0.4268  0.1262
  470MOL0     C63335  11.398   8.178  -1.280  0.5711  0.4728 -0.0192
  470MOL0     C63336  11.302   8.073  -1.341 -1.1282  0.2735 -0.2720
  470MOL0     C63337  11.283   8.119  -1.482  0.6066  0.0393 -0.0706
  470MOL0     C63338  11.169   8.057  -1.562  0.3255 -0.8709  0.5482
  470MOL0     O63339  11.044   8.052  -1.481 -0.1173  0.6643  1.6445
  470MOL0     C63340  10.976   8.168  -1.459  0.2358 -0.2154 -0.4360
  470MOL0     C63341  10.966   8.275  -1.550  0.1577 -0.4047 -1.2911
  470MOL0     C63342  10.908   8.404  -1.513 -0.9347  0.8277  0.3157
  470MOL0     C63343  10.890   8.512  -1.622 -0.5263  0.4493 -0.1798
  470MOL0     C63344  10.856   8.424  -1.379 -0.1226 -0.2253  0.6878
  470MOL0     C63345  10.771   8.531  -1.337  0.4313 -0.9726 -0.5018
  470MOL0     O63346  10.751   8.643  -1.422  0.1565  0.7924 -0.2058
  470MOL0     C63347  10.684   8.751  -1.379 -0.4512  0.0774  0.4260
  470MOL0     C63348  10.584   8.797  -1.466  0.3765 -1.2690 -0.0208
  470MOL0     C63349  10.520   8.918  -1.433 -0.1578 -1.4260  0.5146
  470MOL0     C63350  10.559   8.999  -1.320  0.0017  0.5264  0.3223
  470MOL0     O63351  10.495   9.117  -1.278 -0.4105  0.1151 -0.2275
  470MOL0     C63352  10.351   9.129  -1.277 -0.4760 -0.4665 -0.4846
  470MOL0     C63353  10.311   9.240  -1.366 -0.1516 -0.4690  0.9278
  470MOL0     C63354  10.347   9.205  -1.511  0.2572 -0.4138  0.3109
  470MOL0     C63355  10.310   9.315  -1.602  0.1713  0.2500  0.5531
  470MOL0     C63356  10.340   9.281  -1.756 -0.1294  0.2111  0.4227
  470MOL0     C63357  10.485   9.237  -1.789 -0.0429 -0.0144  0.8749
  470MOL0     C63358  10.507   9.222  -1.938 -0.3870 -0.0171  0.8944
  470MOL0     C63359  10.670   9.254  -1.965  1.3257 -0.1048  1.1919
  470MOL0    Cl63360  10.701   9.415  -1.985  0.4208 -0.5007  0.4400
  470MOL0     C63361  10.658   8.949  -1.237  0.2627 -0.1963 -0.7173
  470MOL0     C63362  10.721   8.827  -1.269 -0.4121  0.8191  0.4091
  470MOL0     O63363  10.730   8.529  -1.222  0.0259 -0.2398  0.0195
  470MOL0     C63364  10.880   8.317  -1.287  0.8120 -0.8235 -0.1640
  470MOL0     C63365  10.926   8.195  -1.324 -1.0997 -0.3725  0.0089
  470MOL0     N63366  11.578   8.144  -1.102  1.1086  0.7766  0.3165
  470MOL0     N63367  11.585   8.072  -0.994  0.4037  0.0692  0.2267
  470MOL0     C63368  10.741   7.617  -0.040 -0.3385 -0.4467 -0.0565
  470MOL0     C63369  10.603   7.596  -0.027  0.1565 -0.5442 -0.2768
  470MOL0     C63370  10.159   7.670   0.011 -0.0086  0.0553  0.6478
  470MOL0     C63371  10.107   7.645  -0.113 -0.9523 -0.4767  0.6776
  470MOL0     C63372   9.972   7.610  -0.140  0.9034 -0.8585 -0.0979
  470MOL0     C63373   9.881   7.623  -0.030  0.1088 -0.0082  0.0124
  470MOL0     O63374   9.751   7.589  -0.056 -0.2395 -0.0260 -0.7011
  470MOL0     C63375   9.655   7.635   0.044 -0.2573  0.2183  0.9308
  470MOL0     C63376   9.518   7.656  -0.028 -0.4267 -0.8653  0.6222
  470MOL0     C63377   9.400   7.648   0.075  0.1464  0.9008  0.0679
  470MOL0     C63378   9.359   7.499   0.095 -0.1735  0.8230 -0.4514
  470MOL0     C63379   9.291   7.423  -0.007  0.1271  0.4086  0.0150
  470MOL0     C63380   9.226   7.356  -0.085  0.3086 -0.0311  0.3544
  470MOL0     C63381   9.930   7.659   0.095  0.7492 -0.2305  0.3323
  470MOL0     C63382  10.064   7.678   0.119  0.1175  0.4721 -0.0827
  470MOL0     H63383  10.493   7.865  -0.207  0.2739  0.0239 -1.7177
  470MOL0     H63384  10.736   7.891  -0.239 -3.1250  1.4243  2.0374
  470MOL0     H63385  10.950   7.945  -0.165  0.1021 -1.5214  2.5010
  470MOL0     H63386  11.106   7.849  -0.151  1.0319 -1.3688 -0.9066
  470MOL0     H63387  11.071   7.729  -0.354  0.2695  0.5439  1.3548
  470MOL0     H63388  10.921   7.811  -0.392 -0.0315 -0.5265 -0.4583
  470MOL0     H63389  11.058   8.033  -0.377  0.9870 -0.6384  5.2458
  470MOL0     H63390  11.210   7.927  -0.367 -0.2864  0.5893  2.9615
  470MOL0     H63391  11.187   7.845  -0.583  0.4021  1.0909 -1.8266
  470MOL0     H63392  11.019   7.911  -0.592 -0.1347 -0.2315  0.8698
  470MOL0     H63393  11.148   8.051  -0.714 -2.6098  1.0328  1.1278
  470MOL0     H63394  11.134   8.143  -0.570 -1.0231 -0.3876  0.6291
  470MOL0     H63395  11.343   8.164  -0.532  2.4353 -0.7273  2.4442
  470MOL0     H63396  11.379   8.000  -0.536 -0.6228  1.0386  2.1816
  470MOL0     H63397  11.326   8.158  -0.786  0.0380 -1.2830 -1.4852
  470MOL0     H63398  11.484   8.189  -0.721  0.0810 -0.6312 -1.3810
  470MOL0     H63399  11.349   7.915  -0.811  1.4982 -1.8065 -1.2318
  470MOL0     H63400  11.524   7.939  -0.781 -1.1759  0.6974  2.3646
  470MOL0     H63401  11.270   8.080  -1.030  0.2381 -0.5968 -0.2563
  470MOL0     H63402  11.354   8.278  -1.278 -0.0721  0.2773 -1.8997
  470MOL0     H63403  11.487   8.169  -1.343  0.8735 -2.0758  0.6653
  470MOL0     H63404  11.212   8.066  -1.280 -0.6442  1.0289  0.5549
  470MOL0     H63405  11.349   7.974  -1.346 -0.3104  0.6961 -2.5180
  470MOL0     H63406  11.376   8.101  -1.536  0.3241 -0.8875 -0.2678
  470MOL0     H63407  11.264   8.227  -1.484  2.8233  0.5627  2.1817
  470MOL0     H63408  11.196   7.954  -1.587 -1.4435 -0.8855 -1.7043
  470MOL0     H63409  11.137   8.109  -1.654 -1.2273  3.3259  3.1532
  470MOL0     H63410  11.012   8.261  -1.647  1.5543 -2.1742 -0.4355
  470MOL0     H63411  10.787   8.548  -1.618 -0.6285  0.8439 -3.3498
  470MOL0     H63412  10.967   8.590  -1.608 -1.0667  0.8895  0.3802
  470MOL0     H63413  10.899   8.473  -1.724 -0.7726 -0.7595  0.2481
  470MOL0     H63414  10.558   8.745  -1.558  2.2293 -1.3748 -0.5263
  470MOL0     H63415  10.431   8.949  -1.487  0.3944 -0.8101 -0.0596
  470MOL0     H63416  10.309   9.034  -1.313 -1.1684 -0.9639  1.5324
  470MOL0     H63417  10.318   9.146  -1.174 -2.2183  3.0901 -1.4774
  470MOL0     H63418  10.202   9.243  -1.363 -0.2345  3.2171 -0.8817
  470MOL0     H63419  10.359   9.330  -1.327  1.6442 -1.3586  0.9228
  470MOL0     H63420  10.288   9.122  -1.550  0.7324 -0.2978 -0.7025
  470MOL0     H63421  10.452   9.176  -1.521  0.9384  2.2027 -1.0730
  470MOL0     H63422  10.206   9.345  -1.591 -0.0620 -1.0208  2.2983
  470MOL0     H63423  10.373   9.398  -1.571 -0.3687  0.6913  0.4688
  470MOL0     H63424  10.328   9.369  -1.820 -1.6278 -0.6255 -0.5111
  470MOL0     H63425  10.271   9.206  -1.796  1.0646  0.1887 -1.7650
  470MOL0     H63426  10.558   9.308  -1.749  0.2709  0.1079  0.1035
  470MOL0     H63427  10.514   9.146  -1.735 -1.6940 -0.1514  1.5879
  470MOL0     H63428  10.436   9.283  -1.994 -0.1233 -0.4404  0.0915
  470MOL0     H63429  10.484   9.119  -1.965 -0.1926 -0.1491  1.2263
  470MOL0     H63430  10.681   9.207  -2.063 -0.6329 -2.4017  1.9595
  470MOL0     H63431  10.734   9.212  -1.887  1.9476  1.9741  1.8630
  470MOL0     H63432  10.672   8.991  -1.139 -1.1601 -2.0244  0.3349
  470MOL0     H63433  10.803   8.800  -1.203 -0.4053  1.0570  0.5024
  470MOL0     H63434  10.840   8.319  -1.186 -0.8424 -2.5714 -0.7292
  470MOL0     H63435  10.943   8.129  -1.239 -1.8790  0.2341  0.6530
  470MOL0     H63436  10.812   7.555   0.015 -0.1374 -1.6940 -1.6582
  470MOL0     H63437  10.579   7.512   0.037 -1.1483  1.0983  1.5542
  470MOL0     H63438  10.175   7.659  -0.196 -1.3104  1.1507  0.6275
  470MOL0     H63439   9.958   7.587  -0.245  3.7057 -0.1596 -0.7235
  470MOL0     H63440   9.644   7.558   0.121 -2.4277  0.7552  1.2312
  470MOL0     H63441   9.693   7.730   0.082 -1.7463  1.4176 -0.4827
  470MOL0     H63442   9.522   7.578  -0.105  3.9850  0.8877 -1.3065
  470MOL0     H63443   9.519   7.750  -0.084  1.7808 -0.8280  0.6420
  470MOL0     H63444   9.319   7.710   0.038  0.4595 -0.2096 -2.7297
  470MOL0     H63445   9.423   7.697   0.170 -2.4824  0.7120  0.8805
  470MOL0     H63446   9.307   7.486   0.190  0.5501 -0.9854 -0.2656
  470MOL0     H63447   9.453   7.447   0.114 -0.8205 -0.5410 -0.8430
  470MOL0     H63448   9.177   7.298  -0.160 -1.7557  2.9994 -0.8625
  470MOL0     H63449   9.875   7.681   0.186 -0.2534  0.6287 -0.4634
  470MOL0     H63450  10.096   7.705   0.219 -5.4346  0.2168  2.1341
  471MOL0     O63451   6.582   8.068   8.933 -0.8803 -0.4864 -0.6687
  471MOL0     C63452   6.540   8.013   8.834 -0.1522 -0.3142  0.7572
  471MOL0     O63453   6.417   7.959   8.815  0.2055  0.4469 -0.0732
  471MOL0     C63454   6.323   7.938   8.915 -0.2434  0.0609  0.8750
  471MOL0     C63455   6.189   7.919   8.886  0.5572 -0.3419 -0.5448
  471MOL0     C63456   6.096   7.910   8.992  0.2472  1.1305 -0.3144
  471MOL0     C63457   6.128   7.904   9.129  0.6988 -0.6290 -0.7603
  471MOL0     O63458   6.036   7.895   9.231  0.5222 -0.0244 -0.1572
  471MOL0     C63459   6.078   7.927   9.362 -0.1205  0.2526  0.2833
  471MOL0     C63460   6.080   8.078   9.374  0.4347  0.6626  1.1552
  471MOL0     C63461   6.042   8.118   9.519 -0.7473  0.8329  0.4668
  471MOL0     C63462   5.922   8.210   9.520  0.4899 -0.9416 -0.7178
  471MOL0     C63463   5.869   8.246   9.658 -0.5736 -0.6051 -1.2059
  471MOL0     C63464   5.785   8.367   9.649 -0.4743 -0.1431  0.2465
  471MOL0     C63465   5.654   8.349   9.576 -0.1148 -0.5559  0.4468
  471MOL0     C63466   5.546   8.302   9.670  0.5523  0.1379  0.0462
  471MOL0     N63467   5.405   8.273   9.623 -1.5382 -0.2466  0.2115
  471MOL0     C63468   5.369   8.300   9.496  0.3551 -0.0997 -0.1168
  471MOL0     C63469   5.249   8.239   9.488 -0.2591 -0.4175  0.4003
  471MOL0     C63470   5.171   8.249   9.363 -1.0901  0.9304 -0.1541
  471MOL0     C63471   5.231   8.160   9.248 -0.6526 -0.1052  0.0667
  471MOL0     C63472   5.190   8.017   9.282  0.2931 -0.5937 -1.0665
  471MOL0     C63473   5.238   7.925   9.168 -0.1836  0.0801 -0.8162
  471MOL0     O63474   5.127   7.825   9.137 -0.2393  0.0569 -0.1038
  471MOL0     C63475   5.152   7.749   9.028  0.3829  0.5360 -0.6674
  471MOL0     C63476   5.056   7.659   8.983 -1.8356  0.1051  0.3324
  471MOL0     C63477   5.076   7.582   8.872  0.6509  0.2201 -0.2234
  471MOL0     C63478   4.957   7.493   8.834 -0.5873 -0.5510  0.1531
  471MOL0     C63479   5.189   7.596   8.787 -0.0951  0.1235  0.5184
  471MOL0     C63480   5.210   7.544   8.650  0.5645 -0.0307 -0.7771
  471MOL0     O63481   5.330   7.530   8.606 -0.5564  0.0268  0.5590
  471MOL0     C63482   5.350   7.503   8.468  0.5165 -0.3116 -0.3085
  471MOL0     C63483   5.289   7.574   8.366  0.7330  0.5253 -0.3249
  471MOL0     C63484   5.321   7.537   8.231  0.4482 -0.0322  0.6186
  471MOL0     C63485   5.410   7.438   8.201  0.0349  0.2926 -0.0305
  471MOL0     O63486   5.448   7.399   8.079 -0.5234  0.6184  0.4189
  471MOL0     C63487   5.390   7.457   7.961 -0.2105 -0.0702 -0.4326
  471MOL0     C63488   5.276   7.367   7.907 -0.0989 -0.5703  0.2759
  471MOL0     C63489   5.337   7.245   7.844 -1.3084 -0.0978 -0.0266
  471MOL0     C63490   5.226   7.141   7.810 -0.6938  0.0838  0.6489
  471MOL0     C63491   5.286   7.009   7.762  0.3590  0.4688 -0.2369
  471MOL0     C63492   5.195   6.897   7.753 -0.9385  0.5032 -0.1615
  471MOL0     C63493   5.234   6.801   7.648 -0.0563 -1.0788  0.8961
  471MOL0     C63494   5.143   6.677   7.655  0.3896  0.3290 -0.2602
  471MOL0    Cl63495   5.141   6.587   7.803 -0.0242  0.0797  0.2182
  471MOL0     C63496   5.478   7.373   8.310 -1.0759 -0.7986  0.0244
  471MOL0     C63497   5.444   7.403   8.442  0.1909 -0.1053 -0.5116
  471MOL0     O63498   5.113   7.516   8.587 -0.0520 -0.1089  0.8433
  471MOL0     C63499   5.300   7.685   8.832 -0.1630  0.6775 -0.2913
  471MOL0     C63500   5.274   7.757   8.949  0.0319  0.1757 -0.9044
  471MOL0     N63501   5.219   8.181   9.609  0.7394 -0.0153  0.8001
  471MOL0     N63502   5.312   8.206   9.691  0.3821  0.0522 -0.6273
  471MOL0     C63503   6.263   7.892   9.149  0.5161 -1.0252 -0.1446
  471MOL0     C63504   6.356   7.921   9.052 -0.0094  0.2498  0.5351
  471MOL0     C63505   6.649   8.010   8.744  0.1215 -0.4638 -0.6336
  471MOL0     C63506   6.779   8.060   8.766 -1.4959 -0.3910 -0.1975
  471MOL0     C63507   6.886   8.058   8.674 -0.0439 -0.6084  0.6788
  471MOL0     C63508   6.851   8.019   8.546  0.8773 -0.5795 -0.0391
  471MOL0     O63509   6.940   8.008   8.442  0.5336 -0.9263  0.2806
  471MOL0     C63510   6.943   8.123   8.362  0.1636 -0.3530 -0.4831
  471MOL0     C63511   7.047   8.227   8.422  0.7810 -0.5507 -0.2321
  471MOL0     C63512   7.192   8.185   8.439 -0.3682  0.6187  0.0657
  471MOL0     C63513   7.288   8.308   8.446  0.9079 -0.2598 -0.1143
  471MOL0     C63514   7.420   8.246   8.475 -0.2596 -0.1849 -0.5125
  471MOL0     C63515   7.528   8.186   8.502  0.0755 -0.1323 -0.0223
  471MOL0     C63516   6.731   7.952   8.527  0.4233 -0.6146  0.5180
  471MOL0     C63517   6.630   7.950   8.619  0.1728  0.6262  0.0872
  471MOL0     H63518   6.152   7.917   8.784 -0.9378 -1.0571 -0.0266
  471MOL0     H63519   5.991   7.910   8.966 -0.7414 -1.8929  2.8270
  471MOL0     H63520   6.000   7.885   9.426 -0.3193 -0.1868 -0.2337
  471MOL0     H63521   6.172   7.878   9.390 -0.5579 -0.6194  0.2668
  471MOL0     H63522   6.170   8.123   9.333  0.7124 -0.6459  0.2722
  471MOL0     H63523   5.992   8.106   9.315 -0.6688 -2.5989  1.0789
  471MOL0     H63524   6.026   8.031   9.583 -0.1101 -0.0187 -0.4907
  471MOL0     H63525   6.126   8.175   9.560  1.1544 -2.3173  1.2603
  471MOL0     H63526   5.954   8.301   9.468  2.7663 -0.2377  1.7168
  471MOL0     H63527   5.837   8.159   9.472 -0.7519  0.0348  0.3671
  471MOL0     H63528   5.801   8.168   9.694 -1.0380  0.9104  1.4893
  471MOL0     H63529   5.941   8.261   9.739 -3.1867 -2.5919  1.7177
  471MOL0     H63530   5.772   8.408   9.750 -0.4074 -1.6152  0.8749
  471MOL0     H63531   5.839   8.450   9.601  2.0639 -0.5250  2.1811
  471MOL0     H63532   5.615   8.442   9.533 -3.1546 -1.7554  0.3832
  471MOL0     H63533   5.678   8.270   9.504  1.5265 -1.9194  2.3812
  471MOL0     H63534   5.545   8.392   9.733  0.1169 -0.3878  0.8112
  471MOL0     H63535   5.574   8.215   9.730 -1.5420  1.2408  2.9022
  471MOL0     H63536   5.429   8.331   9.411  3.2673  1.9230  2.4152
  471MOL0     H63537   5.066   8.237   9.392 -0.7981  0.5080  0.7628
  471MOL0     H63538   5.182   8.354   9.334  1.5655  0.5300 -0.8846
  471MOL0     H63539   5.340   8.146   9.245 -0.6148  0.2018 -2.5709
  471MOL0     H63540   5.190   8.196   9.153  2.7612  2.1598 -0.7350
  471MOL0     H63541   5.081   8.011   9.289  0.1510  1.0846 -1.4580
  471MOL0     H63542   5.227   7.982   9.379  0.1654 -5.0064 -2.4260
  471MOL0     H63543   5.331   7.869   9.183 -1.1392 -1.5167 -0.6401
  471MOL0     H63544   5.241   7.994   9.084 -1.6357  1.1022 -0.0715
  471MOL0     H63545   4.964   7.653   9.040 -3.5851 -2.1012 -2.4822
  471MOL0     H63546   4.925   7.524   8.734  0.4955 -1.8333 -0.6246
  471MOL0     H63547   4.985   7.387   8.834  1.6341 -0.0402 -0.9132
  471MOL0     H63548   4.881   7.496   8.913 -0.2018  1.3449  0.5038
  471MOL0     H63549   5.219   7.653   8.391 -0.2640  0.2588 -2.0993
  471MOL0     H63550   5.267   7.602   8.163 -0.1667 -0.3370  0.8120
  471MOL0     H63551   5.362   7.560   7.986  1.8531  0.8320 -1.5520
  471MOL0     H63552   5.473   7.478   7.893  1.6955 -0.3305  1.6787
  471MOL0     H63553   5.216   7.348   7.997 -0.2126  1.5281  0.6898
  471MOL0     H63554   5.217   7.419   7.831  1.5433 -0.2655 -0.8398
  471MOL0     H63555   5.413   7.200   7.909 -1.3307 -0.3591 -0.1815
  471MOL0     H63556   5.371   7.277   7.745 -0.4843 -0.4991  0.1169
  471MOL0     H63557   5.156   7.131   7.894 -0.5310  0.1363  0.7918
  471MOL0     H63558   5.158   7.184   7.736 -2.2095 -1.7548  0.9016
  471MOL0     H63559   5.355   6.979   7.842  0.8310  0.1837 -0.7475
  471MOL0     H63560   5.334   7.029   7.666  2.5436  6.6071  1.6561
  471MOL0     H63561   5.185   6.841   7.847 -0.7878  0.7243 -0.0148
  471MOL0     H63562   5.096   6.941   7.735 -1.0834  1.1888  2.0048
  471MOL0     H63563   5.335   6.766   7.671  0.7161  1.6082  1.9358
  471MOL0     H63564   5.213   6.841   7.548 -0.9014  0.2364  1.5692
  471MOL0     H63565   5.178   6.600   7.585 -0.0895  0.6858 -0.8958
  471MOL0     H63566   5.043   6.721   7.654  0.4638  0.8660  3.2295
  471MOL0     H63567   5.563   7.313   8.278  0.2565  0.8563  0.3631
  471MOL0     H63568   5.506   7.364   8.522  0.6825 -0.2723 -0.9688
  471MOL0     H63569   5.392   7.685   8.774 -2.0254 -1.1021 -3.5236
  471MOL0     H63570   5.355   7.826   8.971 -0.1086  0.0108  0.1560
  471MOL0     H63571   6.310   7.874   9.245 -0.3204 -1.2008  0.2418
  471MOL0     H63572   6.460   7.933   9.081 -0.3365  0.2002  1.7575
  471MOL0     H63573   6.802   8.096   8.866 -2.0716  1.3729 -0.6626
  471MOL0     H63574   6.987   8.097   8.678  1.0505 -2.8679 -1.8584
  471MOL0     H63575   6.982   8.102   8.262  0.1066 -0.1945 -0.5396
  471MOL0     H63576   6.844   8.168   8.345  0.6081  0.7019 -0.3744
  471MOL0     H63577   7.000   8.267   8.512  0.2030  2.0000 -1.5571
  471MOL0     H63578   7.051   8.319   8.362 -1.7831  2.8637  4.1885
  471MOL0     H63579   7.216   8.117   8.357 -1.8890  0.6932 -0.4685
  471MOL0     H63580   7.201   8.129   8.532  1.0861 -0.6011 -0.7705
  471MOL0     H63581   7.262   8.367   8.534  0.3967  0.2929 -0.6257
  471MOL0     H63582   7.299   8.367   8.355  0.7090  0.3460  0.2526
  471MOL0     H63583   7.618   8.133   8.523 -1.6631 -2.2968  2.6447
  471MOL0     H63584   6.730   7.899   8.432 -3.4466  0.2219 -0.0817
  471MOL0     H63585   6.539   7.906   8.581 -0.2627  0.0582  1.7335
  472MOL0     O63586   0.786   4.759   5.763  1.0617 -0.2828  0.1351
  472MOL0     C63587   0.737   4.661   5.703 -0.3869  0.1837  0.7983
  472MOL0     O63588   0.779   4.538   5.720 -0.1601  0.6648  0.0744
  472MOL0     C63589   0.893   4.520   5.796  0.3759 -0.9614  0.1180
  472MOL0     C63590   0.987   4.421   5.752 -0.2742 -0.6259  0.0753
  472MOL0     C63591   1.102   4.398   5.819  0.0995  1.7091  0.0512
  472MOL0     C63592   1.124   4.451   5.944 -0.3425 -0.4792 -0.3780
  472MOL0     O63593   1.239   4.402   6.006  0.0649  0.4109 -0.4729
  472MOL0     C63594   1.291   4.471   6.120 -0.1210 -0.4906  0.0396
  472MOL0     C63595   1.408   4.396   6.187 -0.6161  0.2176 -0.6895
  472MOL0     C63596   1.522   4.354   6.084  0.1725 -0.0382  0.1323
  472MOL0     C63597   1.658   4.359   6.152 -0.6880 -0.1634 -0.0462
  472MOL0     C63598   1.758   4.277   6.072 -0.0839 -0.1264  0.3094
  472MOL0     C63599   1.883   4.253   6.159 -0.5637 -0.6922  0.1394
  472MOL0     C63600   1.971   4.142   6.101  0.0808  0.2447  0.9036
  472MOL0     C63601   2.039   4.187   5.965  0.1700 -0.1843  0.5786
  472MOL0     N63602   2.158   4.283   5.991 -0.1814 -0.9387  0.5739
  472MOL0     C63603   2.184   4.399   5.915 -0.2789 -0.0887  0.4074
  472MOL0     C63604   2.301   4.439   5.966 -0.0562  0.9241  0.1993
  472MOL0     C63605   2.391   4.545   5.904 -0.2578 -0.0861  0.6058
  472MOL0     C63606   2.531   4.576   5.965  0.2543  0.0037  0.1499
  472MOL0     C63607   2.626   4.479   5.908 -0.2276  0.4354 -0.5331
  472MOL0     C63608   2.756   4.493   5.986  0.0849  0.8003 -0.6664
  472MOL0     O63609   2.845   4.597   5.931  0.6483 -0.0099  0.1728
  472MOL0     C63610   2.964   4.546   5.892 -0.7081 -0.2235  0.7805
  472MOL0     C63611   3.061   4.527   5.990  0.4238  0.7112  0.1999
  472MOL0     C63612   3.184   4.472   5.960  0.8679  0.0370  0.0245
  472MOL0     C63613   3.282   4.451   6.072  0.4793  0.5706  0.4052
  472MOL0     C63614   3.216   4.443   5.820  0.0059 -0.0577 -1.1101
  472MOL0     C63615   3.345   4.387   5.764  0.7405  0.2410 -0.7449
  472MOL0     O63616   3.340   4.354   5.635 -0.3733  0.4434 -0.0314
  472MOL0     C63617   3.464   4.320   5.574  1.0206 -0.0198 -0.6018
  472MOL0     C63618   3.513   4.187   5.584 -0.6978 -0.3144  0.3075
  472MOL0     C63619   3.640   4.152   5.528  0.1034 -0.1305 -0.1361
  472MOL0     C63620   3.715   4.253   5.481 -0.0147 -0.4155  0.3870
  472MOL0     O63621   3.840   4.204   5.438 -0.4606 -0.3720  0.0169
  472MOL0     C63622   3.931   4.295   5.382 -0.9143  0.4529 -0.8850
  472MOL0     C63623   4.059   4.205   5.358 -0.3309 -0.7989 -0.2299
  472MOL0     C63624   4.035   4.104   5.235  0.6124 -1.4322 -0.6833
  472MOL0     C63625   4.161   4.029   5.208  0.4702  0.2906 -1.0643
  472MOL0     C63626   4.145   3.917   5.100 -0.0600 -0.6931 -1.0779
  472MOL0     C63627   4.271   3.840   5.074 -0.3024  0.1462  0.2255
  472MOL0     C63628   4.237   3.698   5.035 -0.1320  0.0501  0.0575
  472MOL0     C63629   4.189   3.599   5.148  0.3444 -0.2905 -0.4332
  472MOL0    Cl63630   4.320   3.594   5.274 -0.2609  0.2285  0.2590
  472MOL0     C63631   3.671   4.389   5.471 -0.7793  1.5296  0.7111
  472MOL0     C63632   3.545   4.419   5.519 -0.2147 -1.1838  0.0647
  472MOL0     O63633   3.446   4.380   5.839 -0.6665  0.2309  0.7694
  472MOL0     C63634   3.125   4.484   5.719 -0.0669 -0.5457  0.4624
  472MOL0     C63635   2.994   4.524   5.757 -0.2903 -0.4358  0.0937
  472MOL0     N63636   2.336   4.355   6.078  0.2959 -0.1246 -0.1459
  472MOL0     N63637   2.246   4.262   6.082 -0.3102  0.3475  1.1359
  472MOL0     C63638   1.020   4.530   5.997  0.3108  0.0477 -1.0529
  472MOL0     C63639   0.906   4.567   5.929 -0.3708 -0.8039 -0.3694
  472MOL0     C63640   0.626   4.684   5.606  0.4670  0.1956  0.0591
  472MOL0     C63641   0.584   4.580   5.524  0.3545  0.2093  0.7802
  472MOL0     C63642   0.466   4.590   5.460  0.9359  0.0789  0.2407
  472MOL0     C63643   0.388   4.712   5.457  0.4575 -0.4074 -0.3884
  472MOL0     O63644   0.277   4.725   5.380  0.0114 -0.0962 -0.1141
  472MOL0     C63645   0.263   4.626   5.271 -0.5190  0.5327 -0.3408
  472MOL0     C63646   0.164   4.684   5.172 -0.9294 -0.4517  0.3674
  472MOL0     C63647   0.188   4.609   5.040 -0.8226  0.0832 -0.1587
  472MOL0     C63648   0.097   4.490   5.017 -0.4100 -0.0345 -0.7942
  472MOL0     C63649  -0.033   4.536   4.968  0.0940  0.6067 -0.1267
  472MOL0     C63650  -0.134   4.583   4.914 -0.2324  0.1062  0.5035
  472MOL0     C63651   0.432   4.803   5.541 -0.1460 -0.0889 -0.6290
  472MOL0     C63652   0.542   4.794   5.621 -0.1254  0.1203 -0.7437
  472MOL0     H63653   0.976   4.372   5.655  0.8551  2.9521 -2.0378
  472MOL0     H63654   1.173   4.326   5.777 -0.8779 -0.7699  2.4050
  472MOL0     H63655   1.329   4.568   6.089  1.6571 -1.0307  0.4249
  472MOL0     H63656   1.209   4.481   6.192 -0.0888  0.9966 -0.1117
  472MOL0     H63657   1.456   4.457   6.264  1.5552 -2.3578  0.1301
  472MOL0     H63658   1.370   4.304   6.233  2.1033  0.4361  2.3818
  472MOL0     H63659   1.492   4.257   6.044 -4.1106  1.7483 -1.6856
  472MOL0     H63660   1.537   4.430   6.007 -0.1920  0.5982  0.6802
  472MOL0     H63661   1.694   4.460   6.175 -0.1177  0.3575 -2.8914
  472MOL0     H63662   1.637   4.313   6.249 -2.8756  3.8476  1.6471
  472MOL0     H63663   1.722   4.182   6.033  0.0187  0.3139 -0.9063
  472MOL0     H63664   1.779   4.329   5.978  2.0897  0.2108  0.9389
  472MOL0     H63665   1.923   4.352   6.184 -1.9371  0.0758 -0.5713
  472MOL0     H63666   1.850   4.210   6.254 -3.0142  1.2581  0.2598
  472MOL0     H63667   2.041   4.114   6.180 -0.7294 -4.8649  0.0979
  472MOL0     H63668   1.908   4.058   6.072 -0.3932  0.1963  1.9969
  472MOL0     H63669   1.966   4.233   5.898  2.0473 -1.0930 -2.2593
  472MOL0     H63670   2.073   4.099   5.910 -2.4706 -2.0220  1.6552
  472MOL0     H63671   2.122   4.447   5.840  0.3314  1.4408  0.8497
  472MOL0     H63672   2.392   4.513   5.800 -3.4486  3.7162 -0.8548
  472MOL0     H63673   2.336   4.638   5.921 -2.1917 -1.2605  1.0601
  472MOL0     H63674   2.529   4.575   6.075 -1.2448 -0.8221  0.1324
  472MOL0     H63675   2.565   4.675   5.934 -0.6468 -0.4505 -2.5246
  472MOL0     H63676   2.627   4.482   5.799  0.6633  1.1125 -0.5140
  472MOL0     H63677   2.592   4.381   5.944 -1.3386  0.9259 -0.1780
  472MOL0     H63678   2.797   4.391   5.981 -3.5437 -0.9412  0.8326
  472MOL0     H63679   2.734   4.512   6.091  0.7192  0.0645 -0.3922
  472MOL0     H63680   3.044   4.556   6.093  2.2784  0.2526  0.6626
  472MOL0     H63681   3.303   4.343   6.070 -1.1891  0.2041 -2.3051
  472MOL0     H63682   3.380   4.499   6.066  0.5430  0.4339 -4.9656
  472MOL0     H63683   3.220   4.468   6.160 -3.9650 -0.2680 -2.2441
  472MOL0     H63684   3.473   4.100   5.635  0.9506 -1.9434 -1.0465
  472MOL0     H63685   3.677   4.050   5.536  1.2708  0.3306  0.6328
  472MOL0     H63686   3.881   4.333   5.292 -2.1746 -1.7363 -1.1634
  472MOL0     H63687   3.961   4.387   5.433  0.1025  2.1168 -4.1442
  472MOL0     H63688   4.156   4.253   5.338  0.1524 -2.7346 -3.0924
  472MOL0     H63689   4.086   4.135   5.438  0.2204 -0.2384  0.0881
  472MOL0     H63690   4.000   4.168   5.154 -2.7643 -0.7656  1.1084
  472MOL0     H63691   3.953   4.035   5.258 -1.0671  0.1592 -1.6133
  472MOL0     H63692   4.236   4.106   5.187 -0.6190  1.4223 -0.9302
  472MOL0     H63693   4.175   3.973   5.301 -0.7559 -0.1589 -1.1345
  472MOL0     H63694   4.116   3.958   5.002 -1.8174  1.1912  0.1610
  472MOL0     H63695   4.068   3.848   5.135 -1.1959  1.2069  0.3265
  472MOL0     H63696   4.336   3.881   4.996  1.0907 -2.5218 -0.1154
  472MOL0     H63697   4.333   3.835   5.164 -1.1648 -2.2171  0.7725
  472MOL0     H63698   4.328   3.659   4.988  2.2539  0.7730  3.6817
  472MOL0     H63699   4.163   3.701   4.955 -0.0629 -1.3859 -0.0803
  472MOL0     H63700   4.178   3.499   5.106 -0.8702  0.2220 -1.3847
  472MOL0     H63701   4.098   3.635   5.196  1.4870 -0.4337  2.0059
  472MOL0     H63702   3.735   4.454   5.413 -0.1401 -0.0066 -0.3928
  472MOL0     H63703   3.524   4.526   5.524 -1.0671 -1.3826  1.4288
  472MOL0     H63704   3.144   4.481   5.613  0.0325 -0.0980  0.4663
  472MOL0     H63705   2.922   4.560   5.684 -1.0281 -0.5436  0.7488
  472MOL0     H63706   1.021   4.555   6.103  0.2364 -1.4961 -0.6570
  472MOL0     H63707   0.828   4.628   5.974 -0.1280 -1.1422  0.5439
  472MOL0     H63708   0.646   4.491   5.520 -0.4622 -0.3429  0.2250
  472MOL0     H63709   0.426   4.501   5.412  2.4128  0.1065 -1.1142
  472MOL0     H63710   0.361   4.611   5.225  0.2726 -1.0521  1.7107
  472MOL0     H63711   0.220   4.532   5.306  2.2909 -0.6025  0.3384
  472MOL0     H63712   0.173   4.792   5.153 -1.3181 -0.1532  1.7866
  472MOL0     H63713   0.070   4.677   5.227 -0.8065  0.3316  0.7059
  472MOL0     H63714   0.284   4.557   5.029 -2.3474 -2.8560 -0.5988
  472MOL0     H63715   0.177   4.689   4.966 -1.6528 -0.1925 -0.3454
  472MOL0     H63716   0.079   4.436   5.111 -3.4545  0.0524 -1.2142
  472MOL0     H63717   0.147   4.426   4.943  4.1367  0.6114  1.3664
  472MOL0     H63718  -0.210   4.632   4.856 -1.0778 -2.2288 -0.4861
  472MOL0     H63719   0.380   4.898   5.556 -0.8180 -0.4726 -0.4488
  472MOL0     H63720   0.561   4.868   5.698  2.8568 -1.1138 -0.1244
  473MOL0     O63721   7.338   0.124   3.197 -0.0622  0.7588 -0.6855
  473MOL0     C63722   7.395   0.154   3.104  0.6093 -0.6292  0.4543
  473MOL0     O63723   7.526   0.176   3.100 -0.4331 -0.2411 -0.7808
  473MOL0     C63724   7.606   0.189   3.204  0.5442 -1.0592 -0.1509
  473MOL0     C63725   7.741   0.181   3.164  0.3961  0.8576 -0.7754
  473MOL0     C63726   7.844   0.182   3.253  0.5656 -0.1650 -0.0072
  473MOL0     C63727   7.817   0.200   3.389 -0.4632  0.2258 -0.0867
  473MOL0     O63728   7.930   0.191   3.467  0.3388 -0.0694  0.1632
  473MOL0     C63729   7.956   0.310   3.554 -0.3864  0.2651 -0.4951
  473MOL0     C63730   8.051   0.253   3.673  1.3730 -0.0061  0.3192
  473MOL0     C63731   8.046   0.332   3.809  0.0420  0.6044  0.0541
  473MOL0     C63732   8.031   0.487   3.785 -0.2585 -0.1579 -0.1829
  473MOL0     C63733   8.063   0.567   3.911  0.1814  1.1069 -0.6769
  473MOL0     C63734   8.001   0.512   4.044  0.0402  1.1113  0.3276
  473MOL0     C63735   8.055   0.583   4.167 -0.0772 -0.4363 -0.9815
  473MOL0     C63736   8.008   0.541   4.303  0.5596  0.4060 -0.4680
  473MOL0     N63737   7.857   0.535   4.319 -0.4674 -0.5492  0.2209
  473MOL0     C63738   7.778   0.642   4.302 -0.1163  0.1965 -0.8804
  473MOL0     C63739   7.651   0.600   4.343 -1.0751 -0.5175  0.9627
  473MOL0     C63740   7.524   0.682   4.320  0.7092 -0.4053 -0.3482
  473MOL0     C63741   7.484   0.751   4.454 -0.3594 -0.3014 -0.2659
  473MOL0     C63742   7.367   0.848   4.439  0.9392 -0.2080 -0.1225
  473MOL0     C63743   7.239   0.812   4.363 -0.2897  0.6161  0.4809
  473MOL0     O63744   7.149   0.925   4.363  0.2914  0.0037  0.8293
  473MOL0     C63745   7.024   0.924   4.313  0.2220  0.1784  0.1284
  473MOL0     C63746   6.959   0.808   4.261  0.1942 -0.6862 -0.7879
  473MOL0     C63747   6.829   0.810   4.213 -0.0419  0.1502 -1.2797
  473MOL0     C63748   6.783   0.688   4.159  0.1270  0.2299  0.1708
  473MOL0     C63749   6.767   0.932   4.208  0.0461 -1.2649 -0.9005
  473MOL0     C63750   6.621   0.943   4.191 -1.0143 -0.6419 -0.6733
  473MOL0     O63751   6.584   1.019   4.081  0.1199 -0.2961 -0.6020
  473MOL0     C63752   6.455   1.064   4.095  0.9881 -0.2580 -0.4113
  473MOL0     C63753   6.425   1.189   4.158 -0.0792  0.1444  0.3664
  473MOL0     C63754   6.296   1.237   4.163 -0.3019  0.2122  0.7823
  473MOL0     C63755   6.193   1.164   4.115 -0.4769 -0.6597 -0.1748
  473MOL0     O63756   6.067   1.214   4.112  0.1197 -0.6471 -0.9879
  473MOL0     C63757   5.959   1.135   4.157 -0.3133  0.5055 -0.7162
  473MOL0     C63758   5.886   1.215   4.270 -0.2695  0.2124 -0.5949
  473MOL0     C63759   5.747   1.170   4.317  0.3480 -0.7413  1.0805
  473MOL0     C63760   5.683   1.066   4.235 -0.1484  0.3720  0.1703
  473MOL0     C63761   5.542   1.015   4.277  0.0437  0.0165  0.2915
  473MOL0     C63762   5.487   0.911   4.176  1.2224 -0.3187 -0.0081
  473MOL0     C63763   5.353   0.848   4.217  0.3389 -0.1707 -0.1720
  473MOL0     C63764   5.239   0.945   4.235  0.7336  0.5219  0.0007
  473MOL0    Cl63765   5.179   1.036   4.082  0.2958 -0.3323 -0.1826
  473MOL0     C63766   6.217   1.036   4.054 -0.7580  0.2850 -0.8826
  473MOL0     C63767   6.346   0.986   4.045 -0.4800 -0.0460 -0.3222
  473MOL0     O63768   6.544   0.882   4.265  0.1081  0.1803  0.4509
  473MOL0     C63769   6.827   1.054   4.257  0.1590  0.4242  0.2706
  473MOL0     C63770   6.954   1.051   4.304 -0.9507  0.1617 -0.6186
  473MOL0     N63771   7.659   0.470   4.382  0.0191  0.6760  0.4193
  473MOL0     N63772   7.779   0.439   4.375 -0.8000  0.6667 -0.0412
  473MOL0     C63773   7.688   0.211   3.441 -0.0334  0.2172  1.2320
  473MOL0     C63774   7.584   0.205   3.345 -0.6408  0.7067 -0.8150
  473MOL0     C63775   7.327   0.170   2.970  0.2987  0.6229  0.6089
  473MOL0     C63776   7.358   0.274   2.890 -0.3875  1.0348  0.5531
  473MOL0     C63777   7.311   0.286   2.758  1.1803 -0.9668  0.0307
  473MOL0     C63778   7.218   0.196   2.709  0.3423 -0.1546 -0.2733
  473MOL0     O63779   7.161   0.199   2.589 -0.3332 -0.2379 -0.3803
  473MOL0     C63780   7.139   0.319   2.513 -0.8094 -0.6254 -0.3083
  473MOL0     C63781   6.986   0.350   2.498 -0.3601 -0.0459  0.0757
  473MOL0     C63782   6.912   0.382   2.640  0.1607  0.4131 -0.6194
  473MOL0     C63783   6.764   0.427   2.628 -0.3918 -1.1918 -0.7103
  473MOL0     C63784   6.750   0.551   2.553  0.6748 -0.2281 -1.4475
  473MOL0     C63785   6.748   0.654   2.490  0.4828 -1.3318 -0.1493
  473MOL0     C63786   7.166   0.101   2.797  0.1481 -0.5501  0.4386
  473MOL0     C63787   7.229   0.084   2.922 -0.2886  1.1296 -0.1992
  473MOL0     H63788   7.774   0.155   3.064  2.3082 -1.6603  0.4077
  473MOL0     H63789   7.946   0.167   3.217  1.1755  0.9589  1.1888
  473MOL0     H63790   8.014   0.389   3.506  1.8098 -1.6466 -1.1348
  473MOL0     H63791   7.860   0.353   3.584  0.1831  1.1786  0.0397
  473MOL0     H63792   8.009   0.154   3.693  1.7930 -0.2350  0.0877
  473MOL0     H63793   8.157   0.249   3.643  1.6163  2.1472  0.7167
  473MOL0     H63794   7.953   0.298   3.856 -0.2167  1.4362  0.1679
  473MOL0     H63795   8.129   0.310   3.878 -0.4947  0.3480  0.6274
  473MOL0     H63796   8.102   0.528   3.713  0.3481 -0.3038  0.3278
  473MOL0     H63797   7.928   0.501   3.751  0.1161  0.6038 -1.0606
  473MOL0     H63798   8.168   0.590   3.926  0.6693 -0.3326 -1.5978
  473MOL0     H63799   8.023   0.668   3.896  0.7238  1.3207 -0.6768
  473MOL0     H63800   7.893   0.527   4.037 -0.2692 -1.4078 -3.2898
  473MOL0     H63801   8.016   0.404   4.056  2.6966  1.1756 -1.4501
  473MOL0     H63802   8.163   0.576   4.179 -0.2277  0.7298  1.8747
  473MOL0     H63803   8.023   0.687   4.153  0.2174  0.4512  3.4596
  473MOL0     H63804   8.053   0.597   4.385  0.6076  0.0553 -0.2506
  473MOL0     H63805   8.054   0.443   4.317  3.6438  2.0103  1.5955
  473MOL0     H63806   7.809   0.741   4.271  2.6314 -0.0189  0.8590
  473MOL0     H63807   7.544   0.764   4.250 -2.2445  1.8381  1.2226
  473MOL0     H63808   7.447   0.615   4.278  2.2038 -3.7405  1.8050
  473MOL0     H63809   7.566   0.817   4.483 -0.3923 -0.0077 -0.8429
  473MOL0     H63810   7.457   0.677   4.531  2.7106 -2.4976 -1.0871
  473MOL0     H63811   7.406   0.939   4.392 -1.1932  0.8576  0.0376
  473MOL0     H63812   7.342   0.882   4.540  4.1504 -0.5181  0.8877
  473MOL0     H63813   7.195   0.721   4.406 -0.0495  1.1680  1.9185
  473MOL0     H63814   7.252   0.782   4.258 -0.8986  2.0979 -0.0396
  473MOL0     H63815   7.017   0.716   4.260  0.6057 -0.4368 -2.1553
  473MOL0     H63816   6.848   0.604   4.184 -1.9962 -1.5935 -0.1252
  473MOL0     H63817   6.679   0.671   4.186 -0.4104  1.7406 -0.8302
  473MOL0     H63818   6.769   0.706   4.052 -1.5300 -0.2640  0.2804
  473MOL0     H63819   6.500   1.252   4.204  0.4047  1.1928 -1.7098
  473MOL0     H63820   6.289   1.338   4.204  2.0521 -0.1881  2.3796
  473MOL0     H63821   5.886   1.117   4.077  0.1247  1.4053 -1.3371
  473MOL0     H63822   5.983   1.036   4.195 -1.4952 -0.1154 -1.5009
  473MOL0     H63823   5.950   1.224   4.358 -2.3284  2.3726  0.7915
  473MOL0     H63824   5.877   1.318   4.235  1.1106 -0.1532 -2.1612
  473MOL0     H63825   5.690   1.263   4.311  1.9471  0.2379 -3.9208
  473MOL0     H63826   5.751   1.141   4.422  0.7341 -0.3388  1.1822
  473MOL0     H63827   5.668   1.099   4.132 -2.0963  1.1489  0.6417
  473MOL0     H63828   5.755   0.985   4.224 -0.1039  0.3640  0.5157
  473MOL0     H63829   5.465   1.092   4.288 -2.8209 -2.4949 -0.9354
  473MOL0     H63830   5.551   0.967   4.375  1.8952  1.7033  1.0323
  473MOL0     H63831   5.469   0.962   4.080 -1.6135  0.0548  0.6334
  473MOL0     H63832   5.560   0.830   4.173  0.1611 -1.5183  3.0330
  473MOL0     H63833   5.365   0.794   4.311  0.6548 -1.3436 -0.8567
  473MOL0     H63834   5.314   0.775   4.144 -0.1338 -0.6973  0.5902
  473MOL0     H63835   5.257   1.014   4.318 -1.9740 -1.5933  2.5621
  473MOL0     H63836   5.152   0.893   4.277  0.1215 -0.4876 -2.3379
  473MOL0     H63837   6.131   0.981   4.017 -1.0952 -1.8281  2.5671
  473MOL0     H63838   6.374   0.891   3.999 -0.1906  0.7828 -1.9133
  473MOL0     H63839   6.774   1.149   4.257 -0.8438  0.0877 -4.3355
  473MOL0     H63840   7.004   1.141   4.339 -1.1826  0.1729 -0.3162
  473MOL0     H63841   7.647   0.222   3.541 -0.5690  0.3905  0.9984
  473MOL0     H63842   7.482   0.232   3.368 -0.7321  0.5834 -1.0799
  473MOL0     H63843   7.415   0.360   2.924  1.9249  0.6656 -2.0850
  473MOL0     H63844   7.348   0.367   2.695 -0.3629 -0.5304 -0.3648
  473MOL0     H63845   7.183   0.411   2.553 -2.3084  0.9216 -2.0122
  473MOL0     H63846   7.173   0.297   2.412 -2.1330 -1.7856 -0.5452
  473MOL0     H63847   6.934   0.281   2.431  1.3747  3.1078 -5.0893
  473MOL0     H63848   6.987   0.444   2.442 -0.1912  1.2576  2.1178
  473MOL0     H63849   6.979   0.451   2.691 -1.3467  0.6673  1.1155
  473MOL0     H63850   6.905   0.286   2.692 -0.2350  0.2929 -0.8862
  473MOL0     H63851   6.725   0.440   2.729 -1.6690  1.0507 -1.4219
  473MOL0     H63852   6.702   0.353   2.576 -1.0660  0.2841 -2.0765
  473MOL0     H63853   6.729   0.747   2.441  0.3381 -2.9759 -3.5536
  473MOL0     H63854   7.085   0.036   2.767 -0.2251 -0.3194  0.9232
  473MOL0     H63855   7.199  -0.003   2.981  1.8737  0.9901  0.7891
  474MOL0     O63856   1.610   2.042   9.496 -0.4442 -0.8575 -0.2674
  474MOL0     C63857   1.568   2.137   9.566 -0.4980  0.4938 -0.5970
  474MOL0     O63858   1.600   2.165   9.693  0.1439 -0.8661 -0.6831
  474MOL0     C63859   1.673   2.075   9.770  1.3805  0.0648 -0.3063
  474MOL0     C63860   1.693   2.122   9.906  0.2274  0.6086  0.2634
  474MOL0     C63861   1.749   2.045  10.010  0.1244  0.7682 -0.5119
  474MOL0     C63862   1.804   1.918   9.968  0.6297 -0.3154 -0.4238
  474MOL0     O63863   1.839   1.830  10.060 -0.0990  1.1305 -0.1957
  474MOL0     C63864   1.875   1.883  10.190 -0.1564  0.4269 -0.9207
  474MOL0     C63865   1.943   1.780  10.286 -0.3823 -0.6672 -0.2643
  474MOL0     C63866   1.970   1.839  10.423 -0.5166 -0.3978  0.1029
  474MOL0     C63867   1.844   1.879  10.513 -0.5138 -0.3517  0.2958
  474MOL0     C63868   1.761   1.774  10.585  0.8089  1.5155 -0.3973
  474MOL0     C63869   1.832   1.717  10.715  0.4147 -0.6128 -0.2592
  474MOL0     C63870   1.815   1.820  10.830  0.6767 -0.2151  0.1758
  474MOL0     C63871   1.695   1.791  10.929  0.0468 -0.0899 -0.7391
  474MOL0     N63872   1.715   1.665  11.003 -0.6559  0.0367 -0.2427
  474MOL0     C63873   1.821   1.576  11.001  0.2474  0.0414  0.9342
  474MOL0     C63874   1.799   1.470  11.085 -0.0111  0.3116  1.1882
  474MOL0     C63875   1.891   1.345  11.109  0.0892  0.1537  1.0118
  474MOL0     C63876   1.880   1.300  11.255 -0.0420 -0.1530  0.6183
  474MOL0     C63877   1.943   1.166  11.273 -0.3170 -0.0874 -0.7305
  474MOL0     C63878   2.094   1.172  11.275 -0.3358 -0.1705 -0.0031
  474MOL0     O63879   2.155   1.186  11.142 -0.0062 -0.8532 -0.2137
  474MOL0     C63880   2.292   1.194  11.127  0.2777  0.2288  0.4078
  474MOL0     C63881   2.380   1.207  11.236 -0.8928  0.5291  0.0059
  474MOL0     C63882   2.521   1.202  11.231 -0.7802  0.3000  0.4077
  474MOL0     C63883   2.614   1.214  11.348 -0.1399  0.6379 -0.6829
  474MOL0     C63884   2.573   1.157  11.102 -0.5923  0.7488 -0.7352
  474MOL0     C63885   2.712   1.116  11.080  0.5071 -0.6121 -0.2569
  474MOL0     O63886   2.756   1.106  10.949 -1.3440 -0.3711  0.1797
  474MOL0     C63887   2.874   1.040  10.921 -0.2194 -0.6183  0.1998
  474MOL0     C63888   2.996   1.026  10.999 -0.4759 -0.3663 -0.0624
  474MOL0     C63889   3.108   0.958  10.949  1.0521 -0.0149  0.0721
  474MOL0     C63890   3.112   0.896  10.815 -0.1895  0.2621  0.3212
  474MOL0     O63891   3.224   0.832  10.776  0.4415  0.3282  1.2009
  474MOL0     C63892   3.301   0.758  10.868 -0.3919  0.7106  0.3462
  474MOL0     C63893   3.440   0.827  10.873 -1.0283 -0.6015  1.0055
  474MOL0     C63894   3.522   0.793  10.749  0.2510 -0.1680 -0.3572
  474MOL0     C63895   3.660   0.869  10.751 -0.2167  0.2291 -0.1964
  474MOL0     C63896   3.751   0.812  10.638  0.5510 -0.0059 -0.0384
  474MOL0     C63897   3.880   0.904  10.614 -0.3266 -0.5113 -0.0552
  474MOL0     C63898   3.962   0.944  10.733  1.0251  0.3451 -0.3334
  474MOL0     C63899   4.084   1.034  10.702 -0.2464  0.3253 -0.4402
  474MOL0    Cl63900   4.161   0.966  10.557 -0.0166  0.4142 -0.3652
  474MOL0     C63901   2.992   0.923  10.734 -0.3480  0.4119  0.6019
  474MOL0     C63902   2.883   0.989  10.789 -0.1931  0.0829 -0.3950
  474MOL0     O63903   2.760   1.062  11.174 -0.9172  0.0405 -0.2213
  474MOL0     C63904   2.489   1.167  10.992  1.1452 -0.0481 -0.6043
  474MOL0     C63905   2.352   1.185  11.001 -0.7108  0.4831  0.7172
  474MOL0     N63906   1.673   1.497  11.138 -0.5721  0.2026 -0.5269
  474MOL0     N63907   1.617   1.606  11.092 -0.7641  0.5018 -0.5292
  474MOL0     C63908   1.779   1.877   9.837 -0.0102  0.1667  0.5631
  474MOL0     C63909   1.720   1.952   9.734  0.8209  0.0934  0.2139
  474MOL0     C63910   1.462   2.227   9.507 -0.0601  0.2575  0.8863
  474MOL0     C63911   1.391   2.324   9.583 -0.2150  0.4164  0.1835
  474MOL0     C63912   1.281   2.394   9.527  0.0314  0.1577 -0.7331
  474MOL0     C63913   1.250   2.381   9.392  0.1510 -0.3209 -0.3326
  474MOL0     O63914   1.166   2.470   9.346  0.8443 -1.1427 -0.1609
  474MOL0     C63915   1.170   2.502   9.205  0.7403  0.9684  0.6952
  474MOL0     C63916   1.071   2.417   9.124  0.2222 -0.8698 -0.1013
  474MOL0     C63917   1.099   2.435   8.978  0.4953 -0.6733  0.6340
  474MOL0     C63918   1.001   2.351   8.891 -0.1046  0.6692  0.0970
  474MOL0     C63919   0.870   2.393   8.941  0.6416 -0.5424  0.5983
  474MOL0     C63920   0.764   2.427   8.979 -0.0327  0.6286  0.2426
  474MOL0     C63921   1.312   2.279   9.321 -0.2596 -0.4792  0.1354
  474MOL0     C63922   1.415   2.212   9.372 -0.9794 -0.7139  0.3324
  474MOL0     H63923   1.643   2.215   9.931 -1.3905 -0.6617  2.1383
  474MOL0     H63924   1.771   2.099  10.101 -0.4480 -0.6670  0.5073
  474MOL0     H63925   1.937   1.972  10.174 -1.5421  1.2845 -1.7010
  474MOL0     H63926   1.781   1.918  10.234  0.6224  1.9254 -0.3579
  474MOL0     H63927   1.886   1.687  10.297 -0.1862 -0.6394  1.2323
  474MOL0     H63928   2.037   1.751  10.238  1.4895  0.9306  2.2068
  474MOL0     H63929   2.021   1.767  10.488 -1.3674 -0.0493  1.1970
  474MOL0     H63930   2.035   1.927  10.422 -0.1932 -0.4722  3.4328
  474MOL0     H63931   1.885   1.942  10.592 -1.7282 -0.0907  0.7419
  474MOL0     H63932   1.782   1.945  10.451  1.4834 -0.1001 -1.5472
  474MOL0     H63933   1.667   1.816  10.624 -0.4055 -1.5422  0.2853
  474MOL0     H63934   1.743   1.701  10.506  0.9893  1.3177 -0.2571
  474MOL0     H63935   1.791   1.622  10.750 -1.2648  0.3123  0.4128
  474MOL0     H63936   1.939   1.711  10.693  0.1496  2.3749 -3.0596
  474MOL0     H63937   1.911   1.830  10.883  0.6739  0.7057  0.0258
  474MOL0     H63938   1.814   1.925  10.796  2.3088 -0.2246 -0.0112
  474MOL0     H63939   1.609   1.791  10.861  1.3822 -0.1060 -2.4939
  474MOL0     H63940   1.690   1.862  11.011  2.5730 -0.9186  0.2118
  474MOL0     H63941   1.904   1.575  10.930 -0.8450  0.0432 -0.3810
  474MOL0     H63942   1.875   1.268  11.033  1.5439  0.4999  0.3062
  474MOL0     H63943   1.992   1.385  11.091  0.5060 -0.6965  1.3898
  474MOL0     H63944   1.772   1.300  11.274 -0.6708  0.9092 -2.3481
  474MOL0     H63945   1.926   1.376  11.319  0.8747  1.2016 -1.5086
  474MOL0     H63946   1.907   1.084  11.211 -2.6124 -1.0679  1.6914
  474MOL0     H63947   1.901   1.139  11.371 -1.6924  1.3789 -0.8785
  474MOL0     H63948   2.130   1.084  11.330 -0.2123 -0.5935 -0.7417
  474MOL0     H63949   2.127   1.262  11.327 -1.2958  1.2384 -1.6949
  474MOL0     H63950   2.335   1.237  11.330 -1.2634  0.7707 -0.2432
  474MOL0     H63951   2.703   1.271  11.321  0.0772  1.1593  0.9984
  474MOL0     H63952   2.572   1.268  11.433  1.2088 -0.5751  0.8065
  474MOL0     H63953   2.635   1.115  11.391 -1.2042  1.9513  3.2441
  474MOL0     H63954   3.008   1.077  11.094 -0.6989 -2.2011  0.9917
  474MOL0     H63955   3.198   0.959  11.009  0.2571  0.8268  1.3193
  474MOL0     H63956   3.257   0.767  10.968 -1.7931  0.4548 -0.2304
  474MOL0     H63957   3.315   0.653  10.844  3.3360  1.1855 -0.1078
  474MOL0     H63958   3.424   0.935  10.874 -0.3362 -0.3330 -2.7013
  474MOL0     H63959   3.492   0.792  10.962  0.1770  4.0589  2.3886
  474MOL0     H63960   3.468   0.824  10.659  1.4243  2.1785 -0.3266
  474MOL0     H63961   3.537   0.685  10.758  1.4087  0.0890  1.4595
  474MOL0     H63962   3.650   0.978  10.743  0.8794  0.2302 -2.4148
  474MOL0     H63963   3.713   0.845  10.844 -1.6429 -0.1390  0.5467
  474MOL0     H63964   3.697   0.807  10.543  0.8944  1.8589 -0.3812
  474MOL0     H63965   3.786   0.713  10.667  1.5800 -0.1004 -1.5136
  474MOL0     H63966   3.948   0.865  10.538 -0.5662 -1.0485  0.0009
  474MOL0     H63967   3.842   0.997  10.570 -0.1420  0.1166  1.0743
  474MOL0     H63968   4.018   0.855  10.764  0.2067  1.3598  5.0114
  474MOL0     H63969   3.899   0.986  10.811  2.8233  1.4197  0.6209
  474MOL0     H63970   4.150   1.040  10.789  0.8249 -1.9814 -1.0288
  474MOL0     H63971   4.051   1.138  10.688 -0.2075  0.8850  2.6964
  474MOL0     H63972   2.997   0.881  10.635 -0.3844  0.4777  0.5719
  474MOL0     H63973   2.791   0.991  10.731 -2.1769 -5.1364  1.9247
  474MOL0     H63974   2.534   1.137  10.897 -0.2473 -2.0156 -0.7146
  474MOL0     H63975   2.312   1.175  10.901 -1.9059 -2.5710  1.3997
  474MOL0     H63976   1.816   1.782   9.800  0.9482  1.3658 -1.7365
  474MOL0     H63977   1.706   1.909   9.636 -4.5588 -2.5000  1.7143
  474MOL0     H63978   1.432   2.338   9.682 -0.8498 -3.9156  1.2600
  474MOL0     H63979   1.214   2.464   9.577 -3.0114 -1.4907 -2.2325
  474MOL0     H63980   1.147   2.608   9.192  4.6548  1.6621 -2.9893
  474MOL0     H63981   1.267   2.490   9.155  0.2738  0.1225 -0.0613
  474MOL0     H63982   0.968   2.440   9.152  0.2638  0.9483 -1.2575
  474MOL0     H63983   1.101   2.316   9.154  2.5771  0.0278  0.7212
  474MOL0     H63984   1.203   2.415   8.954  0.2454 -0.7611 -0.4344
  474MOL0     H63985   1.082   2.541   8.955 -2.1137 -0.8495  1.4311
  474MOL0     H63986   1.015   2.243   8.905 -2.2351  0.3387  0.0340
  474MOL0     H63987   1.006   2.359   8.782  1.2045 -3.5296 -0.3320
  474MOL0     H63988   0.670   2.462   9.018 -0.6285 -2.7284  2.1926
  474MOL0     H63989   1.280   2.267   9.218 -3.0344  0.3746  0.8377
  474MOL0     H63990   1.472   2.154   9.300 -0.0845 -0.5618  0.9127
  475MOL0     O63991   8.798  10.013   6.099  0.3092  0.2295 -0.7790
  475MOL0     C63992   8.722   9.997   6.007 -0.0020 -0.6094  0.4268
  475MOL0     O63993   8.591  10.039   6.003  0.1548 -0.7011  0.1947
  475MOL0     C63994   8.522  10.104   6.102  0.0360 -0.3096 -0.2375
  475MOL0     C63995   8.392  10.134   6.062  0.5986 -0.3244  0.2777
  475MOL0     C63996   8.292  10.171   6.154 -0.5322  0.4274 -0.5601
  475MOL0     C63997   8.330  10.193   6.285 -0.2966  0.2682  0.6570
  475MOL0     O63998   8.233  10.238   6.377  0.3266 -0.9184 -0.1558
  475MOL0     C63999   8.084  10.224   6.354 -0.0270  0.1742  0.7918
  475MOL0     C64000   8.004  10.286   6.471 -0.5622 -0.8274  0.0927
  475MOL0     C64001   7.856  10.305   6.434  0.1748  0.3184  0.2944
  475MOL0     C64002   7.762  10.293   6.555  0.5088 -0.9495  0.3382
  475MOL0     C64003   7.791  10.399   6.658 -0.1873 -0.4467 -0.2070
  475MOL0     C64004   7.789  10.543   6.606 -0.4165  0.3429  0.3709
  475MOL0     C64005   7.654  10.582   6.547  0.2980  0.4406 -0.5646
  475MOL0     C64006   7.647  10.720   6.497  1.7728 -0.4057  1.0335
  475MOL0     N64007   7.560  10.713   6.376  1.1227 -1.1062  0.0325
  475MOL0     C64008   7.421  10.692   6.384 -0.4787  0.2599  0.5758
  475MOL0     C64009   7.383  10.670   6.252 -0.1240 -0.0626  0.4077
  475MOL0     C64010   7.244  10.640   6.203  0.7284 -0.5724 -0.0206
  475MOL0     C64011   7.240  10.506   6.129 -0.2886  0.0703 -0.3624
  475MOL0     C64012   7.096  10.469   6.071  0.0144 -0.0832 -0.6534
  475MOL0     C64013   7.115  10.348   5.981  0.8660 -0.8944 -0.2534
  475MOL0     O64014   7.240  10.277   6.005 -0.2832 -0.4957  0.4062
  475MOL0     C64015   7.282  10.180   5.914  0.1532 -0.1087 -0.3763
  475MOL0     C64016   7.196  10.095   5.843  0.1388 -0.2125 -0.7661
  475MOL0     C64017   7.238  10.005   5.746  0.0530 -0.3971  1.1180
  475MOL0     C64018   7.131   9.913   5.681  0.1312 -0.9703 -1.3912
  475MOL0     C64019   7.371   9.988   5.715  0.5884  0.7129 -0.8846
  475MOL0     C64020   7.423   9.883   5.616 -0.5966 -0.4989 -0.6158
  475MOL0     O64021   7.532   9.916   5.548  0.1306 -0.3565 -0.3513
  475MOL0     C64022   7.620   9.819   5.505 -0.1679 -1.1280  0.4326
  475MOL0     C64023   7.592   9.765   5.375 -0.4060 -0.6455 -0.5707
  475MOL0     C64024   7.669   9.649   5.326 -0.3109  0.0958 -0.4225
  475MOL0     C64025   7.779   9.597   5.402 -0.6542 -0.3157  0.0860
  475MOL0     O64026   7.858   9.495   5.349 -0.3374 -0.6505 -0.5369
  475MOL0     C64027   7.993   9.484   5.401 -1.2061 -1.1336  0.4724
  475MOL0     C64028   8.078   9.403   5.308 -0.5780  0.0659  0.4965
  475MOL0     C64029   8.210   9.372   5.373  0.1640 -0.5320 -0.8936
  475MOL0     C64030   8.276   9.265   5.292 -0.7591 -0.7951 -0.2782
  475MOL0     C64031   8.417   9.212   5.340  0.4877 -1.0686  0.0176
  475MOL0     C64032   8.419   9.173   5.486 -0.1597  0.0769 -0.3759
  475MOL0     C64033   8.321   9.065   5.534 -0.3313  0.3926 -1.1168
  475MOL0     C64034   8.329   8.937   5.456 -0.9078  0.3670 -0.5454
  475MOL0    Cl64035   8.487   8.859   5.471 -0.5097  0.3229  0.4280
  475MOL0     C64036   7.805   9.656   5.529  0.0138 -0.1326 -0.2832
  475MOL0     C64037   7.715   9.761   5.581 -0.4638  0.0119 -0.7417
  475MOL0     O64038   7.367   9.776   5.596  0.2122  0.5704  0.0689
  475MOL0     C64039   7.458  10.075   5.790  1.4478  0.0055  0.7811
  475MOL0     C64040   7.414  10.166   5.890  0.3147  0.7456 -0.2159
  475MOL0     N64041   7.505  10.657   6.180  0.8966 -0.1945 -0.3249
  475MOL0     N64042   7.605  10.694   6.251 -0.4305 -0.3994 -0.3884
  475MOL0     C64043   8.467  10.182   6.323  0.8509  0.4415  0.1686
  475MOL0     C64044   8.556  10.130   6.233  0.9609 -0.5119 -0.4427
  475MOL0     C64045   8.757   9.929   5.884 -0.2313 -0.1636 -0.5139
  475MOL0     C64046   8.883   9.862   5.876 -0.1264  0.5076 -0.1067
  475MOL0     C64047   8.914   9.802   5.756 -1.0895 -0.1394 -0.0479
  475MOL0     C64048   8.827   9.783   5.643  0.1925  0.1133 -0.2110
  475MOL0     O64049   8.854   9.708   5.526  0.1671  0.2235 -0.8347
  475MOL0     C64050   8.973   9.637   5.502  0.3149  0.7506 -0.2385
  475MOL0     C64051   8.946   9.527   5.399  0.5070 -0.0161 -0.0394
  475MOL0     C64052   8.864   9.409   5.454  0.0918  0.4210  0.5650
  475MOL0     C64053   8.835   9.302   5.344 -0.6464 -0.6690 -0.0680
  475MOL0     C64054   8.814   9.166   5.387 -0.7725 -0.4105  0.2046
  475MOL0     C64055   8.814   9.065   5.441  0.6531  1.0824 -1.0523
  475MOL0     C64056   8.706   9.846   5.656  0.1637 -0.3693  0.2078
  475MOL0     C64057   8.666   9.923   5.771 -0.0586 -0.5101  1.1160
  475MOL0     H64058   8.372  10.135   5.955 -3.5535  0.4672  0.8743
  475MOL0     H64059   8.185  10.187   6.142 -0.7847  2.5647  3.0869
  475MOL0     H64060   8.051  10.278   6.265  0.1404 -0.6403  0.2308
  475MOL0     H64061   8.053  10.119   6.360 -0.6022  0.1750 -1.3545
  475MOL0     H64062   8.021  10.223   6.558 -0.0457 -0.8492 -0.0243
  475MOL0     H64063   8.040  10.387   6.493  1.4105 -1.5431  0.2715
  475MOL0     H64064   7.830  10.393   6.376  0.1578 -0.3564 -0.7392
  475MOL0     H64065   7.822  10.230   6.362 -1.5228 -0.0013  1.3523
  475MOL0     H64066   7.658  10.292   6.522  0.4943 -1.2260  0.3873
  475MOL0     H64067   7.781  10.200   6.610  2.2388  0.1444  1.6923
  475MOL0     H64068   7.726  10.378   6.743 -0.1522 -1.3992 -0.4005
  475MOL0     H64069   7.896  10.387   6.686  0.3222  2.0735 -0.8158
  475MOL0     H64070   7.808  10.591   6.703 -2.6097 -2.7860  2.5667
  475MOL0     H64071   7.866  10.566   6.532 -1.8324 -0.6508 -1.5089
  475MOL0     H64072   7.631  10.509   6.469 -1.5213  0.6528 -0.2522
  475MOL0     H64073   7.587  10.570   6.632 -1.0028  2.3224 -1.2732
  475MOL0     H64074   7.740  10.753   6.450  0.3669  2.7941  0.2207
  475MOL0     H64075   7.612  10.784   6.579  0.9542 -1.6089  1.6568
  475MOL0     H64076   7.355  10.700   6.470  0.9684 -1.2106  1.8751
  475MOL0     H64077   7.183  10.645   6.294 -0.4866  1.4479 -0.8685
  475MOL0     H64078   7.200  10.717   6.138 -1.5115  1.5898  3.6672
  475MOL0     H64079   7.254  10.428   6.204 -2.9492 -2.3342 -2.1214
  475MOL0     H64080   7.312  10.502   6.048 -1.0808 -1.4629 -1.0402
  475MOL0     H64081   7.042  10.547   6.016 -0.3397 -1.2243 -1.9711
  475MOL0     H64082   7.031  10.439   6.153  1.4126 -0.2066  0.4569
  475MOL0     H64083   7.111  10.379   5.876 -2.2549  0.5568  0.1748
  475MOL0     H64084   7.024  10.291   5.999  1.0670 -1.4331 -0.8858
  475MOL0     H64085   7.088  10.103   5.848 -0.3552 -3.7185 -2.7697
  475MOL0     H64086   7.034   9.959   5.659  0.1308 -0.8363 -1.1263
  475MOL0     H64087   7.164   9.892   5.579 -2.3596  3.2104 -3.3363
  475MOL0     H64088   7.107   9.828   5.746 -0.3055 -0.2747 -0.6092
  475MOL0     H64089   7.520   9.820   5.315  1.5604  0.6142 -1.9058
  475MOL0     H64090   7.653   9.615   5.224  2.1998  3.5163 -2.1514
  475MOL0     H64091   8.043   9.582   5.398  1.7997 -2.5758 -1.9116
  475MOL0     H64092   7.983   9.443   5.502 -2.1358 -0.6850  0.5727
  475MOL0     H64093   8.022   9.310   5.294 -1.6293  0.7114  0.2591
  475MOL0     H64094   8.088   9.456   5.212  1.0166 -0.3533  0.4098
  475MOL0     H64095   8.185   9.340   5.474 -1.4318  4.0287  0.4280
  475MOL0     H64096   8.267   9.464   5.389  1.4644 -1.9367  4.6189
  475MOL0     H64097   8.217   9.174   5.278 -1.6482  0.2076 -4.9600
  475MOL0     H64098   8.280   9.307   5.190 -1.2117 -3.0779 -1.3020
  475MOL0     H64099   8.490   9.292   5.326 -0.8096 -0.1452 -2.0576
  475MOL0     H64100   8.454   9.130   5.278 -1.6329 -2.0084 -0.0930
  475MOL0     H64101   8.519   9.141   5.516 -0.6136 -0.3350  0.7674
  475MOL0     H64102   8.395   9.267   5.537 -0.1053  0.6914 -1.4725
  475MOL0     H64103   8.216   9.097   5.532 -0.6761  0.4443  4.1185
  475MOL0     H64104   8.348   9.054   5.639 -2.4374  1.8758 -0.3542
  475MOL0     H64105   8.291   8.959   5.356 -4.7931  1.6875  1.0186
  475MOL0     H64106   8.268   8.861   5.506  1.4808 -0.5354  1.2148
  475MOL0     H64107   7.886   9.615   5.588 -0.9559 -0.9892  0.4741
  475MOL0     H64108   7.731   9.800   5.681  1.9981 -0.8596 -0.7338
  475MOL0     H64109   7.562  10.048   5.769  1.3346 -0.7034  1.1135
  475MOL0     H64110   7.489  10.226   5.940  1.7782 -2.2415  1.5016
  475MOL0     H64111   8.508  10.200   6.421  4.2338  1.1334 -1.2206
  475MOL0     H64112   8.648  10.104   6.284  0.9811 -1.3409 -0.8859
  475MOL0     H64113   8.959   9.861   5.953 -0.4442 -1.7675  0.2232
  475MOL0     H64114   9.017   9.771   5.739 -1.1623 -0.9733  0.9362
  475MOL0     H64115   9.039   9.710   5.454  0.0753  0.5400 -0.9042
  475MOL0     H64116   9.008   9.590   5.594  0.1840  0.5382 -0.2973
  475MOL0     H64117   9.038   9.490   5.353 -0.5957 -1.2924 -1.3127
  475MOL0     H64118   8.886   9.566   5.317 -1.2679  1.1715  1.7216
  475MOL0     H64119   8.781   9.460   5.505  3.4147  5.5911  1.5728
  475MOL0     H64120   8.929   9.365   5.530  1.4832 -0.7669 -1.2541
  475MOL0     H64121   8.923   9.297   5.280 -2.0471 -1.5029 -2.0144
  475MOL0     H64122   8.752   9.345   5.287 -0.6952 -0.5283  0.1077
  475MOL0     H64123   8.808   8.962   5.472  1.5842  0.7988 -1.7935
  475MOL0     H64124   8.638   9.844   5.572  1.8621  2.5927 -1.4039
  475MOL0     H64125   8.584   9.994   5.768  3.1930  3.6538 -2.0544
  476MOL0     O64126   6.798   2.999   8.177 -0.7485 -1.0332  0.4280
  476MOL0     C64127   6.763   2.993   8.295  0.2196 -0.0701 -0.8572
  476MOL0     O64128   6.730   3.099   8.373  0.1807  0.2815  0.2914
  476MOL0     C64129   6.764   3.230   8.330 -0.1949  0.4344  0.0809
  476MOL0     C64130   6.732   3.286   8.210  0.5922  0.0438  0.6514
  476MOL0     C64131   6.739   3.429   8.202  0.7942  0.8313 -0.0867
  476MOL0     C64132   6.773   3.510   8.312  0.4477 -0.2708  0.8102
  476MOL0     O64133   6.779   3.642   8.293 -0.4447 -0.3588  0.1398
  476MOL0     C64134   6.782   3.727   8.405  0.2384 -0.0043 -0.8446
  476MOL0     C64135   6.748   3.874   8.357 -0.9766 -0.2901  0.2462
  476MOL0     C64136   6.836   3.910   8.238 -0.1113  0.5854 -0.6242
  476MOL0     C64137   6.843   4.057   8.217 -0.6343 -1.0392  0.5152
  476MOL0     C64138   6.960   4.120   8.299 -0.6516 -0.0430  1.5293
  476MOL0     C64139   6.958   4.273   8.336  0.5503 -0.1087 -0.3153
  476MOL0     C64140   6.988   4.368   8.217  0.4547 -0.3244 -0.1326
  476MOL0     C64141   7.133   4.350   8.168  0.2790  0.6259  0.1030
  476MOL0     N64142   7.159   4.403   8.034 -1.1808  0.3574 -0.5632
  476MOL0     C64143   7.138   4.327   7.917  0.0094 -0.0471  0.9040
  476MOL0     C64144   7.198   4.405   7.822  0.1266  0.0373  0.3089
  476MOL0     C64145   7.192   4.372   7.671 -0.1782 -0.1247 -0.9464
  476MOL0     C64146   7.313   4.294   7.618  0.1583  0.2610 -0.2208
  476MOL0     C64147   7.297   4.240   7.478  0.4176  0.6712  0.5449
  476MOL0     C64148   7.427   4.173   7.430  0.6507 -1.3380 -0.5843
  476MOL0     O64149   7.517   4.272   7.376 -0.7243 -0.2245 -1.0571
  476MOL0     C64150   7.638   4.237   7.312 -0.2006  0.6474  0.1435
  476MOL0     C64151   7.679   4.100   7.274  0.2450 -0.2216  0.0762
  476MOL0     C64152   7.802   4.073   7.200 -0.0750  0.2073 -0.1884
  476MOL0     C64153   7.822   3.926   7.163 -0.7245 -0.3107  0.1576
  476MOL0     C64154   7.884   4.186   7.162 -1.0653 -0.1857 -1.1072
  476MOL0     C64155   8.009   4.170   7.087  0.0973 -0.4550 -0.0789
  476MOL0     O64156   8.069   4.292   7.061  0.4902 -0.0347 -0.0135
  476MOL0     C64157   8.181   4.287   6.984 -0.5460  0.1797 -0.4578
  476MOL0     C64158   8.302   4.244   7.036 -0.1517 -0.5372 -0.4389
  476MOL0     C64159   8.418   4.244   6.968 -0.4798  0.4212  0.0573
  476MOL0     C64160   8.418   4.278   6.839  0.1536 -0.5704  0.7963
  476MOL0     O64161   8.534   4.269   6.769 -0.1910 -0.3327 -0.2295
  476MOL0     C64162   8.652   4.355   6.813 -0.1524  0.0765 -0.0720
  476MOL0     C64163   8.745   4.254   6.879  0.6781  0.2909  0.3274
  476MOL0     C64164   8.856   4.318   6.950 -0.0448  0.7186  0.2966
  476MOL0     C64165   8.836   4.334   7.105  0.1999 -0.0004 -0.4091
  476MOL0     C64166   8.947   4.407   7.172  0.3847 -0.8313 -0.1860
  476MOL0     C64167   8.945   4.421   7.316  0.5800  0.0011  0.0905
  476MOL0     C64168   8.971   4.288   7.389 -0.2639  0.2293 -0.2158
  476MOL0     C64169   9.084   4.206   7.331  0.3965 -0.6028 -0.0926
  476MOL0    Cl64170   9.246   4.293   7.335  0.4827 -0.1186 -0.8267
  476MOL0     C64171   8.303   4.325   6.775 -0.0731 -0.5871 -0.6145
  476MOL0     C64172   8.180   4.333   6.856  0.6019 -0.2780  0.2979
  476MOL0     O64173   8.062   4.066   7.064  0.3796 -0.4518 -0.2642
  476MOL0     C64174   7.832   4.319   7.209  0.5131  0.5157  1.0043
  476MOL0     C64175   7.713   4.343   7.277  0.1866  0.3478 -0.0197
  476MOL0     N64176   7.251   4.521   7.880 -0.2725 -0.0889  0.2957
  476MOL0     N64177   7.226   4.519   8.006  0.3091  0.6565 -0.5622
  476MOL0     C64178   6.810   3.452   8.427 -0.9586  0.4572 -0.8681
  476MOL0     C64179   6.807   3.314   8.433 -0.4541 -0.3906 -0.4633
  476MOL0     C64180   6.741   2.852   8.354 -1.7357 -0.5774 -0.8548
  476MOL0     C64181   6.683   2.844   8.478 -0.7227 -0.5523  0.1974
  476MOL0     C64182   6.660   2.718   8.535 -0.6971 -0.0197  0.0734
  476MOL0     C64183   6.713   2.593   8.482 -0.4995 -0.6584 -0.7983
  476MOL0     O64184   6.694   2.476   8.552 -0.5024  0.1726  0.3133
  476MOL0     C64185   6.696   2.470   8.698  0.7776 -0.7075  0.2816
  476MOL0     C64186   6.834   2.419   8.745 -0.7667 -0.6380  0.4281
  476MOL0     C64187   6.828   2.368   8.892  0.9388 -1.2419  0.0361
  476MOL0     C64188   6.958   2.338   8.953  0.2306 -0.6069  0.0922
  476MOL0     C64189   7.047   2.454   8.964 -0.3964 -0.1339 -0.3204
  476MOL0     C64190   7.138   2.543   8.985 -0.4318 -0.1493  0.0542
  476MOL0     C64191   6.764   2.602   8.358 -0.0771 -0.2676 -0.2049
  476MOL0     C64192   6.782   2.728   8.296  0.1081 -0.0199  0.1531
  476MOL0     H64193   6.709   3.228   8.122 -3.3946 -0.1080  1.6073
  476MOL0     H64194   6.708   3.477   8.109  1.7733 -1.1941 -1.5270
  476MOL0     H64195   6.707   3.703   8.481  3.4251 -1.2191  2.1754
  476MOL0     H64196   6.880   3.738   8.451 -0.2575 -3.4219  1.3850
  476MOL0     H64197   6.645   3.895   8.326 -0.0266  4.8900 -0.2530
  476MOL0     H64198   6.769   3.944   8.438  1.5617  1.0171 -1.4193
  476MOL0     H64199   6.939   3.876   8.248 -0.4035  0.1379  1.1535
  476MOL0     H64200   6.787   3.859   8.155  0.6340  0.7871 -1.1945
  476MOL0     H64201   6.866   4.084   8.114 -3.5563  2.1277  0.5105
  476MOL0     H64202   6.754   4.111   8.251  0.8238  2.1042 -0.2513
  476MOL0     H64203   6.972   4.062   8.391  2.4843 -1.6252  0.2649
  476MOL0     H64204   7.052   4.103   8.242 -0.6368  0.2518  1.4656
  476MOL0     H64205   6.858   4.295   8.373  1.4749  0.7196  1.8334
  476MOL0     H64206   7.021   4.298   8.422 -1.7625  0.4815  1.3094
  476MOL0     H64207   6.909   4.349   8.144 -1.5409  0.4770  1.7058
  476MOL0     H64208   6.985   4.471   8.251  0.3813  0.0006 -1.0965
  476MOL0     H64209   7.177   4.250   8.177 -0.3014  0.5586  3.5023
  476MOL0     H64210   7.202   4.401   8.236 -0.5158  1.2708  0.4411
  476MOL0     H64211   7.085   4.233   7.913 -0.8332  0.4646 -0.8252
  476MOL0     H64212   7.098   4.320   7.654 -0.5869  1.0763 -2.6569
  476MOL0     H64213   7.162   4.461   7.614 -4.1903 -1.4861 -1.2872
  476MOL0     H64214   7.341   4.213   7.686  1.9666  1.3261  0.3834
  476MOL0     H64215   7.401   4.359   7.615 -0.2884  0.8850  0.0120
  476MOL0     H64216   7.262   4.323   7.415 -4.2648  0.2382  2.1294
  476MOL0     H64217   7.223   4.161   7.465  3.0777 -1.6014 -2.3626
  476MOL0     H64218   7.404   4.099   7.353 -1.8196 -4.1807  2.5857
  476MOL0     H64219   7.469   4.128   7.520 -2.5951  1.2882  2.5175
  476MOL0     H64220   7.622   4.013   7.307 -0.8338  0.8033  0.9896
  476MOL0     H64221   7.726   3.873   7.156 -1.8943  1.7126  0.2540
  476MOL0     H64222   7.869   3.927   7.064  1.3705  2.6689  1.0468
  476MOL0     H64223   7.897   3.877   7.226 -0.9795  1.2291  1.7202
  476MOL0     H64224   8.283   4.216   7.140 -1.9079 -0.8420 -0.8044
  476MOL0     H64225   8.501   4.202   7.024 -0.3820 -0.6903 -0.9010
  476MOL0     H64226   8.712   4.377   6.724  2.2635 -1.0100  1.1876
  476MOL0     H64227   8.631   4.442   6.876  0.2022  0.6086 -0.6740
  476MOL0     H64228   8.686   4.187   6.941  0.6802  2.0701  2.3900
  476MOL0     H64229   8.806   4.202   6.805  1.5951 -0.3394  1.4789
  476MOL0     H64230   8.876   4.418   6.910  1.2577  0.7913  1.0693
  476MOL0     H64231   8.951   4.268   6.929  1.4036  2.8044  1.5138
  476MOL0     H64232   8.748   4.399   7.115 -1.1922 -1.3485 -2.7811
  476MOL0     H64233   8.812   4.235   7.147  0.3969 -0.9319 -2.3618
  476MOL0     H64234   8.935   4.504   7.122 -0.5455 -1.7378 -1.8177
  476MOL0     H64235   9.040   4.372   7.127  1.2037  0.0237  0.7961
  476MOL0     H64236   9.014   4.497   7.354 -0.0719  0.0420  1.2426
  476MOL0     H64237   8.848   4.463   7.342  0.0461 -1.4698  0.5591
  476MOL0     H64238   8.886   4.220   7.399 -1.5689  1.7857 -0.3176
  476MOL0     H64239   8.988   4.305   7.496 -0.7527 -1.9590  0.2619
  476MOL0     H64240   9.062   4.186   7.225  2.2620  0.8462 -0.7993
  476MOL0     H64241   9.100   4.109   7.380 -2.2398 -1.5448 -0.9129
  476MOL0     H64242   8.321   4.357   6.673  0.2789  0.9235 -0.1130
  476MOL0     H64243   8.091   4.377   6.813  1.3721  0.8033 -0.2479
  476MOL0     H64244   7.892   4.407   7.190  1.1592  0.4038  2.3786
  476MOL0     H64245   7.685   4.443   7.308 -1.5363 -0.3226  0.7651
  476MOL0     H64246   6.846   3.505   8.516 -1.7508  2.3399 -1.6276
  476MOL0     H64247   6.838   3.295   8.536  0.5625  1.6181 -0.3438
  476MOL0     H64248   6.660   2.933   8.535 -4.5574 -1.4748  0.3745
  476MOL0     H64249   6.603   2.723   8.628  0.6517 -3.0020  1.1880
  476MOL0     H64250   6.685   2.569   8.743 -1.5525 -1.1418  0.8069
  476MOL0     H64251   6.606   2.422   8.737  0.8768 -1.2236 -0.1263
  476MOL0     H64252   6.908   2.496   8.725 -3.4795  1.7186 -1.2595
  476MOL0     H64253   6.862   2.333   8.683  0.0054  1.0471 -1.6395
  476MOL0     H64254   6.765   2.279   8.899 -0.6857 -0.2200 -0.7956
  476MOL0     H64255   6.776   2.447   8.947 -0.2461 -2.9018  1.4005
  476MOL0     H64256   7.014   2.270   8.888 -0.9693  1.7810 -3.7925
  476MOL0     H64257   6.937   2.293   9.050 -1.8344  1.8651  0.9075
  476MOL0     H64258   7.212   2.618   9.004 -1.9532  2.1812 -2.5008
  476MOL0     H64259   6.809   2.517   8.307  2.9395  1.2791 -0.3706
  476MOL0     H64260   6.825   2.730   8.196 -0.7497 -3.4919 -0.4159
  477MOL0     O64261   3.519   8.549   8.176  0.1509 -0.0583  0.0929
  477MOL0     C64262   3.598   8.643   8.138  0.1241 -0.1985  0.1460
  477MOL0     O64263   3.641   8.754   8.219 -0.2789  0.7386 -0.4091
  477MOL0     C64264   3.585   8.760   8.345 -0.0286  0.6850  0.5079
  477MOL0     C64265   3.469   8.830   8.360 -0.1739 -0.6327 -0.0495
  477MOL0     C64266   3.430   8.867   8.489  1.0290 -0.3071  0.9079
  477MOL0     C64267   3.504   8.838   8.600 -0.2402  0.7221 -0.9737
  477MOL0     O64268   3.464   8.859   8.725 -0.5135 -0.0486  0.6357
  477MOL0     C64269   3.456   8.998   8.754 -1.0020 -0.2690 -0.7060
  477MOL0     C64270   3.461   9.018   8.911 -0.1579  0.8993  0.4748
  477MOL0     C64271   3.344   8.956   8.990  0.2290 -0.6061  0.4885
  477MOL0     C64272   3.216   9.038   8.973 -0.0212 -0.4419 -0.9278
  477MOL0     C64273   3.091   8.967   9.021 -0.2531  0.2621 -0.1458
  477MOL0     C64274   3.116   8.883   9.155  0.3541  0.2050 -1.2623
  477MOL0     C64275   2.989   8.798   9.198 -0.5223  0.7067 -0.1655
  477MOL0     C64276   2.981   8.758   9.344 -0.6843  0.6874  0.4730
  477MOL0     N64277   3.078   8.655   9.369 -0.2861  0.6188 -0.6739
  477MOL0     C64278   3.197   8.677   9.429 -0.5027  0.3222 -0.0431
  477MOL0     C64279   3.258   8.554   9.436  0.4015  1.0261  0.7469
  477MOL0     C64280   3.408   8.532   9.482  0.0997  0.3951  0.8917
  477MOL0     C64281   3.408   8.476   9.628 -0.3559 -0.7154 -0.0185
  477MOL0     C64282   3.367   8.590   9.732 -0.1050 -1.0975  0.2959
  477MOL0     C64283   3.244   8.546   9.805 -0.3149 -0.1790  0.2559
  477MOL0     O64284   3.167   8.663   9.842  0.2860 -0.4218  0.4414
  477MOL0     C64285   3.063   8.647   9.918 -0.2240  0.6284 -0.1687
  477MOL0     C64286   2.999   8.526   9.953 -0.4502 -0.0183  0.3495
  477MOL0     C64287   2.875   8.523  10.021  0.0532  0.2367  0.6139
  477MOL0     C64288   2.801   8.392  10.027 -0.3055  0.6715  0.4044
  477MOL0     C64289   2.817   8.650  10.070  0.3764 -0.0298  0.3393
  477MOL0     C64290   2.700   8.659  10.160  0.0033  0.2037  0.1602
  477MOL0     O64291   2.609   8.555  10.170 -0.2969  0.0471  0.6905
  477MOL0     C64292   2.481   8.579  10.214  0.9038  0.1686 -0.6830
  477MOL0     C64293   2.389   8.549  10.120  1.5987  0.4544 -0.0248
  477MOL0     C64294   2.246   8.567  10.140 -0.6902 -0.3811  0.4204
  477MOL0     C64295   2.202   8.633  10.257 -0.0281 -1.4142  0.0981
  477MOL0     O64296   2.078   8.682  10.271  0.6179 -0.0776  0.3738
  477MOL0     C64297   1.974   8.621  10.194 -0.2415  0.0896 -0.4317
  477MOL0     C64298   1.831   8.635  10.251  0.1379 -0.1478  0.0557
  477MOL0     C64299   1.787   8.784  10.232  0.0775  0.3954 -0.0811
  477MOL0     C64300   1.636   8.798  10.239  0.7782 -0.2291  1.1136
  477MOL0     C64301   1.583   8.930  10.196  0.1314 -0.8920 -0.4306
  477MOL0     C64302   1.431   8.944  10.216  0.0231  0.2542  0.4402
  477MOL0     C64303   1.389   9.085  10.183 -0.7703  0.2678  0.1449
  477MOL0     C64304   1.323   9.146  10.301  0.2362  0.0155  0.0851
  477MOL0    Cl64305   1.153   9.080  10.329  0.1071 -0.4428 -0.6708
  477MOL0     C64306   2.291   8.647  10.360  0.3521 -0.4171 -0.5593
  477MOL0     C64307   2.435   8.620  10.345  0.1850 -0.4513 -0.0463
  477MOL0     O64308   2.699   8.760  10.231 -0.1784 -0.6152  0.3886
  477MOL0     C64309   2.876   8.767  10.034 -0.9749 -0.1379  0.7583
  477MOL0     C64310   2.995   8.762   9.953 -0.3021 -0.1138  0.1206
  477MOL0     N64311   3.173   8.453   9.380 -0.1548  0.2787  0.3732
  477MOL0     N64312   3.055   8.519   9.354  0.2074  1.0009  0.5917
  477MOL0     C64313   3.618   8.763   8.582 -0.7781  1.0293 -1.0914
  477MOL0     C64314   3.653   8.710   8.458 -0.1387  0.8196  0.5916
  477MOL0     C64315   3.656   8.619   8.004 -0.3727  0.1704 -1.1069
  477MOL0     C64316   3.577   8.541   7.913  0.7648 -0.5946  0.7257
  477MOL0     C64317   3.625   8.522   7.787 -0.5764  0.1112  0.0495
  477MOL0     C64318   3.749   8.572   7.742  0.6880  0.9114 -0.6592
  477MOL0     O64319   3.816   8.543   7.620 -0.1075  0.5309 -0.2947
  477MOL0     C64320   3.741   8.573   7.500 -0.4396 -0.5894 -0.4705
  477MOL0     C64321   3.832   8.568   7.376 -0.3520  0.3972  0.6050
  477MOL0     C64322   3.857   8.710   7.321  0.0558  0.4393  0.9633
  477MOL0     C64323   3.933   8.713   7.187 -0.3334  0.1419  0.2020
  477MOL0     C64324   4.063   8.660   7.211 -0.2210  0.0558 -0.2560
  477MOL0     C64325   4.172   8.607   7.209  0.2510 -0.2186 -0.7797
  477MOL0     C64326   3.819   8.659   7.829  0.1643  0.5911 -0.5107
  477MOL0     C64327   3.781   8.675   7.962  0.1828 -0.4676 -0.2362
  477MOL0     H64328   3.420   8.870   8.272  1.0539  0.2043 -0.3695
  477MOL0     H64329   3.346   8.936   8.487  0.7165 -0.5542 -3.6851
  477MOL0     H64330   3.538   9.053   8.708  0.5780  0.0606  2.2679
  477MOL0     H64331   3.359   9.024   8.711 -0.6616  2.5178  0.0397
  477MOL0     H64332   3.550   8.964   8.943  0.1651 -0.6338 -2.6205
  477MOL0     H64333   3.471   9.125   8.929  1.1055  1.1669 -1.4555
  477MOL0     H64334   3.328   8.850   8.969  2.5130 -1.0173  0.5462
  477MOL0     H64335   3.383   8.963   9.092  0.0021 -1.7739  0.6674
  477MOL0     H64336   3.228   9.131   9.031  0.6862 -0.0830 -1.6351
  477MOL0     H64337   3.217   9.077   8.871  1.3374 -1.2688 -1.2588
  477MOL0     H64338   3.011   9.041   9.032  2.4741  3.3622  0.1509
  477MOL0     H64339   3.063   8.886   8.953 -0.7558 -0.0123  0.3753
  477MOL0     H64340   3.202   8.817   9.150  0.3598  0.0212  0.6926
  477MOL0     H64341   3.139   8.948   9.240  0.9530  1.2951 -2.2146
  477MOL0     H64342   2.902   8.858   9.170 -0.6829  0.8781  0.6588
  477MOL0     H64343   2.987   8.706   9.140 -1.3089 -0.6420  1.8877
  477MOL0     H64344   2.876   8.733   9.362 -2.2161  4.5841 -1.7518
  477MOL0     H64345   2.999   8.842   9.411 -2.6963  1.9842 -0.5272
  477MOL0     H64346   3.247   8.772   9.443 -1.5936  0.7709  1.0702
  477MOL0     H64347   3.456   8.455   9.421 -0.5318  0.0275  0.8419
  477MOL0     H64348   3.465   8.624   9.470 -0.3745  0.4514 -1.3664
  477MOL0     H64349   3.510   8.440   9.643 -0.7419 -1.9699 -0.2552
  477MOL0     H64350   3.340   8.391   9.637  1.2793 -1.8823  2.4230
  477MOL0     H64351   3.342   8.685   9.682 -0.9754 -1.0618  0.7729
  477MOL0     H64352   3.454   8.599   9.797  1.9274 -2.3784 -2.0630
  477MOL0     H64353   3.276   8.492   9.895  0.8575 -1.8275 -1.0675
  477MOL0     H64354   3.190   8.472   9.745  0.0729 -2.2571  2.3383
  477MOL0     H64355   3.037   8.427   9.931 -0.7708  0.5156 -3.1522
  477MOL0     H64356   2.873   8.310  10.037 -1.5864 -0.5857 -0.3761
  477MOL0     H64357   2.741   8.365  10.114  1.5650 -2.8178  0.7811
  477MOL0     H64358   2.752   8.373   9.931  1.3021  0.2309 -0.3653
  477MOL0     H64359   2.423   8.510  10.024  1.4714 -1.0951  0.5360
  477MOL0     H64360   2.178   8.536  10.062  2.6266  0.4693 -3.0855
  477MOL0     H64361   1.984   8.663  10.094  3.0167  1.5127  0.3767
  477MOL0     H64362   1.994   8.513  10.191 -0.4359  0.0065  0.6804
  477MOL0     H64363   1.763   8.571  10.195  2.2803 -3.7800  1.2658
  477MOL0     H64364   1.821   8.597  10.353 -1.1251  0.7952  0.3106
  477MOL0     H64365   1.815   8.822  10.133  0.3850  0.1796 -0.0807
  477MOL0     H64366   1.839   8.838  10.311 -1.3484 -0.0357  1.1920
  477MOL0     H64367   1.595   8.730  10.164  2.3772 -0.1304  0.0775
  477MOL0     H64368   1.586   8.770  10.332 -3.9346  3.1825 -0.0526
  477MOL0     H64369   1.615   8.941  10.092 -1.1898 -0.9242 -0.8598
  477MOL0     H64370   1.644   9.001  10.254 -2.6424 -1.7026  3.9524
  477MOL0     H64371   1.388   8.867  10.150  2.6816 -1.9287  1.0382
  477MOL0     H64372   1.400   8.924  10.319 -1.7981 -0.2781 -0.1757
  477MOL0     H64373   1.316   9.086  10.101 -0.6813  1.0891  0.0671
  477MOL0     H64374   1.473   9.154  10.169 -1.2451  0.5810 -1.3499
  477MOL0     H64375   1.300   9.251  10.286 -0.0527 -0.1077 -0.3589
  477MOL0     H64376   1.389   9.135  10.388  0.4216  1.1731  0.0938
  477MOL0     H64377   2.255   8.681  10.457 -0.9054 -2.5386 -0.2163
  477MOL0     H64378   2.513   8.641  10.417  0.3959 -1.7599  0.1266
  477MOL0     H64379   2.837   8.866  10.056 -1.1030  0.4783 -1.8850
  477MOL0     H64380   3.036   8.859   9.924  0.6796  1.3470  5.3506
  477MOL0     H64381   3.670   8.724   8.669 -2.4391 -0.7463 -0.8364
  477MOL0     H64382   3.741   8.651   8.434 -1.4213 -0.5625 -0.9723
  477MOL0     H64383   3.474   8.510   7.926 -0.8347  3.1134 -1.4714
  477MOL0     H64384   3.564   8.462   7.720  2.8866  0.2497 -3.6636
  477MOL0     H64385   3.654   8.510   7.482 -1.7318  1.5759 -2.4613
  477MOL0     H64386   3.685   8.667   7.497 -1.0390 -0.8716 -4.8927
  477MOL0     H64387   3.773   8.523   7.296  0.2523 -0.8218  0.8233
  477MOL0     H64388   3.923   8.514   7.402 -0.7599  0.2872  1.8927
  477MOL0     H64389   3.908   8.782   7.386  0.5354 -1.4053  2.7268
  477MOL0     H64390   3.756   8.747   7.298  0.2509  0.6029  0.3505
  477MOL0     H64391   3.950   8.813   7.145 -0.1520 -0.8818 -2.3686
  477MOL0     H64392   3.883   8.650   7.113 -0.1740 -1.2492  1.2316
  477MOL0     H64393   4.270   8.565   7.203  0.3196  0.1320 -3.0723
  477MOL0     H64394   3.920   8.689   7.805 -0.1628  0.2006 -2.5265
  477MOL0     H64395   3.839   8.722   8.041 -0.1001 -0.8386  0.2012
  478MOL0     O64396   9.875   4.451   4.944  0.0829  0.7346 -0.0891
  478MOL0     C64397   9.799   4.544   4.950  0.6711 -0.3956 -0.3976
  478MOL0     O64398   9.734   4.601   5.061 -0.0102  0.0255 -1.6075
  478MOL0     C64399   9.713   4.537   5.184  0.3578 -1.8555  0.6929
  478MOL0     C64400   9.695   4.616   5.292  0.0237 -0.3898 -0.2041
  478MOL0     C64401   9.688   4.558   5.419 -0.8978  0.3254  0.4237
  478MOL0     C64402   9.677   4.420   5.432 -0.4882  0.0082  0.9356
  478MOL0     O64403   9.658   4.372   5.565 -0.6653  0.0319  0.1863
  478MOL0     C64404   9.740   4.268   5.619  0.2042  0.4816 -0.1958
  478MOL0     C64405   9.766   4.281   5.767 -0.2626  0.0124  0.1827
  478MOL0     C64406   9.827   4.419   5.804 -1.4876 -0.4254 -0.4228
  478MOL0     C64407   9.838   4.439   5.953  0.1753  0.2046 -0.3005
  478MOL0     C64408   9.728   4.527   6.029  0.6046  0.0251  0.1199
  478MOL0     C64409   9.756   4.550   6.173  0.2961 -0.1768  0.2234
  478MOL0     C64410   9.640   4.623   6.240 -0.8887  1.0322  0.2362
  478MOL0     C64411   9.655   4.664   6.397  0.2290  0.5217  0.8203
  478MOL0     N64412   9.754   4.771   6.406  0.3648 -0.0109  0.0921
  478MOL0     C64413   9.879   4.752   6.454 -0.5110 -0.0054 -1.4523
  478MOL0     C64414   9.943   4.878   6.433  0.0854  0.1760  0.6926
  478MOL0     C64415  10.087   4.925   6.464  0.6199 -0.3892 -0.6155
  478MOL0     C64416  10.093   5.024   6.576  0.2232  0.1812 -0.7636
  478MOL0     C64417  10.071   4.967   6.717  0.2592 -0.8437 -0.2088
  478MOL0     C64418  10.158   4.846   6.763 -0.1366 -0.9130 -1.0277
  478MOL0     O64419  10.290   4.830   6.712 -0.0419 -0.1157 -0.5292
  478MOL0     C64420  10.387   4.919   6.751 -0.3213 -0.0979  0.7069
  478MOL0     C64421  10.486   4.944   6.657  0.9683 -0.7274 -0.7242
  478MOL0     C64422  10.604   5.025   6.679  0.2879  0.1058 -0.5412
  478MOL0     C64423  10.709   5.058   6.575  0.1394 -0.4270  0.0886
  478MOL0     C64424  10.607   5.085   6.809 -0.1812 -1.1200 -0.3278
  478MOL0     C64425  10.731   5.157   6.850 -0.8620 -0.6314 -0.6204
  478MOL0     O64426  10.847   5.085   6.840 -0.0008  0.1178  0.2469
  478MOL0     C64427  10.964   5.145   6.873  0.0572 -0.3658 -0.6490
  478MOL0     C64428  10.999   5.285   6.877  1.0547  0.0331  0.7415
  478MOL0     C64429  11.112   5.341   6.902 -0.0440  0.3702 -0.3002
  478MOL0     C64430  11.222   5.263   6.922 -0.2607 -1.2746  0.1757
  478MOL0     O64431  11.353   5.309   6.940  0.1605 -0.4872  0.4198
  478MOL0     C64432  11.363   5.432   7.015  0.0440  0.4132  0.2947
  478MOL0     C64433  11.483   5.442   7.104  0.5376 -0.1891 -0.3928
  478MOL0     C64434  11.609   5.456   7.019 -1.1212  1.3173 -1.1730
  478MOL0     C64435  11.714   5.524   7.109  0.2056  0.4075  0.0397
  478MOL0     C64436  11.792   5.425   7.193 -0.1928  0.8951  0.2411
  478MOL0     C64437  11.919   5.479   7.246  0.5110  0.5643 -0.1856
  478MOL0     C64438  11.980   5.394   7.360  1.1228 -0.8591  0.3237
  478MOL0     C64439  12.059   5.278   7.319 -0.7468 -0.2599  0.2312
  478MOL0    Cl64440  12.213   5.331   7.262 -0.3500 -0.1487  0.2496
  478MOL0     C64441  11.212   5.122   6.917  0.0750  0.6614 -0.1524
  478MOL0     C64442  11.084   5.064   6.897 -0.1975  0.1490  0.1662
  478MOL0     O64443  10.712   5.263   6.912 -0.5026  1.0063 -0.3337
  478MOL0     C64444  10.504   5.078   6.897 -0.1104  0.0152 -0.9114
  478MOL0     C64445  10.393   5.001   6.863 -0.9075  0.6327 -0.9148
  478MOL0     N64446   9.845   4.964   6.381  0.0026  0.0586 -0.0168
  478MOL0     N64447   9.739   4.897   6.359  0.8414  0.2864 -0.2920
  478MOL0     C64448   9.684   4.343   5.321 -0.3465 -0.4006 -0.2156
  478MOL0     C64449   9.698   4.402   5.196 -0.0932  0.5971  0.0631
  478MOL0     C64450   9.792   4.627   4.832 -0.0286  0.0220  0.3311
  478MOL0     C64451   9.858   4.596   4.710  0.1154  0.2394  0.2508
  478MOL0     C64452   9.866   4.670   4.591  0.2533 -0.1303 -0.3254
  478MOL0     C64453   9.795   4.788   4.593  0.8753  0.2689 -0.1069
  478MOL0     O64454   9.819   4.879   4.500  0.6548 -0.4227 -0.4760
  478MOL0     C64455   9.804   4.844   4.365 -0.4386  0.7248  0.0292
  478MOL0     C64456   9.675   4.770   4.315  0.1140 -0.3565 -0.4232
  478MOL0     C64457   9.667   4.749   4.159  0.0803  1.3423  0.7119
  478MOL0     C64458   9.525   4.782   4.106  0.0405 -0.0427  0.8413
  478MOL0     C64459   9.431   4.676   4.142  0.4974 -0.0803 -0.4792
  478MOL0     C64460   9.362   4.586   4.181 -0.0499  0.2606 -0.1748
  478MOL0     C64461   9.721   4.835   4.712  0.5644  0.0222  0.1318
  478MOL0     C64462   9.717   4.754   4.822  0.1892  0.7592 -0.4897
  478MOL0     H64463   9.698   4.723   5.276 -0.1758 -0.1336  1.2856
  478MOL0     H64464   9.665   4.625   5.502 -0.2893  1.8533 -0.5972
  478MOL0     H64465   9.692   4.170   5.613  1.0811 -0.1643  2.1855
  478MOL0     H64466   9.832   4.274   5.560  0.8593  1.6543  0.8614
  478MOL0     H64467   9.671   4.276   5.820 -1.2609  1.5688 -1.3638
  478MOL0     H64468   9.831   4.207   5.814  1.2664  2.1410  1.6036
  478MOL0     H64469   9.929   4.416   5.764 -0.3648 -1.7891  2.2689
  478MOL0     H64470   9.775   4.503   5.759  0.4595  0.9526 -0.2265
  478MOL0     H64471   9.844   4.342   6.005 -4.1710 -0.9136 -1.4243
  478MOL0     H64472   9.933   4.487   5.978  0.3639 -1.3517  2.5127
  478MOL0     H64473   9.712   4.628   5.990 -2.9888 -0.1983  0.6311
  478MOL0     H64474   9.633   4.482   5.997 -0.8148  4.3722 -2.6722
  478MOL0     H64475   9.766   4.453   6.223 -1.1451 -1.0654 -1.0923
  478MOL0     H64476   9.845   4.613   6.179 -0.6908  1.2476  0.3173
  478MOL0     H64477   9.621   4.715   6.184 -0.3806  0.1581 -1.4310
  478MOL0     H64478   9.552   4.563   6.215  0.8938 -0.7931 -2.1046
  478MOL0     H64479   9.691   4.573   6.446  1.5652  0.8297  0.4600
  478MOL0     H64480   9.560   4.706   6.429  0.4302  2.5041 -0.9664
  478MOL0     H64481   9.919   4.665   6.505  0.4323  1.9761  1.4802
  478MOL0     H64482  10.145   4.839   6.498 -1.4812 -1.0156  1.6886
  478MOL0     H64483  10.123   4.958   6.366 -2.5106  0.7997 -1.5156
  478MOL0     H64484  10.029   5.106   6.543 -1.7376 -0.5964  0.8955
  478MOL0     H64485  10.195   5.065   6.577  1.0774 -1.8112 -1.6147
  478MOL0     H64486   9.966   4.940   6.716 -0.6362  2.0595  1.8142
  478MOL0     H64487  10.102   5.046   6.786  0.9705 -2.7482  1.7746
  478MOL0     H64488  10.093   4.763   6.736  1.5441 -2.5898 -0.1160
  478MOL0     H64489  10.157   4.854   6.872  1.9217  3.4462 -1.0886
  478MOL0     H64490  10.466   4.904   6.558 -3.0542  2.5506 -1.5293
  478MOL0     H64491  10.776   5.138   6.608  1.1706 -0.6581 -1.3760
  478MOL0     H64492  10.770   4.972   6.546  0.3076  0.3668 -2.0469
  478MOL0     H64493  10.666   5.097   6.482  1.4918  0.1094 -0.3415
  478MOL0     H64494  10.923   5.350   6.835  0.7674 -1.3621 -1.0101
  478MOL0     H64495  11.116   5.449   6.894 -2.4347  0.5618  0.1612
  478MOL0     H64496  11.355   5.517   6.947  3.0622  1.2722  0.8588
  478MOL0     H64497  11.274   5.434   7.080 -1.1482  1.5696 -1.3054
  478MOL0     H64498  11.463   5.522   7.175 -2.3683 -2.2508  1.3299
  478MOL0     H64499  11.481   5.360   7.177  0.0759  0.9327  0.8924
  478MOL0     H64500  11.592   5.518   6.930 -4.8283  2.9782  0.4701
  478MOL0     H64501  11.633   5.356   6.981 -1.0447  0.5180  0.8629
  478MOL0     H64502  11.772   5.588   7.042 -2.3203  0.6901 -2.0170
  478MOL0     H64503  11.666   5.594   7.179 -0.0433 -1.7411  2.1455
  478MOL0     H64504  11.812   5.338   7.130  1.5197  0.4120  1.3667
  478MOL0     H64505  11.727   5.388   7.273 -1.0395 -1.3157 -1.3719
  478MOL0     H64506  11.982   5.496   7.158 -3.3415 -1.9107 -3.8142
  478MOL0     H64507  11.899   5.579   7.285 -0.6920 -0.3024  1.5531
  478MOL0     H64508  11.903   5.374   7.435 -0.3011  4.5269  0.7475
  478MOL0     H64509  12.052   5.463   7.405 -0.6533  2.5002 -1.5230
  478MOL0     H64510  12.018   5.207   7.246  2.0311 -0.6415 -1.0540
  478MOL0     H64511  12.084   5.210   7.401 -2.2464 -0.5369  0.4974
  478MOL0     H64512  11.310   5.077   6.929  1.0535  2.2044 -1.9837
  478MOL0     H64513  11.065   4.959   6.913 -1.5477  0.4727  0.8754
  478MOL0     H64514  10.492   5.137   6.987 -1.8539 -0.0772 -1.0547
  478MOL0     H64515  10.302   4.994   6.921  0.5975  0.8035  1.5747
  478MOL0     H64516   9.675   4.235   5.330 -0.1466 -0.4486 -0.5427
  478MOL0     H64517   9.710   4.332   5.113  1.9842  0.6380  0.2633
  478MOL0     H64518   9.911   4.501   4.712  0.1072  0.2407  0.4698
  478MOL0     H64519   9.933   4.660   4.506  0.7888 -1.9815  0.2694
  478MOL0     H64520   9.830   4.936   4.312  0.9308  0.3642  0.0218
  478MOL0     H64521   9.886   4.777   4.339 -1.8169 -0.3291 -1.8598
  478MOL0     H64522   9.587   4.831   4.337 -0.0516 -0.4186 -0.8989
  478MOL0     H64523   9.670   4.673   4.365  1.6659 -1.2354 -1.8710
  478MOL0     H64524   9.688   4.642   4.148 -1.4828  1.0466  0.3348
  478MOL0     H64525   9.753   4.795   4.109  2.3049 -0.3836  2.7188
  478MOL0     H64526   9.531   4.782   3.997 -0.2286 -3.1220  0.7350
  478MOL0     H64527   9.499   4.885   4.133  1.9947  0.3773  1.2443
  478MOL0     H64528   9.293   4.515   4.221  1.2493 -0.3148  1.1638
  478MOL0     H64529   9.664   4.927   4.711  2.8973  1.5751  0.2689
  478MOL0     H64530   9.657   4.774   4.910 -1.5680 -1.9522 -0.9409
  479MOL0     O64531   3.006  11.197   3.094 -0.3517 -0.2151 -0.2520
  479MOL0     C64532   2.948  11.294   3.133 -0.3279 -0.3764  0.7582
  479MOL0     O64533   2.956  11.344   3.253 -0.1676 -0.4149 -0.0831
  479MOL0     C64534   3.061  11.324   3.335 -0.4852  0.0808  0.4540
  479MOL0     C64535   3.053  11.371   3.464 -0.4152 -0.4814  0.2639
  479MOL0     C64536   3.148  11.365   3.567  0.4404  0.4460 -0.6255
  479MOL0     C64537   3.270  11.308   3.541 -0.6100 -0.4822 -0.1234
  479MOL0     O64538   3.375  11.306   3.631  0.3329  0.2044  0.0678
  479MOL0     C64539   3.334  11.256   3.754 -0.7952  1.4127 -0.4145
  479MOL0     C64540   3.328  11.363   3.859 -1.0365  0.1547 -0.3243
  479MOL0     C64541   3.460  11.420   3.895 -0.0927  0.4126  0.3360
  479MOL0     C64542   3.456  11.522   4.009  0.2350 -0.4589 -0.8110
  479MOL0     C64543   3.603  11.555   4.045 -0.3354  0.0855  0.2176
  479MOL0     C64544   3.594  11.675   4.140  0.7099  0.6801  0.1717
  479MOL0     C64545   3.727  11.735   4.172 -0.0864 -0.3118  0.9766
  479MOL0     C64546   3.793  11.789   4.048  0.1955 -0.2808  0.5250
  479MOL0     N64547   3.906  11.875   4.093 -0.4225  0.3825 -1.2237
  479MOL0     C64548   4.038  11.850   4.060  0.4620  0.6469  0.2557
  479MOL0     C64549   4.099  11.964   4.094 -0.5413 -0.0950  0.0186
  479MOL0     C64550   4.254  11.984   4.075  0.1099 -0.3220  0.2829
  479MOL0     C64551   4.279  12.116   3.994  0.5410 -0.0414  0.6891
  479MOL0     C64552   4.408  12.173   4.017 -0.4053 -0.3973  0.1222
  479MOL0     C64553   4.516  12.138   3.916  0.6873 -0.3410  0.0583
  479MOL0     O64554   4.652  12.157   3.961 -0.1066 -0.4575 -0.0974
  479MOL0     C64555   4.758  12.092   3.893  0.0768 -0.3366 -0.7700
  479MOL0     C64556   4.885  12.090   3.961 -0.4660 -0.3987  0.0273
  479MOL0     C64557   4.999  12.023   3.912 -1.2923  0.7354  0.4952
  479MOL0     C64558   5.117  12.039   3.997 -0.4734 -0.1179 -0.3768
  479MOL0     C64559   4.984  11.948   3.790  0.5297  1.9278  0.5618
  479MOL0     C64560   5.097  11.877   3.729  0.1384 -0.3828  0.4910
  479MOL0     O64561   5.061  11.761   3.659 -0.5900 -0.5862  0.1569
  479MOL0     C64562   5.104  11.714   3.536  0.5377  0.2712 -1.2381
  479MOL0     C64563   5.213  11.763   3.464 -0.5289  0.0828 -0.7171
  479MOL0     C64564   5.246  11.721   3.337 -0.2080 -0.1515 -0.3884
  479MOL0     C64565   5.171  11.618   3.287  0.8234 -0.8072  1.1109
  479MOL0     O64566   5.199  11.570   3.159  0.7107  0.5488  0.7837
  479MOL0     C64567   5.328  11.512   3.149  0.0510  0.2190  0.2951
  479MOL0     C64568   5.433  11.569   3.061  0.7346  0.1309 -0.1860
  479MOL0     C64569   5.425  11.513   2.918  0.4178  0.2271 -0.6461
  479MOL0     C64570   5.560  11.547   2.856 -0.2951  0.1508  0.6623
  479MOL0     C64571   5.562  11.492   2.720  0.5205  0.2404  0.2031
  479MOL0     C64572   5.560  11.329   2.709 -0.3861 -0.8979 -1.1251
  479MOL0     C64573   5.577  11.282   2.563 -0.4737  0.7567 -0.0197
  479MOL0     C64574   5.476  11.332   2.465  0.3361  0.6400  0.7430
  479MOL0    Cl64575   5.312  11.316   2.537  0.2032  0.6281 -0.0226
  479MOL0     C64576   5.055  11.572   3.346  0.0509  0.4414 -0.2702
  479MOL0     C64577   5.018  11.623   3.473 -0.2783 -0.0409  0.5761
  479MOL0     O64578   5.216  11.919   3.733  0.3046  0.2201  0.6068
  479MOL0     C64579   4.855  11.934   3.733  0.4553 -0.1761 -0.4960
  479MOL0     C64580   4.748  12.010   3.779  0.4225  0.6603 -0.2246
  479MOL0     N64581   4.010  12.054   4.143  0.5515 -0.2203 -0.0988
  479MOL0     N64582   3.896  12.004   4.143 -0.3070 -0.2254  0.4570
  479MOL0     C64583   3.284  11.269   3.398  0.1838  0.1466 -0.2301
  479MOL0     C64584   3.185  11.276   3.305  0.2330 -0.4533  0.1446
  479MOL0     C64585   2.859  11.353   3.043 -0.2771 -0.5318  0.0030
  479MOL0     C64586   2.792  11.467   3.081  0.6812 -1.0210  0.5321
  479MOL0     C64587   2.697  11.526   2.998  0.0236 -0.2037 -0.3291
  479MOL0     C64588   2.670  11.476   2.872  0.1622 -0.6035 -0.6473
  479MOL0     O64589   2.587  11.533   2.786 -0.6530  0.5196 -0.3307
  479MOL0     C64590   2.588  11.678   2.775  0.5970  0.4247 -0.3181
  479MOL0     C64591   2.511  11.734   2.655 -0.4791  0.6781 -0.3695
  479MOL0     C64592   2.541  11.654   2.532 -0.2390 -0.0970 -0.8197
  479MOL0     C64593   2.451  11.682   2.414  0.5354  0.0539  0.6721
  479MOL0     C64594   2.438  11.826   2.397 -0.5999  0.3747  0.2236
  479MOL0     C64595   2.424  11.946   2.398  0.1630 -0.7686 -0.6254
  479MOL0     C64596   2.743  11.361   2.836  0.4816 -0.2503 -0.2977
  479MOL0     C64597   2.833  11.298   2.916 -0.4392  0.5154 -0.1912
  479MOL0     H64598   2.952  11.402   3.491 -0.9262 -0.9087 -1.0379
  479MOL0     H64599   3.115  11.383   3.669  1.3421 -2.6062  0.3107
  479MOL0     H64600   3.244  11.195   3.757  0.1236  0.0088 -0.8069
  479MOL0     H64601   3.412  11.191   3.794 -3.1719 -1.7155 -0.5387
  479MOL0     H64602   3.272  11.445   3.813 -1.2292 -1.4401 -3.1594
  479MOL0     H64603   3.257  11.324   3.932 -2.2259  1.0912 -0.9514
  479MOL0     H64604   3.520  11.338   3.935 -1.7558 -0.1300  1.8489
  479MOL0     H64605   3.514  11.474   3.816 -1.6655  0.7760 -0.5369
  479MOL0     H64606   3.406  11.614   3.976  0.7217 -0.9876 -3.1866
  479MOL0     H64607   3.403  11.473   4.091  1.4034 -0.8718 -0.2836
  479MOL0     H64608   3.640  11.474   4.108 -1.5213 -0.2014  0.5629
  479MOL0     H64609   3.659  11.567   3.952  0.3796 -1.3109  0.4342
  479MOL0     H64610   3.523  11.752   4.109 -0.0114 -0.2578 -0.5754
  479MOL0     H64611   3.551  11.630   4.230 -1.5006  1.1867 -0.5589
  479MOL0     H64612   3.715  11.807   4.253 -0.4114 -0.1131  0.7536
  479MOL0     H64613   3.792  11.654   4.208 -0.6740 -1.7217 -0.9494
  479MOL0     H64614   3.727  11.858   3.996  0.8315 -1.0227 -1.3638
  479MOL0     H64615   3.821  11.719   3.968 -0.9123  1.4849 -1.5256
  479MOL0     H64616   4.080  11.764   4.009  1.7792  1.7664 -0.6117
  479MOL0     H64617   4.291  11.994   4.177  0.4417  1.3479  0.0235
  479MOL0     H64618   4.308  11.901   4.028  0.2268  0.3677 -0.8398
  479MOL0     H64619   4.197  12.179   4.031 -0.8277 -2.1602  1.4283
  479MOL0     H64620   4.278  12.088   3.888  5.1639 -0.7220  0.6513
  479MOL0     H64621   4.444  12.146   4.116  5.4554 -3.5363 -2.3471
  479MOL0     H64622   4.399  12.282   4.018 -0.3999 -0.3893 -0.3224
  479MOL0     H64623   4.514  12.207   3.831  2.6179 -2.2893 -1.7067
  479MOL0     H64624   4.499  12.036   3.882 -0.3223 -1.2601  3.0079
  479MOL0     H64625   4.897  12.152   4.050  0.9811  0.1313 -0.4988
  479MOL0     H64626   5.169  11.943   4.007 -2.6799 -1.6435 -2.3330
  479MOL0     H64627   5.194  12.108   3.961  1.1486 -0.4033  2.2395
  479MOL0     H64628   5.091  12.069   4.099  0.1915  0.0917 -0.2611
  479MOL0     H64629   5.270  11.838   3.518 -0.4934  1.1839 -2.2245
  479MOL0     H64630   5.329  11.770   3.288  0.3779 -0.9337 -0.1894
  479MOL0     H64631   5.365  11.497   3.251  0.0257 -0.4135  0.2118
  479MOL0     H64632   5.311  11.411   3.112 -2.7394 -0.7893  3.8401
  479MOL0     H64633   5.411  11.676   3.057  0.5931  0.0676 -2.0995
  479MOL0     H64634   5.534  11.555   3.102  1.1142  0.3032 -1.0352
  479MOL0     H64635   5.336  11.557   2.871  0.5318  0.5397 -0.5744
  479MOL0     H64636   5.421  11.404   2.920  0.8242  0.1607 -2.0999
  479MOL0     H64637   5.570  11.656   2.847 -1.1276  0.2248  0.5725
  479MOL0     H64638   5.652  11.524   2.910  1.1899 -0.0927 -1.8242
  479MOL0     H64639   5.654  11.523   2.670  0.7460 -1.1615 -0.2904
  479MOL0     H64640   5.488  11.548   2.661  0.4807 -0.1957 -0.1629
  479MOL0     H64641   5.643  11.303   2.774  0.4205  1.2710 -1.2089
  479MOL0     H64642   5.466  11.290   2.749 -0.5242  0.4864 -0.0272
  479MOL0     H64643   5.578  11.174   2.548  0.3143  0.8330 -0.5948
  479MOL0     H64644   5.680  11.305   2.536 -0.0183 -0.3793  0.6495
  479MOL0     H64645   5.486  11.274   2.373 -0.2556  1.0341  0.4285
  479MOL0     H64646   5.495  11.439   2.454  2.2297  0.1706 -1.2011
  479MOL0     H64647   5.002  11.496   3.291  0.5747 -0.2697  0.1995
  479MOL0     H64648   4.927  11.599   3.527 -0.5108  3.4710  2.0613
  479MOL0     H64649   4.833  11.865   3.652  2.5439 -0.8174 -0.5925
  479MOL0     H64650   4.656  11.991   3.723  1.5388  0.3090 -2.0205
  479MOL0     H64651   3.379  11.232   3.360 -0.4534 -2.7748  0.7904
  479MOL0     H64652   3.213  11.231   3.210  1.0889 -2.6828  1.3886
  479MOL0     H64653   2.822  11.513   3.174  0.6192 -1.6353  0.8587
  479MOL0     H64654   2.677  11.627   3.033  2.1023 -0.1609  0.9353
  479MOL0     H64655   2.534  11.713   2.864 -1.0552  0.1546 -1.1728
  479MOL0     H64656   2.687  11.723   2.770 -0.1391  2.5348  1.9623
  479MOL0     H64657   2.530  11.842   2.651 -0.7861  0.9160  2.4548
  479MOL0     H64658   2.408  11.722   2.693 -0.7288  3.1557 -0.0617
  479MOL0     H64659   2.524  11.550   2.561  4.1820 -0.5475  0.8809
  479MOL0     H64660   2.639  11.670   2.486 -0.0120 -1.2312 -0.7454
  479MOL0     H64661   2.351  11.648   2.440  0.1046  0.3766 -0.4918
  479MOL0     H64662   2.484  11.630   2.323  0.6641 -0.4082  0.9770
  479MOL0     H64663   2.416  12.050   2.421 -1.6850 -0.5879 -1.8831
  479MOL0     H64664   2.730  11.314   2.739  0.6691  2.1221 -1.5509
  479MOL0     H64665   2.868  11.207   2.867 -2.4227  0.8508 -2.3931
  480MOL0     O64666   7.396   5.836   6.363 -0.2623 -0.2502 -0.3280
  480MOL0     C64667   7.390   5.927   6.282  0.1407  0.4266  0.1152
  480MOL0     O64668   7.376   6.049   6.312 -0.1242  0.0942  0.8883
  480MOL0     C64669   7.335   6.097   6.431 -0.3308 -0.7665 -0.6026
  480MOL0     C64670   7.390   6.061   6.555  0.2215  0.5049  0.0597
  480MOL0     C64671   7.348   6.113   6.673  0.7990 -0.3150 -0.2805
  480MOL0     C64672   7.233   6.194   6.670  0.8425 -0.5270 -0.9259
  480MOL0     O64673   7.188   6.245   6.795  0.8752  0.1417  0.4431
  480MOL0     C64674   7.186   6.382   6.825 -0.3532 -0.5764  0.5509
  480MOL0     C64675   7.151   6.390   6.972 -0.1653 -0.6178 -0.2699
  480MOL0     C64676   6.998   6.349   6.987 -0.3700 -0.1398 -0.2506
  480MOL0     C64677   6.963   6.372   7.135 -0.5828 -0.6733  0.0973
  480MOL0     C64678   6.948   6.516   7.162  0.0965 -0.2471 -0.6507
  480MOL0     C64679   6.872   6.552   7.280 -0.1704 -0.2713  0.0709
  480MOL0     C64680   6.886   6.444   7.397  0.1995  0.4355 -0.3756
  480MOL0     C64681   6.786   6.472   7.504 -0.2785  0.5153 -0.0628
  480MOL0     N64682   6.825   6.600   7.570 -0.2035  0.0045  0.3558
  480MOL0     C64683   6.940   6.635   7.631  0.7985 -0.3812  0.6625
  480MOL0     C64684   6.926   6.756   7.686  0.4329  0.0563  0.2918
  480MOL0     C64685   7.022   6.824   7.776  0.3620 -0.8775  0.6833
  480MOL0     C64686   6.974   6.809   7.922  0.6004 -0.9230 -0.4916
  480MOL0     C64687   6.838   6.869   7.953  0.4444 -0.9576  0.4408
  480MOL0     C64688   6.803   6.876   8.101  0.5832 -0.5265  0.1025
  480MOL0     O64689   6.678   6.951   8.103  0.1856 -0.0413  0.4783
  480MOL0     C64690   6.558   6.897   8.059 -0.4960  0.4534  0.1972
  480MOL0     C64691   6.449   6.975   8.036 -1.1095  0.0443 -0.3533
  480MOL0     C64692   6.316   6.934   8.013  0.1271 -0.2540  0.1958
  480MOL0     C64693   6.201   7.036   8.013 -0.2551  0.0690  0.7239
  480MOL0     C64694   6.294   6.796   8.007  0.2670 -0.7456  0.1354
  480MOL0     C64695   6.165   6.736   7.978  0.1398  0.0993 -1.2956
  480MOL0     O64696   6.087   6.685   8.078 -0.1463  0.1480 -0.3273
  480MOL0     C64697   6.147   6.675   8.197 -0.1887 -0.1487  0.4030
  480MOL0     C64698   6.142   6.794   8.277  0.7624  0.1182  0.5410
  480MOL0     C64699   6.173   6.789   8.408  0.8467 -1.2609 -0.1991
  480MOL0     C64700   6.241   6.679   8.468 -0.0318  0.0906 -0.1302
  480MOL0     O64701   6.283   6.671   8.599 -0.8712  0.2336 -0.2666
  480MOL0     C64702   6.285   6.801   8.665  0.5666 -0.0372  0.1983
  480MOL0     C64703   6.365   6.780   8.795  0.6358  0.2149 -0.0455
  480MOL0     C64704   6.403   6.915   8.861  0.1430 -0.3809  0.1005
  480MOL0     C64705   6.293   6.975   8.959  0.6989 -0.7296  0.5492
  480MOL0     C64706   6.326   7.106   9.032 -0.2561  0.7495 -0.2835
  480MOL0     C64707   6.440   7.101   9.127  0.5695  0.7829  0.5210
  480MOL0     C64708   6.482   7.236   9.155  0.4349 -0.5705 -1.1186
  480MOL0     C64709   6.548   7.312   9.034 -1.2359  0.5908 -1.1880
  480MOL0    Cl64710   6.681   7.203   8.960 -0.5284 -0.2134  0.0420
  480MOL0     C64711   6.265   6.569   8.385  0.4199  1.1476 -0.7270
  480MOL0     C64712   6.215   6.567   8.249  0.2127  0.2197 -0.5950
  480MOL0     O64713   6.128   6.739   7.862 -0.0750  0.1587 -0.3424
  480MOL0     C64714   6.406   6.711   8.036  0.2332 -0.3301  0.9392
  480MOL0     C64715   6.538   6.760   8.057  0.4985  0.0583  0.2255
  480MOL0     N64716   6.818   6.812   7.632 -0.4321 -0.3855  0.0623
  480MOL0     N64717   6.759   6.721   7.564 -0.3788 -0.4851 -0.2763
  480MOL0     C64718   7.167   6.228   6.553  1.4212  0.8726 -0.5017
  480MOL0     C64719   7.226   6.192   6.430  0.3267  0.3869 -0.0998
  480MOL0     C64720   7.416   5.881   6.140  1.2403 -0.3028  0.7831
  480MOL0     C64721   7.453   5.975   6.051 -0.3287 -0.2069  0.2492
  480MOL0     C64722   7.465   5.956   5.907 -1.0259 -0.5022 -0.5301
  480MOL0     C64723   7.459   5.818   5.859 -0.2809 -0.1355  0.5516
  480MOL0     O64724   7.488   5.785   5.730  0.3542  0.1177 -0.2841
  480MOL0     C64725   7.438   5.673   5.668  0.1479  0.6024 -0.0400
  480MOL0     C64726   7.442   5.690   5.512  0.3091 -0.0842  0.2835
  480MOL0     C64727   7.578   5.654   5.458 -0.1617 -0.0964 -0.3685
  480MOL0     C64728   7.630   5.509   5.493  0.0663 -0.1510  1.2472
  480MOL0     C64729   7.741   5.492   5.409 -0.2532 -0.0199 -0.7500
  480MOL0     C64730   7.846   5.472   5.356 -0.8146  0.4965  0.2573
  480MOL0     C64731   7.414   5.726   5.949  0.1691  0.7121  0.8430
  480MOL0     C64732   7.388   5.753   6.088 -0.8162  0.4864  0.0463
  480MOL0     H64733   7.461   5.980   6.563 -0.1260  0.2888  1.1115
  480MOL0     H64734   7.394   6.075   6.764 -0.5863 -1.9737 -0.2269
  480MOL0     H64735   7.286   6.425   6.817 -1.7511  2.9002  0.0001
  480MOL0     H64736   7.125   6.434   6.751  2.1504 -1.4093 -2.3057
  480MOL0     H64737   7.215   6.336   7.042 -1.5650  1.6707  2.9752
  480MOL0     H64738   7.142   6.495   7.000 -2.7611 -0.8340 -0.0481
  480MOL0     H64739   6.930   6.393   6.914 -0.1075  0.3416 -0.2088
  480MOL0     H64740   6.977   6.242   6.980 -0.4565 -0.2484  1.3099
  480MOL0     H64741   6.864   6.325   7.142 -0.4347 -0.8868  0.8120
  480MOL0     H64742   7.044   6.332   7.197 -0.8380 -0.5118  0.5386
  480MOL0     H64743   7.048   6.555   7.183  0.2256 -1.7412  1.9211
  480MOL0     H64744   6.903   6.569   7.077  0.4061 -1.7457 -1.7796
  480MOL0     H64745   6.890   6.651   7.321  0.3821 -0.4792  0.3463
  480MOL0     H64746   6.767   6.539   7.251 -0.4528 -2.9723  1.9432
  480MOL0     H64747   6.842   6.353   7.356 -1.5217 -0.0883  2.3968
  480MOL0     H64748   6.989   6.440   7.433 -0.0168  0.0912  0.2005
  480MOL0     H64749   6.793   6.391   7.577 -2.4210 -0.7124 -1.1166
  480MOL0     H64750   6.689   6.475   7.453  0.4078  0.9624 -1.3897
  480MOL0     H64751   7.029   6.573   7.628  0.6943 -0.5295  0.5762
  480MOL0     H64752   7.121   6.782   7.758 -0.2069 -1.9125 -0.1123
  480MOL0     H64753   7.023   6.931   7.755  0.8404 -0.5809  2.1222
  480MOL0     H64754   7.045   6.849   7.994 -1.0625 -1.0925  1.3366
  480MOL0     H64755   6.974   6.701   7.940  0.8759 -0.7518  0.6051
  480MOL0     H64756   6.761   6.808   7.906  0.9700 -0.6768 -0.8114
  480MOL0     H64757   6.827   6.973   7.922 -2.0122 -0.9366  1.1939
  480MOL0     H64758   6.877   6.941   8.147  0.1411 -0.3911  0.6314
  480MOL0     H64759   6.788   6.781   8.153 -0.1812 -1.6766 -2.0871
  480MOL0     H64760   6.455   7.084   8.037  1.4755 -0.0521 -0.1391
  480MOL0     H64761   6.204   7.124   8.078 -4.7022  0.3865  0.8018
  480MOL0     H64762   6.181   7.078   7.914  1.1714 -0.9772 -0.0414
  480MOL0     H64763   6.111   6.983   8.045 -1.9759  2.3581 -0.0310
  480MOL0     H64764   6.083   6.878   8.242 -0.7899 -2.3827 -3.5615
  480MOL0     H64765   6.153   6.880   8.464 -1.0530  0.3209 -3.1681
  480MOL0     H64766   6.336   6.875   8.602  0.1932  0.2383  0.2192
  480MOL0     H64767   6.187   6.831   8.700  2.1637  0.7788  4.6290
  480MOL0     H64768   6.298   6.725   8.862  2.0920  2.3723  3.4478
  480MOL0     H64769   6.459   6.725   8.791  0.8026  0.4733  0.2998
  480MOL0     H64770   6.429   6.978   8.776  3.0250 -3.1025 -1.2610
  480MOL0     H64771   6.491   6.902   8.925 -0.7554 -3.9586  0.8295
  480MOL0     H64772   6.198   6.991   8.907 -0.2655 -0.5302  2.2645
  480MOL0     H64773   6.281   6.895   9.034  2.8595 -0.4676  1.2344
  480MOL0     H64774   6.246   7.140   9.099  0.6030 -3.7991  3.5550
  480MOL0     H64775   6.337   7.171   8.944  1.4991  0.8474 -0.0285
  480MOL0     H64776   6.411   7.054   9.222 -2.2550  1.0075 -0.1653
  480MOL0     H64777   6.519   7.038   9.085 -1.0334  0.5804 -2.4159
  480MOL0     H64778   6.565   7.237   9.227  0.9974 -0.0508 -1.7542
  480MOL0     H64779   6.403   7.301   9.194 -0.6575 -1.8070 -1.1899
  480MOL0     H64780   6.597   7.402   9.074 -1.2149  0.2726 -0.4932
  480MOL0     H64781   6.467   7.339   8.966 -2.1708 -0.9381 -0.7279
  480MOL0     H64782   6.320   6.495   8.442  1.1815  0.9901 -1.6601
  480MOL0     H64783   6.217   6.475   8.191 -3.8129 -0.7072  0.4442
  480MOL0     H64784   6.391   6.604   8.036  1.9880 -0.6915 -2.0141
  480MOL0     H64785   6.613   6.691   8.093  0.3596 -0.4423 -0.4114
  480MOL0     H64786   7.079   6.291   6.561  0.5395 -0.4787  1.0594
  480MOL0     H64787   7.172   6.212   6.338 -1.3073 -1.0247  0.4983
  480MOL0     H64788   7.471   6.080   6.071  1.9630 -0.1763 -1.4800
  480MOL0     H64789   7.506   6.027   5.835 -0.1553 -1.7646 -1.3135
  480MOL0     H64790   7.487   5.582   5.704 -0.0470 -0.1890 -1.7172
  480MOL0     H64791   7.334   5.664   5.701  0.2315 -0.3551 -0.0016
  480MOL0     H64792   7.418   5.794   5.487 -0.5298 -0.3138  0.0852
  480MOL0     H64793   7.360   5.634   5.465 -2.4731  1.9649  2.3351
  480MOL0     H64794   7.648   5.729   5.495 -2.9927  0.5635  4.4369
  480MOL0     H64795   7.561   5.666   5.351 -0.7799  0.9318 -0.1714
  480MOL0     H64796   7.553   5.434   5.470  0.7582 -0.1114 -1.6236
  480MOL0     H64797   7.659   5.502   5.598 -0.7001  2.0730  1.6622
  480MOL0     H64798   7.938   5.464   5.301 -2.3623  1.5095 -2.6777
  480MOL0     H64799   7.398   5.626   5.909 -1.8738  0.5701  1.9132
  480MOL0     H64800   7.344   5.674   6.148  0.1636 -0.3958 -0.3614
  481MOL0     O64801   8.244   2.465   7.177 -0.6850 -0.1721  0.0827
  481MOL0     C64802   8.194   2.510   7.277  0.8529 -0.6479  0.1015
  481MOL0     O64803   8.070   2.524   7.301  0.3513 -0.3998  0.4105
  481MOL0     C64804   7.972   2.506   7.209  0.2230  0.3362  0.4990
  481MOL0     C64805   7.968   2.589   7.085  0.4086  0.2003 -0.2959
  481MOL0     C64806   7.886   2.546   6.983 -0.3692  0.2368 -0.6785
  481MOL0     C64807   7.797   2.432   7.000 -1.1079 -0.0566  0.8984
  481MOL0     O64808   7.699   2.398   6.912  0.6302  0.1571  0.3561
  481MOL0     C64809   7.743   2.329   6.792  0.6080  0.6363  0.7307
  481MOL0     C64810   7.612   2.260   6.749  0.3174  0.2835  0.6998
  481MOL0     C64811   7.641   2.164   6.627  1.1277  0.5342  0.8455
  481MOL0     C64812   7.523   2.125   6.531  0.5356  0.0185 -0.3807
  481MOL0     C64813   7.555   2.068   6.399 -0.2649 -0.7982 -0.2325
  481MOL0     C64814   7.650   1.954   6.432  0.3641  0.6336  0.2746
  481MOL0     C64815   7.658   1.874   6.304 -0.3226 -0.3375  0.7493
  481MOL0     C64816   7.771   1.779   6.328  0.5230  0.3371  1.0106
  481MOL0     N64817   7.810   1.715   6.203 -0.4505 -1.1226 -0.6454
  481MOL0     C64818   7.896   1.768   6.103 -0.5250  0.3349 -0.4609
  481MOL0     C64819   7.903   1.660   6.025  0.1437 -0.9918  0.5045
  481MOL0     C64820   7.988   1.665   5.904  0.0643  0.4724 -0.7935
  481MOL0     C64821   8.139   1.648   5.945  0.6783  0.3978 -0.8205
  481MOL0     C64822   8.175   1.512   6.013  0.7992 -0.3720 -0.5428
  481MOL0     C64823   8.225   1.414   5.910  0.3654  0.0070 -0.9449
  481MOL0     O64824   8.276   1.282   5.963  0.5712  0.2758 -0.0878
  481MOL0     C64825   8.363   1.219   5.875 -0.4029 -0.4110 -0.3350
  481MOL0     C64826   8.372   1.235   5.740  0.2790 -0.2384  0.1135
  481MOL0     C64827   8.445   1.161   5.650 -1.1308  0.7802  0.1218
  481MOL0     C64828   8.420   1.170   5.498  0.0994 -0.7680 -1.3208
  481MOL0     C64829   8.525   1.059   5.708 -0.2980 -0.4182  0.2028
  481MOL0     C64830   8.623   0.977   5.640  0.1352  0.5335 -0.4528
  481MOL0     O64831   8.743   0.947   5.713  0.1729 -0.1348 -0.2655
  481MOL0     C64832   8.822   0.857   5.650  0.5563  0.3569  0.2951
  481MOL0     C64833   8.953   0.873   5.625 -0.1820 -0.5170  0.1569
  481MOL0     C64834   9.044   0.772   5.590  0.5169 -0.0557  0.4972
  481MOL0     C64835   8.990   0.641   5.566 -0.8759 -1.1078  0.2959
  481MOL0     O64836   9.076   0.552   5.519 -1.0602  0.3059 -0.0321
  481MOL0     C64837   9.039   0.415   5.548 -0.4291  0.8005  0.9337
  481MOL0     C64838   9.142   0.306   5.546 -0.0678 -0.7468 -0.0496
  481MOL0     C64839   9.216   0.302   5.410  0.7947 -1.1351  0.6474
  481MOL0     C64840   9.283   0.168   5.383  0.1641 -0.1349 -0.8365
  481MOL0     C64841   9.198   0.066   5.294 -1.0391 -0.0009  0.0550
  481MOL0     C64842   9.252  -0.079   5.303  1.0428 -0.2676 -0.5867
  481MOL0     C64843   9.195  -0.168   5.187 -0.2875  0.3253  0.2601
  481MOL0     C64844   9.284  -0.298   5.181  0.3006 -0.8413  0.1147
  481MOL0    Cl64845   9.231  -0.396   5.038  0.4093  0.3010 -0.1992
  481MOL0     C64846   8.856   0.620   5.588 -0.7818  0.0540 -1.2511
  481MOL0     C64847   8.777   0.725   5.645  0.4036  0.2724 -0.1457
  481MOL0     O64848   8.591   0.931   5.524  0.3621  0.5213 -0.4658
  481MOL0     C64849   8.529   1.049   5.848 -0.8866 -0.2944  0.7135
  481MOL0     C64850   8.454   1.124   5.932  0.9495 -0.5829 -0.4097
  481MOL0     N64851   7.824   1.556   6.065 -1.0265  0.6302  0.3647
  481MOL0     N64852   7.774   1.588   6.172  0.4272  1.2287 -0.3966
  481MOL0     C64853   7.804   2.361   7.116  0.5695  0.7214 -0.2332
  481MOL0     C64854   7.879   2.398   7.224 -0.5476 -0.9232 -0.9783
  481MOL0     C64855   8.292   2.547   7.387  0.5523  0.1747  0.2127
  481MOL0     C64856   8.232   2.602   7.508 -0.1202  0.5493  0.7612
  481MOL0     C64857   8.322   2.646   7.605 -0.3550  1.0202 -0.0449
  481MOL0     C64858   8.458   2.632   7.599 -0.5791  0.6061 -0.0342
  481MOL0     O64859   8.542   2.657   7.704 -0.4166 -0.3690  0.4146
  481MOL0     C64860   8.552   2.790   7.757 -0.4039 -0.3337  0.6447
  481MOL0     C64861   8.681   2.866   7.702 -0.8862  0.9919  0.6236
  481MOL0     C64862   8.810   2.792   7.756 -0.3313  0.2478  0.4548
  481MOL0     C64863   8.832   2.652   7.697  0.0250  0.7998 -0.2269
  481MOL0     C64864   8.973   2.623   7.669  0.1674 -0.6359  0.3888
  481MOL0     C64865   9.091   2.597   7.655 -0.2190  0.1135 -0.2869
  481MOL0     C64866   8.513   2.583   7.485  0.0091  0.4708  0.3103
  481MOL0     C64867   8.432   2.540   7.382 -0.1264  0.2221  0.9551
  481MOL0     H64868   8.030   2.679   7.083 -2.5253  2.4532  1.5964
  481MOL0     H64869   7.880   2.582   6.881 -0.5252  0.9082 -0.4383
  481MOL0     H64870   7.772   2.399   6.714  0.1846 -1.3512 -1.3361
  481MOL0     H64871   7.825   2.258   6.807  1.1099  0.6780 -1.5608
  481MOL0     H64872   7.559   2.204   6.827 -1.0301 -2.5063 -2.0149
  481MOL0     H64873   7.545   2.338   6.712  1.6946  1.7847  1.2337
  481MOL0     H64874   7.720   2.204   6.563  1.0822  1.0007  1.0756
  481MOL0     H64875   7.691   2.072   6.658 -0.2075 -1.3437 -2.1863
  481MOL0     H64876   7.448   2.070   6.588  1.8947 -0.8661  0.6260
  481MOL0     H64877   7.465   2.216   6.518 -2.0121 -1.2147  1.4919
  481MOL0     H64878   7.458   2.037   6.358 -1.9290  2.8815  0.5139
  481MOL0     H64879   7.600   2.143   6.334 -1.2368 -1.9597 -2.3759
  481MOL0     H64880   7.751   1.991   6.452  0.3605  0.2461  1.0313
  481MOL0     H64881   7.600   1.902   6.514 -0.4274 -1.1893 -1.2908
  481MOL0     H64882   7.562   1.823   6.290  0.1830 -1.4517  1.2269
  481MOL0     H64883   7.669   1.939   6.217 -3.3934 -0.2720  0.2786
  481MOL0     H64884   7.743   1.703   6.402 -0.3375 -0.8287 -0.4641
  481MOL0     H64885   7.849   1.841   6.373  2.3036  0.9291 -2.5519
  481MOL0     H64886   7.954   1.859   6.103  1.1226 -0.6589  0.5108
  481MOL0     H64887   7.956   1.576   5.849 -2.4758  1.2460 -0.6694
  481MOL0     H64888   7.968   1.757   5.847 -0.1764  0.5963 -0.5073
  481MOL0     H64889   8.156   1.731   6.014 -0.6777  0.4818 -0.5575
  481MOL0     H64890   8.210   1.657   5.862 -0.2129 -2.6460 -2.0768
  481MOL0     H64891   8.083   1.483   6.064  0.0667  0.6676 -1.2314
  481MOL0     H64892   8.254   1.517   6.089  1.3083 -0.9143 -1.0177
  481MOL0     H64893   8.307   1.475   5.871 -0.5024  1.0536 -1.1829
  481MOL0     H64894   8.152   1.397   5.831 -3.5653  1.0903  2.1428
  481MOL0     H64895   8.307   1.306   5.690  0.4472 -0.0335  0.1859
  481MOL0     H64896   8.501   1.139   5.432 -0.6788 -1.3716 -2.0090
  481MOL0     H64897   8.331   1.112   5.471 -0.3623 -1.8032  2.0022
  481MOL0     H64898   8.407   1.276   5.473  0.4614 -0.4005 -0.0443
  481MOL0     H64899   8.980   0.978   5.635 -0.3154 -0.3024 -1.4451
  481MOL0     H64900   9.152   0.774   5.584  0.6455 -2.3827  0.9824
  481MOL0     H64901   8.987   0.408   5.644 -1.6433 -1.2013  0.1881
  481MOL0     H64902   8.957   0.394   5.478 -1.2768  3.5970  0.9376
  481MOL0     H64903   9.219   0.333   5.620  2.4593  0.2575 -2.8218
  481MOL0     H64904   9.091   0.216   5.582 -0.2006 -0.8583 -0.5154
  481MOL0     H64905   9.283   0.386   5.428 -1.4563  0.3512  2.8808
  481MOL0     H64906   9.152   0.332   5.327  0.2484 -2.4238  0.5721
  481MOL0     H64907   9.370   0.207   5.329  1.1742  2.3213  2.2519
  481MOL0     H64908   9.309   0.130   5.482 -0.7010  2.5252  0.5181
  481MOL0     H64909   9.203   0.101   5.191 -0.3300  2.2310  0.8043
  481MOL0     H64910   9.096   0.066   5.333 -1.0039  2.0288  0.2327
  481MOL0     H64911   9.359  -0.074   5.279  1.0250  5.0343 -0.8284
  481MOL0     H64912   9.226  -0.130   5.396 -2.1554  0.3335 -1.0490
  481MOL0     H64913   9.207  -0.106   5.098  0.2983  0.4403  0.4167
  481MOL0     H64914   9.087  -0.186   5.187 -0.8708  2.2286 -4.7560
  481MOL0     H64915   9.278  -0.355   5.275 -0.7747  2.0373  1.9234
  481MOL0     H64916   9.387  -0.261   5.176  0.8435 -2.4391 -1.4727
  481MOL0     H64917   8.825   0.521   5.618  0.7570 -0.6331 -1.8368
  481MOL0     H64918   8.677   0.717   5.686  0.1132  0.1224 -0.8519
  481MOL0     H64919   8.586   0.965   5.887 -0.0128 -0.0603 -0.0035
  481MOL0     H64920   8.455   1.110   6.039 -1.2343 -0.9700 -0.3860
  481MOL0     H64921   7.731   2.283   7.136  1.6742  0.0614  1.4032
  481MOL0     H64922   7.881   2.375   7.330 -0.9822  5.0698  0.6865
  481MOL0     H64923   8.126   2.613   7.528 -0.4528  2.6848 -1.5672
  481MOL0     H64924   8.281   2.662   7.704 -0.1212 -4.8898  1.3919
  481MOL0     H64925   8.466   2.855   7.739 -0.4292 -0.7154 -0.7489
  481MOL0     H64926   8.567   2.778   7.865 -0.8514 -3.4114  0.4491
  481MOL0     H64927   8.685   2.972   7.726 -2.5849  1.2601 -0.1343
  481MOL0     H64928   8.676   2.866   7.593  0.5995  0.6683  0.5297
  481MOL0     H64929   8.795   2.769   7.862  0.3873 -0.0017  0.5045
  481MOL0     H64930   8.896   2.858   7.741  1.6233 -2.0624  0.7962
  481MOL0     H64931   8.770   2.642   7.608  0.5333  0.7946 -0.5820
  481MOL0     H64932   8.790   2.584   7.772 -0.0068  2.2562  1.1411
  481MOL0     H64933   9.196   2.574   7.655 -0.4479 -1.1559  1.2302
  481MOL0     H64934   8.617   2.556   7.472  0.4163  1.3381  1.5589
  481MOL0     H64935   8.483   2.508   7.291  0.3119  2.8083  0.1923
  482MOL0     O64936   3.376  10.001   4.076 -0.1257 -1.1685 -0.7871
  482MOL0     C64937   3.274   9.974   4.016  0.0604 -0.2766 -0.2434
  482MOL0     O64938   3.141  10.014   4.049 -0.5066  0.4125  0.4888
  482MOL0     C64939   3.115  10.063   4.178  1.3179  0.5010  0.2058
  482MOL0     C64940   2.987  10.133   4.202 -1.4906 -0.6827 -0.1495
  482MOL0     C64941   2.957  10.171   4.333  0.1200  0.8672 -0.2857
  482MOL0     C64942   3.027  10.126   4.442 -0.9823  0.9007  0.6096
  482MOL0     O64943   2.997  10.163   4.570  0.3866  0.3058  0.0784
  482MOL0     C64944   2.854  10.169   4.592 -0.1661  0.6055 -0.2491
  482MOL0     C64945   2.844  10.173   4.750  0.3509 -0.3173  0.6060
  482MOL0     C64946   2.869  10.048   4.827  0.4962 -0.0136 -0.5116
  482MOL0     C64947   2.796  10.052   4.958  0.1919  0.2790 -0.0216
  482MOL0     C64948   2.813   9.925   5.051 -0.3241 -0.8052 -0.1534
  482MOL0     C64949   2.700   9.913   5.152  0.8127 -0.0121  0.2743
  482MOL0     C64950   2.706  10.021   5.252 -0.8391  0.3856 -0.4651
  482MOL0     C64951   2.595  10.000   5.361  0.5743 -0.4467 -0.2857
  482MOL0     N64952   2.619  10.075   5.486 -0.4872  0.2576 -0.4575
  482MOL0     C64953   2.669  10.024   5.604 -0.4667  0.4280  0.1626
  482MOL0     C64954   2.646  10.118   5.697  0.2260  0.1339  0.6713
  482MOL0     C64955   2.653  10.084   5.840 -0.3244  0.6895  0.4295
  482MOL0     C64956   2.612  10.184   5.950 -0.5712  0.1865 -0.0401
  482MOL0     C64957   2.717  10.288   5.995  0.7272  0.4086 -0.0278
  482MOL0     C64958   2.787  10.387   5.904  0.3399 -0.6849 -0.6525
  482MOL0     O64959   2.871  10.331   5.802 -1.0423  0.4030  0.7183
  482MOL0     C64960   2.932  10.424   5.722 -0.3839 -0.2855  0.5556
  482MOL0     C64961   3.025  10.521   5.765  0.4558  0.8854 -0.0952
  482MOL0     C64962   3.059  10.632   5.686  1.2372  0.4026 -0.0737
  482MOL0     C64963   3.156  10.735   5.741 -0.5228 -0.8422  0.4197
  482MOL0     C64964   3.010  10.637   5.557  1.0479  0.2478  0.8523
  482MOL0     C64965   3.028  10.745   5.453 -0.4882 -0.2564 -0.1357
  482MOL0     O64966   3.016  10.712   5.321 -0.0842  0.7716 -0.3363
  482MOL0     C64967   3.039  10.795   5.217 -0.1578 -0.1338  0.5819
  482MOL0     C64968   2.929  10.834   5.140 -0.7283  0.0902  0.2352
  482MOL0     C64969   2.945  10.907   5.027 -0.0925  0.5899  0.8077
  482MOL0     C64970   3.067  10.960   4.998  0.0980 -0.1869 -0.1894
  482MOL0     O64971   3.095  11.020   4.880  1.0311  0.0780 -0.6748
  482MOL0     C64972   3.079  10.943   4.771 -0.4164 -0.2225 -0.7851
  482MOL0     C64973   3.155  11.003   4.659 -0.2699  0.7032  0.3959
  482MOL0     C64974   3.112  10.956   4.522 -0.4361  0.6016  0.3847
  482MOL0     C64975   3.161  10.820   4.484  0.5802 -0.3089  0.0379
  482MOL0     C64976   3.134  10.785   4.340  0.3236 -0.5837  0.5225
  482MOL0     C64977   3.175  10.646   4.307  0.8669 -0.4814 -0.1860
  482MOL0     C64978   3.119  10.586   4.183  0.0754  0.8718 -0.0821
  482MOL0     C64979   2.968  10.566   4.184 -0.5044 -0.9517 -0.3868
  482MOL0    Cl64980   2.900  10.717   4.099 -0.2612  0.4702 -0.3090
  482MOL0     C64981   3.172  10.934   5.078 -0.4063 -1.0133  0.2219
  482MOL0     C64982   3.160  10.852   5.189  0.2152 -0.9260  0.5206
  482MOL0     O64983   3.060  10.857   5.489 -0.5837 -0.6065 -0.7031
  482MOL0     C64984   2.928  10.531   5.510  0.1030 -0.2371 -1.2071
  482MOL0     C64985   2.894  10.423   5.588  0.5205  0.3710  0.5672
  482MOL0     N64986   2.589  10.225   5.631  0.1209 -0.2928 -0.2042
  482MOL0     N64987   2.588  10.199   5.504 -0.2413 -0.1657 -1.1324
  482MOL0     C64988   3.149  10.055   4.419  0.0328 -0.2120 -0.1021
  482MOL0     C64989   3.184  10.019   4.289 -0.0423 -0.3589  0.2158
  482MOL0     C64990   3.302   9.921   3.878  0.1707 -0.2845 -0.8600
  482MOL0     C64991   3.436   9.877   3.852 -0.1717  0.1639 -0.7224
  482MOL0     C64992   3.462   9.801   3.739  0.0526  0.8826 -0.5582
  482MOL0     C64993   3.365   9.776   3.649  0.4724  0.6413 -0.5436
  482MOL0     O64994   3.407   9.697   3.542 -0.7106 -0.0443  0.1541
  482MOL0     C64995   3.328   9.655   3.428  0.0907  0.9054 -0.4412
  482MOL0     C64996   3.405   9.676   3.293 -0.4793  0.6666 -0.4237
  482MOL0     C64997   3.510   9.572   3.268  0.1919  0.7340 -0.1294
  482MOL0     C64998   3.602   9.601   3.162 -0.9126  0.1116 -0.2805
  482MOL0     C64999   3.690   9.716   3.170  0.4393  0.3033  0.2628
  482MOL0     C65000   3.773   9.809   3.182 -0.4835 -0.8601  0.4793
  482MOL0     C65001   3.237   9.834   3.662 -0.2037 -0.7919  0.3127
  482MOL0     C65002   3.206   9.907   3.776  0.1180 -0.0014 -1.0639
  482MOL0     H65003   2.909  10.152   4.129 -1.0268  1.5664 -0.1039
  482MOL0     H65004   2.850  10.193   4.334 -0.4357 -1.3768 -1.8660
  482MOL0     H65005   2.818  10.267   4.558  2.7770  1.7168 -0.4973
  482MOL0     H65006   2.798  10.088   4.544  0.7248  1.8093 -3.6365
  482MOL0     H65007   2.919  10.250   4.772  0.6207 -0.8727  1.6920
  482MOL0     H65008   2.742  10.210   4.767  0.4367  0.3778 -0.3336
  482MOL0     H65009   2.839   9.970   4.756 -2.7371  1.6987 -1.2879
  482MOL0     H65010   2.975  10.041   4.849  0.3274 -4.4107 -0.1887
  482MOL0     H65011   2.829  10.142   5.010 -1.9306  1.0340  0.1374
  482MOL0     H65012   2.689  10.063   4.936  0.3580  0.2218 -0.9308
  482MOL0     H65013   2.830   9.832   4.995 -3.1044 -2.6830  1.8632
  482MOL0     H65014   2.907   9.952   5.101 -0.2493 -1.7723  0.2495
  482MOL0     H65015   2.601   9.921   5.106  0.7993  1.9540  0.5611
  482MOL0     H65016   2.708   9.810   5.190 -0.4269 -1.5751 -3.2513
  482MOL0     H65017   2.807  10.022   5.295  0.2397  2.2396 -2.8129
  482MOL0     H65018   2.707  10.117   5.200  1.1732  2.1855  2.5507
  482MOL0     H65019   2.598   9.897   5.396  0.8082 -0.5768 -0.6846
  482MOL0     H65020   2.497  10.021   5.317  0.8579 -0.8523 -1.1344
  482MOL0     H65021   2.711   9.925   5.616  1.7522  1.3217  0.2554
  482MOL0     H65022   2.599   9.990   5.853  0.2614  0.4322  1.0267
  482MOL0     H65023   2.758  10.067   5.866  1.3627  1.0716 -4.8462
  482MOL0     H65024   2.592  10.115   6.033 -0.9187  2.3212  1.7329
  482MOL0     H65025   2.515  10.233   5.933 -0.9310  1.0014  3.6500
  482MOL0     H65026   2.796  10.235   6.049  1.0772 -0.8482 -1.6957
  482MOL0     H65027   2.663  10.345   6.071  1.1589  3.9015 -2.0974
  482MOL0     H65028   2.844  10.454   5.969  0.2507 -1.2904  0.0562
  482MOL0     H65029   2.707  10.445   5.858 -0.9234 -0.9894  1.0668
  482MOL0     H65030   3.073  10.505   5.861  0.0488  2.3046  0.3847
  482MOL0     H65031   3.210  10.711   5.833  1.8279  0.1945 -0.5922
  482MOL0     H65032   3.235  10.759   5.669 -1.6255 -0.8886 -0.8457
  482MOL0     H65033   3.104  10.825   5.773  1.3816 -0.4415  2.6493
  482MOL0     H65034   2.831  10.789   5.157 -1.3340  1.3337  0.1717
  482MOL0     H65035   2.859  10.919   4.963  0.9182 -0.0570 -0.7343
  482MOL0     H65036   3.124  10.843   4.776 -3.7087 -1.7878  0.6858
  482MOL0     H65037   2.972  10.923   4.754 -1.0766  2.1094  0.2392
  482MOL0     H65038   3.143  11.111   4.661 -0.7308  0.6443  1.0754
  482MOL0     H65039   3.263  10.992   4.676 -0.6840 -1.4637  2.1297
  482MOL0     H65040   3.159  11.026   4.453 -0.5623  0.2883 -0.0219
  482MOL0     H65041   3.006  10.963   4.495  0.1297  0.6977 -2.0363
  482MOL0     H65042   3.269  10.809   4.503  1.4345  2.3402 -2.4280
  482MOL0     H65043   3.107  10.749   4.545 -1.9867  0.8498 -0.7537
  482MOL0     H65044   3.191  10.855   4.278 -1.9027 -0.4756 -1.5852
  482MOL0     H65045   3.028  10.805   4.322  0.9307  3.3119  0.2895
  482MOL0     H65046   3.284  10.644   4.309  0.8674 -1.7963 -0.6947
  482MOL0     H65047   3.145  10.574   4.384 -1.8313  0.5188 -0.1730
  482MOL0     H65048   3.171  10.491   4.178 -0.0364  0.8614 -2.1313
  482MOL0     H65049   3.152  10.645   4.096 -1.1293 -1.5561 -2.3276
  482MOL0     H65050   2.941  10.567   4.290  1.3839  1.2697  0.1613
  482MOL0     H65051   2.937  10.474   4.134  2.6940 -1.3708 -1.8549
  482MOL0     H65052   3.272  10.973   5.059 -1.6934  1.3217 -2.6338
  482MOL0     H65053   3.250  10.829   5.244  0.1401  0.5854  1.3159
  482MOL0     H65054   2.894  10.513   5.408 -0.7168  2.1182 -1.4329
  482MOL0     H65055   2.836  10.338   5.553 -0.5146  0.7658  1.2557
  482MOL0     H65056   3.208  10.041   4.509 -0.9909  0.8332  0.7622
  482MOL0     H65057   3.263   9.945   4.286 -0.3617 -0.6766 -0.3281
  482MOL0     H65058   3.520   9.884   3.920 -1.4439 -0.5816  0.9858
  482MOL0     H65059   3.561   9.757   3.739 -0.2400 -0.0645  2.8665
  482MOL0     H65060   3.287   9.555   3.443 -1.5835  1.4035 -1.4384
  482MOL0     H65061   3.235   9.713   3.422  0.2740  1.5735  2.2303
  482MOL0     H65062   3.443   9.778   3.287  1.0279  0.1191 -0.5423
  482MOL0     H65063   3.333   9.658   3.213 -1.5234  3.2674 -0.1651
  482MOL0     H65064   3.466   9.475   3.246  1.4002 -0.1143  1.0237
  482MOL0     H65065   3.565   9.546   3.359  1.7787  0.4541 -1.1238
  482MOL0     H65066   3.547   9.589   3.069 -2.3402  1.7833  0.2817
  482MOL0     H65067   3.675   9.520   3.166 -0.4940  0.4895 -0.1267
  482MOL0     H65068   3.861   9.870   3.173 -0.1412 -1.2170  1.2773
  482MOL0     H65069   3.177   9.825   3.572  1.3548  1.4241 -1.0541
  482MOL0     H65070   3.102   9.940   3.783  0.1415  0.5605 -2.7965
  483MOL0     O65071   4.326   7.444   7.877  0.8766 -0.6608  0.1084
  483MOL0     C65072   4.262   7.547   7.848  0.1044  0.3552  0.9273
  483MOL0     O65073   4.140   7.545   7.794 -0.2138  0.7663 -0.5774
  483MOL0     C65074   4.065   7.434   7.775  0.0855  0.2405  0.4907
  483MOL0     C65075   4.000   7.405   7.656 -0.5871  0.0350 -0.4316
  483MOL0     C65076   3.914   7.296   7.643 -0.7404 -0.5647 -0.2505
  483MOL0     C65077   3.887   7.211   7.756  0.2367  0.4862 -0.1692
  483MOL0     O65078   3.817   7.102   7.720  0.2758 -0.8211 -0.0969
  483MOL0     C65079   3.773   7.012   7.811  0.2964  0.4991 -0.6934
  483MOL0     C65080   3.665   7.058   7.906 -0.4425 -0.6366  0.8898
  483MOL0     C65081   3.552   7.136   7.835 -1.3056 -0.2897  0.6838
  483MOL0     C65082   3.430   7.158   7.927 -0.4528  0.0230  0.6202
  483MOL0     C65083   3.332   7.240   7.862  0.0005  0.1756 -0.1842
  483MOL0     C65084   3.234   7.173   7.765  0.7203 -1.3759  0.9465
  483MOL0     C65085   3.124   7.279   7.757 -0.2378  0.2469  0.2190
  483MOL0     C65086   3.029   7.259   7.637 -0.2339  0.0460  0.2156
  483MOL0     N65087   2.896   7.320   7.644  0.3042  0.1643 -0.3114
  483MOL0     C65088   2.802   7.290   7.734  0.9945  0.3890  0.2040
  483MOL0     C65089   2.704   7.381   7.727 -0.4851 -0.0841  0.0692
  483MOL0     C65090   2.602   7.418   7.839 -0.1692  0.4846  0.2362
  483MOL0     C65091   2.653   7.528   7.923  0.8004 -0.1324 -0.1371
  483MOL0     C65092   2.597   7.669   7.882  0.0458  0.0437  0.3127
  483MOL0     C65093   2.620   7.776   7.989  0.1901  1.0783 -0.1910
  483MOL0     O65094   2.757   7.813   8.009 -0.2465 -0.4597  0.0053
  483MOL0     C65095   2.786   7.910   8.105 -0.0906 -1.1868  0.7160
  483MOL0     C65096   2.699   7.991   8.176 -0.4600 -0.0243  0.2510
  483MOL0     C65097   2.740   8.078   8.283 -0.6388 -1.0997  0.0309
  483MOL0     C65098   2.639   8.166   8.354 -0.1634 -0.1223 -0.3277
  483MOL0     C65099   2.874   8.087   8.324 -0.4178  0.9295 -0.1695
  483MOL0     C65100   2.912   8.160   8.452  0.3712 -0.6459 -0.4771
  483MOL0     O65101   3.020   8.109   8.510  0.0313 -0.3435 -0.4372
  483MOL0     C65102   3.098   8.173   8.602 -1.2039  0.3377 -0.3615
  483MOL0     C65103   3.138   8.106   8.718 -0.6881  0.7395 -0.5192
  483MOL0     C65104   3.217   8.179   8.813  0.4300  0.5387 -0.5155
  483MOL0     C65105   3.268   8.306   8.790 -0.5903 -0.4912  0.1041
  483MOL0     O65106   3.354   8.365   8.880  0.3944  0.1870  0.0723
  483MOL0     C65107   3.286   8.433   8.978 -0.7177  0.3162 -0.6221
  483MOL0     C65108   3.378   8.499   9.080  0.0510 -0.4755  0.4716
  483MOL0     C65109   3.475   8.582   8.997 -0.1923  0.0850 -0.5121
  483MOL0     C65110   3.595   8.640   9.076  0.7782 -1.0947 -0.8071
  483MOL0     C65111   3.712   8.540   9.097  0.2161 -0.7681  0.3643
  483MOL0     C65112   3.824   8.500   8.990  0.3955 -0.3457 -0.1095
  483MOL0     C65113   3.833   8.597   8.871  0.5142  0.2107 -0.2863
  483MOL0     C65114   3.908   8.540   8.746 -0.7208  0.7421 -0.6667
  483MOL0    Cl65115   4.060   8.445   8.805  0.0865  0.3879 -0.2633
  483MOL0     C65116   3.230   8.370   8.669  0.7253 -0.4821  0.2734
  483MOL0     C65117   3.141   8.302   8.583 -0.2088  0.0284  0.1809
  483MOL0     O65118   2.863   8.268   8.484 -0.1613  0.3897  0.0912
  483MOL0     C65119   2.960   8.008   8.251 -0.2797 -0.6289 -0.3034
  483MOL0     C65120   2.918   7.929   8.144  0.4895 -0.2867 -0.4298
  483MOL0     N65121   2.740   7.464   7.608  0.2505  0.0973 -0.7689
  483MOL0     N65122   2.863   7.427   7.565  0.2649  0.2842 -0.8901
  483MOL0     C65123   3.969   7.230   7.865 -0.1894  1.2580 -0.2425
  483MOL0     C65124   4.046   7.342   7.882 -0.4046 -1.3243  1.0152
  483MOL0     C65125   4.340   7.674   7.863 -0.4210  0.6332 -0.0937
  483MOL0     C65126   4.280   7.799   7.842  0.3615 -0.7043 -0.2065
  483MOL0     C65127   4.365   7.923   7.855  0.3017  1.2705 -0.2495
  483MOL0     C65128   4.493   7.915   7.897 -0.1704  0.8127  0.1693
  483MOL0     O65129   4.562   8.022   7.938 -0.6384  0.0250 -0.0539
  483MOL0     C65130   4.572   8.130   7.857  0.1977  0.6055 -0.4025
  483MOL0     C65131   4.630   8.226   7.952  0.2876  1.2347  0.1425
  483MOL0     C65132   4.646   8.367   7.893 -0.2452  0.0802  0.7257
  483MOL0     C65133   4.773   8.363   7.809 -0.0326 -0.5567 -0.3328
  483MOL0     C65134   4.798   8.506   7.773  0.7586 -0.0456  0.0557
  483MOL0     C65135   4.805   8.624   7.749  1.1926 -0.0137 -0.0263
  483MOL0     C65136   4.543   7.792   7.921  0.5589 -0.2993  0.2026
  483MOL0     C65137   4.472   7.673   7.910  0.5067 -0.0769 -0.2090
  483MOL0     H65138   4.018   7.466   7.567 -1.1541 -1.7926 -1.8628
  483MOL0     H65139   3.859   7.272   7.553  1.5199 -0.3307 -1.7983
  483MOL0     H65140   3.732   6.928   7.755 -0.9196 -0.8232  1.9779
  483MOL0     H65141   3.850   6.977   7.880 -1.3810  1.2886  1.7121
  483MOL0     H65142   3.620   6.967   7.947 -1.3405 -0.1186  1.0860
  483MOL0     H65143   3.712   7.108   7.991  0.1055  3.2953 -1.4897
  483MOL0     H65144   3.600   7.225   7.793  0.4959 -0.6386  1.8904
  483MOL0     H65145   3.525   7.073   7.750  2.3212 -1.1809  0.0187
  483MOL0     H65146   3.388   7.059   7.945 -1.7010  0.4907  0.3816
  483MOL0     H65147   3.458   7.196   8.026  0.4184  0.5249  0.1942
  483MOL0     H65148   3.276   7.284   7.945 -0.1371 -2.0764  0.9912
  483MOL0     H65149   3.396   7.312   7.810  1.4618 -1.5415 -0.8501
  483MOL0     H65150   3.293   7.163   7.674  0.2873 -0.1406  0.5137
  483MOL0     H65151   3.206   7.075   7.807  1.9080 -0.7774  3.3391
  483MOL0     H65152   3.066   7.280   7.849 -2.0208  0.0023 -0.8616
  483MOL0     H65153   3.169   7.377   7.737  0.6328 -0.2170 -0.1826
  483MOL0     H65154   3.017   7.153   7.613 -1.7318  0.5543 -1.5199
  483MOL0     H65155   3.076   7.305   7.550 -1.8357  1.2581 -0.0588
  483MOL0     H65156   2.814   7.209   7.806 -1.0701 -0.7824 -0.6884
  483MOL0     H65157   2.510   7.453   7.790  0.9610  1.7820 -1.0427
  483MOL0     H65158   2.588   7.328   7.900  2.5401 -0.0877  0.1299
  483MOL0     H65159   2.760   7.534   7.904  0.7379 -1.5918 -1.1575
  483MOL0     H65160   2.638   7.521   8.031 -4.3358 -2.3663 -0.6565
  483MOL0     H65161   2.493   7.670   7.849  0.3521  1.6907 -0.7757
  483MOL0     H65162   2.643   7.705   7.789  1.0588  1.5456  1.3473
  483MOL0     H65163   2.595   7.738   8.089  1.8578  3.0492  1.0577
  483MOL0     H65164   2.565   7.868   7.968 -0.0788  1.0977  0.5783
  483MOL0     H65165   2.592   7.975   8.169 -0.1351 -1.9515 -1.2298
  483MOL0     H65166   2.645   8.143   8.461 -0.0532 -0.4557 -0.4037
  483MOL0     H65167   2.677   8.267   8.338 -0.9667  0.0548 -1.2364
  483MOL0     H65168   2.532   8.166   8.329 -0.8125  5.4284  1.2916
  483MOL0     H65169   3.093   8.007   8.721  0.3966  0.2566  1.4741
  483MOL0     H65170   3.230   8.140   8.913  0.6016  1.0120 -0.3514
  483MOL0     H65171   3.211   8.505   8.943 -1.1359  0.9167  1.3646
  483MOL0     H65172   3.230   8.367   9.044  0.0282 -1.0879 -1.3399
  483MOL0     H65173   3.313   8.548   9.152 -0.8290  1.2062 -1.3703
  483MOL0     H65174   3.425   8.417   9.135 -0.3641  0.0656  1.6732
  483MOL0     H65175   3.416   8.661   8.949 -0.0218 -0.6986 -2.1060
  483MOL0     H65176   3.512   8.540   8.902  2.1105  3.3658 -1.2341
  483MOL0     H65177   3.630   8.726   9.018  0.5104 -2.1566 -2.6573
  483MOL0     H65178   3.562   8.693   9.166  0.8152  2.9603 -2.9582
  483MOL0     H65179   3.665   8.446   9.129 -1.0796  0.0439  0.8971
  483MOL0     H65180   3.765   8.582   9.183 -0.9915 -0.4866  0.9843
  483MOL0     H65181   3.924   8.489   9.031  1.1020 -1.1028 -1.9195
  483MOL0     H65182   3.789   8.405   8.948 -0.6110  0.1973 -0.5382
  483MOL0     H65183   3.877   8.692   8.903  0.7985 -0.5879  1.8252
  483MOL0     H65184   3.727   8.616   8.852 -0.1913 -1.0174  2.1421
  483MOL0     H65185   3.942   8.622   8.681  0.9294 -0.2198 -1.0604
  483MOL0     H65186   3.838   8.476   8.691 -1.6753 -0.7373  2.0520
  483MOL0     H65187   3.265   8.469   8.642 -0.9900  0.1749  0.2854
  483MOL0     H65188   3.108   8.361   8.497  1.5647  1.7380  0.5783
  483MOL0     H65189   3.060   8.005   8.291 -0.0854 -0.0025 -0.7321
  483MOL0     H65190   2.992   7.873   8.087  0.6343 -1.1681  0.5879
  483MOL0     H65191   3.954   7.155   7.942  0.4667 -0.5095 -1.7493
  483MOL0     H65192   4.097   7.366   7.975 -1.1131 -0.5281  1.2189
  483MOL0     H65193   4.175   7.810   7.815 -0.1781 -1.8504  1.2906
  483MOL0     H65194   4.312   8.018   7.855 -0.6502  0.8195  2.4762
  483MOL0     H65195   4.635   8.110   7.770 -0.2692  0.7967 -0.7896
  483MOL0     H65196   4.485   8.177   7.810  0.1410 -1.9016 -3.0439
  483MOL0     H65197   4.721   8.177   7.989  0.8323  3.5947  2.2081
  483MOL0     H65198   4.562   8.222   8.038  1.5751 -4.4229  1.3168
  483MOL0     H65199   4.676   8.437   7.972 -0.9702  2.5783 -1.0943
  483MOL0     H65200   4.561   8.387   7.827  0.5818  0.9567 -0.1108
  483MOL0     H65201   4.753   8.313   7.714 -3.1533 -0.1265 -0.0144
  483MOL0     H65202   4.863   8.322   7.856 -1.6991 -0.5449  3.1950
  483MOL0     H65203   4.799   8.729   7.729 -4.3577 -0.2380 -1.1525
  483MOL0     H65204   4.648   7.789   7.946  1.1411  3.8982 -0.8710
  483MOL0     H65205   4.524   7.580   7.928 -0.0492 -0.2843  0.3491
  484MOL0     O65206   8.410   7.261   2.658  0.7854  0.0820 -0.3524
  484MOL0     C65207   8.456   7.364   2.609 -0.3192 -1.1788  1.0444
  484MOL0     O65208   8.411   7.431   2.492 -0.9197  0.3473 -0.4680
  484MOL0     C65209   8.300   7.394   2.411 -0.0070 -0.0827 -0.3492
  484MOL0     C65210   8.315   7.428   2.274  0.3731 -0.4017 -1.2062
  484MOL0     C65211   8.200   7.406   2.199 -0.6010  0.1301  0.8210
  484MOL0     C65212   8.083   7.352   2.246 -0.2058 -0.0804  0.7054
  484MOL0     O65213   7.986   7.329   2.151  0.3052  1.4295  0.9856
  484MOL0     C65214   7.858   7.273   2.197  0.1221  0.0205 -0.7334
  484MOL0     C65215   7.752   7.253   2.086 -0.0398 -1.0017 -0.4018
  484MOL0     C65216   7.673   7.377   2.061  0.0521 -0.6721  0.2718
  484MOL0     C65217   7.563   7.355   1.961  0.6252 -0.2491  0.0509
  484MOL0     C65218   7.491   7.485   1.913 -0.2475 -0.1973 -0.1852
  484MOL0     C65219   7.586   7.575   1.836 -0.4942 -0.9137 -0.2402
  484MOL0     C65220   7.523   7.711   1.803 -0.7479 -0.0043 -0.2284
  484MOL0     C65221   7.430   7.705   1.676 -0.8758 -0.5501  0.0010
  484MOL0     N65222   7.507   7.700   1.551 -0.5667  1.1445  0.2505
  484MOL0     C65223   7.548   7.815   1.478 -0.6833  0.9339 -0.2058
  484MOL0     C65224   7.615   7.760   1.378  0.4432  0.0176  0.9687
  484MOL0     C65225   7.706   7.840   1.272  0.1558  0.2271 -0.4935
  484MOL0     C65226   7.797   7.753   1.187  0.1106  0.4115 -0.0169
  484MOL0     C65227   7.830   7.821   1.052  0.4917 -0.8001 -0.5443
  484MOL0     C65228   7.712   7.834   0.951  1.1556  1.1050 -0.7186
  484MOL0     O65229   7.737   7.886   0.828  0.7107  0.4634  0.1523
  484MOL0     C65230   7.812   7.810   0.737  0.9437  0.1943 -0.3644
  484MOL0     C65231   7.834   7.676   0.745 -0.5855 -0.4193  0.6569
  484MOL0     C65232   7.901   7.616   0.638 -0.1579  0.6987 -0.2437
  484MOL0     C65233   7.919   7.469   0.640  0.3148 -0.2131 -0.6667
  484MOL0     C65234   7.958   7.695   0.538  0.1578  0.0515  1.0052
  484MOL0     C65235   8.047   7.637   0.425  0.6130 -0.4039 -0.9061
  484MOL0     O65236   8.148   7.714   0.375  0.5502  0.6261  0.3718
  484MOL0     C65237   8.261   7.648   0.326 -0.0630 -0.7548 -0.3203
  484MOL0     C65238   8.315   7.662   0.195 -0.5537 -1.3906  0.5453
  484MOL0     C65239   8.442   7.608   0.166  0.2835  0.6454 -0.3830
  484MOL0     C65240   8.511   7.546   0.268  0.5585  0.7172 -0.3689
  484MOL0     O65241   8.628   7.487   0.235 -0.9656  0.5178  0.7002
  484MOL0     C65242   8.719   7.453   0.338 -0.7682 -0.3010  0.1255
  484MOL0     C65243   8.861   7.443   0.290 -0.5173 -0.0111  0.3979
  484MOL0     C65244   8.880   7.344   0.175 -0.0680  0.7377 -0.4659
  484MOL0     C65245   8.816   7.209   0.206  0.3624 -0.8563  0.0498
  484MOL0     C65246   8.874   7.101   0.114 -0.4788  0.2971 -0.7625
  484MOL0     C65247   8.857   7.121  -0.033 -0.4477  0.0597  0.7159
  484MOL0     C65248   8.939   7.017  -0.109 -0.1053 -0.5346 -0.4408
  484MOL0     C65249   8.911   7.026  -0.255  0.2227  0.5649 -0.1988
  484MOL0    Cl65250   9.041   6.932  -0.353  0.3493 -0.0413 -0.0852
  484MOL0     C65251   8.466   7.542   0.402 -0.4171 -0.4731 -0.7061
  484MOL0     C65252   8.341   7.582   0.420 -0.3053  0.9178 -0.3544
  484MOL0     O65253   8.019   7.522   0.388 -0.3811  0.5278  0.9329
  484MOL0     C65254   7.921   7.832   0.530  1.1879 -0.0427  0.9132
  484MOL0     C65255   7.854   7.889   0.633  1.1202  0.3146  0.4629
  484MOL0     N65256   7.616   7.617   1.396 -0.0880 -0.1111  0.9096
  484MOL0     N65257   7.543   7.583   1.492  0.2625 -0.8864 -0.2344
  484MOL0     C65258   8.077   7.321   2.381  0.6062 -0.1074 -0.1335
  484MOL0     C65259   8.188   7.352   2.464  0.3551 -0.5333 -0.3094
  484MOL0     C65260   8.568   7.421   2.683 -0.3326 -0.1462 -0.1367
  484MOL0     C65261   8.622   7.549   2.645 -0.2394 -0.2189  0.2031
  484MOL0     C65262   8.724   7.612   2.712  0.0202  0.1475  2.0665
  484MOL0     C65263   8.782   7.561   2.825 -0.1540 -0.0603 -0.1548
  484MOL0     O65264   8.881   7.612   2.907 -0.3375  0.5154  0.1474
  484MOL0     C65265   8.931   7.734   2.866  0.5388  0.0647  0.0438
  484MOL0     C65266   9.058   7.762   2.948  0.0711 -1.0142  0.0649
  484MOL0     C65267   9.118   7.902   2.923 -0.1011  0.2559  0.6320
  484MOL0     C65268   9.216   7.950   3.035 -0.4422  0.5410  0.1985
  484MOL0     C65269   9.346   7.890   3.020  0.0230  0.9646 -0.0685
  484MOL0     C65270   9.445   7.822   3.015  0.1209 -0.7091  0.0389
  484MOL0     C65271   8.719   7.432   2.869  0.5236 -0.7175 -0.7188
  484MOL0     C65272   8.616   7.373   2.798 -0.3612  0.0534  0.3035
  484MOL0     H65273   8.404   7.473   2.230  0.6611  0.5513  0.2653
  484MOL0     H65274   8.205   7.410   2.091 -1.9624 -0.5714  0.7086
  484MOL0     H65275   7.868   7.179   2.252  1.9071  1.2359  1.1356
  484MOL0     H65276   7.802   7.336   2.266 -0.3733 -1.0019 -0.1682
  484MOL0     H65277   7.798   7.209   1.997  1.9521 -0.3968  0.2622
  484MOL0     H65278   7.682   7.180   2.127  1.5790 -1.4699  1.7166
  484MOL0     H65279   7.640   7.432   2.150  1.6830  0.5707  0.1642
  484MOL0     H65280   7.747   7.448   2.023  1.1281 -1.0246  1.6204
  484MOL0     H65281   7.597   7.293   1.877  0.4816 -0.1786 -0.0604
  484MOL0     H65282   7.490   7.289   2.009  1.9376 -0.5470  1.7202
  484MOL0     H65283   7.406   7.451   1.853  0.3693 -0.6202 -0.8370
  484MOL0     H65284   7.445   7.546   1.991  2.1149 -0.5545  1.6089
  484MOL0     H65285   7.684   7.594   1.881  0.1561  3.7060 -2.8883
  484MOL0     H65286   7.606   7.524   1.741 -0.7814  1.1370 -1.4686
  484MOL0     H65287   7.459   7.733   1.889 -0.7919 -0.0415 -0.2514
  484MOL0     H65288   7.603   7.786   1.794 -0.9905  0.2616 -0.1946
  484MOL0     H65289   7.368   7.792   1.653  1.8152  1.0089 -1.7793
  484MOL0     H65290   7.359   7.622   1.681 -0.2567 -1.2294 -1.7675
  484MOL0     H65291   7.549   7.922   1.500  0.7860  0.4336  2.7154
  484MOL0     H65292   7.646   7.902   1.204  0.3824  1.1518  0.1331
  484MOL0     H65293   7.762   7.907   1.337  0.7908 -0.9242  0.1883
  484MOL0     H65294   7.735   7.664   1.173 -2.3281  1.9886  0.2187
  484MOL0     H65295   7.878   7.703   1.240  0.9155 -0.3424 -1.8566
  484MOL0     H65296   7.913   7.768   1.003  3.2860 -0.2998  3.1802
  484MOL0     H65297   7.881   7.916   1.073 -0.4220 -0.4206  0.0012
  484MOL0     H65298   7.626   7.890   0.988 -0.1585 -1.4220  0.3412
  484MOL0     H65299   7.674   7.732   0.937  1.1684  1.1505 -1.0824
  484MOL0     H65300   7.799   7.612   0.826 -1.6539 -2.0129 -0.9884
  484MOL0     H65301   8.013   7.436   0.595 -0.7392 -3.4596 -0.7239
  484MOL0     H65302   7.921   7.431   0.742 -1.0604 -3.2696 -1.6512
  484MOL0     H65303   7.842   7.419   0.580 -2.4294  1.1370  1.4780
  484MOL0     H65304   8.261   7.727   0.127  2.3169 -1.6363 -2.2325
  484MOL0     H65305   8.490   7.613   0.069 -0.5523  3.2503 -0.7373
  484MOL0     H65306   8.722   7.534   0.412 -0.5747  0.2045 -0.4331
  484MOL0     H65307   8.681   7.361   0.384  0.2238 -1.4247 -1.2348
  484MOL0     H65308   8.891   7.537   0.243  0.4826 -0.0761  0.8839
  484MOL0     H65309   8.923   7.419   0.377  1.3992  1.5542 -0.4575
  484MOL0     H65310   8.988   7.341   0.159  0.1113 -1.8003  0.6693
  484MOL0     H65311   8.827   7.388   0.090 -1.0805  1.8394  0.6898
  484MOL0     H65312   8.827   7.191   0.314 -2.8130 -2.6620  0.2129
  484MOL0     H65313   8.707   7.208   0.198 -0.1261  3.4249  2.7560
  484MOL0     H65314   8.841   7.001   0.143 -0.1077 -1.3416 -5.2592
  484MOL0     H65315   8.982   7.107   0.128 -0.4032 -1.9355 -0.0409
  484MOL0     H65316   8.750   7.114  -0.059  0.3066  1.8806 -3.8010
  484MOL0     H65317   8.900   7.219  -0.052 -2.9706  1.2272  0.5848
  484MOL0     H65318   8.914   6.916  -0.076 -2.6237 -0.9274 -3.1914
  484MOL0     H65319   9.045   7.038  -0.092 -0.1098  0.2043 -1.2400
  484MOL0     H65320   8.911   7.131  -0.285 -0.8810  0.2129 -1.5126
  484MOL0     H65321   8.813   6.987  -0.284 -0.2321  3.1388 -2.4539
  484MOL0     H65322   8.522   7.508   0.488  1.2518  0.6355 -1.3097
  484MOL0     H65323   8.307   7.563   0.521 -0.3410 -2.2969 -0.8752
  484MOL0     H65324   7.933   7.889   0.438  1.6050  0.9654  1.5884
  484MOL0     H65325   7.816   7.990   0.619  2.7984  1.0882  1.2340
  484MOL0     H65326   7.986   7.276   2.420  1.2802  0.1378  1.8199
  484MOL0     H65327   8.172   7.348   2.571  1.0539 -1.3373 -0.2243
  484MOL0     H65328   8.581   7.603   2.561  0.8554 -0.4721 -0.5161
  484MOL0     H65329   8.751   7.710   2.673 -2.1472 -1.2244 -3.9178
  484MOL0     H65330   8.956   7.729   2.759 -2.5179  0.3600 -0.7865
  484MOL0     H65331   8.866   7.819   2.887  1.4415  1.2031 -1.4861
  484MOL0     H65332   9.139   7.691   2.928  2.1529  0.6441  2.1087
  484MOL0     H65333   9.027   7.750   3.052 -0.0420  1.0905  0.3104
  484MOL0     H65334   9.041   7.979   2.917 -0.3175 -0.0259 -0.3390
  484MOL0     H65335   9.171   7.899   2.827 -0.4785 -1.6625  0.4500
  484MOL0     H65336   9.175   7.945   3.136 -0.3327  2.3474  0.3691
  484MOL0     H65337   9.230   8.057   3.017  1.3048  0.2434 -0.3624
  484MOL0     H65338   9.536   7.766   3.019  2.7971  3.2406  3.7539
  484MOL0     H65339   8.737   7.403   2.972 -0.2455 -3.0719 -1.1889
  484MOL0     H65340   8.570   7.285   2.842 -0.1263  0.0265  0.4968
  485MOL0     O65341   8.014   3.000  10.321  0.1324 -0.5046 -0.3135
  485MOL0     C65342   7.929   2.941  10.261  0.3201  1.3242 -0.0989
  485MOL0     O65343   7.927   2.917  10.132  0.2889  0.2871  0.6232
  485MOL0     C65344   8.022   2.985  10.063 -0.0208  0.3238 -0.6148
  485MOL0     C65345   8.145   2.921  10.045 -0.4483 -0.4247  0.0603
  485MOL0     C65346   8.247   2.993   9.981 -1.2559 -0.1337  0.4332
  485MOL0     C65347   8.222   3.120   9.936  0.5699  1.2913  0.0765
  485MOL0     O65348   8.315   3.162   9.845  0.6002  0.1045 -0.5021
  485MOL0     C65349   8.422   3.238   9.900  0.1332  0.7107 -0.7492
  485MOL0     C65350   8.362   3.371   9.949  0.2112 -0.1622  0.0743
  485MOL0     C65351   8.468   3.469  10.000 -0.1629  0.7522 -0.7232
  485MOL0     C65352   8.439   3.609   9.954  0.1125 -0.8073  1.5828
  485MOL0     C65353   8.514   3.727  10.012 -0.6896 -0.0376 -0.1720
  485MOL0     C65354   8.478   3.854   9.924  0.2305  0.3019 -0.2518
  485MOL0     C65355   8.525   3.981   9.973  0.0474 -1.1279 -0.3344
  485MOL0     C65356   8.458   4.026  10.109  0.0603 -0.1352 -0.6495
  485MOL0     N65357   8.500   4.167  10.140  0.1422  0.1634  0.0569
  485MOL0     C65358   8.601   4.200  10.232  0.0069 -0.1500 -0.5607
  485MOL0     C65359   8.613   4.333  10.214  0.7312 -0.5677  0.0548
  485MOL0     C65360   8.714   4.428  10.282  0.1881 -0.4606 -0.1575
  485MOL0     C65361   8.819   4.483  10.177  0.3886 -0.6175  0.2218
  485MOL0     C65362   8.918   4.374  10.135 -0.0240  0.9431 -0.6794
  485MOL0     C65363   9.019   4.420  10.031 -0.1314 -1.2546  0.1896
  485MOL0     O65364   9.073   4.547  10.070  0.3859  0.0878  0.2620
  485MOL0     C65365   9.171   4.552  10.161 -0.0706 -0.0432 -0.7587
  485MOL0     C65366   9.230   4.439  10.216 -0.3175 -0.3141  0.2992
  485MOL0     C65367   9.309   4.454  10.335  0.5794  0.1835  0.6875
  485MOL0     C65368   9.372   4.321  10.388 -0.0953 -0.5973  1.0995
  485MOL0     C65369   9.332   4.581  10.395  0.0313 -0.5330  0.3206
  485MOL0     C65370   9.402   4.605  10.528 -0.6933 -0.9510  0.9175
  485MOL0     O65371   9.457   4.497  10.582  0.7942 -0.2656 -0.6121
  485MOL0     C65372   9.517   4.516  10.702 -0.5268 -0.6527 -0.1298
  485MOL0     C65373   9.626   4.605  10.721 -0.3657 -0.0197 -0.8040
  485MOL0     C65374   9.695   4.599  10.849 -0.5792 -0.8115  0.5640
  485MOL0     C65375   9.681   4.506  10.947  0.5193 -0.0412 -0.5170
  485MOL0     O65376   9.763   4.512  11.060  0.2919 -0.4569  0.4050
  485MOL0     C65377   9.779   4.389  11.126 -0.1725 -0.1859 -0.2805
  485MOL0     C65378   9.672   4.377  11.235 -0.8612 -0.3065 -0.0325
  485MOL0     C65379   9.728   4.352  11.379  0.4328 -0.5464 -0.0675
  485MOL0     C65380   9.757   4.492  11.449 -1.0296 -0.4697  0.6523
  485MOL0     C65381   9.791   4.460  11.597  0.2543 -0.4422  0.2242
  485MOL0     C65382   9.775   4.576  11.695 -0.4262  0.0328  1.5045
  485MOL0     C65383   9.767   4.521  11.832  0.1776 -0.0318 -0.9873
  485MOL0     C65384   9.627   4.481  11.875 -0.8827  0.1094  0.7206
  485MOL0    Cl65385   9.632   4.320  11.951  0.1190  0.3152  0.3225
  485MOL0     C65386   9.565   4.431  10.933 -0.4574  0.9179  1.2416
  485MOL0     C65387   9.490   4.429  10.817 -0.4358 -0.1646  0.8349
  485MOL0     O65388   9.404   4.721  10.572 -0.8918  0.2441  0.5306
  485MOL0     C65389   9.283   4.696  10.320  0.4591  0.9749 -0.3148
  485MOL0     C65390   9.207   4.673  10.207 -0.0404  0.1477  0.3034
  485MOL0     N65391   8.507   4.381  10.132  0.4224 -0.5627  0.1839
  485MOL0     N65392   8.442   4.276  10.084  0.1541  0.3360  0.0507
  485MOL0     C65393   8.099   3.178   9.956 -0.1147  0.3095 -0.2791
  485MOL0     C65394   7.996   3.113  10.015 -0.1642  0.2746  0.5181
  485MOL0     C65395   7.807   2.898  10.331  0.0538 -0.2207 -0.6763
  485MOL0     C65396   7.802   2.873  10.468  0.5463 -0.6021 -0.0591
  485MOL0     C65397   7.677   2.830  10.524  0.0894  0.0992 -0.1902
  485MOL0     C65398   7.573   2.787  10.449  0.6072  0.3322 -0.6594
  485MOL0     O65399   7.462   2.729  10.513 -0.3979  0.2584  0.4348
  485MOL0     C65400   7.337   2.714  10.443  0.0441 -0.6781  0.8148
  485MOL0     C65401   7.245   2.636  10.541  0.3204  0.0393 -0.4427
  485MOL0     C65402   7.228   2.715  10.666  0.0080  0.1623  0.3449
  485MOL0     C65403   7.146   2.649  10.775  0.2214 -0.6657  0.3151
  485MOL0     C65404   7.195   2.685  10.912 -0.2567  0.2430  0.3258
  485MOL0     C65405   7.224   2.709  11.030  0.7771  0.9595 -0.2400
  485MOL0     C65406   7.587   2.803  10.306  0.5532 -0.4885  0.2710
  485MOL0     C65407   7.697   2.853  10.249 -0.0811 -0.0165  0.1322
  485MOL0     H65408   8.173   2.828  10.093  0.9121 -0.0532  0.0344
  485MOL0     H65409   8.350   2.958   9.975 -0.7639  0.9548  1.8577
  485MOL0     H65410   8.479   3.189   9.980 -3.3412 -0.4330  1.2643
  485MOL0     H65411   8.492   3.255   9.818 -2.6643  2.2699 -3.0097
  485MOL0     H65412   8.315   3.412   9.859 -0.3468 -0.2546  0.3194
  485MOL0     H65413   8.279   3.369  10.020 -1.3986 -0.0527 -1.7079
  485MOL0     H65414   8.472   3.471  10.109 -2.4985  4.3043 -0.5461
  485MOL0     H65415   8.566   3.436   9.963  0.8043  0.6086  1.7406
  485MOL0     H65416   8.475   3.594   9.851  2.9745 -0.7662  2.4999
  485MOL0     H65417   8.332   3.633   9.961  0.3377  0.9241 -0.0223
  485MOL0     H65418   8.473   3.749  10.110 -3.2502  2.4946 -1.6712
  485MOL0     H65419   8.621   3.708  10.021 -0.1020  2.9851  0.1466
  485MOL0     H65420   8.538   3.839   9.834  3.8777  1.2129  1.8576
  485MOL0     H65421   8.371   3.868   9.901 -0.1101 -0.3784  0.8302
  485MOL0     H65422   8.630   3.965   9.998 -0.2130 -2.3742  0.0652
  485MOL0     H65423   8.519   4.069   9.908  1.3803 -1.3525 -0.7877
  485MOL0     H65424   8.477   3.958  10.193  0.2290 -1.1144 -1.4542
  485MOL0     H65425   8.350   4.024  10.092  0.1976  0.4888 -1.6462
  485MOL0     H65426   8.650   4.132  10.301  1.8033  2.0234  0.4204
  485MOL0     H65427   8.645   4.505  10.317  0.2656 -0.9077  1.0191
  485MOL0     H65428   8.749   4.367  10.366 -0.4977 -0.8072 -0.1174
  485MOL0     H65429   8.882   4.564  10.213  0.6635 -1.5102  1.8109
  485MOL0     H65430   8.759   4.504  10.087  1.2806 -2.4536 -0.8703
  485MOL0     H65431   8.864   4.282  10.115  0.2221  0.7044 -0.2566
  485MOL0     H65432   8.985   4.358  10.220  2.1076  2.1314 -2.0498
  485MOL0     H65433   8.960   4.428   9.939  1.5696  1.5213 -0.7891
  485MOL0     H65434   9.096   4.345  10.011 -0.1013 -1.2854  0.4221
  485MOL0     H65435   9.209   4.342  10.172 -1.3141 -0.0919  0.2666
  485MOL0     H65436   9.339   4.231  10.336 -1.9417  0.8152 -0.2918
  485MOL0     H65437   9.479   4.325  10.365 -0.0574 -0.7353  1.2451
  485MOL0     H65438   9.361   4.300  10.495  4.6362 -0.7064  1.8085
  485MOL0     H65439   9.653   4.678  10.645 -1.7431 -0.4715 -1.7608
  485MOL0     H65440   9.772   4.674  10.861  0.2672 -1.1266 -2.1798
  485MOL0     H65441   9.800   4.310  11.053  1.9775  2.7667 -3.1384
  485MOL0     H65442   9.878   4.405  11.171  1.0431  1.8177 -3.3427
  485MOL0     H65443   9.603   4.462  11.241 -2.2503 -1.4842  2.0238
  485MOL0     H65444   9.623   4.286  11.198  0.3379 -0.5790 -1.0168
  485MOL0     H65445   9.821   4.295  11.371  1.5335  1.1995 -0.3381
  485MOL0     H65446   9.654   4.291  11.431  0.3280  0.3078  0.8139
  485MOL0     H65447   9.835   4.556  11.406 -0.0865 -1.9664  0.0555
  485MOL0     H65448   9.661   4.544  11.454 -0.0708  1.3761  0.8272
  485MOL0     H65449   9.884   4.404  11.608 -0.7511 -2.3838 -0.5846
  485MOL0     H65450   9.706   4.399  11.632  0.2535  0.3821  1.7276
  485MOL0     H65451   9.865   4.638  11.692  0.6691 -1.3099 -3.8274
  485MOL0     H65452   9.682   4.631  11.682  0.7940  1.9777  0.6790
  485MOL0     H65453   9.802   4.596  11.903  0.2574 -0.8727 -0.1222
  485MOL0     H65454   9.833   4.435  11.840 -0.1519 -0.2821 -0.9452
  485MOL0     H65455   9.560   4.474  11.789  0.4986  1.7226 -0.5710
  485MOL0     H65456   9.591   4.557  11.945 -3.2561 -1.0084  0.7986
  485MOL0     H65457   9.534   4.361  11.010  0.7373 -0.8296  0.2050
  485MOL0     H65458   9.421   4.346  10.805 -1.1460  0.2387  1.9293
  485MOL0     H65459   9.299   4.800  10.350 -1.2864  1.3280 -0.5138
  485MOL0     H65460   9.163   4.761  10.161  1.3135 -0.6436 -2.7154
  485MOL0     H65461   8.074   3.275   9.915 -0.2643  0.0308 -0.8646
  485MOL0     H65462   7.902   3.160  10.041 -0.9846 -0.4598 -1.0240
  485MOL0     H65463   7.889   2.886  10.531 -0.9437 -0.6894  2.1356
  485MOL0     H65464   7.676   2.819  10.632 -0.0156  0.7317 -0.1222
  485MOL0     H65465   7.288   2.805  10.408  1.5450 -0.9404 -2.3194
  485MOL0     H65466   7.333   2.648  10.356 -2.1347  0.3452  0.0801
  485MOL0     H65467   7.283   2.533  10.545  0.8884  0.2799  0.8914
  485MOL0     H65468   7.148   2.632  10.492  0.7220  0.3756 -1.2899
  485MOL0     H65469   7.180   2.812  10.646 -0.4137  0.5384  2.7558
  485MOL0     H65470   7.326   2.740  10.707  0.5906  0.9645 -1.4645
  485MOL0     H65471   7.160   2.543  10.750  1.3743 -0.1340 -1.4779
  485MOL0     H65472   7.041   2.680  10.772  0.7266  1.1283  0.2241
  485MOL0     H65473   7.248   2.711  11.134  0.1124  1.2193 -0.0874
  485MOL0     H65474   7.513   2.759  10.240  0.6731  0.9333 -0.8513
  485MOL0     H65475   7.688   2.840  10.142  0.3242  1.8876 -0.1724
  486MOL0     O65476   7.237  10.103   0.574  0.3670 -0.3233 -0.2615
  486MOL0     C65477   7.166  10.203   0.577 -0.2164  0.2687 -0.0554
  486MOL0     O65478   7.207  10.338   0.555 -0.3453 -0.0711 -0.0768
  486MOL0     C65479   7.331  10.367   0.496 -0.0201  0.5417 -0.1517
  486MOL0     C65480   7.344  10.338   0.365  0.2706  0.8132  0.0985
  486MOL0     C65481   7.469  10.346   0.302 -0.0576  0.0409 -0.2294
  486MOL0     C65482   7.576  10.385   0.376 -0.3066 -0.4140  0.2103
  486MOL0     O65483   7.705  10.385   0.321  0.8527 -0.4331 -0.3385
  486MOL0     C65484   7.739  10.269   0.249 -0.1084  0.4754  0.6935
  486MOL0     C65485   7.886  10.268   0.241  0.0208 -0.5973 -1.0477
  486MOL0     C65486   7.952  10.146   0.171 -0.2331  0.1222 -0.4783
  486MOL0     C65487   7.936  10.020   0.253 -0.0743  0.1482  0.5941
  486MOL0     C65488   7.972   9.896   0.164 -0.3002  0.4786 -0.0034
  486MOL0     C65489   7.904   9.766   0.227 -1.4096 -0.9523  1.5335
  486MOL0     C65490   7.917   9.638   0.153 -0.1164  0.4327  0.3840
  486MOL0     C65491   7.823   9.529   0.199  1.1681  0.3273  0.2533
  486MOL0     N65492   7.825   9.409   0.117  0.4653  0.5763  0.5529
  486MOL0     C65493   7.712   9.339   0.080 -0.6447  0.2201  0.2503
  486MOL0     C65494   7.754   9.233   0.003  0.2402  0.2980  0.1602
  486MOL0     C65495   7.692   9.115  -0.069 -0.4313 -0.0148 -0.5155
  486MOL0     C65496   7.531   9.130  -0.084 -1.2741 -0.1660  0.4617
  486MOL0     C65497   7.493   9.246  -0.176  0.3534  0.0977  0.4463
  486MOL0     C65498   7.341   9.288  -0.180  0.0064 -0.5902 -0.0424
  486MOL0     O65499   7.296   9.314  -0.046 -0.2576 -0.5550  0.6356
  486MOL0     C65500   7.345   9.428   0.010 -0.0101 -0.3922  0.3905
  486MOL0     C65501   7.390   9.538  -0.060  0.9881  0.2764  0.7651
  486MOL0     C65502   7.411   9.663   0.007 -0.2028  0.6021  0.8666
  486MOL0     C65503   7.425   9.788  -0.082  0.6095  0.5971 -0.5734
  486MOL0     C65504   7.428   9.663   0.144 -1.2629  0.1310 -0.0408
  486MOL0     C65505   7.495   9.773   0.229  0.1360  0.9028  0.8428
  486MOL0     O65506   7.507   9.747   0.360 -0.9500 -0.6989 -0.3211
  486MOL0     C65507   7.577   9.852   0.427  0.2228 -0.8390 -0.5813
  486MOL0     C65508   7.514   9.979   0.464  0.3660 -0.4286  0.6376
  486MOL0     C65509   7.581  10.058   0.566 -0.4581  0.8641  0.2045
  486MOL0     C65510   7.706  10.023   0.621 -0.4595 -1.1091  0.2492
  486MOL0     O65511   7.760  10.097   0.724  0.2548  0.0816 -0.1829
  486MOL0     C65512   7.835  10.209   0.692 -0.2399 -0.1555  0.0652
  486MOL0     C65513   7.945  10.233   0.793 -0.4194 -1.1756  0.4494
  486MOL0     C65514   7.901  10.276   0.930  1.3468  0.2765 -0.3732
  486MOL0     C65515   7.842  10.424   0.916 -0.3396  0.1830  0.4418
  486MOL0     C65516   7.827  10.501   1.056 -0.7393  0.0383  0.5373
  486MOL0     C65517   7.758  10.631   1.037 -0.5083 -0.1778 -0.4231
  486MOL0     C65518   7.840  10.736   0.968  0.2630  1.0803  0.0191
  486MOL0     C65519   7.771  10.869   0.970 -0.0366  0.2517  1.1054
  486MOL0    Cl65520   7.791  10.954   1.118 -0.3119  0.4116 -0.4269
  486MOL0     C65521   7.762   9.902   0.588  0.7894 -0.5040 -1.1735
  486MOL0     C65522   7.693   9.818   0.492  0.0934  0.8582 -0.1364
  486MOL0     O65523   7.543   9.867   0.163  0.8537 -0.5749 -0.3161
  486MOL0     C65524   7.400   9.544   0.211 -0.1713 -0.8659 -1.0761
  486MOL0     C65525   7.354   9.429   0.149 -0.3256  0.4104 -0.2463
  486MOL0     N65526   7.888   9.243   0.002  0.5653  0.8372  0.3494
  486MOL0     N65527   7.938   9.341   0.074  0.0879  1.2468 -0.5723
  486MOL0     C65528   7.549  10.445   0.499  0.2658  1.0086  0.1994
  486MOL0     C65529   7.429  10.432   0.565 -0.5307  0.7452  0.2265
  486MOL0     C65530   7.030  10.178   0.637  0.1385 -0.7518  0.2734
  486MOL0     C65531   6.944  10.287   0.659 -0.2945  0.5421  0.4454
  486MOL0     C65532   6.810  10.269   0.709 -1.0214 -0.8995  0.8231
  486MOL0     C65533   6.767  10.141   0.744 -0.7026 -0.8082 -0.3777
  486MOL0     O65534   6.651  10.130   0.816  0.8702  0.3210 -0.7149
  486MOL0     C65535   6.604  10.008   0.877 -0.1039  0.6210  0.9294
  486MOL0     C65536   6.533   9.913   0.783 -0.4532 -1.0604 -0.2005
  486MOL0     C65537   6.503   9.774   0.863  0.3365  1.2800  0.1447
  486MOL0     C65538   6.625   9.678   0.892  0.0887  0.1500  0.8535
  486MOL0     C65539   6.702   9.714   1.012 -0.4327 -0.4953 -0.3687
  486MOL0     C65540   6.775   9.734   1.105  0.7635  1.0914 -0.8127
  486MOL0     C65541   6.855  10.033   0.728 -0.2512  0.7087  0.1548
  486MOL0     C65542   6.982  10.051   0.667  1.0345  0.4306 -0.2109
  486MOL0     H65543   7.254  10.309   0.313 -2.0934  4.3703  1.7597
  486MOL0     H65544   7.497  10.330   0.199  3.8193  0.4069  0.6239
  486MOL0     H65545   7.720  10.180   0.310  0.5020  1.5456  2.5363
  486MOL0     H65546   7.702  10.286   0.148  1.5341 -0.3280 -0.0829
  486MOL0     H65547   7.924  10.361   0.197 -0.5197  2.4062  4.0001
  486MOL0     H65548   7.905  10.269   0.349 -2.4694 -0.3385 -0.5540
  486MOL0     H65549   7.906  10.145   0.072 -1.4555  0.0242  0.0672
  486MOL0     H65550   8.061  10.153   0.164 -0.0279 -0.6505  1.2870
  486MOL0     H65551   7.996  10.014   0.344 -0.8714 -0.6275  1.0799
  486MOL0     H65552   7.829  10.012   0.276 -0.2484  1.1217  0.1741
  486MOL0     H65553   7.943   9.912   0.060  2.8504 -2.5751 -1.5448
  486MOL0     H65554   8.080   9.879   0.167  0.0910  1.8013 -3.1301
  486MOL0     H65555   7.937   9.747   0.329  2.3843 -0.3173  0.5856
  486MOL0     H65556   7.798   9.793   0.219 -0.6839  1.9609 -3.8863
  486MOL0     H65557   7.892   9.674   0.052 -0.7888 -3.5172 -1.0306
  486MOL0     H65558   8.017   9.594   0.155 -0.8343 -1.2678  0.7968
  486MOL0     H65559   7.716   9.550   0.201  0.9412 -0.8091  0.5242
  486MOL0     H65560   7.849   9.496   0.300  3.1228  3.2545  0.8229
  486MOL0     H65561   7.608   9.357   0.105 -0.5979  0.2585  0.4145
  486MOL0     H65562   7.741   9.117  -0.166  1.6616  0.9424  0.5081
  486MOL0     H65563   7.712   9.018  -0.022  2.1121  0.0571 -1.3299
  486MOL0     H65564   7.484   9.146   0.014 -0.9828  4.2694  0.0645
  486MOL0     H65565   7.499   9.037  -0.131 -0.0089  0.2719 -1.3578
  486MOL0     H65566   7.506   9.230  -0.284 -3.1438  1.4145 -0.2906
  486MOL0     H65567   7.559   9.326  -0.139  2.4743 -0.1802 -2.3431
  486MOL0     H65568   7.284   9.205  -0.223 -0.9068 -0.5645  1.0442
  486MOL0     H65569   7.333   9.378  -0.242  0.0163  0.1600  1.0169
  486MOL0     H65570   7.377   9.535  -0.168 -0.4046 -2.0556  0.9264
  486MOL0     H65571   7.388   9.882  -0.040 -0.3200 -0.1620  0.3807
  486MOL0     H65572   7.533   9.802  -0.087  0.7001 -0.3311 -3.8723
  486MOL0     H65573   7.389   9.771  -0.184 -0.4723  1.2817 -0.3224
  486MOL0     H65574   7.415  10.010   0.432  0.6885  1.3579  1.2247
  486MOL0     H65575   7.535  10.151   0.597 -1.6869  0.4776 -0.3793
  486MOL0     H65576   7.881  10.172   0.599  0.1403 -1.5489  0.7845
  486MOL0     H65577   7.781  10.303   0.674 -2.5192 -1.4559 -0.2787
  486MOL0     H65578   7.994  10.135   0.798  1.0365 -0.5309 -0.3628
  486MOL0     H65579   8.015  10.306   0.751 -0.8457 -0.3482  1.1537
  486MOL0     H65580   7.995  10.274   0.986  1.0705  0.4213  0.0971
  486MOL0     H65581   7.821  10.213   0.970 -0.5707 -0.4281 -4.6962
  486MOL0     H65582   7.906  10.474   0.843 -0.4286 -1.6524 -0.9704
  486MOL0     H65583   7.745  10.415   0.867  0.4240 -1.7114 -0.8193
  486MOL0     H65584   7.932  10.516   1.082 -1.6044  2.6624  2.9813
  486MOL0     H65585   7.776  10.444   1.134 -0.7008 -1.9253 -0.8002
  486MOL0     H65586   7.655  10.622   1.000 -0.7903 -1.5846  0.6247
  486MOL0     H65587   7.745  10.671   1.138 -2.2211  2.1662 -1.4754
  486MOL0     H65588   7.842  10.707   0.863 -1.0252  0.7509  0.0645
  486MOL0     H65589   7.941  10.738   1.010 -0.0551  1.4964  0.7788
  486MOL0     H65590   7.664  10.859   0.951 -0.0748 -0.2359  1.5706
  486MOL0     H65591   7.811  10.935   0.892 -0.5121 -2.3702 -1.5311
  486MOL0     H65592   7.857   9.875   0.632  0.8779 -0.3493 -1.2718
  486MOL0     H65593   7.745   9.726   0.469 -1.7261 -0.1842 -0.2607
  486MOL0     H65594   7.406   9.538   0.319  0.4662 -0.0798 -1.0532
  486MOL0     H65595   7.353   9.342   0.214 -1.4125  3.6004  4.5369
  486MOL0     H65596   7.634  10.491   0.549  1.1215  0.4416 -0.6783
  486MOL0     H65597   7.419  10.457   0.670  0.8038  2.8306 -0.0757
  486MOL0     H65598   6.968  10.389   0.630  3.3886  0.5685  2.8649
  486MOL0     H65599   6.750  10.358   0.720 -1.2356 -0.9850  0.3777
  486MOL0     H65600   6.694   9.960   0.915  0.8827  1.3038 -0.4438
  486MOL0     H65601   6.534  10.029   0.958  1.1279  3.0893  1.4496
  486MOL0     H65602   6.595   9.876   0.701 -0.6449  1.7235 -1.7044
  486MOL0     H65603   6.460   9.967   0.723 -1.7812 -2.6545 -0.0869
  486MOL0     H65604   6.428   9.725   0.801  1.1697 -0.2628  0.3024
  486MOL0     H65605   6.453   9.802   0.956  0.0789  0.9174  0.1170
  486MOL0     H65606   6.693   9.670   0.806 -4.5940 -2.0527 -3.1411
  486MOL0     H65607   6.576   9.581   0.901  1.3934 -0.4568  1.7385
  486MOL0     H65608   6.828   9.754   1.196  0.2406  2.2511 -0.7449
  486MOL0     H65609   6.814   9.937   0.760  2.9092 -0.4011  1.2486
  486MOL0     H65610   7.045   9.962   0.668 -1.3402 -1.3628 -0.9039
  487MOL0     O65611   4.949   4.999   9.434 -1.3013 -0.3778 -0.9740
  487MOL0     C65612   4.998   4.955   9.329  0.3178  1.2627 -0.1317
  487MOL0     O65613   4.952   4.984   9.201 -0.3393  0.6623  0.5098
  487MOL0     C65614   4.830   5.048   9.176 -0.1207  0.5364  0.3019
  487MOL0     C65615   4.823   5.186   9.161 -0.9441 -0.0976 -0.1557
  487MOL0     C65616   4.696   5.244   9.127  0.5067  0.1674 -0.2699
  487MOL0     C65617   4.575   5.176   9.134 -0.3575  0.7313  0.6124
  487MOL0     O65618   4.454   5.232   9.138  0.0389 -0.1366 -0.1840
  487MOL0     C65619   4.437   5.360   9.063  0.0707  0.1282 -0.2133
  487MOL0     C65620   4.286   5.371   9.025  1.0924  0.1283 -0.1137
  487MOL0     C65621   4.229   5.255   8.937 -0.6016  0.5062  0.6224
  487MOL0     C65622   4.198   5.306   8.798  0.1033 -1.5025  0.5268
  487MOL0     C65623   4.110   5.224   8.698  0.4644 -0.7793  0.0529
  487MOL0     C65624   3.951   5.222   8.731  1.2618  0.2866 -0.0233
  487MOL0     C65625   3.861   5.137   8.639  0.2262  0.3309 -0.3515
  487MOL0     C65626   3.781   5.222   8.536 -0.5024  0.8530  0.2724
  487MOL0     N65627   3.868   5.301   8.450 -0.3908 -0.5468  0.7024
  487MOL0     C65628   3.974   5.260   8.371  1.1102  0.4910  1.1651
  487MOL0     C65629   4.025   5.376   8.328  0.1763 -1.4361  0.0591
  487MOL0     C65630   4.142   5.380   8.230 -0.1192  0.0702 -0.1056
  487MOL0     C65631   4.103   5.421   8.085 -0.8989 -0.8126  0.3053
  487MOL0     C65632   4.227   5.441   8.008 -0.0129 -0.2010  1.4483
  487MOL0     C65633   4.195   5.458   7.852 -0.5663 -0.2598 -0.0420
  487MOL0     O65634   4.319   5.484   7.790 -1.3007  0.2593  0.0155
  487MOL0     C65635   4.316   5.514   7.653  0.0540 -0.2583 -0.4391
  487MOL0     C65636   4.433   5.487   7.586 -0.5921  0.3381 -0.2412
  487MOL0     C65637   4.445   5.516   7.450  0.2696  0.5352  0.1665
  487MOL0     C65638   4.580   5.470   7.384 -0.3640  0.2430  1.0351
  487MOL0     C65639   4.340   5.588   7.375 -1.5335 -0.3228 -0.7688
  487MOL0     C65640   4.357   5.629   7.235  0.0504  0.0155 -0.7717
  487MOL0     O65641   4.278   5.728   7.196  0.2683  0.4871 -0.2143
  487MOL0     C65642   4.293   5.775   7.070  0.9479  0.0658 -0.1739
  487MOL0     C65643   4.318   5.904   7.054  0.2248 -0.1788 -1.2316
  487MOL0     C65644   4.310   5.964   6.927  0.4793 -0.3385  0.3433
  487MOL0     C65645   4.264   5.890   6.812  0.7068  0.6234  0.1915
  487MOL0     O65646   4.248   5.939   6.686  0.0003 -0.9117  0.1569
  487MOL0     C65647   4.267   6.077   6.669  0.0539 -0.6702 -0.3087
  487MOL0     C65648   4.144   6.155   6.721  0.7774  0.1499  0.9920
  487MOL0     C65649   4.126   6.288   6.649 -0.7645  0.3279  0.6105
  487MOL0     C65650   4.070   6.389   6.759  0.3002 -0.0317  1.0141
  487MOL0     C65651   4.171   6.464   6.844 -0.6491 -0.3613  0.0236
  487MOL0     C65652   4.227   6.376   6.953  0.0615  0.3747 -0.5008
  487MOL0     C65653   4.338   6.444   7.034  0.0161  0.0305  0.5151
  487MOL0     C65654   4.370   6.389   7.174 -0.1944 -0.3961 -0.2820
  487MOL0    Cl65655   4.422   6.223   7.166  0.4286  0.2508  0.0333
  487MOL0     C65656   4.230   5.760   6.830  0.4394  0.1001  0.5634
  487MOL0     C65657   4.231   5.704   6.959 -0.9626 -0.6230 -0.7004
  487MOL0     O65658   4.438   5.577   7.166 -1.0065 -0.2381 -0.4728
  487MOL0     C65659   4.229   5.626   7.452 -0.7283 -1.1755  1.0587
  487MOL0     C65660   4.212   5.580   7.581 -0.0285  0.7254  0.2007
  487MOL0     N65661   3.961   5.479   8.384 -0.1744  0.1201  0.1454
  487MOL0     N65662   3.861   5.439   8.450  1.0391  0.6429  0.4121
  487MOL0     C65663   4.581   5.039   9.171 -0.2299  0.0610 -0.9393
  487MOL0     C65664   4.704   4.978   9.187 -0.0989 -0.2199 -0.4044
  487MOL0     C65665   5.125   4.875   9.339  0.3901  0.4984 -0.9430
  487MOL0     C65666   5.174   4.795   9.237 -0.5899  0.1840  0.0990
  487MOL0     C65667   5.293   4.721   9.254 -0.7873 -0.4835  0.1311
  487MOL0     C65668   5.352   4.717   9.382  0.3821 -0.0792 -0.4663
  487MOL0     O65669   5.449   4.628   9.411 -0.3950 -0.0712 -0.4746
  487MOL0     C65670   5.534   4.590   9.308 -0.4731  0.2962 -0.8933
  487MOL0     C65671   5.666   4.543   9.369 -0.2147  0.4887 -0.4130
  487MOL0     C65672   5.651   4.423   9.469  0.6364  0.7293 -0.7972
  487MOL0     C65673   5.782   4.363   9.497 -0.0008  0.1444  0.0616
  487MOL0     C65674   5.827   4.277   9.390 -1.1931  1.1755 -1.0520
  487MOL0     C65675   5.879   4.207   9.306 -0.0466  0.0065  0.5575
  487MOL0     C65676   5.302   4.803   9.489 -0.1148 -0.0795  0.3189
  487MOL0     C65677   5.185   4.873   9.464  0.5102 -0.3182  0.2316
  487MOL0     H65678   4.911   5.249   9.161 -2.7429  2.5992 -1.6748
  487MOL0     H65679   4.710   5.347   9.098  0.0713  0.3043 -0.0136
  487MOL0     H65680   4.488   5.437   9.121  4.2632 -3.3028  1.2067
  487MOL0     H65681   4.495   5.370   8.971  0.9022 -3.1684 -0.1889
  487MOL0     H65682   4.238   5.378   9.123 -0.4794  2.1356 -0.9511
  487MOL0     H65683   4.276   5.468   8.975  1.2305 -0.1934 -0.7733
  487MOL0     H65684   4.304   5.175   8.939 -1.4025 -0.3079 -0.4826
  487MOL0     H65685   4.130   5.222   8.971 -1.5116 -0.0367 -2.2769
  487MOL0     H65686   4.136   5.391   8.830  1.5011 -1.4281  3.3443
  487MOL0     H65687   4.279   5.348   8.739 -1.1679 -0.7593 -0.7629
  487MOL0     H65688   4.122   5.265   8.598 -2.5593  1.5854  0.4981
  487MOL0     H65689   4.149   5.122   8.705  0.2852 -0.8216  0.4946
  487MOL0     H65690   3.940   5.182   8.832 -1.0603  0.3377 -0.1975
  487MOL0     H65691   3.916   5.324   8.749 -1.8746 -1.1386  3.0954
  487MOL0     H65692   3.925   5.067   8.584 -1.9101 -0.6714 -1.6663
  487MOL0     H65693   3.793   5.081   8.705 -0.7080  3.2135  1.2938
  487MOL0     H65694   3.702   5.278   8.588 -0.2083  0.1256  1.5638
  487MOL0     H65695   3.730   5.141   8.482 -0.5806  0.9156  0.2535
  487MOL0     H65696   3.993   5.161   8.331 -1.2593  0.6643 -0.6623
  487MOL0     H65697   4.217   5.446   8.275  0.0896  0.3924 -0.9234
  487MOL0     H65698   4.202   5.288   8.233  2.8753  1.9361  1.2470
  487MOL0     H65699   4.043   5.513   8.083  2.5768  1.7140  1.7140
  487MOL0     H65700   4.042   5.343   8.039 -1.3378  0.5634 -1.5492
  487MOL0     H65701   4.285   5.352   8.033  0.6479  0.7064  3.3320
  487MOL0     H65702   4.289   5.530   8.023 -1.9496  1.6179 -0.5254
  487MOL0     H65703   4.117   5.533   7.836  0.3719  0.5584 -0.9995
  487MOL0     H65704   4.159   5.364   7.810 -0.2900  0.5530 -2.2396
  487MOL0     H65705   4.520   5.442   7.633 -0.7012  2.3395  2.0745
  487MOL0     H65706   4.625   5.559   7.341 -1.7524 -0.4278 -2.1141
  487MOL0     H65707   4.651   5.421   7.451 -2.2897 -2.1570  1.4653
  487MOL0     H65708   4.564   5.414   7.292 -1.3311 -0.2807  1.4975
  487MOL0     H65709   4.377   5.948   7.133 -0.8637 -0.4736 -0.2184
  487MOL0     H65710   4.359   6.060   6.924 -1.3075  0.6380  0.8523
  487MOL0     H65711   4.362   6.112   6.710 -0.1601 -1.5193  0.9948
  487MOL0     H65712   4.267   6.104   6.563 -3.0519  0.1785 -0.1793
  487MOL0     H65713   4.055   6.095   6.698  1.0919 -0.2467  0.7814
  487MOL0     H65714   4.139   6.161   6.830 -1.1114  0.8467  0.8943
  487MOL0     H65715   4.056   6.276   6.566  1.0900  3.5411 -1.6533
  487MOL0     H65716   4.222   6.324   6.610 -1.1420  1.4233  0.6587
  487MOL0     H65717   4.015   6.469   6.708  1.0648  1.1284  1.9427
  487MOL0     H65718   3.997   6.339   6.823 -2.4454 -1.6346 -2.9560
  487MOL0     H65719   4.120   6.544   6.898  0.3899  0.3930 -0.0840
  487MOL0     H65720   4.248   6.512   6.783  2.9088 -0.9008  3.7011
  487MOL0     H65721   4.151   6.365   7.031  0.8578  1.6930  0.4929
  487MOL0     H65722   4.252   6.281   6.904 -3.3261 -1.2252  0.5730
  487MOL0     H65723   4.312   6.549   7.050 -1.0059 -0.4255  1.9225
  487MOL0     H65724   4.420   6.446   6.961 -2.7643 -2.6057 -3.0613
  487MOL0     H65725   4.284   6.395   7.241  1.2694  1.0180  1.5833
  487MOL0     H65726   4.442   6.457   7.221 -3.4595  1.7805  2.0356
  487MOL0     H65727   4.210   5.693   6.747  1.9403  0.4231 -0.1039
  487MOL0     H65728   4.208   5.598   6.966  2.1137 -1.4073 -0.6456
  487MOL0     H65729   4.157   5.698   7.416 -0.5259  0.8638  4.3706
  487MOL0     H65730   4.128   5.609   7.643  1.2331  2.2774  1.2493
  487MOL0     H65731   4.494   4.978   9.195 -0.5350  0.7887 -0.1440
  487MOL0     H65732   4.721   4.879   9.229  1.6921 -0.9073 -2.5646
  487MOL0     H65733   5.126   4.799   9.140 -3.3572 -1.4080  1.2996
  487MOL0     H65734   5.322   4.662   9.168 -3.4499 -0.5734 -0.7730
  487MOL0     H65735   5.492   4.517   9.238 -0.7876 -0.8686  0.4602
  487MOL0     H65736   5.562   4.675   9.245  2.2465  0.1625  0.0196
  487MOL0     H65737   5.715   4.631   9.411 -1.9406  2.6061 -2.5540
  487MOL0     H65738   5.734   4.502   9.293  1.2823  0.9114  0.6602
  487MOL0     H65739   5.587   4.342   9.432  0.6521 -0.8302  2.2684
  487MOL0     H65740   5.609   4.441   9.569  0.0630 -3.2887 -0.1190
  487MOL0     H65741   5.772   4.295   9.582 -3.5494 -0.4547 -0.6936
  487MOL0     H65742   5.851   4.448   9.502 -3.7302  3.5624 -0.7819
  487MOL0     H65743   5.927   4.149   9.229 -4.8970 -1.5989 -1.6902
  487MOL0     H65744   5.346   4.813   9.587  0.9648  2.8968 -0.3703
  487MOL0     H65745   5.157   4.931   9.551 -0.5081  0.8592 -0.8477
  488MOL0     O65746   3.640   4.861   8.232 -0.2713 -0.1172  0.6900
  488MOL0     C65747   3.541   4.791   8.248 -0.3398 -0.2015 -0.5098
  488MOL0     O65748   3.499   4.688   8.174 -0.5815  0.6054 -0.4062
  488MOL0     C65749   3.575   4.650   8.067  0.8214 -0.6744  0.0533
  488MOL0     C65750   3.697   4.577   8.071  0.2897 -0.6672  0.6326
  488MOL0     C65751   3.752   4.541   7.949  0.2385  0.3383 -0.4283
  488MOL0     C65752   3.703   4.590   7.824  0.3370 -0.7529 -0.5756
  488MOL0     O65753   3.756   4.543   7.701  0.0313 -0.6818 -0.0640
  488MOL0     C65754   3.818   4.644   7.619  0.5096  0.6979 -0.2113
  488MOL0     C65755   3.969   4.616   7.614  0.7051  0.2261 -0.1018
  488MOL0     C65756   3.999   4.482   7.553 -0.7731  0.7738 -0.7146
  488MOL0     C65757   4.144   4.494   7.490  0.9044  0.4464 -0.8531
  488MOL0     C65758   4.185   4.356   7.429  0.2382 -0.1325 -0.6105
  488MOL0     C65759   4.339   4.350   7.393  0.0022  0.1454 -0.3541
  488MOL0     C65760   4.437   4.335   7.522 -0.0755 -1.4855  0.5570
  488MOL0     C65761   4.581   4.316   7.487  0.0269  0.1723 -0.1646
  488MOL0     N65762   4.643   4.389   7.370  0.9410 -0.3048 -0.7136
  488MOL0     C65763   4.696   4.334   7.253 -0.4062 -0.0328 -0.8705
  488MOL0     C65764   4.747   4.444   7.192 -0.0068 -0.4872  0.5209
  488MOL0     C65765   4.841   4.454   7.073 -0.3218  0.6597 -0.6497
  488MOL0     C65766   4.957   4.358   7.079  1.2555  0.0652  0.0264
  488MOL0     C65767   5.068   4.392   7.179 -0.7717 -0.1138 -0.2332
  488MOL0     C65768   5.182   4.298   7.196 -0.3822  0.0282 -1.0729
  488MOL0     O65769   5.126   4.169   7.219  0.3782  0.0398 -0.0922
  488MOL0     C65770   5.220   4.068   7.220  0.7689  0.5155 -0.6920
  488MOL0     C65771   5.351   4.066   7.183 -0.2613 -0.1829  0.7585
  488MOL0     C65772   5.424   3.946   7.176 -0.4950  0.0252  1.1207
  488MOL0     C65773   5.552   3.944   7.091  0.0925 -0.2108  0.2245
  488MOL0     C65774   5.377   3.826   7.239 -0.4005 -0.5572  0.3509
  488MOL0     C65775   5.450   3.703   7.265  1.0886 -0.1406  0.3307
  488MOL0     O65776   5.363   3.594   7.269  0.0382  0.1882  0.0694
  488MOL0     C65777   5.420   3.470   7.257 -0.2740  0.2647 -0.2676
  488MOL0     C65778   5.461   3.425   7.138  0.4168  0.3746 -0.1528
  488MOL0     C65779   5.487   3.287   7.120  0.4851  0.2079 -0.8403
  488MOL0     C65780   5.477   3.197   7.231  0.3148  0.0831  0.6122
  488MOL0     O65781   5.509   3.079   7.186  0.4562 -0.5081  0.6999
  488MOL0     C65782   5.538   2.985   7.288 -0.0030 -0.0562 -0.7659
  488MOL0     C65783   5.599   2.868   7.222 -0.8934  0.6873 -0.4591
  488MOL0     C65784   5.646   2.764   7.336  0.5200 -0.3643 -0.0044
  488MOL0     C65785   5.796   2.787   7.358 -0.5256  0.0382 -0.0091
  488MOL0     C65786   5.846   2.687   7.469  0.0915 -0.3759  0.0991
  488MOL0     C65787   5.997   2.717   7.481 -0.1797 -0.1751 -0.7588
  488MOL0     C65788   6.081   2.602   7.541 -0.1405  0.2974 -0.1863
  488MOL0     C65789   6.229   2.587   7.479 -0.5351  0.9333 -0.0694
  488MOL0    Cl65790   6.308   2.436   7.533  0.5363  0.1744  0.0550
  488MOL0     C65791   5.433   3.239   7.354  0.7035 -0.0861 -0.9157
  488MOL0     C65792   5.405   3.381   7.365 -0.3998 -0.5554  0.0736
  488MOL0     O65793   5.574   3.695   7.253 -0.2870 -0.1355 -0.1903
  488MOL0     C65794   5.248   3.836   7.289 -0.4436 -0.3497 -1.0159
  488MOL0     C65795   5.170   3.948   7.275  0.3843  0.0582 -0.3062
  488MOL0     N65796   4.734   4.551   7.281  0.2880 -0.0150  0.7715
  488MOL0     N65797   4.660   4.523   7.383 -0.4435 -0.1893 -0.0543
  488MOL0     C65798   3.596   4.686   7.826  0.4203  0.5335 -0.2821
  488MOL0     C65799   3.527   4.699   7.946  0.2922  0.1175 -0.8576
  488MOL0     C65800   3.443   4.835   8.363  0.1006 -0.3430 -0.1933
  488MOL0     C65801   3.374   4.732   8.439 -0.2383 -0.4286  0.7819
  488MOL0     C65802   3.291   4.766   8.544 -0.7261  0.7545  0.1556
  488MOL0     C65803   3.278   4.901   8.584  0.6654  0.2376 -0.5391
  488MOL0     O65804   3.189   4.917   8.690 -0.0314 -0.3199  0.2123
  488MOL0     C65805   3.100   5.031   8.680  0.5120  0.1791  0.5376
  488MOL0     C65806   3.013   5.018   8.558  0.2261 -1.3622 -0.9729
  488MOL0     C65807   2.913   4.892   8.544 -0.0749 -0.1379 -0.4398
  488MOL0     C65808   2.809   4.891   8.651  0.4498 -0.7369  0.6859
  488MOL0     C65809   2.724   4.771   8.661  0.1134 -0.3121 -0.1900
  488MOL0     C65810   2.646   4.679   8.662 -0.1007  0.0979 -0.4060
  488MOL0     C65811   3.340   4.995   8.511  0.0515 -0.8553  0.6489
  488MOL0     C65812   3.427   4.966   8.402 -0.5993 -0.7067 -0.5101
  488MOL0     H65813   3.737   4.540   8.165 -0.4265 -2.8315  0.1328
  488MOL0     H65814   3.842   4.482   7.935  0.9602  1.4675 -0.7171
  488MOL0     H65815   3.766   4.656   7.524 -2.5373  1.7201  1.4260
  488MOL0     H65816   3.813   4.747   7.656 -0.8175  1.5549 -2.5739
  488MOL0     H65817   4.011   4.696   7.551 -0.3131  1.6192  0.9157
  488MOL0     H65818   4.018   4.616   7.712 -1.4754  1.6635  1.0804
  488MOL0     H65819   4.006   4.410   7.636  0.1682  0.2018 -1.2779
  488MOL0     H65820   3.910   4.469   7.491 -3.3207  1.8890  2.3689
  488MOL0     H65821   4.159   4.583   7.429  0.6286  1.3004  0.2858
  488MOL0     H65822   4.218   4.497   7.571 -0.3073 -3.1601  0.5948
  488MOL0     H65823   4.155   4.277   7.498  0.2235  0.2060 -0.2313
  488MOL0     H65824   4.138   4.339   7.332  2.7648  1.3592 -2.2198
  488MOL0     H65825   4.357   4.279   7.312  0.7295  0.0158 -0.0835
  488MOL0     H65826   4.371   4.446   7.350 -1.0484  0.3016 -0.8384
  488MOL0     H65827   4.426   4.422   7.587  0.2828 -2.0583  1.4036
  488MOL0     H65828   4.417   4.243   7.578 -0.1550 -1.1603  1.0669
  488MOL0     H65829   4.580   4.211   7.457 -1.1078  0.4719 -1.2786
  488MOL0     H65830   4.640   4.330   7.578 -1.8451  3.2372  0.7385
  488MOL0     H65831   4.693   4.229   7.223  0.4685 -0.2040 -0.3989
  488MOL0     H65832   4.796   4.447   6.974  2.7243 -0.7274 -2.0801
  488MOL0     H65833   4.887   4.553   7.076 -1.0615  1.1588 -3.5438
  488MOL0     H65834   4.991   4.361   6.975 -0.4462 -0.5032 -0.5693
  488MOL0     H65835   4.918   4.259   7.104  3.3489 -1.6844 -3.0005
  488MOL0     H65836   5.012   4.416   7.270 -3.8320 -2.6216 -1.2654
  488MOL0     H65837   5.117   4.487   7.155  0.8392 -0.3299  1.9605
  488MOL0     H65838   5.234   4.334   7.286 -0.5019  0.1194 -1.0400
  488MOL0     H65839   5.258   4.299   7.117  0.7255  2.6877 -0.1132
  488MOL0     H65840   5.408   4.154   7.152  0.5374 -0.6144  0.9669
  488MOL0     H65841   5.645   3.942   7.149  0.3517  0.8684 -0.1302
  488MOL0     H65842   5.553   3.859   7.022 -0.8457 -0.1727  0.1513
  488MOL0     H65843   5.554   4.027   7.021 -0.0258 -0.7198 -0.3870
  488MOL0     H65844   5.453   3.494   7.054  1.7625  0.8178  0.0488
  488MOL0     H65845   5.520   3.246   7.025 -0.9694 -1.4995 -0.6746
  488MOL0     H65846   5.597   3.021   7.373 -1.2362 -1.0949  0.5901
  488MOL0     H65847   5.450   2.954   7.346  1.0236  1.3393  1.6764
  488MOL0     H65848   5.532   2.814   7.155 -0.5075  0.5923 -0.7724
  488MOL0     H65849   5.685   2.895   7.161 -0.5357  2.0713  0.6020
  488MOL0     H65850   5.618   2.660   7.317 -2.1664  0.7552 -2.9438
  488MOL0     H65851   5.577   2.783   7.419 -3.0716 -0.7073 -2.6684
  488MOL0     H65852   5.856   2.784   7.266  0.1807  2.7701  0.2819
  488MOL0     H65853   5.815   2.884   7.404  1.1228  0.3486 -1.2831
  488MOL0     H65854   5.831   2.585   7.433 -0.5615 -0.3930  0.3930
  488MOL0     H65855   5.794   2.699   7.565 -0.8290 -1.7165 -0.2103
  488MOL0     H65856   6.032   2.722   7.377  0.0256 -1.5038 -0.7736
  488MOL0     H65857   6.003   2.810   7.538  1.5025 -1.6095  1.5535
  488MOL0     H65858   6.033   2.509   7.508 -1.1675 -0.2573  2.6140
  488MOL0     H65859   6.078   2.612   7.650 -1.2931 -2.1533  0.0774
  488MOL0     H65860   6.284   2.677   7.508 -0.1588  0.3275  1.1482
  488MOL0     H65861   6.226   2.583   7.369  3.1469 -4.3548 -0.3419
  488MOL0     H65862   5.401   3.189   7.445  0.5568  0.7910 -0.4690
  488MOL0     H65863   5.355   3.418   7.454 -3.8083  0.1412 -1.9339
  488MOL0     H65864   5.200   3.748   7.330 -0.2666 -0.3571 -0.8251
  488MOL0     H65865   5.067   3.951   7.308 -0.4464 -0.5619 -2.6617
  488MOL0     H65866   3.542   4.698   7.733 -4.2437 -3.6463  1.4037
  488MOL0     H65867   3.432   4.751   7.944 -1.3967 -2.8062 -2.2579
  488MOL0     H65868   3.387   4.634   8.395 -1.5648 -0.0933 -0.4027
  488MOL0     H65869   3.238   4.684   8.591 -0.5725  0.2116 -0.6008
  488MOL0     H65870   3.043   5.035   8.773  0.4765 -0.8905  0.5775
  488MOL0     H65871   3.163   5.120   8.682  1.0705 -0.2214  1.5030
  488MOL0     H65872   3.067   5.005   8.463  2.5442  0.8998 -0.0841
  488MOL0     H65873   2.959   5.112   8.548  2.9960  0.5596  0.7032
  488MOL0     H65874   2.975   4.802   8.546  1.3517  0.8137 -0.4501
  488MOL0     H65875   2.871   4.885   8.443  2.6843 -1.2558 -1.6032
  488MOL0     H65876   2.741   4.976   8.639 -0.9942 -2.0505 -0.8208
  488MOL0     H65877   2.858   4.898   8.749  1.1064  0.4630  0.2967
  488MOL0     H65878   2.581   4.596   8.645  1.8582 -1.2044 -1.9338
  488MOL0     H65879   3.324   5.096   8.547 -2.5127 -0.2975 -1.6921
  488MOL0     H65880   3.486   5.043   8.354 -0.6364 -1.7738 -2.3812
  489MOL0     O65881   6.101   5.326   0.799  0.5197 -0.0840 -0.2005
  489MOL0     C65882   6.033   5.282   0.889  0.2970  0.7103 -0.5940
  489MOL0     O65883   5.900   5.265   0.897  0.0602 -0.5073 -0.2983
  489MOL0     C65884   5.829   5.303   0.781  0.4216 -0.9693 -0.1865
  489MOL0     C65885   5.782   5.438   0.764  0.3935  0.7732  0.3592
  489MOL0     C65886   5.714   5.472   0.653  0.0990 -0.5495 -0.1488
  489MOL0     C65887   5.682   5.384   0.555  0.5912  0.2405 -0.5219
  489MOL0     O65888   5.612   5.408   0.442  0.2409  0.4839  0.0669
  489MOL0     C65889   5.505   5.510   0.446 -0.7969 -0.5590 -0.8696
  489MOL0     C65890   5.426   5.506   0.316  0.3768  1.2628  0.0678
  489MOL0     C65891   5.270   5.532   0.334  0.6218  0.5920 -0.1289
  489MOL0     C65892   5.233   5.686   0.334 -0.4184  0.4203 -0.9520
  489MOL0     C65893   5.253   5.739   0.195  0.5208  0.3804  0.6453
  489MOL0     C65894   5.174   5.673   0.074 -0.7802 -0.7295 -0.4518
  489MOL0     C65895   5.026   5.652   0.111 -0.8995 -0.1878 -0.2509
  489MOL0     C65896   4.956   5.589  -0.013 -0.0787  0.5125  0.7097
  489MOL0     N65897   4.920   5.674  -0.127 -0.4850  0.4145  0.5750
  489MOL0     C65898   4.852   5.632  -0.239  0.2765  0.4017 -0.0367
  489MOL0     C65899   4.819   5.751  -0.306  1.2096  0.5253 -0.6752
  489MOL0     C65900   4.737   5.763  -0.424  0.8236 -0.1390  0.1584
  489MOL0     C65901   4.640   5.883  -0.410 -0.5945  0.1091 -0.1368
  489MOL0     C65902   4.512   5.853  -0.327 -0.1837  0.2163  0.0336
  489MOL0     C65903   4.451   5.981  -0.282 -0.3818 -1.3493 -1.1581
  489MOL0     O65904   4.508   6.048  -0.165  0.4261 -0.3581  0.3855
  489MOL0     C65905   4.516   5.981  -0.053 -0.8910 -1.4208 -0.5010
  489MOL0     C65906   4.425   5.906   0.013 -0.0032  1.1843 -0.8673
  489MOL0     C65907   4.454   5.819   0.122 -0.7146 -1.1637  0.0814
  489MOL0     C65908   4.344   5.724   0.170  0.0875 -0.2247  0.4314
  489MOL0     C65909   4.587   5.820   0.169 -0.2443  0.4080 -0.9832
  489MOL0     C65910   4.626   5.731   0.279 -1.3742 -0.1212 -0.0908
  489MOL0     O65911   4.630   5.599   0.253 -0.6220  0.4975 -1.3669
  489MOL0     C65912   4.711   5.499   0.320  0.6694 -1.3957  0.2785
  489MOL0     C65913   4.737   5.381   0.254  0.0093 -0.3013 -0.5242
  489MOL0     C65914   4.792   5.267   0.321  0.9472 -0.2889 -0.1340
  489MOL0     C65915   4.832   5.291   0.454  0.8168 -0.4440  0.5379
  489MOL0     O65916   4.858   5.164   0.509  0.0657 -0.0194 -0.2555
  489MOL0     C65917   4.946   5.160   0.622  0.2686  0.3443 -0.3527
  489MOL0     C65918   5.091   5.203   0.592  0.2053  0.5056  0.0030
  489MOL0     C65919   5.179   5.233   0.717  0.0907  0.4912  0.7014
  489MOL0     C65920   5.183   5.106   0.808  1.3817 -0.7208  1.3818
  489MOL0     C65921   5.249   5.133   0.942  0.2490 -0.0507 -0.0258
  489MOL0     C65922   5.390   5.182   0.934 -0.0022 -0.7755  0.2273
  489MOL0     C65923   5.441   5.217   1.072 -0.1662 -0.4965 -0.6514
  489MOL0     C65924   5.568   5.311   1.068  0.6283  0.1938 -0.4534
  489MOL0    Cl65925   5.520   5.467   0.998 -0.4092 -0.5138 -0.0108
  489MOL0     C65926   4.815   5.410   0.522 -0.0225 -0.2543  0.5814
  489MOL0     C65927   4.756   5.516   0.449  0.2566 -0.5543  0.4998
  489MOL0     O65928   4.683   5.792   0.369  0.3694  0.6584 -0.2967
  489MOL0     C65929   4.682   5.909   0.110  0.3996 -0.5632  0.1398
  489MOL0     C65930   4.650   5.983  -0.003  0.0507  0.5744 -0.3413
  489MOL0     N65931   4.872   5.853  -0.225  0.0657  0.1113 -0.0923
  489MOL0     N65932   4.919   5.813  -0.118 -0.4134 -0.5990  0.5832
  489MOL0     C65933   5.718   5.240   0.576 -0.0142 -0.2518  0.0560
  489MOL0     C65934   5.794   5.209   0.683  0.3875  0.0722 -0.6893
  489MOL0     C65935   6.119   5.230   1.007  0.4044  0.0927 -0.3478
  489MOL0     C65936   6.061   5.122   1.081 -0.2767  0.1549 -0.5411
  489MOL0     C65937   6.132   5.081   1.190  0.6449  0.8581  0.3948
  489MOL0     C65938   6.241   5.152   1.234  0.1944  0.2738 -0.1857
  489MOL0     O65939   6.316   5.120   1.348  0.3363  0.7412  0.0858
  489MOL0     C65940   6.289   4.990   1.395 -0.3517  0.0993  0.1324
  489MOL0     C65941   6.388   4.958   1.517 -0.4789 -0.7870 -0.4990
  489MOL0     C65942   6.320   4.851   1.605 -0.7128  0.2644 -0.3682
  489MOL0     C65943   6.240   4.899   1.728  0.7253  1.0066  0.6675
  489MOL0     C65944   6.341   4.969   1.810  0.7005  0.1630  0.2929
  489MOL0     C65945   6.412   5.030   1.883  0.1245  0.4276  0.4588
  489MOL0     C65946   6.298   5.258   1.159 -0.1070 -0.7729  0.3701
  489MOL0     C65947   6.242   5.288   1.038  0.1447  0.6408 -0.6524
  489MOL0     H65948   5.814   5.509   0.839  1.4433  1.8550 -1.0603
  489MOL0     H65949   5.703   5.577   0.628  1.5557 -0.9278 -2.7067
  489MOL0     H65950   5.438   5.492   0.530 -0.6266  3.0118  0.2108
  489MOL0     H65951   5.533   5.616   0.454 -2.5318 -0.2185  4.0623
  489MOL0     H65952   5.471   5.574   0.243  0.5262  0.4750 -0.5894
  489MOL0     H65953   5.429   5.405   0.276 -1.6835  0.2180  2.2887
  489MOL0     H65954   5.224   5.472   0.255  1.3392 -0.6868  0.3856
  489MOL0     H65955   5.250   5.485   0.431  0.4019  1.2181  0.1341
  489MOL0     H65956   5.130   5.698   0.371  0.8390  0.2280  3.0542
  489MOL0     H65957   5.291   5.731   0.415  0.0281 -1.1220 -0.3653
  489MOL0     H65958   5.237   5.847   0.197 -0.3134  0.4155 -2.6923
  489MOL0     H65959   5.355   5.714   0.164 -0.7155 -5.0215 -0.0443
  489MOL0     H65960   5.195   5.739  -0.011 -0.2468  2.0289  1.6983
  489MOL0     H65961   5.213   5.572   0.058 -1.4298 -1.3334  1.5348
  489MOL0     H65962   5.008   5.594   0.202 -0.7582 -0.3123 -0.3012
  489MOL0     H65963   4.969   5.740   0.143  0.4347 -0.0917  2.0176
  489MOL0     H65964   4.859   5.563   0.031  0.7288 -0.1564  2.1847
  489MOL0     H65965   5.009   5.498  -0.045  1.9028  1.9963 -0.4351
  489MOL0     H65966   4.814   5.536  -0.272 -1.4988  0.8356  0.6167
  489MOL0     H65967   4.805   5.776  -0.509  3.1878 -1.7154  1.6977
  489MOL0     H65968   4.681   5.671  -0.442 -2.7130  1.1471  3.1568
  489MOL0     H65969   4.608   5.907  -0.512 -3.0309  0.4337  0.6468
  489MOL0     H65970   4.693   5.968  -0.367  2.3862 -0.5407 -2.1734
  489MOL0     H65971   4.527   5.790  -0.239 -1.8776  2.4881  2.1017
  489MOL0     H65972   4.441   5.806  -0.396 -1.4377  3.7931 -1.3230
  489MOL0     H65973   4.344   5.965  -0.264 -0.4457  1.9946  2.9721
  489MOL0     H65974   4.460   6.053  -0.364 -2.0332 -1.6214 -1.6129
  489MOL0     H65975   4.328   5.896  -0.035  0.4574  2.1489 -2.0579
  489MOL0     H65976   4.260   5.792   0.188 -1.0149 -0.9952 -1.5117
  489MOL0     H65977   4.316   5.665   0.082 -0.3015  2.0041 -1.0567
  489MOL0     H65978   4.372   5.661   0.254 -0.1421  0.3613  0.9574
  489MOL0     H65979   4.712   5.373   0.149 -1.5712 -1.5330 -0.0774
  489MOL0     H65980   4.800   5.166   0.282  1.4917 -0.1275 -0.4635
  489MOL0     H65981   4.910   5.220   0.706  2.9329  1.1747  0.3120
  489MOL0     H65982   4.951   5.054   0.648 -2.1030  0.1994 -0.2442
  489MOL0     H65983   5.143   5.127   0.532  1.5848  1.3815  0.0514
  489MOL0     H65984   5.080   5.291   0.528 -1.6348  0.8371  0.7167
  489MOL0     H65985   5.150   5.319   0.778  1.5464  0.0552  2.0658
  489MOL0     H65986   5.278   5.262   0.679 -0.7712  1.6129 -0.8322
  489MOL0     H65987   5.079   5.071   0.814  0.6765  0.4575 -1.9675
  489MOL0     H65988   5.239   5.037   0.744  0.1428  0.6710 -1.3768
  489MOL0     H65989   5.239   5.043   1.003  1.3630  0.7012  1.3057
  489MOL0     H65990   5.189   5.206   0.997 -2.8792 -0.4039 -2.6578
  489MOL0     H65991   5.463   5.109   0.898  0.0598 -0.2616 -0.7132
  489MOL0     H65992   5.394   5.269   0.868  0.0303 -1.0172 -0.0911
  489MOL0     H65993   5.470   5.125   1.125 -3.1739 -1.2461 -0.1377
  489MOL0     H65994   5.365   5.269   1.131  2.2401  3.8590 -0.9807
  489MOL0     H65995   5.649   5.257   1.019 -1.0286 -2.5062 -0.4292
  489MOL0     H65996   5.594   5.334   1.172 -5.2311 -0.9802  1.6748
  489MOL0     H65997   4.841   5.414   0.628  2.9101 -2.1691  0.0467
  489MOL0     H65998   4.735   5.607   0.504  0.7821 -0.6910  0.9317
  489MOL0     H65999   4.786   5.919   0.136 -0.4066  3.6305  2.6729
  489MOL0     H66000   4.737   6.024  -0.053 -0.7003  0.8422 -1.4714
  489MOL0     H66001   5.689   5.164   0.505  0.1345 -0.3105  0.0571
  489MOL0     H66002   5.814   5.104   0.706  1.4596  0.7612  1.8862
  489MOL0     H66003   5.973   5.072   1.039  0.4373 -1.7055  0.0856
  489MOL0     H66004   6.102   4.986   1.232  2.7981 -0.7802 -1.4872
  489MOL0     H66005   6.186   4.983   1.432 -1.5803  4.0629 -2.0244
  489MOL0     H66006   6.306   4.906   1.327  0.7533  0.9528 -0.6716
  489MOL0     H66007   6.406   5.049   1.574  0.6768 -0.6426 -1.0573
  489MOL0     H66008   6.484   4.921   1.478 -0.0363 -4.2023  3.2111
  489MOL0     H66009   6.400   4.787   1.643 -1.7033  0.9303  3.2065
  489MOL0     H66010   6.260   4.788   1.539  0.5349  0.7044 -2.0037
  489MOL0     H66011   6.201   4.806   1.771 -1.2598  1.7939  0.6605
  489MOL0     H66012   6.160   4.970   1.710 -0.7975 -0.7650  0.1524
  489MOL0     H66013   6.457   5.071   1.972 -1.5206  2.8725  0.2561
  489MOL0     H66014   6.384   5.319   1.182 -0.4567 -0.3757  0.6282
  489MOL0     H66015   6.273   5.382   0.994  3.5955 -0.1841 -0.2442
  490MOL0     O66016   3.875   3.844   7.035  0.3529 -0.2259  0.1088
  490MOL0     C66017   3.858   3.965   7.032 -0.1617 -0.6732  0.4583
  490MOL0     O66018   3.848   4.044   7.139 -0.0603 -0.0995  0.2114
  490MOL0     C66019   3.879   4.005   7.268  0.4512  0.4534  0.0260
  490MOL0     C66020   3.844   3.895   7.334  0.2797 -0.2221 -0.0879
  490MOL0     C66021   3.853   3.892   7.475 -0.1290  0.3868  0.3782
  490MOL0     C66022   3.904   4.002   7.550  0.3620  0.6478 -0.4069
  490MOL0     O66023   3.912   3.989   7.685 -1.0572  0.1680 -0.2820
  490MOL0     C66024   3.971   4.094   7.772 -0.7360  0.4689 -0.1305
  490MOL0     C66025   4.121   4.063   7.806 -0.4741 -0.1199 -0.8599
  490MOL0     C66026   4.174   4.184   7.885  0.2147 -0.1972 -0.3764
  490MOL0     C66027   4.316   4.158   7.932 -0.5156  0.3113  0.2607
  490MOL0     C66028   4.358   4.247   8.058  0.2349 -0.6887 -0.0983
  490MOL0     C66029   4.430   4.375   8.000  0.2760  0.8735 -0.5545
  490MOL0     C66030   4.339   4.464   7.911  0.2627  0.5890 -0.4474
  490MOL0     C66031   4.378   4.619   7.920 -1.2160  0.7536  0.3859
  490MOL0     N66032   4.515   4.637   7.895 -0.2461  0.0651 -0.6020
  490MOL0     C66033   4.566   4.663   7.776  0.3262  0.6637  0.5063
  490MOL0     C66034   4.706   4.677   7.805 -0.0176 -0.0125 -0.3796
  490MOL0     C66035   4.820   4.707   7.718  0.7192 -0.6289 -0.1153
  490MOL0     C66036   4.790   4.782   7.583 -0.7978  0.0160  0.4537
  490MOL0     C66037   4.906   4.776   7.486 -0.6289 -0.5507  0.3863
  490MOL0     C66038   4.874   4.840   7.348  0.2564 -0.3736 -0.8307
  490MOL0     O66039   4.845   4.979   7.380 -0.4975  0.3705 -0.0313
  490MOL0     C66040   4.813   5.065   7.284 -0.3591  0.4401 -0.4823
  490MOL0     C66041   4.766   5.034   7.164 -0.1234  0.4894  0.4548
  490MOL0     C66042   4.736   5.134   7.067 -0.0390 -0.4370  1.3993
  490MOL0     C66043   4.664   5.099   6.935  0.3248 -0.1179  1.1088
  490MOL0     C66044   4.776   5.271   7.096  0.1616  0.2076  0.7024
  490MOL0     C66045   4.759   5.373   6.991 -0.1643  0.0382  0.7419
  490MOL0     O66046   4.719   5.498   7.032 -0.5507  0.2082 -0.9328
  490MOL0     C66047   4.737   5.601   6.942  0.1742  0.6777  0.0675
  490MOL0     C66048   4.635   5.692   6.909 -0.3686 -0.7616 -0.0520
  490MOL0     C66049   4.645   5.804   6.819 -0.5236 -0.4458  0.9222
  490MOL0     C66050   4.774   5.829   6.767  1.0069  0.2335  0.5261
  490MOL0     O66051   4.793   5.947   6.702 -0.2793 -0.0577 -0.1310
  490MOL0     C66052   4.777   6.066   6.772 -0.4622 -0.7434  0.2357
  490MOL0     C66053   4.745   6.180   6.675 -0.1629 -0.1466 -0.0451
  490MOL0     C66054   4.623   6.152   6.588 -0.5439 -0.9454  0.8389
  490MOL0     C66055   4.655   6.163   6.441  0.1272  1.0886 -0.1789
  490MOL0     C66056   4.532   6.200   6.357  0.4325 -0.3729 -0.6541
  490MOL0     C66057   4.572   6.269   6.229  0.0630  0.1162 -0.1087
  490MOL0     C66058   4.655   6.406   6.247 -0.3153 -0.3204 -0.2447
  490MOL0     C66059   4.614   6.506   6.140 -0.7050 -0.8788  0.9700
  490MOL0    Cl66060   4.708   6.456   5.997  0.2204 -0.0941 -0.1786
  490MOL0     C66061   4.875   5.731   6.794 -0.7940  0.3330 -0.5294
  490MOL0     C66062   4.866   5.628   6.885  0.9730  0.0926  0.6497
  490MOL0     O66063   4.791   5.342   6.873  0.1293 -0.9778 -0.0267
  490MOL0     C66064   4.819   5.303   7.223  0.0033 -0.1273  0.4327
  490MOL0     C66065   4.846   5.200   7.317 -0.6079  0.5966 -0.1565
  490MOL0     N66066   4.727   4.657   7.940 -0.2426  0.0220  0.2337
  490MOL0     N66067   4.616   4.631   7.995 -1.2091 -0.0342  0.3350
  490MOL0     C66068   3.946   4.108   7.480 -0.1008 -0.0584  0.2809
  490MOL0     C66069   3.935   4.111   7.335 -0.3399 -0.4543  1.0113
  490MOL0     C66070   3.893   4.043   6.917 -0.0790 -0.3045  1.2329
  490MOL0     C66071   3.927   3.976   6.793 -0.0747  0.2342  0.7345
  490MOL0     C66072   3.987   4.043   6.684  0.2108  0.4355  0.4047
  490MOL0     C66073   4.000   4.181   6.691  0.0402 -0.2864  0.1228
  490MOL0     O66074   4.069   4.233   6.582 -0.0180  0.4512 -0.1846
  490MOL0     C66075   4.090   4.373   6.588 -0.0118 -0.3288  0.9952
  490MOL0     C66076   4.181   4.409   6.470  0.5066 -0.0187  1.2165
  490MOL0     C66077   4.114   4.437   6.338 -0.0984  0.8864  0.4883
  490MOL0     C66078   4.000   4.347   6.294 -0.4099  0.3786 -0.4658
  490MOL0     C66079   3.924   4.382   6.171 -0.3231  0.0848 -0.0249
  490MOL0     C66080   3.859   4.403   6.068  0.0505  0.1856 -0.8589
  490MOL0     C66081   3.964   4.254   6.805  0.4932  0.0938  0.5808
  490MOL0     C66082   3.911   4.186   6.916 -0.1142  0.7129  0.0797
  490MOL0     H66083   3.806   3.814   7.272  1.2094 -0.8045  0.0941
  490MOL0     H66084   3.825   3.795   7.516 -0.5461  0.3471  0.0062
  490MOL0     H66085   3.962   4.195   7.731  2.3726  0.5270 -0.8707
  490MOL0     H66086   3.930   4.115   7.872  3.0971  1.9404  1.3293
  490MOL0     H66087   4.141   3.976   7.870  1.2687  1.1304  0.3792
  490MOL0     H66088   4.179   4.055   7.713 -1.3856 -4.7489 -1.3085
  490MOL0     H66089   4.162   4.263   7.809  0.3470 -1.3862 -1.6819
  490MOL0     H66090   4.113   4.213   7.971  1.1516  3.1769 -0.6958
  490MOL0     H66091   4.324   4.053   7.964  4.1833 -0.1516 -1.5847
  490MOL0     H66092   4.392   4.177   7.855 -0.8794  0.6399 -0.0201
  490MOL0     H66093   4.275   4.280   8.122 -0.0878  2.7162 -2.0427
  490MOL0     H66094   4.434   4.190   8.113 -0.2652 -0.0576  1.2982
  490MOL0     H66095   4.457   4.436   8.087 -0.5636  1.0625 -0.4221
  490MOL0     H66096   4.519   4.340   7.947 -0.0979  0.4394 -0.9027
  490MOL0     H66097   4.352   4.425   7.810 -1.2855  0.6931 -0.6961
  490MOL0     H66098   4.231   4.464   7.928  0.1716  0.4404 -1.0049
  490MOL0     H66099   4.361   4.636   8.027  0.6531 -0.8339  1.0110
  490MOL0     H66100   4.318   4.669   7.843 -1.3171  0.0552 -0.0056
  490MOL0     H66101   4.516   4.668   7.679  0.6501  0.0614  0.3027
  490MOL0     H66102   4.892   4.772   7.767  0.6979  1.6146 -2.8352
  490MOL0     H66103   4.863   4.611   7.687  0.3491 -0.6431 -0.6033
  490MOL0     H66104   4.763   4.882   7.619 -1.3215  0.4883 -1.1778
  490MOL0     H66105   4.699   4.754   7.529  0.2320  0.4117 -1.5625
  490MOL0     H66106   4.927   4.669   7.476 -0.2291 -0.4482  0.0814
  490MOL0     H66107   4.999   4.817   7.527  0.8047  0.6340 -3.5727
  490MOL0     H66108   4.779   4.797   7.314 -0.1872  0.0189 -0.1163
  490MOL0     H66109   4.967   4.811   7.298  1.7851 -3.3025  3.2059
  490MOL0     H66110   4.738   4.931   7.144 -0.2188  0.5289  0.3828
  490MOL0     H66111   4.608   5.176   6.880  1.4860 -0.5778 -0.8215
  490MOL0     H66112   4.738   5.069   6.860 -0.5553 -2.0697  0.9684
  490MOL0     H66113   4.599   5.015   6.961 -1.8943  1.3715  0.6107
  490MOL0     H66114   4.548   5.693   6.974  0.1515 -2.5194  0.7167
  490MOL0     H66115   4.565   5.875   6.802  1.8103  2.0646 -0.3446
  490MOL0     H66116   4.690   6.050   6.837  0.2180 -3.3671  0.6177
  490MOL0     H66117   4.868   6.100   6.822  2.8125 -2.3782 -4.0022
  490MOL0     H66118   4.730   6.269   6.737 -0.2246  0.9963 -1.6307
  490MOL0     H66119   4.835   6.192   6.615 -0.2438  3.1147  0.2962
  490MOL0     H66120   4.560   6.240   6.608  0.2744  0.3164 -1.6792
  490MOL0     H66121   4.579   6.056   6.616 -2.6109 -1.3130 -3.0100
  490MOL0     H66122   4.741   6.227   6.419  4.5402 -4.3291 -0.7804
  490MOL0     H66123   4.693   6.065   6.411 -0.9550 -0.1535  2.2826
  490MOL0     H66124   4.479   6.269   6.424  0.5585 -1.9191  1.1179
  490MOL0     H66125   4.462   6.120   6.332 -2.1682  1.4145  0.4391
  490MOL0     H66126   4.641   6.207   6.170  0.6977  2.6521 -2.2178
  490MOL0     H66127   4.477   6.287   6.178  0.8765 -2.9792 -3.1665
  490MOL0     H66128   4.759   6.380   6.225 -1.0615 -1.5740 -2.6797
  490MOL0     H66129   4.630   6.440   6.347  0.3180  0.2403 -0.2722
  490MOL0     H66130   4.634   6.610   6.167  0.9531 -0.3289 -1.9619
  490MOL0     H66131   4.510   6.493   6.110  0.2303 -1.6137 -2.3590
  490MOL0     H66132   4.979   5.758   6.777 -0.6579  0.0577 -0.1709
  490MOL0     H66133   4.953   5.568   6.907  2.2503  1.9176  0.8071
  490MOL0     H66134   4.833   5.405   7.257 -4.0810  0.9765 -0.7062
  490MOL0     H66135   4.880   5.210   7.420 -1.0309  2.0210 -0.1312
  490MOL0     H66136   3.986   4.194   7.532  2.9900 -0.7604 -0.7312
  490MOL0     H66137   3.965   4.202   7.285  1.3328 -0.7288  1.4602
  490MOL0     H66138   3.921   3.868   6.788  1.6758  0.1457 -2.7692
  490MOL0     H66139   4.023   3.988   6.597  1.1579  4.2925 -1.8735
  490MOL0     H66140   3.992   4.423   6.591 -0.5498 -1.3744  3.4990
  490MOL0     H66141   4.147   4.407   6.675  0.2209 -3.1714  2.0501
  490MOL0     H66142   4.254   4.329   6.452  0.3799  0.1028  0.0410
  490MOL0     H66143   4.229   4.501   6.505  1.3134 -0.2274  0.6848
  490MOL0     H66144   4.183   4.410   6.258  0.1985 -2.3839  1.6828
  490MOL0     H66145   4.087   4.543   6.340 -0.3353  0.8203  0.9513
  490MOL0     H66146   3.926   4.324   6.372  1.2974  2.9304  2.1078
  490MOL0     H66147   4.038   4.245   6.284 -1.6084 -0.2385  0.9416
  490MOL0     H66148   3.804   4.409   5.976  1.6488  1.0370 -1.8060
  490MOL0     H66149   3.981   4.361   6.810  1.5837 -0.0693  0.5013
  490MOL0     H66150   3.875   4.243   7.000  0.6151  1.4350 -0.0806
  491MOL0     O66151   7.406   9.066   2.199  0.9518 -0.1184 -0.6778
  491MOL0     C66152   7.530   9.072   2.190 -0.1760  1.2025  0.1055
  491MOL0     O66153   7.611   8.964   2.147  0.4640 -0.2152 -0.3159
  491MOL0     C66154   7.542   8.881   2.060  0.0099  0.7764 -0.4188
  491MOL0     C66155   7.482   8.765   2.105  0.8284 -0.3366 -0.0007
  491MOL0     C66156   7.412   8.676   2.018  0.7395 -0.8366 -0.5646
  491MOL0     C66157   7.392   8.707   1.884  0.6309 -0.0477  0.1720
  491MOL0     O66158   7.321   8.636   1.792  0.0701 -0.6490 -0.4467
  491MOL0     C66159   7.195   8.590   1.846  0.2716 -0.0180 -0.7197
  491MOL0     C66160   7.091   8.555   1.748  0.6732 -0.6168 -0.1620
  491MOL0     C66161   7.010   8.430   1.780 -0.4733  0.1741  0.1068
  491MOL0     C66162   6.871   8.467   1.835 -0.2697 -0.0428  0.1229
  491MOL0     C66163   6.766   8.344   1.842 -0.1490  0.0385  0.7903
  491MOL0     C66164   6.644   8.367   1.924 -0.1275  0.1083 -0.3377
  491MOL0     C66165   6.543   8.463   1.848 -0.3682  0.0197  0.1248
  491MOL0     C66166   6.406   8.475   1.931  1.6588 -0.8010  0.2291
  491MOL0     N66167   6.370   8.617   1.914 -0.4554  0.0045  0.0884
  491MOL0     C66168   6.348   8.684   1.798 -0.5655  0.7660  0.1707
  491MOL0     C66169   6.311   8.807   1.846  0.2591  0.2573 -0.0480
  491MOL0     C66170   6.280   8.921   1.756 -1.1658 -0.4692  0.2273
  491MOL0     C66171   6.157   8.909   1.666 -0.0027 -0.1049 -0.8406
  491MOL0     C66172   6.036   8.933   1.751 -0.7287 -0.0183 -0.3156
  491MOL0     C66173   5.930   8.940   1.649 -0.1778  0.6242  0.5840
  491MOL0     O66174   5.805   8.927   1.737  0.1258  0.4899  0.0904
  491MOL0     C66175   5.681   8.914   1.674  0.1660 -0.2746 -0.8953
  491MOL0     C66176   5.566   8.916   1.756 -0.2840 -0.9215 -0.6723
  491MOL0     C66177   5.433   8.922   1.707 -0.0767  1.5886  0.1087
  491MOL0     C66178   5.317   8.931   1.810  0.1838 -0.8034 -0.5889
  491MOL0     C66179   5.414   8.906   1.565 -0.2490  0.9446 -0.2118
  491MOL0     C66180   5.282   8.878   1.510 -0.1775 -0.3336  0.3924
  491MOL0     O66181   5.223   8.969   1.431  0.2762  0.2429 -0.2281
  491MOL0     C66182   5.092   8.941   1.382  0.6669 -0.1690 -0.0399
  491MOL0     C66183   5.065   8.990   1.243  0.4877 -0.8945 -0.2151
  491MOL0     C66184   4.944   8.970   1.176 -0.5442 -0.0941  0.4872
  491MOL0     C66185   4.835   8.920   1.248 -0.0459 -0.0597 -0.0789
  491MOL0     O66186   4.713   8.905   1.202  0.9076  0.6144 -0.3801
  491MOL0     C66187   4.673   8.932   1.069  0.3638 -0.4277  0.1412
  491MOL0     C66188   4.517   8.905   1.073 -0.4253  0.9617 -0.0498
  491MOL0     C66189   4.457   8.908   0.936 -0.0683 -0.0860  0.5532
  491MOL0     C66190   4.303   8.899   0.930  0.4969  0.0582 -0.4891
  491MOL0     C66191   4.243   8.890   0.776 -0.3480  0.1089 -0.3956
  491MOL0     C66192   4.092   8.903   0.774  0.8362 -0.2849 -0.1417
  491MOL0     C66193   4.052   8.942   0.627 -0.0387 -0.5078 -0.9475
  491MOL0     C66194   4.005   9.088   0.615 -0.0243 -1.2156 -0.0584
  491MOL0    Cl66195   3.859   9.151   0.721 -0.1076  0.0504  0.2697
  491MOL0     C66196   4.863   8.872   1.381  0.3841 -0.0797  0.3587
  491MOL0     C66197   4.981   8.882   1.449 -0.2543 -0.3058  0.2196
  491MOL0     O66198   5.244   8.765   1.527  0.4107  1.1109  0.5426
  491MOL0     C66199   5.526   8.896   1.485 -0.9032  0.0475 -0.6807
  491MOL0     C66200   5.655   8.903   1.535  0.3440  0.2866 -0.3800
  491MOL0     N66201   6.308   8.798   1.979  0.1250 -0.1318  0.7550
  491MOL0     N66202   6.345   8.690   2.025 -0.2124 -0.4257 -0.8697
  491MOL0     C66203   7.461   8.822   1.839  0.7411  0.0639 -0.7923
  491MOL0     C66204   7.542   8.895   1.923  0.6139 -0.1730 -0.7431
  491MOL0     C66205   7.598   9.196   2.232  0.1171  0.2639 -0.7115
  491MOL0     C66206   7.724   9.227   2.202  0.3170  0.3455 -0.0425
  491MOL0     C66207   7.774   9.349   2.255 -0.8227  0.2790  1.4011
  491MOL0     C66208   7.701   9.437   2.335 -0.1565  0.5252  0.9462
  491MOL0     O66209   7.741   9.555   2.379 -1.1842 -0.5889 -0.1877
  491MOL0     C66210   7.861   9.610   2.314 -0.0879 -0.2413  0.3851
  491MOL0     C66211   7.900   9.748   2.368 -0.4972  0.1860  0.6397
  491MOL0     C66212   7.904   9.750   2.524  0.3261 -0.0469 -0.7378
  491MOL0     C66213   8.043   9.718   2.588 -0.3925  0.3855  0.2722
  491MOL0     C66214   8.130   9.611   2.526  0.6605  0.8284 -0.4318
  491MOL0     C66215   8.197   9.540   2.457  0.8890 -0.2957  0.3051
  491MOL0     C66216   7.576   9.397   2.378 -0.3963 -0.3086  0.3312
  491MOL0     C66217   7.524   9.280   2.321  0.0371  0.3662 -0.0268
  491MOL0     H66218   7.484   8.732   2.208  0.6240  0.1669  0.1651
  491MOL0     H66219   7.371   8.588   2.067 -0.3753  1.8241  3.7887
  491MOL0     H66220   7.213   8.509   1.917  0.1973  1.3415  0.9346
  491MOL0     H66221   7.150   8.673   1.902 -0.7867 -1.2914  0.3838
  491MOL0     H66222   7.033   8.647   1.730 -0.4846 -0.9647  1.6347
  491MOL0     H66223   7.144   8.537   1.654 -1.7888  2.9682 -2.5346
  491MOL0     H66224   6.986   8.361   1.698 -0.7839  0.0621  0.2866
  491MOL0     H66225   7.066   8.363   1.845  2.1771  0.0869 -2.1138
  491MOL0     H66226   6.883   8.513   1.933  1.2632 -1.5179  0.6727
  491MOL0     H66227   6.816   8.534   1.767 -2.9697 -2.1174  0.1085
  491MOL0     H66228   6.727   8.305   1.747  2.2258 -0.4454 -0.0359
  491MOL0     H66229   6.817   8.256   1.880 -2.7641 -1.7942  0.3425
  491MOL0     H66230   6.605   8.266   1.941  1.6621 -0.4852  0.5317
  491MOL0     H66231   6.668   8.413   2.020  0.1869  1.0786 -0.8609
  491MOL0     H66232   6.591   8.562   1.840 -0.9275  0.3472  0.7070
  491MOL0     H66233   6.511   8.437   1.747  2.2790 -0.0081 -0.7713
  491MOL0     H66234   6.419   8.441   2.034 -0.9654  1.3814  1.3965
  491MOL0     H66235   6.332   8.417   1.874 -0.5380  0.6899  1.3923
  491MOL0     H66236   6.349   8.636   1.701 -0.4856 -2.6946  1.7401
  491MOL0     H66237   6.275   9.011   1.819  2.0545  0.9405 -1.2941
  491MOL0     H66238   6.365   8.952   1.695  1.1950 -0.4371  3.2946
  491MOL0     H66239   6.156   8.808   1.624 -4.8016  0.2583 -2.1737
  491MOL0     H66240   6.175   8.974   1.580  1.0949 -1.1320 -1.4272
  491MOL0     H66241   6.050   9.029   1.800  2.7276 -0.4200 -0.2515
  491MOL0     H66242   6.022   8.850   1.822 -2.3118 -3.4410 -4.2159
  491MOL0     H66243   5.921   8.843   1.600 -2.7566 -0.6106  3.1835
  491MOL0     H66244   5.930   9.036   1.596  4.0695  3.3702  4.7464
  491MOL0     H66245   5.566   8.941   1.862 -1.8697 -0.2663 -0.7893
  491MOL0     H66246   5.362   8.960   1.906  0.1422 -1.4846 -0.3574
  491MOL0     H66247   5.252   9.016   1.788  0.8424  0.3692  1.6282
  491MOL0     H66248   5.266   8.835   1.825 -1.0072  0.2144  2.6857
  491MOL0     H66249   5.138   9.044   1.184 -0.2788 -1.0927 -1.3721
  491MOL0     H66250   4.927   8.997   1.072 -1.3892  0.6826  0.8054
  491MOL0     H66251   4.693   9.037   1.045  0.5434  0.1251  2.4897
  491MOL0     H66252   4.730   8.865   1.004  2.3946  1.0739  0.2839
  491MOL0     H66253   4.488   8.814   1.125 -0.3205  1.3184  0.6504
  491MOL0     H66254   4.474   8.993   1.123  0.9737  0.9937  1.1763
  491MOL0     H66255   4.498   8.825   0.877  0.8790  0.8200 -0.0954
  491MOL0     H66256   4.492   9.001   0.890  2.6852 -0.0822  2.4284
  491MOL0     H66257   4.273   8.818   0.996  0.8591  1.3390  1.3349
  491MOL0     H66258   4.264   8.991   0.975 -2.3087 -1.6264  0.7428
  491MOL0     H66259   4.270   8.796   0.727  4.6975  1.0077  0.0897
  491MOL0     H66260   4.290   8.970   0.718  1.1116 -1.5948 -1.6668
  491MOL0     H66261   4.044   8.807   0.791  1.8296 -0.8810 -0.6262
  491MOL0     H66262   4.045   8.972   0.845  0.5672  1.5572 -1.9954
  491MOL0     H66263   3.976   8.871   0.592 -1.1556  0.7202 -1.0650
  491MOL0     H66264   4.135   8.916   0.560 -0.3937 -4.1647 -0.2019
  491MOL0     H66265   3.973   9.107   0.512  1.5641 -0.4519 -0.4530
  491MOL0     H66266   4.089   9.156   0.635 -0.3763 -0.1357 -2.0453
  491MOL0     H66267   4.774   8.829   1.426  0.1098 -1.4094 -1.3465
  491MOL0     H66268   4.983   8.847   1.552 -2.7363 -0.1895  0.3698
  491MOL0     H66269   5.513   8.871   1.380 -3.1223 -1.0668 -0.2214
  491MOL0     H66270   5.735   8.895   1.463 -0.8791  1.3674 -1.9311
  491MOL0     H66271   7.443   8.854   1.736 -2.9231 -3.8624 -1.6378
  491MOL0     H66272   7.604   8.961   1.863  0.2322 -2.6883 -4.1986
  491MOL0     H66273   7.777   9.166   2.130 -1.7390  1.5909 -2.7599
  491MOL0     H66274   7.876   9.378   2.229 -1.1282 -1.9676 -3.5483
  491MOL0     H66275   7.948   9.547   2.336  1.6838  1.1571 -2.0359
  491MOL0     H66276   7.863   9.603   2.205  2.5904 -3.8513  0.4774
  491MOL0     H66277   7.827   9.820   2.332 -0.1718  0.0590 -0.2969
  491MOL0     H66278   7.992   9.785   2.322  0.1131  0.2875  1.8720
  491MOL0     H66279   7.855   9.665   2.572  2.6700 -3.5626 -3.9600
  491MOL0     H66280   7.878   9.847   2.566  0.7271 -0.2873  0.0854
  491MOL0     H66281   8.029   9.687   2.692  4.0609  0.3105  1.0433
  491MOL0     H66282   8.097   9.813   2.597  3.3517 -1.4384 -1.1685
  491MOL0     H66283   8.263   9.464   2.419  1.8201  0.3061  0.6808
  491MOL0     H66284   7.515   9.461   2.441 -0.0488  2.0182 -1.5455
  491MOL0     H66285   7.422   9.251   2.340  0.9521 -2.1372  1.5714
  492MOL0     O66286   5.010   7.376   6.866 -0.0919 -0.1522 -0.2547
  492MOL0     C66287   4.923   7.293   6.838 -0.8149  0.3597 -0.2160
  492MOL0     O66288   4.798   7.278   6.902 -0.3778  0.1846  0.2838
  492MOL0     C66289   4.737   7.377   6.973  0.8242  0.4640  0.2991
  492MOL0     C66290   4.604   7.362   6.980  0.0874  0.2207  0.1783
  492MOL0     C66291   4.524   7.467   7.040  0.4134 -0.0215  0.9775
  492MOL0     C66292   4.579   7.581   7.096 -0.0883  0.5361 -0.8693
  492MOL0     O66293   4.507   7.692   7.132  0.9930 -0.0305 -0.0891
  492MOL0     C66294   4.387   7.729   7.057 -0.1639  0.2055  0.0851
  492MOL0     C66295   4.429   7.770   6.912 -0.1689 -0.0729 -0.0941
  492MOL0     C66296   4.520   7.889   6.913 -0.3315 -0.1472  0.2180
  492MOL0     C66297   4.548   7.939   6.777  0.1003  0.4912 -0.3839
  492MOL0     C66298   4.674   8.021   6.762  0.6422 -0.2644 -0.3381
  492MOL0     C66299   4.665   8.136   6.864  0.6121  0.2775  0.1698
  492MOL0     C66300   4.797   8.209   6.881 -1.2296  0.4414 -0.3130
  492MOL0     C66301   4.907   8.136   6.952 -0.6589  0.2774 -0.4496
  492MOL0     N66302   4.985   8.234   7.028  0.2897 -0.0685  1.2528
  492MOL0     C66303   5.096   8.293   6.973  0.0519  0.1037  0.5533
  492MOL0     C66304   5.137   8.373   7.077  0.6135  0.2940  0.1113
  492MOL0     C66305   5.255   8.448   7.057  0.5964 -0.0542  0.2471
  492MOL0     C66306   5.215   8.594   7.028 -0.9099  0.5328 -0.1938
  492MOL0     C66307   5.214   8.605   6.888  0.1852 -0.6873  0.3885
  492MOL0     C66308   5.214   8.746   6.816  0.0801  1.3618  0.0004
  492MOL0     O66309   5.081   8.795   6.839 -0.4684  0.0347 -0.6791
  492MOL0     C66310   5.017   8.884   6.755 -0.4564 -0.3845 -0.0659
  492MOL0     C66311   4.887   8.934   6.781  0.1389  0.4326 -0.1335
  492MOL0     C66312   4.817   9.012   6.694  0.7567  0.0848  0.0920
  492MOL0     C66313   4.679   9.052   6.734  0.9091 -0.4798 -0.1576
  492MOL0     C66314   4.885   9.057   6.580  0.3396 -0.2748  0.3832
  492MOL0     C66315   4.829   9.158   6.485 -0.2364 -0.1276  0.0618
  492MOL0     O66316   4.890   9.164   6.358  0.8105 -0.0588 -0.6974
  492MOL0     C66317   4.847   9.269   6.271 -0.2408  1.2860 -0.7907
  492MOL0     C66318   4.839   9.228   6.146  0.0011 -0.0602  0.2598
  492MOL0     C66319   4.786   9.306   6.041 -0.4571 -1.1281  0.0030
  492MOL0     C66320   4.779   9.448   6.055  0.5671  0.1164 -0.7844
  492MOL0     O66321   4.771   9.535   5.951  0.6229  0.1208 -0.1588
  492MOL0     C66322   4.664   9.506   5.847 -0.6179  0.2101 -1.1039
  492MOL0     C66323   4.723   9.490   5.709  0.4626 -0.7983  0.3970
  492MOL0     C66324   4.799   9.623   5.680  0.4095 -0.3193  0.0738
  492MOL0     C66325   4.826   9.638   5.524  0.9851  0.0847 -0.1655
  492MOL0     C66326   4.924   9.759   5.509  0.2435 -0.5214  0.3072
  492MOL0     C66327   4.936   9.809   5.360 -0.7104 -0.4124  0.6054
  492MOL0     C66328   5.017   9.716   5.271  0.3780 -0.5587 -0.5564
  492MOL0     C66329   5.017   9.758   5.126 -0.8982 -0.3178  0.4321
  492MOL0    Cl66330   4.861   9.767   5.052  0.3298 -0.2593 -0.2335
  492MOL0     C66331   4.793   9.494   6.190 -0.8383  0.4121  0.3332
  492MOL0     C66332   4.830   9.407   6.297 -0.1277  0.4465  0.5931
  492MOL0     O66333   4.746   9.234   6.529 -0.5712 -0.0329 -0.3884
  492MOL0     C66334   5.018   9.020   6.555 -0.8833  0.3431 -0.3394
  492MOL0     C66335   5.084   8.929   6.647  0.7639 -0.0474  0.6481
  492MOL0     N66336   5.066   8.356   7.189 -0.5758 -0.0257 -0.6188
  492MOL0     N66337   4.975   8.270   7.161 -0.3452 -0.1202  0.3431
  492MOL0     C66338   4.716   7.592   7.092  0.3107  0.4540 -0.1972
  492MOL0     C66339   4.790   7.485   7.031  0.3324 -0.4884  0.1505
  492MOL0     C66340   4.933   7.197   6.729 -0.0927 -0.3980 -0.1082
  492MOL0     C66341   4.852   7.085   6.718 -0.5818 -0.3982 -0.2419
  492MOL0     C66342   4.865   6.992   6.617 -0.4950  0.2687  0.0161
  492MOL0     C66343   4.965   7.001   6.518 -0.1674 -0.5822 -0.1990
  492MOL0     O66344   4.964   6.909   6.421  0.6525 -0.3935  0.2143
  492MOL0     C66345   5.045   6.801   6.444  0.8786  0.3015  0.6779
  492MOL0     C66346   5.201   6.819   6.415  0.6307  0.2367 -0.8548
  492MOL0     C66347   5.217   6.832   6.262  1.5051  0.4793 -0.6675
  492MOL0     C66348   5.363   6.856   6.227 -0.6995 -0.0693 -0.4471
  492MOL0     C66349   5.373   6.890   6.083 -0.6125 -0.6064  0.6335
  492MOL0     C66350   5.382   6.912   5.963  0.7729  0.8660  0.4631
  492MOL0     C66351   5.049   7.118   6.528  0.3626 -0.3832 -1.0349
  492MOL0     C66352   5.035   7.213   6.631  0.3140  0.0280 -0.7437
  492MOL0     H66353   4.571   7.276   6.924  5.2375 -2.0366  0.0601
  492MOL0     H66354   4.415   7.464   7.045  0.0227 -0.3825 -3.5553
  492MOL0     H66355   4.309   7.653   7.050  1.2783 -1.2981 -0.3754
  492MOL0     H66356   4.354   7.822   7.104 -0.3650 -0.7805  1.9782
  492MOL0     H66357   4.479   7.681   6.872 -1.0089 -0.7769  0.3928
  492MOL0     H66358   4.345   7.791   6.845 -0.5661 -2.6556 -0.4925
  492MOL0     H66359   4.461   7.966   6.964  1.1733 -0.6126  2.8230
  492MOL0     H66360   4.606   7.882   6.980  1.7877  0.7359 -2.2672
  492MOL0     H66361   4.539   7.859   6.703  0.9469  2.1382 -2.3702
  492MOL0     H66362   4.475   8.013   6.741  2.3241  2.4716 -1.0457
  492MOL0     H66363   4.750   7.945   6.785 -0.2047 -1.8963 -2.6358
  492MOL0     H66364   4.696   8.058   6.662 -1.4082  0.8117 -0.4339
  492MOL0     H66365   4.579   8.204   6.853  0.1820 -0.0660  1.2317
  492MOL0     H66366   4.638   8.099   6.963 -0.5271  0.1944 -0.1555
  492MOL0     H66367   4.839   8.242   6.786  2.4891  2.8795  1.8819
  492MOL0     H66368   4.779   8.303   6.934  0.4751 -0.2276  1.6241
  492MOL0     H66369   4.974   8.079   6.887 -0.4907 -0.3842  0.2812
  492MOL0     H66370   4.873   8.072   7.033  1.1095 -1.8129 -1.2674
  492MOL0     H66371   5.134   8.284   6.872  1.9697 -0.2390  1.2542
  492MOL0     H66372   5.327   8.449   7.140  1.5559  1.0803 -0.5687
  492MOL0     H66373   5.330   8.398   6.996  0.4831 -0.6661  0.6007
  492MOL0     H66374   5.296   8.655   7.070  1.3346 -0.8992 -2.2086
  492MOL0     H66375   5.119   8.620   7.072 -1.0791 -0.5283  0.0828
  492MOL0     H66376   5.126   8.548   6.858  0.2582 -0.2317 -0.7403
  492MOL0     H66377   5.304   8.565   6.841 -1.5872 -1.0538 -3.0219
  492MOL0     H66378   5.247   8.730   6.713  0.3976 -2.3764  0.5356
  492MOL0     H66379   5.290   8.799   6.873 -0.8179  2.1960  0.4528
  492MOL0     H66380   4.858   8.919   6.884  2.0293 -0.8026  0.2687
  492MOL0     H66381   4.639   9.008   6.826 -2.9365  2.5089 -0.1416
  492MOL0     H66382   4.680   9.157   6.764  0.1068 -1.0301  1.9779
  492MOL0     H66383   4.600   9.027   6.663  1.0783 -0.8531 -0.2181
  492MOL0     H66384   4.860   9.123   6.128  0.5685 -0.1618  1.4272
  492MOL0     H66385   4.803   9.256   5.945  0.5153 -1.2198  0.2129
  492MOL0     H66386   4.613   9.418   5.887  1.8362 -1.5652 -1.6736
  492MOL0     H66387   4.590   9.587   5.850  0.3707  1.1143  0.3893
  492MOL0     H66388   4.797   9.409   5.708  3.9210  2.1294 -0.2402
  492MOL0     H66389   4.640   9.468   5.641 -0.6363 -2.5397  2.1952
  492MOL0     H66390   4.891   9.621   5.739  1.0360  0.3961 -0.8519
  492MOL0     H66391   4.735   9.706   5.714 -2.8142 -2.5263 -0.1783
  492MOL0     H66392   4.874   9.553   5.474 -1.1155  0.9819 -4.2117
  492MOL0     H66393   4.730   9.644   5.471  0.5035 -0.4715  0.6151
  492MOL0     H66394   5.019   9.745   5.562  0.1809  3.8502  2.0572
  492MOL0     H66395   4.878   9.840   5.567  1.9502  1.1430 -0.5522
  492MOL0     H66396   4.837   9.832   5.321 -0.1888  2.8234  0.9103
  492MOL0     H66397   4.995   9.901   5.358  2.1210 -2.0883  1.3267
  492MOL0     H66398   4.968   9.618   5.275  0.3774 -0.5645 -0.7202
  492MOL0     H66399   5.116   9.705   5.318 -1.5925 -4.4657  3.3608
  492MOL0     H66400   5.070   9.684   5.065  1.6556 -0.2374  2.4262
  492MOL0     H66401   5.063   9.857   5.124  0.8881 -1.0893 -2.4841
  492MOL0     H66402   4.770   9.596   6.218  1.5314  0.9198  0.7251
  492MOL0     H66403   4.851   9.436   6.400  2.5341 -0.9655  0.5405
  492MOL0     H66404   5.081   9.061   6.477  1.8400 -1.4110  0.7602
  492MOL0     H66405   5.190   8.911   6.631  0.5175  0.3104 -1.6834
  492MOL0     H66406   4.756   7.684   7.133 -1.4622  1.8824 -1.4873
  492MOL0     H66407   4.897   7.472   7.038  0.0684 -2.9235  0.5325
  492MOL0     H66408   4.776   7.059   6.791  0.9764 -6.3071 -0.2066
  492MOL0     H66409   4.789   6.915   6.619 -0.0183 -0.2023  0.2041
  492MOL0     H66410   5.042   6.779   6.552 -1.1631 -1.3125  0.3554
  492MOL0     H66411   4.999   6.712   6.402 -1.7859  0.6552  2.5668
  492MOL0     H66412   5.255   6.730   6.449 -0.5158 -0.4183 -0.6941
  492MOL0     H66413   5.236   6.911   6.462  2.9299  1.2100 -4.1052
  492MOL0     H66414   5.149   6.911   6.228  1.8695  0.7290 -0.8251
  492MOL0     H66415   5.170   6.746   6.213  1.0782  0.3428 -0.0271
  492MOL0     H66416   5.428   6.771   6.249  1.8018  1.8734  0.1386
  492MOL0     H66417   5.407   6.938   6.285 -2.6839 -0.2030  1.3303
  492MOL0     H66418   5.375   6.955   5.865  1.5773  2.4814  1.0699
  492MOL0     H66419   5.139   7.128   6.467  2.0651 -1.2463  1.1825
  492MOL0     H66420   5.106   7.296   6.624  2.4374 -1.1788  3.2030
  493MOL0     O66421   5.239   3.129   8.802  0.4552  0.0600 -0.1690
  493MOL0     C66422   5.138   3.146   8.734 -0.2204  0.6203  0.5130
  493MOL0     O66423   5.126   3.112   8.596  0.1093  0.4425 -0.1545
  493MOL0     C66424   5.235   3.080   8.525 -0.0616 -0.2716 -0.4104
  493MOL0     C66425   5.209   2.999   8.415  1.0269 -0.0637 -0.0531
  493MOL0     C66426   5.312   2.966   8.321 -0.7306  1.0397 -0.2960
  493MOL0     C66427   5.448   3.011   8.336  0.7973  0.4484  0.0928
  493MOL0     O66428   5.554   2.965   8.257  0.3132 -0.2106  0.5121
  493MOL0     C66429   5.661   3.053   8.202 -0.3303  0.6954 -0.1396
  493MOL0     C66430   5.722   3.002   8.069 -0.3099  0.4923 -0.0464
  493MOL0     C66431   5.770   2.856   8.076 -0.6392 -0.4479  0.2873
  493MOL0     C66432   5.915   2.838   8.024  0.1435  0.9726 -0.8609
  493MOL0     C66433   5.962   2.688   8.017 -0.3213 -0.0881 -0.7780
  493MOL0     C66434   5.869   2.589   7.941 -1.0406 -0.3947  0.3038
  493MOL0     C66435   5.910   2.440   7.964 -0.8601  0.5820 -0.3996
  493MOL0     C66436   6.021   2.389   7.879  0.5791 -0.0891  0.4677
  493MOL0     N66437   6.025   2.244   7.871 -0.5125  0.6724  0.4501
  493MOL0     C66438   5.931   2.152   7.906 -0.6652  0.3474 -0.3705
  493MOL0     C66439   5.971   2.036   7.846  1.1747  0.7958 -0.0060
  493MOL0     C66440   5.901   1.910   7.882 -0.2282  0.0167 -0.5553
  493MOL0     C66441   5.995   1.823   7.970 -1.0360  0.4447  0.5091
  493MOL0     C66442   5.930   1.704   8.022 -0.7811 -0.5711 -0.2537
  493MOL0     C66443   6.027   1.648   8.123 -1.7508  0.6600  0.4148
  493MOL0     O66444   5.970   1.526   8.164  0.0363  0.0938  0.5753
  493MOL0     C66445   6.068   1.433   8.192  0.5345 -0.0679 -0.1078
  493MOL0     C66446   6.116   1.426   8.327 -0.9134 -0.3173 -0.2967
  493MOL0     C66447   6.231   1.347   8.360  0.2637  0.7918  0.1134
  493MOL0     C66448   6.274   1.333   8.508 -0.5266 -0.5967 -0.3389
  493MOL0     C66449   6.291   1.277   8.254 -0.4448 -0.2364  0.4684
  493MOL0     C66450   6.394   1.172   8.278 -0.0985  0.5318  1.0430
  493MOL0     O66451   6.365   1.055   8.224  0.3306 -0.3027 -0.2424
  493MOL0     C66452   6.463   0.966   8.209 -0.3896  0.3887  0.2330
  493MOL0     C66453   6.456   0.834   8.255  0.2363 -0.2741  0.3214
  493MOL0     C66454   6.551   0.738   8.228  0.4449 -0.2248 -0.1487
  493MOL0     C66455   6.664   0.769   8.151 -0.5414  0.2325 -0.2989
  493MOL0     O66456   6.768   0.681   8.122 -0.1878  0.5368 -0.2548
  493MOL0     C66457   6.745   0.546   8.157 -0.4487  0.4622  0.1356
  493MOL0     C66458   6.871   0.456   8.115  0.3325 -0.2729  0.3000
  493MOL0     C66459   6.886   0.433   7.968 -0.6328  0.7532  0.5933
  493MOL0     C66460   7.011   0.338   7.947 -0.3992 -0.3276 -0.6938
  493MOL0     C66461   7.036   0.313   7.804 -0.3653  0.1694 -1.0959
  493MOL0     C66462   7.108   0.428   7.738  0.2745  0.3002  0.8048
  493MOL0     C66463   7.164   0.385   7.602 -0.0920 -1.1843 -0.6461
  493MOL0     C66464   7.284   0.476   7.576  0.0795  0.3934  0.4142
  493MOL0    Cl66465   7.235   0.623   7.485 -0.0987  0.0899  0.2252
  493MOL0     C66466   6.677   0.899   8.103 -0.0877 -0.4570  0.6915
  493MOL0     C66467   6.578   1.001   8.128  0.0287 -0.0961 -0.8694
  493MOL0     O66468   6.499   1.206   8.324  0.0384 -0.0653  0.4450
  493MOL0     C66469   6.236   1.279   8.127  0.1237  0.5690  0.1671
  493MOL0     C66470   6.129   1.354   8.093  0.2599 -0.0639  0.1260
  493MOL0     N66471   6.084   2.059   7.771 -0.7523 -0.1326 -0.3299
  493MOL0     N66472   6.110   2.188   7.785  0.3488  0.3323  0.1338
  493MOL0     C66473   5.464   3.088   8.448  0.1192 -0.7777 -1.0303
  493MOL0     C66474   5.362   3.128   8.537 -0.1775  0.7630  0.1869
  493MOL0     C66475   5.030   3.213   8.808  0.5221  0.3329 -0.8257
  493MOL0     C66476   4.946   3.303   8.738 -1.2833 -0.2520 -0.5659
  493MOL0     C66477   4.837   3.348   8.790 -0.9001 -0.3092 -0.9343
  493MOL0     C66478   4.822   3.343   8.928  0.0191 -0.8570  0.1316
  493MOL0     O66479   4.706   3.405   8.970 -0.4442  0.1469  0.0380
  493MOL0     C66480   4.672   3.410   9.110 -0.1263  0.1279 -0.2710
  493MOL0     C66481   4.779   3.487   9.179  0.4914  0.7546  0.0240
  493MOL0     C66482   4.734   3.503   9.327 -0.3354 -0.4826  0.1133
  493MOL0     C66483   4.863   3.549   9.405  0.4545 -1.0086  0.2319
  493MOL0     C66484   4.833   3.602   9.540 -0.3443 -0.0933 -0.6340
  493MOL0     C66485   4.812   3.617   9.660  0.2046 -0.4956 -0.1962
  493MOL0     C66486   4.909   3.252   8.993  0.1406 -0.2712  0.3608
  493MOL0     C66487   5.010   3.178   8.940 -0.2431 -0.0513 -0.7683
  493MOL0     H66488   5.103   2.974   8.413  0.1121  3.3026 -0.4678
  493MOL0     H66489   5.288   2.891   8.246 -2.7514  0.9027  0.4078
  493MOL0     H66490   5.621   3.153   8.184  0.7873  1.1302 -0.2293
  493MOL0     H66491   5.731   3.066   8.285  0.7106 -0.1192 -0.8708
  493MOL0     H66492   5.661   3.005   7.978  1.0927  0.8895 -1.0126
  493MOL0     H66493   5.806   3.067   8.046  0.2955  0.9130  3.0130
  493MOL0     H66494   5.773   2.812   8.176  0.8094  0.4200  0.6504
  493MOL0     H66495   5.698   2.794   8.020  0.0277  0.9355 -2.2905
  493MOL0     H66496   5.924   2.879   7.923  0.4844 -1.4517 -1.8859
  493MOL0     H66497   5.975   2.903   8.088  0.1841 -2.1906  2.6883
  493MOL0     H66498   6.056   2.681   7.962 -0.0647  0.1755 -0.3828
  493MOL0     H66499   5.977   2.661   8.122  0.6089  2.0276 -0.3055
  493MOL0     H66500   5.763   2.602   7.966 -0.2237  2.3715  2.9783
  493MOL0     H66501   5.874   2.608   7.833  3.3786 -2.4881 -0.0836
  493MOL0     H66502   5.942   2.417   8.066  1.1089  0.8775 -0.9057
  493MOL0     H66503   5.823   2.377   7.942  1.2568 -2.1933 -1.3868
  493MOL0     H66504   6.114   2.437   7.909  0.5800  1.9871 -2.4280
  493MOL0     H66505   6.004   2.413   7.774 -0.8066 -3.0022 -0.0772
  493MOL0     H66506   5.847   2.167   7.972  1.4923 -0.1706  2.6825
  493MOL0     H66507   5.808   1.938   7.934  0.2233 -0.9169  0.8129
  493MOL0     H66508   5.874   1.860   7.789 -0.8757 -2.9332  1.0833
  493MOL0     H66509   6.032   1.889   8.048  0.5720 -0.4668  0.5420
  493MOL0     H66510   6.082   1.799   7.908 -1.9667 -0.1293 -0.6377
  493MOL0     H66511   5.895   1.643   7.939 -0.6504 -0.3446 -0.4758
  493MOL0     H66512   5.839   1.733   8.075 -2.4300 -0.8870 -2.7726
  493MOL0     H66513   6.041   1.719   8.205 -0.7627  1.2137 -0.1998
  493MOL0     H66514   6.129   1.629   8.088 -1.4086  3.3358 -0.2616
  493MOL0     H66515   6.055   1.479   8.399 -3.5392 -0.4380 -2.3152
  493MOL0     H66516   6.222   1.410   8.566  0.5457 -0.5611  0.6114
  493MOL0     H66517   6.244   1.238   8.553  0.5731 -0.8686 -0.1624
  493MOL0     H66518   6.381   1.339   8.525 -1.0183  0.2773  3.1208
  493MOL0     H66519   6.366   0.808   8.310 -1.1248  2.1514 -0.6083
  493MOL0     H66520   6.536   0.633   8.253 -1.4054 -0.1537 -0.8129
  493MOL0     H66521   6.739   0.547   8.266  1.1948  1.1083  0.2483
  493MOL0     H66522   6.650   0.500   8.129 -1.9800  1.2759  3.4883
  493MOL0     H66523   6.966   0.508   8.133 -0.6464  1.4600  0.6681
  493MOL0     H66524   6.870   0.369   8.182 -0.4153  0.4651  1.2745
  493MOL0     H66525   6.905   0.518   7.902  3.1807 -1.3816 -1.4567
  493MOL0     H66526   6.801   0.373   7.936 -0.0227  0.7475 -1.1244
  493MOL0     H66527   7.103   0.367   7.998  0.0533 -2.0873 -0.4509
  493MOL0     H66528   6.990   0.244   7.997  1.8059  0.4327  1.9307
  493MOL0     H66529   6.941   0.294   7.753 -1.1975  0.5913  0.2275
  493MOL0     H66530   7.096   0.221   7.805 -3.5666 -2.1918  2.2509
  493MOL0     H66531   7.024   0.496   7.722 -0.0938 -0.2099  0.4929
  493MOL0     H66532   7.178   0.476   7.806  0.7101  1.4365 -0.4080
  493MOL0     H66533   7.087   0.401   7.527 -0.8863  3.0144  0.8066
  493MOL0     H66534   7.198   0.281   7.597  0.4222 -1.2114  2.0033
  493MOL0     H66535   7.345   0.418   7.506 -0.5126 -1.5753  1.4370
  493MOL0     H66536   7.348   0.493   7.663  0.8859 -4.2400  0.9683
  493MOL0     H66537   6.763   0.937   8.048 -2.1355  2.5776 -0.7228
  493MOL0     H66538   6.589   1.106   8.105 -2.6761  0.0019 -2.0960
  493MOL0     H66539   6.264   1.207   8.051 -1.9796 -0.0134 -0.1300
  493MOL0     H66540   6.090   1.363   7.992 -2.3725  1.5556  1.1682
  493MOL0     H66541   5.565   3.114   8.476 -0.2927  0.8292 -0.9477
  493MOL0     H66542   5.379   3.201   8.616  0.2049  0.4567  0.3928
  493MOL0     H66543   4.968   3.315   8.632  3.9032 -1.9226  0.0603
  493MOL0     H66544   4.764   3.406   8.735 -0.6719 -0.1967 -1.1223
  493MOL0     H66545   4.578   3.462   9.129 -0.0090  0.3214 -0.2051
  493MOL0     H66546   4.664   3.314   9.161 -2.0238 -0.3091 -1.3094
  493MOL0     H66547   4.796   3.588   9.140 -4.0827  2.1952  1.0946
  493MOL0     H66548   4.871   3.428   9.174 -0.0750 -0.2773  1.2913
  493MOL0     H66549   4.686   3.412   9.362  0.2323 -0.4060  1.1111
  493MOL0     H66550   4.658   3.582   9.327  3.1055  3.1559 -0.3818
  493MOL0     H66551   4.923   3.626   9.355  1.4007  0.0114  2.8009
  493MOL0     H66552   4.928   3.462   9.412  1.0679 -0.4679  1.4812
  493MOL0     H66553   4.786   3.638   9.762 -4.5560 -0.4416 -1.1577
  493MOL0     H66554   4.889   3.232   9.098  0.5525  0.9285  0.6798
  493MOL0     H66555   5.068   3.101   8.989 -1.7449 -0.0552  1.1112
  494MOL0     O66556   1.822   1.595   2.556 -0.0674  0.2931  0.5789
  494MOL0     C66557   1.907   1.572   2.640 -0.5859  0.2841 -0.8163
  494MOL0     O66558   1.990   1.460   2.643 -0.6529  0.8806 -0.1606
  494MOL0     C66559   1.998   1.375   2.532  0.7436  0.5037  0.0849
  494MOL0     C66560   2.123   1.326   2.490 -0.3037 -0.3061  0.2317
  494MOL0     C66561   2.130   1.227   2.389 -0.1253 -0.1797 -0.2708
  494MOL0     C66562   2.018   1.188   2.317  0.5216 -0.7503 -0.1289
  494MOL0     O66563   2.051   1.114   2.204 -0.4651  0.8030 -0.2969
  494MOL0     C66564   1.938   1.049   2.142  0.0041 -0.3101  0.3276
  494MOL0     C66565   1.904   1.125   2.009 -1.0339  0.0893 -1.1416
  494MOL0     C66566   2.028   1.142   1.921  0.5062  0.8156  0.1287
  494MOL0     C66567   1.987   1.181   1.779 -0.9399  0.0613 -0.1476
  494MOL0     C66568   2.079   1.152   1.654 -0.1724  0.1363 -0.0805
  494MOL0     C66569   2.200   1.244   1.658 -0.7697 -0.3739 -0.2752
  494MOL0     C66570   2.269   1.261   1.532 -0.3892  0.0410  0.7374
  494MOL0     C66571   2.377   1.366   1.522 -0.2447  0.0124  0.6471
  494MOL0     N66572   2.509   1.332   1.595  0.7130 -0.0916  0.4787
  494MOL0     C66573   2.527   1.308   1.732  0.3897  0.0220 -0.1492
  494MOL0     C66574   2.655   1.268   1.736 -0.8471 -0.2622  0.1726
  494MOL0     C66575   2.734   1.231   1.861 -0.1529  0.1386 -0.7962
  494MOL0     C66576   2.745   1.345   1.968  0.6282 -0.6934 -0.0110
  494MOL0     C66577   2.666   1.320   2.106 -0.2803  0.1725  0.5844
  494MOL0     C66578   2.515   1.341   2.105 -0.3169  0.5838  1.0581
  494MOL0     O66579   2.482   1.466   2.042 -0.4868  0.2488 -0.1884
  494MOL0     C66580   2.348   1.480   2.033 -0.1166  0.1512  0.5370
  494MOL0     C66581   2.299   1.531   1.913 -0.3740 -0.4693  0.6596
  494MOL0     C66582   2.158   1.548   1.893 -1.1357  0.0055 -0.1472
  494MOL0     C66583   2.121   1.612   1.763  0.3201 -0.2074  0.7291
  494MOL0     C66584   2.069   1.535   2.006  0.3901 -0.2512 -0.3998
  494MOL0     C66585   1.921   1.544   2.006 -1.0711 -0.1932  1.2332
  494MOL0     O66586   1.857   1.523   2.121 -0.1600 -0.4169  0.4145
  494MOL0     C66587   1.717   1.512   2.116 -0.1262  0.0880 -0.0097
  494MOL0     C66588   1.654   1.444   2.017 -1.3255 -0.6405  0.0795
  494MOL0     C66589   1.521   1.449   1.997  0.1447 -0.2548  1.5604
  494MOL0     C66590   1.435   1.524   2.088  0.3413 -0.5715 -0.1670
  494MOL0     O66591   1.304   1.494   2.069  0.6208 -0.9315 -0.8004
  494MOL0     C66592   1.210   1.567   2.151 -0.4955  0.1547 -0.6448
  494MOL0     C66593   1.066   1.498   2.147 -0.5474  0.2991 -0.1848
  494MOL0     C66594   1.059   1.350   2.197 -0.4584  0.2229  0.2787
  494MOL0     C66595   1.055   1.347   2.346 -0.5261  0.1489  0.5267
  494MOL0     C66596   1.003   1.222   2.408 -0.1242  0.7013 -0.3720
  494MOL0     C66597   1.035   1.212   2.556 -0.3642  0.0764 -0.2051
  494MOL0     C66598   1.015   1.061   2.598  0.1987  0.1392 -1.0558
  494MOL0     C66599   1.021   1.042   2.748 -0.2357  0.3983  0.7717
  494MOL0    Cl66600   0.941   0.879   2.766 -0.1959 -0.2743 -0.1737
  494MOL0     C66601   1.501   1.584   2.197  0.0161 -0.3698  0.5230
  494MOL0     C66602   1.642   1.579   2.216  0.0316  0.1414  0.3047
  494MOL0     O66603   1.868   1.579   1.897 -0.1104 -0.1717 -0.5662
  494MOL0     C66604   2.130   1.499   2.129  0.1098 -0.1469 -0.1611
  494MOL0     C66605   2.257   1.475   2.137 -0.2629  0.8240 -0.1492
  494MOL0     N66606   2.708   1.259   1.599  0.6519 -0.3531 -0.5141
  494MOL0     N66607   2.614   1.297   1.518  0.0201 -0.5392 -0.6303
  494MOL0     C66608   1.893   1.240   2.355  0.3763  0.3005  0.4283
  494MOL0     C66609   1.881   1.330   2.458  0.2890 -0.4328 -0.0857
  494MOL0     C66610   1.908   1.656   2.766 -0.5299  0.4355 -0.5888
  494MOL0     C66611   1.802   1.739   2.796 -0.6510  0.3281  0.6627
  494MOL0     C66612   1.810   1.820   2.914  0.1694  0.1817 -0.8265
  494MOL0     C66613   1.921   1.813   3.000  0.4421  0.6947 -0.2867
  494MOL0     O66614   1.915   1.885   3.117  0.2594 -0.3468  0.7761
  494MOL0     C66615   1.925   1.825   3.244  0.7333 -0.3569  0.0956
  494MOL0     C66616   1.812   1.888   3.335  0.0184  0.3835 -0.9883
  494MOL0     C66617   1.862   2.006   3.427  0.8629 -0.2634  0.0941
  494MOL0     C66618   1.970   1.981   3.533  0.0858  0.6830 -0.1080
  494MOL0     C66619   1.965   1.855   3.605  1.2081  0.4216 -0.5392
  494MOL0     C66620   1.947   1.748   3.662  0.0894 -0.4079  0.4141
  494MOL0     C66621   2.033   1.752   2.946 -0.0078 -0.0981 -0.1393
  494MOL0     C66622   2.018   1.662   2.846 -0.3189  0.1177  0.7751
  494MOL0     H66623   2.214   1.363   2.536  0.8923  1.3855 -3.1214
  494MOL0     H66624   2.230   1.192   2.365 -0.8693 -3.0975  0.4824
  494MOL0     H66625   1.970   0.947   2.118 -1.4851 -0.2506 -2.2591
  494MOL0     H66626   1.849   1.048   2.206 -0.1252  1.0004  0.1918
  494MOL0     H66627   1.826   1.058   1.972 -2.7993 -0.2859  2.7408
  494MOL0     H66628   1.851   1.220   2.018 -3.2156 -1.1388 -0.2208
  494MOL0     H66629   2.094   1.219   1.961  0.9663  1.3431 -1.5669
  494MOL0     H66630   2.088   1.051   1.923  0.6662  0.9244  0.2707
  494MOL0     H66631   1.889   1.131   1.778 -0.4631 -1.0852  2.3791
  494MOL0     H66632   1.974   1.290   1.786  1.3568  0.2609  2.9002
  494MOL0     H66633   2.111   1.052   1.621  1.5596  0.4113  0.6339
  494MOL0     H66634   2.008   1.184   1.577 -2.4620 -0.6594  1.6011
  494MOL0     H66635   2.160   1.337   1.700  0.6105  0.8769 -1.5933
  494MOL0     H66636   2.272   1.202   1.729 -0.8207 -1.7560 -1.0120
  494MOL0     H66637   2.311   1.163   1.507 -0.8344 -0.0876  0.4800
  494MOL0     H66638   2.185   1.281   1.464 -1.6249 -1.0843  1.8698
  494MOL0     H66639   2.358   1.461   1.572  1.9951  0.4995  0.6763
  494MOL0     H66640   2.385   1.392   1.416 -1.1529 -0.2099  0.5123
  494MOL0     H66641   2.453   1.312   1.812 -2.5147 -0.6441 -2.6000
  494MOL0     H66642   2.704   1.134   1.903  1.5618  0.7963  2.2412
  494MOL0     H66643   2.837   1.207   1.833  0.0370 -0.6774  0.4819
  494MOL0     H66644   2.720   1.437   1.915  0.1085  1.4472  3.6416
  494MOL0     H66645   2.852   1.338   1.991  0.6240 -1.4603 -0.1833
  494MOL0     H66646   2.703   1.386   2.185  4.0203 -0.3498 -0.7745
  494MOL0     H66647   2.688   1.217   2.134 -0.9760 -0.1338  0.0340
  494MOL0     H66648   2.475   1.328   2.206  0.0300  1.0068  1.2563
  494MOL0     H66649   2.462   1.259   2.056  4.1391 -2.2682  0.5153
  494MOL0     H66650   2.364   1.553   1.828 -1.2760 -0.0669  0.0515
  494MOL0     H66651   2.059   1.542   1.705 -0.7003 -0.4053  2.0151
  494MOL0     H66652   2.060   1.702   1.776 -3.2851 -2.1479 -1.2178
  494MOL0     H66653   2.207   1.629   1.698 -0.8134  0.7029 -0.5930
  494MOL0     H66654   1.710   1.385   1.944 -0.1877 -0.4173  0.7544
  494MOL0     H66655   1.480   1.392   1.915  1.7355  0.1228  0.4509
  494MOL0     H66656   1.236   1.547   2.255  1.0293  0.7735 -0.8803
  494MOL0     H66657   1.200   1.675   2.136  2.2688  0.8567  1.6506
  494MOL0     H66658   0.983   1.555   2.190 -1.4530  0.9503 -2.6672
  494MOL0     H66659   1.042   1.492   2.041 -0.9318  1.4605 -0.1845
  494MOL0     H66660   1.150   1.299   2.162 -0.0089 -0.6294  2.4866
  494MOL0     H66661   0.968   1.300   2.162  0.6565 -1.6405 -0.1181
  494MOL0     H66662   1.156   1.373   2.378 -0.8139  1.6747  0.3103
  494MOL0     H66663   0.996   1.429   2.389 -0.5603 -0.7068  2.1638
  494MOL0     H66664   1.057   1.140   2.360  1.0673  1.6531 -0.7043
  494MOL0     H66665   0.895   1.217   2.387  0.3225 -1.8852 -2.5429
  494MOL0     H66666   1.142   1.233   2.561 -0.8413  2.4834  2.2279
  494MOL0     H66667   0.975   1.277   2.621 -0.9696 -1.3792  0.7424
  494MOL0     H66668   1.082   0.986   2.556 -1.3275 -3.1068  1.7580
  494MOL0     H66669   0.916   1.026   2.565  0.8877 -0.6691 -2.3269
  494MOL0     H66670   0.960   1.116   2.800 -0.7735  0.2067  0.4208
  494MOL0     H66671   1.124   1.049   2.786  1.0286 -1.3073 -2.0298
  494MOL0     H66672   1.433   1.628   2.269  0.9436  1.1429  0.5204
  494MOL0     H66673   1.699   1.636   2.288  3.0356 -1.8819 -0.2652
  494MOL0     H66674   2.077   1.488   2.223  2.9288 -0.1255  1.5449
  494MOL0     H66675   2.279   1.437   2.236 -1.2192 -0.7513 -0.5133
  494MOL0     H66676   1.808   1.222   2.291  0.7468 -2.1874  0.5312
  494MOL0     H66677   1.786   1.364   2.498 -0.2570 -0.6758 -1.1436
  494MOL0     H66678   1.713   1.730   2.735  0.3010 -2.2137 -0.5035
  494MOL0     H66679   1.723   1.866   2.960  2.1831  0.9024  2.6395
  494MOL0     H66680   1.896   1.720   3.237 -2.7122  0.5373 -1.2450
  494MOL0     H66681   2.025   1.851   3.279  0.8024  1.0439 -1.0294
  494MOL0     H66682   1.785   1.804   3.400 -1.9085  1.8132  0.1641
  494MOL0     H66683   1.727   1.920   3.274  0.2571 -1.4482 -2.3725
  494MOL0     H66684   1.774   2.036   3.485  1.5471  2.5751 -0.1652
  494MOL0     H66685   1.895   2.091   3.366 -0.2716  0.4041  0.3758
  494MOL0     H66686   1.973   2.066   3.603 -1.1726 -1.1118  2.2741
  494MOL0     H66687   2.067   1.973   3.482  1.0266  1.6639  1.4175
  494MOL0     H66688   1.924   1.657   3.714 -3.3632  1.2160  2.0787
  494MOL0     H66689   2.119   1.755   3.012 -2.1648  1.5350  2.8698
  494MOL0     H66690   2.103   1.596   2.829  0.3585  0.7652  1.5700
  495MOL0     O66691   0.180   7.866   2.441 -0.0455  0.4955 -0.7210
  495MOL0     C66692   0.167   7.742   2.422  0.4153  0.6318 -0.2653
  495MOL0     O66693   0.210   7.643   2.508  0.5389 -0.3702 -0.7018
  495MOL0     C66694   0.237   7.673   2.643  1.3067 -1.7384  0.8201
  495MOL0     C66695   0.356   7.649   2.715  0.2473 -0.0068  1.1437
  495MOL0     C66696   0.361   7.656   2.853  0.9206 -0.1006  1.0837
  495MOL0     C66697   0.249   7.698   2.928 -0.4088 -0.2740  1.0647
  495MOL0     O66698   0.260   7.724   3.058 -0.4233  0.0904  0.0860
  495MOL0     C66699   0.202   7.615   3.132 -1.0522  0.0162  0.1165
  495MOL0     C66700   0.165   7.684   3.266  0.1621  0.2098 -0.3301
  495MOL0     C66701   0.029   7.627   3.315 -0.4926 -0.6201  0.1802
  495MOL0     C66702   0.003   7.686   3.456 -1.0763  0.1125 -0.9393
  495MOL0     C66703  -0.146   7.683   3.508  0.4694  0.1767  0.2842
  495MOL0     C66704  -0.209   7.542   3.516  0.7193 -0.4127 -0.6609
  495MOL0     C66705  -0.358   7.541   3.561 -0.1053  0.4103 -0.4276
  495MOL0     C66706  -0.435   7.406   3.521 -0.1470  1.0336  0.8881
  495MOL0     N66707  -0.582   7.422   3.548  0.3375  0.5711  0.6680
  495MOL0     C66708  -0.681   7.384   3.458 -0.0181  0.9038 -0.7037
  495MOL0     C66709  -0.796   7.409   3.521 -0.1543 -0.1491 -0.8592
  495MOL0     C66710  -0.929   7.398   3.459 -0.3719 -0.0669 -0.5464
  495MOL0     C66711  -1.054   7.454   3.532 -0.6764  0.0521 -0.0928
  495MOL0     C66712  -1.061   7.606   3.509 -0.9664 -0.6280 -0.0427
  495MOL0     C66713  -1.103   7.642   3.363  0.6977  0.0538  1.5050
  495MOL0     O66714  -1.199   7.737   3.363 -0.1069  0.8096 -0.1124
  495MOL0     C66715  -1.183   7.860   3.427 -0.4401  0.0014 -0.3675
  495MOL0     C66716  -1.293   7.925   3.478 -0.2570  0.6216 -0.0785
  495MOL0     C66717  -1.289   8.056   3.535 -0.1292 -0.4363 -0.5450
  495MOL0     C66718  -1.423   8.127   3.563  0.1555 -0.4145  0.3550
  495MOL0     C66719  -1.162   8.117   3.531 -0.3319 -0.8455 -0.8386
  495MOL0     C66720  -1.138   8.253   3.594 -0.9312 -0.8200  0.3056
  495MOL0     O66721  -1.216   8.291   3.688  0.1320  0.4368 -0.3182
  495MOL0     C66722  -1.226   8.424   3.724  0.0924  0.2654  0.0671
  495MOL0     C66723  -1.279   8.520   3.641 -0.5602 -0.4114 -0.7326
  495MOL0     C66724  -1.311   8.647   3.696  0.0335 -0.1740  0.4293
  495MOL0     C66725  -1.307   8.669   3.839  0.0972 -0.2041  0.0689
  495MOL0     O66726  -1.336   8.798   3.890  0.4482  1.0589 -0.2834
  495MOL0     C66727  -1.313   8.840   4.024 -0.0890  0.8500  0.0300
  495MOL0     C66728  -1.391   8.965   4.047 -0.2723  0.8803  0.0350
  495MOL0     C66729  -1.377   9.008   4.192  0.5978 -0.6045  0.2068
  495MOL0     C66730  -1.416   8.921   4.313  1.3110  0.8780  1.0528
  495MOL0     C66731  -1.559   8.956   4.365 -0.2416 -0.2525  0.4779
  495MOL0     C66732  -1.673   8.911   4.272 -0.4132 -0.1704 -0.4846
  495MOL0     C66733  -1.689   8.764   4.237 -0.2322 -0.2470 -0.2980
  495MOL0     C66734  -1.831   8.727   4.182 -0.5228  0.2134 -0.4778
  495MOL0    Cl66735  -1.844   8.551   4.156  0.1619 -0.2607  0.2766
  495MOL0     C66736  -1.245   8.568   3.914  0.5304  0.1101  0.4123
  495MOL0     C66737  -1.214   8.443   3.863 -0.6335 -1.4634  0.2382
  495MOL0     O66738  -1.068   8.330   3.522 -0.6507 -0.2181 -0.5867
  495MOL0     C66739  -1.046   8.052   3.481  0.2623 -0.1535  0.4012
  495MOL0     C66740  -1.056   7.928   3.427 -0.4329 -0.0985  0.3367
  495MOL0     N66741  -0.763   7.459   3.651  0.1858  0.9799  0.4249
  495MOL0     N66742  -0.637   7.459   3.668  0.3499 -0.1552 -0.5353
  495MOL0     C66743   0.136   7.739   2.847  0.6958  0.9802 -0.1828
  495MOL0     C66744   0.129   7.718   2.714 -0.3328  0.2464  0.2273
  495MOL0     C66745   0.096   7.703   2.305 -0.9274  0.7992  0.7869
  495MOL0     C66746   0.123   7.575   2.260 -0.0582 -0.2064 -0.1164
  495MOL0     C66747   0.033   7.515   2.165 -0.1186 -0.9883 -0.2128
  495MOL0     C66748  -0.082   7.579   2.115  0.3122 -0.1540  0.5289
  495MOL0     O66749  -0.171   7.525   2.017  0.7481 -1.3012 -0.7979
  495MOL0     C66750  -0.315   7.544   2.021 -0.3952 -0.4606  0.6496
  495MOL0     C66751  -0.389   7.430   2.095 -1.4643  0.6296 -0.0633
  495MOL0     C66752  -0.342   7.420   2.243  1.0316  0.1009 -0.6286
  495MOL0     C66753  -0.445   7.463   2.348 -0.0488 -0.4831 -0.1875
  495MOL0     C66754  -0.560   7.373   2.347 -0.0020 -0.3596 -0.8767
  495MOL0     C66755  -0.656   7.293   2.357 -1.1999 -0.7943  0.3546
  495MOL0     C66756  -0.097   7.716   2.157  0.1839  0.7437 -0.4396
  495MOL0     C66757  -0.007   7.772   2.245  0.7821  0.0425  0.0179
  495MOL0     H66758   0.435   7.612   2.651 -1.7802 -3.5161  0.4341
  495MOL0     H66759   0.457   7.630   2.894  1.0529  0.9664  1.4924
  495MOL0     H66760   0.115   7.576   3.079 -0.0393  2.9607 -4.2174
  495MOL0     H66761   0.271   7.533   3.158  1.1235  1.4142 -0.9942
  495MOL0     H66762   0.246   7.657   3.335  0.9830 -1.9310 -2.0077
  495MOL0     H66763   0.160   7.793   3.255  2.7327  0.3092 -1.2543
  495MOL0     H66764  -0.046   7.671   3.249  2.0589  1.4207 -1.6004
  495MOL0     H66765   0.011   7.520   3.321 -1.4770 -0.4664  0.1262
  495MOL0     H66766   0.069   7.633   3.526  0.6498  2.9016 -0.3226
  495MOL0     H66767   0.037   7.790   3.456  0.9197 -0.4641  0.8037
  495MOL0     H66768  -0.158   7.727   3.608 -1.5791  2.9525 -1.0160
  495MOL0     H66769  -0.199   7.748   3.438  1.8651 -0.2958 -1.2610
  495MOL0     H66770  -0.204   7.500   3.415  0.9200  1.1818 -1.3438
  495MOL0     H66771  -0.162   7.487   3.598  0.1012 -0.1832 -0.1419
  495MOL0     H66772  -0.356   7.565   3.668  0.0674  1.6354 -0.6951
  495MOL0     H66773  -0.417   7.622   3.516  1.2035  1.1137 -0.9338
  495MOL0     H66774  -0.393   7.322   3.576  0.8947  2.7945  2.9252
  495MOL0     H66775  -0.423   7.371   3.418 -2.1342  0.2991  0.8617
  495MOL0     H66776  -0.666   7.356   3.354  1.7308 -0.6357 -0.1184
  495MOL0     H66777  -0.930   7.443   3.359 -0.2332  1.3189  0.0590
  495MOL0     H66778  -0.947   7.292   3.437  0.5584 -0.5126  0.7537
  495MOL0     H66779  -1.042   7.423   3.636  2.5263 -3.7200 -1.2990
  495MOL0     H66780  -1.151   7.413   3.503 -0.5786  0.7387 -1.4623
  495MOL0     H66781  -0.966   7.656   3.530 -1.6467  1.2627 -1.2212
  495MOL0     H66782  -1.139   7.631   3.582 -0.1016  1.3129  0.2552
  495MOL0     H66783  -1.147   7.559   3.306 -2.1037  0.0994  3.3946
  495MOL0     H66784  -1.011   7.675   3.315  0.2544 -0.4076  0.3074
  495MOL0     H66785  -1.388   7.876   3.461  1.3724 -2.2892 -1.6860
  495MOL0     H66786  -1.505   8.080   3.509  0.6261 -1.6781  0.6974
  495MOL0     H66787  -1.451   8.137   3.668  4.2651  0.2422  1.5547
  495MOL0     H66788  -1.427   8.229   3.525 -3.6945 -1.2179 -1.9204
  495MOL0     H66789  -1.295   8.520   3.534  0.7247 -1.1241 -0.9414
  495MOL0     H66790  -1.336   8.733   3.634  3.1004  2.6946  2.7882
  495MOL0     H66791  -1.349   8.765   4.095  0.9044  1.1908  0.9169
  495MOL0     H66792  -1.208   8.857   4.048  0.3421 -0.7467 -0.6095
  495MOL0     H66793  -1.359   9.049   3.986  3.6843 -1.6220 -1.8066
  495MOL0     H66794  -1.497   8.949   4.025 -0.5146  1.5764  0.6638
  495MOL0     H66795  -1.427   9.105   4.194  1.8331  0.0401  1.3952
  495MOL0     H66796  -1.272   9.035   4.205 -0.1915  1.4410  3.5769
  495MOL0     H66797  -1.408   8.812   4.300 -0.7563  0.9797 -2.2146
  495MOL0     H66798  -1.354   8.950   4.398  2.8307 -0.2017  0.3710
  495MOL0     H66799  -1.560   9.064   4.385 -2.3365 -0.0880 -0.2973
  495MOL0     H66800  -1.579   8.905   4.459 -1.8855 -4.8570 -2.0683
  495MOL0     H66801  -1.766   8.945   4.318 -0.4659  1.5292 -1.7411
  495MOL0     H66802  -1.664   8.954   4.172 -3.2388 -0.1073 -0.7862
  495MOL0     H66803  -1.673   8.695   4.321  0.5002 -2.6878 -2.2925
  495MOL0     H66804  -1.617   8.740   4.158 -1.8711 -3.8578 -0.9204
  495MOL0     H66805  -1.834   8.781   4.087  4.1144  0.6075 -0.6358
  495MOL0     H66806  -1.909   8.755   4.254 -1.1196  1.0896 -1.4393
  495MOL0     H66807  -1.232   8.582   4.021 -2.1323 -0.4381  0.8884
  495MOL0     H66808  -1.191   8.366   3.937 -1.5123 -1.5720  0.4024
  495MOL0     H66809  -0.951   8.100   3.499 -1.6346  3.0567  2.8126
  495MOL0     H66810  -0.972   7.872   3.386 -0.6717 -1.1683  1.2625
  495MOL0     H66811   0.051   7.785   2.896 -0.3717 -0.8389 -0.2637
  495MOL0     H66812   0.037   7.721   2.658  1.5099 -2.4851 -3.3790
  495MOL0     H66813   0.209   7.516   2.288  0.0392  0.1197  0.2891
  495MOL0     H66814   0.041   7.408   2.148 -0.7154 -1.2445  0.9860
  495MOL0     H66815  -0.349   7.632   2.077  2.6325  0.6732  0.9020
  495MOL0     H66816  -0.352   7.558   1.919 -0.7276 -2.7866  0.3963
  495MOL0     H66817  -0.375   7.336   2.040  0.4462  0.8392 -0.0123
  495MOL0     H66818  -0.497   7.444   2.086 -1.4793  0.1250 -0.7947
  495MOL0     H66819  -0.248   7.473   2.258  1.9476 -1.6807  0.3333
  495MOL0     H66820  -0.321   7.313   2.257 -3.1854 -0.9603 -1.0186
  495MOL0     H66821  -0.479   7.564   2.326 -2.6475 -1.1213  0.5209
  495MOL0     H66822  -0.396   7.460   2.446  2.6424 -1.1646 -1.4652
  495MOL0     H66823  -0.747   7.238   2.343 -3.3938  2.7342 -0.7034
  495MOL0     H66824  -0.179   7.776   2.117  0.8932  2.0711  0.0469
  495MOL0     H66825  -0.035   7.874   2.271 -0.9027 -0.7898  1.7362
  496MOL0     O66826   7.124   3.703   3.678 -0.5116  0.5163  0.6223
  496MOL0     C66827   7.168   3.609   3.748  0.4025 -0.9829  1.8886
  496MOL0     O66828   7.294   3.599   3.796 -0.7006 -0.1336 -0.4662
  496MOL0     C66829   7.385   3.700   3.783  0.2520 -0.1096 -0.0754
  496MOL0     C66830   7.409   3.791   3.884 -0.0321  0.8786  1.0812
  496MOL0     C66831   7.515   3.877   3.890  0.4811  0.5749 -0.3481
  496MOL0     C66832   7.594   3.892   3.773  0.0651 -0.4781  0.4811
  496MOL0     O66833   7.701   3.982   3.782 -0.4209 -0.5323 -0.2960
  496MOL0     C66834   7.824   3.920   3.744 -0.0128  0.0916  0.4357
  496MOL0     C66835   7.917   3.889   3.874 -0.2103 -0.2187 -0.0027
  496MOL0     C66836   8.055   3.822   3.851 -0.3441  0.0685  0.2594
  496MOL0     C66837   8.149   3.918   3.805 -0.6956  0.4118  0.8226
  496MOL0     C66838   8.284   3.851   3.762  0.0044 -1.3596 -0.2788
  496MOL0     C66839   8.276   3.760   3.639 -0.1561 -0.1168  0.3088
  496MOL0     C66840   8.232   3.832   3.516 -0.4759 -0.0515  0.9850
  496MOL0     C66841   8.325   3.945   3.475 -0.0907  0.4288 -0.8055
  496MOL0     N66842   8.319   3.970   3.332  0.2215  0.4312 -0.1853
  496MOL0     C66843   8.207   4.014   3.265  0.2607 -0.1365 -0.1107
  496MOL0     C66844   8.260   4.075   3.157 -1.1117 -1.2826 -0.2277
  496MOL0     C66845   8.195   4.160   3.054  0.2868 -0.8717  0.6790
  496MOL0     C66846   8.147   4.296   3.109 -0.4936  0.5982 -1.1443
  496MOL0     C66847   8.245   4.413   3.076  0.9152  0.5177 -0.3515
  496MOL0     C66848   8.276   4.436   2.927  0.2425 -0.1712  0.2211
  496MOL0     O66849   8.153   4.407   2.851  0.0626  0.2461  0.0572
  496MOL0     C66850   8.140   4.454   2.729  0.5438 -0.0340 -0.1541
  496MOL0     C66851   8.242   4.471   2.638 -0.0784 -0.7550 -0.6449
  496MOL0     C66852   8.223   4.528   2.512 -0.6129  0.2013 -0.4495
  496MOL0     C66853   8.350   4.550   2.436  0.3549  0.8233 -0.1523
  496MOL0     C66854   8.095   4.583   2.479 -0.3546 -0.3364  0.5184
  496MOL0     C66855   8.074   4.647   2.348  0.3131  0.4761  0.2563
  496MOL0     O66856   8.180   4.702   2.278  0.1478  0.4379  0.1345
  496MOL0     C66857   8.157   4.768   2.155  0.4526 -0.2785 -0.2662
  496MOL0     C66858   8.150   4.908   2.135 -0.3924  0.3126 -0.8661
  496MOL0     C66859   8.149   4.963   2.009 -0.5813 -0.8844 -0.9249
  496MOL0     C66860   8.151   4.883   1.886 -0.2165 -0.4882 -0.0424
  496MOL0     O66861   8.160   4.932   1.755  0.2289 -0.1047  0.0726
  496MOL0     C66862   8.101   5.062   1.740 -0.1093  0.6199  0.2317
  496MOL0     C66863   8.198   5.176   1.741  0.6578  0.4594 -0.0766
  496MOL0     C66864   8.130   5.301   1.686  1.7492  0.4348  0.0490
  496MOL0     C66865   8.009   5.338   1.773  0.1284 -1.2457 -0.3661
  496MOL0     C66866   7.960   5.485   1.748  0.8613  0.4261  0.5037
  496MOL0     C66867   7.861   5.500   1.635 -0.5307  0.5608 -0.8484
  496MOL0     C66868   7.731   5.418   1.675 -0.0137 -0.4605 -0.2084
  496MOL0     C66869   7.621   5.456   1.565  0.0672  0.1645 -0.8848
  496MOL0    Cl66870   7.470   5.372   1.608  0.2517 -0.2716 -0.2712
  496MOL0     C66871   8.147   4.745   1.907  0.0308 -0.6907  0.0053
  496MOL0     C66872   8.159   4.690   2.041 -0.0490  0.1152 -0.4124
  496MOL0     O66873   7.957   4.656   2.318  0.7359 -0.3591  0.8858
  496MOL0     C66874   7.984   4.556   2.567  0.2229 -0.1700  0.9443
  496MOL0     C66875   8.008   4.495   2.693  0.0986  0.7058 -0.1917
  496MOL0     N66876   8.398   4.067   3.157  0.4831 -0.3994  0.6744
  496MOL0     N66877   8.434   4.007   3.261  0.2114 -0.4276 -0.3498
  496MOL0     C66878   7.556   3.819   3.661  0.2605 -0.4746  0.5848
  496MOL0     C66879   7.460   3.717   3.666  0.0019  1.1013  0.5761
  496MOL0     C66880   7.078   3.498   3.792  0.3180  0.5976  1.0716
  496MOL0     C66881   7.120   3.385   3.868 -0.8918 -0.7087 -0.7813
  496MOL0     C66882   7.045   3.268   3.880 -0.9569  0.1803  0.2339
  496MOL0     C66883   6.914   3.273   3.835 -0.6508 -0.4855 -1.3984
  496MOL0     O66884   6.822   3.178   3.862  0.7012  0.1779  0.4634
  496MOL0     C66885   6.844   3.064   3.943 -0.1796  0.8254 -0.1405
  496MOL0     C66886   6.716   2.985   3.980 -0.2449  0.1122 -0.1284
  496MOL0     C66887   6.605   2.992   3.861 -0.6900  0.7073 -0.4044
  496MOL0     C66888   6.481   2.921   3.909 -0.9473  0.3591  0.5823
  496MOL0     C66889   6.487   2.781   3.919  0.1788  0.1862  0.6405
  496MOL0     C66890   6.474   2.663   3.938 -0.4601 -0.7473 -0.2402
  496MOL0     C66891   6.872   3.385   3.762 -0.4375  1.1188 -0.4466
  496MOL0     C66892   6.943   3.496   3.740 -0.7322  0.0216 -0.0157
  496MOL0     H66893   7.345   3.783   3.972 -0.9526  2.5251  0.6073
  496MOL0     H66894   7.544   3.941   3.973 -0.9182  1.4179 -0.4695
  496MOL0     H66895   7.808   3.833   3.679  0.2686  1.2278 -1.2287
  496MOL0     H66896   7.872   3.990   3.675  2.5523 -1.5430  0.4337
  496MOL0     H66897   7.934   3.986   3.920  1.5131 -1.9717  3.3855
  496MOL0     H66898   7.838   3.844   3.935 -1.4530  3.2235  1.1424
  496MOL0     H66899   8.084   3.780   3.948  2.2213 -0.6111 -0.7133
  496MOL0     H66900   8.049   3.730   3.792  1.3784 -0.8334  1.3822
  496MOL0     H66901   8.104   3.983   3.730  2.5490 -1.6889 -3.3385
  496MOL0     H66902   8.175   3.983   3.889  0.6207 -0.3362  1.0224
  496MOL0     H66903   8.350   3.938   3.749 -0.7752 -0.2908  2.3058
  496MOL0     H66904   8.325   3.799   3.849  0.2014 -0.4464  0.1956
  496MOL0     H66905   8.376   3.717   3.628  0.4918  1.4252 -0.0090
  496MOL0     H66906   8.205   3.679   3.659  0.7479 -0.6819  1.3769
  496MOL0     H66907   8.232   3.771   3.425  1.8469  1.4787 -0.1335
  496MOL0     H66908   8.127   3.864   3.521 -1.2093 -2.0203 -0.3447
  496MOL0     H66909   8.422   3.912   3.511 -0.8846 -0.7689  0.3484
  496MOL0     H66910   8.297   4.028   3.541 -1.6537  0.2367 -1.1910
  496MOL0     H66911   8.109   4.011   3.313  1.4495  1.6870  2.7281
  496MOL0     H66912   8.269   4.162   2.974  0.3415 -3.7064  0.5279
  496MOL0     H66913   8.103   4.108   3.022  0.4132 -1.3864  1.1365
  496MOL0     H66914   8.126   4.289   3.216  0.7214 -1.3353 -0.9812
  496MOL0     H66915   8.049   4.318   3.066 -1.6940  0.0029  1.0922
  496MOL0     H66916   8.344   4.407   3.123  0.6346 -0.2717  0.1656
  496MOL0     H66917   8.198   4.506   3.109  0.1096 -0.0115  0.0269
  496MOL0     H66918   8.362   4.370   2.906  0.5411  0.0376  0.7833
  496MOL0     H66919   8.300   4.540   2.904  0.9754 -1.2321 -5.4387
  496MOL0     H66920   8.344   4.452   2.670 -0.4813  0.9559  1.9433
  496MOL0     H66921   8.368   4.658   2.430  2.9747  0.4575  0.0542
  496MOL0     H66922   8.434   4.494   2.480 -3.0452 -1.4662  4.2948
  496MOL0     H66923   8.329   4.508   2.338  1.1595 -4.0750  1.4877
  496MOL0     H66924   8.147   4.970   2.224 -0.8820  0.2501 -0.8341
  496MOL0     H66925   8.154   5.072   2.009  0.5185 -0.9263 -0.3272
  496MOL0     H66926   8.064   5.053   1.638  0.4638  1.8564 -0.1040
  496MOL0     H66927   8.014   5.078   1.805 -0.4271  0.6223 -0.1954
  496MOL0     H66928   8.232   5.193   1.844 -1.0067 -2.9442  1.1539
  496MOL0     H66929   8.289   5.161   1.681  1.2215  2.4896  0.1721
  496MOL0     H66930   8.100   5.281   1.582  1.7241  0.4628  0.0507
  496MOL0     H66931   8.214   5.371   1.682  7.1617 -5.1695  0.2033
  496MOL0     H66932   7.924   5.270   1.770 -2.1948  1.4791 -1.4365
  496MOL0     H66933   8.041   5.340   1.877  0.2226 -1.6764 -0.3832
  496MOL0     H66934   8.046   5.553   1.743  1.3939  0.1003  3.2660
  496MOL0     H66935   7.921   5.511   1.847 -1.6308 -1.5351  0.1460
  496MOL0     H66936   7.843   5.603   1.605 -2.4556  0.0649 -1.5484
  496MOL0     H66937   7.910   5.452   1.550 -0.7444 -0.3800 -0.4559
  496MOL0     H66938   7.698   5.467   1.767  0.1199 -0.6267 -0.0718
  496MOL0     H66939   7.743   5.313   1.700 -0.1571 -0.3724  0.2462
  496MOL0     H66940   7.663   5.426   1.468  4.1888  0.7622  0.5581
  496MOL0     H66941   7.602   5.564   1.566 -1.3049 -0.0434  1.1376
  496MOL0     H66942   8.137   4.682   1.819 -0.3207  0.8003 -1.0636
  496MOL0     H66943   8.156   4.583   2.062  4.0349  0.0383  0.4583
  496MOL0     H66944   7.887   4.587   2.530  2.0638  0.8880 -3.7209
  496MOL0     H66945   7.926   4.481   2.763  0.4542 -1.9907 -0.2171
  496MOL0     H66946   7.616   3.852   3.577  0.6675  2.7758  2.0087
  496MOL0     H66947   7.439   3.655   3.579 -0.2870  2.9504 -0.7262
  496MOL0     H66948   7.218   3.382   3.913 -2.3775  0.1627  2.8914
  496MOL0     H66949   7.094   3.192   3.939 -0.3306  0.7913  0.5089
  496MOL0     H66950   6.909   2.993   3.891 -2.3222 -1.6588  0.3691
  496MOL0     H66951   6.891   3.098   4.035 -1.7527 -0.7012  1.2910
  496MOL0     H66952   6.682   3.032   4.072 -0.5610 -0.5619  0.1093
  496MOL0     H66953   6.725   2.880   4.007 -2.1453  0.3724  1.7167
  496MOL0     H66954   6.636   2.951   3.764 -1.3338 -1.7083  0.3615
  496MOL0     H66955   6.581   3.098   3.846  0.3782  1.2242  1.2778
  496MOL0     H66956   6.398   2.947   3.842  0.3267  0.0122 -1.2085
  496MOL0     H66957   6.445   2.953   4.007 -2.4484  0.6625 -0.0334
  496MOL0     H66958   6.459   2.557   3.951  2.0200 -1.3016 -1.2906
  496MOL0     H66959   6.772   3.376   3.722  1.1117 -0.1298 -4.5692
  496MOL0     H66960   6.910   3.567   3.664  3.2416  0.7056 -1.3558
  497MOL0     O66961   0.596  10.652   5.073  0.4383  0.1597  0.6174
  497MOL0     C66962   0.708  10.669   5.023  0.5640 -0.4903  0.9377
  497MOL0     O66963   0.761  10.799   5.005 -0.0478  0.4380 -1.0451
  497MOL0     C66964   0.695  10.893   5.086  0.2266 -1.1406 -0.2723
  497MOL0     C66965   0.737  10.926   5.213 -0.0513 -0.6669  0.4670
  497MOL0     C66966   0.670  11.030   5.280  0.5175  0.7772 -0.5251
  497MOL0     C66967   0.551  11.087   5.220 -0.6423 -0.8392  0.3020
  497MOL0     O66968   0.490  11.186   5.297 -0.5569 -0.5267  0.7557
  497MOL0     C66969   0.434  11.298   5.228 -0.5231  0.7572  1.0909
  497MOL0     C66970   0.375  11.379   5.340 -0.3851 -0.1030 -0.5251
  497MOL0     C66971   0.272  11.478   5.284  0.5292 -0.6292 -0.0807
  497MOL0     C66972   0.311  11.621   5.328 -0.1018  0.4838  0.4362
  497MOL0     C66973   0.244  11.739   5.255 -0.4287 -0.8934 -0.9221
  497MOL0     C66974   0.284  11.742   5.108  0.0717  0.4330  0.1515
  497MOL0     C66975   0.242  11.869   5.053 -0.0467 -1.1789 -0.5623
  497MOL0     C66976   0.247  11.869   4.904  0.5216  0.8220  0.0229
  497MOL0     N66977   0.381  11.852   4.842 -0.2985 -0.3709 -0.6529
  497MOL0     C66978   0.425  11.736   4.778 -0.0640 -0.5603  0.3655
  497MOL0     C66979   0.544  11.772   4.729 -0.8459  0.0796  0.2482
  497MOL0     C66980   0.636  11.667   4.666  0.1596  0.7483  0.0736
  497MOL0     C66981   0.776  11.726   4.626 -0.3329  0.8035  0.6263
  497MOL0     C66982   0.877  11.621   4.590 -0.5947  0.2785  1.3626
  497MOL0     C66983   0.919  11.623   4.438 -0.0789 -0.2274 -0.1547
  497MOL0     O66984   0.811  11.561   4.363 -0.2065 -0.2628 -0.5534
  497MOL0     C66985   0.840  11.519   4.235  0.0667 -0.8478  0.5002
  497MOL0     C66986   0.966  11.508   4.172  0.1167 -0.3256  0.3501
  497MOL0     C66987   0.979  11.479   4.037 -0.1110  0.8725 -0.4453
  497MOL0     C66988   1.120  11.458   3.980  0.0655 -0.3642  0.5610
  497MOL0     C66989   0.862  11.457   3.959 -0.7712  0.3467  0.3102
  497MOL0     C66990   0.859  11.413   3.808  0.4198 -0.3225  0.2720
  497MOL0     O66991   0.741  11.346   3.773 -0.4918  0.2864  0.2601
  497MOL0     C66992   0.735  11.286   3.651  0.9482  0.0012 -0.1095
  497MOL0     C66993   0.816  11.170   3.617 -0.4128  1.0958  0.0882
  497MOL0     C66994   0.813  11.131   3.479 -0.1284 -0.6243  0.6981
  497MOL0     C66995   0.723  11.181   3.386 -0.9615  0.5589 -0.0860
  497MOL0     O66996   0.706  11.120   3.263 -0.4387 -0.4379 -0.2198
  497MOL0     C66997   0.721  11.187   3.139  0.6115 -0.7545 -1.2158
  497MOL0     C66998   0.867  11.218   3.120 -0.1609 -0.3412 -0.1198
  497MOL0     C66999   0.934  11.086   3.102  0.0531  0.7049  0.6217
  497MOL0     C67000   1.069  11.089   3.040 -0.1062  0.6707  0.5148
  497MOL0     C67001   1.174  11.184   3.105 -0.9485 -0.2965  0.5804
  497MOL0     C67002   1.308  11.180   3.016  0.5344  0.4062  1.0895
  497MOL0     C67003   1.408  11.294   3.036  0.1687 -0.4035 -0.1141
  497MOL0     C67004   1.497  11.285   3.164  0.6807 -0.3924 -0.3904
  497MOL0    Cl67005   1.576  11.131   3.192  0.1027 -0.1329 -0.0648
  497MOL0     C67006   0.654  11.300   3.419 -1.0461  0.1668 -0.0055
  497MOL0     C67007   0.658  11.351   3.554  0.2098 -0.8174  0.4447
  497MOL0     O67008   0.961  11.433   3.737  0.5685 -0.6572 -0.3783
  497MOL0     C67009   0.739  11.467   4.023  1.0467  0.6209  0.1527
  497MOL0     C67010   0.722  11.496   4.159  0.0701 -0.8751  0.4143
  497MOL0     N67011   0.582  11.896   4.788 -1.2076  0.2912 -0.0799
  497MOL0     N67012   0.475  11.953   4.843  0.1672  0.3969 -0.3570
  497MOL0     C67013   0.515  11.048   5.093  0.4382  0.1751 -0.0427
  497MOL0     C67014   0.584  10.947   5.020 -0.3809 -0.1378 -0.2463
  497MOL0     C67015   0.783  10.555   4.961  0.7163 -0.1879  0.2065
  497MOL0     C67016   0.877  10.563   4.858  0.1180  0.6218  0.0258
  497MOL0     C67017   0.931  10.441   4.801  0.5375  0.5268 -0.3922
  497MOL0     C67018   0.890  10.316   4.844 -0.2936 -0.6540  1.1689
  497MOL0     O67019   0.951  10.213   4.777 -0.0453  0.3251  0.2573
  497MOL0     C67020   0.905  10.076   4.804 -0.2797 -0.3065 -0.3649
  497MOL0     C67021   0.998   9.967   4.759  0.3124 -0.3180  1.6419
  497MOL0     C67022   1.035  10.003   4.602 -0.4067  0.5754  0.0800
  497MOL0     C67023   1.162   9.924   4.550  0.0311 -0.3568 -0.5860
  497MOL0     C67024   1.233   9.989   4.441  0.3216  0.0464 -0.9087
  497MOL0     C67025   1.282  10.041   4.348 -0.2387 -0.2035  0.2133
  497MOL0     C67026   0.789  10.309   4.935 -0.1172  0.1884 -0.1529
  497MOL0     C67027   0.738  10.423   4.989 -0.7816 -0.5261  0.4952
  497MOL0     H67028   0.820  10.879   5.264  2.7011 -0.5274 -3.4484
  497MOL0     H67029   0.691  11.047   5.385  1.4360  3.7567 -1.0695
  497MOL0     H67030   0.509  11.343   5.163 -0.3211 -1.0149  0.0276
  497MOL0     H67031   0.352  11.267   5.163 -1.3387 -2.2604  3.3129
  497MOL0     H67032   0.327  11.317   5.416 -0.7212 -0.7421 -1.2381
  497MOL0     H67033   0.459  11.421   5.395 -1.3688 -1.5840  2.2707
  497MOL0     H67034   0.239  11.476   5.179 -1.7135  0.4007  0.5366
  497MOL0     H67035   0.173  11.450   5.321 -0.5519 -0.0350 -2.3321
  497MOL0     H67036   0.284  11.638   5.433  1.4856  2.1589  0.6211
  497MOL0     H67037   0.419  11.640   5.325  0.2607 -0.7009  2.9103
  497MOL0     H67038   0.135  11.738   5.254 -0.4674 -0.2732  0.5437
  497MOL0     H67039   0.287  11.829   5.300 -0.4880 -0.2757 -2.0767
  497MOL0     H67040   0.391  11.728   5.095  0.0691  2.5408 -4.5018
  497MOL0     H67041   0.235  11.663   5.051  2.1782 -1.7882  1.2657
  497MOL0     H67042   0.134  11.876   5.069 -0.1557  0.9455 -1.8427
  497MOL0     H67043   0.312  11.948   5.081  0.0931 -1.2869 -0.6049
  497MOL0     H67044   0.199  11.961   4.869  0.5694  0.8815  0.1155
  497MOL0     H67045   0.185  11.782   4.877  1.3727  0.0036  0.6691
  497MOL0     H67046   0.380  11.640   4.755  1.7862 -1.3867  0.0744
  497MOL0     H67047   0.649  11.575   4.723 -0.4704 -0.8639 -2.2316
  497MOL0     H67048   0.589  11.629   4.575 -0.6283  3.4060 -0.7381
  497MOL0     H67049   0.816  11.757   4.723 -0.0947  1.8441  0.2106
  497MOL0     H67050   0.769  11.807   4.553 -0.0615 -0.2683 -0.6327
  497MOL0     H67051   0.839  11.521   4.609  1.6628 -0.7023  1.0093
  497MOL0     H67052   0.964  11.624   4.657  2.1568 -1.7967 -1.8123
  497MOL0     H67053   1.006  11.557   4.437 -0.5865 -0.9021 -0.5122
  497MOL0     H67054   0.955  11.719   4.399  0.9738  0.2609  1.8817
  497MOL0     H67055   1.057  11.519   4.229  0.3970  2.8949 -0.5035
  497MOL0     H67056   1.201  11.477   4.051  3.5681 -1.8515 -2.6540
  497MOL0     H67057   1.143  11.363   3.932  0.7319 -1.8640  3.6166
  497MOL0     H67058   1.140  11.532   3.901  1.1502  1.9370  2.8483
  497MOL0     H67059   0.878  11.120   3.690 -1.2307 -0.3255 -0.1451
  497MOL0     H67060   0.860  11.040   3.445  0.6198  0.6246 -1.8867
  497MOL0     H67061   0.681  11.134   3.052 -1.0349 -1.0676 -0.3125
  497MOL0     H67062   0.660  11.277   3.150  0.9373 -0.7548  1.2651
  497MOL0     H67063   0.873  11.270   3.024  2.5823 -2.9511 -1.5019
  497MOL0     H67064   0.923  11.270   3.198  1.7891 -1.0546 -0.9842
  497MOL0     H67065   0.874  11.019   3.041 -0.1413 -0.5091  2.0877
  497MOL0     H67066   0.944  11.038   3.200  0.8640  3.0255  1.7649
  497MOL0     H67067   1.111  10.988   3.038 -3.6117 -0.9716  1.3635
  497MOL0     H67068   1.042  11.123   2.939  0.2728  0.8878  0.4860
  497MOL0     H67069   1.204  11.144   3.203  3.9470  3.5571  1.0398
  497MOL0     H67070   1.139  11.288   3.112 -0.0376  0.1041 -0.5360
  497MOL0     H67071   1.343  11.078   3.033 -0.8933  0.0109  1.8648
  497MOL0     H67072   1.292  11.171   2.908  4.3495 -0.1936  0.4347
  497MOL0     H67073   1.354  11.389   3.031  1.2054  0.3088  1.2867
  497MOL0     H67074   1.466  11.286   2.943  2.0189 -2.0490  1.1010
  497MOL0     H67075   1.444  11.315   3.255  2.4254 -0.1214  0.5800
  497MOL0     H67076   1.571  11.362   3.142  2.5529 -2.0834 -0.2749
  497MOL0     H67077   0.598  11.358   3.347 -0.8311  1.3034  0.7150
  497MOL0     H67078   0.611  11.446   3.577  4.2291  0.9741  2.0314
  497MOL0     H67079   0.647  11.440   3.970  0.6383 -0.1582  1.2354
  497MOL0     H67080   0.623  11.497   4.203 -1.3999 -1.2505 -2.5783
  497MOL0     H67081   0.418  11.082   5.057  0.5073  0.1886 -0.2209
  497MOL0     H67082   0.550  10.922   4.920 -3.1309  0.8798  0.3417
  497MOL0     H67083   0.914  10.656   4.817  2.2007 -1.2576 -2.7277
  497MOL0     H67084   1.005  10.453   4.722  4.2461 -1.5841  2.4383
  497MOL0     H67085   0.889  10.053   4.909  0.1405 -3.5588 -0.9035
  497MOL0     H67086   0.809  10.056   4.757 -2.7571  2.7931  2.8296
  497MOL0     H67087   0.950   9.872   4.783  3.5918 -2.1651  1.4490
  497MOL0     H67088   1.093   9.965   4.813  0.2577 -1.1029  1.7204
  497MOL0     H67089   1.051  10.109   4.581 -0.0923  0.7958  1.3716
  497MOL0     H67090   0.955   9.978   4.531  0.7176 -4.0196  0.0923
  497MOL0     H67091   1.142   9.819   4.527  0.5483 -0.0670 -2.5141
  497MOL0     H67092   1.231   9.926   4.635 -2.1625  1.3219  1.3114
  497MOL0     H67093   1.325  10.090   4.263  0.1695 -1.8387 -0.5543
  497MOL0     H67094   0.753  10.210   4.961  0.1528 -0.0083 -0.5227
  497MOL0     H67095   0.665  10.414   5.070  0.6920 -2.3689  1.7112
  498MOL0     O67096   4.326   1.335   6.273 -0.5627  1.1009  0.1166
  498MOL0     C67097   4.211   1.338   6.314  0.0831 -0.8804 -0.3105
  498MOL0     O67098   4.109   1.428   6.271  0.5978  0.0556  0.2855
  498MOL0     C67099   4.117   1.463   6.133  0.2524  0.3867 -0.3586
  498MOL0     C67100   4.165   1.377   6.026 -0.1451  0.1530 -0.9043
  498MOL0     C67101   4.157   1.407   5.896  0.4344  0.7779  0.2769
  498MOL0     C67102   4.095   1.520   5.857  0.7685 -0.1160 -1.2753
  498MOL0     O67103   4.087   1.558   5.726 -1.0310  0.3824 -0.3070
  498MOL0     C67104   4.067   1.452   5.631  0.0544  1.1205 -0.1983
  498MOL0     C67105   4.003   1.484   5.507 -0.6352 -0.0011  0.5903
  498MOL0     C67106   4.088   1.592   5.429 -0.6067  0.4536 -0.7741
  498MOL0     C67107   4.022   1.615   5.292  0.1030  0.5998  0.2337
  498MOL0     C67108   3.922   1.730   5.301 -0.2144  0.5255 -1.0963
  498MOL0     C67109   3.857   1.744   5.164  0.1448 -0.5148 -0.3118
  498MOL0     C67110   3.735   1.837   5.165 -0.0092 -0.7442  0.0352
  498MOL0     C67111   3.752   1.993   5.192  1.4619  0.9725  0.1385
  498MOL0     N67112   3.744   2.020   5.334 -0.7164  0.3454 -0.7401
  498MOL0     C67113   3.622   2.035   5.402 -0.2188  0.3612 -0.0427
  498MOL0     C67114   3.657   2.110   5.509 -0.9356 -0.0498  0.4085
  498MOL0     C67115   3.574   2.144   5.628  0.1457  0.2336  0.5468
  498MOL0     C67116   3.587   2.047   5.749 -0.1694  0.8261 -0.6960
  498MOL0     C67117   3.508   1.910   5.730  0.0688  0.3994  0.5750
  498MOL0     C67118   3.557   1.801   5.818  0.6189  0.0491  0.2588
  498MOL0     O67119   3.538   1.840   5.955  0.2174  0.0583 -0.1237
  498MOL0     C67120   3.585   1.754   6.055  0.8579 -0.9299 -0.0944
  498MOL0     C67121   3.657   1.638   6.026 -0.4174 -0.8187  0.0561
  498MOL0     C67122   3.695   1.549   6.138  0.7596 -0.1497  0.1050
  498MOL0     C67123   3.758   1.419   6.092  0.5089  0.2107  0.4391
  498MOL0     C67124   3.651   1.591   6.263 -0.4579  0.4974 -1.9246
  498MOL0     C67125   3.684   1.522   6.393  0.1180  0.2212  0.8579
  498MOL0     O67126   3.654   1.582   6.507  0.2314 -0.3387  0.2073
  498MOL0     C67127   3.704   1.553   6.623 -0.6899  0.2908  0.1616
  498MOL0     C67128   3.833   1.605   6.657  0.2444 -0.3981 -0.4643
  498MOL0     C67129   3.882   1.556   6.783 -0.2363  0.2706  1.5268
  498MOL0     C67130   3.810   1.468   6.869  0.8609 -0.6266  0.1522
  498MOL0     O67131   3.840   1.415   6.984  0.0331  0.0147  0.4015
  498MOL0     C67132   3.944   1.483   7.054  0.1482 -0.0854  0.1475
  498MOL0     C67133   3.928   1.438   7.199 -0.0538  1.0207  0.1842
  498MOL0     C67134   4.057   1.469   7.286  0.7638  0.2093 -0.0450
  498MOL0     C67135   4.149   1.585   7.228 -1.0610 -0.4841 -0.1564
  498MOL0     C67136   4.253   1.614   7.341  0.1042 -0.3442 -0.6094
  498MOL0     C67137   4.371   1.515   7.359  0.8471  0.3962 -0.2986
  498MOL0     C67138   4.491   1.560   7.441  0.1731 -0.1206  0.9157
  498MOL0     C67139   4.451   1.609   7.583  0.0423  0.3091 -0.0229
  498MOL0    Cl67140   4.583   1.701   7.668 -0.2424 -0.3214 -0.0532
  498MOL0     C67141   3.682   1.428   6.830 -0.1396  0.3590  0.3036
  498MOL0     C67142   3.633   1.477   6.709 -0.2174 -1.1460  0.8940
  498MOL0     O67143   3.710   1.404   6.382  0.1177  0.1753  0.3526
  498MOL0     C67144   3.572   1.705   6.278  0.2896 -0.6584  0.7876
  498MOL0     C67145   3.542   1.797   6.180  0.6720  0.1995  0.2362
  498MOL0     N67146   3.794   2.142   5.505 -0.4544 -0.3239 -0.4937
  498MOL0     N67147   3.842   2.081   5.404 -0.1328 -0.8201 -0.1518
  498MOL0     C67148   4.046   1.605   5.958 -0.2866 -0.3366 -0.1965
  498MOL0     C67149   4.059   1.583   6.095  1.1486 -0.5229  0.3619
  498MOL0     C67150   4.175   1.264   6.434 -0.5102  0.4605  0.1643
  498MOL0     C67151   4.066   1.303   6.510  0.3475 -0.7134 -0.5529
  498MOL0     C67152   4.017   1.224   6.614 -0.5420 -0.8264  0.8777
  498MOL0     C67153   4.094   1.120   6.665 -0.1726  0.4522  0.3662
  498MOL0     O67154   4.071   1.056   6.786 -0.7646  0.7154  0.6828
  498MOL0     C67155   3.969   1.098   6.866  0.2000  0.4239 -0.3572
  498MOL0     C67156   3.938   1.009   6.990 -0.0208  0.1379 -0.6391
  498MOL0     C67157   4.039   1.016   7.099  0.1308  0.2137  0.3657
  498MOL0     C67158   3.991   0.963   7.229 -1.2888 -0.0040  0.5537
  498MOL0     C67159   3.857   0.995   7.277  0.6675 -0.0859 -0.7540
  498MOL0     C67160   3.755   1.033   7.322 -0.7739  0.9270 -0.4475
  498MOL0     C67161   4.216   1.087   6.598  0.0921  0.4510 -0.7617
  498MOL0     C67162   4.247   1.150   6.479  0.1757 -1.2780  0.9333
  498MOL0     H67163   4.209   1.286   6.066  2.4397  2.3751  1.7322
  498MOL0     H67164   4.189   1.334   5.822 -1.5200 -5.1983  4.5199
  498MOL0     H67165   4.166   1.412   5.609 -0.7099 -0.2943 -1.1785
  498MOL0     H67166   4.026   1.363   5.678 -1.0663  1.4712 -0.4751
  498MOL0     H67167   4.001   1.396   5.443  0.4513  0.9129 -0.7372
  498MOL0     H67168   3.899   1.516   5.518 -2.5710 -1.7105 -7.1866
  498MOL0     H67169   4.089   1.682   5.492 -0.1797 -0.5584  0.7238
  498MOL0     H67170   4.188   1.552   5.413  0.2654  2.8056 -1.6480
  498MOL0     H67171   4.100   1.654   5.226  1.3951  0.6052  1.7202
  498MOL0     H67172   3.989   1.524   5.240 -2.0371 -0.6623  3.4664
  498MOL0     H67173   3.839   1.716   5.371  1.1532 -2.0745  0.1575
  498MOL0     H67174   3.961   1.827   5.331 -1.4913  0.9643 -0.7970
  498MOL0     H67175   3.919   1.791   5.087  3.3748 -1.4246  1.5287
  498MOL0     H67176   3.835   1.641   5.135  0.1595 -0.3022 -1.1201
  498MOL0     H67177   3.681   1.800   5.076 -0.6417 -5.1592  1.9818
  498MOL0     H67178   3.665   1.810   5.244  0.3068  0.5866  0.8015
  498MOL0     H67179   3.676   2.053   5.140  0.2027 -0.7242 -0.0701
  498MOL0     H67180   3.848   2.029   5.156  0.4858  1.8827 -1.6997
  498MOL0     H67181   3.519   2.005   5.384 -1.3096  3.5762  0.1423
  498MOL0     H67182   3.594   2.244   5.669  3.2590 -0.2250  0.3981
  498MOL0     H67183   3.471   2.149   5.591  1.4347  1.1712 -3.4612
  498MOL0     H67184   3.546   2.088   5.842  1.0482 -0.2494  0.3539
  498MOL0     H67185   3.689   2.009   5.755  0.6482  2.1713 -3.9325
  498MOL0     H67186   3.525   1.881   5.625 -0.6065 -1.8361  1.0290
  498MOL0     H67187   3.401   1.931   5.736 -0.0911  0.0962 -0.7490
  498MOL0     H67188   3.660   1.769   5.798 -0.3863 -3.0534 -0.4921
  498MOL0     H67189   3.491   1.717   5.792 -1.9037  2.2561 -0.9145
  498MOL0     H67190   3.699   1.622   5.927 -2.4660  0.8905 -1.1715
  498MOL0     H67191   3.702   1.338   6.140 -0.3514  1.7464  2.1866
  498MOL0     H67192   3.774   1.409   5.985 -1.1917  1.4762  0.0107
  498MOL0     H67193   3.854   1.406   6.142  1.0449 -1.1978 -0.8987
  498MOL0     H67194   3.880   1.681   6.597  0.6255 -0.2531  0.0113
  498MOL0     H67195   3.979   1.595   6.808 -0.2853  3.6914 -2.4727
  498MOL0     H67196   4.044   1.469   7.011 -0.8978  0.5352 -2.6993
  498MOL0     H67197   3.932   1.591   7.049 -0.7709 -0.2186 -0.7117
  498MOL0     H67198   3.847   1.487   7.253 -0.8478  1.2533 -1.1737
  498MOL0     H67199   3.890   1.335   7.202 -0.5473  1.2320  1.8162
  498MOL0     H67200   4.117   1.377   7.296 -1.6778 -1.7156 -1.8125
  498MOL0     H67201   4.014   1.500   7.382 -3.1667 -1.9520 -0.9071
  498MOL0     H67202   4.192   1.556   7.132 -2.8755  1.8373 -1.8191
  498MOL0     H67203   4.074   1.660   7.201  0.3330  1.4020  1.0116
  498MOL0     H67204   4.198   1.634   7.433 -0.0245  0.9621 -0.9555
  498MOL0     H67205   4.314   1.703   7.324  1.9000 -1.1173  1.3481
  498MOL0     H67206   4.327   1.431   7.413  1.3571  0.6256  0.4826
  498MOL0     H67207   4.403   1.473   7.263  0.0852 -1.6042  0.2651
  498MOL0     H67208   4.540   1.637   7.381  1.2779 -0.9074  0.7715
  498MOL0     H67209   4.563   1.478   7.452 -2.3350 -2.3576  1.8081
  498MOL0     H67210   4.420   1.533   7.655 -0.0526  1.3191  1.0382
  498MOL0     H67211   4.365   1.676   7.579  0.9615  1.5471  0.4500
  498MOL0     H67212   3.625   1.358   6.889  1.0062 -2.0168 -1.2511
  498MOL0     H67213   3.530   1.455   6.685 -0.1191 -0.6835 -0.0133
  498MOL0     H67214   3.515   1.735   6.366 -0.7734 -1.4703  0.3964
  498MOL0     H67215   3.483   1.887   6.196  4.0863  2.7635 -0.3881
  498MOL0     H67216   3.995   1.698   5.931  0.3514 -0.1013 -0.6014
  498MOL0     H67217   4.013   1.660   6.156  0.6459 -0.4309 -0.1233
  498MOL0     H67218   4.008   1.392   6.488  0.3501 -1.1122 -2.3862
  498MOL0     H67219   3.929   1.259   6.667 -1.0290 -1.0959  0.2570
  498MOL0     H67220   3.966   1.207   6.879 -0.7697  0.5620 -1.5111
  498MOL0     H67221   3.870   1.083   6.821 -0.5241  0.9214  0.9751
  498MOL0     H67222   3.933   0.906   6.956  1.3704  0.0648 -0.6612
  498MOL0     H67223   3.839   1.025   7.035  0.4113  1.0070  0.0473
  498MOL0     H67224   4.074   1.118   7.115 -1.3086  1.1377 -1.9592
  498MOL0     H67225   4.130   0.960   7.074  1.7658  2.3708  1.1595
  498MOL0     H67226   4.073   0.987   7.297  3.0563  1.1976 -4.4132
  498MOL0     H67227   4.007   0.856   7.212 -1.5354  0.1806 -1.0362
  498MOL0     H67228   3.676   1.071   7.383  2.2717  2.3940  2.9828
  498MOL0     H67229   4.295   1.021   6.632  0.1100  1.0668  0.4371
  498MOL0     H67230   4.339   1.115   6.432  1.9975  3.6446  0.2374
  499MOL0     O67231   8.531   5.368   2.663  0.2309  0.3591 -0.3716
  499MOL0     C67232   8.586   5.455   2.727 -0.1200 -0.2336 -0.3933
  499MOL0     O67233   8.605   5.583   2.695 -0.5996 -0.0006 -0.6614
  499MOL0     C67234   8.540   5.648   2.595 -0.3969  0.1928 -0.6493
  499MOL0     C67235   8.507   5.782   2.614 -0.0051 -0.4330  0.9163
  499MOL0     C67236   8.438   5.854   2.518 -0.5511  0.2561  0.1481
  499MOL0     C67237   8.401   5.796   2.394 -1.8666 -1.2780  0.3995
  499MOL0     O67238   8.329   5.865   2.306  0.5801 -0.3759 -0.5309
  499MOL0     C67239   8.192   5.836   2.331 -0.2149 -0.2113  0.2953
  499MOL0     C67240   8.107   5.926   2.244  0.6143  0.4146 -0.1079
  499MOL0     C67241   7.955   5.892   2.257  0.3080  0.7116 -0.1380
  499MOL0     C67242   7.869   6.015   2.228 -0.3577  0.9203  0.6687
  499MOL0     C67243   7.848   6.116   2.339 -1.2284  0.6888  0.5049
  499MOL0     C67244   7.774   6.054   2.459 -0.4606  0.4247  0.5232
  499MOL0     C67245   7.714   6.160   2.552  0.0775 -0.1647  0.0223
  499MOL0     C67246   7.816   6.239   2.641  0.9368  0.6758  0.1465
  499MOL0     N67247   7.745   6.348   2.705 -0.2921 -0.1428 -0.2986
  499MOL0     C67248   7.640   6.339   2.800 -0.6406 -0.1694  0.7131
  499MOL0     C67249   7.621   6.468   2.834  0.3073 -0.3041  1.6219
  499MOL0     C67250   7.522   6.523   2.931 -0.2603  0.2566  0.0980
  499MOL0     C67251   7.404   6.610   2.877 -0.2844  0.1926 -0.6909
  499MOL0     C67252   7.426   6.677   2.740  0.7603  0.6311  0.0861
  499MOL0     C67253   7.312   6.778   2.707  0.8077  0.8085  1.1104
  499MOL0     O67254   7.368   6.846   2.596  0.0691 -0.4998  0.5438
  499MOL0     C67255   7.309   6.957   2.528 -0.3760 -0.6544  0.9786
  499MOL0     C67256   7.389   7.036   2.447  0.8336  0.6355 -0.3729
  499MOL0     C67257   7.358   7.153   2.384 -0.6820 -0.4035 -0.5114
  499MOL0     C67258   7.465   7.235   2.319  0.0845  0.2305 -0.4503
  499MOL0     C67259   7.227   7.207   2.410 -0.4838  1.2242  0.0260
  499MOL0     C67260   7.181   7.346   2.372 -0.3539 -0.5409 -0.0753
  499MOL0     O67261   7.086   7.390   2.461  0.4565  0.3393 -0.3823
  499MOL0     C67262   7.032   7.521   2.470  0.3766  0.0019 -0.6730
  499MOL0     C67263   6.962   7.565   2.578  0.7836  0.8072 -0.5857
  499MOL0     C67264   6.915   7.694   2.584  0.0947  0.5161 -0.3688
  499MOL0     C67265   6.923   7.783   2.477 -0.3355 -0.9339  0.5371
  499MOL0     O67266   6.871   7.910   2.472  0.3764  0.4258 -0.9754
  499MOL0     C67267   6.787   7.955   2.582  0.4431  0.1951  0.4971
  499MOL0     C67268   6.646   7.886   2.571  0.0776  0.6313 -0.5273
  499MOL0     C67269   6.543   7.917   2.687 -0.1848 -0.0724 -0.4488
  499MOL0     C67270   6.413   7.824   2.662 -0.5843  0.3433  0.7456
  499MOL0     C67271   6.299   7.859   2.751  0.1519  0.5792 -0.0606
  499MOL0     C67272   6.323   7.837   2.901 -0.5503  0.0369  0.2383
  499MOL0     C67273   6.210   7.782   2.988  0.8763  0.5156 -0.7877
  499MOL0     C67274   6.189   7.633   2.998  0.8573  0.4718  0.8152
  499MOL0    Cl67275   6.347   7.530   2.989 -0.1494 -0.0258  0.0205
  499MOL0     C67276   6.995   7.740   2.364  0.6497 -0.1112  0.2536
  499MOL0     C67277   7.058   7.612   2.363 -0.4022 -0.9012  0.1155
  499MOL0     O67278   7.229   7.411   2.284 -1.1688 -0.0714  0.3820
  499MOL0     C67279   7.135   7.121   2.474 -0.3953  0.8096  0.2630
  499MOL0     C67280   7.180   7.002   2.540  0.1889 -0.4513  0.8156
  499MOL0     N67281   7.724   6.548   2.778  0.6500  0.5925  0.4306
  499MOL0     N67282   7.794   6.473   2.698  0.4004 -0.3206  0.7311
  499MOL0     C67283   8.447   5.662   2.372 -0.7229 -0.3270 -0.0944
  499MOL0     C67284   8.507   5.588   2.470 -0.5290  0.1895 -0.0662
  499MOL0     C67285   8.646   5.402   2.854 -0.1422 -0.1241  0.2924
  499MOL0     C67286   8.720   5.497   2.934  1.9467  0.6087 -0.2604
  499MOL0     C67287   8.774   5.456   3.058 -1.0284  0.2627  0.6025
  499MOL0     C67288   8.762   5.319   3.096 -0.1119 -0.0903 -0.4209
  499MOL0     O67289   8.820   5.269   3.206 -0.6692  0.5208 -0.8028
  499MOL0     C67290   8.736   5.289   3.331  0.0099  0.1140 -0.4915
  499MOL0     C67291   8.657   5.162   3.354 -0.3090  0.2031 -0.0250
  499MOL0     C67292   8.557   5.193   3.465  0.5750  0.3976  0.4546
  499MOL0     C67293   8.428   5.248   3.403  0.8693  0.1958  0.1358
  499MOL0     C67294   8.366   5.146   3.318  0.0222 -0.5150 -0.8367
  499MOL0     C67295   8.303   5.062   3.261  0.7702  0.2095 -0.4302
  499MOL0     C67296   8.682   5.231   3.014 -0.6978  0.1596 -0.5733
  499MOL0     C67297   8.634   5.275   2.897  0.5436 -0.6329 -0.5277
  499MOL0     H67298   8.538   5.835   2.703 -2.4348  1.5746  0.7153
  499MOL0     H67299   8.406   5.953   2.549 -1.5039  0.6612 -1.9159
  499MOL0     H67300   8.170   5.732   2.305 -3.5787 -0.0509  1.9030
  499MOL0     H67301   8.163   5.853   2.435 -0.7854 -0.9076  0.2550
  499MOL0     H67302   8.127   6.028   2.276 -3.0176  1.5348 -0.8933
  499MOL0     H67303   8.132   5.927   2.138 -3.7076  0.0890 -1.3319
  499MOL0     H67304   7.935   5.808   2.190 -1.1517  1.4870 -0.7314
  499MOL0     H67305   7.939   5.863   2.361 -2.9769 -0.9874 -0.9717
  499MOL0     H67306   7.896   6.072   2.138 -0.3778  0.4949  0.3900
  499MOL0     H67307   7.774   5.967   2.202 -0.2808  2.9025 -4.4593
  499MOL0     H67308   7.942   6.144   2.388 -0.7991  0.5871 -0.2343
  499MOL0     H67309   7.803   6.204   2.294 -1.9933  0.5108  0.9099
  499MOL0     H67310   7.692   6.005   2.407 -2.2295  0.2319  3.2755
  499MOL0     H67311   7.828   5.972   2.508 -2.8649 -2.3292 -1.1786
  499MOL0     H67312   7.651   6.232   2.499 -1.7380 -2.9487 -1.8700
  499MOL0     H67313   7.634   6.122   2.617  0.0096  2.3845  1.5918
  499MOL0     H67314   7.892   6.286   2.578  0.7790 -1.0041 -1.3900
  499MOL0     H67315   7.856   6.166   2.712 -0.1961  1.9746  2.2008
  499MOL0     H67316   7.585   6.247   2.819 -1.5033 -0.4010 -2.3313
  499MOL0     H67317   7.479   6.441   2.990 -3.5363 -0.1069 -2.4669
  499MOL0     H67318   7.585   6.582   2.999 -0.6342  0.4041  0.3239
  499MOL0     H67319   7.368   6.674   2.958 -0.5041 -2.6717  1.6485
  499MOL0     H67320   7.316   6.549   2.855  0.5769 -1.5543  0.4909
  499MOL0     H67321   7.426   6.602   2.660 -5.0143  1.4674 -1.1546
  499MOL0     H67322   7.522   6.729   2.728  0.5250  0.5833 -2.4931
  499MOL0     H67323   7.289   6.843   2.792  0.8399  2.1764  0.1160
  499MOL0     H67324   7.220   6.728   2.677  1.8762 -0.9264  0.5818
  499MOL0     H67325   7.492   7.002   2.443  1.7825  3.2884 -0.7905
  499MOL0     H67326   7.465   7.330   2.373  0.3489  0.5323 -0.9737
  499MOL0     H67327   7.563   7.188   2.331 -1.2859 -2.9209 -0.5305
  499MOL0     H67328   7.444   7.255   2.213  1.8035 -1.1102 -1.0816
  499MOL0     H67329   6.959   7.489   2.655  1.0989  1.3414 -0.0356
  499MOL0     H67330   6.876   7.725   2.681 -2.4891 -1.6545 -0.5864
  499MOL0     H67331   6.836   7.926   2.675 -0.1206 -2.3429  0.0796
  499MOL0     H67332   6.789   8.064   2.582 -1.2433  0.2557  1.0325
  499MOL0     H67333   6.603   7.933   2.481 -0.6925 -0.9075 -0.9897
  499MOL0     H67334   6.646   7.784   2.533 -0.5876  0.0480  0.9517
  499MOL0     H67335   6.522   8.023   2.698 -0.3674 -0.1270 -0.2778
  499MOL0     H67336   6.593   7.890   2.780  2.4688  0.8536 -1.4859
  499MOL0     H67337   6.387   7.818   2.556  2.7266  1.8714 -0.2968
  499MOL0     H67338   6.454   7.725   2.683  3.9545  0.8544 -3.7550
  499MOL0     H67339   6.215   7.791   2.731 -0.1312  0.4680  1.4074
  499MOL0     H67340   6.268   7.963   2.745  2.6890  1.4993  1.5261
  499MOL0     H67341   6.407   7.768   2.916 -1.6824 -1.2468  0.8965
  499MOL0     H67342   6.343   7.940   2.932 -1.9171  0.6268 -0.7419
  499MOL0     H67343   6.113   7.826   2.963 -0.8606 -1.8660  1.2202
  499MOL0     H67344   6.228   7.820   3.089 -3.0089 -0.5736  0.4880
  499MOL0     H67345   6.132   7.617   2.906  2.2815  0.7475 -0.1439
  499MOL0     H67346   6.135   7.600   3.087  0.8302  4.5541  2.5411
  499MOL0     H67347   7.002   7.814   2.284  1.4337 -0.8073 -0.3381
  499MOL0     H67348   7.096   7.589   2.264 -0.7344  0.8819 -0.4477
  499MOL0     H67349   7.033   7.158   2.466 -0.2159  1.7854  1.9039
  499MOL0     H67350   7.106   6.939   2.587  0.7377 -3.3809 -1.9402
  499MOL0     H67351   8.433   5.618   2.274  1.4749 -0.7086 -0.2728
  499MOL0     H67352   8.549   5.491   2.445  1.5573  0.6295  1.4765
  499MOL0     H67353   8.733   5.598   2.898  0.0240  0.4543 -1.5548
  499MOL0     H67354   8.842   5.523   3.110 -4.3189  3.9360  0.5823
  499MOL0     H67355   8.801   5.315   3.415  1.0013  1.4131 -1.6112
  499MOL0     H67356   8.672   5.376   3.315  1.4785  0.7124 -4.2065
  499MOL0     H67357   8.728   5.085   3.386  0.0698  0.1394 -1.0037
  499MOL0     H67358   8.618   5.107   3.268  0.6948 -1.4502  0.5244
  499MOL0     H67359   8.598   5.260   3.541  1.8019 -0.3197  0.4635
  499MOL0     H67360   8.526   5.106   3.522  0.4577 -0.8103 -1.3797
  499MOL0     H67361   8.444   5.336   3.340 -0.5656 -1.5629 -2.9033
  499MOL0     H67362   8.350   5.271   3.477 -1.2306 -0.3635 -1.8095
  499MOL0     H67363   8.259   4.975   3.217  1.1699 -0.7221  0.9593
  499MOL0     H67364   8.656   5.132   3.050  0.9371 -0.7331 -1.6979
  499MOL0     H67365   8.573   5.200   2.849  0.8038 -0.9280 -0.4060
  500MOL0     O67366  10.353   6.240   6.303  0.5071  0.2886  0.1566
  500MOL0     C67367  10.453   6.202   6.364 -0.5379 -0.3992  0.5937
  500MOL0     O67368  10.570   6.277   6.384  0.0689 -0.4541 -0.2547
  500MOL0     C67369  10.550   6.417   6.379  0.1354  0.7016  0.1095
  500MOL0     C67370  10.485   6.486   6.480  0.5791 -0.1131 -0.4570
  500MOL0     C67371  10.459   6.623   6.469  0.1216  0.3752  0.0014
  500MOL0     C67372  10.492   6.692   6.345 -0.5554 -0.1708 -0.4659
  500MOL0     O67373  10.464   6.821   6.339  0.7038  0.6559  0.9950
  500MOL0     C67374  10.402   6.883   6.229 -0.6563  0.4481 -0.2861
  500MOL0     C67375  10.493   7.005   6.189 -0.7764  0.5285  0.1257
  500MOL0     C67376  10.416   7.071   6.070  0.5932  1.2993 -0.5488
  500MOL0     C67377  10.498   7.177   6.003 -0.0753  0.7013  0.1619
  500MOL0     C67378  10.421   7.248   5.893  0.6822 -0.0396  0.4831
  500MOL0     C67379  10.512   7.346   5.808  0.7669  0.8555 -0.5836
  500MOL0     C67380  10.408   7.449   5.745 -0.3133 -0.5004  1.4077
  500MOL0     C67381  10.460   7.589   5.732 -0.4668  0.9390  0.4703
  500MOL0     N67382  10.379   7.653   5.621  0.4469 -0.2953 -0.7538
  500MOL0     C67383  10.246   7.681   5.628 -0.2533 -0.0899 -0.1093
  500MOL0     C67384  10.216   7.755   5.520  0.2939 -0.0333 -0.5169
  500MOL0     C67385  10.085   7.828   5.479 -0.8834  0.0008 -0.1448
  500MOL0     C67386  10.039   7.942   5.568  0.0583  0.8308 -0.2975
  500MOL0     C67387   9.981   7.888   5.693  1.0806 -0.2732 -0.2803
  500MOL0     C67388   9.870   7.984   5.749 -0.6657  0.1170  0.0314
  500MOL0     O67389   9.917   8.111   5.799 -0.7790 -0.1186  0.4742
  500MOL0     C67390   9.936   8.203   5.697  0.9623 -0.7255 -0.5860
  500MOL0     C67391   9.841   8.224   5.600  0.4167  0.4130  1.2717
  500MOL0     C67392   9.869   8.309   5.488 -0.6471 -0.0025  0.9875
  500MOL0     C67393   9.769   8.297   5.377 -0.4177 -0.2527 -0.8825
  500MOL0     C67394   9.990   8.381   5.487  0.3888 -0.4056  0.0643
  500MOL0     C67395  10.053   8.474   5.384  1.0494  0.2602  0.2162
  500MOL0     O67396  10.183   8.523   5.396 -0.6373  0.4532 -0.4758
  500MOL0     C67397  10.218   8.645   5.346  0.6210 -1.1797 -0.2032
  500MOL0     C67398  10.342   8.688   5.392 -0.4678 -1.0159  0.2952
  500MOL0     C67399  10.385   8.827   5.379 -0.0664  0.1333 -0.3963
  500MOL0     C67400  10.304   8.913   5.306 -0.2213 -0.6096 -0.4209
  500MOL0     O67401  10.345   9.037   5.273 -0.3514  1.3944  0.8109
  500MOL0     C67402  10.400   9.125   5.369 -0.5418 -0.1375  0.5170
  500MOL0     C67403  10.286   9.209   5.435 -0.7956  0.0088 -0.4965
  500MOL0     C67404  10.351   9.280   5.557 -0.9412  0.1314  0.5504
  500MOL0     C67405  10.276   9.389   5.623 -0.0555  0.0184 -0.2749
  500MOL0     C67406  10.347   9.461   5.744 -0.6585  0.8757 -0.6006
  500MOL0     C67407  10.338   9.389   5.887  0.3813  0.0468  0.1225
  500MOL0     C67408  10.448   9.432   5.990 -0.2438 -0.2518  0.9691
  500MOL0     C67409  10.432   9.581   6.024 -0.0598  0.8910  0.6162
  500MOL0    Cl67410  10.565   9.644   6.113  0.0294 -0.0745 -0.1300
  500MOL0     C67411  10.182   8.871   5.248  0.1196 -0.2913 -0.9330
  500MOL0     C67412  10.138   8.737   5.275 -0.4672 -0.1743 -0.4519
  500MOL0     O67413   9.983   8.492   5.282  0.5693  0.2335  0.1894
  500MOL0     C67414  10.068   8.372   5.603 -0.2470  0.0655  0.2984
  500MOL0     C67415  10.048   8.280   5.702  0.1394  0.4400  0.1355
  500MOL0     N67416  10.334   7.769   5.446 -0.6128  0.7596  0.3421
  500MOL0     N67417  10.430   7.720   5.518 -1.5150 -0.3627  0.1856
  500MOL0     C67418  10.563   6.635   6.243 -0.4246 -0.1519  0.3235
  500MOL0     C67419  10.582   6.488   6.266 -0.2246  1.0093 -0.8597
  500MOL0     C67420  10.460   6.057   6.400 -0.2707  0.0557  0.0865
  500MOL0     C67421  10.547   6.011   6.495 -0.1348 -0.4184  0.1288
  500MOL0     C67422  10.561   5.877   6.530  0.1753  0.8025  0.7856
  500MOL0     C67423  10.486   5.775   6.464 -0.0173 -0.7015 -0.1887
  500MOL0     O67424  10.478   5.642   6.490 -0.1236  0.4516 -1.3452
  500MOL0     C67425  10.590   5.581   6.559  0.5641 -0.0431 -0.0321
  500MOL0     C67426  10.568   5.444   6.593  1.0755  0.6718 -0.2703
  500MOL0     C67427  10.471   5.405   6.708  0.3493  0.1939 -0.0135
  500MOL0     C67428  10.318   5.395   6.673  0.3446 -0.0898  0.2932
  500MOL0     C67429  10.235   5.346   6.786 -0.2440  0.7499 -0.6437
  500MOL0     C67430  10.171   5.313   6.886 -0.6956 -0.1278  0.3525
  500MOL0     C67431  10.385   5.828   6.381 -0.3664  0.3468 -0.4302
  500MOL0     C67432  10.380   5.964   6.339  0.7556 -0.0394 -1.5318
  500MOL0     H67433  10.438   6.424   6.556 -1.6136  2.3679  0.3818
  500MOL0     H67434  10.407   6.681   6.544  0.5246  1.8711 -0.8295
  500MOL0     H67435  10.395   6.811   6.147 -0.3028 -0.9901  0.9088
  500MOL0     H67436  10.299   6.913   6.251 -0.2974  1.7045 -0.2201
  500MOL0     H67437  10.502   7.065   6.280  1.2309 -0.9274  0.9662
  500MOL0     H67438  10.594   6.967   6.168 -1.6692 -3.5416  2.1800
  500MOL0     H67439  10.402   6.992   5.996  1.8993  2.5979 -2.2938
  500MOL0     H67440  10.318   7.105   6.104 -1.3191 -3.6957 -0.3013
  500MOL0     H67441  10.518   7.247   6.085  0.7241 -0.7121  1.2204
  500MOL0     H67442  10.590   7.133   5.962  0.0652 -0.6339  1.8288
  500MOL0     H67443  10.358   7.184   5.831 -1.0460  0.5020  1.6096
  500MOL0     H67444  10.350   7.308   5.952 -0.3781 -1.2471  0.4729
  500MOL0     H67445  10.587   7.389   5.875  1.2579 -0.9446  0.1002
  500MOL0     H67446  10.556   7.300   5.719 -0.6616  0.1976 -0.9782
  500MOL0     H67447  10.385   7.397   5.651  0.2471  1.4359  0.1176
  500MOL0     H67448  10.310   7.456   5.792 -1.2018  1.5233 -0.5392
  500MOL0     H67449  10.568   7.593   5.713 -0.3767  4.7486  0.9963
  500MOL0     H67450  10.455   7.646   5.825 -2.0297  0.8647  0.4496
  500MOL0     H67451  10.176   7.642   5.701  1.4487 -2.2761  0.4572
  500MOL0     H67452  10.108   7.866   5.379  1.1295  1.0598  0.6502
  500MOL0     H67453  10.010   7.749   5.467 -0.2562 -0.2457 -3.2838
  500MOL0     H67454   9.969   8.005   5.513  0.4497  0.6122 -1.0564
  500MOL0     H67455  10.129   7.994   5.601  0.0233 -0.8773  2.8713
  500MOL0     H67456  10.063   7.875   5.764  2.0272  3.9817 -0.2882
  500MOL0     H67457   9.931   7.794   5.669 -1.5410  0.5093  1.5816
  500MOL0     H67458   9.825   7.926   5.830 -0.9570 -1.2817 -1.0693
  500MOL0     H67459   9.782   7.987   5.683 -0.1900  2.3422 -0.5753
  500MOL0     H67460   9.747   8.169   5.605 -0.3178  1.6917  5.5952
  500MOL0     H67461   9.676   8.258   5.420  0.8980 -0.5283  1.8954
  500MOL0     H67462   9.758   8.394   5.327 -1.5428  1.1315  1.8145
  500MOL0     H67463   9.811   8.230   5.302 -0.7177 -2.0709  0.5016
  500MOL0     H67464  10.396   8.615   5.452  0.8617 -0.4842 -0.2176
  500MOL0     H67465  10.482   8.859   5.414  0.8671 -1.0536 -1.7910
  500MOL0     H67466  10.449   9.072   5.451  0.6246 -1.0008 -0.7003
  500MOL0     H67467  10.472   9.183   5.311 -0.9064  1.8083  1.8879
  500MOL0     H67468  10.245   9.279   5.362 -3.0953 -1.2754 -0.5320
  500MOL0     H67469  10.200   9.143   5.449  0.5267 -1.6307  0.3018
  500MOL0     H67470  10.446   9.319   5.519 -0.6071  0.9512  2.1453
  500MOL0     H67471  10.379   9.207   5.633 -2.1238 -0.4994  0.3976
  500MOL0     H67472  10.243   9.465   5.552  0.9288  1.9139  1.2166
  500MOL0     H67473  10.178   9.348   5.649 -0.4618 -0.2620 -2.1003
  500MOL0     H67474  10.303   9.559   5.766  1.2966  1.3759  1.4104
  500MOL0     H67475  10.454   9.479   5.726 -0.1444 -1.5544 -0.3548
  500MOL0     H67476  10.243   9.424   5.927 -0.3666 -0.9669 -0.6958
  500MOL0     H67477  10.332   9.280   5.876 -0.4592  0.3250 -3.7464
  500MOL0     H67478  10.549   9.417   5.951 -0.6291  1.5887 -0.9426
  500MOL0     H67479  10.444   9.385   6.088  1.5135  1.4276  1.9293
  500MOL0     H67480  10.340   9.589   6.083 -2.4379  2.2814 -2.8896
  500MOL0     H67481  10.419   9.632   5.928 -1.7792 -0.6843 -0.0471
  500MOL0     H67482  10.111   8.941   5.206 -0.9648  1.0279  2.6752
  500MOL0     H67483  10.035   8.726   5.242 -0.7370  2.3200 -0.6256
  500MOL0     H67484  10.148   8.440   5.632 -1.1123  1.0109  0.5001
  500MOL0     H67485  10.103   8.271   5.796  1.4832  6.9946  0.4883
  500MOL0     H67486  10.590   6.701   6.161  2.7356  0.9479  2.0725
  500MOL0     H67487  10.637   6.431   6.192 -2.3629  0.2713 -1.9518
  500MOL0     H67488  10.614   6.076   6.550  0.0985 -1.4866  1.1515
  500MOL0     H67489  10.643   5.858   6.599  0.2548  1.7676  0.9709
  500MOL0     H67490  10.680   5.596   6.498  1.8597 -2.4438  1.1698
  500MOL0     H67491  10.599   5.623   6.660  3.2292 -0.9743  0.1832
  500MOL0     H67492  10.665   5.396   6.611 -0.3155 -2.2638 -0.0914
  500MOL0     H67493  10.524   5.401   6.503  1.7154  0.6861 -0.5932
  500MOL0     H67494  10.489   5.473   6.792 -0.0767  1.8953 -1.2230
  500MOL0     H67495  10.504   5.304   6.731  1.3692  1.0266  2.4934
  500MOL0     H67496  10.311   5.318   6.596  0.5560 -2.8911  2.8969
  500MOL0     H67497  10.285   5.492   6.636  4.8558  0.5502 -2.8601
  500MOL0     H67498  10.104   5.278   6.961 -2.1636 -1.8802 -1.6745
  500MOL0     H67499  10.305   5.773   6.332 -1.9690 -0.4553  2.8272
  500MOL0     H67500  10.299   5.992   6.273  2.6578  0.0678 -3.9442
  501MOL0     O67501   5.737  11.203   4.643  0.1209 -0.3762 -0.2859
  501MOL0     C67502   5.703  11.096   4.700  0.1300  0.2743 -0.2162
  501MOL0     O67503   5.634  11.088   4.819  0.9914 -0.6491  0.0780
  501MOL0     C67504   5.551  11.198   4.835 -0.0056  0.3519 -0.7986
  501MOL0     C67505   5.452  11.237   4.742 -0.9850  0.1537  0.0321
  501MOL0     C67506   5.372  11.341   4.776 -0.4981 -0.3532  0.0065
  501MOL0     C67507   5.387  11.421   4.884  0.3364 -0.7241  0.0591
  501MOL0     O67508   5.315  11.536   4.893 -0.4646  0.0516 -0.2429
  501MOL0     C67509   5.185  11.542   4.968 -0.4080  0.1483  1.0165
  501MOL0     C67510   5.190  11.508   5.119  0.6072  0.4075  0.1114
  501MOL0     C67511   5.054  11.452   5.163 -0.0718 -0.5736 -0.3784
  501MOL0     C67512   5.026  11.294   5.137  0.9099  0.9732  0.0558
  501MOL0     C67513   4.873  11.261   5.137 -0.5439 -0.3521 -0.0626
  501MOL0     C67514   4.827  11.136   5.060  0.4291 -0.8569  0.0401
  501MOL0     C67515   4.673  11.126   5.048 -0.4639  0.9839 -1.3424
  501MOL0     C67516   4.619  10.986   5.020 -0.4653  0.0486 -0.3113
  501MOL0     N67517   4.664  10.932   4.901  0.8399 -0.6753  0.4117
  501MOL0     C67518   4.655  10.795   4.892  0.6341 -0.5709  0.1791
  501MOL0     C67519   4.715  10.769   4.768  1.4190 -0.4578 -1.1721
  501MOL0     C67520   4.740  10.620   4.732  0.6947 -1.3421 -0.2256
  501MOL0     C67521   4.877  10.597   4.676 -0.2817  0.8631 -0.5770
  501MOL0     C67522   4.985  10.621   4.787  1.0155  0.0614  0.6770
  501MOL0     C67523   5.008  10.496   4.859  0.0142  0.3013  0.1769
  501MOL0     O67524   5.054  10.386   4.783 -0.5494 -0.3294 -0.2185
  501MOL0     C67525   5.196  10.363   4.779 -0.0953  0.4157  0.0290
  501MOL0     C67526   5.307  10.439   4.821  0.6793 -0.9460  0.3280
  501MOL0     C67527   5.439  10.399   4.818  0.2893 -0.4906  0.1000
  501MOL0     C67528   5.538  10.508   4.855  0.1569 -0.3062 -0.1123
  501MOL0     C67529   5.473  10.272   4.760  0.2892 -0.1827  0.2467
  501MOL0     C67530   5.604  10.219   4.727  0.3530  0.2788 -0.3053
  501MOL0     O67531   5.701  10.302   4.691 -0.2454  0.9852 -0.1439
  501MOL0     C67532   5.826  10.264   4.656  1.0984 -0.2911 -0.2755
  501MOL0     C67533   5.863  10.152   4.580 -0.4040  0.4959  0.0031
  501MOL0     C67534   5.992  10.124   4.556  0.1787  0.5419 -0.1524
  501MOL0     C67535   6.092  10.200   4.615  0.0173  0.0968  0.3595
  501MOL0     O67536   6.233  10.182   4.608  0.0106 -0.5727  0.6180
  501MOL0     C67537   6.298  10.109   4.504 -0.2046 -0.1884  0.1348
  501MOL0     C67538   6.395  10.191   4.426 -0.5047 -0.8282 -0.0866
  501MOL0     C67539   6.316  10.300   4.351 -0.0742  0.2180  0.3623
  501MOL0     C67540   6.398  10.351   4.227 -0.1312  0.0494  0.3708
  501MOL0     C67541   6.335  10.468   4.155 -0.6192  0.4031 -0.2917
  501MOL0     C67542   6.290  10.589   4.239  0.1937  0.5328  0.2165
  501MOL0     C67543   6.406  10.660   4.303 -0.4726 -0.5741  0.1747
  501MOL0     C67544   6.367  10.771   4.396 -0.4632 -0.7489  0.1285
  501MOL0    Cl67545   6.509  10.874   4.397  0.1952  0.2455 -0.1107
  501MOL0     C67546   6.049  10.311   4.686  0.3270 -0.5142  0.3429
  501MOL0     C67547   5.921  10.331   4.722 -0.0048 -0.2971 -0.7171
  501MOL0     O67548   5.609  10.097   4.718  0.4028  0.0850 -0.0315
  501MOL0     C67549   5.359  10.196   4.725 -0.5746  0.3581  0.2199
  501MOL0     C67550   5.230  10.234   4.741  0.7737 -0.2195  0.0600
  501MOL0     N67551   4.759  10.887   4.713 -0.4097  0.4036 -0.1625
  501MOL0     N67552   4.730  10.983   4.797  0.0499 -0.5663  0.0377
  501MOL0     C67553   5.487  11.389   4.982 -0.3246 -0.0730  0.3014
  501MOL0     C67554   5.569  11.281   4.948  0.1806  0.5066 -1.0628
  501MOL0     C67555   5.752  10.969   4.641 -0.0321 -0.5612  0.1557
  501MOL0     C67556   5.797  10.984   4.506  0.1167  1.2010 -0.3925
  501MOL0     C67557   5.839  10.860   4.440 -0.1737  0.3441 -0.3800
  501MOL0     C67558   5.858  10.744   4.521  0.1259  0.5107 -1.4673
  501MOL0     O67559   5.920  10.627   4.478  0.8848 -0.6814  0.0731
  501MOL0     C67560   5.910  10.609   4.337  0.3157  0.3975  0.9149
  501MOL0     C67561   5.926  10.467   4.307 -0.2306 -0.8561  0.6917
  501MOL0     C67562   5.963  10.423   4.165  0.7861  1.0301  0.5017
  501MOL0     C67563   5.961  10.266   4.155  0.6935  0.8333  0.1224
  501MOL0     C67564   5.900  10.220   4.025  0.8919 -0.2094 -1.4858
  501MOL0     C67565   5.854  10.173   3.924 -0.4980  0.0406  0.4607
  501MOL0     C67566   5.816  10.741   4.656 -0.3988  0.2221 -0.1211
  501MOL0     C67567   5.753  10.850   4.706 -0.5999  1.1785  0.0082
  501MOL0     H67568   5.432  11.177   4.654 -2.1563 -0.0079  0.3895
  501MOL0     H67569   5.298  11.361   4.699 -0.1721 -3.8389 -1.4015
  501MOL0     H67570   5.146  11.643   4.950 -0.9293 -0.5581 -2.5650
  501MOL0     H67571   5.120  11.472   4.914  0.8230  1.7116 -2.9001
  501MOL0     H67572   5.256  11.422   5.136  0.4253 -0.0623 -1.3537
  501MOL0     H67573   5.213  11.596   5.180 -2.3760  2.1870 -1.1102
  501MOL0     H67574   5.052  11.463   5.272  0.9563  3.5795 -0.6150
  501MOL0     H67575   4.974  11.511   5.118 -1.0232 -2.0777 -0.7026
  501MOL0     H67576   5.076  11.274   5.042 -1.0920 -1.1562 -0.6635
  501MOL0     H67577   5.075  11.228   5.209  0.7057  0.3488 -0.3673
  501MOL0     H67578   4.832  11.253   5.237  2.1669  1.2505  1.2977
  501MOL0     H67579   4.821  11.348   5.097 -0.3716  1.1572  2.7504
  501MOL0     H67580   4.858  11.141   4.956 -2.4480 -1.0123 -0.9146
  501MOL0     H67581   4.864  11.044   5.108 -0.5456 -0.2243  2.1383
  501MOL0     H67582   4.620  11.184   5.125  0.9116  0.2581  0.2134
  501MOL0     H67583   4.636  11.173   4.957  0.9148  0.8742 -1.9763
  501MOL0     H67584   4.510  10.986   5.018 -0.6650 -1.3195  3.1675
  501MOL0     H67585   4.647  10.923   5.105 -0.8300  0.1268 -0.1328
  501MOL0     H67586   4.618  10.716   4.957 -0.2284 -1.0053 -0.8142
  501MOL0     H67587   4.722  10.565   4.824 -4.4074  0.2359  0.0269
  501MOL0     H67588   4.665  10.587   4.660 -0.8613  0.8090  0.3190
  501MOL0     H67589   4.889  10.668   4.594 -2.7860  1.4893 -0.4828
  501MOL0     H67590   4.881  10.493   4.640  0.5274  0.3853  0.8003
  501MOL0     H67591   4.958  10.704   4.854 -0.5085  1.0458 -1.0600
  501MOL0     H67592   5.083  10.636   4.742 -0.7552  0.7460 -3.3188
  501MOL0     H67593   4.918  10.474   4.917 -0.1150  1.7190  0.5305
  501MOL0     H67594   5.083  10.522   4.934  0.1286  3.6681 -0.9511
  501MOL0     H67595   5.269  10.534   4.858 -1.5729 -1.1129 -1.3108
  501MOL0     H67596   5.498  10.570   4.936  0.2512  0.1203 -0.3840
  501MOL0     H67597   5.626  10.454   4.892  1.0381 -0.4682 -2.3394
  501MOL0     H67598   5.555  10.574   4.770 -1.6217  0.4063  0.0369
  501MOL0     H67599   5.789  10.086   4.535 -0.3743  0.2964  0.2475
  501MOL0     H67600   6.019  10.042   4.490  3.9416  1.3639  0.1997
  501MOL0     H67601   6.354  10.025   4.545  1.5427 -0.2946 -2.2402
  501MOL0     H67602   6.221  10.052   4.450  0.5106 -1.4773  0.4544
  501MOL0     H67603   6.476  10.240   4.481  0.2503 -1.0899 -0.9483
  501MOL0     H67604   6.447  10.130   4.352  1.7492  0.7815  0.0743
  501MOL0     H67605   6.280  10.372   4.426 -1.9031  0.2209 -0.4751
  501MOL0     H67606   6.234  10.240   4.310  2.4795 -1.4333 -2.7208
  501MOL0     H67607   6.501  10.368   4.257  0.3495 -0.9338 -0.6415
  501MOL0     H67608   6.417  10.276   4.150 -2.1863  1.2982 -1.4750
  501MOL0     H67609   6.258  10.423   4.092  2.5345 -1.6771 -2.9961
  501MOL0     H67610   6.406  10.498   4.078 -0.6587  2.0917  0.2948
  501MOL0     H67611   6.241  10.656   4.167  1.4011  0.9157 -0.2659
  501MOL0     H67612   6.213  10.554   4.308 -0.5217  1.4547 -0.0805
  501MOL0     H67613   6.457  10.707   4.218  5.5963  0.2699  3.7207
  501MOL0     H67614   6.474  10.588   4.350 -1.0831 -0.9302  0.5177
  501MOL0     H67615   6.330  10.732   4.491  0.2717 -0.4051  0.5649
  501MOL0     H67616   6.287  10.829   4.348  0.8222 -0.7948 -2.2175
  501MOL0     H67617   6.128  10.361   4.742  0.0620 -2.2271  2.3846
  501MOL0     H67618   5.878  10.395   4.798 -0.9827  3.3681 -4.0601
  501MOL0     H67619   5.370  10.100   4.674  3.6129  0.8341 -0.1811
  501MOL0     H67620   5.140  10.175   4.727 -0.4965  1.8597 -1.0321
  501MOL0     H67621   5.498  11.456   5.067  0.2522 -0.1523  0.2905
  501MOL0     H67622   5.658  11.258   5.005 -0.4275 -2.4848 -1.1830
  501MOL0     H67623   5.792  11.075   4.447 -1.3597  1.2217 -0.2566
  501MOL0     H67624   5.865  10.857   4.334 -0.8007 -4.0931 -0.5915
  501MOL0     H67625   5.829  10.648   4.275  2.5187  0.4437 -2.1329
  501MOL0     H67626   5.993  10.663   4.291  0.9215 -2.9504 -2.3635
  501MOL0     H67627   5.827  10.435   4.340 -1.5296  0.9262 -1.2303
  501MOL0     H67628   6.006  10.441   4.377  2.0467  0.0731 -1.4262
  501MOL0     H67629   6.063  10.458   4.140  2.1670 -2.7776  0.0123
  501MOL0     H67630   5.894  10.468   4.093 -1.6690 -1.0696  1.3564
  501MOL0     H67631   5.920  10.209   4.238 -0.3990 -0.1054 -1.0202
  501MOL0     H67632   6.067  10.241   4.156  1.4377  3.1731  4.4479
  501MOL0     H67633   5.828  10.151   3.822  0.3222 -1.3621  0.5321
  501MOL0     H67634   5.828  10.653   4.718  3.0365 -0.1067 -1.0988
  501MOL0     H67635   5.706  10.842   4.803  2.3447  0.6826  1.5177
  502MOL0     O67636   2.536   7.643   5.395 -0.4275  0.3246  0.4943
  502MOL0     C67637   2.541   7.610   5.514 -1.3420 -0.1338  0.0471
  502MOL0     O67638   2.486   7.678   5.620  0.0282 -0.4077 -0.1271
  502MOL0     C67639   2.438   7.811   5.612 -0.4567  0.8800  0.3396
  502MOL0     C67640   2.329   7.839   5.703  0.2429  0.1690 -0.3295
  502MOL0     C67641   2.307   7.974   5.720  0.3366  0.1103 -1.1906
  502MOL0     C67642   2.371   8.065   5.639 -0.0436 -0.2596  0.7488
  502MOL0     O67643   2.345   8.197   5.665  0.0008  1.2022  0.0582
  502MOL0     C67644   2.451   8.296   5.653  0.6909  0.6625 -0.1865
  502MOL0     C67645   2.399   8.397   5.755 -0.1238 -0.1569 -0.7811
  502MOL0     C67646   2.308   8.503   5.697  0.0986  0.1468 -1.2447
  502MOL0     C67647   2.271   8.593   5.815  0.0291  0.7778 -0.3744
  502MOL0     C67648   2.179   8.706   5.773  0.6069 -0.6434  0.5569
  502MOL0     C67649   2.028   8.672   5.815  0.0012 -0.8179  0.5394
  502MOL0     C67650   1.942   8.784   5.753  0.4078 -0.3144  0.2260
  502MOL0     C67651   1.798   8.752   5.758 -0.4417  0.0364  0.2848
  502MOL0     N67652   1.732   8.823   5.867  0.3224 -0.0817  0.3815
  502MOL0     C67653   1.709   8.960   5.878 -0.1261 -0.0318  0.3486
  502MOL0     C67654   1.627   8.978   5.984 -0.7770  0.6551  0.1892
  502MOL0     C67655   1.597   9.113   6.034 -0.4872  0.9032  0.1083
  502MOL0     C67656   1.721   9.152   6.119 -1.1927 -0.0087  1.0564
  502MOL0     C67657   1.735   9.085   6.253 -0.9103 -0.2925 -0.6710
  502MOL0     C67658   1.874   9.125   6.317  0.3312  0.2760 -0.9947
  502MOL0     O67659   1.884   9.032   6.419 -0.9175  0.4245  0.5111
  502MOL0     C67660   1.939   9.060   6.550  0.0887 -0.7535 -0.2641
  502MOL0     C67661   1.996   9.185   6.588 -0.7658  0.1461  0.0239
  502MOL0     C67662   2.036   9.221   6.719  0.1213 -0.2210  0.0517
  502MOL0     C67663   2.095   9.362   6.755 -0.7244  0.1506  0.0901
  502MOL0     C67664   2.020   9.119   6.815 -1.0564 -0.0989  0.0148
  502MOL0     C67665   2.066   9.134   6.957 -0.0584  0.0350  1.2617
  502MOL0     O67666   2.023   9.047   7.044  0.8695  0.7577  0.0353
  502MOL0     C67667   2.071   9.061   7.171  0.0129  0.5499 -0.4788
  502MOL0     C67668   1.976   9.094   7.266 -0.4851  0.2706 -0.0297
  502MOL0     C67669   2.015   9.132   7.399 -0.1378 -0.5019 -0.3261
  502MOL0     C67670   2.158   9.137   7.423 -0.9594 -0.2203  1.1984
  502MOL0     O67671   2.182   9.177   7.550 -0.4703 -0.2275  0.1459
  502MOL0     C67672   2.310   9.175   7.610 -0.3962  0.6845  0.1399
  502MOL0     C67673   2.348   9.036   7.677 -0.1999  0.0506  0.6076
  502MOL0     C67674   2.241   8.989   7.769  0.9899 -0.1343 -0.4379
  502MOL0     C67675   2.300   8.895   7.869  0.0250 -0.2269  0.1991
  502MOL0     C67676   2.200   8.811   7.948  0.3590  0.2973 -0.9738
  502MOL0     C67677   2.156   8.887   8.074 -0.1352  0.5418  0.2034
  502MOL0     C67678   2.126   8.785   8.196 -0.5081  0.0675  0.7331
  502MOL0     C67679   2.030   8.841   8.308 -0.7218  0.0050  0.0045
  502MOL0    Cl67680   1.990   8.718   8.426  0.0691  0.0743 -0.0869
  502MOL0     C67681   2.247   9.098   7.327  0.2632  0.0177  0.7400
  502MOL0     C67682   2.207   9.047   7.207  0.5406 -0.1454 -0.5543
  502MOL0     O67683   2.162   9.213   6.981 -0.2267  0.6742  0.2217
  502MOL0     C67684   1.967   8.987   6.776 -0.2972  0.2215  0.1932
  502MOL0     C67685   1.929   8.966   6.641  1.2794  0.9660 -0.8942
  502MOL0     N67686   1.610   8.857   6.045 -0.9610  0.2162 -0.4908
  502MOL0     N67687   1.667   8.761   5.975 -0.4242 -0.6245 -0.1838
  502MOL0     C67688   2.460   8.027   5.544 -0.1447  0.6075  0.2792
  502MOL0     C67689   2.501   7.902   5.536 -0.5136  0.4167 -0.4197
  502MOL0     C67690   2.611   7.494   5.556  0.4536  0.4245 -0.0675
  502MOL0     C67691   2.632   7.384   5.474 -0.2258 -0.2998 -0.1019
  502MOL0     C67692   2.702   7.270   5.522 -0.3151  0.7414 -1.3217
  502MOL0     C67693   2.740   7.261   5.654  0.1094  0.6803 -0.2453
  502MOL0     O67694   2.796   7.149   5.701  0.6101  0.0213  0.8381
  502MOL0     C67695   2.917   7.123   5.638  0.1848 -0.2681 -0.3865
  502MOL0     C67696   3.026   7.119   5.733  0.0161 -0.8186 -0.5525
  502MOL0     C67697   3.078   7.256   5.783  1.1233 -0.7670 -0.9613
  502MOL0     C67698   3.219   7.230   5.842  0.5089 -0.1214  0.6699
  502MOL0     C67699   3.235   7.147   5.965 -0.0037 -0.6624 -0.3367
  502MOL0     C67700   3.265   7.082   6.064  0.4902 -0.0952  0.7079
  502MOL0     C67701   2.707   7.361   5.739 -0.1447  0.5821  0.2551
  502MOL0     C67702   2.650   7.481   5.687 -0.4958 -0.0686  0.0370
  502MOL0     H67703   2.264   7.768   5.753  1.1481 -0.8665 -0.5773
  502MOL0     H67704   2.248   8.011   5.804  2.1805 -1.3756  0.8653
  502MOL0     H67705   2.548   8.253   5.677  0.3735  0.1233  0.1326
  502MOL0     H67706   2.447   8.347   5.556 -0.2782 -1.3480 -1.2670
  502MOL0     H67707   2.348   8.349   5.840 -2.0560  0.7279 -1.4100
  502MOL0     H67708   2.497   8.434   5.786 -0.2915  1.3710 -1.9706
  502MOL0     H67709   2.356   8.553   5.613  0.8570 -1.5433 -1.8664
  502MOL0     H67710   2.221   8.453   5.654  0.2095 -1.7497  0.5686
  502MOL0     H67711   2.237   8.542   5.906 -0.5634  0.4050 -0.7958
  502MOL0     H67712   2.365   8.641   5.843 -0.1092  2.0591 -1.9552
  502MOL0     H67713   2.224   8.799   5.812 -0.0652  1.2571 -2.8013
  502MOL0     H67714   2.177   8.726   5.665 -0.2030  1.3020  0.8845
  502MOL0     H67715   1.993   8.577   5.773 -1.5974  0.9894 -2.6062
  502MOL0     H67716   2.017   8.680   5.924  1.4846  2.1988  0.5711
  502MOL0     H67717   1.958   8.876   5.810 -3.5771 -0.4893  1.9327
  502MOL0     H67718   1.964   8.805   5.648  1.4757 -0.5777  0.3830
  502MOL0     H67719   1.786   8.645   5.777 -0.6237 -0.7507 -3.5277
  502MOL0     H67720   1.749   8.766   5.661 -0.5760 -2.6624 -0.1018
  502MOL0     H67721   1.740   9.040   5.812  0.3501 -1.3629 -1.1044
  502MOL0     H67722   1.591   9.180   5.948 -0.4688  1.0540  0.2252
  502MOL0     H67723   1.506   9.106   6.094  0.7489  1.3634  2.0993
  502MOL0     H67724   1.727   9.260   6.136  4.8731  0.2473 -0.1691
  502MOL0     H67725   1.815   9.142   6.064 -1.9312  2.9433 -0.9620
  502MOL0     H67726   1.721   8.977   6.247 -1.9649 -0.4240  2.2671
  502MOL0     H67727   1.653   9.119   6.317 -1.2583  1.1691 -1.8316
  502MOL0     H67728   1.863   9.223   6.364  0.3418 -0.0527 -0.2970
  502MOL0     H67729   1.953   9.108   6.243  0.4437 -1.3918 -0.5494
  502MOL0     H67730   2.016   9.259   6.511  1.4180  0.1597  0.5389
  502MOL0     H67731   2.204   9.363   6.750 -0.5841  1.0358  2.3850
  502MOL0     H67732   2.063   9.444   6.689  1.9890  1.9484  0.8438
  502MOL0     H67733   2.071   9.389   6.858  2.7356 -0.1661  1.1076
  502MOL0     H67734   1.871   9.099   7.238 -0.2449 -1.0394 -1.2674
  502MOL0     H67735   1.945   9.166   7.474  0.0877  1.4806 -0.9545
  502MOL0     H67736   2.379   9.203   7.529  1.5493  0.3492  1.5981
  502MOL0     H67737   2.330   9.256   7.681 -1.4201 -0.2372  1.5365
  502MOL0     H67738   2.358   8.959   7.600 -2.4344  1.8424 -1.6436
  502MOL0     H67739   2.446   9.035   7.725  0.2399 -1.1787 -0.2658
  502MOL0     H67740   2.162   8.933   7.720 -1.2223  0.6992  1.9583
  502MOL0     H67741   2.202   9.072   7.829 -2.2921 -0.6725 -1.6212
  502MOL0     H67742   2.345   8.827   7.796  1.3876 -1.0970  1.7976
  502MOL0     H67743   2.367   8.944   7.940 -2.2039  2.1157  0.8691
  502MOL0     H67744   2.253   8.723   7.985  1.8822  0.7954 -1.8582
  502MOL0     H67745   2.105   8.793   7.898  0.7275 -1.9317 -0.9709
  502MOL0     H67746   2.219   8.973   8.098 -0.4275  1.2308 -1.3658
  502MOL0     H67747   2.057   8.925   8.047  0.1714 -0.7640 -3.3115
  502MOL0     H67748   2.218   8.743   8.238 -0.1888 -1.2858 -1.2019
  502MOL0     H67749   2.075   8.695   8.159  0.1928 -0.3232  0.7029
  502MOL0     H67750   1.937   8.858   8.253 -2.6251 -0.8993  2.7499
  502MOL0     H67751   2.064   8.937   8.349 -0.0114 -1.1441  2.2524
  502MOL0     H67752   2.350   9.091   7.361  0.2201  1.0718  1.1448
  502MOL0     H67753   2.268   8.984   7.142  0.2378 -1.9393  0.8252
  502MOL0     H67754   1.956   8.913   6.854 -0.4372 -0.8369 -0.8111
  502MOL0     H67755   1.889   8.875   6.596  2.5070 -0.8646  1.5133
  502MOL0     H67756   2.495   8.098   5.470 -1.4030 -0.9015 -1.8817
  502MOL0     H67757   2.586   7.868   5.477  1.8877 -1.0438  3.4480
  502MOL0     H67758   2.604   7.374   5.370 -1.6400  0.5178  0.1789
  502MOL0     H67759   2.719   7.184   5.457  0.3952  0.8628 -1.3021
  502MOL0     H67760   2.919   7.028   5.583  1.4808  0.1803 -1.1495
  502MOL0     H67761   2.941   7.206   5.571 -1.1886  2.4278  2.2222
  502MOL0     H67762   3.107   7.072   5.677 -1.0782 -0.8148 -2.2102
  502MOL0     H67763   2.996   7.057   5.818  2.7803  0.6586  1.6625
  502MOL0     H67764   3.009   7.293   5.859 -0.6359 -0.7526 -2.4849
  502MOL0     H67765   3.080   7.323   5.697  0.9293 -1.1096 -1.2383
  502MOL0     H67766   3.257   7.327   5.876  0.4321 -0.2926  1.2478
  502MOL0     H67767   3.280   7.198   5.758  0.4989  0.2551  0.5177
  502MOL0     H67768   3.286   7.015   6.145 -0.5324 -1.1411  0.1336
  502MOL0     H67769   2.722   7.343   5.845  1.1416 -4.8395 -0.5834
  502MOL0     H67770   2.636   7.554   5.766  2.2718  3.2482 -2.2659
  503MOL0     O67771   7.584   7.874   9.290 -0.4782  0.2069  0.3772
  503MOL0     C67772   7.534   7.965   9.230  0.0061  0.6885  0.4853
  503MOL0     O67773   7.478   8.070   9.288  0.1532  0.0313 -0.4201
  503MOL0     C67774   7.448   8.069   9.418  0.7270 -0.0196 -0.7178
  503MOL0     C67775   7.335   7.995   9.463 -0.6919  0.4909 -0.7122
  503MOL0     C67776   7.324   7.975   9.602 -0.4273  0.2001  0.0129
  503MOL0     C67777   7.412   8.035   9.691  0.1816 -0.3061  0.7681
  503MOL0     O67778   7.389   8.002   9.822  0.1639  1.0157 -0.1685
  503MOL0     C67779   7.414   8.095   9.927 -0.1140  0.2350 -0.1375
  503MOL0     C67780   7.363   8.057  10.076  0.1296 -0.8252  0.2027
  503MOL0     C67781   7.204   8.073  10.070  0.5381  0.4816  0.2762
  503MOL0     C67782   7.139   8.062  10.213  0.9387 -0.0185  0.1268
  503MOL0     C67783   7.018   8.145  10.253 -0.2438 -0.9217  0.3128
  503MOL0     C67784   7.000   8.132  10.405  0.4125 -0.3953 -0.3044
  503MOL0     C67785   6.890   8.222  10.460  0.2802  0.4565  0.0470
  503MOL0     C67786   6.864   8.206  10.608  0.2586  0.5141 -1.2766
  503MOL0     N67787   6.970   8.272  10.683  0.2443  0.1690  0.3109
  503MOL0     C67788   7.069   8.218  10.761  0.2000  0.4703 -0.9881
  503MOL0     C67789   7.130   8.329  10.805 -2.1637  0.4098 -0.4123
  503MOL0     C67790   7.270   8.339  10.876  1.5469 -0.5766  0.2035
  503MOL0     C67791   7.387   8.377  10.778  0.3607 -0.1113  0.1511
  503MOL0     C67792   7.425   8.243  10.704 -0.1516 -1.4798  0.2162
  503MOL0     C67793   7.555   8.257  10.628 -0.5469 -0.1206  0.4674
  503MOL0     O67794   7.521   8.332  10.508  0.7568  0.6695 -0.0562
  503MOL0     C67795   7.618   8.337  10.418 -0.3423  0.0165  0.3411
  503MOL0     C67796   7.751   8.331  10.452 -0.0308 -0.6959 -0.3316
  503MOL0     C67797   7.852   8.307  10.358 -0.2365  0.6221 -0.7115
  503MOL0     C67798   7.995   8.337  10.408  0.1663  0.8336 -0.4034
  503MOL0     C67799   7.819   8.283  10.220 -1.1523  0.4885 -0.5755
  503MOL0     C67800   7.931   8.230  10.131  1.2479 -0.0754  0.6278
  503MOL0     O67801   7.884   8.215   9.999 -0.9133  0.9686  0.4436
  503MOL0     C67802   7.956   8.151   9.913 -0.3406  0.4018  0.0990
  503MOL0     C67803   8.076   8.203   9.854  0.2761  0.3963 -0.0769
  503MOL0     C67804   8.144   8.142   9.741 -0.7961 -0.6568 -1.0652
  503MOL0     C67805   8.099   8.016   9.698 -0.1462 -0.4530 -0.4851
  503MOL0     O67806   8.158   7.960   9.594 -0.0789 -0.2016 -0.0286
  503MOL0     C67807   8.187   7.820   9.613 -1.0158  0.1658 -0.3198
  503MOL0     C67808   8.329   7.795   9.559  0.7765  0.2992 -0.4130
  503MOL0     C67809   8.352   7.875   9.421 -0.1347 -0.3705  0.0447
  503MOL0     C67810   8.479   7.841   9.356  0.2879  0.0981  0.2718
  503MOL0     C67811   8.497   7.915   9.231  0.9167  0.4801  0.5146
  503MOL0     C67812   8.443   7.851   9.105 -0.6620  0.7542 -0.2807
  503MOL0     C67813   8.513   7.721   9.051 -0.1610  0.1754 -0.1413
  503MOL0     C67814   8.484   7.707   8.898  0.7789  0.4890 -1.6520
  503MOL0    Cl67815   8.327   7.634   8.868 -0.1348  0.1482 -0.0515
  503MOL0     C67816   7.978   7.969   9.754 -0.0703  0.0261  0.0268
  503MOL0     C67817   7.912   8.030   9.853 -0.0184 -0.2644  0.2639
  503MOL0     O67818   8.039   8.191  10.176 -0.1244 -0.3838 -0.3082
  503MOL0     C67819   7.681   8.306  10.181 -0.7737 -0.3066 -0.2187
  503MOL0     C67820   7.584   8.331  10.282 -1.0911  0.9960 -0.2090
  503MOL0     N67821   7.078   8.445  10.766 -0.9992 -0.5055  0.0804
  503MOL0     N67822   6.983   8.405  10.687  0.2289 -0.3854 -0.6774
  503MOL0     C67823   7.516   8.120   9.642  0.4788 -0.2143  0.6150
  503MOL0     C67824   7.536   8.139   9.507  0.4774  0.6477  0.0816
  503MOL0     C67825   7.542   7.956   9.082  0.2372 -1.3277  0.6388
  503MOL0     C67826   7.465   8.042   8.995  0.7282  0.7450 -0.6094
  503MOL0     C67827   7.476   8.034   8.855  0.0640 -0.1078  0.0725
  503MOL0     C67828   7.562   7.935   8.796  0.7020 -0.0363  0.3498
  503MOL0     O67829   7.567   7.918   8.662  0.1067  0.5297  0.0212
  503MOL0     C67830   7.452   7.846   8.602  0.3243 -0.6364  0.3535
  503MOL0     C67831   7.448   7.701   8.642  0.1261  0.4408 -0.5522
  503MOL0     C67832   7.585   7.628   8.619  0.4051  0.6131  0.4341
  503MOL0     C67833   7.600   7.503   8.708  0.6781 -0.7108 -0.2134
  503MOL0     C67834   7.486   7.417   8.692  0.0144  0.6567 -0.5786
  503MOL0     C67835   7.376   7.366   8.667  0.1685 -0.1928  0.9394
  503MOL0     C67836   7.636   7.862   8.879  0.1172 -0.3491 -0.2540
  503MOL0     C67837   7.627   7.862   9.018 -0.1439 -0.2318  0.0489
  503MOL0     H67838   7.266   7.964   9.386 -0.6569 -0.9933 -0.1883
  503MOL0     H67839   7.239   7.917   9.633  0.0940 -0.1075  0.8936
  503MOL0     H67840   7.522   8.106   9.940 -0.2460  1.1481  0.2655
  503MOL0     H67841   7.371   8.190   9.895 -3.9082 -0.6298  1.7539
  503MOL0     H67842   7.387   7.956  10.110 -3.0698 -1.5654  0.6477
  503MOL0     H67843   7.412   8.125  10.145  1.9187 -1.0394 -0.8011
  503MOL0     H67844   7.185   8.175  10.035  1.1902  0.6668  0.4459
  503MOL0     H67845   7.165   7.996  10.003 -2.9781 -0.4068  3.0708
  503MOL0     H67846   7.111   7.960  10.241 -1.4346 -0.0705 -2.0349
  503MOL0     H67847   7.217   8.095  10.283  1.5350 -0.2379 -0.4224
  503MOL0     H67848   7.032   8.251  10.230  0.1707 -0.4413  2.5611
  503MOL0     H67849   6.937   8.108  10.189  0.2814 -2.3647  0.4625
  503MOL0     H67850   6.972   8.030  10.434 -0.0651  0.5404  2.8857
  503MOL0     H67851   7.097   8.148  10.452 -0.5314 -2.3217  2.5606
  503MOL0     H67852   6.920   8.326  10.448  0.1057  0.7592  1.8702
  503MOL0     H67853   6.799   8.207  10.401  1.3666  0.6968 -1.7502
  503MOL0     H67854   6.847   8.104  10.644 -2.3162  1.1693 -0.3767
  503MOL0     H67855   6.778   8.264  10.642 -0.5243 -0.4846 -1.4934
  503MOL0     H67856   7.105   8.117  10.777 -3.0671 -0.7813 -0.6295
  503MOL0     H67857   7.261   8.421  10.948  0.6724  1.8767 -2.5114
  503MOL0     H67858   7.292   8.242  10.922 -1.1947 -1.8942 -1.0840
  503MOL0     H67859   7.464   8.401  10.852 -0.9016  0.7171  1.2452
  503MOL0     H67860   7.364   8.457  10.708 -1.0324 -0.3010  0.3755
  503MOL0     H67861   7.353   8.226  10.624  0.4855  1.3820 -1.0870
  503MOL0     H67862   7.434   8.169  10.784  0.4328  0.9504  2.5690
  503MOL0     H67863   7.597   8.161  10.597 -0.0205  0.5262 -0.9541
  503MOL0     H67864   7.629   8.318  10.680 -0.1808  0.7477 -1.0178
  503MOL0     H67865   7.781   8.352  10.554  0.4583 -0.3550 -0.5429
  503MOL0     H67866   8.054   8.402  10.343 -0.6617 -0.1152 -2.1535
  503MOL0     H67867   7.996   8.392  10.503 -1.1195  2.7574 -1.4196
  503MOL0     H67868   8.046   8.242  10.426 -1.0282  0.1862 -0.3469
  503MOL0     H67869   8.118   8.298   9.884 -2.2492  1.8684 -0.9133
  503MOL0     H67870   8.236   8.188   9.709 -1.6548  3.7290  1.8665
  503MOL0     H67871   8.187   7.791   9.718 -1.6660  2.5077  0.3831
  503MOL0     H67872   8.119   7.753   9.559  1.2300 -2.2770 -0.3245
  503MOL0     H67873   8.400   7.839   9.630  2.5202  1.0750 -2.5096
  503MOL0     H67874   8.356   7.690   9.545  0.4033 -0.1268  1.7114
  503MOL0     H67875   8.356   7.983   9.439  2.0519 -0.5180  0.7886
  503MOL0     H67876   8.263   7.862   9.358  0.4912  2.0528 -1.4903
  503MOL0     H67877   8.561   7.864   9.424  0.4820  2.3788 -0.6489
  503MOL0     H67878   8.474   7.732   9.345 -1.9108  0.1289  0.5182
  503MOL0     H67879   8.606   7.920   9.231  0.9800 -0.7071  0.0407
  503MOL0     H67880   8.447   8.012   9.245 -1.0979 -0.5586  0.9125
  503MOL0     H67881   8.336   7.830   9.118 -1.2607  2.4688 -2.0363
  503MOL0     H67882   8.439   7.916   9.018 -1.9549 -1.9486 -2.3925
  503MOL0     H67883   8.498   7.630   9.110  0.0394 -1.6094 -2.7017
  503MOL0     H67884   8.620   7.736   9.067 -0.5567  1.1806  2.0396
  503MOL0     H67885   8.554   7.642   8.845 -1.6857 -0.8014 -3.5641
  503MOL0     H67886   8.487   7.807   8.855  1.8487  1.0813 -0.2738
  503MOL0     H67887   7.933   7.874   9.727 -0.2460  0.6686 -2.0970
  503MOL0     H67888   7.818   7.995   9.894  0.0435  0.3681  0.9794
  503MOL0     H67889   7.647   8.293  10.079  1.1142  2.6760 -1.3740
  503MOL0     H67890   7.480   8.349  10.257 -1.5622  2.1516  2.2589
  503MOL0     H67891   7.573   8.171   9.719  1.3900  1.1240 -0.8919
  503MOL0     H67892   7.620   8.199   9.475 -1.3015  1.7192 -3.0662
  503MOL0     H67893   7.394   8.104   9.048  0.0964 -1.9130  1.9114
  503MOL0     H67894   7.428   8.107   8.791 -0.1368  0.1314  0.4901
  503MOL0     H67895   7.370   7.912   8.635  1.1588  0.2826  0.6301
  503MOL0     H67896   7.456   7.858   8.494  0.8523  2.6139  0.6317
  503MOL0     H67897   7.372   7.635   8.599  0.8904  0.5148 -2.0800
  503MOL0     H67898   7.426   7.703   8.749  1.2541 -0.2810 -0.2866
  503MOL0     H67899   7.674   7.690   8.636  1.4883 -1.2049  1.7065
  503MOL0     H67900   7.589   7.596   8.514  2.0338 -1.1879  0.9863
  503MOL0     H67901   7.618   7.534   8.811  0.6590  1.7942 -0.9126
  503MOL0     H67902   7.693   7.453   8.682  0.0578 -1.1808 -1.6977
  503MOL0     H67903   7.273   7.340   8.659  0.0350  0.4260  0.5259
  503MOL0     H67904   7.707   7.785   8.848  0.8470 -0.9817  2.6385
  503MOL0     H67905   7.684   7.785   9.069 -0.4749 -1.2003 -0.9907
  504MOL0     O67906   4.202   8.039   0.099 -0.0748 -0.0914  0.3606
  504MOL0     C67907   4.282   8.078   0.187  0.3235  0.1522 -0.4492
  504MOL0     O67908   4.312   8.010   0.297 -0.8729  0.3315 -0.1158
  504MOL0     C67909   4.290   7.883   0.318 -0.0801 -0.3226 -0.7757
  504MOL0     C67910   4.386   7.779   0.291  0.3704 -0.5189  0.4202
  504MOL0     C67911   4.365   7.646   0.332 -0.1155 -0.6821  0.3417
  504MOL0     C67912   4.252   7.615   0.390 -0.2007  0.0381  0.3045
  504MOL0     O67913   4.242   7.477   0.408  0.0224 -0.1988  0.1869
  504MOL0     C67914   4.186   7.446   0.532 -1.0709 -0.3643 -0.7176
  504MOL0     C67915   4.179   7.295   0.548 -0.1034 -0.2497 -0.1423
  504MOL0     C67916   4.317   7.237   0.519  0.5179 -0.4896 -0.1647
  504MOL0     C67917   4.431   7.292   0.599 -0.8645  0.1471 -0.4894
  504MOL0     C67918   4.442   7.255   0.747  0.6339 -0.1942 -0.4086
  504MOL0     C67919   4.431   7.102   0.782 -0.0565  0.0357 -0.1233
  504MOL0     C67920   4.462   7.086   0.932  0.6107 -0.5053  0.0247
  504MOL0     C67921   4.362   7.154   1.036  0.2128 -0.3590 -0.1095
  504MOL0     N67922   4.252   7.057   1.050 -0.0213  0.4960  0.1116
  504MOL0     C67923   4.261   6.944   1.131  0.0823  0.0621 -0.2907
  504MOL0     C67924   4.140   6.878   1.098 -1.2233 -0.1308  0.1019
  504MOL0     C67925   4.098   6.751   1.158  0.1862 -0.2605  0.4018
  504MOL0     C67926   4.096   6.769   1.312  0.1818 -0.4776  0.6166
  504MOL0     C67927   4.103   6.634   1.384 -0.0021 -0.1820 -0.2717
  504MOL0     C67928   4.002   6.526   1.347  0.1991  0.6025  0.2954
  504MOL0     O67929   4.019   6.408   1.428 -0.7267 -0.5275 -0.1545
  504MOL0     C67930   3.991   6.282   1.374  0.0348  0.9140 -0.7119
  504MOL0     C67931   4.019   6.172   1.463 -0.1024 -0.0347  0.3575
  504MOL0     C67932   3.994   6.043   1.425  0.1085 -0.0408  0.4969
  504MOL0     C67933   4.051   5.940   1.516 -0.4592 -0.4889 -0.2168
  504MOL0     C67934   3.906   6.019   1.314  0.0770 -1.1409 -0.5289
  504MOL0     C67935   3.890   5.883   1.271  0.4141  0.4044  0.1127
  504MOL0     O67936   3.765   5.856   1.218  0.1701  0.0565  0.2817
  504MOL0     C67937   3.740   5.727   1.184  0.8877  0.7413  0.4210
  504MOL0     C67938   3.670   5.701   1.067  0.4031 -0.2565  0.9751
  504MOL0     C67939   3.656   5.574   1.019  0.1534 -0.4033 -0.0624
  504MOL0     C67940   3.698   5.466   1.105 -0.2275 -0.6928 -0.3562
  504MOL0     O67941   3.699   5.343   1.047  0.0930 -0.2616  0.3783
  504MOL0     C67942   3.799   5.241   1.083  0.3219 -0.3905  0.0545
  504MOL0     C67943   3.816   5.156   0.960 -0.2865 -1.0622 -0.2508
  504MOL0     C67944   3.920   5.052   0.981 -0.4742  0.2882  0.1549
  504MOL0     C67945   3.919   4.955   0.868  0.9821 -0.2867 -0.1061
  504MOL0     C67946   4.044   4.907   0.799 -0.4006 -0.0867 -0.0582
  504MOL0     C67947   4.137   4.827   0.891  1.1663  0.0130  0.2422
  504MOL0     C67948   4.282   4.827   0.853 -0.3097  0.1778  0.1314
  504MOL0     C67949   4.381   4.791   0.971 -0.2179  0.4876  0.8285
  504MOL0    Cl67950   4.537   4.716   0.915 -0.0070  0.0340 -0.3136
  504MOL0     C67951   3.741   5.484   1.239 -0.3682 -0.4522 -0.3636
  504MOL0     C67952   3.777   5.619   1.271  0.4594  0.2647 -0.9512
  504MOL0     O67953   3.993   5.817   1.257  0.1423 -0.1561 -0.3259
  504MOL0     C67954   3.886   6.130   1.227  0.7810  0.7881 -0.2756
  504MOL0     C67955   3.918   6.263   1.254  0.4027  0.2282 -0.8778
  504MOL0     N67956   4.063   6.950   1.004 -0.2302 -0.4868  0.5323
  504MOL0     N67957   4.136   7.045   0.967 -0.2672  0.5155 -0.2607
  504MOL0     C67958   4.150   7.706   0.423  0.2691  0.4567 -0.6253
  504MOL0     C67959   4.187   7.842   0.396 -0.2326 -0.2623 -0.8102
  504MOL0     C67960   4.332   8.216   0.183  0.1721 -0.1750 -0.2554
  504MOL0     C67961   4.297   8.317   0.091  0.2627 -0.8915  0.3631
  504MOL0     C67962   4.339   8.451   0.101 -0.1145 -0.2226 -0.1859
  504MOL0     C67963   4.403   8.481   0.223 -1.0978 -0.6400  0.5156
  504MOL0     O67964   4.450   8.606   0.254  0.3903  0.5935 -0.7045
  504MOL0     C67965   4.494   8.689   0.153  0.4151 -0.1797  0.3681
  504MOL0     C67966   4.592   8.788   0.218  0.6341  0.2580  0.4149
  504MOL0     C67967   4.662   8.892   0.120 -0.6083 -0.6455  1.0592
  504MOL0     C67968   4.719   8.837  -0.013  0.4198  0.2559  0.5765
  504MOL0     C67969   4.787   8.711  -0.013 -1.0961 -0.2100 -0.2710
  504MOL0     C67970   4.838   8.601  -0.002  0.2971 -0.5840  0.0914
  504MOL0     C67971   4.447   8.389   0.317  0.9680  0.0353  0.5017
  504MOL0     C67972   4.402   8.256   0.301  1.0241  0.7810  0.7049
  504MOL0     H67973   4.454   7.791   0.206 -0.3900 -2.1242 -0.4627
  504MOL0     H67974   4.428   7.566   0.295  0.6420  1.1513 -2.6790
  504MOL0     H67975   4.235   7.486   0.622 -2.5899 -0.8622  0.3759
  504MOL0     H67976   4.080   7.466   0.551 -0.9313 -0.4651  0.2002
  504MOL0     H67977   4.135   7.268   0.644 -2.8106  0.8826 -0.9604
  504MOL0     H67978   4.108   7.258   0.473 -0.6782  1.6489 -0.5780
  504MOL0     H67979   4.308   7.129   0.527  0.5445 -0.4974 -0.2469
  504MOL0     H67980   4.350   7.251   0.415  0.8289 -0.4143 -0.0584
  504MOL0     H67981   4.519   7.252   0.547 -0.1335 -0.8378  1.4176
  504MOL0     H67982   4.439   7.401   0.596  2.4394  0.0893  1.3082
  504MOL0     H67983   4.534   7.302   0.784  0.3495 -2.0029  3.0146
  504MOL0     H67984   4.370   7.320   0.796 -1.5701 -1.7532 -1.4123
  504MOL0     H67985   4.326   7.073   0.773 -1.4661  3.5063  2.5256
  504MOL0     H67986   4.487   7.033   0.718 -2.8362 -2.2730 -0.2852
  504MOL0     H67987   4.465   6.980   0.958  1.6675  0.1464  2.9761
  504MOL0     H67988   4.559   7.136   0.943  0.5277  0.0444 -1.5763
  504MOL0     H67989   4.331   7.253   1.002 -1.2053  0.1103  2.3519
  504MOL0     H67990   4.404   7.180   1.133  0.7481  0.1811 -0.4771
  504MOL0     H67991   4.334   6.921   1.209  1.1308  1.8417 -0.6785
  504MOL0     H67992   3.997   6.724   1.124 -0.8909 -0.3222  3.4094
  504MOL0     H67993   4.166   6.666   1.146  0.3181 -0.6320  3.1379
  504MOL0     H67994   4.003   6.819   1.343 -0.5014 -0.9557 -0.5805
  504MOL0     H67995   4.184   6.826   1.341 -0.1148  0.3106 -0.0033
  504MOL0     H67996   4.092   6.654   1.491  1.7382 -0.7571  0.0465
  504MOL0     H67997   4.205   6.596   1.376  1.2185  3.0349 -1.6977
  504MOL0     H67998   4.017   6.503   1.241 -3.9166  0.6318 -0.4713
  504MOL0     H67999   3.897   6.554   1.355  0.3416  1.2655 -0.0750
  504MOL0     H68000   4.068   6.182   1.560  3.4534 -3.4529 -0.7859
  504MOL0     H68001   3.990   5.849   1.508  1.8038 -2.0784 -0.1442
  504MOL0     H68002   4.147   5.907   1.475 -0.4994 -4.2555  2.2077
  504MOL0     H68003   4.066   5.981   1.616  0.8296 -0.0610 -0.5721
  504MOL0     H68004   3.633   5.790   1.017 -1.7985 -0.8388  1.4266
  504MOL0     H68005   3.605   5.544   0.928  0.4301  4.4328 -2.1493
  504MOL0     H68006   3.897   5.283   1.104 -1.0121  3.4244 -0.6573
  504MOL0     H68007   3.764   5.190   1.173 -0.0410 -1.1414 -0.4891
  504MOL0     H68008   3.721   5.103   0.943 -0.0994 -0.5897 -3.2607
  504MOL0     H68009   3.843   5.211   0.870  1.4950  1.1067  1.4798
  504MOL0     H68010   3.895   4.996   1.072 -1.7140 -1.3998 -1.1501
  504MOL0     H68011   4.017   5.101   0.990 -0.2660  0.1654 -1.2004
  504MOL0     H68012   3.856   4.869   0.893  3.3527 -2.7237 -1.8964
  504MOL0     H68013   3.848   4.998   0.796 -1.8612  0.7540  3.0363
  504MOL0     H68014   4.101   4.983   0.744  2.6306 -1.6185  0.7657
  504MOL0     H68015   4.024   4.841   0.714 -1.5620  1.6860 -1.2394
  504MOL0     H68016   4.133   4.871   0.991 -0.4980  2.1302 -0.6695
  504MOL0     H68017   4.093   4.726   0.892  1.2456 -0.0288  1.6417
  504MOL0     H68018   4.315   4.924   0.814 -0.5207 -0.4311 -1.6738
  504MOL0     H68019   4.297   4.752   0.775 -0.8483 -0.6780  0.8357
  504MOL0     H68020   4.333   4.725   1.043 -2.1618 -0.6407 -1.3573
  504MOL0     H68021   4.405   4.888   1.015 -0.3357  0.2693  1.3800
  504MOL0     H68022   3.764   5.404   1.308  0.4264 -0.0857 -0.1971
  504MOL0     H68023   3.817   5.655   1.366  0.1275  1.7324 -1.3431
  504MOL0     H68024   3.826   6.125   1.137  2.5336 -0.8762 -1.3998
  504MOL0     H68025   3.870   6.341   1.197  3.2585  1.4478 -1.7891
  504MOL0     H68026   4.058   7.676   0.473  1.7314 -1.3168  1.1549
  504MOL0     H68027   4.112   7.911   0.435  0.7765  0.0501  0.6295
  504MOL0     H68028   4.241   8.289   0.002  3.6864 -1.8413 -1.6553
  504MOL0     H68029   4.334   8.522   0.019 -0.2532  1.3773  1.1420
  504MOL0     H68030   4.531   8.639   0.063  1.5447  2.6251 -0.8277
  504MOL0     H68031   4.411   8.751   0.118  0.3510 -0.2209  0.4486
  504MOL0     H68032   4.666   8.732   0.275  1.3864  0.1506 -0.6419
  504MOL0     H68033   4.527   8.845   0.285 -0.3507 -0.7009  0.3274
  504MOL0     H68034   4.748   8.935   0.172 -1.1185 -2.3776  3.4942
  504MOL0     H68035   4.589   8.969   0.090 -0.5128 -0.7741  0.4906
  504MOL0     H68036   4.795   8.904  -0.054 -1.6593  0.9181 -2.5548
  504MOL0     H68037   4.640   8.827  -0.089  2.2534  1.6329 -1.6759
  504MOL0     H68038   4.882   8.504   0.013  1.1904  0.0335  1.9210
  504MOL0     H68039   4.479   8.419   0.416 -0.6372 -4.3672  2.6131
  504MOL0     H68040   4.410   8.188   0.385  0.8345  1.9479  1.7021
  505MOL0     O68041   7.878   7.423   3.107  0.4121 -0.7154  1.0424
  505MOL0     C68042   7.770   7.487   3.102 -0.6156 -0.0711 -0.3828
  505MOL0     O68043   7.765   7.617   3.067  0.4376 -0.3686 -0.1899
  505MOL0     C68044   7.852   7.660   2.967  0.2741 -1.1843 -0.5460
  505MOL0     C68045   7.896   7.592   2.853  0.4836 -0.5893  0.7593
  505MOL0     C68046   7.982   7.635   2.749  0.1004  0.1124 -0.9211
  505MOL0     C68047   8.019   7.779   2.757  0.3843 -0.4475  0.4422
  505MOL0     O68048   8.099   7.839   2.666 -0.9359  0.7743 -0.3391
  505MOL0     C68049   8.206   7.756   2.609  0.5567 -0.4101 -0.7694
  505MOL0     C68050   8.336   7.812   2.668 -0.1125  0.4557  0.7149
  505MOL0     C68051   8.355   7.963   2.634 -0.4120 -0.7818 -0.8034
  505MOL0     C68052   8.505   7.992   2.600 -0.1786  0.0587 -0.2207
  505MOL0     C68053   8.568   8.132   2.588 -0.1408  0.3779  0.0871
  505MOL0     C68054   8.549   8.214   2.714  0.2452 -0.9460 -0.3709
  505MOL0     C68055   8.671   8.274   2.782 -0.9990 -0.5304 -0.2750
  505MOL0     C68056   8.775   8.179   2.853  0.1226 -0.1272  0.1477
  505MOL0     N68057   8.720   8.093   2.956 -0.5698  0.3735  0.0106
  505MOL0     C68058   8.726   8.112   3.093 -0.4165 -0.2410  0.0764
  505MOL0     C68059   8.674   8.002   3.140  0.2985 -0.6128 -0.1313
  505MOL0     C68060   8.662   7.975   3.282  0.9097 -0.1371 -0.1765
  505MOL0     C68061   8.790   7.967   3.359 -0.4390  0.0242  0.1576
  505MOL0     C68062   8.898   7.864   3.307 -0.0663 -0.1032  0.4018
  505MOL0     C68063   8.844   7.722   3.300  0.3518 -0.0825  0.4591
  505MOL0     O68064   8.820   7.669   3.436  0.1237 -0.0209 -0.1480
  505MOL0     C68065   8.766   7.547   3.475  0.9724  0.5275 -0.7361
  505MOL0     C68066   8.722   7.457   3.377  0.4544 -0.4912 -0.6772
  505MOL0     C68067   8.638   7.347   3.419 -0.9954 -0.4570  0.2084
  505MOL0     C68068   8.577   7.269   3.301 -0.7472  0.1535  0.6468
  505MOL0     C68069   8.619   7.315   3.554  0.3564  0.5671  0.4202
  505MOL0     C68070   8.536   7.198   3.602 -0.2251  0.0273 -0.2563
  505MOL0     O68071   8.522   7.175   3.737 -0.2463  0.0703  0.5091
  505MOL0     C68072   8.436   7.066   3.762 -1.1573 -0.3071 -0.1941
  505MOL0     C68073   8.296   7.082   3.750  0.1391  0.3737  0.7476
  505MOL0     C68074   8.199   6.982   3.779 -0.6405 -0.0249 -0.1762
  505MOL0     C68075   8.251   6.861   3.806  0.0126  0.1893  0.1378
  505MOL0     O68076   8.173   6.747   3.808  0.1057 -0.7382  0.0885
  505MOL0     C68077   8.031   6.742   3.839 -1.1141  0.5392 -0.1275
  505MOL0     C68078   7.991   6.614   3.897  0.5146  0.5156  0.7966
  505MOL0     C68079   8.001   6.498   3.794 -0.2699  0.0366 -0.6777
  505MOL0     C68080   7.887   6.494   3.693  0.0229 -0.4310 -0.5990
  505MOL0     C68081   7.886   6.364   3.615 -0.5893 -0.1750 -0.2734
  505MOL0     C68082   7.756   6.342   3.528 -0.3557  0.0689  0.0456
  505MOL0     C68083   7.724   6.464   3.443 -0.2570  0.6279 -0.5111
  505MOL0     C68084   7.828   6.480   3.332 -0.7477  0.0814  0.7827
  505MOL0    Cl68085   7.778   6.575   3.203  0.2265 -0.0654  0.3815
  505MOL0     C68086   8.388   6.841   3.822 -0.1061  0.2638  0.5706
  505MOL0     C68087   8.485   6.940   3.798  0.1436  0.4711 -0.5098
  505MOL0     O68088   8.475   7.131   3.522  0.7944 -0.1581  0.5474
  505MOL0     C68089   8.677   7.401   3.650 -1.3533 -0.8487 -0.2964
  505MOL0     C68090   8.736   7.517   3.609  0.0283 -0.0250 -1.0280
  505MOL0     N68091   8.649   7.915   3.039  0.7997  0.3880  0.1814
  505MOL0     N68092   8.677   7.973   2.927 -0.2928 -0.0838  0.1833
  505MOL0     C68093   7.974   7.852   2.870 -0.0969 -0.4789 -0.8889
  505MOL0     C68094   7.898   7.793   2.978  0.6209 -0.2061 -0.2206
  505MOL0     C68095   7.654   7.419   3.153 -0.8410  0.0045 -0.6887
  505MOL0     C68096   7.663   7.303   3.227 -0.0050  0.2623  0.5062
  505MOL0     C68097   7.552   7.239   3.284  1.0004  0.1979  0.4024
  505MOL0     C68098   7.415   7.275   3.262  1.1451 -0.0584  0.1963
  505MOL0     O68099   7.318   7.194   3.326  1.0924 -0.1161  0.2853
  505MOL0     C68100   7.293   7.244   3.456  0.7793  0.0356  0.2440
  505MOL0     C68101   7.146   7.217   3.497  0.2281 -1.5403  0.3150
  505MOL0     C68102   7.101   7.076   3.523  0.2871  0.6903  0.7858
  505MOL0     C68103   7.130   7.026   3.658  0.0666 -0.2345  0.0223
  505MOL0     C68104   7.024   7.056   3.755 -0.2776 -0.2350  0.3502
  505MOL0     C68105   6.931   7.086   3.828  0.3862  0.6559  0.8073
  505MOL0     C68106   7.400   7.396   3.189  0.5400 -0.2148 -0.3604
  505MOL0     C68107   7.523   7.468   3.137 -0.2704  0.4621 -0.1610
  505MOL0     H68108   7.872   7.487   2.842 -2.2876  0.2112 -3.4096
  505MOL0     H68109   8.003   7.561   2.672  4.3786 -0.5309  0.5644
  505MOL0     H68110   8.214   7.651   2.636 -0.5267 -0.1952  0.5091
  505MOL0     H68111   8.203   7.757   2.500 -2.0412 -2.1255 -0.7977
  505MOL0     H68112   8.341   7.793   2.776 -1.9727  1.9688  1.1157
  505MOL0     H68113   8.417   7.759   2.617  0.4951  3.4276 -1.7363
  505MOL0     H68114   8.288   7.988   2.551  1.2455 -0.6571 -2.1472
  505MOL0     H68115   8.334   8.026   2.722  2.4899 -2.0068  0.9242
  505MOL0     H68116   8.559   7.928   2.671 -2.8833 -1.5350  0.5187
  505MOL0     H68117   8.526   7.964   2.496 -1.3923 -1.3233 -0.1247
  505MOL0     H68118   8.674   8.131   2.562 -0.3123 -1.7021 -0.7501
  505MOL0     H68119   8.522   8.184   2.504  0.8771  0.4110 -0.4574
  505MOL0     H68120   8.487   8.301   2.690 -3.2697 -1.4129  5.3264
  505MOL0     H68121   8.488   8.165   2.790  1.4397  0.2948  1.4909
  505MOL0     H68122   8.725   8.326   2.702  0.5191  0.0314  1.0508
  505MOL0     H68123   8.634   8.348   2.854 -2.1320  1.1081 -2.4278
  505MOL0     H68124   8.845   8.252   2.894  0.8060  1.5588 -3.6176
  505MOL0     H68125   8.829   8.119   2.779  0.5540 -0.6018  0.8376
  505MOL0     H68126   8.765   8.188   3.160 -0.5860 -0.7399  0.7505
  505MOL0     H68127   8.615   8.065   3.323  2.0894  1.3053 -1.7855
  505MOL0     H68128   8.589   7.895   3.293 -0.9307  0.9348 -3.2607
  505MOL0     H68129   8.772   7.947   3.465  3.1798  0.0704  0.9100
  505MOL0     H68130   8.830   8.068   3.370 -0.4015 -0.1683  2.1440
  505MOL0     H68131   8.985   7.863   3.374 -1.3732  1.1814  2.2354
  505MOL0     H68132   8.937   7.900   3.212  0.9877 -0.1070  0.8218
  505MOL0     H68133   8.930   7.667   3.260 -0.6548  0.3289 -2.4587
  505MOL0     H68134   8.756   7.713   3.236  0.4780 -0.6154  0.3515
  505MOL0     H68135   8.743   7.471   3.272  0.6056 -3.5297 -1.1416
  505MOL0     H68136   8.468   7.266   3.313 -0.9176  0.0729 -0.8424
  505MOL0     H68137   8.611   7.313   3.208 -0.7482 -1.0074  0.0793
  505MOL0     H68138   8.599   7.162   3.313  0.7620  0.5778  2.0611
  505MOL0     H68139   8.247   7.173   3.716  2.4059  2.7896  3.4711
  505MOL0     H68140   8.095   6.991   3.751 -1.4073  0.8318  2.6428
  505MOL0     H68141   8.003   6.823   3.908  1.8770 -1.2981  3.6150
  505MOL0     H68142   7.969   6.757   3.749  0.5536 -0.3616 -1.4725
  505MOL0     H68143   8.033   6.596   3.996 -1.3948 -0.1498  1.5316
  505MOL0     H68144   7.883   6.615   3.914  0.4304 -1.2210  0.5913
  505MOL0     H68145   8.003   6.399   3.841 -0.6644  0.4108  0.1490
  505MOL0     H68146   8.091   6.522   3.736 -1.7233  0.2017 -2.9895
  505MOL0     H68147   7.790   6.494   3.743  2.7043 -0.5215  5.4565
  505MOL0     H68148   7.903   6.582   3.630 -2.1620 -0.4496 -1.2390
  505MOL0     H68149   7.889   6.279   3.684  0.5918  0.8640  0.9915
  505MOL0     H68150   7.973   6.371   3.549 -1.0343 -0.1817 -0.8785
  505MOL0     H68151   7.758   6.251   3.467 -0.4312  0.7563 -1.0018
  505MOL0     H68152   7.673   6.332   3.599 -0.3260  0.5820  0.1550
  505MOL0     H68153   7.711   6.559   3.496 -3.5301  0.2016 -0.3180
  505MOL0     H68154   7.627   6.445   3.396 -0.3089 -0.0057 -0.1702
  505MOL0     H68155   7.869   6.383   3.302  1.3397  1.5732 -1.6439
  505MOL0     H68156   7.919   6.522   3.376  1.8754 -4.5515  0.3448
  505MOL0     H68157   8.413   6.737   3.842 -1.7965 -0.2417  0.1542
  505MOL0     H68158   8.592   6.924   3.807  0.1951  0.4016 -1.2091
  505MOL0     H68159   8.670   7.395   3.758  1.9349  1.0301  0.1766
  505MOL0     H68160   8.763   7.594   3.681 -0.2289 -0.4850 -0.4304
  505MOL0     H68161   7.992   7.958   2.886 -4.0715  0.2375  0.0355
  505MOL0     H68162   7.869   7.852   3.064  0.6053 -0.0557 -0.3286
  505MOL0     H68163   7.763   7.262   3.242  1.0116  1.0689 -3.0471
  505MOL0     H68164   7.579   7.145   3.331  1.0926 -0.0559 -0.1398
  505MOL0     H68165   7.371   7.211   3.526  2.3458  2.4153 -0.2735
  505MOL0     H68166   7.300   7.353   3.458  0.7025  0.1877 -3.0530
  505MOL0     H68167   7.100   7.262   3.408  1.6394  0.6040  0.5925
  505MOL0     H68168   7.129   7.271   3.590 -0.5420 -2.1201  0.5244
  505MOL0     H68169   7.143   7.012   3.444 -1.0627  1.8227 -0.9172
  505MOL0     H68170   6.993   7.078   3.504  0.5958 -0.8611 -1.5521
  505MOL0     H68171   7.233   7.053   3.682  0.4120  0.6761 -2.1938
  505MOL0     H68172   7.122   6.917   3.652 -1.8121 -0.2470  1.5277
  505MOL0     H68173   6.851   7.114   3.894 -1.0103  0.1782 -0.6135
  505MOL0     H68174   7.300   7.437   3.190 -0.0667 -1.6025  1.4148
  505MOL0     H68175   7.496   7.562   3.090 -0.4957  0.3029 -0.3492
  506MOL0     O68176  10.740   2.970   0.972  0.2289  0.2036 -0.0857
  506MOL0     C68177  10.822   3.063   0.983  0.5999 -0.2248 -1.1175
  506MOL0     O68178  10.851   3.160   0.895  0.0115 -0.1234 -0.1713
  506MOL0     C68179  10.753   3.191   0.811  0.0715  0.0116 -0.0640
  506MOL0     C68180  10.702   3.112   0.704  0.1741 -0.0223  0.2092
  506MOL0     C68181  10.613   3.167   0.606 -0.5267 -0.0194  0.0524
  506MOL0     C68182  10.583   3.311   0.610 -0.0568 -0.0060 -0.6989
  506MOL0     O68183  10.505   3.368   0.509 -0.0298 -0.2460  0.2084
  506MOL0     C68184  10.439   3.484   0.546  0.0269  0.2793  0.3698
  506MOL0     C68185  10.334   3.524   0.442  0.2515  0.9297  0.3489
  506MOL0     C68186  10.216   3.415   0.423 -0.0347 -0.8456  0.1337
  506MOL0     C68187  10.113   3.459   0.313 -0.8136  0.1290  0.1434
  506MOL0     C68188   9.993   3.373   0.295  0.5915 -0.0200  0.0875
  506MOL0     C68189  10.001   3.223   0.328 -1.0900  0.1976  0.0098
  506MOL0     C68190   9.889   3.135   0.273  0.0429 -0.5099  0.0476
  506MOL0     C68191   9.929   2.987   0.239 -0.5253 -0.4839 -0.3855
  506MOL0     N68192   9.945   2.907   0.354 -0.2954 -0.3101  0.7320
  506MOL0     C68193   9.998   2.776   0.353 -0.6311  0.1722  0.3616
  506MOL0     C68194  10.027   2.746   0.481  0.5148  0.3688 -0.2409
  506MOL0     C68195  10.119   2.621   0.525  0.8205  0.0507 -0.6064
  506MOL0     C68196  10.046   2.514   0.617 -0.2475  0.5736 -0.4697
  506MOL0     C68197   9.916   2.472   0.555 -0.1113 -0.1837 -0.3569
  506MOL0     C68198   9.823   2.416   0.664  0.2718 -0.3445 -0.0026
  506MOL0     O68199   9.808   2.268   0.672  0.1276  0.0525  0.4092
  506MOL0     C68200   9.913   2.193   0.728  0.6163 -0.2865  0.2786
  506MOL0     C68201   9.918   2.075   0.665  0.1974  0.5165  0.9945
  506MOL0     C68202  10.003   1.971   0.710  0.2933  0.0349 -0.1272
  506MOL0     C68203  10.008   1.851   0.620  0.1185  0.3126 -0.0816
  506MOL0     C68204  10.071   1.989   0.837  1.1971  0.1801 -0.1944
  506MOL0     C68205  10.168   1.896   0.906  0.1099  0.3001  0.5852
  506MOL0     O68206  10.209   1.922   1.035  0.3732 -0.5148 -0.6052
  506MOL0     C68207  10.294   1.821   1.083  0.7691 -0.9376 -0.1357
  506MOL0     C68208  10.241   1.722   1.170 -1.3003 -0.0875  0.0217
  506MOL0     C68209  10.336   1.625   1.228  0.1028 -0.7790 -0.2611
  506MOL0     C68210  10.479   1.631   1.209 -0.0142 -0.9331 -0.2762
  506MOL0     O68211  10.557   1.529   1.266  0.4239 -0.1885 -0.2717
  506MOL0     C68212  10.696   1.554   1.279  1.3745  0.4139  0.2850
  506MOL0     C68213  10.725   1.655   1.393 -0.6217 -0.1923  0.0742
  506MOL0     C68214  10.870   1.627   1.417  0.4855  0.1937 -0.0518
  506MOL0     C68215  10.883   1.513   1.513  1.0784  1.1689  0.1108
  506MOL0     C68216  11.028   1.494   1.554 -0.3927  0.5479 -0.6530
  506MOL0     C68217  11.048   1.419   1.690 -0.6756  0.5134  0.6970
  506MOL0     C68218  10.998   1.281   1.692  0.0149  0.5063  0.0638
  506MOL0     C68219  10.945   1.221   1.824 -0.0540 -0.8362  0.0795
  506MOL0    Cl68220  10.805   1.322   1.867  0.0607 -0.0336 -0.2108
  506MOL0     C68221  10.524   1.738   1.124 -0.1133  0.7740  0.5604
  506MOL0     C68222  10.433   1.827   1.071 -0.3996  0.3331 -0.0239
  506MOL0     O68223  10.208   1.806   0.831 -0.0851  0.2649  0.5957
  506MOL0     C68224  10.057   2.118   0.891 -0.3060  0.0839 -0.2786
  506MOL0     C68225   9.990   2.219   0.838  1.0293 -0.1754 -0.4265
  506MOL0     N68226   9.968   2.848   0.565 -0.9008  0.5856  0.1243
  506MOL0     N68227   9.926   2.939   0.483  0.2883 -0.7904 -0.4420
  506MOL0     C68228  10.646   3.394   0.718  0.3166  0.3643  0.0901
  506MOL0     C68229  10.717   3.324   0.817  0.1888 -0.3577 -0.5414
  506MOL0     C68230  10.891   3.078   1.122 -0.2542 -1.1530  0.5501
  506MOL0     C68231  10.838   3.038   1.246  0.2985 -0.4141  0.6115
  506MOL0     C68232  10.914   3.040   1.365 -0.2667  0.8220  0.5729
  506MOL0     C68233  11.038   3.095   1.375  0.0791  0.8469  0.2581
  506MOL0     O68234  11.108   3.095   1.489 -0.0466  0.0350 -0.3417
  506MOL0     C68235  11.176   3.221   1.523  0.5268 -0.3159 -0.9030
  506MOL0     C68236  11.110   3.289   1.644 -0.2886  0.4709 -0.2157
  506MOL0     C68237  11.155   3.431   1.650 -0.6618 -0.3252  0.0225
  506MOL0     C68238  11.099   3.494   1.774 -0.2673 -0.6436  0.1985
  506MOL0     C68239  11.130   3.639   1.766  0.0530 -0.4300  0.0511
  506MOL0     C68240  11.164   3.754   1.747  0.2634  0.1685  0.1682
  506MOL0     C68241  11.091   3.141   1.250 -0.5577 -0.5029  0.5553
  506MOL0     C68242  11.017   3.131   1.128 -0.4189  0.4287 -0.4493
  506MOL0     H68243  10.727   3.006   0.706  2.4625  0.4545  0.1870
  506MOL0     H68244  10.564   3.108   0.529 -2.4070  1.4421  0.0810
  506MOL0     H68245  10.388   3.449   0.636 -0.5884 -1.7251 -0.7078
  506MOL0     H68246  10.516   3.561   0.558 -0.0975  0.4825 -0.1047
  506MOL0     H68247  10.292   3.624   0.461 -2.7747  0.3139 -2.2682
  506MOL0     H68248  10.370   3.542   0.340 -0.3212  2.5081  0.3913
  506MOL0     H68249  10.259   3.319   0.392 -0.5439 -1.7352  2.0251
  506MOL0     H68250  10.168   3.407   0.521 -2.8599  0.1582 -1.0812
  506MOL0     H68251  10.079   3.555   0.353 -3.4119 -0.8581  0.5409
  506MOL0     H68252  10.174   3.463   0.222  0.9118 -2.1728  1.0824
  506MOL0     H68253   9.913   3.413   0.358  0.6326 -0.7357  0.6112
  506MOL0     H68254   9.972   3.389   0.189  2.8243  3.0040 -0.0394
  506MOL0     H68255  10.088   3.179   0.279  0.2763  1.9574  0.7699
  506MOL0     H68256  10.008   3.201   0.435  0.9882 -2.7932 -0.6196
  506MOL0     H68257   9.810   3.128   0.348 -0.3014 -1.1109 -0.3625
  506MOL0     H68258   9.846   3.179   0.182 -1.3229 -2.6279 -0.4015
  506MOL0     H68259  10.015   2.988   0.172 -0.0973 -0.4469  0.1558
  506MOL0     H68260   9.850   2.944   0.177  0.5124 -0.5197 -1.7118
  506MOL0     H68261  10.018   2.712   0.267  0.5451 -0.7577  1.2853
  506MOL0     H68262  10.158   2.569   0.437 -0.3755 -0.2619 -0.9674
  506MOL0     H68263  10.201   2.662   0.585  0.4741  1.9777 -1.3705
  506MOL0     H68264  10.035   2.561   0.716 -1.7072  0.1072 -0.3819
  506MOL0     H68265  10.106   2.423   0.624 -0.8354 -0.1954 -3.8345
  506MOL0     H68266   9.931   2.403   0.471 -4.8508  0.3856 -2.0108
  506MOL0     H68267   9.858   2.553   0.510  0.6731  1.0039  0.6873
  506MOL0     H68268   9.723   2.456   0.643  0.5778  1.3277  1.4358
  506MOL0     H68269   9.854   2.464   0.758 -0.5672  0.5129 -0.1476
  506MOL0     H68270   9.862   2.064   0.573 -0.7008  1.2693  1.4300
  506MOL0     H68271  10.109   1.837   0.580  0.3873  1.1544  0.2928
  506MOL0     H68272   9.989   1.767   0.688  1.3631  1.3376  1.6070
  506MOL0     H68273   9.929   1.840   0.545 -1.2266 -0.7164  1.4194
  506MOL0     H68274  10.135   1.713   1.190 -1.3035  0.5478  0.3044
  506MOL0     H68275  10.315   1.545   1.299  2.9594 -1.2802  0.1317
  506MOL0     H68276  10.752   1.462   1.302  1.9621  0.8479  0.6149
  506MOL0     H68277  10.741   1.586   1.184  0.7559  1.6371  0.4007
  506MOL0     H68278  10.717   1.756   1.354  0.6633  0.7856  2.1486
  506MOL0     H68279  10.673   1.639   1.488  0.8604  1.2785  1.1957
  506MOL0     H68280  10.907   1.710   1.478  0.3987  0.6311 -0.5877
  506MOL0     H68281  10.936   1.610   1.331 -0.3520  0.6376 -0.7944
  506MOL0     H68282  10.828   1.537   1.604  3.2862 -1.5451  2.3444
  506MOL0     H68283  10.845   1.416   1.480  2.5658  0.4818  0.3507
  506MOL0     H68284  11.076   1.592   1.560  0.6370  0.0429 -0.3982
  506MOL0     H68285  11.082   1.440   1.476  0.5283  0.7933 -0.2064
  506MOL0     H68286  11.153   1.423   1.721 -0.9660  0.2975  1.7824
  506MOL0     H68287  10.996   1.471   1.772 -2.7945  0.0619 -0.2913
  506MOL0     H68288  11.082   1.212   1.675 -0.7476 -0.8041  1.4283
  506MOL0     H68289  10.927   1.273   1.610 -1.4641  0.6198  1.3019
  506MOL0     H68290  11.013   1.226   1.909 -1.9204 -1.6586  1.6807
  506MOL0     H68291  10.914   1.117   1.814 -2.4981 -0.2583  1.0692
  506MOL0     H68292  10.622   1.755   1.081  0.3367  1.1033  1.6915
  506MOL0     H68293  10.490   1.899   1.012 -2.4224  1.1086 -1.1203
  506MOL0     H68294  10.108   2.141   0.984  0.8696  0.0481 -0.9019
  506MOL0     H68295   9.962   2.309   0.892 -0.8242  1.2400 -3.5135
  506MOL0     H68296  10.635   3.502   0.716 -0.5802  0.2810  0.2277
  506MOL0     H68297  10.770   3.366   0.903  1.0642 -2.3040 -0.0715
  506MOL0     H68298  10.750   2.975   1.239 -0.2171  0.4164 -4.4605
  506MOL0     H68299  10.873   2.995   1.454 -2.8982  5.5781  2.1278
  506MOL0     H68300  11.281   3.192   1.533  0.4785 -0.4533 -0.7863
  506MOL0     H68301  11.157   3.299   1.448 -0.4937 -0.5520 -0.9020
  506MOL0     H68302  11.130   3.233   1.736 -0.3115 -0.1222 -0.5666
  506MOL0     H68303  11.002   3.276   1.635 -0.3084 -2.6878  2.6488
  506MOL0     H68304  11.127   3.479   1.556  1.9846 -0.4234 -0.8880
  506MOL0     H68305  11.263   3.434   1.668 -0.4665 -2.3355 -0.5227
  506MOL0     H68306  11.153   3.452   1.859  0.7366 -2.3797 -1.2425
  506MOL0     H68307  10.992   3.478   1.793 -0.3753  0.1858  0.3229
  506MOL0     H68308  11.191   3.857   1.737 -0.6158  0.8750  3.6567
  506MOL0     H68309  11.194   3.167   1.228 -1.9480  2.6247 -3.3400
  506MOL0     H68310  11.082   3.148   1.043  0.6141 -1.8125 -0.1627
  507MOL0     O68311   5.498   0.430   8.532  0.1991 -0.1515  0.5583
  507MOL0     C68312   5.542   0.543   8.504 -0.6610  0.5879  0.4658
  507MOL0     O68313   5.679   0.571   8.508 -0.2771  0.0413  0.5166
  507MOL0     C68314   5.746   0.472   8.583 -0.3029  0.9928  0.2706
  507MOL0     C68315   5.734   0.468   8.723 -0.5103 -0.1117  0.4795
  507MOL0     C68316   5.810   0.375   8.796 -1.1733  0.2462  0.5631
  507MOL0     C68317   5.904   0.286   8.726  0.5473 -0.7476 -0.6347
  507MOL0     O68318   5.967   0.196   8.804  1.1053 -0.4569  0.4809
  507MOL0     C68319   6.046   0.095   8.742  0.3043  0.7317  0.3184
  507MOL0     C68320   6.109   0.016   8.868 -0.0355 -0.6419 -0.2245
  507MOL0     C68321   6.016  -0.061   8.955 -0.7333 -0.0392  0.3335
  507MOL0     C68322   6.094  -0.094   9.083  0.0459  0.2317  1.1263
  507MOL0     C68323   6.014  -0.199   9.155  0.4402  0.2113  0.4982
  507MOL0     C68324   6.099  -0.265   9.264 -0.1762  0.1213 -0.2194
  507MOL0     C68325   6.014  -0.351   9.361 -1.3779 -0.1637  0.6114
  507MOL0     C68326   5.943  -0.481   9.305  0.6132  0.6700 -0.0602
  507MOL0     N68327   5.896  -0.561   9.413 -0.7059 -0.4974 -1.0338
  507MOL0     C68328   5.795  -0.522   9.495  0.5620  1.0773 -0.8878
  507MOL0     C68329   5.766  -0.636   9.569 -0.3970  0.1234  0.0637
  507MOL0     C68330   5.640  -0.627   9.655 -0.2165 -0.4546 -0.6137
  507MOL0     C68331   5.684  -0.642   9.806 -0.0710 -0.1808  0.7398
  507MOL0     C68332   5.561  -0.625   9.902 -0.2103 -0.1529 -0.7139
  507MOL0     C68333   5.608  -0.621  10.048  1.4160 -0.1228  0.0424
  507MOL0     O68334   5.504  -0.644  10.140 -0.1817 -0.0058 -0.4798
  507MOL0     C68335   5.515  -0.576  10.260  0.7945 -0.3954 -0.3749
  507MOL0     C68336   5.401  -0.541  10.332  0.1843  0.0536 -0.0589
  507MOL0     C68337   5.406  -0.477  10.459 -0.6366  0.5517 -0.0637
  507MOL0     C68338   5.274  -0.446  10.521  0.5554 -0.0438  0.2147
  507MOL0     C68339   5.523  -0.471  10.532 -0.1156 -0.0905  0.5837
  507MOL0     C68340   5.539  -0.414  10.673  0.1124 -0.2695  0.3975
  507MOL0     O68341   5.663  -0.438  10.725 -0.1792  0.2738 -1.0411
  507MOL0     C68342   5.686  -0.394  10.849 -0.7936 -0.4883  0.5788
  507MOL0     C68343   5.596  -0.396  10.959 -0.1683 -0.6574  0.0232
  507MOL0     C68344   5.626  -0.333  11.083 -0.4973 -1.0318 -0.1708
  507MOL0     C68345   5.756  -0.290  11.107  0.7646  0.4148  0.5273
  507MOL0     O68346   5.791  -0.245  11.232 -0.0341 -0.4460 -0.4880
  507MOL0     C68347   5.691  -0.216  11.323  0.3063 -0.3552 -0.7017
  507MOL0     C68348   5.750  -0.184  11.466 -0.4081 -0.8664  0.4221
  507MOL0     C68349   5.826  -0.056  11.459  0.0812 -0.0919 -0.1883
  507MOL0     C68350   5.904  -0.019  11.587  0.3185 -0.3801  0.0822
  507MOL0     C68351   5.978   0.117  11.561 -0.6621 -0.3193 -0.0394
  507MOL0     C68352   6.070   0.161  11.671 -0.6201  0.3937 -0.9043
  507MOL0     C68353   6.098   0.309  11.655  0.1780 -0.7428  0.6095
  507MOL0     C68354   6.173   0.376  11.768 -0.9093 -0.1685 -0.2943
  507MOL0    Cl68355   6.157   0.554  11.744 -0.1900  0.3579 -0.1227
  507MOL0     C68356   5.854  -0.310  11.007 -0.1156  1.1185  0.3966
  507MOL0     C68357   5.815  -0.353  10.876 -0.8042  0.1780 -0.4206
  507MOL0     O68358   5.458  -0.335  10.711 -0.1652 -0.4278  0.3843
  507MOL0     C68359   5.641  -0.506  10.460  0.5689  0.2394  0.1146
  507MOL0     C68360   5.636  -0.556  10.329 -0.1196  0.8774 -0.7854
  507MOL0     N68361   5.860  -0.739   9.541 -0.4031 -0.1232  0.0361
  507MOL0     N68362   5.931  -0.692   9.442 -0.9363  0.0491  0.8308
  507MOL0     C68363   5.909   0.286   8.588  0.5383  0.6883  0.7072
  507MOL0     C68364   5.832   0.376   8.515  0.0254  0.7983  0.9154
  507MOL0     C68365   5.454   0.651   8.471 -0.4767  0.7153 -0.1315
  507MOL0     C68366   5.519   0.769   8.423 -0.7616 -0.3014 -0.5193
  507MOL0     C68367   5.442   0.884   8.400  0.7017  0.0466 -0.5084
  507MOL0     C68368   5.299   0.889   8.412 -0.0938 -0.3127 -0.7968
  507MOL0     O68369   5.208   0.993   8.409  0.1178  0.6733 -0.6754
  507MOL0     C68370   5.258   1.123   8.385 -0.1128  0.8008  0.7012
  507MOL0     C68371   5.242   1.158   8.234  0.1640 -0.2676  0.9456
  507MOL0     C68372   5.208   1.303   8.188  0.1080 -0.7700 -0.4899
  507MOL0     C68373   5.220   1.308   8.041  0.2368  0.4453 -0.0623
  507MOL0     C68374   5.140   1.430   7.992  0.2817  0.0021 -0.6319
  507MOL0     C68375   5.071   1.520   7.947  0.3153 -0.1774  0.6011
  507MOL0     C68376   5.249   0.766   8.454 -0.7648 -0.3213  0.1447
  507MOL0     C68377   5.316   0.647   8.480 -0.3165 -0.0629 -0.1336
  507MOL0     H68378   5.670   0.528   8.786 -0.7866 -0.2604  0.3434
  507MOL0     H68379   5.795   0.353   8.901 -0.8803 -3.3934 -0.0081
  507MOL0     H68380   5.987   0.024   8.683  3.4725 -0.5273 -1.5761
  507MOL0     H68381   6.124   0.142   8.682  0.5895 -0.2805 -0.1209
  507MOL0     H68382   6.177  -0.058   8.828 -0.2989  0.3078 -2.5756
  507MOL0     H68383   6.158   0.093   8.928 -1.4008 -1.2562  1.8110
  507MOL0     H68384   5.934  -0.000   8.994  1.0239  1.8139  1.3115
  507MOL0     H68385   5.982  -0.143   8.891  1.6255 -0.6040 -0.2860
  507MOL0     H68386   6.200  -0.118   9.070 -0.2584  0.3244 -3.0031
  507MOL0     H68387   6.097  -0.004   9.145  0.6409  2.1629 -1.5034
  507MOL0     H68388   5.930  -0.162   9.214 -1.8682 -2.6882 -0.6975
  507MOL0     H68389   5.992  -0.284   9.089  2.6474  1.9200 -2.6829
  507MOL0     H68390   6.180  -0.318   9.214  1.3318  2.5423 -0.5063
  507MOL0     H68391   6.143  -0.184   9.322 -0.1726  0.2036 -0.3364
  507MOL0     H68392   6.086  -0.370   9.441  0.2344  2.0813 -0.2157
  507MOL0     H68393   5.934  -0.285   9.396 -2.7370 -1.3052 -0.2207
  507MOL0     H68394   6.005  -0.554   9.252 -2.8589 -0.7674 -2.5351
  507MOL0     H68395   5.860  -0.457   9.239 -0.9628 -5.1720 -0.7764
  507MOL0     H68396   5.749  -0.424   9.498  0.1468  0.9129  2.7832
  507MOL0     H68397   5.591  -0.530   9.643  1.2090  0.5025  0.8905
  507MOL0     H68398   5.574  -0.711   9.633 -2.0262  0.8507 -0.3739
  507MOL0     H68399   5.764  -0.574   9.838  0.9636 -0.5981 -0.8484
  507MOL0     H68400   5.712  -0.747   9.818  0.2136 -0.2131 -0.1848
  507MOL0     H68401   5.498  -0.714   9.907  0.4026 -0.6672  5.3269
  507MOL0     H68402   5.495  -0.541   9.879 -0.5988  0.1098  1.1600
  507MOL0     H68403   5.629  -0.514  10.057 -0.7960  0.5521 -1.8649
  507MOL0     H68404   5.694  -0.688  10.059  1.1708 -0.1329  2.2363
  507MOL0     H68405   5.306  -0.543  10.280  1.2005  1.8733 -2.1800
  507MOL0     H68406   5.192  -0.491  10.464  1.6048 -2.2490  0.3281
  507MOL0     H68407   5.276  -0.484  10.624 -0.1866 -1.1511 -0.1637
  507MOL0     H68408   5.264  -0.337  10.515 -0.3837 -0.1151  0.3585
  507MOL0     H68409   5.498  -0.432  10.930  0.1740 -0.6452 -1.2264
  507MOL0     H68410   5.539  -0.336  11.148 -0.9989 -1.5681 -0.8456
  507MOL0     H68411   5.625  -0.144  11.275  2.6557  1.2050 -1.7862
  507MOL0     H68412   5.640  -0.311  11.345 -0.2585  0.4082  1.6148
  507MOL0     H68413   5.663  -0.167  11.530  1.7481  2.6704  2.8085
  507MOL0     H68414   5.817  -0.257  11.513  0.5996  1.0379  2.1530
  507MOL0     H68415   5.766   0.034  11.438  1.4510  1.6831  2.7629
  507MOL0     H68416   5.902  -0.063  11.381  2.2956 -1.1197  1.9355
  507MOL0     H68417   5.832  -0.009  11.669 -2.0465 -0.7447 -1.8586
  507MOL0     H68418   5.979  -0.097  11.605  3.0566  1.4672 -2.4954
  507MOL0     H68419   5.900   0.190  11.539 -1.8152 -0.8404  1.9577
  507MOL0     H68420   6.040   0.112  11.472  4.2835  0.5630  2.9713
  507MOL0     H68421   6.044   0.137  11.775  1.3446  2.1429  0.0710
  507MOL0     H68422   6.167   0.110  11.664 -0.9828 -0.6326  0.8519
  507MOL0     H68423   6.006   0.365  11.638  1.8379  1.7991 -0.7057
  507MOL0     H68424   6.157   0.329  11.566  2.2952 -1.1429  1.8520
  507MOL0     H68425   6.278   0.349  11.778 -0.8125  1.0667  3.9430
  507MOL0     H68426   6.122   0.358  11.863 -2.9512 -0.9924 -1.4675
  507MOL0     H68427   5.958  -0.294  11.033 -0.1616  0.7404  0.8363
  507MOL0     H68428   5.889  -0.358  10.797  3.2719 -0.6765  3.0862
  507MOL0     H68429   5.733  -0.528  10.514  1.7247  0.5139 -1.6539
  507MOL0     H68430   5.725  -0.589  10.276  1.6495  1.2480  1.7441
  507MOL0     H68431   5.980   0.217   8.544  0.8915  0.5170  1.5184
  507MOL0     H68432   5.826   0.377   8.407 -2.1530  2.2221  0.9830
  507MOL0     H68433   5.627   0.778   8.420 -0.5544 -2.5656 -1.8534
  507MOL0     H68434   5.476   0.976   8.354 -0.8252 -1.4701 -5.3623
  507MOL0     H68435   5.198   1.185   8.452 -2.1685  0.1686 -0.4602
  507MOL0     H68436   5.359   1.134   8.426 -0.0167 -2.1280  1.4428
  507MOL0     H68437   5.162   1.095   8.195  0.1223  1.0277 -1.2035
  507MOL0     H68438   5.332   1.125   8.181 -0.4756 -1.0778  0.3246
  507MOL0     H68439   5.261   1.382   8.242 -2.6346  0.5094  0.4997
  507MOL0     H68440   5.106   1.330   8.217  0.0492 -0.5535 -0.8946
  507MOL0     H68441   5.157   1.231   7.996 -0.3462  0.4168  0.7740
  507MOL0     H68442   5.315   1.307   7.988  1.0677 -3.3047  1.2030
  507MOL0     H68443   5.011   1.599   7.907  1.3716 -0.0778 -0.8532
  507MOL0     H68444   5.147   0.756   8.489 -0.9837 -0.7401 -0.5879
  507MOL0     H68445   5.268   0.556   8.513  0.5920 -1.4318 -2.3524
  508MOL0     O68446   9.565   1.486   3.812  0.7167  0.0574  0.2986
  508MOL0     C68447   9.571   1.605   3.791  0.4001  0.0454 -0.2226
  508MOL0     O68448   9.589   1.660   3.672 -0.5005  0.0120  1.4011
  508MOL0     C68449   9.669   1.602   3.575 -0.2241 -0.4046  0.6662
  508MOL0     C68450   9.645   1.639   3.437  0.0021  0.1169  0.7194
  508MOL0     C68451   9.718   1.584   3.331 -0.3033 -0.0223  0.2307
  508MOL0     C68452   9.817   1.497   3.361  0.0007 -0.0188 -0.8680
  508MOL0     O68453   9.889   1.448   3.258 -0.5203  0.3647  0.1147
  508MOL0     C68454   9.916   1.306   3.251  0.3715  0.2100 -0.4260
  508MOL0     C68455   9.798   1.215   3.202  0.0845  0.0092 -0.8228
  508MOL0     C68456   9.739   1.272   3.069  0.3181  0.6774  0.1328
  508MOL0     C68457   9.611   1.202   3.017  0.0334 -0.4188  0.6400
  508MOL0     C68458   9.553   1.257   2.883 -0.0029 -0.1297  0.0290
  508MOL0     C68459   9.427   1.173   2.837 -0.3822 -0.2549 -0.5348
  508MOL0     C68460   9.368   1.230   2.707  0.4333 -0.6291  0.2171
  508MOL0     C68461   9.224   1.174   2.678 -0.1326 -0.8091  0.7690
  508MOL0     N68462   9.161   1.230   2.551 -0.7732 -0.4410  0.4146
  508MOL0     C68463   9.227   1.234   2.431  0.4168 -0.4528  0.0345
  508MOL0     C68464   9.157   1.335   2.364  0.2291  0.3062  0.4278
  508MOL0     C68465   9.199   1.373   2.213  0.3075  0.4308 -0.7105
  508MOL0     C68466   9.166   1.249   2.120 -0.2746 -0.4914  0.0373
  508MOL0     C68467   9.224   1.257   1.980  0.5636 -0.1651  1.8268
  508MOL0     C68468   9.369   1.308   1.954  0.4270  0.5219 -0.4865
  508MOL0     O68469   9.445   1.189   1.920 -0.1967 -1.5208 -0.1921
  508MOL0     C68470   9.452   1.137   1.790 -0.3628  0.4293 -0.5003
  508MOL0     C68471   9.546   1.033   1.774  0.3463  0.0782 -0.0939
  508MOL0     C68472   9.563   0.962   1.655 -1.0189 -0.9611  1.2704
  508MOL0     C68473   9.677   0.860   1.660  0.4858 -0.7931 -0.2267
  508MOL0     C68474   9.465   0.976   1.565  0.5188 -0.1108  0.6634
  508MOL0     C68475   9.456   0.882   1.447 -0.6995 -0.7216  0.1457
  508MOL0     O68476   9.335   0.855   1.399 -0.3939 -1.0615 -0.0113
  508MOL0     C68477   9.320   0.778   1.291  0.1054  0.5569 -0.8279
  508MOL0     C68478   9.216   0.678   1.292 -0.4605  0.3520  0.0383
  508MOL0     C68479   9.190   0.592   1.184  0.9185  0.0857  0.0113
  508MOL0     C68480   9.269   0.591   1.074  0.4421  0.0889  0.4258
  508MOL0     O68481   9.244   0.493   0.981 -0.3822  0.2486 -1.0638
  508MOL0     C68482   9.285   0.512   0.853 -0.0842  1.3129  0.4594
  508MOL0     C68483   9.203   0.406   0.769  0.1319  0.2541 -1.0286
  508MOL0     C68484   9.213   0.412   0.615 -0.6935  0.1579 -0.5144
  508MOL0     C68485   9.150   0.538   0.560  0.7483  0.1571 -0.8774
  508MOL0     C68486   9.200   0.564   0.421  0.0929 -0.8585  0.4294
  508MOL0     C68487   9.158   0.449   0.326 -0.2291 -0.4630  0.8467
  508MOL0     C68488   9.186   0.479   0.176 -0.2279 -0.4055  0.6346
  508MOL0     C68489   9.306   0.578   0.152  0.0418 -0.0039  0.6050
  508MOL0    Cl68490   9.233   0.740   0.148 -0.0808 -0.4436  0.1071
  508MOL0     C68491   9.368   0.693   1.072  0.1225 -0.6031 -0.6586
  508MOL0     C68492   9.388   0.783   1.173  0.5688 -0.5905 -0.0069
  508MOL0     O68493   9.558   0.835   1.403  0.2243 -0.2574  0.6863
  508MOL0     C68494   9.363   1.073   1.578 -0.8824  0.0199  0.1465
  508MOL0     C68495   9.361   1.156   1.692 -0.2719 -0.2259  0.2166
  508MOL0     N68496   9.055   1.390   2.438  0.4680  0.6397 -0.0459
  508MOL0     N68497   9.054   1.315   2.549  0.4583  0.3116  0.5397
  508MOL0     C68498   9.844   1.461   3.494 -0.3956  0.0424  0.2671
  508MOL0     C68499   9.773   1.521   3.605  0.0918  0.5766 -0.7090
  508MOL0     C68500   9.521   1.701   3.890 -0.5444 -0.3025  0.6899
  508MOL0     C68501   9.499   1.840   3.864  1.2391 -0.6699 -0.2606
  508MOL0     C68502   9.445   1.925   3.956  0.2655 -0.3628 -0.4019
  508MOL0     C68503   9.408   1.881   4.080  0.5420 -0.4697  0.8371
  508MOL0     O68504   9.354   1.970   4.173  0.4435 -0.5077 -0.6057
  508MOL0     C68505   9.333   2.112   4.155  0.6067  0.1382 -0.7771
  508MOL0     C68506   9.252   2.160   4.282 -0.0338 -0.2981  0.2344
  508MOL0     C68507   9.121   2.078   4.293 -0.0067 -0.6307  0.9500
  508MOL0     C68508   9.014   2.138   4.383 -0.0485 -0.1521 -0.0267
  508MOL0     C68509   8.977   2.052   4.494 -0.6389 -0.1663 -1.2638
  508MOL0     C68510   8.922   1.991   4.577 -0.4049  0.0591 -0.0383
  508MOL0     C68511   9.415   1.748   4.114  0.1974  0.7713 -0.1194
  508MOL0     C68512   9.485   1.657   4.020 -0.3499 -0.3628  0.4517
  508MOL0     H68513   9.568   1.715   3.423  1.6890  2.1756  2.0271
  508MOL0     H68514   9.713   1.619   3.228 -0.9728  1.8619  0.8468
  508MOL0     H68515   9.994   1.293   3.176  0.9795  2.6030 -0.3136
  508MOL0     H68516   9.968   1.271   3.340  1.1188  1.0584 -0.5058
  508MOL0     H68517   9.820   1.108   3.191 -0.4545 -0.6157  2.6936
  508MOL0     H68518   9.721   1.210   3.280 -1.4266 -0.8288 -2.3004
  508MOL0     H68519   9.724   1.380   3.069 -2.0437  0.5609 -4.1055
  508MOL0     H68520   9.816   1.245   2.996  0.3360 -0.2476  0.4725
  508MOL0     H68521   9.628   1.095   3.006  1.2097 -0.2742  0.9097
  508MOL0     H68522   9.534   1.206   3.096 -2.4922 -1.0582 -1.6403
  508MOL0     H68523   9.528   1.363   2.892 -3.0260 -0.7436 -0.1892
  508MOL0     H68524   9.630   1.239   2.808 -0.6954 -1.2189 -0.4389
  508MOL0     H68525   9.452   1.068   2.825  0.3679 -0.0342 -0.9743
  508MOL0     H68526   9.344   1.173   2.908  1.6531 -2.4215  2.0562
  508MOL0     H68527   9.368   1.339   2.719  2.3536 -0.5905  0.1753
  508MOL0     H68528   9.437   1.202   2.626 -0.4259 -0.5866 -0.5369
  508MOL0     H68529   9.161   1.197   2.763 -1.0196  2.1962 -0.5706
  508MOL0     H68530   9.232   1.065   2.669  1.3070 -0.6051 -1.5131
  508MOL0     H68531   9.316   1.186   2.392  0.6792  0.9281 -1.1743
  508MOL0     H68532   9.155   1.471   2.191 -1.6033  0.0227  1.0639
  508MOL0     H68533   9.308   1.383   2.223  0.7410 -2.6667 -1.3799
  508MOL0     H68534   9.058   1.255   2.108 -0.3778  1.1396  1.3695
  508MOL0     H68535   9.203   1.154   2.162  1.0214 -0.9355 -1.9580
  508MOL0     H68536   9.159   1.330   1.931 -0.7408 -4.4502 -3.9745
  508MOL0     H68537   9.189   1.169   1.926 -0.1549  0.3074  1.5055
  508MOL0     H68538   9.412   1.345   2.048  0.6967 -0.6147 -0.1472
  508MOL0     H68539   9.383   1.379   1.872 -1.3149  3.0132  1.2594
  508MOL0     H68540   9.603   0.997   1.859 -0.3953  0.0296  0.3827
  508MOL0     H68541   9.636   0.770   1.611 -1.0104  1.5386 -3.6648
  508MOL0     H68542   9.754   0.906   1.597 -0.4939  2.4658  0.7492
  508MOL0     H68543   9.703   0.825   1.760 -3.4077 -4.7990 -0.2991
  508MOL0     H68544   9.147   0.678   1.376 -0.4086  2.7225  0.1389
  508MOL0     H68545   9.105   0.526   1.192 -1.7386  3.2148 -0.4216
  508MOL0     H68546   9.267   0.610   0.809  2.9285  0.7929 -2.3652
  508MOL0     H68547   9.393   0.507   0.831  0.2494  0.8371  2.0669
  508MOL0     H68548   9.230   0.305   0.800 -0.8208  0.3088  0.0648
  508MOL0     H68549   9.103   0.410   0.814  1.8775  2.1250  3.2025
  508MOL0     H68550   9.159   0.325   0.577 -0.6489 -1.9058  3.5729
  508MOL0     H68551   9.319   0.409   0.589 -0.3943  1.8277  0.3233
  508MOL0     H68552   9.042   0.542   0.548  0.7425  5.1467 -1.1947
  508MOL0     H68553   9.167   0.618   0.633 -1.8093 -1.2268  1.3964
  508MOL0     H68554   9.308   0.578   0.427 -0.0010  0.6730 -0.6538
  508MOL0     H68555   9.156   0.652   0.373  0.8616 -0.5426  0.2900
  508MOL0     H68556   9.221   0.360   0.335 -0.7113 -1.4176 -3.1164
  508MOL0     H68557   9.053   0.418   0.334  0.3531 -3.6995 -1.6774
  508MOL0     H68558   9.092   0.520   0.137  0.9327  2.3431  0.5060
  508MOL0     H68559   9.201   0.383   0.128  2.5113  0.4807 -0.4798
  508MOL0     H68560   9.361   0.548   0.062  1.0176  0.8505  0.8969
  508MOL0     H68561   9.378   0.570   0.234  1.5591 -0.5397 -0.7199
  508MOL0     H68562   9.440   0.696   0.991 -0.2733  0.2484 -1.0025
  508MOL0     H68563   9.471   0.852   1.164  0.2586  0.1945  2.4832
  508MOL0     H68564   9.286   1.084   1.502  0.0898 -0.3925 -0.9284
  508MOL0     H68565   9.280   1.228   1.694  0.5260  0.6667  1.0109
  508MOL0     H68566   9.922   1.388   3.513 -1.6110 -1.2129  0.6231
  508MOL0     H68567   9.796   1.505   3.710 -0.6740 -1.0220 -0.7481
  508MOL0     H68568   9.527   1.878   3.766  3.2759 -0.8348  0.2251
  508MOL0     H68569   9.441   2.029   3.927  0.5917 -1.0148 -2.9738
  508MOL0     H68570   9.430   2.163   4.155  1.0686 -0.5974 -3.2363
  508MOL0     H68571   9.272   2.141   4.069 -0.3127 -1.1142 -0.5705
  508MOL0     H68572   9.243   2.268   4.264  1.7206 -0.3762 -1.4662
  508MOL0     H68573   9.315   2.137   4.369 -0.9355 -0.3483  0.8889
  508MOL0     H68574   9.143   1.980   4.336 -0.7415 -2.1132 -1.8215
  508MOL0     H68575   9.075   2.059   4.196 -1.4384  2.3361  0.9312
  508MOL0     H68576   8.925   2.156   4.322 -0.7291  1.6406  1.4302
  508MOL0     H68577   9.042   2.234   4.428 -2.2305  1.0236 -1.0175
  508MOL0     H68578   8.866   1.954   4.661  0.3617  2.5958  1.6935
  508MOL0     H68579   9.386   1.724   4.215  1.1608  0.6801  0.1431
  508MOL0     H68580   9.496   1.552   4.042  0.6001 -0.5109 -0.6090
  509MOL0     O68581   9.647   2.501   0.282 -0.0816 -0.5952  1.1304
  509MOL0     C68582   9.552   2.516   0.359  0.3709  0.5650 -0.7085
  509MOL0     O68583   9.472   2.626   0.376  0.2401  0.2959 -0.5631
  509MOL0     C68584   9.494   2.742   0.309 -0.2255 -0.7082  0.5066
  509MOL0     C68585   9.513   2.746   0.170  0.5130  0.5528  0.3951
  509MOL0     C68586   9.555   2.854   0.093  0.5720  0.1067  0.2456
  509MOL0     C68587   9.548   2.980   0.155 -0.0569 -0.4502 -0.5140
  509MOL0     O68588   9.569   3.092   0.088  0.5372 -0.0433 -0.4118
  509MOL0     C68589   9.522   3.110  -0.044 -0.7649  0.0931 -0.6576
  509MOL0     C68590   9.508   3.262  -0.058 -0.4470 -0.3648  0.4045
  509MOL0     C68591   9.638   3.329  -0.095  0.2830  0.0042 -0.5135
  509MOL0     C68592   9.631   3.482  -0.071 -0.5795  0.5429 -0.1180
  509MOL0     C68593   9.516   3.554  -0.145 -0.7323  0.5110 -0.0191
  509MOL0     C68594   9.531   3.705  -0.144  0.3247 -0.1025 -0.0992
  509MOL0     C68595   9.434   3.787  -0.232 -0.2208  0.5683 -0.7601
  509MOL0     C68596   9.435   3.743  -0.369  0.0628 -0.1576  0.3190
  509MOL0     N68597   9.369   3.826  -0.465  0.2288 -0.3885 -0.2486
  509MOL0     C68598   9.332   3.962  -0.467  0.5797 -0.1168 -1.1273
  509MOL0     C68599   9.267   3.982  -0.581  0.0557  0.2372 -1.1050
  509MOL0     C68600   9.217   4.119  -0.619 -0.1402 -0.0552  0.2833
  509MOL0     C68601   9.077   4.149  -0.569 -0.7857 -0.6454 -0.0283
  509MOL0     C68602   9.023   4.278  -0.612  1.0722 -0.6972  0.3180
  509MOL0     C68603   8.908   4.328  -0.525  0.0684  0.5863  0.6368
  509MOL0     O68604   8.946   4.436  -0.437 -0.5726  0.1223 -0.1054
  509MOL0     C68605   8.960   4.567  -0.487  0.5220 -0.3552 -1.1277
  509MOL0     C68606   8.976   4.603  -0.624  0.7559 -0.4977  0.4506
  509MOL0     C68607   8.959   4.735  -0.665 -0.3306  0.4559  0.2743
  509MOL0     C68608   8.979   4.751  -0.816 -0.1041  0.2713  0.7277
  509MOL0     C68609   8.945   4.837  -0.570  0.3182 -0.6402 -0.2848
  509MOL0     C68610   8.909   4.983  -0.614  0.8097  0.0660 -0.2225
  509MOL0     O68611   8.890   5.073  -0.517  0.1417  1.3332 -0.1680
  509MOL0     C68612   8.863   5.209  -0.540  0.5857 -0.6921  0.8806
  509MOL0     C68613   8.780   5.263  -0.443 -0.3406  0.2515  1.3214
  509MOL0     C68614   8.735   5.397  -0.446 -0.2395  0.3036  0.2524
  509MOL0     C68615   8.766   5.480  -0.558 -0.7094 -0.3250 -0.3346
  509MOL0     O68616   8.717   5.605  -0.575  0.2099 -0.1708  0.1411
  509MOL0     C68617   8.641   5.670  -0.474  0.4128  0.1484 -0.4573
  509MOL0     C68618   8.593   5.799  -0.539 -0.0473  0.0678 -1.0098
  509MOL0     C68619   8.703   5.906  -0.541 -0.1294 -0.3076 -0.1586
  509MOL0     C68620   8.713   6.004  -0.431  1.1328  0.2288 -0.2466
  509MOL0     C68621   8.843   6.079  -0.448 -0.0989 -0.0274  0.6174
  509MOL0     C68622   8.966   6.007  -0.374  0.6171  0.6575 -0.0881
  509MOL0     C68623   9.105   6.082  -0.384  0.2709 -0.2052  1.0150
  509MOL0     C68624   9.108   6.205  -0.296 -0.1778  0.8341 -0.0755
  509MOL0    Cl68625   9.113   6.165  -0.118  0.0856 -0.0092 -0.3586
  509MOL0     C68626   8.862   5.428  -0.652  1.1430 -0.0918  0.2417
  509MOL0     C68627   8.900   5.289  -0.642  0.9374  0.1646 -0.0239
  509MOL0     O68628   8.881   5.003  -0.732  0.8087  0.8320  0.2553
  509MOL0     C68629   8.937   4.805  -0.433  0.5259  0.3380  0.9492
  509MOL0     C68630   8.946   4.676  -0.397  0.9173 -0.9296  0.2435
  509MOL0     N68631   9.270   3.863  -0.654  0.3657 -0.0915 -1.0362
  509MOL0     N68632   9.333   3.776  -0.585 -0.2995 -0.6126 -0.5920
  509MOL0     C68633   9.522   2.986   0.287 -0.1574  0.1181  0.0328
  509MOL0     C68634   9.491   2.869   0.367 -0.2486 -0.3217  0.6930
  509MOL0     C68635   9.518   2.392   0.430 -0.1814  0.0880 -0.0193
  509MOL0     C68636   9.598   2.276   0.417 -0.0437  0.3906 -0.3884
  509MOL0     C68637   9.583   2.155   0.489 -0.3111  1.3194 -0.6837
  509MOL0     C68638   9.487   2.151   0.592  0.6341  0.0570  0.4134
  509MOL0     O68639   9.459   2.042   0.673  0.8264 -0.1516  0.1575
  509MOL0     C68640   9.532   1.925   0.663 -0.3896  0.4459  0.0788
  509MOL0     C68641   9.505   1.834   0.782 -0.2912  0.6457  0.4902
  509MOL0     C68642   9.452   1.694   0.740  1.0561 -1.1022  0.2116
  509MOL0     C68643   9.411   1.598   0.857  0.1040  0.1963 -0.2580
  509MOL0     C68644   9.301   1.646   0.937 -0.1057 -0.2570 -0.0810
  509MOL0     C68645   9.233   1.684   1.027  0.1149 -0.6615  0.2453
  509MOL0     C68646   9.406   2.262   0.603  0.3929  0.6680 -0.7139
  509MOL0     C68647   9.414   2.377   0.523  0.2352 -0.4926 -0.6429
  509MOL0     H68648   9.527   2.647   0.127  0.4113  0.7142 -0.0126
  509MOL0     H68649   9.589   2.819  -0.004  1.5800 -1.5207  1.1451
  509MOL0     H68650   9.595   3.072  -0.115  2.3966  2.8654  0.8239
  509MOL0     H68651   9.428   3.057  -0.055 -1.4873  1.3497 -0.7885
  509MOL0     H68652   9.437   3.279  -0.138 -0.6671 -0.7622  0.5145
  509MOL0     H68653   9.479   3.314   0.034 -1.2077  0.6816 -0.4169
  509MOL0     H68654   9.723   3.294  -0.036  0.1870  1.2485  0.4138
  509MOL0     H68655   9.655   3.311  -0.201 -0.8242 -1.7038 -0.4396
  509MOL0     H68656   9.626   3.510   0.035 -1.7784  2.5923 -0.6548
  509MOL0     H68657   9.726   3.529  -0.099  0.0622 -0.0252  1.0164
  509MOL0     H68658   9.519   3.541  -0.254 -1.5581  1.0898 -0.1247
  509MOL0     H68659   9.419   3.523  -0.104 -0.2613 -3.0348 -1.2233
  509MOL0     H68660   9.523   3.752  -0.046  0.7714  0.1327 -0.1728
  509MOL0     H68661   9.627   3.730  -0.189  0.1552  0.6381 -0.0509
  509MOL0     H68662   9.335   3.768  -0.187 -0.3909 -2.5955 -2.1600
  509MOL0     H68663   9.455   3.894  -0.232 -1.9886  1.0108  1.7223
  509MOL0     H68664   9.380   3.650  -0.385  2.1658 -1.5047  0.5146
  509MOL0     H68665   9.540   3.727  -0.392  0.3204  1.3783  0.3483
  509MOL0     H68666   9.344   4.031  -0.383  0.3695 -0.8243 -0.5070
  509MOL0     H68667   9.292   4.184  -0.572  2.0417  0.1755 -3.1457
  509MOL0     H68668   9.226   4.129  -0.727  0.6542 -0.1381  0.3311
  509MOL0     H68669   9.075   4.137  -0.460 -2.9605  0.7546  0.1276
  509MOL0     H68670   9.012   4.079  -0.621 -0.1430 -1.9989  0.9213
  509MOL0     H68671   8.988   4.280  -0.715 -1.1669  2.0151  1.0211
  509MOL0     H68672   9.103   4.353  -0.606 -0.2347  0.7787 -0.1734
  509MOL0     H68673   8.869   4.250  -0.460 -1.8122  2.0437  1.3756
  509MOL0     H68674   8.829   4.372  -0.587  0.1168  0.2678  0.3443
  509MOL0     H68675   8.986   4.523  -0.696 -1.4251 -0.5375  0.1334
  509MOL0     H68676   9.073   4.804  -0.834 -0.2640  0.3374  0.0592
  509MOL0     H68677   8.994   4.662  -0.878  0.0913  2.1330 -2.0634
  509MOL0     H68678   8.893   4.802  -0.859 -2.1759 -1.5436  2.4515
  509MOL0     H68679   8.760   5.196  -0.360  1.0332 -0.6949  0.9161
  509MOL0     H68680   8.673   5.418  -0.359 -0.1755  2.8693 -0.2391
  509MOL0     H68681   8.555   5.612  -0.439  0.1122  0.1616 -1.1684
  509MOL0     H68682   8.709   5.683  -0.390  1.1108 -3.9696 -0.1738
  509MOL0     H68683   8.547   5.768  -0.633 -0.8267  0.6613 -0.8395
  509MOL0     H68684   8.510   5.842  -0.482  1.2162 -0.2765  1.1860
  509MOL0     H68685   8.682   5.971  -0.627  0.2326  0.6329  0.4544
  509MOL0     H68686   8.798   5.854  -0.550 -1.7109 -3.4784 -0.0720
  509MOL0     H68687   8.626   6.070  -0.437  0.1441 -0.9106  0.8944
  509MOL0     H68688   8.705   5.951  -0.336 -2.6057 -0.4980 -0.7796
  509MOL0     H68689   8.816   6.171  -0.395 -1.8789 -0.0720 -0.1487
  509MOL0     H68690   8.863   6.109  -0.551  1.0193  0.1373  0.8705
  509MOL0     H68691   8.941   5.992  -0.269 -0.3823  1.6178 -0.1740
  509MOL0     H68692   8.986   5.913  -0.427  2.6232  0.7511  0.4105
  509MOL0     H68693   9.123   6.107  -0.489  2.5911 -2.2145  0.8591
  509MOL0     H68694   9.178   6.005  -0.360 -0.9365 -1.7659 -0.1644
  509MOL0     H68695   9.027   6.275  -0.320  0.0769  1.2920  0.3876
  509MOL0     H68696   9.199   6.263  -0.306 -0.8841  2.4103  1.9386
  509MOL0     H68697   8.882   5.492  -0.738 -0.6751  1.6275  1.0016
  509MOL0     H68698   8.966   5.258  -0.723  1.0150 -0.5760  0.3178
  509MOL0     H68699   8.902   4.869  -0.352 -3.1796  0.0094 -0.1989
  509MOL0     H68700   8.931   4.648  -0.293 -1.2909 -1.1676 -0.0927
  509MOL0     H68701   9.530   3.083   0.335  3.0470  0.1004 -0.2556
  509MOL0     H68702   9.472   2.877   0.473 -1.2473 -2.2033  0.7036
  509MOL0     H68703   9.693   2.276   0.365  1.8067 -2.2331  2.6366
  509MOL0     H68704   9.642   2.065   0.473 -0.7082  1.1625 -1.3084
  509MOL0     H68705   9.509   1.877   0.567  0.1390 -0.5832  0.4451
  509MOL0     H68706   9.638   1.947   0.669 -0.7799  2.0277  3.2574
  509MOL0     H68707   9.429   1.886   0.840  1.4497  2.4913  1.2238
  509MOL0     H68708   9.599   1.826   0.838  0.3131  1.4148 -0.3862
  509MOL0     H68709   9.529   1.650   0.675  2.4853  0.7234  0.5873
  509MOL0     H68710   9.361   1.715   0.683  2.9965  2.2486 -1.9824
  509MOL0     H68711   9.498   1.594   0.922 -1.3011  2.5633  1.9678
  509MOL0     H68712   9.393   1.500   0.812  1.2567 -0.8209  1.4012
  509MOL0     H68713   9.170   1.707   1.110  1.1801 -0.7350  1.1023
  509MOL0     H68714   9.320   2.254   0.669  0.6402 -1.0969 -0.5386
  509MOL0     H68715   9.343   2.458   0.533  1.6498  0.6329  0.6172
  510MOL0     O68716   9.782   1.837   7.705  0.0203  0.4501 -0.7587
  510MOL0     C68717   9.774   1.716   7.675  0.4675  0.1928 -1.1606
  510MOL0     O68718   9.877   1.626   7.657 -0.3723  1.1839 -0.5311
  510MOL0     C68719   9.999   1.677   7.636 -0.1122 -0.3504 -0.6318
  510MOL0     C68720  10.055   1.690   7.506 -0.5001  0.4722  0.2544
  510MOL0     C68721  10.189   1.743   7.489  1.0521  0.0177 -0.2538
  510MOL0     C68722  10.274   1.765   7.601  0.3852 -0.0857  0.6404
  510MOL0     O68723  10.412   1.797   7.592 -0.1322 -0.4129 -0.6512
  510MOL0     C68724  10.484   1.799   7.466 -1.1120 -0.1046  0.6394
  510MOL0     C68725  10.493   1.943   7.420  0.5259  0.0280  0.0113
  510MOL0     C68726  10.590   2.023   7.508 -0.2306  0.3621 -0.5701
  510MOL0     C68727  10.613   2.151   7.434 -0.0726 -0.4443  0.3448
  510MOL0     C68728  10.730   2.219   7.486  0.4778  0.0808  0.2965
  510MOL0     C68729  10.742   2.363   7.456 -0.9306  0.5456 -0.3011
  510MOL0     C68730  10.708   2.404   7.312 -0.2444 -0.8081  0.4612
  510MOL0     C68731  10.805   2.341   7.211 -0.0071 -0.2648 -0.2521
  510MOL0     N68732  10.800   2.416   7.079 -0.5291 -0.2169  0.2391
  510MOL0     C68733  10.908   2.487   7.026 -0.1617 -0.8013  0.0395
  510MOL0     C68734  10.861   2.533   6.912  0.2051  0.0021 -0.6418
  510MOL0     C68735  10.936   2.641   6.832  0.1600  0.3419  0.3761
  510MOL0     C68736  11.028   2.588   6.726  0.4109 -0.3314 -0.6440
  510MOL0     C68737  10.964   2.522   6.604 -0.3062 -0.3842  0.2799
  510MOL0     C68738  11.065   2.484   6.500 -1.3319  0.0682 -0.9926
  510MOL0     O68739  11.133   2.365   6.544 -0.9956 -0.1489 -0.4732
  510MOL0     C68740  11.157   2.266   6.450 -0.0235  0.0663  0.1736
  510MOL0     C68741  11.241   2.298   6.341  0.2083  0.7097  0.6822
  510MOL0     C68742  11.289   2.194   6.255  0.3602 -0.0364  0.8523
  510MOL0     C68743  11.384   2.238   6.152  0.2048  0.1903  0.3198
  510MOL0     C68744  11.237   2.061   6.272  0.5807  0.1306 -0.6108
  510MOL0     C68745  11.278   1.948   6.192  0.0703  0.0044  0.9298
  510MOL0     O68746  11.235   1.821   6.232 -0.3169 -0.2713  0.1977
  510MOL0     C68747  11.339   1.731   6.233  0.6539  0.3359 -0.6314
  510MOL0     C68748  11.338   1.610   6.160  1.6383 -0.8263  0.3250
  510MOL0     C68749  11.443   1.519   6.166 -0.4985  0.9083 -0.0401
  510MOL0     C68750  11.562   1.554   6.234  0.5215 -0.0206 -0.5506
  510MOL0     O68751  11.669   1.472   6.203  0.7016  0.2036 -0.2732
  510MOL0     C68752  11.803   1.515   6.211 -0.0651 -0.7352 -0.4850
  510MOL0     C68753  11.889   1.408   6.136  0.6334 -0.0447 -0.4146
  510MOL0     C68754  12.033   1.428   6.166  0.0109  0.0297 -0.0905
  510MOL0     C68755  12.117   1.501   6.050  0.3193  0.3827  0.1026
  510MOL0     C68756  12.253   1.521   6.095  0.0646 -0.4233  0.6976
  510MOL0     C68757  12.349   1.534   5.964  0.2940 -0.9817 -1.4274
  510MOL0     C68758  12.483   1.613   5.992 -0.0135 -0.5590  0.2466
  510MOL0     C68759  12.594   1.568   5.901  0.2417 -0.6562 -0.3591
  510MOL0    Cl68760  12.689   1.717   5.885 -0.7299 -0.0387  0.0909
  510MOL0     C68761  11.561   1.659   6.330  0.2577 -0.8136 -0.2899
  510MOL0     C68762  11.454   1.751   6.317  0.6794 -0.1267  0.6579
  510MOL0     O68763  11.341   1.972   6.089  0.0186  0.5663  1.5833
  510MOL0     C68764  11.154   2.035   6.385 -0.2622 -0.2159  0.0998
  510MOL0     C68765  11.120   2.136   6.481  0.2370 -0.2286  0.3763
  510MOL0     N68766  10.719   2.494   6.899 -1.0240  0.0460  0.0838
  510MOL0     N68767  10.688   2.432   7.010  0.9363  0.3702 -0.1158
  510MOL0     C68768  10.216   1.756   7.727  0.5964  0.2438 -0.4993
  510MOL0     C68769  10.087   1.704   7.749  0.1466 -0.5130  0.1221
  510MOL0     C68770   9.631   1.663   7.675 -0.1680  0.5876 -0.8354
  510MOL0     C68771   9.588   1.532   7.628  0.4221  0.1486  0.3932
  510MOL0     C68772   9.455   1.479   7.647  0.5116  0.5351  0.3721
  510MOL0     C68773   9.352   1.558   7.699 -0.8225 -0.1121 -0.9711
  510MOL0     O68774   9.232   1.489   7.702 -0.0290  0.2576 -0.7555
  510MOL0     C68775   9.125   1.559   7.758 -0.1044 -0.0484 -0.8126
  510MOL0     C68776   9.008   1.465   7.780  0.1459 -0.2320  1.3058
  510MOL0     C68777   8.870   1.539   7.786  0.3399  0.3466  0.1651
  510MOL0     C68778   8.866   1.663   7.877 -0.0627  0.1391 -0.7485
  510MOL0     C68779   8.727   1.686   7.920 -0.3095  0.5547  0.0346
  510MOL0     C68780   8.615   1.709   7.946  1.2608 -0.4712  0.0737
  510MOL0     C68781   9.391   1.688   7.743  0.1911  0.7958  0.8095
  510MOL0     C68782   9.527   1.730   7.735  0.1829  0.5609 -0.1576
  510MOL0     H68783   9.986   1.658   7.429 -2.3992  1.9003  1.2822
  510MOL0     H68784  10.229   1.736   7.388 -0.6155  0.3426 -0.9635
  510MOL0     H68785  10.581   1.761   7.500  0.0658  1.7040 -0.5183
  510MOL0     H68786  10.449   1.728   7.391 -3.8356 -0.0760  1.7885
  510MOL0     H68787  10.536   1.934   7.320  0.5685 -0.6682  0.0901
  510MOL0     H68788  10.388   1.973   7.423  0.9949  2.0558 -1.5052
  510MOL0     H68789  10.543   2.047   7.604 -0.1015 -0.6502 -0.2399
  510MOL0     H68790  10.680   1.964   7.524 -0.3218 -0.4068 -2.5721
  510MOL0     H68791  10.634   2.138   7.328  2.0142 -1.0984  0.7939
  510MOL0     H68792  10.522   2.210   7.446  0.7858  1.0483 -0.3126
  510MOL0     H68793  10.730   2.215   7.596  0.5081  3.4116  0.5373
  510MOL0     H68794  10.825   2.171   7.463  0.0750  0.1064 -1.5245
  510MOL0     H68795  10.663   2.413   7.513 -1.8601  3.0724 -3.4900
  510MOL0     H68796  10.841   2.403   7.478  0.2916 -2.1836 -0.4028
  510MOL0     H68797  10.600   2.407   7.291 -0.8626 -2.6187  2.9389
  510MOL0     H68798  10.741   2.507   7.301  1.8801 -1.5700 -0.9559
  510MOL0     H68799  10.780   2.235   7.195  0.9654 -0.2948 -1.7814
  510MOL0     H68800  10.904   2.342   7.256 -1.8633  0.1138  4.3837
  510MOL0     H68801  10.995   2.524   7.078 -0.7601  0.0943  0.4302
  510MOL0     H68802  10.856   2.706   6.796 -0.8887  1.7113  4.5580
  510MOL0     H68803  10.997   2.711   6.890  0.7576  1.2181 -1.2678
  510MOL0     H68804  11.102   2.518   6.767  0.3038  0.2603  0.5983
  510MOL0     H68805  11.093   2.671   6.698 -0.7888  0.5698 -0.8086
  510MOL0     H68806  10.890   2.589   6.559 -0.9023 -3.5530 -4.1910
  510MOL0     H68807  10.915   2.431   6.639 -0.5089  0.0847  1.2367
  510MOL0     H68808  11.138   2.565   6.485 -1.1285 -0.1045 -0.9421
  510MOL0     H68809  11.013   2.464   6.406 -0.1050  0.2265 -1.7193
  510MOL0     H68810  11.272   2.401   6.327 -0.4647  0.8355  0.1010
  510MOL0     H68811  11.427   2.334   6.181  1.8352 -0.6485  0.8447
  510MOL0     H68812  11.465   2.165   6.138  0.7490  0.8460 -0.0113
  510MOL0     H68813  11.324   2.239   6.061 -0.1414 -0.5626  0.5297
  510MOL0     H68814  11.254   1.576   6.101  3.0490 -0.9191 -1.7344
  510MOL0     H68815  11.444   1.419   6.124  0.6426 -0.5513  3.1141
  510MOL0     H68816  11.808   1.614   6.165 -2.1507 -0.5676 -0.4463
  510MOL0     H68817  11.846   1.532   6.310  1.4584  2.1947 -1.5167
  510MOL0     H68818  11.852   1.312   6.173  1.9064 -0.1991  0.5423
  510MOL0     H68819  11.876   1.410   6.028  1.6964 -1.4093 -0.5908
  510MOL0     H68820  12.076   1.328   6.175  0.2857 -0.0662 -2.0291
  510MOL0     H68821  12.046   1.482   6.260  1.8471 -2.7585  1.3847
  510MOL0     H68822  12.116   1.432   5.965 -2.3939  1.1611 -0.6039
  510MOL0     H68823  12.062   1.594   6.033 -1.5993 -0.4448  1.4201
  510MOL0     H68824  12.295   1.432   6.144  2.0164 -0.6160 -1.1528
  510MOL0     H68825  12.266   1.607   6.162 -0.5447  0.3166 -0.1253
  510MOL0     H68826  12.364   1.430   5.932 -4.0823 -3.2835  2.5837
  510MOL0     H68827  12.278   1.579   5.894 -3.1801 -1.3032  1.5691
  510MOL0     H68828  12.516   1.598   6.096  2.9481  0.2928 -0.4738
  510MOL0     H68829  12.453   1.718   5.982 -2.3374 -1.3776 -2.7386
  510MOL0     H68830  12.553   1.549   5.802  0.7356 -3.4658 -0.0940
  510MOL0     H68831  12.654   1.480   5.923  0.8937 -1.1502 -3.6534
  510MOL0     H68832  11.648   1.692   6.386 -0.9488 -1.6845  2.2358
  510MOL0     H68833  11.474   1.848   6.362  4.1261 -0.1232 -0.6042
  510MOL0     H68834  11.109   1.938   6.402  0.5638 -0.8020 -0.9636
  510MOL0     H68835  11.054   2.123   6.566  0.2627  0.4608  0.5118
  510MOL0     H68836  10.283   1.770   7.811  4.6767  1.7935 -3.6464
  510MOL0     H68837  10.054   1.720   7.851  2.5791  2.9342  0.5405
  510MOL0     H68838   9.672   1.475   7.589 -1.0685 -0.7379 -1.6957
  510MOL0     H68839   9.428   1.377   7.622  0.5184  1.1317 -2.5094
  510MOL0     H68840   9.158   1.607   7.850  2.3838 -1.3613 -0.9212
  510MOL0     H68841   9.104   1.636   7.684 -2.3827 -0.4551 -0.6769
  510MOL0     H68842   9.015   1.384   7.853 -2.6738 -4.7724 -2.9136
  510MOL0     H68843   9.002   1.407   7.688 -0.8739 -0.4915  1.5181
  510MOL0     H68844   8.804   1.460   7.823 -0.0539 -0.2971 -1.7871
  510MOL0     H68845   8.835   1.583   7.693 -0.9515  3.6906  2.0805
  510MOL0     H68846   8.889   1.745   7.808 -2.5750 -2.8669 -5.8340
  510MOL0     H68847   8.941   1.650   7.955  1.8031 -1.1858 -2.6304
  510MOL0     H68848   8.509   1.724   7.959  1.6423  1.0746  1.8697
  510MOL0     H68849   9.315   1.749   7.790  0.7404  0.7642  1.7734
  510MOL0     H68850   9.547   1.829   7.774  0.3187 -0.2200  1.8910
  511MOL0     O68851   0.014   8.848   4.252  0.6071  0.4259  0.1638
  511MOL0     C68852  -0.090   8.903   4.211 -0.2890  0.0838 -0.3103
  511MOL0     O68853  -0.150   8.893   4.081 -0.2384 -0.0839 -0.4208
  511MOL0     C68854  -0.074   8.820   3.989 -0.4276  0.1489 -0.8443
  511MOL0     C68855   0.011   8.892   3.897  0.3748 -0.6900 -0.7945
  511MOL0     C68856   0.091   8.832   3.790  0.1100 -0.7682 -0.8996
  511MOL0     C68857   0.093   8.693   3.772  0.3031 -0.1275  0.3295
  511MOL0     O68858   0.152   8.629   3.665  0.0526  0.0831 -0.8415
  511MOL0     C68859   0.221   8.721   3.572 -0.4866 -1.0594 -1.1981
  511MOL0     C68860   0.267   8.626   3.461  0.1703 -0.6485  0.0021
  511MOL0     C68861   0.161   8.550   3.391  0.0825 -0.9175 -0.5144
  511MOL0     C68862   0.217   8.487   3.269  0.4157  1.4606  0.5805
  511MOL0     C68863   0.098   8.408   3.213 -0.0765 -0.5476 -0.4322
  511MOL0     C68864  -0.003   8.481   3.129  0.1975 -0.3317  0.8986
  511MOL0     C68865  -0.112   8.376   3.073  0.4298 -0.1259  0.8356
  511MOL0     C68866  -0.235   8.450   3.021 -0.5372 -0.3249 -0.5895
  511MOL0     N68867  -0.345   8.364   2.987 -0.1800  0.0874 -0.1565
  511MOL0     C68868  -0.414   8.290   3.077  1.2229 -1.2592 -0.4386
  511MOL0     C68869  -0.515   8.241   3.004  0.2864  0.6353  0.0697
  511MOL0     C68870  -0.619   8.152   3.065 -0.2912 -0.4485  0.6341
  511MOL0     C68871  -0.739   8.240   3.093  0.0099 -0.1510  0.0727
  511MOL0     C68872  -0.836   8.184   3.200 -0.2484 -0.1151  0.4379
  511MOL0     C68873  -0.891   8.053   3.153  0.5642  0.7921 -0.9489
  511MOL0     O68874  -0.804   7.948   3.198 -0.7648  0.5188  0.3774
  511MOL0     C68875  -0.805   7.834   3.121 -0.7141  1.0024 -0.6914
  511MOL0     C68876  -0.701   7.741   3.162  0.6900  0.4293  0.3338
  511MOL0     C68877  -0.674   7.617   3.103  0.3242  0.4988 -1.1607
  511MOL0     C68878  -0.560   7.540   3.158  0.2163 -0.3327  0.3528
  511MOL0     C68879  -0.764   7.581   2.996 -0.1567 -0.2341 -0.4436
  511MOL0     C68880  -0.755   7.449   2.917 -0.0522 -0.7442 -0.5371
  511MOL0     O68881  -0.851   7.425   2.826 -0.3770  0.2975  0.1722
  511MOL0     C68882  -0.865   7.289   2.789  0.1510 -1.2033 -0.1456
  511MOL0     C68883  -0.969   7.210   2.834 -0.1073 -0.6617 -0.4713
  511MOL0     C68884  -0.970   7.074   2.788  0.1539 -0.3018 -0.0352
  511MOL0     C68885  -0.857   7.020   2.719  0.2755  0.5498 -0.1931
  511MOL0     O68886  -0.833   6.887   2.696  0.0825 -0.2393  0.2271
  511MOL0     C68887  -0.937   6.798   2.742  0.2269 -0.3210 -0.0247
  511MOL0     C68888  -0.926   6.751   2.891 -0.3971  0.7369 -0.4107
  511MOL0     C68889  -1.056   6.658   2.921 -0.0622  0.1056  0.1382
  511MOL0     C68890  -1.159   6.744   2.993 -0.8183 -0.6294 -0.2059
  511MOL0     C68891  -1.130   6.759   3.143  0.0490 -0.5226  0.0920
  511MOL0     C68892  -1.233   6.856   3.212  0.1440 -0.7440  0.2080
  511MOL0     C68893  -1.253   7.003   3.163 -0.0031 -0.0930  0.1229
  511MOL0     C68894  -1.152   7.089   3.222 -0.3016  0.1009 -0.1085
  511MOL0    Cl68895  -1.214   7.246   3.263 -0.2607 -0.3748  0.1894
  511MOL0     C68896  -0.755   7.102   2.681  0.0200 -0.2074  0.9989
  511MOL0     C68897  -0.772   7.234   2.708 -1.2160  0.0667 -0.1275
  511MOL0     O68898  -0.652   7.388   2.938  0.6585 -0.2426  0.3831
  511MOL0     C68899  -0.867   7.670   2.967  0.4304  0.6935  0.5031
  511MOL0     C68900  -0.893   7.789   3.037 -1.0384 -0.2357 -0.1752
  511MOL0     N68901  -0.507   8.285   2.875 -0.0878 -0.3088 -0.0136
  511MOL0     N68902  -0.407   8.373   2.866 -0.1545  0.6898 -0.3992
  511MOL0     C68903   0.013   8.620   3.863  0.0893  0.2874 -0.0060
  511MOL0     C68904  -0.072   8.683   3.961  0.5050 -0.0509  0.1593
  511MOL0     C68905  -0.153   8.995   4.316  0.0468 -0.6102  1.3362
  511MOL0     C68906  -0.277   9.063   4.300  0.3216  0.0072  0.0418
  511MOL0     C68907  -0.336   9.128   4.409  0.5364 -0.0225  0.5555
  511MOL0     C68908  -0.278   9.141   4.532 -0.8638  0.7357 -0.2507
  511MOL0     O68909  -0.331   9.223   4.630 -0.4030 -0.1409  0.0819
  511MOL0     C68910  -0.289   9.243   4.767  0.6220  0.3216  0.2317
  511MOL0     C68911  -0.383   9.148   4.853  0.5081 -1.2962 -0.2737
  511MOL0     C68912  -0.321   9.124   4.995 -0.5926  0.1571 -0.0501
  511MOL0     C68913  -0.417   9.067   5.099 -0.1541 -0.1793  0.1472
  511MOL0     C68914  -0.470   8.933   5.063 -0.5057 -0.6716 -0.0336
  511MOL0     C68915  -0.502   8.826   5.023  0.4307 -0.1117 -0.0521
  511MOL0     C68916  -0.151   9.087   4.539 -0.1619  0.1382 -0.1526
  511MOL0     C68917  -0.094   9.017   4.439 -0.6196  0.4622  0.5786
  511MOL0     H68918   0.019   9.000   3.906 -2.4802 -0.2944 -2.1019
  511MOL0     H68919   0.157   8.904   3.742  2.9760 -2.5858  0.0973
  511MOL0     H68920   0.150   8.794   3.532 -2.2390 -2.2645 -0.4567
  511MOL0     H68921   0.300   8.776   3.624 -0.8662 -2.5491  1.1069
  511MOL0     H68922   0.314   8.688   3.384 -0.7387 -2.2254 -1.9178
  511MOL0     H68923   0.347   8.559   3.492  2.0744  0.6380 -1.8434
  511MOL0     H68924   0.111   8.476   3.454  0.4275 -0.6055  0.1345
  511MOL0     H68925   0.083   8.620   3.359  0.6818 -0.4401 -0.9469
  511MOL0     H68926   0.256   8.561   3.199 -1.9803  3.8761  1.6284
  511MOL0     H68927   0.292   8.415   3.303 -1.7177  0.3160  3.2898
  511MOL0     H68928   0.157   8.336   3.156  2.0341  0.1660  0.7341
  511MOL0     H68929   0.045   8.356   3.294  1.2004  0.4419  1.0955
  511MOL0     H68930  -0.057   8.567   3.171 -3.8171 -0.6493 -2.9501
  511MOL0     H68931   0.048   8.518   3.039 -1.6246  0.1853  0.0394
  511MOL0     H68932  -0.064   8.320   2.992 -3.2502  0.8537 -2.2806
  511MOL0     H68933  -0.155   8.303   3.142 -5.0519 -0.1075 -2.0740
  511MOL0     H68934  -0.204   8.507   2.933  3.5253  0.6499  1.2483
  511MOL0     H68935  -0.271   8.529   3.088 -0.6339 -0.8231 -0.0510
  511MOL0     H68936  -0.397   8.281   3.184 -0.7527  3.1582  0.4396
  511MOL0     H68937  -0.652   8.075   2.995  1.7415  0.3592 -1.3595
  511MOL0     H68938  -0.574   8.095   3.148  1.8376 -2.0840 -1.5115
  511MOL0     H68939  -0.807   8.240   3.007 -0.7899 -0.2128  0.6916
  511MOL0     H68940  -0.710   8.344   3.110  0.7778  0.2270 -2.9184
  511MOL0     H68941  -0.918   8.251   3.227 -2.0532 -3.7509  5.7824
  511MOL0     H68942  -0.778   8.171   3.292  0.3796  1.3020  0.2675
  511MOL0     H68943  -0.914   8.063   3.046 -1.5307  3.3801 -0.3418
  511MOL0     H68944  -0.992   8.047   3.196  0.8561  0.8564 -0.2444
  511MOL0     H68945  -0.629   7.770   3.238  2.4693 -0.5388 -0.9173
  511MOL0     H68946  -0.549   7.565   3.264  0.1182 -2.4974  0.9220
  511MOL0     H68947  -0.570   7.431   3.162 -1.7734 -0.2440 -0.8652
  511MOL0     H68948  -0.469   7.570   3.104 -0.3918  2.4115  0.7092
  511MOL0     H68949  -1.044   7.243   2.904 -0.7966  2.3930 -2.4324
  511MOL0     H68950  -1.048   7.018   2.838 -0.2364  0.9301  0.7756
  511MOL0     H68951  -1.033   6.849   2.729  1.5080  2.3184  0.2687
  511MOL0     H68952  -0.941   6.718   2.668  0.2542 -0.5426  0.2138
  511MOL0     H68953  -0.838   6.688   2.907 -0.1713  0.1454 -3.3590
  511MOL0     H68954  -0.922   6.835   2.961 -0.0987 -0.6576  1.3141
  511MOL0     H68955  -1.026   6.567   2.973 -1.1080  0.0251  0.6260
  511MOL0     H68956  -1.101   6.616   2.831  0.0369  2.1593 -0.9373
  511MOL0     H68957  -1.152   6.842   2.945  1.7886 -0.4732  0.3425
  511MOL0     H68958  -1.261   6.706   2.980 -1.5873  1.3647 -0.3955
  511MOL0     H68959  -1.034   6.802   3.171  0.4083  1.2587 -3.3433
  511MOL0     H68960  -1.133   6.658   3.185 -1.0536 -2.0627 -3.3377
  511MOL0     H68961  -1.332   6.811   3.203 -0.6149  1.1289 -1.3780
  511MOL0     H68962  -1.211   6.844   3.318 -1.0543  1.0584  0.6913
  511MOL0     H68963  -1.347   7.037   3.210  1.0960  1.3280  1.4287
  511MOL0     H68964  -1.254   7.019   3.055 -0.5725  1.9811  0.3856
  511MOL0     H68965  -1.071   7.092   3.149 -1.2336 -2.3723 -1.3761
  511MOL0     H68966  -1.133   7.049   3.322 -0.0659  1.4290  0.4027
  511MOL0     H68967  -0.680   7.072   2.609 -0.6291  1.5297 -0.4807
  511MOL0     H68968  -0.693   7.308   2.695 -1.9334  0.8396 -0.2056
  511MOL0     H68969  -0.936   7.645   2.887 -0.8482  2.2205  1.0687
  511MOL0     H68970  -0.981   7.847   3.009 -2.1705 -0.8158  1.9204
  511MOL0     H68971  -0.009   8.514   3.848 -2.7359  0.2762  2.9496
  511MOL0     H68972  -0.133   8.616   4.020 -2.1836  1.0734 -1.1612
  511MOL0     H68973  -0.323   9.047   4.203  2.1241  0.8144 -1.0018
  511MOL0     H68974  -0.434   9.170   4.386 -0.2589 -2.3515 -0.6831
  511MOL0     H68975  -0.182   9.240   4.786  0.0959  0.6984  4.1441
  511MOL0     H68976  -0.325   9.345   4.789 -1.2906  0.3418 -2.4090
  511MOL0     H68977  -0.404   9.052   4.805 -3.4935 -0.9213  0.4329
  511MOL0     H68978  -0.483   9.190   4.857 -0.3516 -3.2469  0.0760
  511MOL0     H68979  -0.291   9.225   5.028 -0.0289  0.4187 -1.2998
  511MOL0     H68980  -0.231   9.062   4.986 -0.7334 -0.4524  2.2942
  511MOL0     H68981  -0.507   9.128   5.109 -2.5659 -3.3760 -0.1655
  511MOL0     H68982  -0.362   9.066   5.193  2.9646 -0.0451 -1.5346
  511MOL0     H68983  -0.552   8.735   4.996 -2.4829  0.9953  1.1546
  511MOL0     H68984  -0.098   9.091   4.634  1.2689  0.2639 -0.9431
  511MOL0     H68985   0.003   8.970   4.444 -1.3464 -0.9176  2.3998
  512MOL0     O68986   5.055  10.763   3.475  0.0298 -0.1168  0.5953
  512MOL0     C68987   5.129  10.699   3.546  0.1044 -0.0109 -0.4250
  512MOL0     O68988   5.108  10.577   3.592 -0.6465  0.1449 -0.3838
  512MOL0     C68989   4.990  10.518   3.561  0.1835  0.2976  0.4826
  512MOL0     C68990   4.870  10.578   3.617  0.7408  0.5669  0.2521
  512MOL0     C68991   4.752  10.509   3.604 -0.5696 -0.7307 -0.0207
  512MOL0     C68992   4.761  10.373   3.553 -0.5070 -1.0005 -0.1524
  512MOL0     O68993   4.656  10.290   3.543 -0.0089 -0.1550 -0.1288
  512MOL0     C68994   4.528  10.341   3.592  0.8964  0.2499 -0.2292
  512MOL0     C68995   4.427  10.235   3.570  0.8260  0.1787  1.3725
  512MOL0     C68996   4.291  10.284   3.617  0.9153 -0.0147 -0.4595
  512MOL0     C68997   4.186  10.178   3.683 -0.0729  0.7577 -0.0617
  512MOL0     C68998   4.050  10.245   3.713  0.3786  0.6575 -0.1123
  512MOL0     C68999   3.952  10.144   3.793  0.7721  0.1413 -0.1056
  512MOL0     C69000   3.808  10.175   3.781 -0.2551  0.5685  1.0446
  512MOL0     C69001   3.747  10.310   3.825 -0.0484 -0.2748  0.0035
  512MOL0     N69002   3.612  10.317   3.759  0.1055 -0.0984  0.5032
  512MOL0     C69003   3.517  10.250   3.822  0.5376  0.4962 -0.0491
  512MOL0     C69004   3.408  10.315   3.801  1.4218  0.4438  0.3384
  512MOL0     C69005   3.262  10.283   3.849 -0.1926  1.1203  0.3439
  512MOL0     C69006   3.159  10.371   3.787 -0.1737  0.1927  0.4681
  512MOL0     C69007   3.019  10.315   3.819  1.0511  0.4762 -0.0266
  512MOL0     C69008   2.905  10.402   3.793  0.7685  0.3605  0.5508
  512MOL0     O69009   2.786  10.330   3.830 -0.7059  0.4153  0.1972
  512MOL0     C69010   2.686  10.392   3.906 -0.1858  0.6701 -0.6230
  512MOL0     C69011   2.586  10.316   3.967  0.3419 -0.3967 -0.0792
  512MOL0     C69012   2.488  10.368   4.058  0.2626 -0.3889 -0.1770
  512MOL0     C69013   2.392  10.269   4.126 -0.9901  0.0420 -0.7631
  512MOL0     C69014   2.475  10.509   4.065 -0.9765 -0.9877 -0.3048
  512MOL0     C69015   2.386  10.579   4.160 -0.1547 -0.3036  0.0760
  512MOL0     O69016   2.384  10.720   4.169 -0.4508  0.1937 -0.2122
  512MOL0     C69017   2.281  10.772   4.235 -0.3614  0.2165  0.9424
  512MOL0     C69018   2.311  10.873   4.329  0.8604  0.0201  0.6477
  512MOL0     C69019   2.215  10.932   4.408  0.1904 -0.7256 -0.1594
  512MOL0     C69020   2.076  10.904   4.375  0.0577  0.1416  0.3968
  512MOL0     O69021   1.969  10.968   4.432  0.0647  0.1369 -0.5558
  512MOL0     C69022   1.994  11.069   4.530 -0.5441  0.9148  0.1128
  512MOL0     C69023   1.858  11.090   4.594 -0.7440 -0.4507  0.2341
  512MOL0     C69024   1.753  11.159   4.511 -0.4481  0.5803  0.6852
  512MOL0     C69025   1.796  11.301   4.463  0.8667  0.3770  0.4227
  512MOL0     C69026   1.679  11.357   4.376 -0.2784 -0.9186 -0.0275
  512MOL0     C69027   1.728  11.478   4.284 -0.5080  0.6515 -0.5485
  512MOL0     C69028   1.613  11.533   4.194 -0.2311 -0.8664 -1.1469
  512MOL0     C69029   1.496  11.618   4.262  0.0038  0.0018  0.3344
  512MOL0    Cl69030   1.400  11.719   4.146 -0.3887 -0.0591  0.3933
  512MOL0     C69031   2.043  10.810   4.277  1.1346  0.2377  0.6145
  512MOL0     C69032   2.138  10.736   4.218 -0.6974 -0.8676  0.4661
  512MOL0     O69033   2.313  10.508   4.223  0.0623  0.0850  0.3009
  512MOL0     C69034   2.575  10.587   4.001  0.4639 -0.3545 -0.8009
  512MOL0     C69035   2.674  10.532   3.918 -0.4754  0.5036 -0.4109
  512MOL0     N69036   3.437  10.436   3.737 -0.3718 -0.3742 -0.6687
  512MOL0     N69037   3.562  10.435   3.704  0.3430  0.4209  0.4110
  512MOL0     C69038   4.881  10.322   3.498  0.1478  0.1478  0.6316
  512MOL0     C69039   5.000  10.394   3.507 -0.1290 -0.1575 -0.2653
  512MOL0     C69040   5.258  10.767   3.556  0.3140 -0.5234 -0.5342
  512MOL0     C69041   5.266  10.909   3.576  0.4574 -0.8207  0.8061
  512MOL0     C69042   5.385  10.970   3.612 -0.2830 -0.5527  0.3352
  512MOL0     C69043   5.502  10.894   3.618 -0.7966  0.3320 -0.0677
  512MOL0     O69044   5.633  10.941   3.630  0.6226 -0.9353 -0.1442
  512MOL0     C69045   5.653  11.085   3.645 -0.4247  0.3745  0.6388
  512MOL0     C69046   5.796  11.147   3.631  0.9999 -0.0277 -0.1261
  512MOL0     C69047   5.889  11.102   3.742  0.2450 -1.5178  0.0699
  512MOL0     C69048   6.021  11.190   3.748  0.1511 -0.3550 -0.1920
  512MOL0     C69049   6.101  11.156   3.633 -0.7790 -0.1638  0.2250
  512MOL0     C69050   6.161  11.107   3.535  0.4768 -0.4688  0.4895
  512MOL0     C69051   5.496  10.753   3.612 -0.2236 -0.3469  0.5686
  512MOL0     C69052   5.372  10.693   3.585  1.1263  0.9698  0.1695
  512MOL0     H69053   4.861  10.679   3.657 -0.3166  0.8759 -0.7110
  512MOL0     H69054   4.657  10.554   3.629  0.1541 -0.0132  1.6300
  512MOL0     H69055   4.539  10.354   3.700  1.9779 -0.3985 -0.2482
  512MOL0     H69056   4.504  10.433   3.538  0.0448  0.1460 -0.0393
  512MOL0     H69057   4.420  10.203   3.465  0.3548  2.2002  0.7606
  512MOL0     H69058   4.457  10.147   3.628  0.0871 -0.7487  0.3931
  512MOL0     H69059   4.299  10.369   3.685 -0.7273 -0.5545  0.4757
  512MOL0     H69060   4.236  10.319   3.529 -1.9317 -2.2297  0.2695
  512MOL0     H69061   4.168  10.097   3.612  2.9124  1.8043 -2.2426
  512MOL0     H69062   4.239  10.146   3.773 -1.4585  0.0181  0.5074
  512MOL0     H69063   4.062  10.329   3.782  1.1372 -0.2653  0.9298
  512MOL0     H69064   4.002  10.278   3.621  1.3792 -0.3442 -1.0256
  512MOL0     H69065   3.962  10.050   3.738  1.3176 -0.6343  1.2595
  512MOL0     H69066   3.990  10.133   3.895  1.6824  2.7146 -0.0884
  512MOL0     H69067   3.780  10.159   3.676 -0.5586  2.9059  0.7133
  512MOL0     H69068   3.744  10.101   3.830 -0.9885 -0.5794 -1.4964
  512MOL0     H69069   3.813  10.392   3.794  3.1568 -1.3145  3.3270
  512MOL0     H69070   3.732  10.319   3.933  0.1678 -0.7316  0.0725
  512MOL0     H69071   3.520  10.149   3.861  1.9404  1.2034  1.7932
  512MOL0     H69072   3.250  10.181   3.813 -0.5447  1.0192  0.7459
  512MOL0     H69073   3.254  10.283   3.958 -3.0954  1.0056  0.1923
  512MOL0     H69074   3.179  10.375   3.680  0.8813  0.2836  0.6596
  512MOL0     H69075   3.160  10.476   3.819 -3.5147  1.0660 -1.7709
  512MOL0     H69076   3.013  10.269   3.918 -1.3518  1.2659  0.2539
  512MOL0     H69077   3.006  10.231   3.751  1.5975 -0.2217  0.7049
  512MOL0     H69078   2.888  10.441   3.692 -1.3439 -0.6990  0.4315
  512MOL0     H69079   2.906  10.494   3.853  0.3399  0.3722  0.5469
  512MOL0     H69080   2.591  10.208   3.957 -1.1817 -0.6811  1.6446
  512MOL0     H69081   2.400  10.285   4.233 -0.2892  2.2103 -1.1014
  512MOL0     H69082   2.292  10.285   4.087 -1.5817 -0.3652  0.5455
  512MOL0     H69083   2.427  10.168   4.101  0.9069  0.9236 -2.0037
  512MOL0     H69084   2.415  10.906   4.333 -0.0521  3.6229 -1.3383
  512MOL0     H69085   2.236  11.013   4.478 -1.2265  0.6296 -1.2338
  512MOL0     H69086   2.053  11.026   4.611  0.5043 -1.1364 -1.6443
  512MOL0     H69087   2.054  11.147   4.484 -0.9229  0.6848 -0.7870
  512MOL0     H69088   1.813  11.000   4.635 -3.4427  0.0541 -1.3551
  512MOL0     H69089   1.889  11.141   4.686  1.9553 -2.3808  0.5098
  512MOL0     H69090   1.659  11.169   4.566 -0.8451 -1.6113  0.4976
  512MOL0     H69091   1.731  11.101   4.421 -0.9355  2.6362 -0.5727
  512MOL0     H69092   1.815  11.360   4.553 -0.1414  0.3896  0.6368
  512MOL0     H69093   1.879  11.306   4.392 -1.1732  0.2629 -2.1228
  512MOL0     H69094   1.587  11.394   4.423 -0.6314  3.7412 -3.5975
  512MOL0     H69095   1.635  11.282   4.308 -2.7188  1.3421 -1.1259
  512MOL0     H69096   1.768  11.559   4.345 -1.4694  0.9747 -0.3321
  512MOL0     H69097   1.805  11.436   4.218  1.2244  0.4555  1.4957
  512MOL0     H69098   1.570  11.447   4.142 -0.9180 -1.3071  0.1246
  512MOL0     H69099   1.655  11.598   4.117 -1.3571 -0.3521 -1.3431
  512MOL0     H69100   1.531  11.679   4.346 -0.5655  0.4192  0.2762
  512MOL0     H69101   1.418  11.548   4.294  1.8528 -2.6759 -0.6426
  512MOL0     H69102   1.936  10.796   4.268  0.6290  3.7921 -0.3518
  512MOL0     H69103   2.117  10.649   4.155  1.2720 -0.7242 -0.4705
  512MOL0     H69104   2.567  10.694   4.014 -1.5147 -0.3594 -1.6017
  512MOL0     H69105   2.745  10.599   3.872 -1.2153  2.8041  1.6143
  512MOL0     H69106   4.877  10.235   3.433 -4.5115 -1.2478  2.3432
  512MOL0     H69107   5.095  10.355   3.472  0.5585  2.3077 -1.3041
  512MOL0     H69108   5.181  10.977   3.574  1.8103  0.9431 -0.8152
  512MOL0     H69109   5.390  11.078   3.615  0.0415 -0.5727  0.5426
  512MOL0     H69110   5.586  11.133   3.572 -0.0566  2.9043  1.8276
  512MOL0     H69111   5.609  11.109   3.742 -0.7789 -1.3747  0.9312
  512MOL0     H69112   5.775  11.254   3.643 -0.1465 -0.3104  0.6524
  512MOL0     H69113   5.837  11.132   3.531 -1.2605 -2.0411 -0.8468
  512MOL0     H69114   5.907  10.995   3.728  1.8362 -1.2528 -0.0685
  512MOL0     H69115   5.846  11.120   3.841 -2.5782  0.0034 -1.3060
  512MOL0     H69116   6.073  11.167   3.841  0.5914  1.0299 -0.0739
  512MOL0     H69117   6.003  11.298   3.753 -3.5388 -0.8819  3.2257
  512MOL0     H69118   6.201  11.063   3.446 -1.7851 -2.0830  0.1827
  512MOL0     H69119   5.587  10.697   3.632  0.6680  1.2837  1.2714
  512MOL0     H69120   5.368  10.585   3.572 -1.9677  1.0909 -0.5709
  513MOL0     O69121   0.292   7.477   4.781 -0.1259  1.1607  0.2664
  513MOL0     C69122   0.358   7.381   4.834 -0.5192  0.0354  0.1960
  513MOL0     O69123   0.491   7.360   4.813  0.0238  0.4994  0.7995
  513MOL0     C69124   0.548   7.388   4.689  0.4753 -1.2087  0.8529
  513MOL0     C69125   0.692   7.385   4.690 -0.4174  0.5547  0.2168
  513MOL0     C69126   0.776   7.405   4.584  0.5491 -0.0337  0.5468
  513MOL0     C69127   0.716   7.425   4.458  0.1140 -0.8243 -0.4833
  513MOL0     O69128   0.795   7.462   4.353 -0.1668  0.5900 -0.1214
  513MOL0     C69129   0.877   7.347   4.306 -0.2362 -0.4762 -0.0556
  513MOL0     C69130   0.930   7.378   4.163 -0.2475 -0.1491  0.6565
  513MOL0     C69131   1.054   7.476   4.168 -0.0326  0.8014  0.1464
  513MOL0     C69132   1.127   7.475   4.028 -0.0957 -0.6805  0.3760
  513MOL0     C69133   1.253   7.560   4.039  0.2621  0.9806 -0.3255
  513MOL0     C69134   1.361   7.480   4.102 -0.4266 -0.3424  0.3284
  513MOL0     C69135   1.493   7.554   4.106 -0.2698 -0.0478 -1.1176
  513MOL0     C69136   1.492   7.686   4.194 -0.1417  0.2274 -0.1583
  513MOL0     N69137   1.609   7.768   4.182  0.6957 -0.2673  0.3143
  513MOL0     C69138   1.732   7.729   4.205 -0.9455  0.5291 -0.0037
  513MOL0     C69139   1.800   7.842   4.198 -0.8521 -0.3425 -0.4305
  513MOL0     C69140   1.953   7.875   4.242  0.0749 -0.0285  0.3993
  513MOL0     C69141   1.954   7.901   4.389  0.0263 -0.5947  0.4247
  513MOL0     C69142   1.963   7.772   4.480  0.3172 -0.5476  0.2202
  513MOL0     C69143   2.103   7.718   4.457 -0.0758 -0.1032  0.7998
  513MOL0     O69144   2.210   7.803   4.466  0.1279 -0.6201 -0.0035
  513MOL0     C69145   2.241   7.857   4.593  0.9084  0.4044 -0.6866
  513MOL0     C69146   2.265   7.777   4.705  0.0184  0.4462  0.0988
  513MOL0     C69147   2.295   7.831   4.833 -0.2894 -0.3522  0.5653
  513MOL0     C69148   2.309   7.743   4.951 -0.6192 -0.3329  0.2244
  513MOL0     C69149   2.305   7.979   4.840  0.1563  0.0394  0.4387
  513MOL0     C69150   2.332   8.060   4.966 -0.1239  0.3633  0.3666
  513MOL0     O69151   2.370   8.192   4.957 -0.3693 -0.2283 -0.5779
  513MOL0     C69152   2.403   8.266   5.065 -0.4027  0.0151 -0.3735
  513MOL0     C69153   2.328   8.277   5.179  0.1865 -1.0059 -0.2594
  513MOL0     C69154   2.353   8.371   5.282  0.8924  0.0275  0.1280
  513MOL0     C69155   2.452   8.471   5.267 -0.3183 -0.1248  0.2716
  513MOL0     O69156   2.484   8.545   5.383  0.1288  0.3411 -0.2660
  513MOL0     C69157   2.558   8.660   5.357  0.4222 -0.0503  0.4571
  513MOL0     C69158   2.568   8.749   5.477 -0.0522 -0.1563  0.2825
  513MOL0     C69159   2.680   8.855   5.461 -0.1467 -0.2496 -1.0850
  513MOL0     C69160   2.627   8.975   5.388 -0.2466 -1.4607 -0.4776
  513MOL0     C69161   2.724   9.098   5.406  0.3625 -0.2115 -0.4075
  513MOL0     C69162   2.692   9.194   5.523  0.4412 -0.0338 -0.1026
  513MOL0     C69163   2.705   9.130   5.664 -0.2190  1.4360 -0.6336
  513MOL0     C69164   2.691   9.239   5.781 -0.1188  0.6362  0.4807
  513MOL0    Cl69165   2.508   9.264   5.803  0.5258  0.0565 -0.4553
  513MOL0     C69166   2.538   8.451   5.152 -0.1705 -0.0099  0.5852
  513MOL0     C69167   2.518   8.348   5.055 -0.3600  1.1679 -0.3853
  513MOL0     O69168   2.325   8.006   5.069 -0.3153 -0.2792 -0.5515
  513MOL0     C69169   2.280   8.051   4.723  0.5186  0.0122 -0.6848
  513MOL0     C69170   2.251   7.998   4.595  0.4690  0.1646 -0.6297
  513MOL0     N69171   1.717   7.951   4.169 -0.5443 -0.3037  0.0068
  513MOL0     N69172   1.599   7.908   4.166 -0.3138  0.2568  0.3409
  513MOL0     C69173   0.576   7.433   4.449  0.8673 -0.1023  0.4254
  513MOL0     C69174   0.493   7.417   4.560  1.1803 -0.0214 -0.1396
  513MOL0     C69175   0.303   7.320   4.956 -0.4438  0.3628 -0.7921
  513MOL0     C69176   0.372   7.259   5.058 -0.7144 -0.0502  0.2667
  513MOL0     C69177   0.325   7.214   5.177  0.1225  0.4398 -0.0430
  513MOL0     C69178   0.182   7.227   5.193  0.6275 -0.0645  0.5597
  513MOL0     O69179   0.122   7.184   5.308 -0.5618  0.5853 -0.2633
  513MOL0     C69180  -0.022   7.176   5.313 -0.4811 -1.0828 -0.2348
  513MOL0     C69181  -0.066   7.086   5.430 -0.2971 -1.2477 -0.1337
  513MOL0     C69182  -0.065   6.942   5.379  0.5675 -0.5425  0.0274
  513MOL0     C69183  -0.122   6.861   5.488 -0.2436 -0.4965  0.0826
  513MOL0     C69184  -0.274   6.851   5.486 -0.6311  0.5778 -0.0253
  513MOL0     C69185  -0.393   6.839   5.497  0.0391 -0.8993 -0.3407
  513MOL0     C69186   0.101   7.280   5.086 -0.1755 -0.4102 -0.2111
  513MOL0     C69187   0.169   7.334   4.984 -0.4943 -1.0152 -0.3175
  513MOL0     H69188   0.729   7.362   4.790 -2.4898 -2.0189  0.5220
  513MOL0     H69189   0.883   7.392   4.598  0.4661 -0.8980  0.4085
  513MOL0     H69190   0.955   7.342   4.383 -0.4190  0.3068  0.1875
  513MOL0     H69191   0.820   7.254   4.310  1.2696 -1.4078  0.3992
  513MOL0     H69192   0.961   7.278   4.133 -1.5669 -0.6924  1.0394
  513MOL0     H69193   0.860   7.407   4.084  0.6621 -2.1967 -1.0000
  513MOL0     H69194   1.016   7.575   4.193  0.5081  1.1942 -0.5519
  513MOL0     H69195   1.121   7.454   4.252  0.8776 -1.3929 -1.0706
  513MOL0     H69196   1.139   7.381   3.974 -2.5874  0.2533 -2.0484
  513MOL0     H69197   1.069   7.543   3.965  2.1197 -1.0441 -2.2221
  513MOL0     H69198   1.280   7.600   3.941 -2.0316  0.8053 -1.1043
  513MOL0     H69199   1.241   7.651   4.100  0.9436  0.8443  0.0153
  513MOL0     H69200   1.330   7.443   4.200  1.5348 -0.9942  0.7579
  513MOL0     H69201   1.378   7.386   4.048 -0.2083 -2.8767  4.3764
  513MOL0     H69202   1.578   7.494   4.139 -0.7740 -0.5688 -0.7553
  513MOL0     H69203   1.521   7.580   4.004  3.5314  0.0530 -0.1928
  513MOL0     H69204   1.464   7.653   4.294  0.6613 -3.0681 -0.8916
  513MOL0     H69205   1.406   7.750   4.170 -1.0041 -1.6122 -2.4795
  513MOL0     H69206   1.759   7.634   4.250 -1.1835 -0.2280 -1.4021
  513MOL0     H69207   2.016   7.789   4.218 -0.0457  0.2589 -1.0187
  513MOL0     H69208   1.977   7.966   4.188 -0.3531 -0.0627  0.1425
  513MOL0     H69209   1.861   7.957   4.403  1.1647  0.7447  3.4385
  513MOL0     H69210   2.033   7.968   4.424 -0.6971  0.2980  0.3851
  513MOL0     H69211   1.883   7.702   4.452  0.8416 -1.4473  0.9259
  513MOL0     H69212   1.951   7.785   4.588 -2.7555  1.1885 -0.2189
  513MOL0     H69213   2.109   7.697   4.350 -2.9002 -1.5108  0.8201
  513MOL0     H69214   2.117   7.627   4.516  1.0581  0.4704  1.4477
  513MOL0     H69215   2.257   7.669   4.698  0.6666  0.3684  0.5282
  513MOL0     H69216   2.407   7.751   5.000  0.4750  0.8407 -1.9505
  513MOL0     H69217   2.237   7.770   5.028  1.3348  2.6248  1.2204
  513MOL0     H69218   2.301   7.636   4.928 -0.9013 -0.5132  1.1444
  513MOL0     H69219   2.241   8.212   5.190 -1.7730  1.5933  0.6449
  513MOL0     H69220   2.292   8.371   5.372  1.0988 -1.4645  0.2898
  513MOL0     H69221   2.655   8.620   5.325 -0.0351 -0.9055  0.1097
  513MOL0     H69222   2.516   8.717   5.274 -0.2853 -2.6420 -1.0842
  513MOL0     H69223   2.471   8.788   5.511 -0.6420 -3.4608  2.9580
  513MOL0     H69224   2.590   8.684   5.563  0.9263  0.7150  0.7171
  513MOL0     H69225   2.767   8.826   5.402 -1.4488 -0.8817 -2.7744
  513MOL0     H69226   2.711   8.881   5.562 -0.7787 -3.6151  0.0868
  513MOL0     H69227   2.640   8.945   5.284 -0.3275 -0.6164 -0.7419
  513MOL0     H69228   2.522   8.994   5.414 -0.2414 -3.7910  1.6129
  513MOL0     H69229   2.746   9.151   5.313  1.6990  3.8897  1.9205
  513MOL0     H69230   2.827   9.069   5.429 -0.4054 -0.3621  3.5995
  513MOL0     H69231   2.741   9.290   5.507  0.3414  0.5612  2.6595
  513MOL0     H69232   2.586   9.221   5.514  0.7155  2.0788  2.0935
  513MOL0     H69233   2.804   9.087   5.683 -1.7731 -1.5631  1.5437
  513MOL0     H69234   2.626   9.055   5.674  0.0561  1.2767  0.4960
  513MOL0     H69235   2.736   9.336   5.755  1.0399 -0.3991 -1.6738
  513MOL0     H69236   2.740   9.203   5.871  1.9148  0.0779 -0.7925
  513MOL0     H69237   2.624   8.516   5.138 -1.4567  1.3672 -1.3809
  513MOL0     H69238   2.596   8.319   4.985  0.6644 -0.5221  1.3551
  513MOL0     H69239   2.283   8.157   4.744  1.0895 -0.1025 -0.1385
  513MOL0     H69240   2.228   8.063   4.510 -0.7202  1.9831  0.9847
  513MOL0     H69241   0.529   7.451   4.353 -1.4997  0.1938  1.5499
  513MOL0     H69242   0.386   7.417   4.542  0.5296 -4.1459  2.4567
  513MOL0     H69243   0.472   7.232   5.026 -1.3089 -1.9677 -0.1254
  513MOL0     H69244   0.391   7.181   5.255 -1.3222  2.1262  2.0193
  513MOL0     H69245  -0.068   7.273   5.335 -0.9248 -0.3756 -3.6918
  513MOL0     H69246  -0.062   7.135   5.220 -0.1477  3.5866 -2.7832
  513MOL0     H69247  -0.154   7.119   5.485 -0.4023 -0.8452 -0.5383
  513MOL0     H69248   0.012   7.098   5.505  0.0150 -1.4927 -0.4151
  513MOL0     H69249   0.034   6.918   5.341  0.6586  1.6524 -1.3264
  513MOL0     H69250  -0.119   6.935   5.284  1.9732 -1.4988 -0.7262
  513MOL0     H69251  -0.086   6.890   5.587 -0.1059 -0.5609  0.0518
  513MOL0     H69252  -0.088   6.759   5.465  2.3727 -0.5137  3.3657
  513MOL0     H69253  -0.500   6.828   5.499  0.1725 -3.0084  3.4828
  513MOL0     H69254  -0.005   7.301   5.091 -0.1733 -0.5528  0.4300
  513MOL0     H69255   0.108   7.393   4.916 -1.3946 -1.1295  0.3863
  514MOL0     O69256   3.235   0.651   6.760  0.4348 -0.0417 -0.4708
  514MOL0     C69257   3.144   0.636   6.679  0.4414 -1.3237 -0.5331
  514MOL0     O69258   3.145   0.561   6.560  0.1142  0.3722  0.2755
  514MOL0     C69259   3.272   0.514   6.523  0.0011 -0.6605  0.4263
  514MOL0     C69260   3.385   0.604   6.492 -0.7112  1.2830 -0.0119
  514MOL0     C69261   3.500   0.558   6.436 -0.2928 -0.1998 -0.2850
  514MOL0     C69262   3.522   0.427   6.398 -0.2560  0.2731  0.0439
  514MOL0     O69263   3.634   0.398   6.336 -0.7144  0.0902  0.7044
  514MOL0     C69264   3.741   0.371   6.425 -1.3155 -0.5494 -0.2426
  514MOL0     C69265   3.862   0.389   6.335 -0.0345 -0.5889  1.1800
  514MOL0     C69266   3.922   0.535   6.326  0.9589 -0.4332 -0.6233
  514MOL0     C69267   3.855   0.611   6.207 -0.1661 -0.8329  0.3629
  514MOL0     C69268   3.868   0.761   6.249  0.3624 -0.5852  0.4637
  514MOL0     C69269   3.814   0.868   6.156 -0.2204  0.1232 -0.4295
  514MOL0     C69270   3.863   1.007   6.200 -0.1196 -0.5758  0.5581
  514MOL0     C69271   4.008   1.036   6.230 -0.8141  0.4886 -0.6703
  514MOL0     N69272   4.104   1.007   6.118  0.2599  1.0128 -0.3282
  514MOL0     C69273   4.090   1.052   5.989 -0.4669 -0.4931  0.0272
  514MOL0     C69274   4.193   0.993   5.914 -0.2220 -0.1632  1.0610
  514MOL0     C69275   4.229   1.014   5.771 -0.2350 -0.2893 -0.5282
  514MOL0     C69276   4.359   1.082   5.770 -0.2645 -0.3580 -0.2233
  514MOL0     C69277   4.413   1.088   5.623  0.3241  0.1238 -0.5598
  514MOL0     C69278   4.522   1.189   5.602 -0.3361  0.1269 -0.8700
  514MOL0     O69279   4.490   1.320   5.654 -0.8180  0.6460 -0.7171
  514MOL0     C69280   4.553   1.430   5.590 -0.9728  0.6803  0.2476
  514MOL0     C69281   4.698   1.440   5.563 -1.5334 -0.0831 -0.5201
  514MOL0     C69282   4.755   1.556   5.508 -0.1879 -0.4634  0.0508
  514MOL0     C69283   4.908   1.559   5.515  0.3599 -0.3205  0.4002
  514MOL0     C69284   4.664   1.656   5.453 -0.5345 -0.9591  1.0657
  514MOL0     C69285   4.718   1.775   5.383 -0.2963 -0.1637 -0.5691
  514MOL0     O69286   4.631   1.850   5.307  0.1629 -0.6090 -0.9511
  514MOL0     C69287   4.660   1.978   5.250  0.3116  0.2500 -1.0736
  514MOL0     C69288   4.557   2.069   5.244  0.0861 -0.4788 -0.0497
  514MOL0     C69289   4.593   2.203   5.200 -0.3321  0.3753  0.4332
  514MOL0     C69290   4.717   2.242   5.169 -0.4436 -0.4139 -0.1254
  514MOL0     O69291   4.732   2.371   5.131  0.7812 -1.2098 -0.2324
  514MOL0     C69292   4.862   2.435   5.099  0.5129 -0.2597  0.2943
  514MOL0     C69293   4.834   2.588   5.080  0.6091  0.6326  0.7468
  514MOL0     C69294   4.776   2.597   4.937  0.4326  1.1748  0.0536
  514MOL0     C69295   4.717   2.735   4.918  0.1143 -0.1769  0.1253
  514MOL0     C69296   4.616   2.761   4.808  0.3687  0.4142  0.5221
  514MOL0     C69297   4.596   2.914   4.783  1.2751  0.9402 -0.4392
  514MOL0     C69298   4.446   2.958   4.753 -0.2050  0.3851 -0.2716
  514MOL0     C69299   4.466   3.037   4.623  0.7033  0.7352  0.5839
  514MOL0    Cl69300   4.542   3.194   4.658  0.0783 -0.3368  0.0936
  514MOL0     C69301   4.820   2.145   5.173  0.5844 -0.2337  0.9641
  514MOL0     C69302   4.789   2.009   5.207 -0.2800  0.2154 -0.1872
  514MOL0     O69303   4.825   1.812   5.421 -0.1257  0.0984  0.3265
  514MOL0     C69304   4.529   1.640   5.463  0.0001 -0.7121 -0.8552
  514MOL0     C69305   4.481   1.528   5.530 -0.0478 -0.1873  0.9843
  514MOL0     N69306   4.260   0.905   5.993 -0.2312 -0.1668 -0.2340
  514MOL0     N69307   4.199   0.914   6.115 -0.1676  0.4291  0.5129
  514MOL0     C69308   3.415   0.332   6.432 -1.4580  0.8350  0.6313
  514MOL0     C69309   3.293   0.376   6.493 -0.1506 -0.3736  0.6541
  514MOL0     C69310   3.013   0.706   6.698 -1.0198  0.1518 -0.1782
  514MOL0     C69311   2.909   0.700   6.604  0.1022 -0.3475 -0.2435
  514MOL0     C69312   2.785   0.757   6.637  0.2801 -0.3994  0.1777
  514MOL0     C69313   2.768   0.824   6.756  0.7194  0.1342  0.3811
  514MOL0     O69314   2.646   0.885   6.761 -0.2011 -0.6101  0.0360
  514MOL0     C69315   2.601   0.944   6.889 -0.3293 -0.1006 -0.3896
  514MOL0     C69316   2.575   0.833   7.006 -0.2895 -0.0499  0.4712
  514MOL0     C69317   2.505   0.712   6.945 -0.2929 -0.0767  0.1897
  514MOL0     C69318   2.418   0.643   7.051 -0.7525  0.4746  0.6441
  514MOL0     C69319   2.310   0.729   7.095  0.1723 -0.7548 -0.1693
  514MOL0     C69320   2.213   0.797   7.116 -0.3013  0.6299  0.2787
  514MOL0     C69321   2.870   0.838   6.846 -0.0066  0.5939  0.1855
  514MOL0     C69322   2.996   0.780   6.812  0.8586 -0.1631 -0.9481
  514MOL0     H69323   3.382   0.710   6.514 -0.1540  1.7068 -1.8178
  514MOL0     H69324   3.580   0.629   6.419  1.3192 -1.4610  1.5635
  514MOL0     H69325   3.757   0.444   6.506  0.7114 -1.7467  0.4894
  514MOL0     H69326   3.733   0.274   6.474  0.1183 -0.2997  0.5594
  514MOL0     H69327   3.933   0.327   6.390 -2.3485 -4.6527 -0.0381
  514MOL0     H69328   3.861   0.342   6.236  0.3543  0.7983  0.4844
  514MOL0     H69329   3.921   0.583   6.424  2.8658 -0.7608 -0.4072
  514MOL0     H69330   4.027   0.525   6.295  1.8428 -1.5086  2.4173
  514MOL0     H69331   3.902   0.584   6.112 -0.0020 -0.2186  0.2669
  514MOL0     H69332   3.749   0.589   6.192 -0.3926  1.0599 -1.1810
  514MOL0     H69333   3.825   0.771   6.349  0.0158 -3.8708  0.7550
  514MOL0     H69334   3.975   0.781   6.251  0.5642 -1.0776 -1.9358
  514MOL0     H69335   3.834   0.849   6.050 -2.0862  0.7528 -0.9263
  514MOL0     H69336   3.705   0.873   6.160 -0.1902  0.4491  0.1279
  514MOL0     H69337   3.840   1.079   6.120  0.3787 -0.5408  0.4419
  514MOL0     H69338   3.816   1.048   6.290  0.9807  3.5019 -0.5344
  514MOL0     H69339   4.034   0.975   6.318 -1.1660  0.6922 -0.4222
  514MOL0     H69340   4.018   1.141   6.258  2.7639  0.0335  0.2457
  514MOL0     H69341   4.007   1.105   5.944 -2.7957 -4.0712 -0.2293
  514MOL0     H69342   4.238   0.912   5.733  0.7211 -1.4187  2.5052
  514MOL0     H69343   4.164   1.082   5.714 -0.6314  1.0431  1.3994
  514MOL0     H69344   4.430   1.029   5.834 -1.1772  1.7882  2.8109
  514MOL0     H69345   4.363   1.186   5.806  0.1824 -0.5991  0.4304
  514MOL0     H69346   4.324   1.109   5.563 -0.8795 -0.4749  0.9534
  514MOL0     H69347   4.444   0.992   5.582 -0.8822 -0.4967 -0.0674
  514MOL0     H69348   4.540   1.193   5.494  0.6413 -0.1373 -0.7277
  514MOL0     H69349   4.618   1.161   5.646 -1.0144 -0.7011  0.1186
  514MOL0     H69350   4.770   1.367   5.598  0.7984  1.0031 -2.7763
  514MOL0     H69351   4.934   1.647   5.575 -2.0149 -0.3424  1.5768
  514MOL0     H69352   4.958   1.465   5.541  0.0533 -1.1548 -1.8518
  514MOL0     H69353   4.934   1.574   5.410  1.9593  1.5506  0.9846
  514MOL0     H69354   4.460   2.035   5.279 -0.4740  2.2163  1.3019
  514MOL0     H69355   4.518   2.282   5.199  0.4593  1.3255  3.8006
  514MOL0     H69356   4.935   2.416   5.179 -0.9986 -0.1800  1.7395
  514MOL0     H69357   4.901   2.391   5.007  2.9460  0.2339  1.0226
  514MOL0     H69358   4.759   2.613   5.156  1.3238 -1.0504  2.0745
  514MOL0     H69359   4.931   2.632   5.104  2.5734 -3.3816  1.0134
  514MOL0     H69360   4.700   2.520   4.924 -0.8944  2.6531 -1.5011
  514MOL0     H69361   4.857   2.565   4.871  0.7840  0.1870  0.9329
  514MOL0     H69362   4.689   2.778   5.015 -0.7517  2.6317 -1.2789
  514MOL0     H69363   4.797   2.805   4.892 -0.9551  1.3292  0.7680
  514MOL0     H69364   4.519   2.717   4.836 -0.6172  1.1187 -1.5870
  514MOL0     H69365   4.634   2.721   4.708 -2.2669 -0.5981  0.3460
  514MOL0     H69366   4.617   2.959   4.880  2.6312 -0.7197  0.0975
  514MOL0     H69367   4.673   2.961   4.720  0.3675  0.1915 -2.1867
  514MOL0     H69368   4.402   3.022   4.831 -1.7143 -0.8026 -0.0852
  514MOL0     H69369   4.379   2.875   4.729  0.4282 -0.6500  1.3684
  514MOL0     H69370   4.372   3.045   4.568  1.9463 -3.7611 -2.7432
  514MOL0     H69371   4.527   2.981   4.552  1.7510  2.1905  0.2857
  514MOL0     H69372   4.916   2.180   5.136 -0.2976  0.4177 -0.8209
  514MOL0     H69373   4.877   1.949   5.189  1.7026  3.5831 -3.3016
  514MOL0     H69374   4.472   1.723   5.424 -0.4125 -0.9953 -0.8605
  514MOL0     H69375   4.375   1.515   5.549  0.0655 -1.6096  0.7069
  514MOL0     H69376   3.439   0.228   6.411 -0.6055  1.0843  0.3354
  514MOL0     H69377   3.216   0.304   6.518 -0.7180  0.0362  0.1093
  514MOL0     H69378   2.919   0.638   6.516  2.3632  0.0321 -0.3395
  514MOL0     H69379   2.698   0.730   6.578  0.1292  3.1176 -1.4247
  514MOL0     H69380   2.664   1.026   6.924 -1.7900 -0.4431  3.5312
  514MOL0     H69381   2.505   0.993   6.871 -0.8703 -0.3869  1.5519
  514MOL0     H69382   2.526   0.883   7.090  2.8086  1.5758  1.4708
  514MOL0     H69383   2.667   0.798   7.055 -0.0132 -0.7739 -0.5517
  514MOL0     H69384   2.578   0.635   6.919 -2.4600 -1.6961 -1.5446
  514MOL0     H69385   2.451   0.737   6.853  1.3059  1.1021 -0.4664
  514MOL0     H69386   2.478   0.619   7.139  1.6614 -1.4598 -1.3500
  514MOL0     H69387   2.373   0.548   7.022  0.5844  0.0721 -0.1946
  514MOL0     H69388   2.116   0.842   7.120 -2.8545 -4.2057 -0.3338
  514MOL0     H69389   2.865   0.896   6.938 -3.5761  1.2477 -0.2771
  514MOL0     H69390   3.069   0.795   6.892  0.6413  0.2541 -0.8246
  515MOL0     O69391  11.506   0.705   8.502  0.3360 -0.0202 -0.3367
  515MOL0     C69392  11.406   0.643   8.520 -0.8425  0.5904  0.4396
  515MOL0     O69393  11.346   0.618   8.643 -0.1341 -0.4053  0.2738
  515MOL0     C69394  11.387   0.684   8.755 -0.3765  1.0448  0.1633
  515MOL0     C69395  11.495   0.644   8.820  0.1845 -0.7124 -1.0065
  515MOL0     C69396  11.549   0.717   8.929  0.1547  0.0142 -0.6240
  515MOL0     C69397  11.465   0.822   8.983 -0.1778 -0.2451 -0.0176
  515MOL0     O69398  11.497   0.877   9.105  0.2448 -0.2157  0.9196
  515MOL0     C69399  11.607   0.833   9.187  0.3538  0.5164  0.2163
  515MOL0     C69400  11.591   0.691   9.253 -0.3723  0.5120 -0.0916
  515MOL0     C69401  11.500   0.686   9.376 -0.0170  0.0787 -0.9173
  515MOL0     C69402  11.550   0.569   9.470 -0.6012 -0.5022  0.5075
  515MOL0     C69403  11.468   0.569   9.601 -0.5606 -0.6297  0.4554
  515MOL0     C69404  11.322   0.522   9.598  0.1632 -0.1968 -0.3227
  515MOL0     C69405  11.270   0.447   9.721 -1.5336 -0.5976 -0.4220
  515MOL0     C69406  11.123   0.404   9.715  0.6711 -0.2350 -0.6769
  515MOL0     N69407  11.028   0.518   9.711  0.4856 -0.1301 -0.2618
  515MOL0     C69408  10.909   0.510   9.641  0.3879  0.2519  0.0516
  515MOL0     C69409  10.822   0.615   9.678 -1.0823  1.0938  0.2427
  515MOL0     C69410  10.687   0.638   9.635  0.0402 -0.0359 -0.1347
  515MOL0     C69411  10.581   0.537   9.700  1.2053  0.9955 -0.7528
  515MOL0     C69412  10.450   0.607   9.689 -0.4841 -0.5199  0.0299
  515MOL0     C69413  10.339   0.526   9.756  0.0323  0.0392 -0.9885
  515MOL0     O69414  10.394   0.501   9.892 -0.0322 -0.1507 -0.2561
  515MOL0     C69415  10.334   0.417   9.976  0.0503 -0.0833  0.1132
  515MOL0     C69416  10.373   0.425  10.105  0.0765  0.5101 -1.3007
  515MOL0     C69417  10.323   0.348  10.216  0.6066 -0.5141  0.2051
  515MOL0     C69418  10.359   0.371  10.362 -0.3461  0.3496 -0.0224
  515MOL0     C69419  10.226   0.248  10.173  0.3232 -0.1295  0.3783
  515MOL0     C69420  10.181   0.144  10.267  0.3857  0.2061  0.7721
  515MOL0     O69421  10.270   0.077  10.340  0.1201  0.5108 -0.0795
  515MOL0     C69422  10.244  -0.035  10.422 -0.6418  0.0804  0.0170
  515MOL0     C69423  10.145  -0.133  10.424 -0.1853 -0.1110  0.0292
  515MOL0     C69424  10.138  -0.236  10.513 -0.2759 -0.6000 -1.0506
  515MOL0     C69425  10.241  -0.257  10.601 -0.1189  0.4067  0.2381
  515MOL0     O69426  10.228  -0.356  10.697  0.1033  0.2262  0.2639
  515MOL0     C69427  10.246  -0.491  10.651 -0.4286  0.6743  0.0063
  515MOL0     C69428  10.127  -0.573  10.695  0.7626 -0.0226 -0.3922
  515MOL0     C69429  10.140  -0.711  10.631 -0.6317  0.2928  0.5803
  515MOL0     C69430  10.056  -0.814  10.701  0.7329 -1.1358 -0.0846
  515MOL0     C69431  10.029  -0.949  10.627  0.4707  0.4040  0.0133
  515MOL0     C69432  10.151  -1.023  10.580 -0.6417  0.1502 -0.1774
  515MOL0     C69433  10.118  -1.168  10.556  0.3834 -0.9305 -0.4248
  515MOL0     C69434  10.169  -1.254  10.681  0.8197  0.6461  0.4690
  515MOL0    Cl69435  10.347  -1.270  10.680 -0.3941  0.3059 -0.0567
  515MOL0     C69436  10.349  -0.173  10.600  0.0780 -0.3667  0.4655
  515MOL0     C69437  10.349  -0.062  10.515  0.5098  0.6846 -0.0469
  515MOL0     O69438  10.059   0.118  10.259 -0.7472 -1.0521 -1.1209
  515MOL0     C69439  10.177   0.246  10.039 -0.1858  0.2044  0.3106
  515MOL0     C69440  10.235   0.328   9.942  0.1615 -0.0814  0.5965
  515MOL0     N69441  10.905   0.684   9.762 -0.0863 -0.9075 -0.8817
  515MOL0     N69442  11.015   0.620   9.789 -0.3347 -0.0352 -0.5152
  515MOL0     C69443  11.354   0.866   8.911 -0.1733  0.1026  0.0538
  515MOL0     C69444  11.310   0.796   8.794  0.3722 -0.6017 -0.8550
  515MOL0     C69445  11.342   0.588   8.397 -0.9524 -0.2994  0.0469
  515MOL0     C69446  11.229   0.510   8.399 -0.8616  0.0431 -0.5585
  515MOL0     C69447  11.148   0.478   8.296 -0.0658 -0.4257 -0.1136
  515MOL0     C69448  11.191   0.519   8.169  0.8837 -0.1291  0.0488
  515MOL0     O69449  11.107   0.481   8.062 -0.2293 -0.3876 -0.3142
  515MOL0     C69450  11.170   0.475   7.936  0.9068  0.1196 -0.7444
  515MOL0     C69451  11.088   0.389   7.834  1.0069  0.7364 -0.1814
  515MOL0     C69452  10.942   0.436   7.831  0.2838 -0.2569  0.0508
  515MOL0     C69453  10.925   0.577   7.761 -0.1817  0.0601 -0.9091
  515MOL0     C69454  10.988   0.593   7.635 -0.6371 -0.3826 -0.0512
  515MOL0     C69455  11.025   0.573   7.521 -0.0676  0.0839 -0.3304
  515MOL0     C69456  11.310   0.591   8.157  0.2851  0.5417 -0.7831
  515MOL0     C69457  11.386   0.620   8.271 -0.0294  0.0213  0.9239
  515MOL0     H69458  11.559   0.569   8.775  0.6660  0.5852 -2.6141
  515MOL0     H69459  11.648   0.684   8.961  1.3183 -1.6290 -5.1716
  515MOL0     H69460  11.701   0.840   9.132  0.2184 -2.1527 -0.5108
  515MOL0     H69461  11.615   0.913   9.261  0.5529  0.6008  0.1049
  515MOL0     H69462  11.561   0.609   9.186  3.7261 -2.6733  1.5578
  515MOL0     H69463  11.691   0.663   9.287 -0.3106  2.8439  1.8615
  515MOL0     H69464  11.501   0.778   9.434  0.4393  0.3260 -1.3013
  515MOL0     H69465  11.396   0.665   9.351  0.1738 -3.9063  0.9355
  515MOL0     H69466  11.542   0.477   9.412  1.8214  0.8351 -2.1557
  515MOL0     H69467  11.659   0.576   9.484 -0.2533  0.5924 -2.2212
  515MOL0     H69468  11.511   0.487   9.659 -1.7220 -1.2265  0.4918
  515MOL0     H69469  11.485   0.666   9.650  2.4708  1.0204 -3.3096
  515MOL0     H69470  11.249   0.601   9.577 -0.2985 -0.7324 -0.7575
  515MOL0     H69471  11.306   0.460   9.510 -2.5957  0.9685 -0.7441
  515MOL0     H69472  11.333   0.357   9.728 -2.3763 -1.0804  2.0221
  515MOL0     H69473  11.274   0.502   9.815 -2.1992  1.1125 -1.3510
  515MOL0     H69474  11.102   0.342   9.802 -0.5325  3.8909  2.2890
  515MOL0     H69475  11.098   0.352   9.622  0.0223 -2.1463  0.5165
  515MOL0     H69476  10.890   0.434   9.566 -3.6683  2.5521 -1.6035
  515MOL0     H69477  10.659   0.742   9.655 -3.8165 -0.9859  0.1936
  515MOL0     H69478  10.679   0.611   9.530  4.2658 -0.0324 -0.6074
  515MOL0     H69479  10.605   0.528   9.806 -2.1390 -0.7740 -0.0060
  515MOL0     H69480  10.594   0.440   9.652  1.2005  0.6296 -0.0129
  515MOL0     H69481  10.415   0.615   9.586 -0.9219  1.2591  0.2858
  515MOL0     H69482  10.457   0.703   9.741  3.3841 -0.1268 -0.8987
  515MOL0     H69483  10.314   0.432   9.708  0.0907 -2.0437  2.6871
  515MOL0     H69484  10.243   0.577   9.769 -1.0769 -2.3747  1.0799
  515MOL0     H69485  10.455   0.493  10.127  0.3749  0.0857 -1.0810
  515MOL0     H69486  10.429   0.454  10.361  0.4404 -0.2704  1.0365
  515MOL0     H69487  10.272   0.404  10.419 -1.4722  1.7743 -2.4169
  515MOL0     H69488  10.405   0.283  10.410  2.0684  0.3873 -2.0781
  515MOL0     H69489  10.063  -0.110  10.357 -0.1515  1.4246  0.4792
  515MOL0     H69490  10.050  -0.299  10.524 -0.7869 -0.5839 -4.1584
  515MOL0     H69491  10.251  -0.485  10.542 -0.2490  1.6381  0.0642
  515MOL0     H69492  10.336  -0.537  10.694 -2.6791 -1.9990  2.2425
  515MOL0     H69493  10.126  -0.585  10.804  1.9700 -0.4625 -0.4136
  515MOL0     H69494  10.033  -0.522  10.673 -0.1979 -1.8961 -0.8620
  515MOL0     H69495  10.241  -0.752  10.632 -0.5146  0.5767  0.6621
  515MOL0     H69496  10.111  -0.698  10.527 -3.6503  3.0026  1.5788
  515MOL0     H69497  10.091  -0.841  10.801 -3.8275 -2.4082  1.4434
  515MOL0     H69498   9.954  -0.776  10.710  1.3579  0.5055  0.3228
  515MOL0     H69499   9.966  -0.944  10.538  2.2058 -3.3101 -1.6518
  515MOL0     H69500   9.967  -1.011  10.692  2.7339 -1.9754  0.0930
  515MOL0     H69501  10.190  -0.978  10.488 -2.3205 -0.5802 -1.3104
  515MOL0     H69502  10.229  -1.022  10.656 -2.2913 -0.9611  1.6383
  515MOL0     H69503  10.181  -1.196  10.471 -1.4930 -0.9327 -1.8705
  515MOL0     H69504  10.015  -1.174  10.520  0.3745  0.6476 -0.6980
  515MOL0     H69505  10.131  -1.357  10.681 -0.9939  1.2675 -0.0401
  515MOL0     H69506  10.124  -1.214  10.773 -2.7765 -2.0952  0.1391
  515MOL0     H69507  10.430  -0.201  10.665  1.4811 -0.5721 -1.2911
  515MOL0     H69508  10.433   0.006  10.516  0.4944  0.7292 -0.8882
  515MOL0     H69509  10.092   0.193   9.998 -3.0777  2.8804  2.3849
  515MOL0     H69510  10.192   0.336   9.843  0.7930 -2.8498  0.0214
  515MOL0     H69511  11.309   0.959   8.943  0.1570 -0.0950  1.1604
  515MOL0     H69512  11.225   0.827   8.734  0.9125 -2.6180 -2.7797
  515MOL0     H69513  11.187   0.483   8.496  2.1869 -2.7172  0.1595
  515MOL0     H69514  11.056   0.421   8.308  0.4034 -1.0669  0.4812
  515MOL0     H69515  11.182   0.577   7.900 -0.1917  0.2595 -0.7431
  515MOL0     H69516  11.270   0.433   7.948  1.7478  2.4537  1.2957
  515MOL0     H69517  11.084   0.288   7.874  0.5559  1.1853  0.9487
  515MOL0     H69518  11.133   0.401   7.735 -0.1452 -2.0784 -1.1541
  515MOL0     H69519  10.902   0.445   7.932 -1.7837 -0.5451 -0.6829
  515MOL0     H69520  10.882   0.357   7.786  0.2388 -0.0314 -0.2940
  515MOL0     H69521  10.951   0.647   7.841  2.0108  0.0681 -1.5566
  515MOL0     H69522  10.820   0.599   7.745 -1.1060 -2.8387  0.5057
  515MOL0     H69523  11.049   0.545   7.420  0.1641 -1.2505  0.0809
  515MOL0     H69524  11.345   0.619   8.058  1.2345  1.6419 -0.1596
  515MOL0     H69525  11.483   0.670   8.272  0.5022 -0.8552 -1.3674
  516MOL0     O69526   5.657   5.006   9.691  0.2679  0.2109 -0.2552
  516MOL0     C69527   5.584   5.105   9.663  0.5217  0.1839 -0.7482
  516MOL0     O69528   5.536   5.135   9.544  0.2300 -0.6456 -0.2082
  516MOL0     C69529   5.577   5.065   9.430  0.2469 -0.1338 -0.3241
  516MOL0     C69530   5.705   5.009   9.410 -0.5119  0.3418  0.1434
  516MOL0     C69531   5.737   4.945   9.291 -0.2772  0.6772  0.0034
  516MOL0     C69532   5.645   4.946   9.189  0.6688  0.2587  1.0254
  516MOL0     O69533   5.666   4.884   9.063 -0.2291 -0.0243  0.1876
  516MOL0     C69534   5.711   4.977   8.963 -0.2707 -0.3950 -0.5505
  516MOL0     C69535   5.737   4.902   8.835  0.0179 -0.5027 -0.5406
  516MOL0     C69536   5.847   4.963   8.744  0.4060  1.0556 -0.4046
  516MOL0     C69537   5.986   4.945   8.805 -0.1425 -1.2510  0.0226
  516MOL0     C69538   6.089   4.951   8.694 -0.3501  0.4964  0.8540
  516MOL0     C69539   6.116   4.811   8.638 -1.0216 -0.9813 -0.2097
  516MOL0     C69540   6.194   4.833   8.509 -0.4800  0.0273 -0.2854
  516MOL0     C69541   6.337   4.878   8.529 -0.4138 -0.3577  0.7975
  516MOL0     N69542   6.400   4.920   8.403 -0.2306 -0.3832 -0.3191
  516MOL0     C69543   6.390   5.042   8.341 -0.5397 -0.6207 -0.3631
  516MOL0     C69544   6.473   5.034   8.230  0.5010 -0.6897  0.5433
  516MOL0     C69545   6.502   5.150   8.130  0.3991  0.8241 -1.1895
  516MOL0     C69546   6.461   5.124   7.985  0.5642 -0.3133  0.4657
  516MOL0     C69547   6.544   5.021   7.897  0.2603  0.9010 -0.8604
  516MOL0     C69548   6.504   5.037   7.754 -0.4358 -0.3933  0.2338
  516MOL0     O69549   6.597   5.136   7.702  0.0672  0.2922  0.1198
  516MOL0     C69550   6.612   5.156   7.568  1.2351  0.5267 -0.4695
  516MOL0     C69551   6.620   5.286   7.523  0.2304  0.4663 -0.2252
  516MOL0     C69552   6.635   5.309   7.380  0.4434  0.1262  0.6748
  516MOL0     C69553   6.658   5.452   7.336 -0.4659 -0.3132  0.4655
  516MOL0     C69554   6.635   5.196   7.286 -0.4895 -0.2582  0.7098
  516MOL0     C69555   6.666   5.211   7.136 -0.3572 -0.1484  0.3537
  516MOL0     O69556   6.708   5.099   7.072 -0.6825  0.3269 -0.9148
  516MOL0     C69557   6.765   5.115   6.947  0.4133 -0.1187  0.3999
  516MOL0     C69558   6.702   5.057   6.835 -1.3154 -0.8147  0.2226
  516MOL0     C69559   6.756   5.085   6.711  0.0170 -0.4071  0.9325
  516MOL0     C69560   6.870   5.172   6.691 -0.4358  0.4471 -0.3903
  516MOL0     O69561   6.903   5.193   6.551  0.5863  0.1405 -0.3613
  516MOL0     C69562   7.035   5.253   6.526 -0.0544  1.2596  0.1891
  516MOL0     C69563   7.014   5.303   6.381 -0.3043 -0.2136  0.6422
  516MOL0     C69564   6.931   5.434   6.381  0.0553  0.4182 -0.3260
  516MOL0     C69565   6.980   5.545   6.290 -0.5631  0.5500  0.0860
  516MOL0     C69566   6.907   5.666   6.336 -0.9613  0.1431  0.0121
  516MOL0     C69567   6.931   5.783   6.232  0.4350  0.3805 -0.7321
  516MOL0     C69568   6.863   5.912   6.274  0.3007 -0.6335 -0.3100
  516MOL0     C69569   6.878   6.032   6.192  0.7245 -0.0652  0.4462
  516MOL0    Cl69570   6.777   6.163   6.273 -0.1042  0.1570 -0.0502
  516MOL0     C69571   6.936   5.225   6.804  0.8382 -0.0651  0.1893
  516MOL0     C69572   6.882   5.194   6.924  1.0703  0.6233  0.4737
  516MOL0     O69573   6.654   5.321   7.075  0.1143 -0.4903 -0.6880
  516MOL0     C69574   6.619   5.072   7.337  0.4261  0.5258 -0.3638
  516MOL0     C69575   6.615   5.049   7.481 -0.1105  0.2295  0.4632
  516MOL0     N69576   6.529   4.912   8.235 -0.5011 -0.2486  0.4538
  516MOL0     N69577   6.490   4.849   8.335 -0.4566  0.3426  1.0112
  516MOL0     C69578   5.516   5.006   9.206 -0.5528  0.4695  0.0282
  516MOL0     C69579   5.482   5.062   9.327 -0.6327 -0.1151  0.6053
  516MOL0     C69580   5.511   5.175   9.777  0.6953 -1.1772  0.0569
  516MOL0     C69581   5.402   5.264   9.749  0.4964  0.7916  0.5943
  516MOL0     C69582   5.330   5.324   9.849  0.7897  1.2351  0.0568
  516MOL0     C69583   5.370   5.322   9.981  1.0039  0.1664  0.1745
  516MOL0     O69584   5.309   5.391  10.073 -0.2128 -0.0149  0.1812
  516MOL0     C69585   5.183   5.456  10.048  0.2079  0.2278  0.0390
  516MOL0     C69586   5.169   5.601   9.986  0.2676  0.1422 -0.1121
  516MOL0     C69587   5.034   5.659  10.030 -0.1972 -0.4410 -0.1966
  516MOL0     C69588   5.003   5.795   9.975 -0.6377  0.2259 -0.7640
  516MOL0     C69589   5.115   5.889   9.968  0.4568 -0.0548 -0.2557
  516MOL0     C69590   5.198   5.982   9.961 -0.2634  0.6985 -0.8734
  516MOL0     C69591   5.481   5.240  10.011 -0.6370  0.6170  0.6467
  516MOL0     C69592   5.548   5.167   9.913 -0.0095 -0.4344 -0.4726
  516MOL0     H69593   5.790   5.014   9.477 -0.6790  0.8976  0.3173
  516MOL0     H69594   5.830   4.892   9.275 -0.1554  0.9700 -0.2714
  516MOL0     H69595   5.645   5.063   8.951  0.4287  1.0274  3.7949
  516MOL0     H69596   5.807   5.019   8.995 -0.7547  1.8900 -1.9123
  516MOL0     H69597   5.776   4.808   8.874 -3.4236 -0.8058  2.7541
  516MOL0     H69598   5.652   4.886   8.769 -1.0741 -3.1677  1.3404
  516MOL0     H69599   5.830   4.922   8.644 -3.2612  2.6859 -0.6316
  516MOL0     H69600   5.831   5.071   8.736 -0.0308  1.0781  0.5613
  516MOL0     H69601   5.989   5.028   8.877  0.1908 -1.6103  0.4269
  516MOL0     H69602   5.992   4.853   8.863  0.1279 -2.4433 -1.8215
  516MOL0     H69603   6.059   5.024   8.618 -0.5328  0.4809  0.9121
  516MOL0     H69604   6.181   4.993   8.737  0.5748  1.1460 -1.6071
  516MOL0     H69605   6.174   4.765   8.718 -1.8518 -0.7021  0.5658
  516MOL0     H69606   6.031   4.744   8.631 -1.3517 -0.7123  1.0480
  516MOL0     H69607   6.184   4.738   8.454 -1.7381  0.1735 -0.3433
  516MOL0     H69608   6.142   4.903   8.443  1.9838  1.9858 -0.2713
  516MOL0     H69609   6.395   4.794   8.569  0.0275 -0.1779  0.5442
  516MOL0     H69610   6.332   4.960   8.601 -1.5244 -2.2381  3.0099
  516MOL0     H69611   6.356   5.139   8.375 -0.0734 -0.3278 -0.6980
  516MOL0     H69612   6.456   5.238   8.177 -0.4418 -1.4815  2.7636
  516MOL0     H69613   6.610   5.170   8.132  0.1110  2.5109  0.8683
  516MOL0     H69614   6.477   5.218   7.933  3.1493  1.2752  3.7357
  516MOL0     H69615   6.357   5.091   7.995  0.6281 -0.2422  1.5634
  516MOL0     H69616   6.511   4.920   7.923  1.5275  0.1906 -1.8738
  516MOL0     H69617   6.652   5.025   7.913 -0.2304  0.5463  3.8444
  516MOL0     H69618   6.404   5.079   7.737 -1.4356 -3.0524 -0.9899
  516MOL0     H69619   6.504   4.938   7.707  0.6432 -1.0244  1.5041
  516MOL0     H69620   6.621   5.373   7.589 -0.8325 -0.3981  0.9701
  516MOL0     H69621   6.625   5.513   7.421  0.8670 -1.3178  1.7572
  516MOL0     H69622   6.763   5.481   7.322 -1.7094  4.0938 -1.3984
  516MOL0     H69623   6.612   5.485   7.243  3.8580  0.1831 -1.7699
  516MOL0     H69624   6.613   4.997   6.852 -1.8722 -0.0219  0.2147
  516MOL0     H69625   6.703   5.041   6.627  0.3920  0.3162  0.3070
  516MOL0     H69626   7.069   5.334   6.591  1.5956  2.0901 -1.5957
  516MOL0     H69627   7.124   5.192   6.541  0.5269  1.7655 -0.9744
  516MOL0     H69628   7.102   5.325   6.321  0.1394  0.6465  1.5942
  516MOL0     H69629   6.962   5.219   6.333 -1.7623 -0.5878  2.7572
  516MOL0     H69630   6.907   5.464   6.483 -0.7898 -0.3918 -0.2747
  516MOL0     H69631   6.836   5.407   6.334  0.0265 -1.1457  0.5686
  516MOL0     H69632   7.089   5.547   6.300 -0.2914 -3.1126 -0.6654
  516MOL0     H69633   6.966   5.529   6.183  1.8293  0.4818 -0.2784
  516MOL0     H69634   6.942   5.709   6.431 -2.9142  0.5243  0.6192
  516MOL0     H69635   6.801   5.656   6.361 -1.2894  1.2213 -0.8445
  516MOL0     H69636   7.038   5.796   6.217  0.4155 -0.2235 -1.4209
  516MOL0     H69637   6.878   5.761   6.139  0.6115  1.6549 -1.1508
  516MOL0     H69638   6.905   5.942   6.370  0.8608 -3.8339  0.5399
  516MOL0     H69639   6.758   5.887   6.292 -0.0324  0.3670 -0.7504
  516MOL0     H69640   6.840   6.017   6.090  1.9817  0.9527 -0.2034
  516MOL0     H69641   6.981   6.065   6.177  1.2735 -2.1303 -0.7713
  516MOL0     H69642   7.018   5.292   6.782  1.3407 -1.2983 -1.9876
  516MOL0     H69643   6.932   5.236   7.011  4.0647  0.4411 -1.0391
  516MOL0     H69644   6.618   4.986   7.270 -2.5012  0.9276 -0.9725
  516MOL0     H69645   6.608   4.945   7.513 -1.6436  0.7511  1.9904
  516MOL0     H69646   5.442   5.004   9.126 -1.6576  2.5276  0.9383
  516MOL0     H69647   5.386   5.109   9.341 -0.0611  1.7652 -1.2790
  516MOL0     H69648   5.364   5.291   9.651  1.1949  4.0393  1.1080
  516MOL0     H69649   5.254   5.387   9.804  1.5552  1.7879 -0.5053
  516MOL0     H69650   5.126   5.386   9.986  1.7530 -1.0692  0.0136
  516MOL0     H69651   5.135   5.466  10.145  0.3306 -3.9198  0.6857
  516MOL0     H69652   5.172   5.602   9.877  0.5896  3.4518 -0.1756
  516MOL0     H69653   5.246   5.655  10.041  1.2782 -1.0210 -0.3376
  516MOL0     H69654   5.024   5.665  10.138  1.0268  0.7712 -0.1260
  516MOL0     H69655   4.953   5.591  10.000 -1.3221  1.8108 -2.7123
  516MOL0     H69656   4.933   5.846  10.041 -0.6782  0.9445 -1.3615
  516MOL0     H69657   4.956   5.790   9.877 -2.0732  2.6592 -0.2859
  516MOL0     H69658   5.265   6.066   9.962  0.5718  0.0843  1.7734
  516MOL0     H69659   5.521   5.238  10.112 -0.5312 -3.2178  0.6426
  516MOL0     H69660   5.639   5.109   9.927 -0.4347 -1.2913 -1.1290
  517MOL0     O69661   8.311  11.400  10.408  0.0176 -0.6133  0.7160
  517MOL0     C69662   8.263  11.486  10.482 -0.0409  0.3054 -0.3135
  517MOL0     O69663   8.142  11.555  10.465 -0.3837 -0.4717 -0.0359
  517MOL0     C69664   8.084  11.536  10.340  1.0962  0.2194 -0.2402
  517MOL0     C69665   8.015  11.421  10.318 -0.8541  0.3472  1.0478
  517MOL0     C69666   7.944  11.403  10.203  0.2152 -0.2842  1.0573
  517MOL0     C69667   7.929  11.503  10.109 -0.0809  0.2662 -0.4299
  517MOL0     O69668   7.836  11.475  10.009 -0.0991  0.9649  0.4463
  517MOL0     C69669   7.825  11.566   9.898 -0.0108 -0.3518 -1.0519
  517MOL0     C69670   7.709  11.553   9.800  0.7603  0.1617  0.4109
  517MOL0     C69671   7.725  11.625   9.668  0.2884  0.1053 -0.6505
  517MOL0     C69672   7.698  11.780   9.684  0.4101  0.6366  0.3856
  517MOL0     C69673   7.702  11.856   9.541  0.2482 -0.3550  0.7223
  517MOL0     C69674   7.717  12.007   9.557 -0.5814 -0.1814 -0.2230
  517MOL0     C69675   7.684  12.081   9.429 -0.9374 -0.5831 -0.4024
  517MOL0     C69676   7.674  12.226   9.457 -0.3715 -0.8815 -0.3677
  517MOL0     N69677   7.809  12.285   9.483 -0.0877 -0.0090  1.1012
  517MOL0     C69678   7.914  12.290   9.398 -0.3266  0.1573  0.2593
  517MOL0     C69679   8.003  12.366   9.467 -0.6726 -0.4448  0.4420
  517MOL0     C69680   8.135  12.404   9.408  0.7300 -0.5724  0.4157
  517MOL0     C69681   8.175  12.552   9.448  0.7017  0.2361 -0.1358
  517MOL0     C69682   8.311  12.558   9.509 -1.5118  0.3048 -1.5646
  517MOL0     C69683   8.420  12.596   9.414  0.5207  0.7736  0.1394
  517MOL0     O69684   8.549  12.600   9.472 -0.2193 -0.8959 -0.1726
  517MOL0     C69685   8.610  12.489   9.521 -1.0505  0.0681  0.6903
  517MOL0     C69686   8.573  12.362   9.487 -0.3268  1.1388  0.5418
  517MOL0     C69687   8.620  12.255   9.568 -0.0282  1.3705  0.4468
  517MOL0     C69688   8.567  12.113   9.543  0.3056 -0.2222 -0.0737
  517MOL0     C69689   8.720  12.274   9.675  0.7280  0.9741 -0.2222
  517MOL0     C69690   8.792  12.168   9.751 -0.1533 -0.2882  1.8256
  517MOL0     O69691   8.893  12.204   9.824  0.5109 -1.2994 -0.5052
  517MOL0     C69692   8.957  12.123   9.914  0.1807  0.5952  1.2318
  517MOL0     C69693   8.903  12.006   9.970 -0.1364  0.4202 -0.3304
  517MOL0     C69694   8.973  11.938  10.070  0.1752 -0.8016 -0.4374
  517MOL0     C69695   9.108  11.967  10.095 -1.0455 -0.0850 -0.2731
  517MOL0     O69696   9.196  11.886  10.163 -0.3472  0.8920 -0.3195
  517MOL0     C69697   9.125  11.835  10.275  0.0007 -0.0882  0.0040
  517MOL0     C69698   9.218  11.783  10.379  0.5251  0.1590 -0.6665
  517MOL0     C69699   9.272  11.875  10.484  0.1342  1.0851  0.4086
  517MOL0     C69700   9.159  11.944  10.571  0.7195 -0.4177 -0.2525
  517MOL0     C69701   9.210  12.002  10.708  1.0172 -0.2554 -1.4216
  517MOL0     C69702   9.213  11.883  10.816 -0.3957  0.6105 -0.5917
  517MOL0     C69703   9.240  11.922  10.971  0.5187 -0.1173  0.4533
  517MOL0     C69704   9.129  11.991  11.031  0.1213  0.0212  0.8503
  517MOL0    Cl69705   9.163  12.008  11.212 -0.1304 -0.4967 -0.0311
  517MOL0     C69706   9.169  12.072  10.018  0.2022  0.3226  0.2494
  517MOL0     C69707   9.086  12.159   9.939  0.8520  0.1942  0.5779
  517MOL0     O69708   8.753  12.053   9.733  0.2820 -0.2449 -0.2033
  517MOL0     C69709   8.753  12.408   9.701  0.3308 -0.1742  0.4134
  517MOL0     C69710   8.697  12.510   9.623  0.6194 -0.3848  0.4158
  517MOL0     N69711   7.960  12.396   9.595 -0.1467  0.2009  0.7341
  517MOL0     N69712   7.843  12.349   9.601  0.2796  0.1808  0.1481
  517MOL0     C69713   8.002  11.623  10.129  0.7511 -0.2092  1.1869
  517MOL0     C69714   8.082  11.633  10.237 -0.8335 -0.3178 -0.3259
  517MOL0     C69715   8.336  11.510  10.604 -0.6996 -0.6893  0.2147
  517MOL0     C69716   8.268  11.546  10.723  0.4024  0.1728 -0.1349
  517MOL0     C69717   8.342  11.564  10.842  0.8459  0.7580 -0.7266
  517MOL0     C69718   8.481  11.538  10.857  0.8327 -0.3336  0.5580
  517MOL0     O69719   8.539  11.554  10.981 -0.0136 -0.0562 -0.0394
  517MOL0     C69720   8.579  11.431  11.048 -1.3001  0.2193  0.6978
  517MOL0     C69721   8.718  11.443  11.116 -1.0877 -0.4774 -0.7268
  517MOL0     C69722   8.827  11.476  11.007  0.7339 -0.7616 -0.2847
  517MOL0     C69723   8.965  11.484  11.068 -0.4913 -0.2336 -0.5210
  517MOL0     C69724   8.973  11.597  11.157  0.4311 -0.3591 -0.7161
  517MOL0     C69725   8.988  11.696  11.222 -0.2669 -0.1023  0.1378
  517MOL0     C69726   8.547  11.499  10.738  0.2708 -0.4283 -0.1132
  517MOL0     C69727   8.479  11.482  10.614  0.2167 -0.4014  0.1484
  517MOL0     H69728   8.010  11.338  10.388 -3.4141 -1.6939 -1.3293
  517MOL0     H69729   7.885  11.313  10.191  1.8290 -1.2943  0.4221
  517MOL0     H69730   7.828  11.669   9.936 -2.1329 -0.9718  0.9897
  517MOL0     H69731   7.919  11.535   9.852 -0.3180 -2.1243 -0.5377
  517MOL0     H69732   7.687  11.448   9.776 -2.2048  1.4181 -3.3003
  517MOL0     H69733   7.619  11.595   9.846  0.3026  0.6579 -0.8860
  517MOL0     H69734   7.828  11.622   9.632  0.3008  2.2709 -0.9349
  517MOL0     H69735   7.651  11.590   9.595  1.3111 -1.4509 -0.9848
  517MOL0     H69736   7.594  11.783   9.719 -0.2683  0.2981 -1.4819
  517MOL0     H69737   7.776  11.828   9.744  2.3322  0.2331 -1.6559
  517MOL0     H69738   7.780  11.816   9.475 -0.3497  0.9088 -0.8015
  517MOL0     H69739   7.610  11.836   9.484  1.9256 -2.5345 -1.4654
  517MOL0     H69740   7.662  12.032   9.648  2.8048 -1.2565  2.3674
  517MOL0     H69741   7.824  12.023   9.572 -0.1649 -0.7446 -2.3441
  517MOL0     H69742   7.764  12.070   9.355  0.4175 -0.3063  0.9459
  517MOL0     H69743   7.593  12.047   9.380 -3.2540  2.5584  1.3656
  517MOL0     H69744   7.610  12.245   9.544  0.8968  2.8281 -0.0707
  517MOL0     H69745   7.625  12.286   9.380  0.6753  2.0674  1.1119
  517MOL0     H69746   7.933  12.240   9.303  0.5599 -0.9877  1.0016
  517MOL0     H69747   8.208  12.329   9.440  0.1168 -1.0477  0.6971
  517MOL0     H69748   8.121  12.397   9.300 -1.0400 -4.3245  0.7379
  517MOL0     H69749   8.111  12.590   9.528  0.2415  0.0693 -0.4154
  517MOL0     H69750   8.166  12.610   9.355 -2.7275  0.1616 -0.0074
  517MOL0     H69751   8.347  12.471   9.566 -1.4147  0.7183 -0.9891
  517MOL0     H69752   8.308  12.632   9.589 -0.8154 -0.4659 -0.8053
  517MOL0     H69753   8.375  12.688   9.377 -1.8298 -0.1460  0.5096
  517MOL0     H69754   8.429  12.525   9.331  4.6843 -0.5730  1.4630
  517MOL0     H69755   8.500  12.336   9.410  0.4909 -1.5298  0.5534
  517MOL0     H69756   8.660  12.060   9.520 -0.3039 -1.0494 -0.7021
  517MOL0     H69757   8.522  12.087   9.639  2.8141  4.5569  2.7548
  517MOL0     H69758   8.492  12.113   9.463 -1.9773 -1.4323  1.9073
  517MOL0     H69759   8.795  11.994   9.969 -0.0727 -0.2289 -0.0757
  517MOL0     H69760   8.915  11.871  10.132 -1.9603  1.4247  0.1192
  517MOL0     H69761   9.080  11.926  10.314  1.6576  1.2383 -0.9898
  517MOL0     H69762   9.052  11.755  10.261  1.5801 -2.2515  3.0397
  517MOL0     H69763   9.164  11.707  10.436 -1.3610  2.5229  0.8791
  517MOL0     H69764   9.294  11.725  10.325 -3.8360 -5.9350 -1.3489
  517MOL0     H69765   9.345  11.943  10.439 -0.6099 -0.2093 -3.1592
  517MOL0     H69766   9.323  11.803  10.548 -2.4312  0.5710  2.0311
  517MOL0     H69767   9.104  12.018  10.513 -0.0115  0.2091  1.2003
  517MOL0     H69768   9.094  11.859  10.595  0.4408 -0.3881 -0.9005
  517MOL0     H69769   9.150  12.088  10.739  1.6558  0.2702 -1.6016
  517MOL0     H69770   9.313  12.035  10.687  0.8810 -0.4483 -2.4888
  517MOL0     H69771   9.120  11.826  10.820  0.4988 -1.0148  4.2692
  517MOL0     H69772   9.302  11.824  10.794  1.7327  3.5874 -0.6492
  517MOL0     H69773   9.326  11.989  10.967  0.6225 -0.3066 -0.6926
  517MOL0     H69774   9.263  11.836  11.033 -1.4962  0.0595  1.5298
  517MOL0     H69775   9.040  11.930  11.011  1.3643 -1.4119 -0.5562
  517MOL0     H69776   9.126  12.085  10.974 -0.9322 -1.5785 -1.9348
  517MOL0     H69777   9.271  12.099  10.042 -0.0653 -0.1107  2.0296
  517MOL0     H69778   9.122  12.249   9.889  1.2647  0.8306  1.9383
  517MOL0     H69779   8.832  12.441   9.768 -0.6666 -1.2767  2.1881
  517MOL0     H69780   8.723  12.615   9.634  2.1027 -0.5466 -1.0758
  517MOL0     H69781   7.989  11.698  10.051 -1.5013 -1.1435  0.5653
  517MOL0     H69782   8.131  11.730  10.251  2.6671 -1.8985 -0.4693
  517MOL0     H69783   8.160  11.558  10.720  0.4521  0.4412 -1.3735
  517MOL0     H69784   8.290  11.595  10.932 -0.4385 -0.2436 -1.0987
  517MOL0     H69785   8.506  11.418  11.128  0.5868  1.6587  2.8166
  517MOL0     H69786   8.584  11.361  10.965 -1.5112  1.2893 -0.2387
  517MOL0     H69787   8.742  11.342  11.151  3.0075  0.6548  0.2877
  517MOL0     H69788   8.716  11.518  11.195  2.5906 -0.4027 -0.5169
  517MOL0     H69789   8.809  11.570  10.955  1.7973 -1.0096 -1.1472
  517MOL0     H69790   8.831  11.398  10.930  2.0889 -1.3667  0.3714
  517MOL0     H69791   9.030  11.498  10.981 -0.2766  1.2449 -0.1583
  517MOL0     H69792   8.992  11.389  11.114  1.0930  0.3916 -0.0882
  517MOL0     H69793   8.999  11.784  11.282  1.9690  0.0720 -0.4512
  517MOL0     H69794   8.650  11.466  10.749 -0.2280 -2.0206 -0.0200
  517MOL0     H69795   8.543  11.447  10.534 -0.2445  1.3186 -1.0306
  518MOL0     O69796   8.534  10.431   2.736 -0.2011  0.1607 -0.9238
  518MOL0     C69797   8.653  10.428   2.764 -0.9782 -0.7743 -0.2389
  518MOL0     O69798   8.742  10.347   2.712 -0.7424  0.2655  0.2962
  518MOL0     C69799   8.730  10.272   2.600 -0.2142 -1.3398 -0.0597
  518MOL0     C69800   8.670  10.336   2.490  0.4654 -0.1449 -0.2760
  518MOL0     C69801   8.623  10.264   2.383 -0.8911  0.2619  0.1172
  518MOL0     C69802   8.674  10.129   2.363  0.8548 -0.5366 -0.6649
  518MOL0     O69803   8.622  10.056   2.255 -0.2508 -0.3770  0.4450
  518MOL0     C69804   8.579   9.923   2.276 -0.9140  0.4265  0.0655
  518MOL0     C69805   8.442   9.916   2.209 -0.2037 -0.7679  0.1878
  518MOL0     C69806   8.387   9.766   2.221  0.3786  0.7209 -0.4130
  518MOL0     C69807   8.277   9.736   2.108 -0.0745 -0.2042 -0.0506
  518MOL0     C69808   8.266   9.582   2.068 -0.2203 -0.4165 -0.0048
  518MOL0     C69809   8.158   9.559   1.962 -0.2213 -0.0885 -0.2200
  518MOL0     C69810   8.136   9.403   1.946 -0.1825 -0.0298 -0.2610
  518MOL0     C69811   7.997   9.366   1.923  0.9667 -0.0386 -0.1488
  518MOL0     N69812   7.951   9.391   1.785  0.2075 -0.6201 -0.0796
  518MOL0     C69813   8.026   9.438   1.680  0.2014  1.8739 -0.9339
  518MOL0     C69814   7.941   9.438   1.574  0.0500  1.2259  0.6994
  518MOL0     C69815   7.979   9.494   1.439  0.5064  0.8504  0.0223
  518MOL0     C69816   7.942   9.637   1.427  0.0792  0.6168  0.1332
  518MOL0     C69817   7.790   9.656   1.446  0.1378 -0.8236 -0.1882
  518MOL0     C69818   7.770   9.809   1.434 -0.3011 -0.6391  0.6167
  518MOL0     O69819   7.634   9.842   1.468 -0.4873 -0.0619  0.1234
  518MOL0     C69820   7.600   9.974   1.476  1.6763 -0.2975  0.0319
  518MOL0     C69821   7.456  10.001   1.466 -0.3875  0.2337  0.4707
  518MOL0     C69822   7.412  10.132   1.451  0.3051  0.0220  0.7922
  518MOL0     C69823   7.266  10.154   1.412 -0.5029 -0.3865  0.0078
  518MOL0     C69824   7.501  10.238   1.490  0.3893 -0.4019  0.6653
  518MOL0     C69825   7.461  10.388   1.494  0.5615  0.1288  1.0443
  518MOL0     O69826   7.381  10.434   1.399  0.5427 -0.1420 -0.5443
  518MOL0     C69827   7.373  10.575   1.393 -0.6897  0.2890  0.9606
  518MOL0     C69828   7.477  10.651   1.335 -0.0298  0.1899  0.2677
  518MOL0     C69829   7.463  10.790   1.316  0.8627 -0.5951 -0.2562
  518MOL0     C69830   7.337  10.854   1.342 -0.7430  0.3316  0.2695
  518MOL0     O69831   7.312  10.988   1.326 -0.0489 -0.5325  0.1325
  518MOL0     C69832   7.381  11.050   1.213 -0.4324 -0.1384 -0.3509
  518MOL0     C69833   7.353  10.988   1.077  0.1032 -0.6025  0.9158
  518MOL0     C69834   7.351  11.082   0.955 -0.3950  0.6803  0.1320
  518MOL0     C69835   7.240  11.042   0.852 -0.4226  0.3289 -0.4413
  518MOL0     C69836   7.257  10.906   0.785  0.6016  0.9003  0.0277
  518MOL0     C69837   7.135  10.860   0.688 -0.3633 -0.3482 -0.0866
  518MOL0     C69838   7.154  10.712   0.649 -0.3357 -0.1239 -0.1186
  518MOL0     C69839   7.048  10.669   0.555 -0.2537  0.4407  0.1193
  518MOL0    Cl69840   6.884  10.679   0.620 -0.5187 -0.1879  0.1127
  518MOL0     C69841   7.241  10.778   1.406 -0.2267 -0.8609 -0.2142
  518MOL0     C69842   7.262  10.642   1.438  0.6347 -0.4373  0.6148
  518MOL0     O69843   7.519  10.452   1.581 -0.5293  0.1531 -0.0275
  518MOL0     C69844   7.644  10.208   1.510 -0.1528 -0.2021  0.1374
  518MOL0     C69845   7.692  10.080   1.493 -0.2526  0.5347 -0.4539
  518MOL0     N69846   7.818   9.383   1.621 -0.3179  0.4597  0.0883
  518MOL0     N69847   7.825   9.368   1.750 -0.4364 -0.7287  0.0816
  518MOL0     C69848   8.739  10.067   2.472 -0.1365  0.0021 -0.0503
  518MOL0     C69849   8.756  10.134   2.592  0.2960 -0.0293  1.0648
  518MOL0     C69850   8.697  10.515   2.884 -1.5176 -0.2647 -0.0993
  518MOL0     C69851   8.597  10.580   2.955  0.7032  0.2696 -0.6510
  518MOL0     C69852   8.626  10.646   3.070 -0.6996  0.0120  0.9574
  518MOL0     C69853   8.754  10.658   3.114  0.0100 -0.0282  0.2940
  518MOL0     O69854   8.780  10.707   3.242 -0.1443  0.2561 -0.8402
  518MOL0     C69855   8.747  10.841   3.259 -0.0250 -0.7732 -0.4482
  518MOL0     C69856   8.749  10.879   3.401  0.2924 -0.0041 -0.7742
  518MOL0     C69857   8.865  10.836   3.486 -0.2240 -0.2599 -0.5208
  518MOL0     C69858   9.003  10.919   3.471 -0.9862  0.2567  0.2311
  518MOL0     C69859   9.124  10.835   3.509  0.1941 -0.3587  0.6505
  518MOL0     C69860   9.202  10.742   3.537 -0.1628 -0.8295  0.6061
  518MOL0     C69861   8.853  10.596   3.050 -0.5558  0.4927 -0.4254
  518MOL0     C69862   8.827  10.515   2.937  0.1644 -0.9266  0.0377
  518MOL0     H69863   8.653  10.443   2.498  0.7443 -0.0499 -0.9243
  518MOL0     H69864   8.559  10.313   2.310 -1.7259  1.9097  1.8564
  518MOL0     H69865   8.648   9.852   2.230 -0.2947  0.4722  0.8973
  518MOL0     H69866   8.560   9.893   2.379 -1.3475  2.3009  0.5714
  518MOL0     H69867   8.372   9.981   2.261 -0.1090 -2.0477  2.0108
  518MOL0     H69868   8.441   9.947   2.104 -2.0655 -1.0492  0.0893
  518MOL0     H69869   8.466   9.694   2.201 -0.9898 -0.7710 -0.6931
  518MOL0     H69870   8.335   9.766   2.317 -1.4143  0.8569 -1.3227
  518MOL0     H69871   8.180   9.778   2.135 -0.2861 -2.3347  3.0523
  518MOL0     H69872   8.315   9.792   2.022 -1.3399  3.4075  1.5677
  518MOL0     H69873   8.362   9.552   2.025 -1.6291  1.2527 -4.9970
  518MOL0     H69874   8.246   9.530   2.163 -1.9195  0.6768  0.2835
  518MOL0     H69875   8.064   9.602   1.997  0.3778  1.8863 -0.9400
  518MOL0     H69876   8.189   9.613   1.872 -2.0116  0.1356 -0.7348
  518MOL0     H69877   8.203   9.371   1.866  2.2133  0.4782  1.4160
  518MOL0     H69878   8.183   9.341   2.023 -0.1075  0.1051 -0.1971
  518MOL0     H69879   7.945   9.431   1.995  2.3332 -0.3343  1.1638
  518MOL0     H69880   7.971   9.264   1.953 -0.3239  0.4251  0.3958
  518MOL0     H69881   8.127   9.475   1.690  0.5859  0.3883  1.2856
  518MOL0     H69882   8.088   9.487   1.429  0.6742  3.9321 -1.8871
  518MOL0     H69883   7.925   9.434   1.365  1.6101  1.0972 -1.0327
  518MOL0     H69884   7.961   9.673   1.326  0.4077  3.6152  1.1635
  518MOL0     H69885   7.999   9.694   1.501 -1.7952  0.8690  1.4603
  518MOL0     H69886   7.752   9.628   1.545 -2.5362 -0.0224 -0.9055
  518MOL0     H69887   7.735   9.603   1.368 -1.1674 -2.7236  1.8898
  518MOL0     H69888   7.778   9.836   1.329 -2.1367  2.0400  1.0491
  518MOL0     H69889   7.839   9.868   1.495  1.1521  1.2910 -2.6348
  518MOL0     H69890   7.376   9.927   1.458 -1.8806  1.6855  1.2305
  518MOL0     H69891   7.228  10.053   1.430 -1.4016  0.1149  1.0178
  518MOL0     H69892   7.215  10.219   1.483 -1.3052 -1.2661  0.2577
  518MOL0     H69893   7.264  10.198   1.312  2.2000  3.1392  1.2957
  518MOL0     H69894   7.572  10.602   1.319 -0.2404  0.2486 -1.2639
  518MOL0     H69895   7.535  10.852   1.264 -1.6976  2.5356 -0.3808
  518MOL0     H69896   7.338  11.151   1.210  0.0631  0.0717 -0.4176
  518MOL0     H69897   7.487  11.067   1.229 -0.2139  3.1451 -3.8553
  518MOL0     H69898   7.438  10.924   1.053  1.0795  1.8295 -3.0169
  518MOL0     H69899   7.257  10.935   1.071  0.2661 -0.8174  0.1508
  518MOL0     H69900   7.443  11.062   0.899 -3.2766 -1.1331 -4.5543
  518MOL0     H69901   7.355  11.186   0.987  0.0773  0.3408  1.2593
  518MOL0     H69902   7.144  11.044   0.905 -1.9248 -2.3371 -2.8096
  518MOL0     H69903   7.248  11.113   0.769  1.7406  0.9877  0.2472
  518MOL0     H69904   7.248  10.838   0.870 -3.5830  0.6306 -0.4484
  518MOL0     H69905   7.355  10.887   0.739 -0.1359 -3.3919 -0.1958
  518MOL0     H69906   7.036  10.867   0.735 -0.6767  2.1753 -0.9980
  518MOL0     H69907   7.120  10.919   0.597 -1.5344  1.5776  1.2747
  518MOL0     H69908   7.148  10.651   0.740  0.1003  1.0092  0.6954
  518MOL0     H69909   7.255  10.700   0.611 -0.9207 -3.0338 -0.9941
  518MOL0     H69910   7.070  10.566   0.522 -2.5973  0.7863 -3.0221
  518MOL0     H69911   7.061  10.727   0.463  0.7397  0.4912  0.2808
  518MOL0     H69912   7.147  10.825   1.431 -0.6407 -0.3704 -2.5030
  518MOL0     H69913   7.186  10.590   1.495  2.0160 -0.3237  2.6945
  518MOL0     H69914   7.719  10.285   1.529  0.7374 -1.2779  1.1385
  518MOL0     H69915   7.799  10.063   1.497 -0.6352 -2.1295  1.4376
  518MOL0     H69916   8.777   9.966   2.464 -1.2713 -0.3804 -0.8382
  518MOL0     H69917   8.787  10.079   2.680 -0.1586 -1.6631  0.2673
  518MOL0     H69918   8.493  10.576   2.924  0.4206 -0.5069  0.3489
  518MOL0     H69919   8.547  10.698   3.124  0.2070  3.1752 -0.5309
  518MOL0     H69920   8.822  10.896   3.202  0.0864 -0.3983  0.0560
  518MOL0     H69921   8.645  10.865   3.228  0.3317  0.7010 -0.5636
  518MOL0     H69922   8.657  10.840   3.444 -0.3434  1.9747 -0.2683
  518MOL0     H69923   8.751  10.988   3.404 -1.7596  0.1550  4.6805
  518MOL0     H69924   8.879  10.728   3.478 -0.2094 -0.2384 -0.7787
  518MOL0     H69925   8.843  10.850   3.592  1.5762  1.0591 -0.2595
  518MOL0     H69926   8.994  11.006   3.537 -0.0490  2.2845 -2.1640
  518MOL0     H69927   9.011  10.956   3.369 -1.1279  3.1013  1.1519
  518MOL0     H69928   9.269  10.670   3.580  2.1572  1.8725  1.7738
  518MOL0     H69929   8.953  10.601   3.092  0.1386  1.0881 -2.0730
  518MOL0     H69930   8.907  10.464   2.885  1.2755  1.0177 -0.2994
  519MOL0     O69931   3.377   6.712   9.963 -0.1186  0.0289  0.0070
  519MOL0     C69932   3.483   6.753   9.917  0.4077  0.5911  0.6374
  519MOL0     O69933   3.560   6.690   9.829 -0.2352 -0.9486 -1.2577
  519MOL0     C69934   3.573   6.559   9.807 -0.5352 -0.2820 -1.0882
  519MOL0     C69935   3.516   6.452   9.880  0.7579  0.0801  0.0019
  519MOL0     C69936   3.542   6.320   9.848  0.2184  0.5336 -0.5982
  519MOL0     C69937   3.615   6.282   9.735 -0.2970 -0.7828  0.5780
  519MOL0     O69938   3.653   6.158   9.690 -0.0879  0.0614 -0.3522
  519MOL0     C69939   3.627   6.042   9.766  0.1204 -0.0397  0.0091
  519MOL0     C69940   3.704   5.918   9.705 -0.4264  0.6322  0.0057
  519MOL0     C69941   3.637   5.789   9.744  0.0764 -0.6431  0.0797
  519MOL0     C69942   3.717   5.744   9.869  0.0502  0.4952 -0.0573
  519MOL0     C69943   3.642   5.621   9.944 -0.3781  0.0612 -0.7817
  519MOL0     C69944   3.539   5.663  10.047  0.3862 -0.5316 -0.4397
  519MOL0     C69945   3.434   5.543  10.063  0.6165  0.2530  0.7127
  519MOL0     C69946   3.334   5.604  10.157  0.4653 -0.0255 -1.1814
  519MOL0     N69947   3.226   5.507  10.211 -0.1503  0.6641  0.6398
  519MOL0     C69948   3.175   5.401  10.130 -0.5381 -0.1593 -0.3022
  519MOL0     C69949   3.040   5.410  10.152 -0.6961  0.0764 -0.3112
  519MOL0     C69950   2.934   5.307  10.106 -0.1448  0.4782  0.2214
  519MOL0     C69951   2.944   5.184  10.194 -0.8900  0.0444  0.4450
  519MOL0     C69952   2.858   5.067  10.146  0.4456 -0.4706  0.5094
  519MOL0     C69953   2.703   5.092  10.150  0.4283  0.5178 -0.2702
  519MOL0     O69954   2.653   5.153  10.271 -0.3514 -0.5403 -0.3471
  519MOL0     C69955   2.541   5.232  10.249 -1.2321 -0.2795  0.4589
  519MOL0     C69956   2.416   5.182  10.237 -0.2539 -0.3051 -0.1077
  519MOL0     C69957   2.297   5.268  10.220  0.3966 -0.3067  0.1870
  519MOL0     C69958   2.170   5.204  10.231 -0.6170  0.1759 -0.3902
  519MOL0     C69959   2.318   5.409  10.227  0.0409 -0.5495  0.6814
  519MOL0     C69960   2.213   5.510  10.228  0.5440  0.3519  0.3273
  519MOL0     O69961   2.203   5.600  10.123 -0.5904  0.4791 -0.0181
  519MOL0     C69962   2.112   5.701  10.145  0.0807 -0.0772 -0.3271
  519MOL0     C69963   2.133   5.799  10.240  0.3862 -0.6196 -0.4885
  519MOL0     C69964   2.034   5.894  10.266  0.8898 -0.0233 -0.0942
  519MOL0     C69965   1.909   5.882  10.204  0.4098  0.4721 -0.1997
  519MOL0     O69966   1.815   5.973  10.255 -0.6369  0.7737 -0.2193
  519MOL0     C69967   1.693   5.911  10.290  0.3597 -0.2528 -0.5649
  519MOL0     C69968   1.721   5.795  10.389  0.3336  0.1169  0.2242
  519MOL0     C69969   1.604   5.719  10.456  0.3379 -0.3014 -0.2704
  519MOL0     C69970   1.571   5.581  10.391  0.9033  0.1027 -0.0259
  519MOL0     C69971   1.487   5.592  10.262  0.5420  0.9883  0.0782
  519MOL0     C69972   1.477   5.452  10.192 -0.3938  0.5810  0.1254
  519MOL0     C69973   1.418   5.462  10.050  0.6484 -0.2166  0.7325
  519MOL0     C69974   1.404   5.324   9.990 -0.2915  0.6997  0.0065
  519MOL0    Cl69975   1.285   5.227  10.075 -0.0066 -0.2010 -0.0402
  519MOL0     C69976   1.884   5.791  10.106 -0.6690  1.0198  0.9849
  519MOL0     C69977   1.992   5.703  10.070 -0.0717 -0.5653 -0.9738
  519MOL0     O69978   2.139   5.494  10.322  0.6084  0.0158  0.5062
  519MOL0     C69979   2.446   5.464  10.241  0.4048 -0.1955  0.5035
  519MOL0     C69980   2.554   5.375  10.246  0.7432  0.1682 -0.9715
  519MOL0     N69981   3.011   5.520  10.238  0.1038 -0.7565 -0.8511
  519MOL0     N69982   3.123   5.573  10.280  0.4786  0.1288 -0.1677
  519MOL0     C69983   3.666   6.391   9.664  0.1507  1.0287  0.1733
  519MOL0     C69984   3.650   6.526   9.697  0.6015 -0.6508  0.4866
  519MOL0     C69985   3.536   6.880   9.970  0.0130  0.5688 -0.1817
  519MOL0     C69986   3.645   6.942   9.913 -0.1726 -0.5760  0.2363
  519MOL0     C69987   3.691   7.067   9.951 -0.4156 -0.6551  0.6078
  519MOL0     C69988   3.630   7.139  10.043 -0.2165 -0.1646 -0.6651
  519MOL0     O69989   3.689   7.250  10.085 -0.3943  0.3812  0.0449
  519MOL0     C69990   3.591   7.353  10.118 -0.1115  1.2367  0.0014
  519MOL0     C69991   3.667   7.478  10.171  0.2367 -0.0113  0.4657
  519MOL0     C69992   3.578   7.603  10.183  0.5687 -0.9512 -0.6618
  519MOL0     C69993   3.641   7.712  10.266  0.1515  0.4831  0.8925
  519MOL0     C69994   3.786   7.727  10.231 -0.3503  0.1631 -0.4099
  519MOL0     C69995   3.907   7.724  10.225  0.3003  0.3670 -0.0578
  519MOL0     C69996   3.519   7.082  10.111  0.0049  0.6449  0.8258
  519MOL0     C69997   3.466   6.955  10.070 -0.4397 -0.6628 -1.1874
  519MOL0     H69998   3.449   6.478   9.961  0.0666 -1.8314  0.1001
  519MOL0     H69999   3.503   6.239   9.909  1.8850 -1.5707 -2.1695
  519MOL0     H70000   3.649   6.054   9.873 -2.6326  0.6887  0.5698
  519MOL0     H70001   3.520   6.019   9.772  0.3333 -1.5621 -1.2024
  519MOL0     H70002   3.705   5.912   9.595  1.2577 -1.5539  0.0682
  519MOL0     H70003   3.812   5.918   9.723 -0.1601  0.0109 -1.4232
  519MOL0     H70004   3.528   5.802   9.746  0.0169 -1.1607  2.1239
  519MOL0     H70005   3.663   5.718   9.665  0.0564 -1.3004  0.6602
  519MOL0     H70006   3.816   5.700   9.848 -0.6475  0.0274 -2.6558
  519MOL0     H70007   3.723   5.835   9.929  0.4353  0.3502  0.1331
  519MOL0     H70008   3.589   5.579   9.858 -1.3905 -0.2066 -0.0366
  519MOL0     H70009   3.702   5.544   9.993 -1.0889  3.0344  5.8371
  519MOL0     H70010   3.585   5.698  10.140  1.1024  0.4052 -1.1220
  519MOL0     H70011   3.481   5.745  10.004  1.0168 -1.2568 -2.7958
  519MOL0     H70012   3.395   5.503   9.969  2.1707 -0.2353  0.2481
  519MOL0     H70013   3.468   5.457  10.121 -0.0351 -1.0575 -0.7675
  519MOL0     H70014   3.281   5.684  10.104 -0.6904  0.9387  1.2583
  519MOL0     H70015   3.371   5.654  10.247 -1.6386 -1.3182  0.5187
  519MOL0     H70016   3.233   5.321  10.085 -0.6509 -0.1445 -0.4766
  519MOL0     H70017   2.836   5.350  10.126  0.3080  0.5129  2.6124
  519MOL0     H70018   2.941   5.286   9.998  3.6094 -0.7374  0.5467
  519MOL0     H70019   2.928   5.218  10.297  3.8632  1.4608  0.9592
  519MOL0     H70020   3.047   5.147  10.198  0.3418  2.8796 -2.0578
  519MOL0     H70021   2.878   4.981  10.211 -3.4928 -2.5687 -0.7024
  519MOL0     H70022   2.895   5.048  10.045  0.7961  5.1522 -0.7161
  519MOL0     H70023   2.649   4.998  10.134  2.9607 -0.9560 -0.7997
  519MOL0     H70024   2.691   5.153  10.060  1.8137  0.6166 -0.4044
  519MOL0     H70025   2.400   5.076  10.254  0.4068 -0.0405  2.5446
  519MOL0     H70026   2.168   5.120  10.161 -0.7660 -0.4380  0.3322
  519MOL0     H70027   2.146   5.173  10.333  4.3998  2.1306  1.6449
  519MOL0     H70028   2.082   5.265  10.210 -2.2447 -2.4956 -1.9956
  519MOL0     H70029   2.219   5.791  10.306 -0.4909 -2.9767  0.4753
  519MOL0     H70030   2.067   5.960  10.346  2.6047 -2.4425  1.3116
  519MOL0     H70031   1.621   5.986  10.323 -1.4749 -1.1601 -2.2385
  519MOL0     H70032   1.649   5.878  10.196 -2.2749  0.9721  0.1582
  519MOL0     H70033   1.788   5.727  10.335  0.7568  1.8606 -1.5904
  519MOL0     H70034   1.778   5.847  10.466 -2.6031  3.0190  0.6350
  519MOL0     H70035   1.515   5.779  10.475  1.6885  1.9087 -0.5979
  519MOL0     H70036   1.643   5.692  10.554 -2.0369 -0.5204  0.6704
  519MOL0     H70037   1.668   5.535  10.369  0.4095 -1.9836  1.7981
  519MOL0     H70038   1.511   5.515  10.455  2.3581 -1.2147  0.0376
  519MOL0     H70039   1.520   5.667  10.190 -1.1375 -0.5626 -2.4705
  519MOL0     H70040   1.385   5.622  10.287  0.0011  0.3762 -1.2819
  519MOL0     H70041   1.581   5.419  10.188 -0.1619  1.2273  0.5369
  519MOL0     H70042   1.425   5.372  10.244  0.3584  0.2816  0.4246
  519MOL0     H70043   1.488   5.513   9.983 -1.5989  0.1874 -1.4828
  519MOL0     H70044   1.326   5.517  10.030  1.0649 -1.0986 -6.1047
  519MOL0     H70045   1.506   5.285   9.996  1.0909  4.1592  2.2230
  519MOL0     H70046   1.387   5.334   9.882  0.6910  1.8343 -0.0771
  519MOL0     H70047   1.789   5.786  10.054 -0.6083  3.3689  0.5562
  519MOL0     H70048   1.986   5.634   9.987  1.9844  1.7314 -3.1853
  519MOL0     H70049   2.446   5.571  10.259 -0.7913  0.2961 -1.9367
  519MOL0     H70050   2.653   5.415  10.268  1.1913  0.3819 -3.1295
  519MOL0     H70051   3.727   6.383   9.574 -1.7803 -2.5576 -0.9926
  519MOL0     H70052   3.693   6.604   9.635  2.4676  0.2269  2.7430
  519MOL0     H70053   3.708   6.900   9.836  2.0251  3.5267 -0.4513
  519MOL0     H70054   3.787   7.096   9.910  0.1932 -0.8392  1.8351
  519MOL0     H70055   3.540   7.380  10.025 -0.3337 -2.3068 -1.0607
  519MOL0     H70056   3.516   7.323  10.192  1.7081 -2.1880  0.6651
  519MOL0     H70057   3.753   7.496  10.106  1.3613 -1.5070  1.4797
  519MOL0     H70058   3.700   7.442  10.269 -1.4105 -0.3659  0.9216
  519MOL0     H70059   3.478   7.583  10.223  1.6342 -0.2862  2.5903
  519MOL0     H70060   3.558   7.634  10.080  0.1459  0.8176 -0.0722
  519MOL0     H70061   3.623   7.686  10.370  4.8569 -1.5801  1.4136
  519MOL0     H70062   3.594   7.810  10.253  2.4136  1.5733  0.4400
  519MOL0     H70063   4.013   7.720  10.235  0.4559  1.6630 -0.9345
  519MOL0     H70064   3.476   7.126  10.200  0.6397  1.0311  0.9555
  519MOL0     H70065   3.378   6.923  10.124 -0.6463  1.3477 -0.2275
  520MOL0     O70066   9.956   2.474  10.207  0.1286  0.2543  0.1739
  520MOL0     C70067  10.073   2.485  10.246  0.1985 -0.1369  0.2422
  520MOL0     O70068  10.184   2.447  10.181  0.2188  0.2830  0.2024
  520MOL0     C70069  10.174   2.388  10.059 -1.4135 -0.1007  0.6612
  520MOL0     C70070  10.150   2.249  10.058  0.0351 -0.1290 -0.6797
  520MOL0     C70071  10.152   2.178   9.937 -0.5787  0.0001  1.2026
  520MOL0     C70072  10.184   2.248   9.821 -0.0990 -0.6905 -0.1221
  520MOL0     O70073  10.188   2.189   9.693 -0.4295 -0.9327 -0.5668
  520MOL0     C70074  10.081   2.095   9.686  0.4982 -0.5503  0.2834
  520MOL0     C70075  10.052   2.048   9.544  0.2862  0.1710  0.5932
  520MOL0     C70076   9.975   1.911   9.521  0.6856 -0.3505 -0.3671
  520MOL0     C70077   9.939   1.873   9.374 -0.3440 -0.3249 -0.5122
  520MOL0     C70078   9.847   1.746   9.373 -0.4440  0.6066 -1.0205
  520MOL0     C70079   9.873   1.653   9.256 -0.2248  0.3272  0.1440
  520MOL0     C70080   9.831   1.710   9.113  0.6010  1.0001  0.6565
  520MOL0     C70081   9.877   1.605   9.009  0.6802  0.1995 -0.2131
  520MOL0     N70082   9.819   1.632   8.879 -0.5657  0.5935 -0.6725
  520MOL0     C70083   9.701   1.593   8.827  0.6650  0.4115  0.2623
  520MOL0     C70084   9.719   1.599   8.696 -0.8090 -0.1758 -0.0628
  520MOL0     C70085   9.623   1.554   8.585  0.8015  0.1244  0.9973
  520MOL0     C70086   9.476   1.542   8.619 -0.5196 -1.4298 -1.0578
  520MOL0     C70087   9.401   1.486   8.500 -0.1091 -0.1803 -0.2273
  520MOL0     C70088   9.255   1.448   8.527 -0.0688 -0.0793  0.0893
  520MOL0     O70089   9.169   1.564   8.549 -0.9671  0.0128 -0.0889
  520MOL0     C70090   9.076   1.569   8.648 -0.4017 -1.4239 -0.1981
  520MOL0     C70091   9.069   1.488   8.764 -0.0906  0.1952 -0.1759
  520MOL0     C70092   8.956   1.501   8.847 -0.4578 -0.4640  0.2830
  520MOL0     C70093   8.954   1.416   8.971 -0.1336 -0.7367  0.6372
  520MOL0     C70094   8.853   1.601   8.818 -0.1714 -0.0612  0.6408
  520MOL0     C70095   8.734   1.622   8.912 -0.6611 -0.5606  0.0798
  520MOL0     O70096   8.690   1.525   8.990  0.7070 -0.1411 -0.1952
  520MOL0     C70097   8.578   1.547   9.067  0.2126  0.6869 -0.3278
  520MOL0     C70098   8.600   1.539   9.202 -0.2261  0.6819 -0.1494
  520MOL0     C70099   8.493   1.547   9.280 -0.0132  0.1332 -0.6474
  520MOL0     C70100   8.354   1.574   9.232  0.4325 -0.7568  0.6633
  520MOL0     O70101   8.245   1.586   9.310 -0.0667  1.3537 -0.3263
  520MOL0     C70102   8.262   1.536   9.448  0.4708 -0.0222 -0.3052
  520MOL0     C70103   8.314   1.657   9.541  0.6438  0.5985 -0.2207
  520MOL0     C70104   8.225   1.776   9.550  0.7996  0.9128 -0.4283
  520MOL0     C70105   8.293   1.892   9.631 -0.1109 -0.2416  1.2792
  520MOL0     C70106   8.191   2.003   9.673  0.1460  0.5384  0.1508
  520MOL0     C70107   8.129   2.077   9.555  0.2529 -0.4676 -0.6354
  520MOL0     C70108   8.056   2.200   9.577  0.7011 -0.2889  0.5010
  520MOL0     C70109   8.124   2.322   9.517 -0.2449 -0.5080 -0.0086
  520MOL0    Cl70110   8.159   2.310   9.347 -0.4679 -0.0939  0.4482
  520MOL0     C70111   8.335   1.581   9.091 -0.7553  1.2196 -0.3292
  520MOL0     C70112   8.453   1.566   9.009  0.1208 -0.0441 -0.3273
  520MOL0     O70113   8.680   1.734   8.900 -1.9130  0.5953 -0.4268
  520MOL0     C70114   8.867   1.686   8.711  0.4169 -0.5944  0.3728
  520MOL0     C70115   8.980   1.671   8.625  0.2338 -0.1041 -0.1040
  520MOL0     N70116   9.836   1.652   8.666 -0.1000 -0.0469 -0.0355
  520MOL0     N70117   9.897   1.675   8.777  0.1010 -0.1602 -0.1429
  520MOL0     C70118  10.209   2.384   9.823 -0.0476  0.2870 -0.1771
  520MOL0     C70119  10.215   2.453   9.938  0.5480  0.7240  0.0424
  520MOL0     C70120  10.086   2.538  10.389  0.0357 -0.0569  0.6931
  520MOL0     C70121   9.980   2.569  10.472  0.5862  0.2969  0.9640
  520MOL0     C70122   9.979   2.634  10.598  0.0907 -0.8421 -0.2783
  520MOL0     C70123  10.109   2.678  10.636  0.0010 -0.1178  0.8722
  520MOL0     O70124  10.137   2.749  10.751  0.2065  0.0534 -0.7547
  520MOL0     C70125  10.052   2.784  10.864 -0.2789  0.1367  0.7626
  520MOL0     C70126  10.132   2.771  10.996  0.2439 -0.4619 -0.0894
  520MOL0     C70127  10.060   2.838  11.108 -0.4501 -0.2578  0.8115
  520MOL0     C70128   9.903   2.809  11.114 -0.3858  0.4878 -0.7367
  520MOL0     C70129   9.857   2.862  11.246 -0.7296  0.6852  0.1537
  520MOL0     C70130   9.842   2.901  11.355  0.0391 -0.5763  0.1970
  520MOL0     C70131  10.224   2.638  10.565  0.7015 -0.0767 -0.3813
  520MOL0     C70132  10.214   2.572  10.441 -0.4010  0.7801  0.4481
  520MOL0     H70133  10.127   2.193  10.148 -4.6789 -0.7798 -1.9878
  520MOL0     H70134  10.121   2.074   9.941  1.7650 -1.0059 -1.9848
  520MOL0     H70135  10.120   2.003   9.732 -1.3282 -1.9205 -0.7993
  520MOL0     H70136   9.986   2.134   9.722 -0.7495 -2.1410 -1.1261
  520MOL0     H70137  10.015   2.137   9.491  2.3727 -0.2772 -1.8068
  520MOL0     H70138  10.145   2.033   9.489 -0.8144 -0.6312 -1.1445
  520MOL0     H70139  10.036   1.840   9.576  1.4874  2.6644  3.0610
  520MOL0     H70140   9.876   1.916   9.569 -0.1999  2.4944 -2.1890
  520MOL0     H70141   9.897   1.961   9.324  1.7265  0.4848 -0.9104
  520MOL0     H70142  10.025   1.835   9.318 -1.1508 -1.5070 -0.9967
  520MOL0     H70143   9.871   1.691   9.465 -2.0193  2.7490  0.7986
  520MOL0     H70144   9.741   1.769   9.369 -0.9858 -1.0281  1.6141
  520MOL0     H70145   9.978   1.627   9.243 -0.2354  0.9280 -1.4900
  520MOL0     H70146   9.812   1.563   9.271 -0.3809  0.0117 -1.9899
  520MOL0     H70147   9.722   1.706   9.110  0.5841 -3.7244 -1.8238
  520MOL0     H70148   9.861   1.814   9.100  2.8541  0.2347 -1.0515
  520MOL0     H70149   9.832   1.509   9.038 -0.2624  1.1006  1.4656
  520MOL0     H70150   9.985   1.593   9.011  0.6772  0.1318 -0.4591
  520MOL0     H70151   9.606   1.574   8.877  0.7222 -0.0588  0.1994
  520MOL0     H70152   9.631   1.626   8.504 -0.7317  0.7727  1.3897
  520MOL0     H70153   9.667   1.459   8.551  0.0835 -0.5037  1.7846
  520MOL0     H70154   9.428   1.638   8.640 -0.7627 -1.2933 -2.1893
  520MOL0     H70155   9.470   1.496   8.718  2.4093  1.0663  0.4403
  520MOL0     H70156   9.457   1.396   8.471 -0.3967 -1.2882  2.4516
  520MOL0     H70157   9.412   1.565   8.425  0.7725 -1.5255 -1.5825
  520MOL0     H70158   9.256   1.382   8.613  3.0059  1.3448  1.2973
  520MOL0     H70159   9.218   1.403   8.434 -3.1890  2.1025  0.1227
  520MOL0     H70160   9.140   1.407   8.777 -0.9000 -0.5421 -0.2677
  520MOL0     H70161   8.888   1.331   8.952  1.2593 -1.7876  0.2853
  520MOL0     H70162   9.056   1.390   9.002 -0.4756 -0.0614  2.5056
  520MOL0     H70163   8.917   1.461   9.064  0.5386  1.2236  0.0047
  520MOL0     H70164   8.700   1.525   9.242 -0.1050  1.5105 -0.1516
  520MOL0     H70165   8.528   1.539   9.382  1.6879  1.1627 -1.1087
  520MOL0     H70166   8.173   1.504   9.501  2.7986 -0.0535  4.0245
  520MOL0     H70167   8.337   1.456   9.456 -0.6656 -1.1579 -0.6743
  520MOL0     H70168   8.328   1.622   9.643  1.3573 -0.8433 -0.7948
  520MOL0     H70169   8.416   1.687   9.514  0.6465 -1.3274 -2.7808
  520MOL0     H70170   8.136   1.748   9.606  1.0590 -0.6686 -0.7616
  520MOL0     H70171   8.193   1.807   9.450  0.6965 -1.3357 -1.1370
  520MOL0     H70172   8.339   1.851   9.721 -0.1500 -1.4622  0.7658
  520MOL0     H70173   8.381   1.926   9.577  0.7506 -3.4571  0.4521
  520MOL0     H70174   8.245   2.069   9.743 -0.5758 -0.1447  1.3949
  520MOL0     H70175   8.114   1.966   9.741  1.0094 -0.3484  0.6625
  520MOL0     H70176   8.210   2.098   9.485 -1.2278 -1.0208 -2.6111
  520MOL0     H70177   8.062   2.010   9.500 -1.1249  0.8829 -0.6907
  520MOL0     H70178   8.056   2.208   9.686  3.8256  0.4742  0.5239
  520MOL0     H70179   7.952   2.200   9.543  0.7257  3.2259  0.0581
  520MOL0     H70180   8.221   2.331   9.566 -0.0839 -0.3306 -0.3558
  520MOL0     H70181   8.061   2.412   9.526  0.9321  0.2829  0.5592
  520MOL0     H70182   8.232   1.568   9.059 -1.9825  0.7270  3.4060
  520MOL0     H70183   8.437   1.565   8.902  1.3070 -1.8482 -0.5269
  520MOL0     H70184   8.794   1.764   8.689  0.1382 -1.0973 -0.5757
  520MOL0     H70185   8.969   1.727   8.533 -0.1184 -1.7094 -1.0672
  520MOL0     H70186  10.243   2.435   9.733  0.2429 -1.0873 -0.8713
  520MOL0     H70187  10.230   2.560   9.949 -0.4833  0.8360  0.4223
  520MOL0     H70188   9.882   2.532  10.441  0.8906 -2.7516  3.2237
  520MOL0     H70189   9.897   2.658  10.664 -0.6088  1.4707 -1.8543
  520MOL0     H70190   9.996   2.877  10.851 -2.1549 -0.9542  0.5367
  520MOL0     H70191   9.972   2.709  10.861 -1.4338  1.3385  0.7481
  520MOL0     H70192  10.226   2.827  10.996 -0.5643  0.9755  0.7920
  520MOL0     H70193  10.153   2.667  11.024  0.3458 -0.1522  1.0295
  520MOL0     H70194  10.075   2.945  11.096 -2.0972 -0.2800 -2.7641
  520MOL0     H70195  10.106   2.817  11.205  0.7202  0.4834  0.4287
  520MOL0     H70196   9.893   2.700  11.108 -0.7700  0.5654 -1.7559
  520MOL0     H70197   9.845   2.837  11.025 -2.4993  2.4572  1.1375
  520MOL0     H70198   9.813   2.958  11.441  0.1962 -0.5810  0.2530
  520MOL0     H70199  10.319   2.672  10.604 -1.4779  3.8121  2.1602
  520MOL0     H70200  10.303   2.550  10.383  1.5011  1.1320  3.1071
  521MOL0     O70201   6.778   0.769  11.317 -0.0488 -0.1388  0.4536
  521MOL0     C70202   6.838   0.698  11.230 -0.0400 -0.5559 -0.0397
  521MOL0     O70203   6.973   0.673  11.226 -0.0569 -0.3404 -0.9489
  521MOL0     C70204   7.032   0.639  11.346 -0.3833  0.1024  0.7891
  521MOL0     C70205   6.965   0.568  11.451 -0.3166  0.7025 -0.0856
  521MOL0     C70206   7.040   0.533  11.565  1.2782 -0.7241 -0.2739
  521MOL0     C70207   7.171   0.575  11.581 -0.1419 -0.2595  0.0739
  521MOL0     O70208   7.232   0.545  11.700 -0.1246  1.4531  0.3702
  521MOL0     C70209   7.375   0.513  11.691 -0.0124  0.3474 -0.3684
  521MOL0     C70210   7.414   0.389  11.597  0.7584  0.2998 -0.7689
  521MOL0     C70211   7.350   0.263  11.662  0.1245 -0.5499  0.1105
  521MOL0     C70212   7.409   0.141  11.592 -0.5301 -0.2094 -0.7369
  521MOL0     C70213   7.356   0.019  11.660 -0.2879 -0.1195 -0.3107
  521MOL0     C70214   7.402  -0.124  11.608 -0.2695 -0.3573  0.4135
  521MOL0     C70215   7.363  -0.221  11.716  0.3018 -0.4161 -0.0927
  521MOL0     C70216   7.419  -0.360  11.679 -0.1947 -0.1340  0.7268
  521MOL0     N70217   7.366  -0.477  11.741 -0.3360 -0.7388 -0.1427
  521MOL0     C70218   7.421  -0.594  11.734 -0.6756 -0.0632 -0.6828
  521MOL0     C70219   7.323  -0.678  11.775 -0.2552 -0.4032 -0.3452
  521MOL0     C70220   7.330  -0.831  11.782 -1.3024  0.5429 -0.5537
  521MOL0     C70221   7.309  -0.904  11.646 -0.0942 -0.3585  0.9268
  521MOL0     C70222   7.422  -0.885  11.549  0.2826 -0.3082  0.1077
  521MOL0     C70223   7.420  -0.975  11.422 -1.5094  0.0059 -0.2640
  521MOL0     O70224   7.461  -1.111  11.459  0.6650 -0.1116 -1.5874
  521MOL0     C70225   7.516  -1.199  11.372 -0.4755 -0.2274 -0.0859
  521MOL0     C70226   7.552  -1.177  11.238 -0.2181 -0.4166 -0.6073
  521MOL0     C70227   7.596  -1.268  11.156 -1.4648  0.2211 -0.0389
  521MOL0     C70228   7.609  -1.230  11.007 -0.2246 -0.5770  0.2200
  521MOL0     C70229   7.639  -1.395  11.199  1.0576 -0.2242  0.7617
  521MOL0     C70230   7.693  -1.505  11.125 -0.0520 -0.0744 -0.1367
  521MOL0     O70231   7.816  -1.485  11.060  1.1166  0.2507  0.0204
  521MOL0     C70232   7.849  -1.560  10.951 -0.4989  0.0974  0.0886
  521MOL0     C70233   7.987  -1.549  10.929  0.5339 -0.9222 -0.4185
  521MOL0     C70234   8.045  -1.616  10.833 -0.7608  0.1290  0.5521
  521MOL0     C70235   7.973  -1.717  10.761 -0.6422  0.1808 -0.2013
  521MOL0     O70236   8.022  -1.800  10.662 -0.0353 -0.4124  0.0800
  521MOL0     C70237   8.150  -1.764  10.610 -0.2413  1.1860 -0.5469
  521MOL0     C70238   8.186  -1.845  10.487  0.1473  0.9820 -0.8422
  521MOL0     C70239   8.225  -1.994  10.510 -0.4008  0.0417  0.0434
  521MOL0     C70240   8.291  -2.042  10.378  0.4540 -0.3123 -0.5100
  521MOL0     C70241   8.382  -2.172  10.372  0.8282  0.1689  0.3300
  521MOL0     C70242   8.302  -2.307  10.354 -0.0164  0.1412 -0.4730
  521MOL0     C70243   8.265  -2.331  10.209 -0.6212 -0.0140 -0.6582
  521MOL0     C70244   8.145  -2.422  10.188 -1.0995  0.3977  0.0935
  521MOL0    Cl70245   7.990  -2.341  10.224  0.3143 -0.5630  0.7121
  521MOL0     C70246   7.841  -1.732  10.779 -0.1410 -0.0798  0.9213
  521MOL0     C70247   7.776  -1.650  10.871  0.4352  0.2317  0.8205
  521MOL0     O70248   7.618  -1.603  11.122 -0.4778  0.9597 -0.3594
  521MOL0     C70249   7.611  -1.422  11.334  0.2501 -0.2084 -0.1791
  521MOL0     C70250   7.552  -1.326  11.414 -0.2577 -0.3589 -0.5827
  521MOL0     N70251   7.217  -0.604  11.812  0.1770  0.1971 -0.6538
  521MOL0     N70252   7.246  -0.481  11.786  0.4132  0.4060 -0.4827
  521MOL0     C70253   7.234   0.646  11.478 -0.4481  0.8250 -0.3873
  521MOL0     C70254   7.165   0.683  11.364  0.0343 -0.3788 -0.8047
  521MOL0     C70255   6.751   0.632  11.122 -0.5625  0.5557  0.8644
  521MOL0     C70256   6.791   0.508  11.069 -0.0216 -0.2935  0.1882
  521MOL0     C70257   6.710   0.454  10.966 -0.1685  0.1514  0.0108
  521MOL0     C70258   6.594   0.516  10.920  0.0632 -0.1652 -0.5929
  521MOL0     O70259   6.514   0.460  10.826  0.5092  0.0765  0.2015
  521MOL0     C70260   6.540   0.326  10.793  0.1145  0.0767  0.2723
  521MOL0     C70261   6.468   0.220  10.887  0.0058 -1.3940  0.5492
  521MOL0     C70262   6.474   0.080  10.824 -0.3512 -0.1964  0.0990
  521MOL0     C70263   6.456  -0.037  10.928 -0.3546 -1.1421 -0.5249
  521MOL0     C70264   6.340  -0.011  11.018  0.0922  0.7986 -0.8223
  521MOL0     C70265   6.249   0.011  11.101  0.6958 -0.0266 -0.0567
  521MOL0     C70266   6.572   0.643  10.962 -0.5106  0.0099 -0.7336
  521MOL0     C70267   6.646   0.702  11.060 -0.5323 -0.9609  0.0249
  521MOL0     H70268   6.864   0.530  11.437  0.1098 -1.8959  2.8600
  521MOL0     H70269   6.996   0.473  11.644 -0.9372  1.3117  0.1267
  521MOL0     H70270   7.418   0.606  11.654 -0.0236  0.8168  0.7561
  521MOL0     H70271   7.407   0.488  11.792  0.9135  1.4952 -0.3583
  521MOL0     H70272   7.376   0.396  11.495 -0.2279 -1.6475 -0.5881
  521MOL0     H70273   7.523   0.388  11.590  0.7938 -1.1113 -0.4348
  521MOL0     H70274   7.378   0.267  11.767  0.5990 -1.8092  0.0491
  521MOL0     H70275   7.241   0.258  11.654  0.1404 -0.6751 -0.0478
  521MOL0     H70276   7.386   0.144  11.485  3.6152 -0.9319 -1.8430
  521MOL0     H70277   7.518   0.146  11.601 -0.6290  1.7227 -0.0194
  521MOL0     H70278   7.373   0.035  11.767 -1.7255 -0.6217  0.0173
  521MOL0     H70279   7.250   0.015  11.633 -0.3587  0.6880 -0.1788
  521MOL0     H70280   7.360  -0.147  11.510 -0.4463  1.5767  0.0012
  521MOL0     H70281   7.511  -0.131  11.601 -0.4834 -4.5254 -1.3518
  521MOL0     H70282   7.416  -0.172  11.799  1.9608  0.9479 -1.8822
  521MOL0     H70283   7.256  -0.223  11.739  0.4002  1.0283  0.5946
  521MOL0     H70284   7.527  -0.348  11.696 -0.4771 -0.1276  2.7691
  521MOL0     H70285   7.414  -0.388  11.573 -0.1831 -4.6300  1.7095
  521MOL0     H70286   7.521  -0.628  11.706  0.4494  0.2693  2.4597
  521MOL0     H70287   7.425  -0.857  11.830 -1.8891 -0.3443  0.1516
  521MOL0     H70288   7.250  -0.875  11.841 -0.0472 -1.6660 -0.4128
  521MOL0     H70289   7.217  -0.877  11.593  1.5031  1.1625 -1.2750
  521MOL0     H70290   7.304  -1.011  11.667 -0.3949 -0.4045  0.6299
  521MOL0     H70291   7.525  -0.902  11.583  2.1404 -1.6655 -5.2493
  521MOL0     H70292   7.414  -0.779  11.523  0.5277  0.0134  1.2644
  521MOL0     H70293   7.503  -0.938  11.363  0.5362 -2.8751  0.5631
  521MOL0     H70294   7.320  -0.983  11.378 -0.8098 -1.4558 -1.6680
  521MOL0     H70295   7.507  -1.092  11.188  0.5169  1.8540  2.3381
  521MOL0     H70296   7.672  -1.297  10.949  0.0825 -0.0597 -0.0507
  521MOL0     H70297   7.509  -1.238  10.964  0.3833  0.5050 -1.4933
  521MOL0     H70298   7.658  -1.132  10.997 -1.3285 -0.1027 -0.7764
  521MOL0     H70299   8.052  -1.478  10.979 -1.3066  0.7605 -0.2920
  521MOL0     H70300   8.153  -1.614  10.819 -0.8113 -0.4378  0.0850
  521MOL0     H70301   8.144  -1.659  10.582  0.5935  1.5707  0.6143
  521MOL0     H70302   8.225  -1.778  10.688 -0.6861 -1.4562 -0.4983
  521MOL0     H70303   8.109  -1.830  10.411  1.0437  3.0002 -1.4275
  521MOL0     H70304   8.276  -1.794  10.450  1.2697 -0.7160 -0.5878
  521MOL0     H70305   8.139  -2.055  10.541 -2.3888  3.1993  1.2509
  521MOL0     H70306   8.308  -1.991  10.582 -0.8015 -0.9904  0.5746
  521MOL0     H70307   8.207  -2.042  10.307 -2.7087 -1.4682  2.8748
  521MOL0     H70308   8.361  -1.969  10.338  1.3642 -0.8250  0.1302
  521MOL0     H70309   8.445  -2.179  10.462 -0.4399 -0.7053  1.1708
  521MOL0     H70310   8.443  -2.161  10.281 -1.8607  0.6239 -1.5231
  521MOL0     H70311   8.374  -2.384  10.382  1.6292  0.8787 -2.3835
  521MOL0     H70312   8.211  -2.307  10.414  1.1865  2.0918  1.4843
  521MOL0     H70313   8.351  -2.377  10.160 -0.5916  0.2379 -0.8463
  521MOL0     H70314   8.249  -2.244  10.145  2.7509 -0.1444 -1.8438
  521MOL0     H70315   8.167  -2.515  10.241  2.0568  0.1023 -1.5216
  521MOL0     H70316   8.156  -2.463  10.088  3.1230 -3.2604  1.7227
  521MOL0     H70317   7.789  -1.803  10.716  0.6957  0.0741  0.0244
  521MOL0     H70318   7.668  -1.653  10.884  0.2762  0.8262 -0.3083
  521MOL0     H70319   7.639  -1.512  11.389  0.9742  0.9256  1.3814
  521MOL0     H70320   7.523  -1.354  11.515 -2.4677  1.2285 -0.7002
  521MOL0     H70321   7.340   0.668  11.483 -0.1161 -0.7493 -0.1296
  521MOL0     H70322   7.214   0.741  11.286  0.0429 -0.4731 -0.8710
  521MOL0     H70323   6.876   0.448  11.100  1.6628  0.2311 -2.9491
  521MOL0     H70324   6.739   0.354  10.936 -3.6225 -0.7542 -0.6229
  521MOL0     H70325   6.496   0.301  10.696  0.3304 -0.9025  0.4095
  521MOL0     H70326   6.644   0.293  10.786 -0.0993 -0.8137  1.0402
  521MOL0     H70327   6.369   0.261  10.908 -0.0455  0.4746 -2.6005
  521MOL0     H70328   6.514   0.230  10.986 -3.1489 -1.1858  2.1398
  521MOL0     H70329   6.570   0.064  10.774 -0.7491  0.1704 -0.8026
  521MOL0     H70330   6.388   0.068  10.758 -2.2518  1.2063  2.1779
  521MOL0     H70331   6.552  -0.047  10.978 -0.9720 -0.4817  0.8423
  521MOL0     H70332   6.431  -0.119  10.860 -2.8054  1.1327 -2.6119
  521MOL0     H70333   6.184   0.024  11.185 -1.8891  2.5575 -2.2401
  521MOL0     H70334   6.489   0.705  10.930  0.8782  1.5121 -1.5471
  521MOL0     H70335   6.624   0.799  11.104  0.7346 -1.4133  1.7589
  522MOL0     O70336   3.055   5.529   1.833  0.2616  0.0933  0.4442
  522MOL0     C70337   3.026   5.449   1.924  0.9030 -0.9939 -0.0104
  522MOL0     O70338   2.976   5.480   2.044  0.0030 -0.2425 -0.4345
  522MOL0     C70339   2.929   5.602   2.088 -0.2365  0.3217  0.4245
  522MOL0     C70340   2.953   5.635   2.223  0.3609 -0.5757 -0.6165
  522MOL0     C70341   2.919   5.761   2.270  0.3639  0.5133 -0.0013
  522MOL0     C70342   2.851   5.855   2.186 -0.1209  0.0446  0.6274
  522MOL0     O70343   2.833   5.993   2.224  0.0736  0.5606 -0.8978
  522MOL0     C70344   2.763   6.002   2.351  0.3025  0.9337 -0.3094
  522MOL0     C70345   2.615   5.950   2.351 -1.1668  0.0305  0.3241
  522MOL0     C70346   2.523   5.992   2.236  0.1237 -0.3947  0.1538
  522MOL0     C70347   2.487   6.141   2.242  0.2485 -1.0151 -0.1189
  522MOL0     C70348   2.557   6.239   2.146  0.0912 -0.3038 -1.0930
  522MOL0     C70349   2.501   6.380   2.154  0.1651 -0.1170 -1.6149
  522MOL0     C70350   2.594   6.486   2.071 -0.0414  0.4663  0.1496
  522MOL0     C70351   2.628   6.456   1.919  0.2264  0.1710 -0.3278
  522MOL0     N70352   2.677   6.572   1.846 -1.1334  0.5361  1.1210
  522MOL0     C70353   2.745   6.557   1.727  0.2231  0.5947  0.4954
  522MOL0     C70354   2.737   6.671   1.653 -0.2680  0.7165  0.0463
  522MOL0     C70355   2.770   6.692   1.507  0.7163  0.1874  0.6470
  522MOL0     C70356   2.867   6.809   1.493 -0.5834  0.1430  1.4809
  522MOL0     C70357   2.905   6.807   1.345 -0.7821 -0.1230 -0.2532
  522MOL0     C70358   3.001   6.912   1.323 -0.5902 -0.4527  1.1624
  522MOL0     O70359   3.125   6.896   1.386 -0.8399  0.9794  0.3786
  522MOL0     C70360   3.222   6.992   1.374  0.3658  0.3174  0.7819
  522MOL0     C70361   3.214   7.103   1.283  0.0342  0.6498  0.5709
  522MOL0     C70362   3.304   7.209   1.292  0.1107  0.4664  1.2436
  522MOL0     C70363   3.298   7.307   1.176 -0.9226 -0.8593  0.2317
  522MOL0     C70364   3.408   7.207   1.393  0.1247 -0.2815 -0.1006
  522MOL0     C70365   3.482   7.329   1.421  0.2251 -0.8408 -0.7494
  522MOL0     O70366   3.609   7.319   1.447  1.2866 -0.3987 -0.4458
  522MOL0     C70367   3.692   7.424   1.481 -0.0277 -0.0763 -0.5284
  522MOL0     C70368   3.681   7.485   1.607  0.3638 -0.6622 -0.9724
  522MOL0     C70369   3.760   7.596   1.648 -0.5276 -0.1142 -0.0129
  522MOL0     C70370   3.850   7.642   1.551 -1.4825 -1.3637  0.5236
  522MOL0     O70371   3.947   7.739   1.593  0.2367 -0.4047  0.1833
  522MOL0     C70372   3.899   7.873   1.574 -0.2581 -0.9189 -0.2183
  522MOL0     C70373   3.968   7.977   1.669  0.1717  0.7136  0.4119
  522MOL0     C70374   3.924   7.951   1.810 -0.0569  0.9779  0.4271
  522MOL0     C70375   3.967   8.060   1.907 -0.1173 -0.4021 -0.0065
  522MOL0     C70376   3.949   8.026   2.055 -0.0586 -0.0969 -0.0496
  522MOL0     C70377   4.027   8.111   2.145 -0.9589  0.1970  1.0851
  522MOL0     C70378   3.983   8.248   2.139  0.2959 -0.7771 -0.2277
  522MOL0     C70379   3.931   8.303   2.272  0.2524 -0.5273 -0.1628
  522MOL0    Cl70380   3.783   8.214   2.317  0.1904  0.1034 -0.4830
  522MOL0     C70381   3.860   7.581   1.426  0.7433 -0.6342  0.4015
  522MOL0     C70382   3.774   7.483   1.383 -0.1004  0.2202  0.4788
  522MOL0     O70383   3.414   7.431   1.430 -0.7051 -0.4269  0.2276
  522MOL0     C70384   3.418   7.099   1.485  0.2363  0.0284 -0.9081
  522MOL0     C70385   3.325   6.992   1.465  0.5295  0.3734 -0.2329
  522MOL0     N70386   2.667   6.760   1.730  0.5208 -0.0678  0.1579
  522MOL0     N70387   2.635   6.701   1.843 -0.6636  0.3194 -0.4582
  522MOL0     C70388   2.820   5.814   2.047 -0.0247  0.2391 -0.0351
  522MOL0     C70389   2.844   5.681   2.011  0.7893 -0.4539  0.2056
  522MOL0     C70390   3.047   5.310   1.890 -0.6261  0.9265  0.1394
  522MOL0     C70391   3.075   5.277   1.748 -1.0700 -0.3289  0.1188
  522MOL0     C70392   3.105   5.140   1.714 -0.5419 -0.2970 -0.5733
  522MOL0     C70393   3.089   5.042   1.818 -0.1954 -1.0140  0.5860
  522MOL0     O70394   3.112   4.914   1.775 -1.0537  0.0339 -0.7335
  522MOL0     C70395   3.160   4.811   1.858  0.6426 -0.5243 -0.5515
  522MOL0     C70396   3.270   4.731   1.778  0.4352  0.6343  0.4907
  522MOL0     C70397   3.366   4.652   1.870  0.5111 -0.2352 -0.1188
  522MOL0     C70398   3.414   4.510   1.822  0.4331 -0.9225 -0.5779
  522MOL0     C70399   3.468   4.520   1.682  0.0419 -0.1532  0.3161
  522MOL0     C70400   3.507   4.550   1.572 -0.1841  0.3301  0.6336
  522MOL0     C70401   3.063   5.075   1.949 -1.0186 -0.0399  0.2698
  522MOL0     C70402   3.039   5.213   1.986  0.2118  0.3283  0.6116
  522MOL0     H70403   3.013   5.574   2.290  2.0560  3.1326  1.5328
  522MOL0     H70404   2.936   5.785   2.374  1.8538 -0.7906  0.0862
  522MOL0     H70405   2.830   5.964   2.429  2.2903  0.3177 -2.2255
  522MOL0     H70406   2.760   6.111   2.359 -0.2396  1.0213 -1.6335
  522MOL0     H70407   2.628   5.842   2.341  4.6839  0.2449  2.0391
  522MOL0     H70408   2.571   5.978   2.447 -0.4389 -3.6717  1.9009
  522MOL0     H70409   2.552   5.958   2.136  2.5024 -1.0629  1.0065
  522MOL0     H70410   2.435   5.931   2.260  1.3847 -1.1757  3.2450
  522MOL0     H70411   2.382   6.152   2.215  0.5848 -0.8382 -1.4342
  522MOL0     H70412   2.487   6.172   2.347 -6.2899 -1.1633  0.3065
  522MOL0     H70413   2.660   6.250   2.181 -0.9990  0.7308  2.2151
  522MOL0     H70414   2.550   6.198   2.045  0.0983 -0.8684 -0.8654
  522MOL0     H70415   2.395   6.381   2.127  0.3335  2.6663 -2.4250
  522MOL0     H70416   2.506   6.419   2.256 -1.2034  0.2074 -1.6584
  522MOL0     H70417   2.538   6.579   2.059 -0.0327  0.3160 -1.1902
  522MOL0     H70418   2.684   6.502   2.130  1.1289 -2.5677 -0.5858
  522MOL0     H70419   2.539   6.411   1.874  0.4375  0.3689 -0.9522
  522MOL0     H70420   2.704   6.377   1.924 -0.4772 -0.4473  2.7444
  522MOL0     H70421   2.784   6.461   1.695 -1.0173  0.4981 -0.8243
  522MOL0     H70422   2.813   6.602   1.463 -0.0161 -0.9577  2.1654
  522MOL0     H70423   2.672   6.705   1.460  1.4306  0.1736 -0.8907
  522MOL0     H70424   2.961   6.789   1.545  0.7385  1.0055 -0.4368
  522MOL0     H70425   2.818   6.902   1.525 -0.6559  0.9711 -0.8040
  522MOL0     H70426   2.812   6.819   1.289 -0.7852 -0.9690 -0.4307
  522MOL0     H70427   2.949   6.710   1.320  0.8900  0.5943 -0.1912
  522MOL0     H70428   2.952   7.009   1.336  1.0634  0.5985  0.0106
  522MOL0     H70429   3.016   6.896   1.215 -1.4859  2.1796  0.5763
  522MOL0     H70430   3.143   7.116   1.202  1.7033 -0.6872 -1.1975
  522MOL0     H70431   3.381   7.378   1.184 -0.3795 -1.3938 -0.5275
  522MOL0     H70432   3.294   7.270   1.073 -0.8582 -0.6890  0.1671
  522MOL0     H70433   3.210   7.368   1.198  0.8825  1.5621  1.1613
  522MOL0     H70434   3.615   7.438   1.678  1.8574 -1.1804  0.1150
  522MOL0     H70435   3.762   7.639   1.747  3.1328 -0.7442  0.3254
  522MOL0     H70436   3.919   7.909   1.472  0.1209  1.1467  0.5419
  522MOL0     H70437   3.792   7.874   1.593 -0.2031 -3.2270  0.5623
  522MOL0     H70438   4.077   7.976   1.657 -0.0191 -1.4483 -1.9410
  522MOL0     H70439   3.942   8.079   1.639  0.1601  0.9404  1.1757
  522MOL0     H70440   3.963   7.859   1.855 -1.3745  0.4300  0.4770
  522MOL0     H70441   3.815   7.945   1.805 -0.0291 -1.4528  1.4824
  522MOL0     H70442   4.067   8.094   1.880 -0.5871 -1.3681 -3.5426
  522MOL0     H70443   3.895   8.142   1.899 -1.7236 -0.9569  5.1802
  522MOL0     H70444   3.999   7.929   2.060 -1.4519 -0.8931 -0.9571
  522MOL0     H70445   3.842   8.030   2.077  0.2013  1.2815  1.1542
  522MOL0     H70446   4.032   8.089   2.252  0.8424  2.7103  1.6221
  522MOL0     H70447   4.130   8.111   2.108 -0.4498 -1.2751  2.4367
  522MOL0     H70448   3.906   8.268   2.064 -0.2890  4.0246  1.2725
  522MOL0     H70449   4.067   8.316   2.117 -3.3205  4.1793 -0.3866
  522MOL0     H70450   3.914   8.411   2.261  2.8359  0.4812  3.8238
  522MOL0     H70451   4.001   8.293   2.355  1.3965 -1.8167 -1.2331
  522MOL0     H70452   3.939   7.603   1.355 -2.1316  0.0299 -2.8618
  522MOL0     H70453   3.760   7.447   1.281 -0.7046 -1.2424  1.0527
  522MOL0     H70454   3.496   7.106   1.560 -0.6824  3.1132 -0.0610
  522MOL0     H70455   3.343   6.911   1.536 -0.6759 -0.8177 -1.2189
  522MOL0     H70456   2.763   5.882   1.985 -0.5819  0.0302  0.2404
  522MOL0     H70457   2.810   5.651   1.912 -3.5556 -2.2100  1.9575
  522MOL0     H70458   3.078   5.359   1.676  1.1197 -0.9804 -0.6326
  522MOL0     H70459   3.121   5.117   1.609  1.5188  1.6016 -0.7284
  522MOL0     H70460   3.196   4.836   1.959  2.1449  3.0517 -1.7802
  522MOL0     H70461   3.066   4.757   1.867  0.1928  0.1957 -0.8114
  522MOL0     H70462   3.323   4.795   1.707  0.2477  1.5227  1.1258
  522MOL0     H70463   3.219   4.657   1.717  4.5232 -1.7234 -0.4176
  522MOL0     H70464   3.330   4.646   1.973 -1.5306  2.5716 -0.5508
  522MOL0     H70465   3.454   4.716   1.885  1.0794 -0.4914 -1.9941
  522MOL0     H70466   3.331   4.439   1.815  1.7919 -2.5064 -1.3991
  522MOL0     H70467   3.473   4.457   1.897 -1.0167 -0.2250  1.1445
  522MOL0     H70468   3.526   4.584   1.472 -1.5874 -0.3266  0.1058
  522MOL0     H70469   3.065   4.992   2.018  1.3184 -0.4104 -0.1509
  522MOL0     H70470   3.016   5.242   2.088 -2.7425  2.5845 -0.5257
  523MOL0     O70471   5.176   3.492   3.328  0.7211 -0.0969 -0.8452
  523MOL0     C70472   5.249   3.583   3.380 -0.0435 -0.5768  0.0395
  523MOL0     O70473   5.383   3.574   3.398 -0.0724 -1.0094 -0.1655
  523MOL0     C70474   5.440   3.455   3.366 -1.2312  0.4274 -0.3894
  523MOL0     C70475   5.512   3.444   3.244  0.1978 -0.5696 -1.0309
  523MOL0     C70476   5.570   3.328   3.210 -0.0624  1.2154 -0.0809
  523MOL0     C70477   5.566   3.217   3.293 -0.3230  0.4249  0.3872
  523MOL0     O70478   5.621   3.096   3.270 -0.3561 -0.5179 -0.2056
  523MOL0     C70479   5.720   3.091   3.169  0.8466 -0.1349 -0.1677
  523MOL0     C70480   5.785   2.953   3.171  1.0683  0.7988 -0.0601
  523MOL0     C70481   5.920   2.947   3.102  0.6405  0.4187 -0.2872
  523MOL0     C70482   5.891   2.913   2.956  0.4322  0.6258 -0.0009
  523MOL0     C70483   6.029   2.916   2.886 -0.6464 -0.6244  0.5767
  523MOL0     C70484   6.017   2.850   2.740 -0.8493 -0.0317  0.7968
  523MOL0     C70485   6.157   2.832   2.663  0.3323  0.3086  0.3670
  523MOL0     C70486   6.275   2.781   2.748  0.4144  0.0106  0.5053
  523MOL0     N70487   6.328   2.891   2.832  0.9167  0.7879  0.0082
  523MOL0     C70488   6.355   3.018   2.791  0.2489  0.6388  0.3555
  523MOL0     C70489   6.408   3.085   2.899 -0.3476  0.2819 -0.5862
  523MOL0     C70490   6.476   3.216   2.901  0.4265  0.7048 -0.0119
  523MOL0     C70491   6.379   3.324   2.952 -0.1579  0.1700  0.0801
  523MOL0     C70492   6.436   3.467   2.926  0.3656  0.7140 -0.1533
  523MOL0     C70493   6.559   3.482   3.019  0.9715  0.0323 -0.8973
  523MOL0     O70494   6.590   3.619   3.010 -0.5713 -0.7713  0.1226
  523MOL0     C70495   6.627   3.690   3.125 -0.1739  0.5316  0.5457
  523MOL0     C70496   6.555   3.692   3.241  0.1621 -0.2363 -0.1869
  523MOL0     C70497   6.588   3.762   3.354 -0.6758 -0.5967  1.5262
  523MOL0     C70498   6.491   3.747   3.472 -0.4522  0.3702  0.9526
  523MOL0     C70499   6.704   3.847   3.350  0.5545 -0.6456 -0.3194
  523MOL0     C70500   6.745   3.936   3.466 -0.2433 -0.2712  0.3498
  523MOL0     O70501   6.660   3.976   3.570 -0.2851  0.3098 -0.3398
  523MOL0     C70502   6.707   4.004   3.692 -0.8587  0.6888 -0.3130
  523MOL0     C70503   6.638   4.100   3.761 -0.8533 -0.4713 -0.4899
  523MOL0     C70504   6.664   4.126   3.899 -0.0894  0.8317 -0.5173
  523MOL0     C70505   6.747   4.038   3.975  0.4995 -0.4840  1.0928
  523MOL0     O70506   6.740   4.064   4.113 -0.0935 -0.1420 -0.6697
  523MOL0     C70507   6.741   3.941   4.198 -0.0681 -0.7818  0.4534
  523MOL0     C70508   6.861   3.954   4.299 -0.4670 -1.1456  0.1910
  523MOL0     C70509   6.866   3.846   4.408 -0.3035 -0.3568 -0.0528
  523MOL0     C70510   6.849   3.702   4.360 -1.1618 -0.9627 -0.0588
  523MOL0     C70511   6.942   3.672   4.237  0.9202  0.9069 -0.1869
  523MOL0     C70512   6.953   3.530   4.180 -0.1397 -0.8197 -0.2851
  523MOL0     C70513   6.824   3.480   4.112  0.3260  0.3558 -0.1095
  523MOL0     C70514   6.724   3.397   4.205 -0.2226  0.6259  0.4273
  523MOL0    Cl70515   6.805   3.259   4.287  0.0421  0.0219  0.3552
  523MOL0     C70516   6.816   3.942   3.901  0.9317 -0.1193 -0.0319
  523MOL0     C70517   6.805   3.929   3.762 -0.6327  0.7870 -0.5446
  523MOL0     O70518   6.854   3.989   3.454  0.2704 -0.2829 -0.2549
  523MOL0     C70519   6.784   3.842   3.233  0.9363 -0.1672  0.2031
  523MOL0     C70520   6.743   3.757   3.118 -0.1367  0.3235  0.0369
  523MOL0     N70521   6.411   2.991   3.003  0.5418 -0.2368  0.6926
  523MOL0     N70522   6.355   2.879   2.965 -0.0958  0.3607 -0.5106
  523MOL0     C70523   5.512   3.234   3.422 -1.2030  0.7218 -0.1321
  523MOL0     C70524   5.445   3.349   3.457  0.1975 -0.5021  0.3262
  523MOL0     C70525   5.190   3.726   3.400  0.0621 -0.3234  0.1591
  523MOL0     C70526   5.048   3.741   3.392 -0.3937 -0.7818  0.4413
  523MOL0     C70527   4.990   3.865   3.424 -0.8372 -0.1289  0.3004
  523MOL0     C70528   5.078   3.980   3.468 -0.6750  0.0869 -0.4345
  523MOL0     O70529   5.048   4.112   3.488  0.6996 -0.4510 -0.7408
  523MOL0     C70530   4.944   4.163   3.408  0.4195  0.3266 -0.0682
  523MOL0     C70531   4.975   4.309   3.408  0.0773 -0.3406  0.3953
  523MOL0     C70532   4.888   4.395   3.305  0.0709 -0.8185  0.0832
  523MOL0     C70533   4.927   4.541   3.278 -0.1816  0.6997 -0.3175
  523MOL0     C70534   4.941   4.622   3.401  0.4121  0.5287 -1.2650
  523MOL0     C70535   4.960   4.681   3.511  0.4104  1.0517  0.0925
  523MOL0     C70536   5.213   3.955   3.473 -0.4661  0.4238 -0.1586
  523MOL0     C70537   5.270   3.833   3.434 -0.2893 -0.0832  1.0419
  523MOL0     H70538   5.518   3.532   3.181  1.0872 -1.2535 -1.9482
  523MOL0     H70539   5.625   3.333   3.116  0.1700  2.2195  0.0988
  523MOL0     H70540   5.681   3.116   3.070  0.5895 -1.8860 -0.5503
  523MOL0     H70541   5.798   3.165   3.187  2.4325 -1.9724  0.9742
  523MOL0     H70542   5.803   2.919   3.274 -3.2663 -0.0656  0.6078
  523MOL0     H70543   5.710   2.885   3.130 -1.2379  2.9657  0.3148
  523MOL0     H70544   5.983   3.035   3.113  2.5222 -1.0692  1.6701
  523MOL0     H70545   5.977   2.859   3.134 -0.1930 -0.6281 -1.5557
  523MOL0     H70546   5.847   2.813   2.954 -2.0674  1.6525 -2.0655
  523MOL0     H70547   5.826   2.986   2.906 -2.5931 -0.4800  2.0388
  523MOL0     H70548   6.060   3.021   2.887  1.4539 -1.1328  3.4656
  523MOL0     H70549   6.099   2.854   2.942  1.7323 -0.0240 -1.5181
  523MOL0     H70550   5.976   2.749   2.740 -1.8192  0.3416  1.6918
  523MOL0     H70551   5.952   2.913   2.679 -2.2689  0.1817  2.4424
  523MOL0     H70552   6.144   2.749   2.594  1.2207  1.2426 -0.9684
  523MOL0     H70553   6.173   2.927   2.611 -0.4532  0.6513  0.7236
  523MOL0     H70554   6.358   2.752   2.683 -0.2202  3.2020 -2.0100
  523MOL0     H70555   6.240   2.694   2.805  2.1570 -0.7424  0.4662
  523MOL0     H70556   6.331   3.064   2.695 -0.6009 -1.7017 -0.6149
  523MOL0     H70557   6.566   3.205   2.963  0.8635  0.9095 -0.5987
  523MOL0     H70558   6.501   3.240   2.797 -1.0994  0.9213 -0.3487
  523MOL0     H70559   6.363   3.326   3.060 -5.0856 -1.6787 -0.3704
  523MOL0     H70560   6.276   3.309   2.920  0.2047 -1.2494 -0.5034
  523MOL0     H70561   6.362   3.547   2.934  1.6661  1.9212  0.2370
  523MOL0     H70562   6.474   3.485   2.825  2.3229 -0.0859  0.3909
  523MOL0     H70563   6.637   3.421   2.972  2.3790 -1.3828  2.8733
  523MOL0     H70564   6.541   3.440   3.119 -1.3807  1.5759 -0.5972
  523MOL0     H70565   6.461   3.638   3.232 -0.2576  0.5790 -0.7665
  523MOL0     H70566   6.432   3.656   3.462  0.1893  0.1077 -0.7148
  523MOL0     H70567   6.551   3.732   3.563  1.4292 -0.9435 -0.4178
  523MOL0     H70568   6.431   3.838   3.483  2.5036  2.2512  3.3995
  523MOL0     H70569   6.563   4.151   3.702  1.8557  3.1588 -1.1439
  523MOL0     H70570   6.605   4.187   3.967  0.8578 -1.8679  3.0622
  523MOL0     H70571   6.640   3.935   4.238 -0.7837 -1.1972 -1.3191
  523MOL0     H70572   6.764   3.848   4.144 -1.7607 -0.2263 -1.3574
  523MOL0     H70573   6.947   3.958   4.232  0.2310  0.3836  1.1343
  523MOL0     H70574   6.859   4.048   4.355  0.6811 -0.9637 -0.0650
  523MOL0     H70575   6.780   3.866   4.472 -0.2574  1.8243 -0.6105
  523MOL0     H70576   6.957   3.850   4.468 -0.5768  1.0232  0.2864
  523MOL0     H70577   6.864   3.623   4.435 -2.0232 -2.2339 -1.1710
  523MOL0     H70578   6.743   3.688   4.338 -1.8317 -1.5610  3.0322
  523MOL0     H70579   7.035   3.721   4.269  1.1232  1.4242 -1.4871
  523MOL0     H70580   6.923   3.724   4.142  0.1020 -3.1125 -2.4255
  523MOL0     H70581   7.035   3.533   4.107 -0.8148  0.3886 -1.0211
  523MOL0     H70582   6.991   3.464   4.260 -0.1874 -1.3595 -0.7012
  523MOL0     H70583   6.859   3.436   4.018  1.4518  3.0717 -1.0443
  523MOL0     H70584   6.763   3.569   4.090 -0.1990  0.3153  1.0635
  523MOL0     H70585   6.634   3.353   4.160 -0.9648 -3.6355  5.2132
  523MOL0     H70586   6.684   3.459   4.286 -3.7130  0.5770 -1.0564
  523MOL0     H70587   6.890   3.890   3.960  1.4742 -1.6969 -1.9783
  523MOL0     H70588   6.854   3.851   3.704  1.9116  1.0302  1.1093
  523MOL0     H70589   6.877   3.897   3.231  1.2027 -0.6037  0.5350
  523MOL0     H70590   6.799   3.739   3.026 -1.3273  1.2060 -0.8824
  523MOL0     H70591   5.543   3.155   3.489 -0.3832 -0.9348 -2.3367
  523MOL0     H70592   5.413   3.359   3.561  1.9089 -1.1333  0.9493
  523MOL0     H70593   4.990   3.654   3.363  0.5929 -1.1587 -0.4825
  523MOL0     H70594   4.883   3.877   3.430 -0.9012  0.7782 -1.8744
  523MOL0     H70595   4.934   4.113   3.311  1.8631  0.5380 -0.3478
  523MOL0     H70596   4.845   4.144   3.451 -1.2687  0.4755 -3.5442
  523MOL0     H70597   5.082   4.320   3.385 -0.1932 -1.7997 -1.9061
  523MOL0     H70598   4.979   4.356   3.506  1.7350 -1.4774  0.9224
  523MOL0     H70599   4.781   4.382   3.322  0.3505 -2.8300  0.4473
  523MOL0     H70600   4.898   4.342   3.211 -1.1293 -0.9527  0.0208
  523MOL0     H70601   4.857   4.579   3.204  1.7441 -0.5079 -2.9557
  523MOL0     H70602   5.021   4.541   3.221 -0.4878  0.2673 -0.8259
  523MOL0     H70603   4.965   4.741   3.599  3.2509 -0.4804  1.0923
  523MOL0     H70604   5.270   4.037   3.516  0.7182 -0.8818  0.8205
  523MOL0     H70605   5.376   3.816   3.418 -0.0086  2.6500 -0.7134
  524MOL0     O70606   4.801   7.325   1.598  0.4915 -0.3995  0.3638
  524MOL0     C70607   4.716   7.396   1.640  0.5428 -0.2829  0.5004
  524MOL0     O70608   4.697   7.528   1.608  0.3318 -0.2166  0.1688
  524MOL0     C70609   4.798   7.610   1.559 -1.1700  0.6082 -0.1150
  524MOL0     C70610   4.939   7.592   1.550  0.1089  0.1395  0.0187
  524MOL0     C70611   5.029   7.680   1.491  0.4581 -0.6846  0.2564
  524MOL0     C70612   4.969   7.808   1.442 -0.7057 -0.3748  0.3728
  524MOL0     O70613   5.044   7.907   1.376  0.7426 -0.3918 -0.5183
  524MOL0     C70614   5.143   7.970   1.460  0.7418  0.0287  0.4860
  524MOL0     C70615   5.263   8.002   1.362 -0.0070 -0.2159  0.4622
  524MOL0     C70616   5.399   8.023   1.432 -0.7051 -0.6269  0.2815
  524MOL0     C70617   5.516   8.010   1.335  0.2679  0.7688  0.2231
  524MOL0     C70618   5.655   7.992   1.407  0.1351 -0.3961 -0.2982
  524MOL0     C70619   5.761   7.974   1.307 -0.0001  0.7794  0.0679
  524MOL0     C70620   5.901   7.964   1.371  0.2610  0.8182  0.2337
  524MOL0     C70621   5.938   8.078   1.468 -0.2084  0.1317 -0.0787
  524MOL0     N70622   6.083   8.079   1.504  0.4651  0.3936 -0.4375
  524MOL0     C70623   6.152   7.977   1.573 -0.3810 -0.5732 -0.6151
  524MOL0     C70624   6.282   8.011   1.574 -0.3333  0.2449 -0.8489
  524MOL0     C70625   6.398   7.952   1.650 -0.2508 -0.2442 -0.4330
  524MOL0     C70626   6.453   7.821   1.598  0.9202  0.3945 -0.3920
  524MOL0     C70627   6.584   7.765   1.666  0.3630 -0.9472 -0.1289
  524MOL0     C70628   6.668   7.675   1.587 -0.3846  0.4918  0.1454
  524MOL0     O70629   6.726   7.721   1.458 -0.4685 -0.8469 -0.4221
  524MOL0     C70630   6.756   7.628   1.359  0.0075 -0.7321 -0.2579
  524MOL0     C70631   6.736   7.494   1.354  0.2852  0.3270  0.6347
  524MOL0     C70632   6.765   7.415   1.236  0.2772 -0.8797 -1.0047
  524MOL0     C70633   6.756   7.267   1.259 -0.1005 -0.9892 -0.5520
  524MOL0     C70634   6.809   7.480   1.126  0.8397 -0.1101 -0.2924
  524MOL0     C70635   6.844   7.404   0.994 -0.2037  0.3895  0.0839
  524MOL0     O70636   6.840   7.475   0.873 -0.1929  0.1430  0.8011
  524MOL0     C70637   6.897   7.410   0.763  0.1458 -0.6948  0.2383
  524MOL0     C70638   7.034   7.425   0.751 -0.8691  0.6391  0.7816
  524MOL0     C70639   7.102   7.361   0.648  0.0416 -0.4863  0.1130
  524MOL0     C70640   7.035   7.290   0.547  0.4452 -0.0088 -0.5990
  524MOL0     O70641   7.118   7.248   0.447  0.1005  0.0801  0.4889
  524MOL0     C70642   7.124   7.109   0.425 -0.4632  0.1001 -0.0573
  524MOL0     C70643   7.188   7.068   0.296  0.5875 -0.1180 -0.1240
  524MOL0     C70644   7.240   6.918   0.307  0.8806 -0.4023 -0.5863
  524MOL0     C70645   7.268   6.852   0.173  1.0903 -0.0207 -0.2728
  524MOL0     C70646   7.407   6.898   0.124 -1.6341 -0.3677 -0.0410
  524MOL0     C70647   7.525   6.817   0.190  0.6712  0.6695 -0.3977
  524MOL0     C70648   7.668   6.856   0.139  0.1703  1.1550  0.5790
  524MOL0     C70649   7.776   6.759   0.163 -1.0642  0.3010 -0.1923
  524MOL0    Cl70650   7.937   6.849   0.139  0.6964  0.0086  0.2238
  524MOL0     C70651   6.895   7.275   0.560 -0.3607 -0.0557  0.5409
  524MOL0     C70652   6.827   7.338   0.662  0.2417 -0.5253  0.2651
  524MOL0     O70653   6.886   7.289   0.999  0.4105 -0.5480  0.4928
  524MOL0     C70654   6.832   7.626   1.121 -0.0862  1.8082  0.2382
  524MOL0     C70655   6.795   7.694   1.235  1.4984 -0.4065 -0.0012
  524MOL0     N70656   6.298   8.126   1.506 -0.0561  0.3761  0.2740
  524MOL0     N70657   6.184   8.164   1.463  1.0419 -0.2182 -0.4659
  524MOL0     C70658   4.833   7.830   1.446  0.0049 -0.4288  0.7256
  524MOL0     C70659   4.746   7.732   1.499 -0.3873 -0.0751  1.3063
  524MOL0     C70660   4.614   7.350   1.736  0.6443 -0.2454 -0.2118
  524MOL0     C70661   4.524   7.443   1.802 -0.4304 -0.0703 -0.3033
  524MOL0     C70662   4.426   7.392   1.886 -0.0419  0.3751 -1.5381
  524MOL0     C70663   4.409   7.252   1.900 -1.0391  0.6271  1.2164
  524MOL0     O70664   4.307   7.205   1.972  0.5405  0.5259  0.7493
  524MOL0     C70665   4.271   7.060   1.970  0.1952 -0.7131 -0.4072
  524MOL0     C70666   4.175   7.053   2.086 -0.9013  0.5563  0.0930
  524MOL0     C70667   4.107   6.917   2.085 -0.1232 -0.1783  0.5448
  524MOL0     C70668   4.015   6.905   2.212  0.0747  0.6755 -0.0334
  524MOL0     C70669   4.091   6.887   2.335  0.0348 -0.3104  0.6237
  524MOL0     C70670   4.138   6.874   2.449  0.1519  0.3926 -0.3405
  524MOL0     C70671   4.493   7.159   1.827  0.5106 -0.7289  0.4172
  524MOL0     C70672   4.594   7.215   1.748  0.8067 -0.4316 -0.0375
  524MOL0     H70673   4.970   7.497   1.593 -1.0835  0.3478  1.3845
  524MOL0     H70674   5.135   7.654   1.484  0.5907  0.1953 -1.4585
  524MOL0     H70675   5.086   8.054   1.503 -1.1799 -1.3827  0.8162
  524MOL0     H70676   5.175   7.910   1.546 -0.9688  1.8917  2.5671
  524MOL0     H70677   5.280   7.906   1.312  2.3178  0.2702  0.2025
  524MOL0     H70678   5.228   8.074   1.288  1.0687 -0.7936 -0.6495
  524MOL0     H70679   5.407   8.118   1.487 -0.5683  1.3422 -2.8683
  524MOL0     H70680   5.415   7.944   1.506  2.0417 -0.6999 -0.3020
  524MOL0     H70681   5.510   7.914   1.283  0.0791 -1.0207  3.2519
  524MOL0     H70682   5.512   8.093   1.265 -1.2187  1.3646  0.9658
  524MOL0     H70683   5.675   8.087   1.457 -1.6193  1.1587 -2.3777
  524MOL0     H70684   5.646   7.923   1.492  1.9325  0.2649  0.4766
  524MOL0     H70685   5.742   7.884   1.248 -0.6876  2.5309 -2.5426
  524MOL0     H70686   5.756   8.058   1.238 -4.9230  0.3822 -0.4328
  524MOL0     H70687   5.912   7.872   1.429  0.9708  0.2976 -0.7012
  524MOL0     H70688   5.970   7.960   1.286 -1.2153  1.1598 -1.0157
  524MOL0     H70689   5.886   8.082   1.564 -0.2073 -1.8912  0.0578
  524MOL0     H70690   5.913   8.169   1.413 -0.0652 -0.4913 -1.2224
  524MOL0     H70691   6.111   7.891   1.624  0.0444  0.4941  1.6449
  524MOL0     H70692   6.485   8.017   1.642  1.5170 -2.6107 -1.4625
  524MOL0     H70693   6.383   7.961   1.758  1.6629  2.4186 -0.3036
  524MOL0     H70694   6.480   7.830   1.492  0.4001 -1.3611 -0.7177
  524MOL0     H70695   6.377   7.742   1.600 -1.1495  2.2694 -1.5164
  524MOL0     H70696   6.540   7.721   1.756  1.7711  2.1561  2.2215
  524MOL0     H70697   6.655   7.836   1.706  0.1140 -0.5552 -0.3754
  524MOL0     H70698   6.604   7.590   1.561 -0.6543  1.5426 -3.1119
  524MOL0     H70699   6.747   7.639   1.653  0.7025  2.1302 -0.2046
  524MOL0     H70700   6.701   7.440   1.441  1.2352 -2.6292 -0.7037
  524MOL0     H70701   6.854   7.223   1.281 -0.1255 -0.5232  0.5511
  524MOL0     H70702   6.685   7.260   1.342 -2.7272  3.4683 -2.0639
  524MOL0     H70703   6.721   7.220   1.167  0.6658 -0.5787 -1.0573
  524MOL0     H70704   7.088   7.482   0.826 -1.5742  0.4462  1.4559
  524MOL0     H70705   7.208   7.371   0.627 -0.6229  1.0865 -3.3042
  524MOL0     H70706   7.157   7.057   0.515 -0.7934  0.1715  0.1072
  524MOL0     H70707   7.022   7.072   0.419 -1.2887  1.8032  1.9147
  524MOL0     H70708   7.111   7.080   0.219 -0.0108  2.8892  0.8204
  524MOL0     H70709   7.274   7.133   0.276 -0.3577  0.4768 -2.6695
  524MOL0     H70710   7.156   6.860   0.346 -1.0995  0.8809 -2.6539
  524MOL0     H70711   7.318   6.904   0.382  1.8701 -0.8758 -1.6823
  524MOL0     H70712   7.266   6.743   0.181  3.3454 -0.0541  0.6044
  524MOL0     H70713   7.192   6.887   0.102 -0.9114 -1.0869  1.2547
  524MOL0     H70714   7.427   6.998   0.164  3.0591 -1.8492  1.9993
  524MOL0     H70715   7.406   6.897   0.015 -1.8284  6.2820 -0.5435
  524MOL0     H70716   7.522   6.817   0.299  0.0673 -1.6540 -0.3562
  524MOL0     H70717   7.512   6.708   0.182  0.5815  0.4559  1.9913
  524MOL0     H70718   7.695   6.945   0.196 -1.6480  1.4778  0.9897
  524MOL0     H70719   7.672   6.882   0.032  2.9311  1.4080  0.6584
  524MOL0     H70720   7.774   6.674   0.094 -1.7486  0.2391 -0.1065
  524MOL0     H70721   7.770   6.725   0.267  1.3367  0.6229  0.1111
  524MOL0     H70722   6.845   7.216   0.483  3.0263 -0.3854 -1.6034
  524MOL0     H70723   6.722   7.313   0.671 -0.7447  1.4244 -3.6067
  524MOL0     H70724   6.868   7.663   1.026  0.3177 -2.2952 -1.4323
  524MOL0     H70725   6.802   7.803   1.237 -2.0157 -0.0787  0.3317
  524MOL0     H70726   4.792   7.917   1.396  1.9145 -1.2773 -2.5835
  524MOL0     H70727   4.639   7.741   1.484 -0.3131 -0.6353  0.3224
  524MOL0     H70728   4.521   7.551   1.790  1.8901  0.1113  0.2937
  524MOL0     H70729   4.348   7.457   1.925 -0.3572  0.5546 -2.4475
  524MOL0     H70730   4.218   7.036   1.878 -1.3345  1.7965 -0.2788
  524MOL0     H70731   4.363   7.003   1.988 -0.7600 -2.0017  0.5093
  524MOL0     H70732   4.101   7.133   2.078 -2.0706 -0.2603  2.2040
  524MOL0     H70733   4.219   7.078   2.183 -1.7850  0.1839  0.5987
  524MOL0     H70734   4.186   6.847   2.115  3.7649  5.0707  4.6554
  524MOL0     H70735   4.053   6.892   1.993 -0.6184 -1.2060  1.0920
  524MOL0     H70736   3.953   6.816   2.194 -2.0700  1.9061  0.8216
  524MOL0     H70737   3.947   6.990   2.223 -2.2747 -1.2474  1.2010
  524MOL0     H70738   4.179   6.874   2.548  1.6390 -3.1744 -0.8279
  524MOL0     H70739   4.487   7.051   1.828  2.7433 -0.9463 -1.1404
  524MOL0     H70740   4.658   7.141   1.700 -2.2542 -4.8367  1.9479
  525MOL0     O70741   7.681   5.984   1.406  0.4250 -0.4879 -0.7439
  525MOL0     C70742   7.571   5.997   1.364  0.9872  1.1066  0.4285
  525MOL0     O70743   7.509   6.114   1.341  0.7287 -0.6032  0.8071
  525MOL0     C70744   7.573   6.230   1.376 -0.3291  0.2366  0.3689
  525MOL0     C70745   7.588   6.325   1.272  0.3698  0.0301 -0.1315
  525MOL0     C70746   7.670   6.439   1.284  0.2385 -0.0128 -0.1653
  525MOL0     C70747   7.691   6.480   1.418 -0.2652  1.0536 -0.2728
  525MOL0     O70748   7.748   6.599   1.458  0.0956  0.6104 -0.3279
  525MOL0     C70749   7.680   6.718   1.405  0.0014  0.4863  0.0229
  525MOL0     C70750   7.532   6.715   1.441 -0.8729 -0.2560 -0.3425
  525MOL0     C70751   7.505   6.734   1.600  1.4627 -0.2256  0.2843
  525MOL0     C70752   7.367   6.681   1.624 -0.2067  0.4627  0.2291
  525MOL0     C70753   7.295   6.734   1.756  0.0821 -0.1366 -0.3968
  525MOL0     C70754   7.296   6.892   1.758  0.2794  0.7857  0.0493
  525MOL0     C70755   7.185   6.964   1.845  0.3967 -0.1311 -0.0442
  525MOL0     C70756   7.218   6.955   1.988 -0.3189  0.5393 -0.4498
  525MOL0     N70757   7.172   6.821   2.043 -0.5419 -0.3730  0.0104
  525MOL0     C70758   7.201   6.782   2.172  0.3761  0.3284 -0.2784
  525MOL0     C70759   7.107   6.699   2.201 -1.7390  0.4717 -1.2483
  525MOL0     C70760   7.083   6.623   2.337  0.5750 -0.9254 -0.8565
  525MOL0     C70761   7.174   6.504   2.346 -0.8831 -0.3975 -0.2145
  525MOL0     C70762   7.155   6.399   2.459  1.4572 -0.2551 -0.0871
  525MOL0     C70763   7.024   6.310   2.455 -0.4165 -0.3373  1.2228
  525MOL0     O70764   6.898   6.375   2.459 -0.4315 -0.3104 -0.1805
  525MOL0     C70765   6.818   6.324   2.366  0.8269  0.3715  0.1896
  525MOL0     C70766   6.794   6.387   2.239  0.6099 -0.5097 -0.1651
  525MOL0     C70767   6.696   6.342   2.152  0.2735 -0.4887  0.8176
  525MOL0     C70768   6.665   6.433   2.034  0.0837  0.8025 -0.2005
  525MOL0     C70769   6.638   6.220   2.178 -0.0574 -0.2605  0.1175
  525MOL0     C70770   6.550   6.152   2.085  0.2932  0.0110 -0.0477
  525MOL0     O70771   6.442   6.083   2.134 -0.0642  0.1968 -0.0659
  525MOL0     C70772   6.344   6.045   2.040 -0.2363  0.1577  0.7286
  525MOL0     C70773   6.338   5.914   1.981 -0.7013  0.1202 -0.1403
  525MOL0     C70774   6.238   5.888   1.886 -0.7796  0.1075 -0.9593
  525MOL0     C70775   6.133   5.984   1.867  0.0062  0.5730 -0.8450
  525MOL0     O70776   6.027   5.968   1.782  0.1978  0.2404  0.2239
  525MOL0     C70777   5.997   5.831   1.726  0.3813 -0.9967 -1.2300
  525MOL0     C70778   6.098   5.787   1.625 -0.1989  0.2662  0.5017
  525MOL0     C70779   6.125   5.639   1.626 -0.1826 -0.1437 -1.3527
  525MOL0     C70780   5.998   5.562   1.585 -0.9948 -0.5255  0.0791
  525MOL0     C70781   6.018   5.422   1.559  0.3628  0.8653  0.8114
  525MOL0     C70782   5.889   5.364   1.488 -0.7546 -0.2806 -0.3771
  525MOL0     C70783   5.919   5.222   1.434 -0.9800 -0.5844 -0.0826
  525MOL0     C70784   5.811   5.160   1.350  0.3696 -0.8219 -0.8248
  525MOL0    Cl70785   5.813   4.986   1.337 -0.2536 -0.1175  0.4185
  525MOL0     C70786   6.133   6.105   1.936  0.1032  0.0996 -0.0923
  525MOL0     C70787   6.245   6.134   2.009  0.3502 -0.1859 -0.6337
  525MOL0     O70788   6.579   6.162   1.969 -0.9673  0.1918  0.5663
  525MOL0     C70789   6.674   6.148   2.295 -0.4033 -0.2540  0.3942
  525MOL0     C70790   6.771   6.193   2.383  0.1256 -0.4129  0.5108
  525MOL0     N70791   7.013   6.694   2.095 -0.1986  0.9126 -0.5033
  525MOL0     N70792   7.055   6.767   2.003 -0.1734 -0.3038 -0.2902
  525MOL0     C70793   7.671   6.395   1.529 -0.0092 -0.0603  1.5671
  525MOL0     C70794   7.622   6.266   1.502 -0.1340  0.6758 -0.4143
  525MOL0     C70795   7.480   5.880   1.348  0.2354  0.2598 -0.0755
  525MOL0     C70796   7.528   5.743   1.368 -0.6071 -0.2229 -0.6853
  525MOL0     C70797   7.446   5.633   1.335 -0.2469  0.1968  0.3995
  525MOL0     C70798   7.309   5.664   1.302  0.1539  0.4081  0.7112
  525MOL0     O70799   7.223   5.559   1.284 -0.7971 -0.2411  0.1530
  525MOL0     C70800   7.203   5.517   1.146 -0.0460 -0.0495  0.2379
  525MOL0     C70801   7.059   5.479   1.127  0.5124 -0.3853 -0.2567
  525MOL0     C70802   7.047   5.422   0.984 -0.1765 -0.0687 -0.0906
  525MOL0     C70803   6.923   5.472   0.917 -0.6652 -0.5462 -0.6319
  525MOL0     C70804   6.805   5.407   0.975 -0.7116  0.0086 -0.5739
  525MOL0     C70805   6.732   5.330   1.030  0.0603  0.8338 -1.2734
  525MOL0     C70806   7.259   5.788   1.324  0.6058 -0.9636 -0.2373
  525MOL0     C70807   7.346   5.895   1.342  0.8583  0.2329 -0.2517
  525MOL0     H70808   7.553   6.307   1.171 -1.6163 -1.8113  0.8027
  525MOL0     H70809   7.689   6.509   1.203  0.2548  1.4020  1.0155
  525MOL0     H70810   7.737   6.800   1.449 -0.0750 -0.0879  1.2156
  525MOL0     H70811   7.693   6.731   1.297 -0.7703  0.6328 -0.0600
  525MOL0     H70812   7.487   6.806   1.401 -0.6053 -0.0813 -0.2496
  525MOL0     H70813   7.481   6.626   1.402 -1.1899 -0.1082 -0.2637
  525MOL0     H70814   7.579   6.682   1.660  2.5906  2.0855  1.0258
  525MOL0     H70815   7.503   6.843   1.611  3.4315 -0.2033  0.7289
  525MOL0     H70816   7.311   6.718   1.537  0.8961  1.9514  0.1111
  525MOL0     H70817   7.377   6.573   1.617  2.5352  0.6998 -0.6029
  525MOL0     H70818   7.198   6.683   1.752  0.2414 -0.4556 -0.1949
  525MOL0     H70819   7.343   6.702   1.849  0.8094 -0.8639 -1.0191
  525MOL0     H70820   7.394   6.932   1.786 -0.6268  2.4735  1.0090
  525MOL0     H70821   7.275   6.920   1.654 -0.9824 -0.5662 -0.1007
  525MOL0     H70822   7.193   7.071   1.827 -1.0853  0.6128  2.9885
  525MOL0     H70823   7.080   6.939   1.827 -0.4401  2.9022  0.0538
  525MOL0     H70824   7.170   7.033   2.049 -0.6741 -1.8518  2.6099
  525MOL0     H70825   7.322   6.976   2.013 -0.6843 -2.3771  5.4193
  525MOL0     H70826   7.282   6.828   2.227 -0.6655  3.0220 -0.8546
  525MOL0     H70827   7.116   6.689   2.418 -0.0433 -2.8307  1.0299
  525MOL0     H70828   6.981   6.585   2.351  0.2013  0.2298 -0.2218
  525MOL0     H70829   7.267   6.558   2.365 -1.9426  2.2947 -2.0349
  525MOL0     H70830   7.161   6.448   2.252 -0.9906  1.9996 -1.7187
  525MOL0     H70831   7.158   6.442   2.560 -0.2558 -0.1176 -0.0637
  525MOL0     H70832   7.239   6.331   2.443  1.7332  0.1221 -0.2608
  525MOL0     H70833   7.025   6.236   2.535 -2.2743 -2.4875 -0.5997
  525MOL0     H70834   7.033   6.249   2.365  0.4188  0.9563  0.3945
  525MOL0     H70835   6.851   6.475   2.210  2.2335 -0.9865  1.3251
  525MOL0     H70836   6.708   6.405   1.937 -0.6177  1.1473 -0.6227
  525MOL0     H70837   6.558   6.457   2.030  0.3952  2.1677 -1.1648
  525MOL0     H70838   6.711   6.531   2.051  1.4890  0.2163 -0.5003
  525MOL0     H70839   6.402   5.830   2.005  1.1914  1.8712  1.2908
  525MOL0     H70840   6.246   5.791   1.838  0.5335 -1.4000  2.0052
  525MOL0     H70841   6.002   5.755   1.805  3.2688 -1.6272 -1.9025
  525MOL0     H70842   5.906   5.820   1.667 -0.3231 -2.0579 -0.0210
  525MOL0     H70843   6.078   5.806   1.519  0.4852  0.2254  0.3555
  525MOL0     H70844   6.193   5.840   1.641  0.5709  0.0413 -2.6671
  525MOL0     H70845   6.154   5.602   1.725 -2.0828  1.2512 -0.1887
  525MOL0     H70846   6.202   5.613   1.554 -0.8724 -2.6478 -1.2672
  525MOL0     H70847   5.923   5.570   1.665 -0.3612  2.0221  0.4915
  525MOL0     H70848   5.951   5.598   1.493 -0.5504 -2.4431 -0.9588
  525MOL0     H70849   6.018   5.374   1.657 -5.7664 -1.0974  0.2714
  525MOL0     H70850   6.102   5.397   1.494  1.6278 -1.9786  3.3071
  525MOL0     H70851   5.801   5.353   1.551  0.5108 -2.0404  1.1896
  525MOL0     H70852   5.860   5.443   1.418 -0.6532  0.5261  0.4612
  525MOL0     H70853   5.934   5.161   1.523 -0.9093  0.8449  0.9285
  525MOL0     H70854   6.014   5.216   1.380 -0.7098  4.4348 -0.7242
  525MOL0     H70855   5.813   5.207   1.251 -0.1400  2.9033  0.7483
  525MOL0     H70856   5.724   5.198   1.404  2.9405  2.2930  1.5194
  525MOL0     H70857   6.040   6.162   1.938 -1.5502 -2.4777  0.4397
  525MOL0     H70858   6.229   6.227   2.064 -4.5467 -0.5449 -0.9549
  525MOL0     H70859   6.639   6.048   2.320 -2.6108 -0.1146 -1.6920
  525MOL0     H70860   6.795   6.148   2.479  0.1064  2.4222  1.9519
  525MOL0     H70861   7.691   6.434   1.628 -0.9711  1.7076  1.1166
  525MOL0     H70862   7.606   6.190   1.577  0.6925 -0.6594 -1.5358
  525MOL0     H70863   7.631   5.727   1.399  0.2130  3.4589 -0.9947
  525MOL0     H70864   7.490   5.533   1.329  1.3244  0.9143 -1.6102
  525MOL0     H70865   7.227   5.596   1.073 -2.1159 -0.9490 -1.5448
  525MOL0     H70866   7.269   5.432   1.129  1.1978  0.2544  3.0530
  525MOL0     H70867   6.996   5.567   1.141 -1.3129 -1.5198 -1.0351
  525MOL0     H70868   7.033   5.398   1.195  2.5630  0.4060  1.5979
  525MOL0     H70869   7.045   5.313   0.979 -0.8961 -0.0024 -2.7330
  525MOL0     H70870   7.121   5.474   0.922 -4.1060  3.5108 -2.3293
  525MOL0     H70871   6.927   5.433   0.815 -1.6288 -1.8692 -0.1899
  525MOL0     H70872   6.913   5.581   0.915  4.1156  0.1460  1.1898
  525MOL0     H70873   6.666   5.252   1.063  0.9918  0.6076  0.1660
  525MOL0     H70874   7.152   5.802   1.313  0.3653 -2.8000 -0.5143
  525MOL0     H70875   7.300   5.993   1.340  0.5925  0.0985 -1.0029
  526MOL0     O70876   8.812   8.310   3.388 -0.0622  0.7142  0.3911
  526MOL0     C70877   8.771   8.415   3.449  0.6730  0.6935 -0.1410
  526MOL0     O70878   8.638   8.435   3.483  0.5980 -0.1387 -0.6565
  526MOL0     C70879   8.570   8.339   3.416 -0.1338 -0.2301 -0.3658
  526MOL0     C70880   8.542   8.358   3.277  0.7289  0.0625 -0.0854
  526MOL0     C70881   8.446   8.275   3.207 -0.6194 -0.3592 -0.5014
  526MOL0     C70882   8.383   8.171   3.277  0.4298 -0.3983  1.1792
  526MOL0     O70883   8.299   8.075   3.217 -0.3266  0.2662 -0.4726
  526MOL0     C70884   8.314   8.022   3.083 -0.6030  0.4904  0.3050
  526MOL0     C70885   8.246   7.882   3.078  0.3239 -0.3760 -0.0317
  526MOL0     C70886   8.297   7.770   3.166 -0.7597 -0.1250  0.0822
  526MOL0     C70887   8.242   7.632   3.131 -0.8625 -0.9168 -0.5860
  526MOL0     C70888   8.306   7.554   3.022  0.6507  0.6519 -0.3644
  526MOL0     C70889   8.232   7.413   3.001 -0.7529 -0.8165  0.4999
  526MOL0     C70890   8.256   7.313   3.118 -0.6837 -0.1101 -0.9839
  526MOL0     C70891   8.182   7.185   3.083 -0.3819  1.6487  0.1014
  526MOL0     N70892   8.192   7.086   3.197  0.1109  0.1681  0.2303
  526MOL0     C70893   8.300   7.010   3.247  0.2541 -0.5272  0.7056
  526MOL0     C70894   8.249   6.938   3.345  0.3858  0.7246 -0.9188
  526MOL0     C70895   8.320   6.829   3.430 -0.0239 -0.5886 -0.2247
  526MOL0     C70896   8.472   6.826   3.417  0.0519  0.2753 -0.5488
  526MOL0     C70897   8.504   6.727   3.296 -0.1765 -0.2586  0.5939
  526MOL0     C70898   8.640   6.768   3.237  0.5171  1.0298  0.5427
  526MOL0     O70899   8.626   6.867   3.138  0.2403 -0.1005  0.0631
  526MOL0     C70900   8.583   6.838   3.007  0.1950 -0.5167  0.2194
  526MOL0     C70901   8.554   6.714   2.952  0.7752  0.1273 -0.1014
  526MOL0     C70902   8.508   6.691   2.824 -0.3218 -0.1228 -0.2647
  526MOL0     C70903   8.492   6.548   2.784 -0.8338 -0.7092  0.5600
  526MOL0     C70904   8.478   6.800   2.738 -0.8026  0.0876 -0.2046
  526MOL0     C70905   8.412   6.797   2.616  0.4982 -0.9102 -0.2232
  526MOL0     O70906   8.473   6.867   2.509  0.0822 -0.1099  0.0489
  526MOL0     C70907   8.418   6.883   2.388  0.2708  0.3887 -0.4971
  526MOL0     C70908   8.368   7.007   2.348 -0.0939 -0.5153 -0.1151
  526MOL0     C70909   8.317   7.025   2.219 -0.8077 -0.5124  0.2763
  526MOL0     C70910   8.329   6.927   2.125  0.6237  0.1429 -0.1043
  526MOL0     O70911   8.277   6.930   1.998  0.3240 -0.3944  0.4149
  526MOL0     C70912   8.187   7.036   1.956 -0.9214 -0.0041 -0.3675
  526MOL0     C70913   8.137   7.005   1.821 -0.3822  1.2266  0.1019
  526MOL0     C70914   8.056   7.123   1.771  0.3225  0.6389  0.6496
  526MOL0     C70915   7.925   7.088   1.687  0.1495  0.1391 -0.1249
  526MOL0     C70916   7.850   7.209   1.636 -0.4435  0.2280  0.3224
  526MOL0     C70917   7.730   7.165   1.547  0.3935 -0.3743  0.3294
  526MOL0     C70918   7.667   7.289   1.468 -0.2519 -0.1167  0.1193
  526MOL0     C70919   7.524   7.264   1.425  0.0742 -0.2456 -0.5551
  526MOL0    Cl70920   7.503   7.105   1.375 -0.1214 -0.0197 -0.2409
  526MOL0     C70921   8.396   6.805   2.154 -0.0821 -0.7943 -0.2829
  526MOL0     C70922   8.426   6.784   2.293  1.0628  0.8792 -0.6433
  526MOL0     O70923   8.316   6.729   2.607  0.5135 -1.0615  0.0487
  526MOL0     C70924   8.510   6.927   2.787  0.5752 -0.2608 -0.1097
  526MOL0     C70925   8.563   6.943   2.912 -0.9693  1.1800  0.6918
  526MOL0     N70926   8.118   6.973   3.369 -0.3755 -0.2202 -0.5959
  526MOL0     N70927   8.087   7.062   3.284 -0.6643 -0.1428  0.0676
  526MOL0     C70928   8.394   8.164   3.418  0.1799 -0.4813  0.4067
  526MOL0     C70929   8.477   8.256   3.484  0.2384 -0.1433 -1.3193
  526MOL0     C70930   8.874   8.519   3.494  0.3488 -0.0129 -0.0326
  526MOL0     C70931   8.836   8.641   3.550 -0.3220 -0.1501  0.2674
  526MOL0     C70932   8.925   8.736   3.580  1.1707 -0.3789  0.1639
  526MOL0     C70933   9.062   8.725   3.553  0.3825 -0.6779  1.2797
  526MOL0     O70934   9.142   8.830   3.574  0.1508 -0.2095 -0.4960
  526MOL0     C70935   9.163   8.873   3.713  0.3594 -0.8030  0.1134
  526MOL0     C70936   9.265   8.783   3.780  0.6827 -0.2499  0.8443
  526MOL0     C70937   9.290   8.821   3.926  0.8800  0.6306 -0.7443
  526MOL0     C70938   9.313   8.697   4.022  0.4130  0.4308 -0.0192
  526MOL0     C70939   9.282   8.730   4.161  0.1891 -0.5846  0.9227
  526MOL0     C70940   9.276   8.776   4.277 -0.4201  0.6463  0.1524
  526MOL0     C70941   9.108   8.601   3.502  0.6985  0.4230 -0.2992
  526MOL0     C70942   9.011   8.502   3.462 -0.3003  0.3918  0.4920
  526MOL0     H70943   8.595   8.441   3.232  1.0109  0.6620  1.3006
  526MOL0     H70944   8.422   8.282   3.102  1.1276  1.0241 -0.8539
  526MOL0     H70945   8.275   8.089   3.005  1.6650 -0.0538 -1.3928
  526MOL0     H70946   8.419   8.004   3.059 -1.0356 -0.9755 -0.6150
  526MOL0     H70947   8.140   7.903   3.091  0.2149  1.4540 -2.8213
  526MOL0     H70948   8.241   7.845   2.975 -0.3945  0.4813 -0.3298
  526MOL0     H70949   8.406   7.764   3.159 -0.4662  1.3711  2.4061
  526MOL0     H70950   8.269   7.790   3.270  0.0570 -0.7951  0.4461
  526MOL0     H70951   8.226   7.575   3.224 -1.1975 -0.4258 -0.3395
  526MOL0     H70952   8.140   7.655   3.101 -0.6870 -1.0638 -1.3184
  526MOL0     H70953   8.305   7.606   2.926  2.2292 -1.8352 -1.8489
  526MOL0     H70954   8.410   7.529   3.046  0.1226 -1.8080 -0.3497
  526MOL0     H70955   8.123   7.423   3.008 -0.9363 -2.4371  0.3309
  526MOL0     H70956   8.262   7.381   2.901  1.6161 -2.4827  1.6330
  526MOL0     H70957   8.361   7.289   3.136 -0.8566  0.6156  1.3453
  526MOL0     H70958   8.218   7.352   3.212 -1.6470 -2.6194 -0.2398
  526MOL0     H70959   8.208   7.143   2.985  2.4929  2.9282  0.2166
  526MOL0     H70960   8.074   7.198   3.067 -0.0708  1.4108 -2.7018
  526MOL0     H70961   8.405   7.008   3.220 -0.1645 -0.2313 -1.1060
  526MOL0     H70962   8.301   6.857   3.534 -1.2517  1.7363 -0.9921
  526MOL0     H70963   8.277   6.731   3.409 -2.2505  0.5314 -1.3278
  526MOL0     H70964   8.507   6.769   3.503 -0.5278 -0.0331 -0.5197
  526MOL0     H70965   8.536   6.914   3.405  2.0332 -0.8106  1.2419
  526MOL0     H70966   8.425   6.739   3.221  1.3798  0.9761 -0.9253
  526MOL0     H70967   8.515   6.623   3.327  0.4315 -0.1577  0.7296
  526MOL0     H70968   8.667   6.670   3.195 -3.3777  0.4442 -0.9963
  526MOL0     H70969   8.711   6.796   3.315  0.3001 -0.1664  1.1938
  526MOL0     H70970   8.548   6.622   3.010  1.2511 -2.8483 -4.3269
  526MOL0     H70971   8.386   6.521   2.787 -1.3905  1.2169 -0.2253
  526MOL0     H70972   8.531   6.526   2.684 -0.8279  1.7162 -0.0425
  526MOL0     H70973   8.533   6.479   2.858  0.8604 -1.2527 -0.8176
  526MOL0     H70974   8.351   7.081   2.426 -1.8330 -0.5856 -0.3954
  526MOL0     H70975   8.289   7.128   2.197  0.3986 -0.6970 -2.5382
  526MOL0     H70976   8.103   7.033   2.026 -1.1340  1.2736 -0.5347
  526MOL0     H70977   8.236   7.134   1.957 -1.1187  0.1172  1.3840
  526MOL0     H70978   8.227   6.991   1.760 -1.6412  1.6185 -1.9524
  526MOL0     H70979   8.086   6.909   1.811 -1.7770  1.9232  0.2841
  526MOL0     H70980   8.114   7.184   1.701 -1.8541  2.2943  0.1830
  526MOL0     H70981   8.007   7.179   1.850 -2.2556 -0.8065  0.1956
  526MOL0     H70982   7.949   7.022   1.603  0.1314 -0.1863  0.1240
  526MOL0     H70983   7.858   7.032   1.753  0.7580 -0.3812  0.0673
  526MOL0     H70984   7.909   7.282   1.581 -1.1680  1.2047  0.8097
  526MOL0     H70985   7.805   7.262   1.720  0.6565  0.2164  0.9281
  526MOL0     H70986   7.769   7.088   1.479  2.3869 -1.3174  2.4056
  526MOL0     H70987   7.655   7.123   1.615 -0.8406  4.9971  2.7854
  526MOL0     H70988   7.717   7.316   1.375 -1.0309  0.6749 -0.0862
  526MOL0     H70989   7.660   7.381   1.527 -1.5300  1.9018 -2.8990
  526MOL0     H70990   7.506   7.334   1.343  0.5380  2.7521  1.7174
  526MOL0     H70991   7.465   7.287   1.515  0.8485  0.2306 -0.1638
  526MOL0     H70992   8.424   6.729   2.082  4.4692  0.4922 -0.1801
  526MOL0     H70993   8.468   6.686   2.316 -1.6519 -0.4397 -0.9431
  526MOL0     H70994   8.503   7.011   2.719 -1.1390 -1.9956 -2.2148
  526MOL0     H70995   8.580   7.046   2.941  1.2362  1.4687 -1.2445
  526MOL0     H70996   8.334   8.099   3.480 -0.8865  2.2580  2.4500
  526MOL0     H70997   8.457   8.263   3.590  0.2500  0.2946 -1.3417
  526MOL0     H70998   8.731   8.666   3.562  0.5658  3.4973  1.9384
  526MOL0     H70999   8.884   8.828   3.620 -0.2054  0.5313 -3.0362
  526MOL0     H71000   9.205   8.974   3.719 -1.0061 -0.2657  1.0973
  526MOL0     H71001   9.068   8.878   3.767 -0.6507  0.4725 -1.6668
  526MOL0     H71002   9.359   8.777   3.723 -0.3036 -0.5894 -0.8208
  526MOL0     H71003   9.228   8.680   3.774 -1.3057  0.3115  2.5840
  526MOL0     H71004   9.212   8.889   3.962  2.5268  1.2662  1.9083
  526MOL0     H71005   9.386   8.871   3.938 -0.2099  2.7122 -0.2561
  526MOL0     H71006   9.418   8.670   4.011  0.0077 -0.8623 -0.9632
  526MOL0     H71007   9.260   8.605   3.996 -2.0169  0.2732  4.4578
  526MOL0     H71008   9.276   8.825   4.373 -0.1526  0.8388  0.0549
  526MOL0     H71009   9.216   8.591   3.490  0.6264  1.0727 -1.7399
  526MOL0     H71010   9.062   8.425   3.405  0.3142  0.6392  0.6974
  527MOL0     O71011   5.158   6.121   8.583 -0.1883 -0.4797 -0.5629
  527MOL0     C71012   5.037   6.087   8.582  0.1749  0.7711 -0.3985
  527MOL0     O71013   4.973   6.021   8.478  0.9471  0.0509 -0.1834
  527MOL0     C71014   5.032   6.027   8.351  0.2393 -0.5229 -0.1686
  527MOL0     C71015   5.167   5.980   8.324  0.3703  0.1667  0.1279
  527MOL0     C71016   5.207   5.989   8.186  0.4612 -0.3733 -0.4962
  527MOL0     C71017   5.123   6.052   8.096  0.3290  0.7186 -0.1901
  527MOL0     O71018   5.190   6.098   7.990 -0.2544 -0.0187  0.4106
  527MOL0     C71019   5.162   6.235   7.957  0.7103 -0.3671 -0.4353
  527MOL0     C71020   5.287   6.283   7.870  0.2554  0.1067  0.6951
  527MOL0     C71021   5.394   6.300   7.960 -0.2305  0.2202  0.2735
  527MOL0     C71022   5.511   6.362   7.893 -0.7384 -0.7314 -0.6542
  527MOL0     C71023   5.504   6.503   7.854  0.1985 -0.3707 -0.1718
  527MOL0     C71024   5.642   6.576   7.879 -0.4182  0.1891 -0.6580
  527MOL0     C71025   5.653   6.716   7.836  0.7457  0.7870  0.6015
  527MOL0     C71026   5.782   6.777   7.891 -0.4861 -0.0076  0.6490
  527MOL0     N71027   5.781   6.914   7.863 -0.1860 -0.3798  0.3309
  527MOL0     C71028   5.716   7.022   7.925  0.7008  0.5438  0.2978
  527MOL0     C71029   5.749   7.139   7.868  0.1882 -0.8788  0.9463
  527MOL0     C71030   5.718   7.287   7.892  0.6701 -0.7772 -0.4618
  527MOL0     C71031   5.850   7.367   7.916  0.7228  0.5608  0.3537
  527MOL0     C71032   5.817   7.509   7.973  0.1161 -0.4864 -0.2061
  527MOL0     C71033   5.827   7.502   8.125 -0.0940  0.2061  0.2420
  527MOL0     O71034   5.746   7.611   8.189 -0.1288  1.0762  0.8357
  527MOL0     C71035   5.763   7.662   8.312 -0.9704 -0.0483 -0.3364
  527MOL0     C71036   5.679   7.761   8.351  0.0208 -0.4737 -0.2669
  527MOL0     C71037   5.658   7.791   8.488  0.0242  0.4351  0.2019
  527MOL0     C71038   5.544   7.880   8.527  0.6956  0.9509 -0.6332
  527MOL0     C71039   5.759   7.758   8.578 -0.4330  0.4260 -0.1850
  527MOL0     C71040   5.756   7.808   8.714  0.0052 -0.9035 -0.8664
  527MOL0     O71041   5.644   7.796   8.794 -0.3388 -0.7015  0.1754
  527MOL0     C71042   5.649   7.849   8.920  0.5903 -0.1906 -0.5325
  527MOL0     C71043   5.562   7.954   8.942 -0.5143  0.0008  0.1937
  527MOL0     C71044   5.562   8.006   9.080  0.1838 -0.5945  0.1431
  527MOL0     C71045   5.638   7.957   9.183  0.0954 -0.1864 -0.6991
  527MOL0     O71046   5.621   8.013   9.312 -0.2611 -0.3331  0.3078
  527MOL0     C71047   5.633   7.938   9.431  1.6833  0.5991  0.5849
  527MOL0     C71048   5.488   7.906   9.476  1.2862 -0.0905  0.3281
  527MOL0     C71049   5.469   7.823   9.607 -1.0300  0.2344  0.2112
  527MOL0     C71050   5.568   7.871   9.719 -0.4015  0.7423 -0.7030
  527MOL0     C71051   5.584   7.774   9.837  0.1808  0.2939  0.7930
  527MOL0     C71052   5.685   7.822   9.941  0.6326 -0.4562 -0.6162
  527MOL0     C71053   5.701   7.713  10.041  0.0306 -1.4805  0.3201
  527MOL0     C71054   5.803   7.737  10.147  0.2337  0.0353 -0.5349
  527MOL0    Cl71055   5.801   7.899  10.218 -0.2177 -0.0806  0.6982
  527MOL0     C71056   5.726   7.851   9.160 -0.3452 -0.6900  0.8552
  527MOL0     C71057   5.721   7.803   9.028 -0.0322  0.5576 -0.1831
  527MOL0     O71058   5.863   7.862   8.759  0.3920 -0.6139  0.7161
  527MOL0     C71059   5.856   7.670   8.537 -0.4512  0.6228  0.5099
  527MOL0     C71060   5.856   7.618   8.404 -0.0676  0.0464  0.6233
  527MOL0     N71061   5.829   7.099   7.756 -1.1197  0.8879 -0.0069
  527MOL0     N71062   5.852   6.969   7.765  0.3391 -0.4520 -0.3676
  527MOL0     C71063   4.990   6.085   8.119  0.7116 -0.6719 -0.1754
  527MOL0     C71064   4.945   6.060   8.245 -1.2746 -0.8732 -0.8373
  527MOL0     C71065   4.961   6.155   8.678  1.0022 -0.0077 -0.5401
  527MOL0     C71066   4.814   6.141   8.665  0.6833 -0.1642  0.3194
  527MOL0     C71067   4.733   6.212   8.758 -0.4200 -0.6935 -0.6494
  527MOL0     C71068   4.799   6.272   8.873  0.9761 -0.3825 -1.2141
  527MOL0     O71069   4.715   6.336   8.959  0.7168 -0.3174  0.0443
  527MOL0     C71070   4.759   6.417   9.066  0.5246 -0.5645  0.2557
  527MOL0     C71071   4.637   6.507   9.099 -1.1316  0.3225  0.3255
  527MOL0     C71072   4.659   6.627   9.195  0.6526  0.0722  0.0618
  527MOL0     C71073   4.532   6.702   9.204  0.8912 -1.0494 -0.8788
  527MOL0     C71074   4.527   6.755   9.343  1.0558 -0.2479 -0.2500
  527MOL0     C71075   4.493   6.789   9.458 -0.4825  0.1673 -0.0054
  527MOL0     C71076   4.941   6.267   8.891  0.1034  0.3447  0.1652
  527MOL0     C71077   5.023   6.197   8.794  0.3544  0.0932  0.7521
  527MOL0     H71078   5.229   5.932   8.398 -0.2658 -3.6612 -1.5821
  527MOL0     H71079   5.310   5.979   8.155  0.4395 -1.3836 -0.2928
  527MOL0     H71080   5.076   6.237   7.890 -2.0824  0.5441  2.9164
  527MOL0     H71081   5.135   6.295   8.044 -2.9168 -1.8421 -0.3729
  527MOL0     H71082   5.314   6.206   7.797 -2.1814 -0.7404  0.5812
  527MOL0     H71083   5.265   6.378   7.819 -1.2870 -0.5605  0.0235
  527MOL0     H71084   5.371   6.341   8.059  3.6986  0.3468  1.3233
  527MOL0     H71085   5.432   6.201   7.988  0.4534  1.2322  3.4293
  527MOL0     H71086   5.602   6.344   7.951 -2.0003 -2.4118  0.9221
  527MOL0     H71087   5.529   6.297   7.806  2.5448 -1.1989  0.2186
  527MOL0     H71088   5.476   6.520   7.750  1.3301  0.8019 -0.3002
  527MOL0     H71089   5.431   6.549   7.923  1.2048  1.0225  0.0023
  527MOL0     H71090   5.665   6.566   7.985  2.2516 -2.3734 -1.3358
  527MOL0     H71091   5.727   6.522   7.836  0.4132  1.1001 -0.1818
  527MOL0     H71092   5.666   6.712   7.728  0.3521 -1.8316  0.5994
  527MOL0     H71093   5.561   6.769   7.863 -0.3780  0.4221 -2.2404
  527MOL0     H71094   5.864   6.718   7.849  0.8208  2.7941 -0.9952
  527MOL0     H71095   5.794   6.759   7.999  1.3408 -2.8345  0.0901
  527MOL0     H71096   5.649   7.013   8.010 -1.5519 -0.3159 -1.4527
  527MOL0     H71097   5.669   7.333   7.805  3.7342 -3.6362 -4.0756
  527MOL0     H71098   5.660   7.291   7.984  0.7504 -0.4327 -0.4238
  527MOL0     H71099   5.892   7.372   7.815  0.0666  1.9942  0.1219
  527MOL0     H71100   5.913   7.306   7.981  1.1871  1.5716  0.8759
  527MOL0     H71101   5.718   7.548   7.944  1.8701  3.1262 -1.9957
  527MOL0     H71102   5.889   7.572   7.920 -0.7358  1.1679  0.5097
  527MOL0     H71103   5.935   7.510   8.142  0.3689 -1.1431 -1.7434
  527MOL0     H71104   5.785   7.414   8.173 -0.4004  0.8350  1.1572
  527MOL0     H71105   5.611   7.800   8.276  0.4541 -1.6705 -1.3265
  527MOL0     H71106   5.587   7.970   8.570 -2.2547  2.5957 -0.8688
  527MOL0     H71107   5.490   7.922   8.441  1.2542  2.2349 -0.3701
  527MOL0     H71108   5.473   7.825   8.589  1.9867  0.2869  0.2994
  527MOL0     H71109   5.496   7.996   8.867  1.4956 -0.4840 -2.0153
  527MOL0     H71110   5.481   8.075   9.104 -1.4675 -2.9567  1.7381
  527MOL0     H71111   5.698   7.850   9.427  1.9554  0.7004  2.2689
  527MOL0     H71112   5.681   8.004   9.504  2.3735  0.7560  0.0033
  527MOL0     H71113   5.430   7.998   9.490  0.0332 -0.5154 -1.6846
  527MOL0     H71114   5.433   7.858   9.395 -0.0369 -0.1617  1.2383
  527MOL0     H71115   5.505   7.720   9.601  1.1387  0.7371  2.8380
  527MOL0     H71116   5.368   7.832   9.648 -2.0975 -0.9876 -1.9785
  527MOL0     H71117   5.671   7.884   9.686  0.2651 -0.7906  0.6643
  527MOL0     H71118   5.528   7.964   9.762  0.5900 -0.2551  2.7450
  527MOL0     H71119   5.613   7.677   9.795 -2.0414 -0.3406  0.5970
  527MOL0     H71120   5.484   7.765   9.880  1.2712  0.9248  3.6761
  527MOL0     H71121   5.775   7.864   9.895 -0.0337  0.7764 -0.8476
  527MOL0     H71122   5.649   7.915   9.985 -0.0725 -2.4572  3.5577
  527MOL0     H71123   5.738   7.628   9.982  0.7908  1.1363 -3.3574
  527MOL0     H71124   5.599   7.691  10.073 -0.8576 -0.3191 -1.5144
  527MOL0     H71125   5.908   7.739  10.118 -0.0683  4.2331 -2.0590
  527MOL0     H71126   5.778   7.667  10.227 -2.6166  1.3724 -0.1266
  527MOL0     H71127   5.785   7.795   9.232 -1.0376  1.8041  3.5787
  527MOL0     H71128   5.791   7.724   9.001 -1.6520 -0.1777 -2.4868
  527MOL0     H71129   5.944   7.644   8.595  2.7479  2.7731 -2.8999
  527MOL0     H71130   5.928   7.545   8.369 -1.3557 -0.9962  0.1116
  527MOL0     H71131   4.917   6.119   8.046 -1.8980  1.7155  3.2361
  527MOL0     H71132   4.843   6.087   8.269 -0.9691 -1.7435  1.6442
  527MOL0     H71133   4.765   6.101   8.577  2.5632 -2.1255  0.0886
  527MOL0     H71134   4.625   6.204   8.753 -0.6594 -0.7438  2.4691
  527MOL0     H71135   4.786   6.367   9.159  1.1415 -0.9453 -0.1204
  527MOL0     H71136   4.840   6.479   9.025  0.8497 -2.1829 -1.7465
  527MOL0     H71137   4.569   6.433   9.142 -1.9413  0.6190 -0.4022
  527MOL0     H71138   4.597   6.544   9.003  0.2212 -1.6581 -1.0653
  527MOL0     H71139   4.735   6.696   9.156  2.4379 -2.1711 -0.6461
  527MOL0     H71140   4.710   6.598   9.288 -1.9640 -2.1339  0.9244
  527MOL0     H71141   4.453   6.630   9.185  1.7183 -1.3012 -3.9918
  527MOL0     H71142   4.520   6.782   9.130  0.9001 -0.8048 -0.6151
  527MOL0     H71143   4.471   6.791   9.563  1.3900 -3.4528  0.6055
  527MOL0     H71144   4.994   6.314   8.973 -0.7738  1.6042  0.0453
  527MOL0     H71145   5.130   6.200   8.810  0.9954 -2.2918 -2.2090
  528MOL0     O71146  10.137   6.156   3.438  0.7126  0.9230 -0.7681
  528MOL0     C71147  10.259   6.157   3.468  0.9685  0.3323 -0.0206
  528MOL0     O71148  10.361   6.148   3.385 -0.0436 -0.2658  0.5371
  528MOL0     C71149  10.339   6.154   3.250  0.3359  0.2562 -0.1219
  528MOL0     C71150  10.314   6.276   3.184 -0.2245 -0.6685 -0.3122
  528MOL0     C71151  10.323   6.289   3.045 -0.1813 -0.3388 -0.1276
  528MOL0     C71152  10.356   6.172   2.964  0.4701  0.0427 -0.6473
  528MOL0     O71153  10.371   6.169   2.833 -0.7789 -0.5880 -0.3880
  528MOL0     C71154  10.348   6.287   2.752  0.2139 -0.0585  0.1081
  528MOL0     C71155  10.200   6.328   2.738 -1.0711 -0.2677  0.1853
  528MOL0     C71156  10.178   6.459   2.664 -0.3547 -0.2543 -0.6437
  528MOL0     C71157  10.226   6.457   2.519 -0.3613  0.6872 -0.1326
  528MOL0     C71158  10.262   6.594   2.460  0.0496 -0.8006 -0.0784
  528MOL0     C71159  10.133   6.676   2.447  1.5400  0.1163 -0.0797
  528MOL0     C71160  10.146   6.813   2.393  0.3720 -0.0815 -0.0416
  528MOL0     C71161  10.209   6.903   2.493 -0.3259 -0.7272 -0.3576
  528MOL0     N71162  10.140   6.908   2.615 -0.0181 -1.1313 -0.5948
  528MOL0     C71163  10.003   6.932   2.635  0.4319 -1.4136 -0.4590
  528MOL0     C71164   9.978   6.890   2.764  0.4048  0.1112 -0.1592
  528MOL0     C71165   9.855   6.894   2.856  0.1652  0.1099  0.2075
  528MOL0     C71166   9.773   7.022   2.821  0.5265  0.7113 -1.0807
  528MOL0     C71167   9.659   7.040   2.909  0.4500  0.2585 -0.4274
  528MOL0     C71168   9.685   7.013   3.055 -0.8670 -0.9280  0.0049
  528MOL0     O71169   9.802   7.096   3.106 -0.2343 -0.5925  0.1406
  528MOL0     C71170   9.831   7.108   3.240  0.3365 -0.4360 -0.8797
  528MOL0     C71171   9.792   7.018   3.339  0.9053 -0.2111 -0.2410
  528MOL0     C71172   9.819   7.033   3.476 -0.5741 -0.2174 -1.1072
  528MOL0     C71173   9.751   6.937   3.575  0.4751 -0.6635  0.1595
  528MOL0     C71174   9.912   7.126   3.517  0.5861 -0.8606 -0.3481
  528MOL0     C71175   9.979   7.139   3.650  0.3448 -1.2235 -0.2151
  528MOL0     O71176  10.110   7.173   3.640  0.3452  0.3127  0.0493
  528MOL0     C71177  10.189   7.194   3.749  0.6049 -0.3392 -0.1905
  528MOL0     C71178  10.227   7.089   3.832 -1.0318  0.5049  0.3255
  528MOL0     C71179  10.311   7.124   3.948  0.4067  0.2201  0.3656
  528MOL0     C71180  10.370   7.252   3.962  0.6210  0.1728 -0.8107
  528MOL0     O71181  10.451   7.301   4.063  0.1464  0.6208 -0.1687
  528MOL0     C71182  10.465   7.224   4.177  1.4537 -0.4691  0.2893
  528MOL0     C71183  10.536   7.306   4.287 -0.2827  0.0024  0.0649
  528MOL0     C71184  10.688   7.291   4.298 -0.1981  0.3022 -0.3771
  528MOL0     C71185  10.729   7.358   4.437  0.3100 -0.1634  0.3697
  528MOL0     C71186  10.872   7.349   4.457 -0.5488  0.6630 -0.2009
  528MOL0     C71187  10.921   7.430   4.576  0.8485  0.6866 -0.4033
  528MOL0     C71188  10.898   7.581   4.564  0.0916  0.1199  1.1922
  528MOL0     C71189  11.029   7.662   4.589 -1.3964 -0.2295  0.1349
  528MOL0    Cl71190  11.056   7.683   4.752 -0.0848 -0.0804  0.2234
  528MOL0     C71191  10.322   7.348   3.875  0.4124  0.5329 -0.7484
  528MOL0     C71192  10.233   7.323   3.775 -0.2535  0.8898  0.0674
  528MOL0     O71193   9.915   7.132   3.757  0.7026 -0.7248  0.0064
  528MOL0     C71194   9.963   7.214   3.425  0.9370  0.4750  0.1346
  528MOL0     C71195   9.926   7.198   3.288  0.1803  0.0402  0.6641
  528MOL0     N71196  10.089   6.831   2.815 -0.7359 -0.8781  0.2889
  528MOL0     N71197  10.185   6.847   2.730  0.5005  0.1745 -0.3675
  528MOL0     C71198  10.369   6.047   3.036 -0.2104  0.6227  1.0991
  528MOL0     C71199  10.368   6.041   3.173  0.5059  0.2068 -0.5792
  528MOL0     C71200  10.280   6.137   3.614  0.3683  0.7491  0.2611
  528MOL0     C71201  10.170   6.112   3.701  0.0158 -0.9287  0.0723
  528MOL0     C71202  10.189   6.091   3.840 -0.5694 -0.2590 -0.0313
  528MOL0     C71203  10.317   6.086   3.893 -1.5359 -0.1023  0.6202
  528MOL0     O71204  10.349   6.072   4.020 -0.2772  0.6469 -0.8608
  528MOL0     C71205  10.265   5.979   4.089 -0.1193 -0.1398 -0.0524
  528MOL0     C71206  10.299   5.969   4.231 -1.1432 -0.3342 -1.6593
  528MOL0     C71207  10.209   5.868   4.301 -0.3045  0.2466  0.6976
  528MOL0     C71208  10.216   5.869   4.460  1.1015 -0.7415 -0.3486
  528MOL0     C71209  10.344   5.836   4.506 -0.7478 -0.4683 -1.3669
  528MOL0     C71210  10.442   5.803   4.566 -0.4038 -0.0924 -0.2024
  528MOL0     C71211  10.431   6.106   3.807 -0.2594 -0.5861 -0.7228
  528MOL0     C71212  10.409   6.131   3.670  1.1470 -0.2861  1.1408
  528MOL0     H71213  10.318   6.362   3.250  0.9279 -1.1355  0.2522
  528MOL0     H71214  10.313   6.388   3.003 -2.1673 -0.1936  0.5905
  528MOL0     H71215  10.412   6.370   2.785  0.9546 -1.1577  1.5254
  528MOL0     H71216  10.375   6.246   2.655 -0.7964 -3.8642  1.2619
  528MOL0     H71217  10.128   6.258   2.694 -0.2244 -1.0973  0.0905
  528MOL0     H71218  10.167   6.344   2.841 -0.9341 -0.2747  0.2307
  528MOL0     H71219  10.070   6.470   2.653 -0.6464 -1.5905  0.6392
  528MOL0     H71220  10.223   6.532   2.732 -2.4344  0.7731 -0.2950
  528MOL0     H71221  10.307   6.386   2.499 -0.6605 -0.4072  2.2238
  528MOL0     H71222  10.140   6.420   2.463 -1.1073  0.0282  1.4062
  528MOL0     H71223  10.343   6.641   2.517  0.4290  0.2770 -1.4589
  528MOL0     H71224  10.296   6.574   2.358 -1.3516  1.3208 -1.0169
  528MOL0     H71225  10.070   6.623   2.375 -0.2641  2.0976 -0.0673
  528MOL0     H71226  10.085   6.682   2.545  2.7478  0.0762  0.5418
  528MOL0     H71227  10.213   6.808   2.307  2.1021  1.1002  1.1909
  528MOL0     H71228  10.051   6.861   2.364  0.7540  1.3951  1.0400
  528MOL0     H71229  10.213   7.004   2.450 -1.2097  0.4468  2.1035
  528MOL0     H71230  10.311   6.872   2.518  0.3611  0.5046 -1.4888
  528MOL0     H71231   9.940   7.001   2.580 -0.0280  0.7305  2.4840
  528MOL0     H71232   9.795   6.805   2.833 -0.8365  0.4562  1.3619
  528MOL0     H71233   9.890   6.890   2.960  1.0154 -0.4374 -0.0866
  528MOL0     H71234   9.745   7.005   2.717  1.7844 -0.2390 -1.2899
  528MOL0     H71235   9.849   7.100   2.833  0.8891  0.0674  1.0819
  528MOL0     H71236   9.576   6.968   2.903 -0.2947  0.8965  1.6053
  528MOL0     H71237   9.610   7.136   2.896  0.5398  0.6808  1.9961
  528MOL0     H71238   9.700   6.906   3.075 -1.0062 -0.3108  4.3573
  528MOL0     H71239   9.592   7.032   3.110  0.0436  0.8843  1.0117
  528MOL0     H71240   9.717   6.949   3.302 -0.8582  1.6176 -0.2866
  528MOL0     H71241   9.661   6.901   3.524 -2.1493  3.5713  1.2567
  528MOL0     H71242   9.832   6.869   3.602 -0.2628 -1.6647 -0.0716
  528MOL0     H71243   9.728   7.002   3.660  7.0303  0.1253  1.8753
  528MOL0     H71244  10.209   6.984   3.814  0.5516 -0.3138  2.9089
  528MOL0     H71245  10.351   7.038   3.999 -1.1609 -0.7992 -0.0577
  528MOL0     H71246  10.369   7.194   4.219 -0.9153  4.5402 -0.8137
  528MOL0     H71247  10.524   7.136   4.147  0.6428 -0.3363 -1.8807
  528MOL0     H71248  10.524   7.412   4.266 -3.1021 -0.1772  0.4327
  528MOL0     H71249  10.480   7.289   4.379  0.8551 -0.5416  0.6902
  528MOL0     H71250  10.739   7.344   4.217 -0.4202  0.3294 -0.4998
  528MOL0     H71251  10.712   7.185   4.299 -2.6178 -0.3833  2.6014
  528MOL0     H71252  10.695   7.462   4.441  0.6737 -0.0802  2.2021
  528MOL0     H71253  10.680   7.302   4.517 -3.4854 -1.7828 -2.7475
  528MOL0     H71254  10.922   7.372   4.362 -0.1383  3.8637  0.6676
  528MOL0     H71255  10.901   7.244   4.470 -1.9079 -0.0181 -2.1497
  528MOL0     H71256  10.877   7.400   4.672  0.6794 -0.1645 -0.7373
  528MOL0     H71257  11.026   7.403   4.590  1.1971  0.6303 -2.7818
  528MOL0     H71258  10.817   7.607   4.633  1.1297  2.6689  1.5589
  528MOL0     H71259  10.873   7.604   4.460  1.5307 -4.0758 -0.3292
  528MOL0     H71260  11.023   7.762   4.545  0.3079  0.4883  1.4648
  528MOL0     H71261  11.115   7.609   4.546 -0.0336  1.3083  0.8806
  528MOL0     H71262  10.365   7.447   3.887  3.7932 -0.8139 -0.6597
  528MOL0     H71263  10.208   7.413   3.718 -2.4883  0.0369 -0.4102
  528MOL0     H71264  10.040   7.288   3.446  0.5770  1.6593 -2.3480
  528MOL0     H71265   9.949   7.278   3.219 -0.4466 -0.5420 -0.2302
  528MOL0     H71266  10.372   5.963   2.967  3.3835  2.3910 -1.1833
  528MOL0     H71267  10.384   5.947   3.225 -0.9308 -0.7346 -1.7728
  528MOL0     H71268  10.071   6.113   3.655 -0.5937  1.5743  1.2713
  528MOL0     H71269  10.104   6.111   3.904  0.8306  5.4441  0.5867
  528MOL0     H71270  10.164   6.020   4.079  0.9531  2.6319 -0.7464
  528MOL0     H71271  10.280   5.882   4.040 -0.0396  0.9272 -2.3117
  528MOL0     H71272  10.280   6.069   4.270  0.2944 -0.1728 -1.3325
  528MOL0     H71273  10.401   5.934   4.251 -0.7288  1.4459 -0.4840
  528MOL0     H71274  10.228   5.766   4.267  2.1049  0.6558  0.6449
  528MOL0     H71275  10.108   5.896   4.267 -0.7695  0.3365  2.0947
  528MOL0     H71276  10.136   5.822   4.517 -0.1479  2.5204  0.8224
  528MOL0     H71277  10.193   5.968   4.502  0.5620 -1.0198  0.0249
  528MOL0     H71278  10.534   5.773   4.612 -1.6116  0.2279  2.6571
  528MOL0     H71279  10.523   6.099   3.864  0.1180  0.1404 -1.2369
  528MOL0     H71280  10.494   6.148   3.606 -0.6787 -2.4947 -2.1708
  529MOL0     O71281   9.924   5.969   4.431 -0.7049  0.5168  0.5730
  529MOL0     C71282   9.802   5.985   4.456 -0.4711 -0.2464 -0.5628
  529MOL0     O71283   9.730   6.037   4.364  0.1180 -0.4627  0.2940
  529MOL0     C71284   9.756   6.036   4.226  0.3567 -0.4418  0.3180
  529MOL0     C71285   9.683   5.956   4.141 -0.1148 -0.1399 -0.2365
  529MOL0     C71286   9.682   5.963   4.001 -0.7411 -0.0425  0.3600
  529MOL0     C71287   9.755   6.060   3.936  1.1211  0.2697  0.4217
  529MOL0     O71288   9.798   6.057   3.802 -0.1758 -0.0498  0.1581
  529MOL0     C71289   9.738   5.966   3.706 -0.0626 -0.0363 -0.7576
  529MOL0     C71290   9.782   5.997   3.571 -0.4775 -0.4298  0.5516
  529MOL0     C71291   9.728   6.131   3.522 -0.6059  0.5185  0.4778
  529MOL0     C71292   9.580   6.150   3.476  0.2973  0.2387  0.0414
  529MOL0     C71293   9.550   6.288   3.419  0.6117  0.3589  0.3476
  529MOL0     C71294   9.416   6.292   3.331 -0.0247  0.0849  1.0345
  529MOL0     C71295   9.380   6.439   3.298 -0.2387  0.5508 -0.2825
  529MOL0     C71296   9.499   6.518   3.245  0.7349  0.3680 -0.9347
  529MOL0     N71297   9.440   6.642   3.172 -0.0824  0.5802  0.9511
  529MOL0     C71298   9.398   6.649   3.040 -0.5739 -0.7821  0.5456
  529MOL0     C71299   9.354   6.777   3.025 -0.2891 -0.9947 -0.8062
  529MOL0     C71300   9.311   6.842   2.889 -0.2875  0.3086 -0.1555
  529MOL0     C71301   9.261   6.982   2.907 -0.3663 -0.1832  0.6433
  529MOL0     C71302   9.222   7.076   2.797 -0.1884  0.7373 -0.2120
  529MOL0     C71303   9.341   7.129   2.726 -1.1892  0.3474  0.4304
  529MOL0     O71304   9.416   7.029   2.656 -0.3546 -0.5825  0.2067
  529MOL0     C71305   9.505   7.070   2.555 -0.3082  0.7330  0.8451
  529MOL0     C71306   9.537   6.961   2.461 -0.0191 -0.3624 -1.2841
  529MOL0     C71307   9.637   6.976   2.367 -0.4380  0.1792 -0.3037
  529MOL0     C71308   9.700   6.853   2.300  0.8026  0.2821  0.1178
  529MOL0     C71309   9.694   7.103   2.356  0.0133  0.0648 -1.1739
  529MOL0     C71310   9.814   7.136   2.271  0.6202  0.0014  0.5041
  529MOL0     O71311   9.807   7.088   2.140 -0.5864 -0.2020 -0.3232
  529MOL0     C71312   9.925   7.097   2.071  0.3994  0.1706  0.6347
  529MOL0     C71313   9.956   7.222   2.023 -0.0307  0.0976 -0.4239
  529MOL0     C71314  10.064   7.249   1.946  0.1267  0.9785 -0.0344
  529MOL0     C71315  10.163   7.151   1.928 -0.8287 -0.1085 -0.4308
  529MOL0     O71316  10.279   7.173   1.861  0.1977  1.1297  0.0259
  529MOL0     C71317  10.296   7.289   1.779  0.2139  0.0141 -1.2195
  529MOL0     C71318  10.424   7.292   1.710  0.2943  1.6508  0.5155
  529MOL0     C71319  10.446   7.413   1.629 -0.5569  0.2724  0.1878
  529MOL0     C71320  10.328   7.465   1.536 -0.7349  1.0342 -0.6455
  529MOL0     C71321  10.373   7.559   1.433  0.1339  1.1701 -0.4380
  529MOL0     C71322  10.276   7.650   1.358 -0.1129  0.6791 -0.5482
  529MOL0     C71323  10.361   7.745   1.282  0.0710 -0.5508  0.2976
  529MOL0     C71324  10.264   7.856   1.214 -0.2991  0.4738 -0.7285
  529MOL0    Cl71325  10.154   7.786   1.092 -0.3120  0.2698 -0.3651
  529MOL0     C71326  10.135   7.017   1.975  0.6926  0.2799 -0.3714
  529MOL0     C71327  10.012   6.996   2.046  0.5315  0.0879  0.8155
  529MOL0     O71328   9.901   7.211   2.312 -0.1333 -0.2212 -0.7067
  529MOL0     C71329   9.666   7.209   2.446 -0.5861  0.1729  0.1147
  529MOL0     C71330   9.577   7.188   2.551 -0.8393  0.2293 -0.7904
  529MOL0     N71331   9.358   6.841   3.151 -0.1684  0.3944 -0.2753
  529MOL0     N71332   9.414   6.755   3.231 -0.3138 -1.2154 -0.2096
  529MOL0     C71333   9.839   6.138   4.017  0.4837  0.4041 -0.5447
  529MOL0     C71334   9.835   6.131   4.163  0.6050  0.4703  0.2903
  529MOL0     C71335   9.762   5.970   4.591  0.6554 -0.1523 -0.1583
  529MOL0     C71336   9.629   5.919   4.603 -0.6208 -0.5127 -0.6822
  529MOL0     C71337   9.573   5.893   4.733  0.3192 -0.5225  0.8204
  529MOL0     C71338   9.651   5.909   4.839 -1.2001  0.2782 -1.3107
  529MOL0     O71339   9.593   5.887   4.960  0.0222  0.8332 -0.0108
  529MOL0     C71340   9.667   5.890   5.079  0.1171  0.5359 -0.6523
  529MOL0     C71341   9.683   6.036   5.130 -0.1032 -0.2250 -0.5576
  529MOL0     C71342   9.673   6.062   5.284 -0.5439  0.4013 -0.0028
  529MOL0     C71343   9.539   6.037   5.345 -0.3960 -0.8416 -0.0598
  529MOL0     C71344   9.467   6.155   5.313  0.0491  0.3767 -0.4079
  529MOL0     C71345   9.398   6.235   5.253 -0.3098 -0.4922 -0.4373
  529MOL0     C71346   9.790   5.937   4.821 -0.1043  1.2785 -0.3370
  529MOL0     C71347   9.846   5.974   4.700  0.3360 -0.6855  0.0963
  529MOL0     H71348   9.613   5.890   4.192  0.6161 -2.7036 -2.3212
  529MOL0     H71349   9.615   5.896   3.950 -0.7438 -1.2268  1.8521
  529MOL0     H71350   9.764   5.862   3.725  1.6156 -0.0170 -2.6544
  529MOL0     H71351   9.629   5.971   3.712 -0.0142  3.3461 -0.5724
  529MOL0     H71352   9.892   5.992   3.571 -0.5269 -3.8835  1.0766
  529MOL0     H71353   9.750   5.916   3.506 -0.1482 -0.4475  0.4080
  529MOL0     H71354   9.753   6.207   3.596  1.8894  1.3360 -1.0623
  529MOL0     H71355   9.794   6.144   3.435 -2.2432 -0.1684 -0.9324
  529MOL0     H71356   9.564   6.073   3.400 -0.2001 -0.1047  0.4932
  529MOL0     H71357   9.500   6.127   3.546 -1.0499  1.6372 -0.9809
  529MOL0     H71358   9.512   6.352   3.499 -0.7296  0.3231 -0.2336
  529MOL0     H71359   9.636   6.339   3.375  0.3937  1.4650  1.1517
  529MOL0     H71360   9.424   6.252   3.230  1.4300  1.7541  0.4304
  529MOL0     H71361   9.335   6.237   3.380 -0.7443 -3.0154 -3.0688
  529MOL0     H71362   9.292   6.452   3.233  0.8864 -1.9233 -2.5028
  529MOL0     H71363   9.355   6.470   3.400  1.6884 -2.4932  1.2638
  529MOL0     H71364   9.554   6.446   3.183  0.0564  0.1009 -1.2345
  529MOL0     H71365   9.555   6.566   3.326 -1.2550  0.7233  0.2919
  529MOL0     H71366   9.410   6.575   2.962  2.4811 -0.1070  0.2454
  529MOL0     H71367   9.391   6.839   2.815 -0.5464  0.8852 -0.4602
  529MOL0     H71368   9.234   6.778   2.844 -1.4844  0.4224  1.5884
  529MOL0     H71369   9.335   7.038   2.965  1.0767 -2.0820  0.7187
  529MOL0     H71370   9.178   6.971   2.977  0.0728  1.2792  1.4521
  529MOL0     H71371   9.157   7.153   2.840 -0.7456 -0.6835  1.6048
  529MOL0     H71372   9.146   7.021   2.740 -0.9050 -0.3555  1.7210
  529MOL0     H71373   9.401   7.170   2.807 -0.7523 -2.0892  1.4441
  529MOL0     H71374   9.317   7.212   2.659 -5.1040 -0.2807  0.8274
  529MOL0     H71375   9.479   6.870   2.479  0.2644 -0.2391  0.5026
  529MOL0     H71376   9.808   6.860   2.315  1.2164 -3.2761 -0.2581
  529MOL0     H71377   9.673   6.759   2.349 -0.9400  2.5858  4.1116
  529MOL0     H71378   9.681   6.860   2.192  2.1516  1.1735 -0.0850
  529MOL0     H71379   9.890   7.303   2.053 -1.7239 -2.2054  2.4982
  529MOL0     H71380  10.088   7.353   1.930 -2.9177  2.2792  2.8203
  529MOL0     H71381  10.213   7.296   1.707 -2.0934 -1.7277  1.0875
  529MOL0     H71382  10.290   7.374   1.848 -1.1402 -1.9183  1.2300
  529MOL0     H71383  10.505   7.292   1.784  2.9953  0.8912 -2.2077
  529MOL0     H71384  10.418   7.196   1.656 -2.8018  1.2126  1.4430
  529MOL0     H71385  10.526   7.390   1.558  0.4128  0.3051  1.2396
  529MOL0     H71386  10.471   7.506   1.680 -2.5061  0.8793  0.1140
  529MOL0     H71387  10.293   7.378   1.481 -1.1329 -0.4815  1.8644
  529MOL0     H71388  10.245   7.509   1.592  1.1335  1.3263  2.1342
  529MOL0     H71389  10.434   7.501   1.364  2.4589  1.3320  1.3771
  529MOL0     H71390  10.451   7.617   1.482 -1.0257  1.6004  0.9744
  529MOL0     H71391  10.206   7.599   1.292 -0.9698 -0.0677  0.8814
  529MOL0     H71392  10.213   7.697   1.436  2.2718 -2.2681  3.5278
  529MOL0     H71393  10.419   7.697   1.202  2.7013  1.8689  0.5792
  529MOL0     H71394  10.427   7.803   1.348  0.5367  1.4874 -1.8247
  529MOL0     H71395  10.326   7.933   1.169 -2.2719  0.9109 -2.8734
  529MOL0     H71396  10.208   7.900   1.297  0.1622  0.0205 -0.1641
  529MOL0     H71397  10.207   6.936   1.959  2.9156  2.1702 -0.5501
  529MOL0     H71398   9.993   6.892   2.070 -0.5776 -0.2203 -1.1672
  529MOL0     H71399   9.717   7.305   2.437 -2.0259  1.1761  1.9564
  529MOL0     H71400   9.557   7.253   2.635  0.2009 -0.1737 -0.2258
  529MOL0     H71401   9.923   6.197   3.981  0.4657  0.1173 -1.0659
  529MOL0     H71402   9.892   6.199   4.225 -4.7100  3.7158  2.3247
  529MOL0     H71403   9.575   5.890   4.514  0.0905 -1.0957 -0.9436
  529MOL0     H71404   9.473   5.854   4.744  0.1337  0.4313  2.7943
  529MOL0     H71405   9.614   5.831   5.155  1.7018  0.3346  0.3301
  529MOL0     H71406   9.764   5.840   5.068  1.2836  1.1431  4.4324
  529MOL0     H71407   9.610   6.101   5.081 -0.5523  0.2935  0.7617
  529MOL0     H71408   9.785   6.063   5.099  1.4466  0.2969  4.1885
  529MOL0     H71409   9.723   6.158   5.301 -2.9481  1.3411  2.7080
  529MOL0     H71410   9.736   5.986   5.331  0.5234  1.1082 -0.2362
  529MOL0     H71411   9.554   6.025   5.452 -1.6853 -2.5468 -0.0311
  529MOL0     H71412   9.474   5.956   5.309 -2.5552  0.7474  0.0157
  529MOL0     H71413   9.344   6.303   5.191  0.2870 -0.2254 -0.6719
  529MOL0     H71414   9.871   5.955   4.891 -0.5495 -0.7897  0.7776
  529MOL0     H71415   9.949   6.007   4.690  1.2060 -2.7130  1.6393
  530MOL0     O71416   5.354   0.503   4.306  0.5245  0.8221  0.2601
  530MOL0     C71417   5.353   0.407   4.225  0.2147  0.3527 -0.2999
  530MOL0     O71418   5.274   0.299   4.231 -0.4772  0.7267  0.4367
  530MOL0     C71419   5.201   0.286   4.345  0.6602 -0.4003 -0.0882
  530MOL0     C71420   5.069   0.330   4.357  0.1840  0.2521  0.0740
  530MOL0     C71421   4.998   0.323   4.481 -0.6501 -1.2350  1.4918
  530MOL0     C71422   5.064   0.280   4.596 -0.3064  0.0694  0.3656
  530MOL0     O71423   5.013   0.256   4.722 -0.1807 -0.4293 -0.1929
  530MOL0     C71424   4.891   0.332   4.740 -0.3637 -0.3031 -0.7752
  530MOL0     C71425   4.878   0.316   4.897  0.2751 -0.2965  0.0088
  530MOL0     C71426   4.748   0.386   4.937  0.0895  0.1612  0.4216
  530MOL0     C71427   4.716   0.365   5.084  0.0635  0.3846 -0.2018
  530MOL0     C71428   4.560   0.385   5.102  0.5177 -0.1470 -0.5315
  530MOL0     C71429   4.504   0.379   5.246  1.4410  0.8811 -0.1193
  530MOL0     C71430   4.355   0.347   5.270  0.0413  0.4883  0.2498
  530MOL0     C71431   4.297   0.228   5.191  0.9530 -0.3871  0.2766
  530MOL0     N71432   4.377   0.110   5.201 -0.3842  0.1486 -0.0081
  530MOL0     C71433   4.377   0.034   5.313 -0.5139  0.0870 -0.3217
  530MOL0     C71434   4.463  -0.067   5.289  0.4637  0.2130  1.0714
  530MOL0     C71435   4.472  -0.179   5.380  0.0250  0.2443  0.4385
  530MOL0     C71436   4.416  -0.157   5.520  0.0580  0.9893 -0.6159
  530MOL0     C71437   4.491  -0.047   5.602  0.3834 -0.0968  0.2695
  530MOL0     C71438   4.596  -0.122   5.681 -0.4139  0.1561 -0.1624
  530MOL0     O71439   4.711  -0.047   5.715  0.4824  0.9727 -0.4049
  530MOL0     C71440   4.822  -0.105   5.781 -0.7698  0.2353 -0.2351
  530MOL0     C71441   4.816  -0.232   5.850 -0.6327 -1.3006  0.0227
  530MOL0     C71442   4.936  -0.291   5.893 -0.0619 -0.4814 -0.8613
  530MOL0     C71443   4.929  -0.421   5.963 -0.1112  0.6681  0.6037
  530MOL0     C71444   5.057  -0.212   5.890 -1.0465  0.0226 -0.5683
  530MOL0     C71445   5.193  -0.245   5.937  0.2293  0.0910 -0.7528
  530MOL0     O71446   5.281  -0.146   5.963 -0.1699 -0.2965 -0.5357
  530MOL0     C71447   5.413  -0.182   5.955  0.4753  0.5160  0.0945
  530MOL0     C71448   5.468  -0.227   5.838 -0.6072 -0.4847 -0.0769
  530MOL0     C71449   5.607  -0.244   5.828  0.5076  0.3498  0.4946
  530MOL0     C71450   5.680  -0.251   5.939 -0.2430 -1.4647 -0.8956
  530MOL0     O71451   5.813  -0.294   5.925 -0.0298  0.3522  0.1826
  530MOL0     C71452   5.921  -0.197   5.962  0.7355  0.4639  0.1354
  530MOL0     C71453   6.052  -0.266   5.966  0.6051 -0.1780  0.0306
  530MOL0     C71454   6.155  -0.207   6.063  0.3769  0.0597 -0.1378
  530MOL0     C71455   6.294  -0.268   6.050  0.0444 -1.3210 -1.2920
  530MOL0     C71456   6.405  -0.203   6.152  0.3018  0.6973 -0.1161
  530MOL0     C71457   6.446  -0.058   6.109  0.7134 -0.3002  0.3910
  530MOL0     C71458   6.503  -0.054   5.962 -0.0410  0.0369  0.2287
  530MOL0     C71459   6.641   0.011   5.979  0.0472 -1.1706 -0.1344
  530MOL0    Cl71460   6.609   0.178   6.045 -0.3743  0.1290 -0.4100
  530MOL0     C71461   5.622  -0.218   6.064 -0.7031  0.8945  0.7127
  530MOL0     C71462   5.487  -0.188   6.078  0.1040 -0.1355  0.4550
  530MOL0     O71463   5.220  -0.365   5.954 -0.3226  0.4334  0.4845
  530MOL0     C71464   5.045  -0.081   5.838  0.9308  0.5209 -0.0359
  530MOL0     C71465   4.930  -0.031   5.776  0.5041 -0.2052 -0.3786
  530MOL0     N71466   4.523  -0.038   5.169 -0.2460  0.6789  0.6393
  530MOL0     N71467   4.457   0.055   5.108  0.0774  0.1399  0.9406
  530MOL0     C71468   5.202   0.248   4.582 -0.6736 -0.3193 -1.1020
  530MOL0     C71469   5.263   0.244   4.461 -0.6760  0.1650 -0.9091
  530MOL0     C71470   5.438   0.421   4.102  0.4249 -0.6566 -1.1566
  530MOL0     C71471   5.429   0.321   4.002 -0.7639  0.7064 -0.9823
  530MOL0     C71472   5.523   0.324   3.895  0.1867  0.0016 -0.4002
  530MOL0     C71473   5.596   0.441   3.858 -0.0858 -1.1444 -0.0740
  530MOL0     O71474   5.674   0.471   3.748  0.5209 -0.1645  0.6334
  530MOL0     C71475   5.679   0.369   3.647  0.3277  0.1327 -0.3094
  530MOL0     C71476   5.561   0.381   3.559  0.5697 -0.1087 -0.1366
  530MOL0     C71477   5.546   0.518   3.497 -0.2221 -0.5711 -0.8877
  530MOL0     C71478   5.658   0.560   3.399  0.7681  0.7422  0.2070
  530MOL0     C71479   5.670   0.462   3.292 -0.0854  0.1234  1.0735
  530MOL0     C71480   5.687   0.370   3.210 -0.1829  0.0241 -0.6652
  530MOL0     C71481   5.597   0.546   3.952  0.6095  0.1532  0.0352
  530MOL0     C71482   5.525   0.531   4.068 -0.4856 -0.6486  0.7770
  530MOL0     H71483   5.008   0.367   4.275 -2.9109 -1.9072  1.2110
  530MOL0     H71484   4.896   0.357   4.475 -0.1479  0.0131 -2.8982
  530MOL0     H71485   4.918   0.437   4.725  2.2818 -1.0525 -1.8689
  530MOL0     H71486   4.803   0.307   4.680 -1.1729  1.5902 -0.4710
  530MOL0     H71487   4.858   0.210   4.915 -0.3936  0.0943  1.8083
  530MOL0     H71488   4.959   0.360   4.956 -0.6546  3.2754 -1.0794
  530MOL0     H71489   4.767   0.492   4.919  0.3485  0.8197  3.9505
  530MOL0     H71490   4.679   0.352   4.859  1.3945  0.8450 -1.0843
  530MOL0     H71491   4.754   0.271   5.126 -2.3005 -0.7559 -0.4291
  530MOL0     H71492   4.777   0.439   5.137  1.5046 -1.9167  1.5681
  530MOL0     H71493   4.525   0.477   5.053 -1.8839 -0.9765 -0.4931
  530MOL0     H71494   4.525   0.304   5.039 -0.9651 -0.4586  0.6456
  530MOL0     H71495   4.570   0.310   5.298 -2.4789 -1.8009  1.7915
  530MOL0     H71496   4.530   0.479   5.284  2.2595  1.4857 -2.1134
  530MOL0     H71497   4.350   0.323   5.376  1.7797  2.8295  0.9483
  530MOL0     H71498   4.297   0.439   5.256  0.2876  0.4773 -1.0304
  530MOL0     H71499   4.299   0.252   5.084 -1.3830 -1.4534 -0.0551
  530MOL0     H71500   4.190   0.214   5.207  0.2625 -0.5879 -3.6784
  530MOL0     H71501   4.316   0.057   5.399  0.6919  3.4682 -0.1809
  530MOL0     H71502   4.408  -0.257   5.338  1.3252 -0.0206 -1.1718
  530MOL0     H71503   4.578  -0.208   5.382  0.1974  0.3664 -2.6789
  530MOL0     H71504   4.419  -0.252   5.575  2.9552  1.0580 -0.4643
  530MOL0     H71505   4.312  -0.123   5.518 -0.3868 -0.2990 -0.2824
  530MOL0     H71506   4.421   0.006   5.667  0.7517  0.4221  0.2526
  530MOL0     H71507   4.544   0.030   5.544  1.1483  0.4054  1.5891
  530MOL0     H71508   4.630  -0.211   5.627 -1.7670 -0.4886 -0.0019
  530MOL0     H71509   4.559  -0.141   5.783  2.2365  1.0924  1.0568
  530MOL0     H71510   4.729  -0.297   5.845 -2.0160  0.5701 -1.6352
  530MOL0     H71511   4.993  -0.497   5.917 -0.8848 -0.9361  2.0590
  530MOL0     H71512   4.960  -0.409   6.067  0.6740  3.9012  0.1090
  530MOL0     H71513   4.825  -0.455   5.971 -0.9419  2.3706 -1.8799
  530MOL0     H71514   5.417  -0.219   5.742 -2.0297  1.5123  0.7881
  530MOL0     H71515   5.648  -0.268   5.730  0.1232 -0.3898  0.5089
  530MOL0     H71516   5.928  -0.114   5.890 -1.5629  1.1440  0.6027
  530MOL0     H71517   5.890  -0.156   6.058 -1.8269  1.0854 -0.8784
  530MOL0     H71518   6.043  -0.371   5.994 -0.8586  0.2535  1.2931
  530MOL0     H71519   6.083  -0.238   5.864 -1.1349 -0.3371 -0.5694
  530MOL0     H71520   6.133  -0.233   6.167  0.4999  1.0471  0.1475
  530MOL0     H71521   6.152  -0.097   6.068  1.1059  0.0740  0.1864
  530MOL0     H71522   6.285  -0.375   6.072 -1.9932 -0.4135  3.5283
  530MOL0     H71523   6.325  -0.252   5.946  1.7990 -2.0135 -0.9044
  530MOL0     H71524   6.496  -0.264   6.155  0.7799  1.3970 -0.0681
  530MOL0     H71525   6.361  -0.214   6.251  2.1626  2.9826  1.0589
  530MOL0     H71526   6.364   0.013   6.124  1.1260 -0.3639  3.6302
  530MOL0     H71527   6.514  -0.027   6.188 -1.1547 -1.9591  2.8123
  530MOL0     H71528   6.435   0.006   5.899 -1.4136  2.5111  3.7689
  530MOL0     H71529   6.529  -0.156   5.932 -2.4801 -1.1640  1.8814
  530MOL0     H71530   6.697   0.016   5.885 -0.2671 -2.8312 -0.4530
  530MOL0     H71531   6.700  -0.051   6.048  1.8490  0.6892  0.0848
  530MOL0     H71532   5.696  -0.240   6.140 -0.8467 -0.2986  0.5326
  530MOL0     H71533   5.435  -0.158   6.168  0.2417 -2.9736  1.5868
  530MOL0     H71534   5.132  -0.017   5.840  0.8720  0.6443 -0.8417
  530MOL0     H71535   4.919   0.069   5.735 -1.9286 -0.3255 -0.1260
  530MOL0     H71536   5.261   0.213   4.666  1.3669  1.7238 -1.5824
  530MOL0     H71537   5.360   0.198   4.454 -1.1465 -0.5534 -3.9735
  530MOL0     H71538   5.368   0.232   4.016 -1.2525  1.3013  0.9881
  530MOL0     H71539   5.519   0.231   3.839 -1.5142 -0.3428  0.2325
  530MOL0     H71540   5.769   0.378   3.586  0.8270 -0.4537  0.3238
  530MOL0     H71541   5.686   0.275   3.702 -0.5902 -0.0324 -0.4503
  530MOL0     H71542   5.476   0.345   3.617  1.0935 -0.5654  0.3565
  530MOL0     H71543   5.563   0.313   3.473 -3.8595  1.3793 -1.7033
  530MOL0     H71544   5.536   0.595   3.574 -0.4582 -0.3394 -1.1478
  530MOL0     H71545   5.450   0.513   3.445 -1.0371 -2.9599  0.7386
  530MOL0     H71546   5.756   0.566   3.446 -0.1720 -1.3228  2.6593
  530MOL0     H71547   5.619   0.656   3.364 -0.7137 -0.2092 -0.8484
  530MOL0     H71548   5.682   0.287   3.142 -1.3522  0.2233 -0.8427
  530MOL0     H71549   5.641   0.643   3.930 -1.5146  1.3213  0.6032
  530MOL0     H71550   5.538   0.615   4.136 -1.6963  0.9687 -0.8712
  531MOL0     O71551   9.489   4.140   1.465  0.4759  0.1824  0.1136
  531MOL0     C71552   9.588   4.072   1.488  0.2250 -0.8832 -0.3619
  531MOL0     O71553   9.684   4.030   1.401  0.1461 -0.1434  0.2740
  531MOL0     C71554   9.694   4.067   1.275  1.3760  0.0335  0.2781
  531MOL0     C71555   9.812   4.029   1.209  0.9473 -0.0375  0.0573
  531MOL0     C71556   9.821   4.057   1.073  0.3931  1.2261 -0.0783
  531MOL0     C71557   9.725   4.130   1.006 -0.3302  0.4805  0.6412
  531MOL0     O71558   9.760   4.151   0.881 -0.2113  0.3249  0.8129
  531MOL0     C71559   9.658   4.153   0.779 -0.3783 -0.1195 -0.7110
  531MOL0     C71560   9.585   4.019   0.762  0.3589 -1.6735  0.1822
  531MOL0     C71561   9.452   4.037   0.684 -0.2647  0.7120 -0.5767
  531MOL0     C71562   9.373   3.902   0.679 -0.7668 -0.5017 -0.6335
  531MOL0     C71563   9.284   3.871   0.798 -0.6514 -0.1764 -0.7112
  531MOL0     C71564   9.232   3.719   0.788  0.2534 -0.1295  1.4898
  531MOL0     C71565   9.127   3.663   0.887  0.0930  0.6927  0.5082
  531MOL0     C71566   9.027   3.580   0.801  0.6232  0.5051  1.2614
  531MOL0     N71567   9.096   3.470   0.716 -0.0431 -0.2165  0.3603
  531MOL0     C71568   9.085   3.445   0.581  0.2501 -0.3822 -0.0522
  531MOL0     C71569   9.209   3.378   0.555  0.3050 -0.6529 -0.3850
  531MOL0     C71570   9.257   3.354   0.410 -0.6926 -0.4990  0.2213
  531MOL0     C71571   9.275   3.483   0.337 -0.0050 -0.7039  0.2850
  531MOL0     C71572   9.364   3.592   0.408  0.0129 -0.1340 -0.0259
  531MOL0     C71573   9.344   3.728   0.337  0.2929 -0.4257 -0.8613
  531MOL0     O71574   9.387   3.724   0.202 -0.1456  0.5199 -0.4158
  531MOL0     C71575   9.348   3.833   0.128 -1.5343  0.0442  0.6212
  531MOL0     C71576   9.234   3.815   0.040  0.3719  0.4979  0.7841
  531MOL0     C71577   9.184   3.931  -0.027  0.1199  0.0223  0.4442
  531MOL0     C71578   9.046   3.912  -0.092  0.4387 -0.3896 -0.0301
  531MOL0     C71579   9.267   4.051  -0.032 -0.5828 -0.8607 -0.4411
  531MOL0     C71580   9.246   4.169  -0.125 -0.1843 -0.7116  0.4834
  531MOL0     O71581   9.281   4.298  -0.079 -0.9220  1.2274 -0.6612
  531MOL0     C71582   9.272   4.404  -0.156  0.0446 -1.9910  0.5913
  531MOL0     C71583   9.246   4.417  -0.291  0.1670  0.4120  0.4115
  531MOL0     C71584   9.264   4.533  -0.367 -0.5731 -0.2287  0.6481
  531MOL0     C71585   9.313   4.653  -0.302 -0.4919  0.3922 -1.2156
  531MOL0     O71586   9.337   4.771  -0.366 -1.1873 -0.2045 -0.0681
  531MOL0     C71587   9.305   4.775  -0.505 -0.9144 -0.3168  0.1712
  531MOL0     C71588   9.339   4.899  -0.578 -0.3444 -0.3164 -0.0415
  531MOL0     C71589   9.489   4.914  -0.592  0.9325  0.0398  0.0186
  531MOL0     C71590   9.525   4.999  -0.715  0.2136  0.5576  0.2288
  531MOL0     C71591   9.683   5.017  -0.707  0.2249  0.2590 -0.8991
  531MOL0     C71592   9.746   5.094  -0.823  0.4316 -0.3155 -0.1180
  531MOL0     C71593   9.879   5.156  -0.781 -1.4836 -0.2112 -0.6939
  531MOL0     C71594   9.989   5.107  -0.870 -0.8785 -0.6020 -0.0373
  531MOL0    Cl71595   9.955   5.130  -1.045 -0.2652 -0.0169  0.0101
  531MOL0     C71596   9.332   4.643  -0.168  0.3065 -0.1566  0.8774
  531MOL0     C71597   9.331   4.520  -0.105 -0.2228 -1.1164  0.1894
  531MOL0     O71598   9.185   4.135  -0.228 -0.6659  0.0855  0.2428
  531MOL0     C71599   9.385   4.062   0.049  0.3046  0.2800 -0.7591
  531MOL0     C71600   9.415   3.952   0.133 -0.6568 -0.1851 -0.0197
  531MOL0     N71601   9.270   3.335   0.675  0.1597  0.0534  0.3849
  531MOL0     N71602   9.197   3.384   0.767  0.2007  0.4985 -0.3093
  531MOL0     C71603   9.617   4.187   1.074 -0.2062  0.1824 -0.0437
  531MOL0     C71604   9.589   4.142   1.199 -0.8704  0.7154 -0.2913
  531MOL0     C71605   9.588   4.034   1.625  0.1760  0.0860 -0.2096
  531MOL0     C71606   9.466   4.047   1.705 -0.5158  0.0113 -0.3747
  531MOL0     C71607   9.471   3.990   1.831  0.0434  0.3218 -0.0128
  531MOL0     C71608   9.581   3.924   1.886 -0.1336 -0.0929 -0.3702
  531MOL0     O71609   9.578   3.888   2.022 -0.5773  1.2012 -0.4775
  531MOL0     C71610   9.622   3.985   2.106  0.3786 -0.6337 -0.7904
  531MOL0     C71611   9.609   3.935   2.250 -1.0690  0.2676 -0.5653
  531MOL0     C71612   9.473   3.893   2.294  0.5366 -0.4947  0.2728
  531MOL0     C71613   9.483   3.823   2.433  0.0198  0.1362 -0.0504
  531MOL0     C71614   9.365   3.782   2.508 -0.7064  0.0389 -0.0686
  531MOL0     C71615   9.262   3.738   2.555 -0.4714 -0.8361  0.0104
  531MOL0     C71616   9.691   3.916   1.808  0.2894 -0.0616  0.4459
  531MOL0     C71617   9.691   3.965   1.669 -1.1318  0.1648 -0.5898
  531MOL0     H71618   9.872   3.966   1.274 -0.7061 -3.9675 -1.9106
  531MOL0     H71619   9.903   4.014   1.017  1.0328  2.6898 -0.3204
  531MOL0     H71620   9.590   4.238   0.788 -1.9479 -1.4049  0.1419
  531MOL0     H71621   9.705   4.174   0.682  0.7610  3.4629  0.4662
  531MOL0     H71622   9.634   3.942   0.702  2.2491  1.8293 -3.2992
  531MOL0     H71623   9.562   3.979   0.861 -1.7010 -0.8434  0.0896
  531MOL0     H71624   9.398   4.107   0.749 -2.1713  0.1678 -1.4880
  531MOL0     H71625   9.482   4.074   0.586  2.8319 -0.1656 -0.0477
  531MOL0     H71626   9.310   3.903   0.589  1.4771 -2.3027 -2.3446
  531MOL0     H71627   9.451   3.827   0.664  0.7551  0.7970  0.5100
  531MOL0     H71628   9.345   3.884   0.888 -1.8623  0.6224  0.0112
  531MOL0     H71629   9.197   3.937   0.794 -0.3655  0.3562  1.2383
  531MOL0     H71630   9.184   3.709   0.690 -0.7659 -0.5618  2.0213
  531MOL0     H71631   9.321   3.655   0.791 -0.2098 -0.7518  2.1531
  531MOL0     H71632   9.178   3.596   0.956  3.0941  0.7668 -1.4717
  531MOL0     H71633   9.056   3.729   0.938  0.7095 -0.2712  2.7454
  531MOL0     H71634   8.963   3.637   0.733 -0.1323 -0.3278  1.2586
  531MOL0     H71635   8.955   3.538   0.872 -3.4202  2.5396 -1.2870
  531MOL0     H71636   9.011   3.499   0.523  2.8760  2.5750 -0.9716
  531MOL0     H71637   9.354   3.306   0.428 -2.6091 -3.7147  3.2940
  531MOL0     H71638   9.189   3.293   0.350 -0.0120 -1.2593  0.2013
  531MOL0     H71639   9.181   3.536   0.324  0.1153 -0.9497 -2.1038
  531MOL0     H71640   9.314   3.453   0.239 -2.5318 -0.6899 -0.7998
  531MOL0     H71641   9.464   3.548   0.402  0.4556  0.3086  2.6395
  531MOL0     H71642   9.341   3.612   0.513  0.7530  1.1765 -0.0979
  531MOL0     H71643   9.392   3.805   0.398 -0.9282 -1.2664  1.3002
  531MOL0     H71644   9.236   3.743   0.337  0.2961 -0.3692 -1.5662
  531MOL0     H71645   9.176   3.724   0.041  1.1216  0.0086  0.7576
  531MOL0     H71646   9.056   3.840  -0.173  0.9039 -0.9648  0.5350
  531MOL0     H71647   8.978   3.860  -0.023  0.3346 -0.0159  0.1543
  531MOL0     H71648   8.996   4.003  -0.127  0.4894 -0.7466 -1.0436
  531MOL0     H71649   9.212   4.339  -0.358  2.0411  0.7081 -0.9570
  531MOL0     H71650   9.229   4.539  -0.470 -0.6978  0.2534  0.7127
  531MOL0     H71651   9.358   4.699  -0.562  2.3905  1.9225 -0.0457
  531MOL0     H71652   9.201   4.743  -0.515 -0.7304 -0.5186 -1.3337
  531MOL0     H71653   9.286   4.890  -0.673  0.1674  0.3225 -0.3950
  531MOL0     H71654   9.296   4.990  -0.535 -2.6076 -1.4297  0.1971
  531MOL0     H71655   9.540   4.817  -0.589 -3.2402 -2.3832  1.0622
  531MOL0     H71656   9.523   4.973  -0.506  2.7344 -0.4984 -0.2835
  531MOL0     H71657   9.512   4.939  -0.805  2.1745 -1.6668  1.2812
  531MOL0     H71658   9.471   5.093  -0.720 -2.5107 -0.8227  1.3591
  531MOL0     H71659   9.723   4.917  -0.686 -1.9916 -0.1230  2.2787
  531MOL0     H71660   9.700   5.084  -0.622  0.6205 -0.0292 -0.7489
  531MOL0     H71661   9.755   5.026  -0.909  0.2137 -0.6602  0.1300
  531MOL0     H71662   9.682   5.179  -0.852  0.5817 -1.2810 -3.8558
  531MOL0     H71663   9.924   5.129  -0.685  5.1798 -2.3043 -3.7941
  531MOL0     H71664   9.878   5.266  -0.785  0.4505 -0.1775 -1.4389
  531MOL0     H71665  10.004   4.999  -0.858 -0.1641 -0.2053  3.8232
  531MOL0     H71666  10.086   5.156  -0.855 -0.2401 -1.9583  0.4215
  531MOL0     H71667   9.386   4.727  -0.127  1.7728 -1.8434  2.6100
  531MOL0     H71668   9.373   4.522  -0.005 -0.5351  1.7984  0.3357
  531MOL0     H71669   9.452   4.146   0.056  1.1281 -0.3316 -1.1611
  531MOL0     H71670   9.495   3.976   0.202  1.0384 -1.7847 -1.3359
  531MOL0     H71671   9.543   4.257   1.038  0.8209  1.8589  1.0122
  531MOL0     H71672   9.500   4.176   1.253 -1.0530 -0.5541  0.2504
  531MOL0     H71673   9.377   4.100   1.671 -3.1312 -3.4539  0.5444
  531MOL0     H71674   9.381   3.994   1.892 -1.2956 -3.2845 -1.5097
  531MOL0     H71675   9.726   4.012   2.084  0.3065  0.0618 -0.3067
  531MOL0     H71676   9.555   4.071   2.096  1.1412 -0.1510 -1.9959
  531MOL0     H71677   9.646   4.016   2.315 -1.0693 -1.4878  1.7502
  531MOL0     H71678   9.675   3.849   2.259 -0.3365  0.7763 -0.9676
  531MOL0     H71679   9.439   3.822   2.219  2.9711  0.1936 -1.6090
  531MOL0     H71680   9.411   3.983   2.289 -0.9011 -1.4584  0.1056
  531MOL0     H71681   9.549   3.876   2.502  2.4017 -1.2891 -1.1085
  531MOL0     H71682   9.529   3.726   2.412 -1.5601 -0.7422  0.4206
  531MOL0     H71683   9.162   3.717   2.588 -1.6406  0.6929 -2.2974
  531MOL0     H71684   9.775   3.865   1.853 -0.7484 -3.1689 -0.7963
  531MOL0     H71685   9.779   3.959   1.604 -2.3218 -0.5074 -2.2196
  532MOL0     O71686   1.332  10.296   8.173  0.3465  0.0194 -0.3302
  532MOL0     C71687   1.210  10.278   8.209  0.3968 -0.2635  0.9548
  532MOL0     O71688   1.107  10.235   8.126 -0.3243  0.3175 -0.3762
  532MOL0     C71689   1.139  10.216   7.992 -0.1888 -0.6233 -0.3156
  532MOL0     C71690   1.108  10.098   7.924  0.0533  0.5476  1.1298
  532MOL0     C71691   1.129  10.100   7.779 -0.7492  0.4696 -1.0446
  532MOL0     C71692   1.182  10.205   7.707 -0.7891  0.4465  0.3972
  532MOL0     O71693   1.223  10.210   7.569  0.3898 -0.2461  0.4820
  532MOL0     C71694   1.138  10.146   7.480  0.7274  0.3666  0.2199
  532MOL0     C71695   1.158  10.231   7.355  0.0870 -0.5459 -0.4113
  532MOL0     C71696   1.120  10.373   7.378  0.4841  0.8989  0.3888
  532MOL0     C71697   1.138  10.465   7.254 -0.0002  0.0854  0.2084
  532MOL0     C71698   1.086  10.602   7.290  0.2730  0.2464  0.4870
  532MOL0     C71699   1.126  10.695   7.179  0.4269 -0.7745 -0.0428
  532MOL0     C71700   1.037  10.826   7.162  0.7041 -0.4694 -0.1687
  532MOL0     C71701   1.084  10.937   7.068 -0.9960  0.0848  0.0198
  532MOL0     N71702   1.233  10.960   7.055  0.1899  0.4532  0.3480
  532MOL0     C71703   1.299  10.902   6.949 -0.0207  0.1362 -0.8365
  532MOL0     C71704   1.411  10.975   6.929 -0.1709 -0.1032 -1.5420
  532MOL0     C71705   1.510  10.959   6.820 -0.7367  0.2683  0.0524
  532MOL0     C71706   1.497  10.823   6.754 -0.5292 -0.4413  0.6791
  532MOL0     C71707   1.570  10.717   6.842 -0.0634  0.1157 -0.1147
  532MOL0     C71708   1.531  10.583   6.794 -0.4306 -0.0132  0.5884
  532MOL0     O71709   1.609  10.475   6.844 -0.2696 -0.3280 -0.3413
  532MOL0     C71710   1.607  10.431   6.974  0.1745 -0.4429 -0.0346
  532MOL0     C71711   1.686  10.322   7.007  0.4659  0.7172 -0.1627
  532MOL0     C71712   1.702  10.278   7.139 -1.2591  1.2536  0.4820
  532MOL0     C71713   1.834  10.198   7.163  0.0108  1.1658  1.2890
  532MOL0     C71714   1.630  10.343   7.237 -0.1002 -0.4987  0.3262
  532MOL0     C71715   1.659  10.335   7.382 -0.1847  0.9858 -1.0142
  532MOL0     O71716   1.598  10.420   7.466 -0.4341 -0.6541 -0.3327
  532MOL0     C71717   1.625  10.414   7.602 -0.5727 -0.0001  0.8513
  532MOL0     C71718   1.742  10.471   7.656 -0.2558 -0.7099 -0.1394
  532MOL0     C71719   1.748  10.482   7.796 -0.6313 -0.3499 -0.3576
  532MOL0     C71720   1.654  10.412   7.882 -0.6242  0.0172 -0.2796
  532MOL0     O71721   1.670  10.453   8.012  0.1934 -0.6037  0.5119
  532MOL0     C71722   1.645  10.347   8.108 -0.4076 -0.8364  0.0161
  532MOL0     C71723   1.662  10.421   8.242 -0.0162 -0.3683 -0.1113
  532MOL0     C71724   1.821  10.461   8.269  0.2837 -0.0547  0.9606
  532MOL0     C71725   1.850  10.504   8.415 -0.5368  0.4563  0.1622
  532MOL0     C71726   1.978  10.433   8.466  0.3746  0.0273 -0.3912
  532MOL0     C71727   1.987  10.432   8.621 -0.8920 -0.1132 -0.4072
  532MOL0     C71728   2.072  10.551   8.666  0.4960  1.2712 -0.5261
  532MOL0     C71729   1.979  10.637   8.765  0.2735 -0.2757 -0.3156
  532MOL0    Cl71730   1.836  10.715   8.665  0.6285 -0.4991 -0.1652
  532MOL0     C71731   1.547  10.346   7.826 -0.2845 -0.1278  0.4615
  532MOL0     C71732   1.536  10.347   7.687  0.0930  0.1006  0.7030
  532MOL0     O71733   1.750  10.263   7.421  0.9169  0.7261 -0.8952
  532MOL0     C71734   1.535  10.444   7.204 -0.3153 -0.0671  0.1057
  532MOL0     C71735   1.532  10.488   7.076  0.2302  0.1068 -0.8610
  532MOL0     N71736   1.403  11.082   7.011  0.2629  0.6780 -0.0349
  532MOL0     N71737   1.299  11.076   7.081  0.1287 -0.9759  0.1727
  532MOL0     C71738   1.202  10.317   7.785  0.0912 -0.5180  1.1436
  532MOL0     C71739   1.184  10.328   7.917 -0.3094 -0.0824 -0.2982
  532MOL0     C71740   1.167  10.308   8.344  0.7021 -0.5686 -0.4052
  532MOL0     C71741   1.036  10.270   8.384  0.0827 -0.2761  0.2367
  532MOL0     C71742   0.993  10.299   8.514  1.0103 -0.5990 -0.0628
  532MOL0     C71743   1.072  10.359   8.615  0.3570  0.2298  0.0845
  532MOL0     O71744   1.039  10.376   8.745  0.0638 -0.3730 -0.2123
  532MOL0     C71745   0.902  10.351   8.780  0.0975  0.3200 -0.2753
  532MOL0     C71746   0.876  10.390   8.931  0.3196  0.1688 -0.0451
  532MOL0     C71747   0.879  10.534   8.979  0.1603 -0.6006 -0.2933
  532MOL0     C71748   0.861  10.539   9.136  0.0577 -0.8345  0.8219
  532MOL0     C71749   0.846  10.676   9.188  0.8247 -0.4572 -0.6134
  532MOL0     C71750   0.854  10.786   9.229 -0.6390 -0.4740 -0.0662
  532MOL0     C71751   1.200  10.399   8.570  0.1935 -0.8640 -0.5982
  532MOL0     C71752   1.251  10.375   8.440  0.2454 -0.2300 -0.0965
  532MOL0     H71753   1.073  10.007   7.972  2.0638 -1.7467 -1.4395
  532MOL0     H71754   1.100  10.009   7.728  3.8143 -4.6620  3.9884
  532MOL0     H71755   1.166  10.042   7.462  0.8599  0.3424  0.5636
  532MOL0     H71756   1.030  10.156   7.499  0.2500 -1.1747 -1.4373
  532MOL0     H71757   1.265  10.233   7.331  0.3411 -0.2345  0.7022
  532MOL0     H71758   1.094  10.182   7.281 -0.8651 -2.2622  1.4427
  532MOL0     H71759   1.012  10.368   7.397  0.5739 -1.5975  0.5487
  532MOL0     H71760   1.170  10.422   7.461  3.3343 -3.7338  1.7365
  532MOL0     H71761   1.242  10.466   7.220  0.4371  0.3171  1.4755
  532MOL0     H71762   1.094  10.425   7.163  2.5485  0.1861 -1.1512
  532MOL0     H71763   0.978  10.590   7.306 -0.2187  2.1792 -0.9025
  532MOL0     H71764   1.133  10.636   7.383  0.7965  0.9243 -0.0149
  532MOL0     H71765   1.225  10.734   7.204 -0.6728  2.3561 -0.1094
  532MOL0     H71766   1.124  10.648   7.080 -0.0175 -0.1240 -0.3499
  532MOL0     H71767   0.946  10.779   7.125  2.2849 -2.7165 -1.5092
  532MOL0     H71768   1.045  10.873   7.260  0.9418  0.3821 -0.5942
  532MOL0     H71769   1.040  11.032   7.101 -1.3144  0.4206 -1.2822
  532MOL0     H71770   1.040  10.906   6.973 -2.4702  1.3325  0.2454
  532MOL0     H71771   1.257  10.819   6.892 -3.5806  1.3763 -0.2948
  532MOL0     H71772   1.504  11.036   6.742  0.8228 -3.4013 -4.0634
  532MOL0     H71773   1.609  10.950   6.867  0.9939 -1.5166 -3.5599
  532MOL0     H71774   1.540  10.840   6.655  0.0968 -1.2277  0.7981
  532MOL0     H71775   1.392  10.796   6.744 -0.9423  0.5549  2.0614
  532MOL0     H71776   1.537  10.729   6.946  0.2073  2.2455 -0.2395
  532MOL0     H71777   1.679  10.702   6.843 -0.1868 -1.1124 -1.6514
  532MOL0     H71778   1.552  10.578   6.687 -1.1886 -2.6460  0.4840
  532MOL0     H71779   1.424  10.560   6.800 -0.2840 -0.4627  1.9882
  532MOL0     H71780   1.733  10.267   6.925  2.7866 -2.3289  2.8907
  532MOL0     H71781   1.821  10.114   7.233 -0.3058 -0.9623 -1.1488
  532MOL0     H71782   1.866  10.153   7.068 -1.3595 -2.6881  2.4379
  532MOL0     H71783   1.916  10.257   7.204  1.1088  0.4210  0.2224
  532MOL0     H71784   1.809  10.525   7.591  0.5790 -1.8823 -0.2933
  532MOL0     H71785   1.827  10.536   7.847 -3.3760  2.2738  1.4580
  532MOL0     H71786   1.540  10.317   8.099 -1.0970  0.3041  3.0911
  532MOL0     H71787   1.716  10.270   8.075  0.6512  0.4238 -0.7782
  532MOL0     H71788   1.599  10.509   8.261  0.9846 -0.1866  2.8895
  532MOL0     H71789   1.641  10.352   8.324  1.5002 -1.1648 -0.3615
  532MOL0     H71790   1.843  10.551   8.211  0.9954  1.2084  3.1001
  532MOL0     H71791   1.879  10.371   8.245 -1.2318 -0.7401 -0.2911
  532MOL0     H71792   1.866  10.612   8.416  1.9784  0.2894 -3.2537
  532MOL0     H71793   1.771  10.467   8.481 -1.0859 -1.2141 -1.3341
  532MOL0     H71794   2.071  10.476   8.428  0.6186  0.8833  1.0898
  532MOL0     H71795   1.976  10.328   8.435  2.1980 -0.1753  0.0603
  532MOL0     H71796   1.889  10.430   8.668 -0.8819  1.3569 -0.2975
  532MOL0     H71797   2.057  10.349   8.636 -0.0468  0.8879  1.6964
  532MOL0     H71798   2.122  10.610   8.589 -0.4731  4.0434  0.8403
  532MOL0     H71799   2.150  10.501   8.725 -0.9762 -0.6400 -0.1088
  532MOL0     H71800   2.043  10.704   8.823  0.4623 -0.0855 -0.7392
  532MOL0     H71801   1.931  10.560   8.826  3.0318 -1.4640  0.5228
  532MOL0     H71802   1.470  10.304   7.890  0.9561  0.2586  2.2780
  532MOL0     H71803   1.445  10.300   7.652  0.8870 -0.3478 -0.8448
  532MOL0     H71804   1.477  10.500   7.276 -0.7216  1.8444 -1.6026
  532MOL0     H71805   1.451  10.556   7.054  1.2344  2.8516  2.9993
  532MOL0     H71806   1.244  10.401   7.731  3.9802 -1.3743  2.5231
  532MOL0     H71807   1.194  10.411   7.987  0.3378  0.6594 -1.2397
  532MOL0     H71808   0.972  10.199   8.332 -1.2188  1.9618 -1.4065
  532MOL0     H71809   0.894  10.266   8.546 -0.3632  1.5838 -1.7338
  532MOL0     H71810   0.832  10.419   8.731  2.1405  2.1751 -0.7985
  532MOL0     H71811   0.869  10.247   8.770  1.5295  0.0239 -2.5289
  532MOL0     H71812   0.949  10.327   8.983  1.1189  1.1587  0.0491
  532MOL0     H71813   0.775  10.357   8.959  0.0834  0.9316  0.0169
  532MOL0     H71814   0.808  10.596   8.923  1.1643 -0.1572 -1.1122
  532MOL0     H71815   0.969  10.592   8.955  0.5121  0.5816  3.2077
  532MOL0     H71816   0.952  10.499   9.182  1.6550  1.2668 -0.2685
  532MOL0     H71817   0.770  10.490   9.171 -0.3571 -1.3114 -0.8239
  532MOL0     H71818   0.872  10.867   9.297 -0.8016 -0.6857  0.2310
  532MOL0     H71819   1.262  10.448   8.644 -1.5412 -1.2865  1.2369
  532MOL0     H71820   1.349  10.404   8.402  0.7693 -4.4157 -2.5686
  533MOL0     O71821   9.713   5.303   1.656 -0.3759 -0.0117  0.2522
  533MOL0     C71822   9.774   5.403   1.619  0.0382  0.0345 -0.7790
  533MOL0     O71823   9.728   5.529   1.606 -0.0958 -0.4357  0.1188
  533MOL0     C71824   9.607   5.556   1.671 -0.0713 -0.3294  0.7360
  533MOL0     C71825   9.591   5.661   1.759 -0.5801 -1.4385  0.5684
  533MOL0     C71826   9.469   5.694   1.815 -0.1207 -0.4798  0.0728
  533MOL0     C71827   9.350   5.625   1.778 -0.7255  0.0358  0.5719
  533MOL0     O71828   9.232   5.654   1.842  0.0179 -1.0045 -0.3342
  533MOL0     C71829   9.117   5.685   1.761 -0.5538  1.1885  0.4468
  533MOL0     C71830   9.124   5.825   1.696  0.0596  0.8819  0.3020
  533MOL0     C71831   9.136   5.948   1.782 -0.0908  0.3513 -0.3474
  533MOL0     C71832   9.003   5.974   1.861  0.5908  0.4460 -0.1505
  533MOL0     C71833   9.003   6.122   1.906 -0.8225 -1.0845  0.5595
  533MOL0     C71834   8.870   6.158   1.982 -0.9780 -0.2675 -0.3022
  533MOL0     C71835   8.748   6.143   1.894 -0.5667 -0.2773 -0.4375
  533MOL0     C71836   8.634   6.226   1.948  0.6857  0.0691 -0.1226
  533MOL0     N71837   8.510   6.206   1.869  0.8040  0.0902  0.3333
  533MOL0     C71838   8.387   6.256   1.900 -0.5410  0.8714 -0.3301
  533MOL0     C71839   8.319   6.272   1.789  0.5662 -0.0613 -1.3246
  533MOL0     C71840   8.168   6.278   1.787  0.2716 -0.3626 -0.5947
  533MOL0     C71841   8.107   6.408   1.852 -0.3057  1.3247  1.6812
  533MOL0     C71842   7.955   6.424   1.814  0.0432 -0.4772  0.1107
  533MOL0     C71843   7.862   6.369   1.918 -0.1364 -0.6254 -0.6573
  533MOL0     O71844   7.736   6.349   1.870 -0.4522 -0.8678 -0.5366
  533MOL0     C71845   7.697   6.223   1.857  0.0203 -0.6747 -0.0836
  533MOL0     C71846   7.764   6.123   1.789 -0.2719 -0.4209  0.4748
  533MOL0     C71847   7.715   5.994   1.769  0.5753  0.4255 -0.4708
  533MOL0     C71848   7.801   5.897   1.692  0.1410 -0.5774 -0.1535
  533MOL0     C71849   7.591   5.963   1.829 -0.0031  0.3276  0.6079
  533MOL0     C71850   7.528   5.828   1.821 -0.4052  0.2765  0.4146
  533MOL0     O71851   7.396   5.824   1.777 -0.6604  0.0383  0.0934
  533MOL0     C71852   7.326   5.705   1.807 -0.2385 -0.4532  0.1300
  533MOL0     C71853   7.288   5.659   1.930  0.8926 -0.2789 -0.4404
  533MOL0     C71854   7.217   5.535   1.951 -0.5297 -0.1227  0.3671
  533MOL0     C71855   7.185   5.451   1.852 -0.0496  0.2592  0.5792
  533MOL0     O71856   7.119   5.331   1.876 -0.1357  0.1991 -0.0318
  533MOL0     C71857   6.982   5.333   1.843 -0.2848  0.4015 -0.4849
  533MOL0     C71858   6.904   5.313   1.968 -0.3387 -0.4986 -0.6638
  533MOL0     C71859   6.904   5.164   2.021  0.4949 -0.2709  0.1935
  533MOL0     C71860   6.781   5.159   2.112 -0.3757  0.2273 -0.2423
  533MOL0     C71861   6.779   5.043   2.212  0.7389  0.1065 -0.1049
  533MOL0     C71862   6.768   4.905   2.146 -0.2721 -1.2865 -0.2536
  533MOL0     C71863   6.653   4.886   2.058  0.0537  0.2848 -1.1586
  533MOL0     C71864   6.636   4.741   2.039  0.7099  0.6557  0.7061
  533MOL0    Cl71865   6.759   4.702   1.921  0.1586  0.1229  0.2252
  533MOL0     C71866   7.223   5.502   1.722  0.8510 -0.6284  0.1051
  533MOL0     C71867   7.290   5.627   1.697  0.8518 -0.4410  1.0188
  533MOL0     O71868   7.601   5.726   1.843  0.4122 -0.4614  0.5834
  533MOL0     C71869   7.514   6.073   1.876 -0.7086  0.5720  0.5960
  533MOL0     C71870   7.564   6.203   1.884  0.3855  0.4493 -0.2974
  533MOL0     N71871   8.395   6.260   1.682  0.0532 -0.5510 -0.2696
  533MOL0     N71872   8.511   6.220   1.729  0.2279 -0.0691 -0.5945
  533MOL0     C71873   9.361   5.537   1.677 -0.1751  0.2433  0.4574
  533MOL0     C71874   9.492   5.502   1.617 -0.5053 -0.1436  0.0217
  533MOL0     C71875   9.918   5.386   1.591  0.2517  0.5726  1.2633
  533MOL0     C71876   9.979   5.265   1.546  0.4982 -0.0283 -0.1447
  533MOL0     C71877  10.110   5.257   1.520 -0.1759  0.0221  0.0907
  533MOL0     C71878  10.198   5.364   1.554 -0.7758  0.3505  0.6205
  533MOL0     O71879  10.336   5.359   1.542 -1.0324 -0.0868  0.0078
  533MOL0     C71880  10.392   5.239   1.478  0.7118 -0.3745 -0.8632
  533MOL0     C71881  10.525   5.292   1.435  0.0661  0.6967 -0.0910
  533MOL0     C71882  10.611   5.182   1.361 -1.2787  0.0095  0.3731
  533MOL0     C71883  10.750   5.232   1.317  0.7402 -0.5368 -0.1261
  533MOL0     C71884  10.837   5.269   1.425 -1.1946  0.2345 -0.2419
  533MOL0     C71885  10.902   5.274   1.530 -0.9135  0.4666  0.9648
  533MOL0     C71886  10.140   5.484   1.598 -0.0498 -0.3505  0.0977
  533MOL0     C71887  10.002   5.497   1.615 -0.8064  1.5269  0.4356
  533MOL0     H71888   9.671   5.723   1.798 -0.0588 -0.9735 -1.1334
  533MOL0     H71889   9.469   5.764   1.898 -1.5214 -1.9242  1.3637
  533MOL0     H71890   9.116   5.605   1.687 -1.7812  0.3572  1.3287
  533MOL0     H71891   9.031   5.655   1.822 -2.7290  0.1990 -2.8538
  533MOL0     H71892   9.207   5.822   1.625  1.6324 -1.5396  2.0838
  533MOL0     H71893   9.039   5.836   1.627  0.5861 -1.6475 -0.8527
  533MOL0     H71894   9.220   5.924   1.848 -3.0358 -2.1437  2.8992
  533MOL0     H71895   9.163   6.027   1.712 -1.0566 -2.0271 -3.6791
  533MOL0     H71896   8.919   5.948   1.796 -0.5855  5.0911 -0.8223
  533MOL0     H71897   8.987   5.912   1.950 -0.7335 -3.1077 -2.6750
  533MOL0     H71898   9.083   6.140   1.978 -1.1092 -0.5367  0.7478
  533MOL0     H71899   9.021   6.192   1.824  3.6486 -2.5667  0.0410
  533MOL0     H71900   8.849   6.102   2.074 -1.4740  1.2990  0.5994
  533MOL0     H71901   8.882   6.264   2.008  0.6165 -0.6143  0.4987
  533MOL0     H71902   8.770   6.172   1.791  3.6795  0.6417  0.5385
  533MOL0     H71903   8.706   6.042   1.890 -1.8985  0.2994 -3.0526
  533MOL0     H71904   8.658   6.333   1.943 -3.6324  1.3942  2.0431
  533MOL0     H71905   8.608   6.213   2.054 -0.2012  3.3695  0.1881
  533MOL0     H71906   8.338   6.255   1.997  1.1147 -2.4884  0.6228
  533MOL0     H71907   8.127   6.290   1.686 -1.1432  0.7912  0.0732
  533MOL0     H71908   8.122   6.192   1.836  0.3105  1.4500  2.9860
  533MOL0     H71909   8.169   6.486   1.808  0.8935 -0.4281  0.0944
  533MOL0     H71910   8.128   6.412   1.960  2.0393 -2.6767  1.5573
  533MOL0     H71911   7.935   6.384   1.714  1.7374 -1.6732  0.1946
  533MOL0     H71912   7.939   6.532   1.811  0.0683 -0.4503  0.8324
  533MOL0     H71913   7.863   6.439   2.002 -0.0543 -2.2215  0.7312
  533MOL0     H71914   7.902   6.275   1.956  0.5333  0.0371  0.3298
  533MOL0     H71915   7.866   6.146   1.759 -1.3233  2.6462 -1.1550
  533MOL0     H71916   7.886   5.876   1.758  1.2669  1.6719 -0.7807
  533MOL0     H71917   7.752   5.802   1.667  0.1480 -0.0025 -2.6595
  533MOL0     H71918   7.839   5.948   1.603 -2.9515 -0.0831 -1.2876
  533MOL0     H71919   7.311   5.722   2.015  1.2976  4.3989 -3.6531
  533MOL0     H71920   7.179   5.507   2.049 -0.7768 -0.9938  0.0295
  533MOL0     H71921   6.962   5.428   1.793 -2.0401  0.9768  1.1760
  533MOL0     H71922   6.960   5.257   1.768  1.2698  1.7884 -2.4290
  533MOL0     H71923   6.934   5.398   2.030 -2.5102  1.6388 -2.3475
  533MOL0     H71924   6.800   5.329   1.941 -0.1519 -1.9922 -2.4682
  533MOL0     H71925   6.997   5.138   2.073  1.2251  0.4243 -0.7296
  533MOL0     H71926   6.903   5.087   1.943 -1.4385  0.7853 -0.9069
  533MOL0     H71927   6.786   5.243   2.182  1.2998 -1.4552  1.7995
  533MOL0     H71928   6.695   5.177   2.047 -1.2141  0.6938  0.9553
  533MOL0     H71929   6.682   5.053   2.262  0.7951  1.7154 -0.2364
  533MOL0     H71930   6.855   5.046   2.290  0.5854  1.1844  0.0286
  533MOL0     H71931   6.859   4.877   2.091 -0.1936 -0.3647 -0.5993
  533MOL0     H71932   6.757   4.831   2.226 -1.1598 -0.2268  0.6224
  533MOL0     H71933   6.670   4.936   1.962 -3.5607  2.1066 -1.0240
  533MOL0     H71934   6.567   4.934   2.105 -1.0953 -1.4869 -1.3566
  533MOL0     H71935   6.537   4.725   1.996  0.8764  1.9772 -0.2150
  533MOL0     H71936   6.644   4.669   2.122  2.0459  1.3323  1.1821
  533MOL0     H71937   7.200   5.440   1.636 -0.1116  0.5999 -0.5565
  533MOL0     H71938   7.320   5.666   1.600 -3.2602  1.4981  0.2770
  533MOL0     H71939   7.413   6.043   1.900 -1.4991 -2.7173 -5.0588
  533MOL0     H71940   7.489   6.279   1.905 -1.7352 -0.8152 -2.7141
  533MOL0     H71941   9.282   5.487   1.623  0.1493  1.7723 -1.5678
  533MOL0     H71942   9.505   5.425   1.542  2.9764  0.6387 -0.3724
  533MOL0     H71943   9.905   5.185   1.542 -0.0667  0.4014  1.2197
  533MOL0     H71944  10.160   5.167   1.486  2.9446  1.6920 -0.0334
  533MOL0     H71945  10.408   5.171   1.562  0.9103  1.0434  0.2947
  533MOL0     H71946  10.333   5.184   1.404 -2.1182  0.6478  0.4875
  533MOL0     H71947  10.586   5.309   1.525  4.1377 -1.0628 -2.2330
  533MOL0     H71948  10.512   5.375   1.365 -2.6243 -1.3692 -2.2781
  533MOL0     H71949  10.561   5.134   1.276 -3.0490 -1.5506  2.1635
  533MOL0     H71950  10.635   5.101   1.431  1.9064  0.0446 -0.5405
  533MOL0     H71951  10.726   5.310   1.245 -0.3155  0.0696  0.8466
  533MOL0     H71952  10.792   5.148   1.260  0.4728  0.0391 -1.1874
  533MOL0     H71953  10.949   5.286   1.626  0.7176 -1.7488  0.5347
  533MOL0     H71954  10.198   5.575   1.608 -0.7908  0.1192  0.1924
  533MOL0     H71955   9.963   5.579   1.674 -1.7227  0.9153  0.6961
  534MOL0     O71956   2.089   5.482   1.177  0.7620 -0.3035  0.3870
  534MOL0     C71957   2.109   5.599   1.203 -0.0475 -0.5900  0.2159
  534MOL0     O71958   2.162   5.689   1.120 -0.3539 -0.4371 -0.5730
  534MOL0     C71959   2.215   5.664   0.990 -0.3848  0.1445  0.0780
  534MOL0     C71960   2.228   5.536   0.925  0.5247  0.0946  0.1224
  534MOL0     C71961   2.301   5.529   0.801 -0.2210  0.5139 -0.1535
  534MOL0     C71962   2.353   5.647   0.739  0.5548  1.7788 -0.9050
  534MOL0     O71963   2.415   5.649   0.620  0.2919  0.0634  0.2358
  534MOL0     C71964   2.488   5.528   0.594 -0.0857 -0.5207  0.3400
  534MOL0     C71965   2.589   5.565   0.484  0.4205 -0.0672  0.7838
  534MOL0     C71966   2.515   5.606   0.351 -0.0187 -0.2817 -1.0626
  534MOL0     C71967   2.618   5.662   0.254 -1.0199 -0.0011 -0.1817
  534MOL0     C71968   2.546   5.742   0.149 -0.2086  0.5419  0.3461
  534MOL0     C71969   2.449   5.660   0.059 -0.3213 -0.1784  0.4072
  534MOL0     C71970   2.412   5.741  -0.068 -0.3591 -0.0585 -0.0186
  534MOL0     C71971   2.517   5.777  -0.168  0.0715 -0.3977 -0.0275
  534MOL0     N71972   2.462   5.850  -0.292  0.5065 -0.2887 -0.3424
  534MOL0     C71973   2.380   5.801  -0.384 -0.3939 -0.0693 -0.4254
  534MOL0     C71974   2.344   5.904  -0.461  0.3333 -0.5262 -0.5243
  534MOL0     C71975   2.255   5.890  -0.585 -1.0875 -0.8664  0.2817
  534MOL0     C71976   2.343   5.959  -0.697 -0.0433 -0.1764 -0.0339
  534MOL0     C71977   2.297   5.934  -0.847 -0.1930  0.2806 -0.1087
  534MOL0     C71978   2.151   5.967  -0.867  0.3924  0.2512  1.2053
  534MOL0     O71979   2.149   6.105  -0.917  0.2442 -0.3899 -0.8835
  534MOL0     C71980   2.039   6.171  -0.875 -0.1985  0.2607 -0.0391
  534MOL0     C71981   1.911   6.122  -0.891  0.3180 -0.1333 -0.7112
  534MOL0     C71982   1.797   6.200  -0.852 -0.3706 -0.2246  0.0234
  534MOL0     C71983   1.663   6.132  -0.872  0.1823  0.1858  0.1939
  534MOL0     C71984   1.810   6.329  -0.803 -0.5935  0.6950  0.2215
  534MOL0     C71985   1.702   6.415  -0.736 -0.8830  1.0396 -0.5646
  534MOL0     O71986   1.735   6.534  -0.686 -0.0512 -0.4010  0.3153
  534MOL0     C71987   1.638   6.601  -0.614  0.0219  0.2083  0.7816
  534MOL0     C71988   1.610   6.582  -0.473 -1.1606  0.3621  0.0822
  534MOL0     C71989   1.512   6.659  -0.414  0.3331 -1.2072 -0.2893
  534MOL0     C71990   1.444   6.762  -0.477  0.2871 -0.9448 -0.5413
  534MOL0     O71991   1.368   6.845  -0.401  0.3570  0.1936  0.2520
  534MOL0     C71992   1.230   6.848  -0.443  0.5005  0.5120  0.5566
  534MOL0     C71993   1.134   6.913  -0.339 -0.5571  0.2104 -0.7249
  534MOL0     C71994   0.994   6.863  -0.362  0.7330 -0.3007  0.1179
  534MOL0     C71995   0.898   6.955  -0.294 -0.2717 -0.6269 -0.3838
  534MOL0     C71996   0.765   6.898  -0.330  0.6165  1.0577  0.5372
  534MOL0     C71997   0.652   6.980  -0.274  0.8639  0.1313 -0.0897
  534MOL0     C71998   0.515   6.916  -0.300 -0.7743 -0.3585  0.0262
  534MOL0     C71999   0.405   6.985  -0.228  0.4314  0.6824 -0.0387
  534MOL0    Cl72000   0.387   7.152  -0.316  0.4929 -0.6355  0.1849
  534MOL0     C72001   1.475   6.797  -0.611 -0.3165  0.6656 -0.3973
  534MOL0     C72002   1.570   6.712  -0.679 -0.0602 -0.3349 -0.2396
  534MOL0     O72003   1.586   6.370  -0.726 -0.1014  0.2325  0.3124
  534MOL0     C72004   1.937   6.375  -0.790  0.0525  0.5553 -0.5542
  534MOL0     C72005   2.050   6.289  -0.815  0.1837 -1.4860  0.1222
  534MOL0     N72006   2.394   6.021  -0.413 -0.8650 -0.4114 -0.2921
  534MOL0     N72007   2.463   5.984  -0.314  0.6329 -0.8221  0.1946
  534MOL0     C72008   2.334   5.767   0.805  0.0590  0.2299 -0.9975
  534MOL0     C72009   2.258   5.775   0.925 -0.0279 -0.6539 -0.6967
  534MOL0     C72010   2.114   5.638   1.345  0.3771 -1.3068  0.7873
  534MOL0     C72011   2.119   5.547   1.454  0.1887  0.2892 -0.3685
  534MOL0     C72012   2.107   5.583   1.588  0.7689 -0.3091  0.5660
  534MOL0     C72013   2.105   5.724   1.618 -0.0756 -0.9032 -0.7917
  534MOL0     O72014   2.098   5.773   1.749  0.3148 -0.8548  0.4597
  534MOL0     C72015   2.021   5.690   1.836 -0.3980  0.0609 -0.0690
  534MOL0     C72016   2.001   5.735   1.980 -0.2568 -0.0656  0.3410
  534MOL0     C72017   2.104   5.820   2.055 -0.2549 -0.0751  0.6250
  534MOL0     C72018   2.082   5.830   2.201  1.1216 -0.5575  0.2308
  534MOL0     C72019   2.096   5.710   2.280  0.7206  1.0562  0.4740
  534MOL0     C72020   2.110   5.605   2.343 -0.3851  0.5204 -0.3853
  534MOL0     C72021   2.113   5.818   1.517  0.3842  0.2754  0.2947
  534MOL0     C72022   2.108   5.774   1.381 -0.6251 -0.0512  0.0914
  534MOL0     H72023   2.188   5.443   0.964  1.7549 -0.6390 -0.3007
  534MOL0     H72024   2.322   5.429   0.762 -1.2571  0.5798 -0.9257
  534MOL0     H72025   2.555   5.504   0.677  0.5610 -0.1375 -0.0618
  534MOL0     H72026   2.426   5.446   0.557  2.7282 -2.7827  0.2409
  534MOL0     H72027   2.648   5.654   0.506  0.1458  1.4420 -3.6211
  534MOL0     H72028   2.655   5.478   0.482  0.3262 -0.1552  1.3214
  534MOL0     H72029   2.474   5.513   0.311  0.0125 -0.5360 -0.5090
  534MOL0     H72030   2.431   5.676   0.353 -1.2547 -1.5080 -4.0661
  534MOL0     H72031   2.695   5.723   0.301 -1.7057  1.7204 -1.2020
  534MOL0     H72032   2.663   5.578   0.200  1.0670 -1.4050  3.4517
  534MOL0     H72033   2.487   5.825   0.189 -3.0569 -0.1943 -1.9833
  534MOL0     H72034   2.618   5.805   0.095  0.2594  1.8095  2.3019
  534MOL0     H72035   2.490   5.564   0.024  0.5184  0.3740 -0.1642
  534MOL0     H72036   2.353   5.635   0.106 -1.7124  0.9654 -1.6620
  534MOL0     H72037   2.335   5.682  -0.117 -1.4985  2.0008 -0.7988
  534MOL0     H72038   2.360   5.836  -0.055  3.1864  2.8868 -4.3338
  534MOL0     H72039   2.569   5.683  -0.190  1.1081  0.0045  0.6238
  534MOL0     H72040   2.594   5.843  -0.128  3.7379 -2.0075 -3.6393
  534MOL0     H72041   2.364   5.695  -0.395  2.0906 -0.4133 -1.3912
  534MOL0     H72042   2.242   5.785  -0.611  1.7481 -2.9495  5.7540
  534MOL0     H72043   2.159   5.942  -0.575 -1.3022 -0.7403 -1.9042
  534MOL0     H72044   2.448   5.931  -0.691 -0.6593 -2.5933  0.4694
  534MOL0     H72045   2.357   6.067  -0.688  1.2146 -0.2574 -0.7196
  534MOL0     H72046   2.328   5.832  -0.868  0.3837  0.7841 -1.8754
  534MOL0     H72047   2.354   5.995  -0.918  0.7302  0.7746  1.0385
  534MOL0     H72048   2.099   5.942  -0.774 -0.0101 -1.2960  0.6043
  534MOL0     H72049   2.111   5.901  -0.945  1.9466  0.2594  0.3543
  534MOL0     H72050   1.913   6.022  -0.932  2.8873 -0.3018 -0.3492
  534MOL0     H72051   1.597   6.200  -0.926  2.0251 -0.3952 -3.0614
  534MOL0     H72052   1.678   6.044  -0.935  2.7100  0.2464  0.6225
  534MOL0     H72053   1.610   6.109  -0.780 -1.4305  0.2444 -0.6863
  534MOL0     H72054   1.662   6.496  -0.431  1.2990  1.7685  0.1357
  534MOL0     H72055   1.499   6.648  -0.307 -0.4167  0.6164 -0.1417
  534MOL0     H72056   1.224   6.923  -0.522  0.3194  1.0021  1.0228
  534MOL0     H72057   1.198   6.752  -0.484 -1.3589  0.5213  1.8496
  534MOL0     H72058   1.166   6.894  -0.236 -0.2707 -3.9271 -1.4169
  534MOL0     H72059   1.151   7.019  -0.358  3.8648 -0.1861 -0.0336
  534MOL0     H72060   0.980   6.764  -0.318  1.6943 -0.9098 -0.8898
  534MOL0     H72061   0.989   6.872  -0.471  4.0478 -1.3131 -0.2270
  534MOL0     H72062   0.909   6.937  -0.186 -2.4733 -2.5038 -0.3959
  534MOL0     H72063   0.929   7.060  -0.303  0.2060 -0.7659 -0.4137
  534MOL0     H72064   0.754   6.804  -0.276 -0.5611  0.5578 -0.5116
  534MOL0     H72065   0.744   6.870  -0.434 -0.4219 -3.5472  1.7455
  534MOL0     H72066   0.657   6.993  -0.165 -0.7281 -1.1110  0.1729
  534MOL0     H72067   0.657   7.078  -0.322  0.1676  0.2037 -0.0326
  534MOL0     H72068   0.512   6.811  -0.269 -3.0440 -0.7230 -1.1816
  534MOL0     H72069   0.499   6.912  -0.409 -5.3764 -2.0276  0.5360
  534MOL0     H72070   0.429   6.979  -0.121  0.6694 -1.9140 -0.1913
  534MOL0     H72071   0.303   6.945  -0.237 -0.3838  2.2490  1.4633
  534MOL0     H72072   1.436   6.886  -0.659 -2.6319 -0.7458 -1.2893
  534MOL0     H72073   1.614   6.734  -0.776 -0.4708 -0.6000 -0.4863
  534MOL0     H72074   1.966   6.469  -0.743  1.1566 -0.3929  0.7551
  534MOL0     H72075   2.153   6.312  -0.789 -0.5628 -1.8530  4.1142
  534MOL0     H72076   2.375   5.854   0.754  1.5903  0.0473 -0.1619
  534MOL0     H72077   2.248   5.873   0.971  0.3040  0.1187 -2.2129
  534MOL0     H72078   2.115   5.444   1.420  0.7177  0.6114 -1.4211
  534MOL0     H72079   2.077   5.505   1.657  1.9173 -0.5047  0.8735
  534MOL0     H72080   1.923   5.687   1.787  0.0255  2.9448 -1.3036
  534MOL0     H72081   2.059   5.587   1.844  1.0507  0.6403  0.9570
  534MOL0     H72082   1.984   5.650   2.046 -4.0383  0.0197 -0.3066
  534MOL0     H72083   1.905   5.789   1.978  0.3094  1.0174  1.2580
  534MOL0     H72084   2.099   5.923   2.019 -0.3364 -0.1925  0.2981
  534MOL0     H72085   2.207   5.784   2.046  0.3899  1.4619  1.4488
  534MOL0     H72086   1.978   5.861   2.212 -0.2305 -3.7628 -1.7846
  534MOL0     H72087   2.136   5.915   2.243  1.5941  0.9018 -3.0223
  534MOL0     H72088   2.100   5.517   2.403  0.9011  0.5160 -0.1554
  534MOL0     H72089   2.108   5.925   1.529 -2.2357  0.3007 -0.2134
  534MOL0     H72090   2.118   5.856   1.311 -2.4449  1.6356  1.7066
  535MOL0     O72091   8.629   3.885  11.275 -0.0662 -0.6199 -0.1301
  535MOL0     C72092   8.699   3.983  11.256 -0.2222  0.0928 -0.1079
  535MOL0     O72093   8.754   4.017  11.138 -0.0600 -0.4403  0.2993
  535MOL0     C72094   8.784   3.918  11.046  1.2949 -1.1326 -0.3697
  535MOL0     C72095   8.679   3.862  10.964  0.4700  0.1619 -0.5185
  535MOL0     C72096   8.716   3.761  10.874 -0.8062 -1.3611 -0.6818
  535MOL0     C72097   8.849   3.726  10.850  0.1084  0.8201  1.0927
  535MOL0     O72098   8.885   3.664  10.736  0.3230  0.1591  0.2294
  535MOL0     C72099   8.913   3.524  10.739 -0.3372 -0.1323  0.0012
  535MOL0     C72100   9.056   3.508  10.774 -0.2934  0.4459 -0.3854
  535MOL0     C72101   9.102   3.368  10.759 -0.0487  0.0629 -0.1054
  535MOL0     C72102   9.212   3.316  10.846  0.2059 -0.4233  0.3960
  535MOL0     C72103   9.325   3.417  10.856 -1.1144  0.2828  0.0165
  535MOL0     C72104   9.457   3.364  10.933  0.3466  0.3057 -0.1424
  535MOL0     C72105   9.563   3.464  10.916  0.1463  0.2703 -0.1157
  535MOL0     C72106   9.686   3.430  10.991  0.8384  0.2023 -0.1677
  535MOL0     N72107   9.759   3.317  10.935  0.2818  0.0236  0.5409
  535MOL0     C72108   9.868   3.323  10.863  0.1214  0.3181  1.2826
  535MOL0     C72109   9.914   3.194  10.839 -0.1119  0.5628  0.2194
  535MOL0     C72110  10.018   3.151  10.738 -0.3010 -0.5888 -0.2580
  535MOL0     C72111  10.159   3.138  10.802 -0.1669  0.0443 -0.4462
  535MOL0     C72112  10.214   3.272  10.855 -0.5079 -0.0152 -0.2774
  535MOL0     C72113  10.353   3.259  10.930  0.6206 -0.0456  0.4708
  535MOL0     O72114  10.352   3.377  11.008 -0.7435 -0.0012  0.4470
  535MOL0     C72115  10.475   3.413  11.074 -0.2283 -0.3144  0.3350
  535MOL0     C72116  10.482   3.538  11.129 -0.1705  0.4516  0.6924
  535MOL0     C72117  10.597   3.589  11.194  1.1734  0.0711  0.0615
  535MOL0     C72118  10.597   3.743  11.224 -0.3781  0.6792  0.0298
  535MOL0     C72119  10.713   3.503  11.197 -1.1587  0.0463 -0.0875
  535MOL0     C72120  10.843   3.529  11.266  0.6153  1.1219  0.6730
  535MOL0     O72121  10.843   3.606  11.379  0.3217 -0.7439  0.1162
  535MOL0     C72122  10.967   3.638  11.424  0.1162  0.2513  0.3091
  535MOL0     C72123  11.025   3.542  11.507  0.2904 -0.5101 -0.0771
  535MOL0     C72124  11.146   3.577  11.569  0.0645 -0.0145  0.0540
  535MOL0     C72125  11.196   3.712  11.568  1.1944  0.3643 -0.6080
  535MOL0     O72126  11.316   3.739  11.624 -0.6735 -0.4407  0.2558
  535MOL0     C72127  11.409   3.631  11.648  0.7740 -0.7532 -0.2297
  535MOL0     C72128  11.540   3.691  11.687 -0.4945  0.1315 -0.7605
  535MOL0     C72129  11.652   3.601  11.662 -0.1349  0.5450  0.6530
  535MOL0     C72130  11.767   3.637  11.751 -0.3389  0.0941 -0.1280
  535MOL0     C72131  11.901   3.588  11.682 -0.9984  0.2426  0.5367
  535MOL0     C72132  11.905   3.437  11.663 -0.4055  0.5563  0.2148
  535MOL0     C72133  12.043   3.378  11.602  0.1354 -0.6309 -0.1211
  535MOL0     C72134  12.086   3.461  11.480 -0.5307  0.8045  0.3361
  535MOL0    Cl72135  11.949   3.464  11.361 -0.2909 -0.1593  0.1210
  535MOL0     C72136  11.119   3.807  11.502 -0.2601  0.9333  0.4118
  535MOL0     C72137  11.013   3.769  11.420  0.4340  0.0648 -0.4460
  535MOL0     O72138  10.940   3.473  11.214  0.0030 -0.2643 -0.2103
  535MOL0     C72139  10.697   3.370  11.151  0.4251 -0.1927  0.0159
  535MOL0     C72140  10.579   3.332  11.088  0.5556  1.1781  0.2347
  535MOL0     N72141   9.842   3.115  10.930 -0.6277 -1.0976  0.3843
  535MOL0     N72142   9.749   3.192  10.979 -0.1584  0.5348 -0.2901
  535MOL0     C72143   8.944   3.778  10.934 -0.1335  0.2896 -0.6051
  535MOL0     C72144   8.908   3.856  11.044  0.0982 -0.1290 -1.1471
  535MOL0     C72145   8.717   4.080  11.376  0.3555  0.5999  0.0577
  535MOL0     C72146   8.793   4.201  11.362 -0.3492  0.6050  0.4899
  535MOL0     C72147   8.814   4.281  11.473  0.5766  0.5411  0.0327
  535MOL0     C72148   8.746   4.260  11.594 -0.4552  0.3286  0.2536
  535MOL0     O72149   8.748   4.351  11.693  0.7763  0.1553 -0.2304
  535MOL0     C72150   8.680   4.320  11.818  0.6174  0.1537  0.2792
  535MOL0     C72151   8.672   4.439  11.927 -0.3624  0.7865  0.1672
  535MOL0     C72152   8.790   4.455  12.023  0.7866 -0.5687 -0.2926
  535MOL0     C72153   8.760   4.551  12.140 -1.1364  0.8459  0.7059
  535MOL0     C72154   8.754   4.695  12.107 -0.9496  1.2517  0.4449
  535MOL0     C72155   8.753   4.807  12.059  0.4526  0.6257 -0.8791
  535MOL0     C72156   8.661   4.148  11.598 -0.5686 -0.0197  0.1088
  535MOL0     C72157   8.640   4.058  11.493 -0.2929 -0.6698  0.6325
  535MOL0     H72158   8.574   3.885  10.976  0.0569 -2.0354  0.6579
  535MOL0     H72159   8.639   3.731  10.803  0.3735  2.4739 -3.9393
  535MOL0     H72160   8.839   3.471  10.799 -1.2694  2.1716  0.9592
  535MOL0     H72161   8.902   3.488  10.636  0.0627  1.5466 -0.6646
  535MOL0     H72162   9.111   3.586  10.721  1.9347  0.3790  1.6501
  535MOL0     H72163   9.068   3.530  10.881  0.3815 -2.0404  0.1088
  535MOL0     H72164   9.023   3.291  10.764  2.9990 -3.2799  2.7782
  535MOL0     H72165   9.134   3.363  10.654  0.8509  4.8174 -0.2638
  535MOL0     H72166   9.180   3.286  10.946  0.7670 -3.6557 -0.2782
  535MOL0     H72167   9.244   3.229  10.789 -1.1047  0.3770 -1.6796
  535MOL0     H72168   9.368   3.436  10.757  2.0642 -0.8008  1.0587
  535MOL0     H72169   9.299   3.509  10.909  0.7903  1.6222 -1.2409
  535MOL0     H72170   9.426   3.355  11.037 -0.4207 -2.4546 -0.5160
  535MOL0     H72171   9.485   3.273  10.879  3.2737  2.0575 -1.8062
  535MOL0     H72172   9.585   3.469  10.809 -0.5408  1.4273 -0.2177
  535MOL0     H72173   9.527   3.563  10.944  2.2215  1.8201 -2.5324
  535MOL0     H72174   9.659   3.400  11.093 -1.6180 -0.6101 -0.9933
  535MOL0     H72175   9.751   3.518  11.000 -0.0557  0.9649 -0.9318
  535MOL0     H72176   9.895   3.417  10.815 -2.5725  0.3346 -0.3833
  535MOL0     H72177   9.979   3.056  10.700  0.2123  0.0095 -2.4013
  535MOL0     H72178  10.026   3.222  10.655  1.9695  1.3813  1.4934
  535MOL0     H72179  10.218   3.112  10.714  0.5017 -1.1152  0.3067
  535MOL0     H72180  10.162   3.056  10.875 -0.5567 -0.5083 -1.0436
  535MOL0     H72181  10.150   3.311  10.935 -1.7431  1.4581 -1.8912
  535MOL0     H72182  10.223   3.349  10.778  1.8405  0.6919  0.6281
  535MOL0     H72183  10.437   3.245  10.861 -0.7198 -2.3467 -0.7966
  535MOL0     H72184  10.347   3.171  10.994  3.1628 -2.3588 -2.2050
  535MOL0     H72185  10.392   3.598  11.115 -0.4963 -0.0005  0.8375
  535MOL0     H72186  10.513   3.774  11.287 -1.7892 -0.3072 -1.2782
  535MOL0     H72187  10.694   3.773  11.263  0.0912 -0.6507 -0.0711
  535MOL0     H72188  10.588   3.799  11.131 -2.7541 -1.7255 -1.3519
  535MOL0     H72189  10.973   3.449  11.524  0.6160 -0.7233 -0.2338
  535MOL0     H72190  11.185   3.493  11.626  3.5904 -0.8688 -3.1730
  535MOL0     H72191  11.361   3.579  11.731 -0.0245  1.2072  0.6094
  535MOL0     H72192  11.422   3.558  11.568 -0.0662 -4.3947  2.6904
  535MOL0     H72193  11.555   3.791  11.644 -1.5627  0.5702 -0.1499
  535MOL0     H72194  11.534   3.699  11.796  2.9582 -2.5301 -0.2077
  535MOL0     H72195  11.671   3.601  11.554 -0.7738  0.0330  0.5298
  535MOL0     H72196  11.612   3.507  11.702 -1.2702  2.2039  3.8073
  535MOL0     H72197  11.772   3.744  11.775  1.4980 -0.4632  2.3785
  535MOL0     H72198  11.756   3.594  11.851 -2.6511  0.7644 -0.0211
  535MOL0     H72199  11.990   3.622  11.734 -0.8290  1.1639 -0.3352
  535MOL0     H72200  11.913   3.628  11.581 -1.8128  1.7736  1.0183
  535MOL0     H72201  11.891   3.386  11.759  1.3946 -4.1042 -1.6819
  535MOL0     H72202  11.820   3.405  11.602 -0.7716  2.5516 -0.3848
  535MOL0     H72203  12.040   3.271  11.580 -0.3322 -0.5649 -0.3844
  535MOL0     H72204  12.128   3.390  11.669  0.8339 -0.3127 -1.0445
  535MOL0     H72205  12.178   3.412  11.445  1.5338  1.1106  4.7114
  535MOL0     H72206  12.111   3.565  11.501 -1.0685  1.2048 -0.9361
  535MOL0     H72207  11.159   3.908  11.510  0.7951  0.3779  2.7420
  535MOL0     H72208  10.954   3.844  11.369  0.3464  1.3695  1.4573
  535MOL0     H72209  10.774   3.294  11.147  0.0018 -0.6496  0.3961
  535MOL0     H72210  10.578   3.230  11.052 -0.1567  0.3908  2.3424
  535MOL0     H72211   9.051   3.758  10.936 -0.3254 -0.7474  1.0292
  535MOL0     H72212   8.988   3.885  11.112  1.3825 -0.2626 -2.5377
  535MOL0     H72213   8.853   4.213  11.272 -0.4718  1.6315  0.5366
  535MOL0     H72214   8.889   4.359  11.470  1.3015 -0.1801 -1.6450
  535MOL0     H72215   8.575   4.299  11.797  0.4276  1.5557 -0.3222
  535MOL0     H72216   8.710   4.227  11.866  1.9558 -1.9691 -4.0800
  535MOL0     H72217   8.587   4.412  11.991 -1.3021  1.1627 -0.8997
  535MOL0     H72218   8.654   4.537  11.882 -0.2501  0.4699 -0.5706
  535MOL0     H72219   8.880   4.487  11.969  1.2476 -0.5252  0.4773
  535MOL0     H72220   8.798   4.359  12.076 -2.4108  1.0249  3.5825
  535MOL0     H72221   8.826   4.536  12.225 -1.0099 -2.9044  0.1101
  535MOL0     H72222   8.662   4.525  12.180 -3.0481  2.8914 -2.2339
  535MOL0     H72223   8.741   4.909  12.029  0.1856  1.1241  0.8157
  535MOL0     H72224   8.603   4.121  11.686  0.6712  2.6569  1.8818
  535MOL0     H72225   8.564   3.981  11.488 -2.0038  0.9348 -4.4421
  536MOL0     O72226  11.216   4.398   2.352  0.4293 -0.0535 -0.2194
  536MOL0     C72227  11.222   4.465   2.253  0.3814  0.7673  1.1223
  536MOL0     O72228  11.271   4.416   2.130 -0.5082  0.1850  0.9119
  536MOL0     C72229  11.353   4.312   2.129 -0.3856  0.1480  0.5696
  536MOL0     C72230  11.305   4.179   2.154 -0.2845 -0.1734 -1.1249
  536MOL0     C72231  11.377   4.058   2.134 -0.3704  0.2905  0.1344
  536MOL0     C72232  11.510   4.073   2.093 -1.1510 -0.4743  0.6392
  536MOL0     O72233  11.593   3.964   2.080 -0.2427 -0.5394  0.5836
  536MOL0     C72234  11.724   3.966   2.138  0.4122 -1.1870 -0.6608
  536MOL0     C72235  11.818   3.852   2.111  0.2617  0.9361  0.4631
  536MOL0     C72236  11.768   3.702   2.142  0.1685 -0.5601  0.6082
  536MOL0     C72237  11.836   3.678   2.283 -0.3866 -0.1194  0.2928
  536MOL0     C72238  11.773   3.570   2.364  0.0326  0.7129  0.8023
  536MOL0     C72239  11.773   3.438   2.297 -0.4903 -0.1471  0.1926
  536MOL0     C72240  11.917   3.376   2.274  0.0666 -0.7046  1.4111
  536MOL0     C72241  12.006   3.359   2.392 -0.0214 -0.0143  0.1329
  536MOL0     N72242  12.098   3.476   2.423  0.8349  0.7076 -0.4369
  536MOL0     C72243  12.195   3.518   2.338  0.1391  1.2247 -0.1565
  536MOL0     C72244  12.248   3.631   2.396  0.9800  0.0271  0.0104
  536MOL0     C72245  12.358   3.715   2.335 -0.0879 -0.7485 -0.5360
  536MOL0     C72246  12.491   3.623   2.333  0.6305 -0.8418 -0.2591
  536MOL0     C72247  12.594   3.700   2.242  0.3805  0.7668 -0.2161
  536MOL0     C72248  12.661   3.599   2.150  0.6932 -0.4723  0.9183
  536MOL0     O72249  12.800   3.595   2.184 -0.1515 -0.2425  0.1536
  536MOL0     C72250  12.885   3.630   2.089  0.6488 -0.4411  0.3737
  536MOL0     C72251  13.015   3.594   2.124  0.0955  0.3736 -0.1291
  536MOL0     C72252  13.121   3.625   2.039  0.4649  0.1682  0.4831
  536MOL0     C72253  13.254   3.596   2.092 -0.5932 -0.3521 -0.5416
  536MOL0     C72254  13.103   3.683   1.907  0.6596  0.1157  0.5260
  536MOL0     C72255  13.205   3.716   1.811 -0.2492 -0.8095  0.4531
  536MOL0     O72256  13.158   3.787   1.707  0.0798 -0.1344 -0.7738
  536MOL0     C72257  13.243   3.872   1.623  0.4537  0.2151 -0.0037
  536MOL0     C72258  13.384   3.878   1.620 -0.2832 -0.9744  0.6620
  536MOL0     C72259  13.446   3.951   1.522 -0.5932 -0.6860  0.0589
  536MOL0     C72260  13.391   4.026   1.419  0.2701  0.3215 -0.7330
  536MOL0     O72261  13.458   4.084   1.312 -0.8441  1.2006  0.2350
  536MOL0     C72262  13.395   4.128   1.193 -0.2912  0.5009  0.1529
  536MOL0     C72263  13.512   4.176   1.118 -0.0234 -0.1671  1.0507
  536MOL0     C72264  13.481   4.256   0.997  1.0551 -0.5449  0.1287
  536MOL0     C72265  13.406   4.393   1.038 -0.0052 -0.0207 -0.3333
  536MOL0     C72266  13.379   4.479   0.924  0.0077 -0.8131 -0.3362
  536MOL0     C72267  13.311   4.608   0.968  0.9231 -0.3703  0.1678
  536MOL0     C72268  13.412   4.709   1.010  0.0480 -0.2132 -0.0244
  536MOL0     C72269  13.362   4.820   1.105  0.2942 -0.7032  1.0360
  536MOL0    Cl72270  13.497   4.938   1.136 -0.0144  0.1481  0.2256
  536MOL0     C72271  13.250   4.016   1.423  0.3170 -0.0827  0.7967
  536MOL0     C72272  13.185   3.949   1.524  0.4517  0.2130  0.6928
  536MOL0     O72273  13.319   3.681   1.819  0.2164 -0.5408 -0.1141
  536MOL0     C72274  12.967   3.720   1.870 -0.6100  0.3073 -0.2369
  536MOL0     C72275  12.866   3.696   1.965  0.4887  0.1838  0.1782
  536MOL0     N72276  12.180   3.647   2.517 -0.8524 -0.2435 -0.5337
  536MOL0     N72277  12.088   3.558   2.529  0.8588 -1.3174  0.5445
  536MOL0     C72278  11.557   4.205   2.055 -1.0073  0.2260 -0.0132
  536MOL0     C72279  11.475   4.317   2.070  0.2173  0.3000  0.1427
  536MOL0     C72280  11.160   4.606   2.253  0.0249  0.0081 -0.2057
  536MOL0     C72281  11.161   4.684   2.139 -0.4039  0.4580 -0.1112
  536MOL0     C72282  11.120   4.816   2.133 -0.1355  0.4462 -0.1760
  536MOL0     C72283  11.048   4.869   2.239  0.0162  0.4744 -0.9757
  536MOL0     O72284  10.987   4.990   2.236 -0.1937 -0.6891  0.1475
  536MOL0     C72285  10.901   5.009   2.127  0.1735 -0.3036  0.2630
  536MOL0     C72286  10.901   5.153   2.084 -0.4678 -0.4731 -0.4794
  536MOL0     C72287  10.836   5.167   1.949  0.7504  0.1216  0.5377
  536MOL0     C72288  10.802   5.311   1.895 -0.0224 -0.4037  0.0583
  536MOL0     C72289  10.726   5.396   1.994  0.3837  0.8361  0.2431
  536MOL0     C72290  10.691   5.472   2.082 -0.3530 -0.0345 -0.7093
  536MOL0     C72291  11.036   4.790   2.358 -0.1041 -0.8771 -0.0841
  536MOL0     C72292  11.093   4.667   2.367 -0.6340 -0.8641  0.4898
  536MOL0     H72293  11.205   4.179   2.195 -0.3736  1.0380 -1.3070
  536MOL0     H72294  11.345   3.958   2.160  1.3620 -0.4264 -0.3671
  536MOL0     H72295  11.784   4.055   2.114 -2.2002  0.4795 -1.3970
  536MOL0     H72296  11.711   3.972   2.247  1.7394 -0.7345 -0.5062
  536MOL0     H72297  11.848   3.848   2.006  0.4710 -0.1697  0.5543
  536MOL0     H72298  11.911   3.872   2.166 -1.2669  2.9117  2.4959
  536MOL0     H72299  11.661   3.686   2.155 -0.4744  3.5783  1.6362
  536MOL0     H72300  11.806   3.641   2.059 -0.3522 -2.7754  1.9055
  536MOL0     H72301  11.941   3.652   2.264 -0.2697  0.1966  0.4932
  536MOL0     H72302  11.845   3.763   2.351  0.1868 -0.5006  0.6993
  536MOL0     H72303  11.824   3.569   2.461  0.0116  2.1088  0.8474
  536MOL0     H72304  11.668   3.599   2.374  0.1621  1.4800  0.0804
  536MOL0     H72305  11.712   3.372   2.359  0.9481 -1.8736 -0.1382
  536MOL0     H72306  11.723   3.439   2.199  2.3428 -2.5651 -1.4673
  536MOL0     H72307  11.912   3.275   2.231  0.3422  0.2921 -1.1822
  536MOL0     H72308  11.963   3.434   2.194 -2.1917  0.1825  0.6733
  536MOL0     H72309  12.074   3.280   2.360 -1.7293 -1.0175 -1.2098
  536MOL0     H72310  11.964   3.317   2.484  2.0998 -0.4170  0.9727
  536MOL0     H72311  12.201   3.488   2.234 -2.5649  1.4714 -0.4449
  536MOL0     H72312  12.337   3.747   2.233  1.9144  0.9022 -0.4820
  536MOL0     H72313  12.379   3.801   2.399  1.4733 -0.7128 -1.0578
  536MOL0     H72314  12.466   3.528   2.285  0.6350 -0.3316 -1.2984
  536MOL0     H72315  12.525   3.619   2.437 -2.8622  2.2090  1.2499
  536MOL0     H72316  12.670   3.745   2.307  1.1727 -2.8071  1.5904
  536MOL0     H72317  12.547   3.772   2.174 -2.8758 -1.3472 -0.3821
  536MOL0     H72318  12.646   3.626   2.045  1.7552  0.7812  1.0656
  536MOL0     H72319  12.612   3.501   2.156 -1.0470  0.3844  1.4912
  536MOL0     H72320  13.025   3.530   2.211  0.1581 -1.0014 -1.1105
  536MOL0     H72321  13.304   3.528   2.022  0.9889  0.2367 -0.0103
  536MOL0     H72322  13.308   3.690   2.103  0.5042 -1.0138 -0.0620
  536MOL0     H72323  13.262   3.546   2.188 -0.7549 -0.9128 -0.8153
  536MOL0     H72324  13.445   3.826   1.693  0.2345  0.6862  1.4594
  536MOL0     H72325  13.552   3.973   1.520 -0.6211 -0.5694 -0.6178
  536MOL0     H72326  13.336   4.054   1.138  0.9138 -1.2087  1.0543
  536MOL0     H72327  13.334   4.214   1.222 -3.7720 -1.8903  0.4878
  536MOL0     H72328  13.581   4.236   1.178  0.9798  1.0170 -1.1377
  536MOL0     H72329  13.560   4.091   1.068  0.9516  1.4160 -0.8809
  536MOL0     H72330  13.421   4.215   0.916  3.1062  2.9624 -3.4885
  536MOL0     H72331  13.578   4.277   0.950  1.2676 -1.6017  0.0673
  536MOL0     H72332  13.308   4.373   1.083  0.2002  1.8251  1.0928
  536MOL0     H72333  13.470   4.440   1.113  1.5831 -0.1780 -1.5386
  536MOL0     H72334  13.315   4.425   0.854  1.5100 -2.5386 -0.4645
  536MOL0     H72335  13.477   4.497   0.878  0.7328 -1.2220  0.9705
  536MOL0     H72336  13.258   4.647   0.881  1.2372 -3.7908 -1.7422
  536MOL0     H72337  13.241   4.581   1.049  3.0020 -2.0053  1.5477
  536MOL0     H72338  13.450   4.763   0.923 -2.3897  0.6235 -0.6476
  536MOL0     H72339  13.493   4.665   1.070  3.6292  1.0868 -3.4781
  536MOL0     H72340  13.326   4.776   1.199 -5.3662  3.8492  1.5631
  536MOL0     H72341  13.271   4.857   1.058  2.0422 -2.0012 -4.0518
  536MOL0     H72342  13.204   4.063   1.336  1.8823  1.7183  0.8725
  536MOL0     H72343  13.080   3.929   1.505  0.2643  1.8393 -0.1259
  536MOL0     H72344  12.938   3.774   1.780 -0.1075 -2.1138 -1.9600
  536MOL0     H72345  12.774   3.750   1.945 -0.1769 -0.4742  1.3202
  536MOL0     H72346  11.652   4.219   2.003  2.5623 -0.5393  5.5136
  536MOL0     H72347  11.517   4.412   2.039 -1.3446  1.0569  0.2851
  536MOL0     H72348  11.202   4.629   2.055  1.5580 -1.0531  1.7080
  536MOL0     H72349  11.120   4.875   2.042  0.4559  2.4894  1.0772
  536MOL0     H72350  10.925   4.939   2.047 -2.1422 -0.4975 -0.3278
  536MOL0     H72351  10.795   4.990   2.148 -0.2869  1.6413 -0.0823
  536MOL0     H72352  11.007   5.182   2.077 -0.2327 -1.2543 -0.2350
  536MOL0     H72353  10.852   5.210   2.164 -0.0732 -2.1768  1.0467
  536MOL0     H72354  10.739   5.118   1.954 -0.3144  2.1432  0.9723
  536MOL0     H72355  10.902   5.131   1.869 -1.5994 -0.5686 -1.1787
  536MOL0     H72356  10.737   5.291   1.810  1.6672 -1.5892 -0.9993
  536MOL0     H72357  10.894   5.361   1.863  0.7179 -3.1222 -2.4716
  536MOL0     H72358  10.651   5.545   2.149 -0.2274 -2.2065  1.9158
  536MOL0     H72359  10.976   4.824   2.442  1.3747  2.6379 -0.2424
  536MOL0     H72360  11.091   4.597   2.450 -2.3256 -2.6072 -0.9387
  537MOL0     O72361   6.352   5.569   1.347 -0.4150 -0.2257  0.9107
  537MOL0     C72362   6.335   5.685   1.317 -0.9121 -0.9722  0.3354
  537MOL0     O72363   6.408   5.788   1.364  0.1161  0.6989  0.1698
  537MOL0     C72364   6.509   5.763   1.460 -0.5021  0.8499 -0.7795
  537MOL0     C72365   6.605   5.667   1.463 -0.2037  0.3932  1.1558
  537MOL0     C72366   6.695   5.648   1.566  0.6302  0.7498  0.4279
  537MOL0     C72367   6.696   5.729   1.676  0.7809  0.1239 -0.9489
  537MOL0     O72368   6.785   5.721   1.776 -0.0059 -0.1749  0.5653
  537MOL0     C72369   6.915   5.747   1.727  1.0067 -0.2769 -0.0598
  537MOL0     C72370   6.935   5.899   1.693 -0.4614 -0.1077 -0.1880
  537MOL0     C72371   7.084   5.923   1.656  0.3765 -0.8211  0.4869
  537MOL0     C72372   7.087   6.064   1.590 -0.9251 -0.6531  0.0529
  537MOL0     C72373   7.228   6.134   1.583 -0.2317  0.2413  0.5652
  537MOL0     C72374   7.246   6.258   1.487  0.6054  0.2351  0.4959
  537MOL0     C72375   7.150   6.372   1.528 -1.2438 -0.3717 -0.0162
  537MOL0     C72376   7.143   6.486   1.435 -0.5164  0.6665  1.1479
  537MOL0     N72377   7.032   6.569   1.480 -0.4318 -0.3400  0.2726
  537MOL0     C72378   6.966   6.573   1.607  0.2376 -0.2667 -0.6333
  537MOL0     C72379   6.914   6.699   1.616  0.1514 -1.0401 -0.7768
  537MOL0     C72380   6.831   6.751   1.720  0.7451  0.7964  0.1075
  537MOL0     C72381   6.676   6.755   1.675  0.3055 -0.0231 -0.5566
  537MOL0     C72382   6.597   6.820   1.790  0.4166 -0.0130  1.0165
  537MOL0     C72383   6.446   6.791   1.785 -0.2424  0.0862  0.4076
  537MOL0     O72384   6.409   6.651   1.812  0.9966 -0.0257 -0.1616
  537MOL0     C72385   6.361   6.578   1.705  0.3472 -0.3153  0.2530
  537MOL0     C72386   6.372   6.445   1.712  0.1783 -0.4101 -0.6826
  537MOL0     C72387   6.309   6.358   1.636 -0.2137  0.3050  0.1300
  537MOL0     C72388   6.342   6.207   1.654  1.4955 -0.7717  0.6766
  537MOL0     C72389   6.233   6.399   1.523  0.2817 -1.2555 -0.6313
  537MOL0     C72390   6.189   6.322   1.401  0.1215  0.6028 -0.0032
  537MOL0     O72391   6.143   6.404   1.292 -0.7565 -0.2612  0.1619
  537MOL0     C72392   6.119   6.348   1.169 -0.1388  0.0278  0.1123
  537MOL0     C72393   6.234   6.324   1.089 -0.3511  0.0733 -0.4528
  537MOL0     C72394   6.239   6.257   0.967 -1.1009  0.0220  0.4987
  537MOL0     C72395   6.114   6.213   0.919  0.5061  1.1011  0.4756
  537MOL0     O72396   6.090   6.158   0.798  0.8149 -0.0789 -0.0968
  537MOL0     C72397   6.199   6.096   0.726 -0.8013  0.9150  0.6127
  537MOL0     C72398   6.277   6.192   0.633  0.7026 -0.1189 -0.0568
  537MOL0     C72399   6.381   6.115   0.549 -0.1904  0.4529 -0.8647
  537MOL0     C72400   6.405   6.187   0.417 -1.0283  0.4504 -0.5197
  537MOL0     C72401   6.540   6.149   0.357 -0.8329 -0.7681  0.3690
  537MOL0     C72402   6.526   6.008   0.296 -0.8019 -1.3042 -0.6041
  537MOL0     C72403   6.644   5.962   0.206 -0.0025  0.3368 -0.6502
  537MOL0     C72404   6.585   5.921   0.069 -0.2698  0.7053  0.1607
  537MOL0    Cl72405   6.713   5.825  -0.016 -0.4724  0.1739 -0.1787
  537MOL0     C72406   5.995   6.250   0.995  0.1063  0.5074  0.4190
  537MOL0     C72407   5.991   6.309   1.123 -0.6526 -0.1774 -0.4657
  537MOL0     O72408   6.219   6.205   1.383 -0.1953  0.4768  0.6563
  537MOL0     C72409   6.213   6.541   1.518  0.5349  0.3972  1.1242
  537MOL0     C72410   6.279   6.628   1.606  1.7609 -0.4439  0.0464
  537MOL0     N72411   6.930   6.766   1.499  0.3069  0.2880 -0.3203
  537MOL0     N72412   7.000   6.694   1.420  0.3936 -0.0333 -0.0697
  537MOL0     C72413   6.597   5.837   1.675 -0.3534 -0.2431  0.4080
  537MOL0     C72414   6.508   5.850   1.567 -0.6266  0.0624  0.2656
  537MOL0     C72415   6.197   5.710   1.257 -0.6844 -0.4965 -0.2161
  537MOL0     C72416   6.121   5.611   1.215  0.7125  0.2207  1.2633
  537MOL0     C72417   5.990   5.638   1.175 -0.0970  0.2021  0.0624
  537MOL0     C72418   5.941   5.766   1.164 -0.0973  0.4290  0.2150
  537MOL0     O72419   5.807   5.774   1.128  0.7412 -1.1192  0.5046
  537MOL0     C72420   5.764   5.903   1.058 -0.2207  0.2576 -0.7882
  537MOL0     C72421   5.629   5.934   1.124  0.2445 -0.5917 -0.3584
  537MOL0     C72422   5.531   5.813   1.127 -0.8815  0.1081  0.1767
  537MOL0     C72423   5.384   5.856   1.103 -0.1092  1.0019 -0.1613
  537MOL0     C72424   5.333   5.936   1.218  0.4327  0.1481  0.2206
  537MOL0     C72425   5.302   6.008   1.312 -0.4138  0.2822  0.5975
  537MOL0     C72426   6.017   5.871   1.215  0.3997  0.7978 -0.1045
  537MOL0     C72427   6.149   5.847   1.247  0.0947  0.1794  0.2611
  537MOL0     H72428   6.606   5.595   1.382  1.0740 -0.5331  1.9577
  537MOL0     H72429   6.749   5.554   1.561 -1.0192 -0.4334  2.7514
  537MOL0     H72430   6.993   5.715   1.797 -0.0926 -0.7587  0.9922
  537MOL0     H72431   6.929   5.686   1.637 -4.6155  0.2154 -1.6366
  537MOL0     H72432   6.880   5.930   1.604 -2.4902  0.6203  1.2450
  537MOL0     H72433   6.894   5.962   1.773  0.6064  0.8279 -0.3490
  537MOL0     H72434   7.153   5.919   1.740  1.6110 -2.7611 -0.5571
  537MOL0     H72435   7.117   5.836   1.599  0.0619 -4.1486  4.8922
  537MOL0     H72436   7.053   6.061   1.486 -0.6112 -3.4767 -0.0651
  537MOL0     H72437   7.020   6.132   1.641  0.4038  2.2389 -1.7928
  537MOL0     H72438   7.264   6.169   1.680 -2.1010  0.5527  1.1865
  537MOL0     H72439   7.296   6.051   1.561 -0.9293 -0.3342  0.5644
  537MOL0     H72440   7.352   6.280   1.499  0.2915  1.3988  1.2855
  537MOL0     H72441   7.235   6.226   1.383 -0.5263 -1.8625  1.2057
  537MOL0     H72442   7.056   6.315   1.529 -1.3632 -0.2982  2.6578
  537MOL0     H72443   7.176   6.392   1.633  2.9843 -0.3374 -0.9046
  537MOL0     H72444   7.119   6.427   1.347 -1.6613 -2.1083  3.1968
  537MOL0     H72445   7.242   6.534   1.439  1.2988 -2.6675  0.3841
  537MOL0     H72446   6.971   6.503   1.689  0.1652  0.3654 -0.0861
  537MOL0     H72447   6.838   6.676   1.800 -2.2934 -0.9830 -1.1392
  537MOL0     H72448   6.865   6.844   1.766  0.9915  0.6612  0.2056
  537MOL0     H72449   6.654   6.650   1.657 -2.7971  0.3477  0.2950
  537MOL0     H72450   6.658   6.819   1.588  0.7635 -1.0424 -1.4154
  537MOL0     H72451   6.601   6.927   1.768 -0.4566 -0.2728 -0.5475
  537MOL0     H72452   6.647   6.817   1.888  2.9739  5.2749  0.2583
  537MOL0     H72453   6.413   6.818   1.685 -1.2622  2.9573  1.4163
  537MOL0     H72454   6.387   6.850   1.855 -1.6649 -1.3744  0.4785
  537MOL0     H72455   6.448   6.426   1.787 -1.1602  3.3214  1.9402
  537MOL0     H72456   6.272   6.137   1.608  1.9422 -0.5582 -0.3636
  537MOL0     H72457   6.441   6.194   1.609  1.1648 -3.5529  0.5684
  537MOL0     H72458   6.367   6.190   1.760  2.2460  2.7733  1.2060
  537MOL0     H72459   6.329   6.352   1.133 -0.8143 -1.2831  1.5824
  537MOL0     H72460   6.340   6.230   0.937  0.3850  2.4607  2.8921
  537MOL0     H72461   6.263   6.069   0.810 -1.3125  3.3828  1.8884
  537MOL0     H72462   6.162   6.012   0.666 -1.9314  0.3825  1.9941
  537MOL0     H72463   6.203   6.242   0.570  3.6028  2.3696 -1.7833
  537MOL0     H72464   6.334   6.269   0.687 -0.3259  0.8358 -0.2972
  537MOL0     H72465   6.358   6.010   0.529 -0.8916  0.1909  1.0851
  537MOL0     H72466   6.475   6.107   0.605 -0.2893  3.4670 -0.0836
  537MOL0     H72467   6.321   6.163   0.351 -0.8884 -1.8495  0.0428
  537MOL0     H72468   6.400   6.296   0.425 -1.2183  0.5403 -1.6400
  537MOL0     H72469   6.618   6.162   0.433  0.5656 -2.9133 -0.6191
  537MOL0     H72470   6.567   6.217   0.276 -1.7459  1.7780  2.0478
  537MOL0     H72471   6.522   5.946   0.386 -1.7031 -3.2128 -1.8846
  537MOL0     H72472   6.429   5.994   0.248 -2.2799 -1.3397  2.1875
  537MOL0     H72473   6.703   5.881   0.249  0.5939  0.0225 -2.0380
  537MOL0     H72474   6.709   6.050   0.196  0.4060  0.5482  2.7055
  537MOL0     H72475   6.572   6.018   0.019 -1.0276  1.4439  1.7049
  537MOL0     H72476   6.487   5.873   0.070 -0.3092  0.7513  1.9082
  537MOL0     H72477   5.903   6.200   0.966 -1.5338  2.3829  2.1048
  537MOL0     H72478   5.899   6.309   1.179 -1.3849  1.1037 -1.6072
  537MOL0     H72479   6.146   6.575   1.439  1.1808 -1.2673 -0.2056
  537MOL0     H72480   6.257   6.734   1.608 -1.6476 -1.0654  2.3763
  537MOL0     H72481   6.591   5.911   1.755 -0.9849 -1.7030  1.7485
  537MOL0     H72482   6.422   5.917   1.563 -0.9403 -0.2745  1.1179
  537MOL0     H72483   6.162   5.511   1.227  0.8904 -0.4851 -3.2743
  537MOL0     H72484   5.934   5.552   1.140  1.5343 -0.7675 -0.2820
  537MOL0     H72485   5.836   5.985   1.069 -0.4157  0.8903 -3.5678
  537MOL0     H72486   5.750   5.882   0.952  0.8076  2.1177 -1.3304
  537MOL0     H72487   5.580   6.022   1.082  0.0863  0.8759  2.6472
  537MOL0     H72488   5.645   5.965   1.228  1.3988  2.3360 -1.2890
  537MOL0     H72489   5.534   5.770   1.228 -3.9729 -2.0827 -0.5052
  537MOL0     H72490   5.549   5.742   1.046  0.7712  1.3344 -0.5744
  537MOL0     H72491   5.309   5.776   1.102 -1.1006  1.8302  1.7511
  537MOL0     H72492   5.368   5.911   1.011 -0.6364  2.7300  0.9249
  537MOL0     H72493   5.282   6.054   1.406 -1.9756 -0.3777  0.6152
  537MOL0     H72494   5.995   5.976   1.230 -1.1882  0.0510  3.9552
  537MOL0     H72495   6.216   5.926   1.278  1.8397 -1.4485  0.8221
  538MOL0     O72496   5.620   0.532   1.582  0.5873  0.2046  0.7748
  538MOL0     C72497   5.579   0.596   1.481  0.2116  0.0036 -1.1438
  538MOL0     O72498   5.469   0.681   1.482  0.8670  0.6131  0.4711
  538MOL0     C72499   5.388   0.682   1.593 -0.1656  0.1471  0.3099
  538MOL0     C72500   5.403   0.762   1.700  0.0372  0.1680  0.1346
  538MOL0     C72501   5.330   0.746   1.824 -0.1694 -0.5687  0.8493
  538MOL0     C72502   5.239   0.638   1.834  0.0175  1.0577  0.5935
  538MOL0     O72503   5.158   0.627   1.943  0.0381  0.7741 -0.9428
  538MOL0     C72504   5.224   0.601   2.067 -0.0034  0.0188  1.3452
  538MOL0     C72505   5.112   0.576   2.167 -0.3655 -0.2180  0.8094
  538MOL0     C72506   5.147   0.530   2.309  0.5912 -0.0522 -0.7149
  538MOL0     C72507   5.039   0.542   2.413  1.0625  0.5989 -0.3272
  538MOL0     C72508   5.010   0.688   2.454  0.6909  0.4521  1.1985
  538MOL0     C72509   4.909   0.682   2.571 -1.2640 -0.5573  0.2946
  538MOL0     C72510   4.881   0.827   2.608 -0.0929  0.3546 -0.0110
  538MOL0     C72511   4.754   0.862   2.538 -0.0315 -0.1083 -0.8118
  538MOL0     N72512   4.688   0.980   2.608 -0.3247  0.6407 -0.5234
  538MOL0     C72513   4.754   1.090   2.653 -0.2406 -0.5828  1.2096
  538MOL0     C72514   4.674   1.160   2.733  0.5925 -0.3983  0.7204
  538MOL0     C72515   4.698   1.297   2.788 -0.5891  0.0504  0.9507
  538MOL0     C72516   4.609   1.321   2.904  0.1209 -0.2184 -0.3975
  538MOL0     C72517   4.646   1.458   2.979 -0.2990 -0.1638  0.0369
  538MOL0     C72518   4.538   1.515   3.084 -0.4648 -0.3578  0.4549
  538MOL0     O72519   4.545   1.433   3.194 -0.3445 -0.7101  0.2774
  538MOL0     C72520   4.436   1.434   3.279  0.4137 -0.0876 -0.8087
  538MOL0     C72521   4.451   1.367   3.408  0.3048 -0.0186  0.9433
  538MOL0     C72522   4.345   1.366   3.509 -0.3520 -0.7555 -0.5689
  538MOL0     C72523   4.384   1.293   3.639  0.9273  0.3664 -0.3617
  538MOL0     C72524   4.218   1.418   3.477 -0.8957  0.1922  1.4572
  538MOL0     C72525   4.092   1.405   3.553 -0.4705  0.4991  0.4494
  538MOL0     O72526   3.992   1.484   3.519  0.6976 -0.6731  0.6573
  538MOL0     C72527   3.883   1.472   3.604  0.3476 -0.4939 -0.5116
  538MOL0     C72528   3.899   1.487   3.746  0.2606  0.6582 -0.2975
  538MOL0     C72529   3.786   1.489   3.832  1.0799 -0.5597  0.0761
  538MOL0     C72530   3.659   1.467   3.783 -1.0575  0.0841  0.2381
  538MOL0     O72531   3.558   1.473   3.869 -0.0489 -0.0497  0.3152
  538MOL0     C72532   3.419   1.450   3.830 -0.0289  0.1613  0.3501
  538MOL0     C72533   3.314   1.483   3.942  0.5211 -2.0612 -0.7102
  538MOL0     C72534   3.271   1.615   3.988 -0.6321  0.8452 -0.6259
  538MOL0     C72535   3.374   1.726   3.997 -0.5842 -0.6904  0.1873
  538MOL0     C72536   3.322   1.860   4.054  0.2172 -0.0833 -0.9652
  538MOL0     C72537   3.310   1.880   4.202 -0.1739  0.0550  0.8786
  538MOL0     C72538   3.275   2.029   4.221 -0.2988  0.4635 -0.2054
  538MOL0     C72539   3.235   2.084   4.356 -0.3572 -0.1986 -0.6773
  538MOL0    Cl72540   3.369   2.058   4.469 -0.1232 -0.6341 -0.1126
  538MOL0     C72541   3.647   1.435   3.652  0.3251 -0.2467  0.9310
  538MOL0     C72542   3.756   1.452   3.552  0.0397 -0.7541 -0.9944
  538MOL0     O72543   4.083   1.306   3.630  0.1638 -0.1824  0.1889
  538MOL0     C72544   4.209   1.497   3.360 -0.5796 -0.1236 -0.2964
  538MOL0     C72545   4.314   1.503   3.262 -0.7867  0.4000 -0.8162
  538MOL0     N72546   4.551   1.089   2.736 -0.1775 -0.6777 -0.1697
  538MOL0     N72547   4.565   0.997   2.660 -0.1047 -0.2562  1.0673
  538MOL0     C72548   5.230   0.553   1.729 -0.5056  0.6364 -0.3869
  538MOL0     C72549   5.305   0.571   1.610 -0.1896 -0.5843  0.1904
  538MOL0     C72550   5.666   0.600   1.357 -0.1991  0.1466  0.4463
  538MOL0     C72551   5.787   0.516   1.359  0.4698 -0.8766 -0.0731
  538MOL0     C72552   5.861   0.509   1.242  0.7637 -0.1921  0.1072
  538MOL0     C72553   5.816   0.574   1.121 -0.1484  0.2205 -0.1658
  538MOL0     O72554   5.874   0.549   1.000 -0.3243 -0.1007 -0.1879
  538MOL0     C72555   5.967   0.435   0.988 -0.3334  0.0232  0.5474
  538MOL0     C72556   5.954   0.405   0.837 -0.2613  0.3189 -0.3662
  538MOL0     C72557   6.038   0.283   0.805 -1.1272 -0.8913 -1.0944
  538MOL0     C72558   6.026   0.238   0.669  0.9541  0.0080 -0.2380
  538MOL0     C72559   5.884   0.209   0.632 -0.5840 -0.4514  0.2774
  538MOL0     C72560   5.769   0.193   0.591 -0.8601 -0.0506  0.0144
  538MOL0     C72561   5.693   0.647   1.124 -0.1708 -0.0918 -0.1790
  538MOL0     C72562   5.620   0.661   1.237  0.2482  1.2620  1.1272
  538MOL0     H72563   5.476   0.843   1.705  1.8735 -1.2684 -1.7920
  538MOL0     H72564   5.336   0.819   1.904 -0.2492 -0.3937  0.6992
  538MOL0     H72565   5.276   0.505   2.072 -5.2668 -3.1977  3.7794
  538MOL0     H72566   5.293   0.682   2.092 -0.7808  1.1408  0.0070
  538MOL0     H72567   5.051   0.667   2.170  2.1331  1.9837 -4.2458
  538MOL0     H72568   5.058   0.489   2.129  1.2083 -1.0176  0.3175
  538MOL0     H72569   5.192   0.430   2.306  0.5341 -0.0886 -0.4492
  538MOL0     H72570   5.225   0.599   2.340 -0.3876 -0.0864  2.1349
  538MOL0     H72571   4.944   0.496   2.386  0.0645  1.1028  2.0432
  538MOL0     H72572   5.069   0.497   2.508 -2.6790 -1.0892  0.2317
  538MOL0     H72573   5.093   0.751   2.487 -1.5350  2.6545  2.9086
  538MOL0     H72574   4.975   0.737   2.363  6.7449  0.6819 -1.5211
  538MOL0     H72575   4.819   0.623   2.550 -2.3998  0.0970  2.9072
  538MOL0     H72576   4.972   0.647   2.653  0.3423 -0.3377 -0.8108
  538MOL0     H72577   4.847   0.822   2.711  0.0734 -1.1867 -0.0037
  538MOL0     H72578   4.962   0.899   2.590 -0.7028  0.7401 -1.3051
  538MOL0     H72579   4.686   0.776   2.529 -1.4895  0.5093  2.6657
  538MOL0     H72580   4.768   0.887   2.432 -1.9416 -0.7092 -1.2609
  538MOL0     H72581   4.860   1.105   2.641 -0.6700  2.1591  0.2332
  538MOL0     H72582   4.802   1.301   2.820 -0.0382 -2.7633 -0.1658
  538MOL0     H72583   4.683   1.363   2.702  2.2621  1.5429  1.4752
  538MOL0     H72584   4.609   1.240   2.978  0.4865  0.8714  0.8235
  538MOL0     H72585   4.506   1.332   2.869  0.5122  0.3534 -1.4077
  538MOL0     H72586   4.668   1.532   2.901 -0.2824  1.7988  1.8196
  538MOL0     H72587   4.734   1.451   3.042  0.9435  1.2449 -1.4483
  538MOL0     H72588   4.445   1.516   3.025  0.5856  0.3489 -1.2738
  538MOL0     H72589   4.563   1.619   3.106 -2.8933  1.3324 -3.5382
  538MOL0     H72590   4.544   1.315   3.429 -0.3376 -0.6415  2.3845
  538MOL0     H72591   4.333   1.197   3.632 -0.3032  1.0164 -0.5420
  538MOL0     H72592   4.492   1.276   3.642  1.8412  4.9500  0.5680
  538MOL0     H72593   4.361   1.347   3.731 -1.4124 -1.3540  0.1605
  538MOL0     H72594   3.993   1.495   3.801  0.8404 -1.9991 -0.7851
  538MOL0     H72595   3.794   1.486   3.940 -0.0856 -0.9608  0.1605
  538MOL0     H72596   3.403   1.509   3.739  1.6228 -2.3735 -1.7483
  538MOL0     H72597   3.398   1.349   3.794 -2.2107  0.5549  0.3822
  538MOL0     H72598   3.226   1.423   3.916 -0.3762 -1.6593  1.2501
  538MOL0     H72599   3.352   1.436   4.033  1.4960  0.6558  0.3859
  538MOL0     H72600   3.224   1.604   4.086 -1.3857  0.2560 -1.0469
  538MOL0     H72601   3.207   1.661   3.912  0.0827 -1.5987 -2.8196
  538MOL0     H72602   3.461   1.700   4.058 -0.4070  1.3956  0.9196
  538MOL0     H72603   3.408   1.732   3.893  2.2295 -0.4672  1.0257
  538MOL0     H72604   3.219   1.861   4.016 -0.1968 -3.0805 -0.1499
  538MOL0     H72605   3.376   1.948   4.014 -1.3750  1.7545  0.7251
  538MOL0     H72606   3.247   1.807   4.253  0.3058 -0.7971  0.2651
  538MOL0     H72607   3.412   1.883   4.241  0.7941  1.9413 -1.5141
  538MOL0     H72608   3.192   2.048   4.152  0.3467 -0.3251 -1.2276
  538MOL0     H72609   3.355   2.099   4.195 -0.4989  0.8299  0.1515
  538MOL0     H72610   3.151   2.024   4.391 -2.1992  1.8972 -1.3007
  538MOL0     H72611   3.205   2.189   4.350  3.7852  1.1912 -0.4608
  538MOL0     H72612   3.552   1.399   3.613  1.9957 -3.2662 -0.7884
  538MOL0     H72613   3.731   1.431   3.448 -1.8723 -0.0188 -0.7201
  538MOL0     H72614   4.120   1.549   3.328 -1.4119 -1.7239 -0.6558
  538MOL0     H72615   4.285   1.558   3.173  1.2357  0.3527 -1.5378
  538MOL0     H72616   5.162   0.472   1.751  0.0926  0.7914  2.3004
  538MOL0     H72617   5.314   0.495   1.533  5.1746 -1.5224  1.3303
  538MOL0     H72618   5.835   0.476   1.448  0.4925 -1.2755 -0.2635
  538MOL0     H72619   5.947   0.442   1.244 -0.4852 -1.8692  2.0504
  538MOL0     H72620   6.062   0.479   1.019 -0.2710  0.7110 -0.5735
  538MOL0     H72621   5.944   0.351   1.054 -1.0342  2.1560  3.2120
  538MOL0     H72622   5.996   0.493   0.788  1.4677  1.6838  3.1601
  538MOL0     H72623   5.851   0.389   0.804 -0.5503  0.9393  0.2043
  538MOL0     H72624   6.012   0.203   0.874 -3.2104 -2.1280 -3.1522
  538MOL0     H72625   6.140   0.318   0.826 -1.9118  0.1274  1.2730
  538MOL0     H72626   6.091   0.151   0.660  1.5231  0.4056 -0.0656
  538MOL0     H72627   6.064   0.312   0.598  0.3295  0.4063 -0.1662
  538MOL0     H72628   5.669   0.173   0.558 -2.5538  2.0011  3.3282
  538MOL0     H72629   5.666   0.696   1.031  2.3604 -0.4813 -1.1927
  538MOL0     H72630   5.525   0.710   1.254 -0.8420 -1.1068  2.4054
  539MOL0     O72631  10.923  10.741   2.738  0.8026 -0.3755 -0.2493
  539MOL0     C72632  11.005  10.716   2.646  0.7677 -0.0400  0.2822
  539MOL0     O72633  11.068  10.802   2.568 -0.3710  0.6163 -0.1748
  539MOL0     C72634  11.046  10.936   2.577 -1.0524 -0.0707 -0.2723
  539MOL0     C72635  10.916  10.997   2.572 -0.7819 -0.4743 -0.2888
  539MOL0     C72636  10.900  11.134   2.568  0.0522 -0.0903 -0.4598
  539MOL0     C72637  11.009  11.216   2.570 -0.4063  0.1385  0.4804
  539MOL0     O72638  11.006  11.343   2.594  0.0857  0.2735 -0.2903
  539MOL0     C72639  10.910  11.407   2.676 -0.3089 -0.5223  0.6964
  539MOL0     C72640  10.938  11.395   2.824 -0.4978 -0.0758 -0.2302
  539MOL0     C72641  10.885  11.263   2.880 -0.3103 -0.8705  0.5402
  539MOL0     C72642  10.893  11.265   3.027 -0.6465 -0.0285 -0.4146
  539MOL0     C72643  10.857  11.128   3.080  1.0289 -0.5319 -0.1311
  539MOL0     C72644  10.959  11.025   3.048  0.4791  0.6940 -0.8932
  539MOL0     C72645  10.960  10.897   3.135 -0.0401  0.6659  0.8954
  539MOL0     C72646  11.072  10.814   3.096 -0.1258 -0.1746  0.5070
  539MOL0     N72647  11.106  10.710   3.201  0.3972  0.6485 -0.3102
  539MOL0     C72648  11.229  10.703   3.274  0.9558 -0.3515  0.8947
  539MOL0     C72649  11.202  10.621   3.372 -0.8148  0.0962 -0.6491
  539MOL0     C72650  11.298  10.607   3.490 -0.8729  0.2834 -0.4496
  539MOL0     C72651  11.416  10.515   3.461 -0.1640 -0.2571  0.2620
  539MOL0     C72652  11.470  10.441   3.590  0.7437 -0.7456  0.2151
  539MOL0     C72653  11.597  10.357   3.558 -0.1189  0.5023  1.1855
  539MOL0     O72654  11.664  10.317   3.678 -0.0977  0.6887 -0.5203
  539MOL0     C72655  11.778  10.232   3.666 -0.8855 -0.4204  0.7633
  539MOL0     C72656  11.843  10.202   3.542  0.4017  0.2720  0.0470
  539MOL0     C72657  11.952  10.112   3.522  0.2754 -0.4574  0.4493
  539MOL0     C72658  12.012  10.099   3.392 -0.3760 -0.3614  0.4294
  539MOL0     C72659  11.991  10.039   3.636  0.4292  0.3850  0.7318
  539MOL0     C72660  12.100   9.939   3.653  0.1929  0.1308  0.0563
  539MOL0     O72661  12.117   9.876   3.770  0.3160  1.1566  0.6153
  539MOL0     C72662  12.193   9.757   3.771  0.0392  0.1130 -0.5889
  539MOL0     C72663  12.143   9.628   3.798 -1.3571 -0.3549 -0.2884
  539MOL0     C72664  12.224   9.521   3.806  0.0639  0.7158  0.4907
  539MOL0     C72665  12.359   9.526   3.809  0.4624  0.0255  0.4115
  539MOL0     O72666  12.441   9.416   3.840 -0.0658  0.8308  0.0703
  539MOL0     C72667  12.584   9.422   3.828 -0.3274  0.6705 -0.0046
  539MOL0     C72668  12.643   9.284   3.877  0.6077  0.7604  0.2681
  539MOL0     C72669  12.788   9.256   3.829  0.6111 -0.9357  0.4587
  539MOL0     C72670  12.844   9.114   3.859 -0.0829 -0.5084 -0.1015
  539MOL0     C72671  12.984   9.091   3.796  1.0245  0.4385  0.1454
  539MOL0     C72672  13.097   9.177   3.850  0.4721  0.2704 -0.3395
  539MOL0     C72673  13.134   9.163   3.999  0.2772 -0.0526 -0.3590
  539MOL0     C72674  13.241   9.266   4.050 -0.0570 -0.1665 -0.4134
  539MOL0    Cl72675  13.153   9.419   4.066  0.1296 -0.2012  0.3247
  539MOL0     C72676  12.416   9.654   3.789 -0.1540 -0.5570  0.4865
  539MOL0     C72677  12.332   9.771   3.762 -0.0093  0.2182 -0.6988
  539MOL0     O72678  12.167   9.922   3.554  0.3015  0.2930  0.2733
  539MOL0     C72679  11.927  10.072   3.757  0.4083 -0.2680 -0.7106
  539MOL0     C72680  11.829  10.164   3.778 -0.4062 -0.2693 -0.3479
  539MOL0     N72681  11.071  10.578   3.368  0.0945  0.3299 -0.7372
  539MOL0     N72682  11.012  10.633   3.271  0.5485  0.5131  0.3933
  539MOL0     C72683  11.145  11.163   2.570  0.5258  0.0618  0.5858
  539MOL0     C72684  11.164  11.021   2.569 -0.1352 -0.1208  0.7996
  539MOL0     C72685  11.035  10.574   2.628 -0.5504  0.4688  0.2937
  539MOL0     C72686  11.055  10.500   2.749  0.2970 -0.4021 -0.5738
  539MOL0     C72687  11.122  10.376   2.745 -0.6672  0.5224 -0.2163
  539MOL0     C72688  11.169  10.324   2.618  0.0784  0.7064 -0.5776
  539MOL0     O72689  11.226  10.204   2.614  0.1260  0.0383 -0.6785
  539MOL0     C72690  11.346  10.185   2.702 -1.0429  0.1792 -0.3857
  539MOL0     C72691  11.331  10.072   2.807  0.1342  0.4078 -0.7946
  539MOL0     C72692  11.275   9.942   2.742  0.1836 -1.3436 -0.1513
  539MOL0     C72693  11.275   9.833   2.857  0.4774  0.5795 -0.7224
  539MOL0     C72694  11.175   9.840   2.970 -0.1462  0.6257  1.2370
  539MOL0     C72695  11.082   9.830   3.054  0.1864  0.1625  0.4346
  539MOL0     C72696  11.138  10.391   2.497  0.9443 -0.7146  0.9552
  539MOL0     C72697  11.072  10.515   2.504  0.3180  0.7599 -1.0749
  539MOL0     H72698  10.836  10.927   2.595 -1.7945  0.8783  0.5000
  539MOL0     H72699  10.802  11.180   2.572  0.9470  1.8208  0.4903
  539MOL0     H72700  10.914  11.515   2.656  1.0904 -0.5390  0.8210
  539MOL0     H72701  10.811  11.365   2.654  0.3677 -0.4346 -3.1066
  539MOL0     H72702  11.043  11.415   2.849 -0.4502  1.6066 -1.5782
  539MOL0     H72703  10.864  11.461   2.870  0.8704  0.9317  0.6172
  539MOL0     H72704  10.780  11.263   2.849  0.0420 -1.2483 -0.7073
  539MOL0     H72705  10.938  11.181   2.830  1.7237  0.2932  0.6618
  539MOL0     H72706  11.001  11.270   3.045 -0.5125 -2.8209  0.0155
  539MOL0     H72707  10.843  11.344   3.084  3.7491  4.5030 -2.0690
  539MOL0     H72708  10.862  11.125   3.190 -0.7056 -1.6996 -0.0527
  539MOL0     H72709  10.768  11.088   3.031  3.7598 -2.1160 -4.3601
  539MOL0     H72710  10.950  11.001   2.942  1.2797  0.1201 -0.8336
  539MOL0     H72711  11.055  11.073   3.065 -0.1130  1.8848 -0.7968
  539MOL0     H72712  10.949  10.922   3.241 -5.0493  0.8403  0.5750
  539MOL0     H72713  10.872  10.834   3.117 -0.0849  0.0638  2.9502
  539MOL0     H72714  11.152  10.885   3.073 -0.9437  0.6115  0.0417
  539MOL0     H72715  11.047  10.764   3.002 -2.4987 -0.1144  1.0374
  539MOL0     H72716  11.316  10.765   3.255  0.3928  0.8837  2.1727
  539MOL0     H72717  11.332  10.706   3.521  0.2197  0.2257 -1.4122
  539MOL0     H72718  11.238  10.566   3.572 -0.4711 -0.7098 -0.6380
  539MOL0     H72719  11.498  10.578   3.426 -1.6554  1.5055 -0.1904
  539MOL0     H72720  11.390  10.451   3.377  1.8721  1.3904 -1.7595
  539MOL0     H72721  11.383  10.381   3.617 -1.6074  3.7852  4.4095
  539MOL0     H72722  11.478  10.506   3.678 -0.0746 -2.4783  1.6486
  539MOL0     H72723  11.667  10.425   3.509  0.8318  1.4577  3.6669
  539MOL0     H72724  11.583  10.286   3.477  1.1171 -0.0112  1.3897
  539MOL0     H72725  11.796  10.238   3.451  1.5961  0.0335 -0.6922
  539MOL0     H72726  11.968  10.163   3.316  0.3421 -0.3705 -0.0072
  539MOL0     H72727  12.119  10.125   3.396 -0.6743  0.8223  1.2796
  539MOL0     H72728  12.004   9.995   3.359 -0.1305 -0.1261 -0.3839
  539MOL0     H72729  12.044   9.597   3.828 -0.7868  0.0759  2.2364
  539MOL0     H72730  12.191   9.419   3.828  1.9089 -0.2706 -0.9904
  539MOL0     H72731  12.615   9.450   3.726  0.1084  0.1161 -0.0329
  539MOL0     H72732  12.622   9.494   3.901 -2.7625  1.4174  0.5835
  539MOL0     H72733  12.655   9.289   3.986 -0.9120 -0.0910  0.5000
  539MOL0     H72734  12.587   9.201   3.834 -1.1872  2.4589 -0.8245
  539MOL0     H72735  12.845   9.328   3.888  0.7413  0.2295 -1.0099
  539MOL0     H72736  12.815   9.299   3.731  1.4765  1.0698  1.5199
  539MOL0     H72737  12.844   9.100   3.968 -1.2769  2.4504  0.3537
  539MOL0     H72738  12.773   9.040   3.820  0.2865 -0.9003 -0.0426
  539MOL0     H72739  12.981   9.097   3.686  0.6138 -2.3321 -0.0763
  539MOL0     H72740  13.014   8.987   3.810 -2.3166 -0.8438 -1.2074
  539MOL0     H72741  13.190   9.162   3.794  1.8264  1.7011  1.4078
  539MOL0     H72742  13.078   9.284   3.840  1.8431  0.6780  1.0668
  539MOL0     H72743  13.166   9.061   4.021  0.9708 -0.0335 -1.2431
  539MOL0     H72744  13.049   9.183   4.065  1.4234  2.6051  0.4558
  539MOL0     H72745  13.324   9.268   3.979 -0.6174 -2.3290 -1.2060
  539MOL0     H72746  13.268   9.241   4.153 -2.1757 -0.2090  0.1652
  539MOL0     H72747  12.521   9.658   3.764 -0.4595  1.8159 -0.7147
  539MOL0     H72748  12.373   9.872   3.755 -2.2313  1.1412 -1.3755
  539MOL0     H72749  11.943  10.014   3.848  0.1297  1.3826  0.4533
  539MOL0     H72750  11.802  10.180   3.882  2.0184 -2.2001  0.6879
  539MOL0     H72751  11.230  11.230   2.569  0.5322  0.1532 -2.3711
  539MOL0     H72752  11.264  10.982   2.580  1.0517  3.1971  3.8284
  539MOL0     H72753  11.000  10.534   2.836  1.7304  0.7742 -0.0906
  539MOL0     H72754  11.155  10.338   2.841  1.1164  3.9550  0.6878
  539MOL0     H72755  11.428  10.161   2.633 -0.4128  2.6963 -0.5876
  539MOL0     H72756  11.387  10.268   2.760  0.2114 -0.6591 -0.0170
  539MOL0     H72757  11.251  10.093   2.878 -0.0736 -3.0944  0.2271
  539MOL0     H72758  11.424  10.062   2.864  0.5354  0.1593 -1.4729
  539MOL0     H72759  11.346   9.917   2.662  0.9047  1.3783 -0.4686
  539MOL0     H72760  11.176   9.965   2.701  0.9205  0.1243 -1.2370
  539MOL0     H72761  11.375   9.830   2.901 -0.3642 -1.6983  1.2437
  539MOL0     H72762  11.255   9.737   2.808 -0.3470 -0.8629  2.2314
  539MOL0     H72763  11.011   9.803   3.130  2.8048 -1.2306  2.5975
  539MOL0     H72764  11.146  10.348   2.398 -2.6990 -2.6652  1.3405
  539MOL0     H72765  11.053  10.581   2.420  2.3857  1.3096 -1.1495
  540MOL0     O72766   7.933   2.526   3.120  0.3123  0.1318  0.0522
  540MOL0     C72767   7.903   2.629   3.181 -0.0570  0.4928 -0.1613
  540MOL0     O72768   7.981   2.687   3.272  0.4025  0.3076 -0.1707
  540MOL0     C72769   8.096   2.631   3.313 -1.2086 -0.7226 -0.3438
  540MOL0     C72770   8.128   2.653   3.450  0.6788  0.5825  0.9801
  540MOL0     C72771   8.257   2.627   3.491 -0.4974 -1.4543  0.0942
  540MOL0     C72772   8.355   2.561   3.410 -0.3912 -0.0784  0.8474
  540MOL0     O72773   8.481   2.531   3.446 -0.6786  0.1505  0.5687
  540MOL0     C72774   8.503   2.512   3.589  0.4488 -0.5582 -0.8261
  540MOL0     C72775   8.632   2.448   3.633 -0.5674 -0.1914 -0.9143
  540MOL0     C72776   8.653   2.315   3.575  0.2468  1.5048  0.7618
  540MOL0     C72777   8.789   2.269   3.619  0.5116  0.4008  0.7204
  540MOL0     C72778   8.824   2.135   3.553 -0.0927  0.7532  0.0068
  540MOL0     C72779   8.748   2.012   3.605  0.4277 -0.7132  0.3578
  540MOL0     C72780   8.774   1.895   3.506 -0.5870 -0.2737  0.4536
  540MOL0     C72781   8.738   1.754   3.559 -0.5932 -0.7970  0.5335
  540MOL0     N72782   8.606   1.730   3.618 -0.3255  0.5372  0.1541
  540MOL0     C72783   8.486   1.716   3.550 -0.4961  0.2612  0.6418
  540MOL0     C72784   8.387   1.735   3.637 -0.1542  0.6617 -0.5175
  540MOL0     C72785   8.247   1.692   3.604  0.7283  0.3289  0.3030
  540MOL0     C72786   8.155   1.618   3.708  0.3589 -0.3495 -0.4540
  540MOL0     C72787   8.228   1.496   3.767  0.3460 -0.4364  0.0724
  540MOL0     C72788   8.153   1.452   3.896 -0.7084  0.2111 -0.7416
  540MOL0     O72789   8.067   1.341   3.862 -0.1334 -0.4920 -0.3717
  540MOL0     C72790   8.034   1.267   3.962  0.0556  0.5924 -0.4337
  540MOL0     C72791   8.026   1.315   4.095 -0.6730 -0.2595  0.3738
  540MOL0     C72792   7.958   1.230   4.186 -0.0844 -0.4994 -0.1155
  540MOL0     C72793   7.977   1.271   4.332  0.4656 -0.3826  0.5721
  540MOL0     C72794   7.908   1.105   4.151 -0.2257 -0.0067  0.8813
  540MOL0     C72795   7.830   1.030   4.252  0.5725 -0.2862 -1.2777
  540MOL0     O72796   7.894   0.991   4.364  0.0713 -0.8296  0.0081
  540MOL0     C72797   7.823   0.976   4.482  0.6471 -0.8207  0.5728
  540MOL0     C72798   7.714   1.061   4.509 -0.2132 -0.4988  0.6228
  540MOL0     C72799   7.636   1.043   4.616  0.4228 -1.1214  1.0237
  540MOL0     C72800   7.676   0.949   4.717 -0.1408 -0.3288 -1.1491
  540MOL0     O72801   7.610   0.931   4.841  0.5614  0.4338  0.3395
  540MOL0     C72802   7.489   0.843   4.827 -0.5976 -0.0606 -1.0605
  540MOL0     C72803   7.532   0.692   4.802  0.0482  0.2182 -0.4590
  540MOL0     C72804   7.579   0.611   4.924 -0.1860  0.1740 -0.3508
  540MOL0     C72805   7.607   0.464   4.912 -0.1141 -0.1541 -0.8739
  540MOL0     C72806   7.738   0.436   4.830  0.0252 -0.4536 -1.2718
  540MOL0     C72807   7.737   0.286   4.799  0.6498  0.3269  0.1451
  540MOL0     C72808   7.659   0.262   4.659 -0.3786  0.0802 -0.0716
  540MOL0     C72809   7.625   0.123   4.611 -0.8617 -0.4745 -0.4450
  540MOL0    Cl72810   7.772   0.023   4.608 -0.0165  0.0477 -0.0246
  540MOL0     C72811   7.791   0.872   4.695 -0.4646  0.0329 -0.9005
  540MOL0     C72812   7.865   0.889   4.577  0.2770  0.2136  0.5047
  540MOL0     O72813   7.714   0.996   4.237 -0.5997 -0.0334 -0.5786
  540MOL0     C72814   7.935   1.062   4.018 -0.1621 -0.3108  0.0686
  540MOL0     C72815   7.989   1.151   3.920  0.1391  0.5092 -0.2688
  540MOL0     N72816   8.449   1.758   3.759  1.2001  0.2485  0.0336
  540MOL0     N72817   8.574   1.748   3.747  0.3216  0.3713 -0.1589
  540MOL0     C72818   8.319   2.539   3.282 -0.2791  0.7042  0.3585
  540MOL0     C72819   8.198   2.567   3.239  0.4285 -0.0926  1.4554
  540MOL0     C72820   7.781   2.693   3.148  0.6119  0.2455  0.1294
  540MOL0     C72821   7.741   2.820   3.209 -0.5263  0.7122 -0.1672
  540MOL0     C72822   7.620   2.883   3.177 -0.6052 -0.7883 -0.6165
  540MOL0     C72823   7.542   2.834   3.071 -0.5402  0.1415  0.3453
  540MOL0     O72824   7.418   2.876   3.040  0.3043  0.0481  0.1365
  540MOL0     C72825   7.370   2.996   3.114 -0.2747 -0.7398  0.0415
  540MOL0     C72826   7.422   3.134   3.084 -0.4778 -1.2220 -0.1657
  540MOL0     C72827   7.387   3.167   2.946  0.7249  0.1703  0.6426
  540MOL0     C72828   7.400   3.319   2.912  0.3811  0.0793  0.4108
  540MOL0     C72829   7.528   3.377   2.942  0.8449  0.1164 -0.0656
  540MOL0     C72830   7.624   3.433   2.977  0.1232  0.4343  0.0158
  540MOL0     C72831   7.579   2.706   3.009  0.0302  0.2843  0.2350
  540MOL0     C72832   7.696   2.649   3.047  0.3653  0.3229 -0.2744
  540MOL0     H72833   8.050   2.694   3.512 -1.0699  0.0388 -0.7831
  540MOL0     H72834   8.277   2.659   3.592  2.0328  0.0794 -0.7942
  540MOL0     H72835   8.514   2.614   3.627  0.1029  0.0551 -2.2899
  540MOL0     H72836   8.413   2.470   3.636 -1.3548  1.8043 -1.9664
  540MOL0     H72837   8.718   2.511   3.609 -0.4808 -0.2531 -0.7652
  540MOL0     H72838   8.630   2.442   3.742 -1.1782 -1.0538 -0.9572
  540MOL0     H72839   8.572   2.257   3.621 -2.4857  1.8485 -3.1150
  540MOL0     H72840   8.632   2.314   3.467 -1.0051 -0.5104  0.9613
  540MOL0     H72841   8.860   2.343   3.583  1.4280 -0.8595 -0.1608
  540MOL0     H72842   8.799   2.267   3.728  1.7363 -2.2085  0.6452
  540MOL0     H72843   8.817   2.147   3.445  0.2208 -0.9182 -0.2222
  540MOL0     H72844   8.929   2.116   3.578 -0.0496  0.7299 -0.1960
  540MOL0     H72845   8.792   1.989   3.703 -0.0789 -1.0322  0.5107
  540MOL0     H72846   8.640   2.023   3.615 -0.2280 -2.9810 -2.9244
  540MOL0     H72847   8.715   1.919   3.417  0.8116 -0.7798 -0.6510
  540MOL0     H72848   8.881   1.902   3.484 -1.0043 -1.8579 -2.5932
  540MOL0     H72849   8.813   1.724   3.632 -1.6052  1.9364  2.8912
  540MOL0     H72850   8.747   1.680   3.479 -0.9216 -0.7611  0.4612
  540MOL0     H72851   8.480   1.692   3.444 -2.4407  1.6848  0.3689
  540MOL0     H72852   8.201   1.788   3.578 -1.9048 -1.1692 -0.9169
  540MOL0     H72853   8.236   1.636   3.510 -4.1560  2.1833 -0.5096
  540MOL0     H72854   8.054   1.598   3.671 -0.3885  1.8904  0.1648
  540MOL0     H72855   8.147   1.697   3.783 -0.3028  1.8561 -2.6782
  540MOL0     H72856   8.331   1.510   3.803 -0.2666 -3.0213  3.3118
  540MOL0     H72857   8.221   1.405   3.708  3.8370 -1.6273  1.1774
  540MOL0     H72858   8.103   1.538   3.942 -1.3100 -0.5023 -0.0158
  540MOL0     H72859   8.226   1.414   3.969 -1.8020  0.4678  0.5218
  540MOL0     H72860   8.075   1.410   4.113  4.1988 -2.0076 -1.8873
  540MOL0     H72861   8.068   1.332   4.335  0.4161 -0.2846  0.2030
  540MOL0     H72862   7.889   1.314   4.380  1.6311  0.1421  2.3274
  540MOL0     H72863   7.997   1.191   4.404  1.6457 -1.6667 -1.0887
  540MOL0     H72864   7.676   1.139   4.443 -4.0301 -1.2559  1.6477
  540MOL0     H72865   7.541   1.092   4.637  1.1491  0.1162  1.4906
  540MOL0     H72866   7.419   0.833   4.911  1.8828 -1.3998  1.0158
  540MOL0     H72867   7.429   0.893   4.751  2.1790  2.0696 -2.0184
  540MOL0     H72868   7.443   0.645   4.758 -2.1348  2.2079  1.5694
  540MOL0     H72869   7.608   0.685   4.724 -0.6700  2.7637 -1.5018
  540MOL0     H72870   7.512   0.611   5.010  0.8154 -0.6829  0.4619
  540MOL0     H72871   7.665   0.671   4.954  0.4337 -0.6513 -0.4403
  540MOL0     H72872   7.620   0.424   5.013  0.9719  0.4808 -0.7431
  540MOL0     H72873   7.523   0.415   4.862 -0.2508 -0.5169 -0.2982
  540MOL0     H72874   7.827   0.448   4.894 -1.2860  4.0700  0.0558
  540MOL0     H72875   7.757   0.494   4.740 -2.0956  1.2612 -0.6938
  540MOL0     H72876   7.842   0.255   4.795  0.3594 -0.6273 -0.4965
  540MOL0     H72877   7.700   0.223   4.881  0.4187  2.1732  1.5166
  540MOL0     H72878   7.728   0.307   4.586 -2.0933  1.5358 -0.8637
  540MOL0     H72879   7.579   0.334   4.640 -1.8266 -1.7215 -1.0339
  540MOL0     H72880   7.597   0.132   4.506 -2.8287 -3.3161 -0.2681
  540MOL0     H72881   7.545   0.089   4.678 -2.6767  1.8127 -1.3159
  540MOL0     H72882   7.812   0.787   4.759 -1.5852 -0.6048 -1.3563
  540MOL0     H72883   7.955   0.828   4.572 -0.0552 -0.3443  1.0724
  540MOL0     H72884   7.909   0.960   3.993  1.8047 -1.1186  1.0577
  540MOL0     H72885   8.004   1.120   3.817  3.6595 -3.4480  1.2076
  540MOL0     H72886   8.380   2.479   3.215  2.0449 -0.6677  3.4442
  540MOL0     H72887   8.166   2.547   3.137 -7.3112  1.7513  2.8361
  540MOL0     H72888   7.800   2.869   3.286  1.5987 -0.1405 -1.1633
  540MOL0     H72889   7.596   2.969   3.239  0.4030 -0.0730 -1.2050
  540MOL0     H72890   7.264   3.006   3.089  0.2512 -1.4409 -2.8194
  540MOL0     H72891   7.394   2.983   3.220  3.1561 -2.7903 -0.8230
  540MOL0     H72892   7.530   3.142   3.095 -0.4636 -1.6733  0.0876
  540MOL0     H72893   7.379   3.207   3.153  1.4426  2.3663 -2.4772
  540MOL0     H72894   7.283   3.142   2.922  0.5774  0.5776  0.8615
  540MOL0     H72895   7.454   3.107   2.883  2.9088  1.0628  1.9950
  540MOL0     H72896   7.313   3.370   2.954  0.2036 -1.3705  1.9231
  540MOL0     H72897   7.391   3.326   2.803 -2.3090  1.2056  0.6298
  540MOL0     H72898   7.714   3.492   2.982  0.7361 -0.4529 -0.2775
  540MOL0     H72899   7.525   2.666   2.924 -3.5897 -1.4272  3.0854
  540MOL0     H72900   7.717   2.566   2.980 -1.7040 -0.1660 -0.4038
  541MOL0     O72901   7.386  10.541   1.005 -0.6569 -0.9377 -0.2241
  541MOL0     C72902   7.328  10.437   1.049 -0.4833 -0.9417  0.6152
  541MOL0     O72903   7.194  10.427   1.061 -0.6956 -0.4590 -0.5788
  541MOL0     C72904   7.113  10.535   1.038 -0.4117 -0.5338 -0.7324
  541MOL0     C72905   7.135  10.668   1.074  0.1886 -0.0747  0.1386
  541MOL0     C72906   7.029  10.757   1.063 -0.6202 -0.2828 -0.3449
  541MOL0     C72907   6.900  10.728   1.014 -0.4772  0.1896 -0.3663
  541MOL0     O72908   6.804  10.825   1.009 -0.2904  0.1199 -1.1014
  541MOL0     C72909   6.824  10.964   0.990 -0.3598 -0.5088 -0.4607
  541MOL0     C72910   6.689  11.011   0.945 -0.0874 -0.5370  0.4062
  541MOL0     C72911   6.640  10.940   0.819  0.2073 -0.4486 -1.2230
  541MOL0     C72912   6.549  10.821   0.853  0.1797 -0.7852  0.3032
  541MOL0     C72913   6.496  10.741   0.730  0.0565  1.8841 -0.8317
  541MOL0     C72914   6.496  10.588   0.769  0.0677  0.1208  0.1096
  541MOL0     C72915   6.411  10.516   0.671  0.4518  0.0032  0.0256
  541MOL0     C72916   6.413  10.360   0.720 -0.4996 -0.0980  1.0876
  541MOL0     N72917   6.364  10.274   0.612  0.1802 -0.1421 -0.1249
  541MOL0     C72918   6.238  10.265   0.552  0.5486 -0.8022 -0.7546
  541MOL0     C72919   6.250  10.176   0.454 -1.0411 -0.4833 -0.4300
  541MOL0     C72920   6.144  10.134   0.364 -0.0479 -0.3712  0.3203
  541MOL0     C72921   6.156  10.233   0.241  0.0918 -0.2493  0.7315
  541MOL0     C72922   6.281  10.202   0.146  1.3755  0.7328 -0.1762
  541MOL0     C72923   6.262  10.270   0.011  0.2460  1.0126  0.8066
  541MOL0     O72924   6.132  10.249  -0.058  0.1741  0.0932  0.1931
  541MOL0     C72925   6.089  10.124  -0.107  0.2239 -0.0214 -0.4412
  541MOL0     C72926   6.071  10.015  -0.021  0.2433 -0.7703 -0.3153
  541MOL0     C72927   6.011   9.898  -0.070 -0.3027  0.3309 -0.8592
  541MOL0     C72928   5.967   9.789   0.030 -0.0489 -0.1598  0.2873
  541MOL0     C72929   5.981   9.881  -0.208  0.0165  0.4315  0.6868
  541MOL0     C72930   5.909   9.761  -0.278 -1.0156 -1.0467 -0.9507
  541MOL0     O72931   5.914   9.760  -0.418 -0.2755 -0.0896 -0.3665
  541MOL0     C72932   5.851   9.660  -0.490 -0.5588 -0.0298 -0.3980
  541MOL0     C72933   5.723   9.596  -0.472  0.8428 -0.2886  0.2310
  541MOL0     C72934   5.690   9.491  -0.559 -0.0255 -0.3010  0.0911
  541MOL0     C72935   5.774   9.449  -0.667 -0.1516 -0.4438 -0.0715
  541MOL0     O72936   5.746   9.371  -0.771  0.2773  0.3201  0.6579
  541MOL0     C72937   5.620   9.297  -0.777 -0.2698 -1.3250 -0.5295
  541MOL0     C72938   5.594   9.251  -0.919  0.5082 -0.7079  0.1910
  541MOL0     C72939   5.703   9.152  -0.970  0.5056 -0.3795 -0.1847
  541MOL0     C72940   5.683   9.018  -0.903  0.2314  0.9522 -0.6514
  541MOL0     C72941   5.543   8.952  -0.933  1.0550 -0.5794 -0.7808
  541MOL0     C72942   5.550   8.802  -0.907  0.2492  1.2458 -0.6218
  541MOL0     C72943   5.540   8.771  -0.752 -0.9527  0.0702 -0.5678
  541MOL0     C72944   5.539   8.613  -0.736 -0.2729  0.6177  0.5743
  541MOL0    Cl72945   5.677   8.541  -0.819 -0.0014 -0.2332  0.0053
  541MOL0     C72946   5.895   9.521  -0.679 -0.8997 -0.7211 -0.5877
  541MOL0     C72947   5.939   9.626  -0.595 -0.1799 -0.9180  0.0863
  541MOL0     O72948   5.843   9.682  -0.212 -0.0589  0.5378  0.0509
  541MOL0     C72949   6.011   9.990  -0.286  0.2322 -0.2984  0.2542
  541MOL0     C72950   6.065  10.110  -0.242 -0.0831  0.5388 -1.1024
  541MOL0     N72951   6.386  10.127   0.467 -0.2674 -0.4603 -0.6427
  541MOL0     N72952   6.451  10.184   0.556  0.3795  0.4644 -0.0495
  541MOL0     C72953   6.883  10.595   0.977  0.8765  0.4343 -0.5641
  541MOL0     C72954   6.989  10.508   0.990 -0.1352  1.0818  0.4818
  541MOL0     C72955   7.416  10.321   1.044  0.6677  0.3415 -0.3135
  541MOL0     C72956   7.534  10.319   1.116 -0.4204  0.4836  0.3214
  541MOL0     C72957   7.608  10.205   1.131  0.7128  0.6042 -1.1939
  541MOL0     C72958   7.562  10.082   1.072  0.3410  0.4835 -0.0152
  541MOL0     O72959   7.648   9.971   1.098  0.8257  0.4154  0.4175
  541MOL0     C72960   7.615   9.841   1.039 -0.7675  0.0771 -0.3164
  541MOL0     C72961   7.743   9.761   1.010 -0.1980 -0.8263 -0.2082
  541MOL0     C72962   7.864   9.827   0.953  0.1927 -0.1708  0.4738
  541MOL0     C72963   7.979   9.734   0.901  0.2218 -0.6583  0.4120
  541MOL0     C72964   8.096   9.815   0.878 -0.4072  0.1441  0.1625
  541MOL0     C72965   8.181   9.901   0.872 -0.0004 -0.0025  0.2177
  541MOL0     C72966   7.441  10.088   0.995 -0.1364 -0.4593  0.0307
  541MOL0     C72967   7.362  10.200   0.995  0.1303  0.0698 -0.6292
  541MOL0     H72968   7.222  10.713   1.120 -1.3270  3.5790 -0.2704
  541MOL0     H72969   7.032  10.849   1.120 -1.0258 -0.3487 -0.2092
  541MOL0     H72970   6.841  11.003   1.090 -0.5470 -3.6064  0.9162
  541MOL0     H72971   6.908  10.992   0.926  1.9226 -0.0529  2.5302
  541MOL0     H72972   6.620  10.990   1.028 -0.0898 -2.2074  0.0205
  541MOL0     H72973   6.686  11.118   0.927  2.0335  0.0081  2.6666
  541MOL0     H72974   6.583  11.020   0.770  3.7280  3.7293  0.7673
  541MOL0     H72975   6.717  10.917   0.745  2.5978 -0.9187  1.2398
  541MOL0     H72976   6.602  10.753   0.920  0.2064  2.6669  4.1616
  541MOL0     H72977   6.473  10.872   0.912  1.9814  1.8974  0.4465
  541MOL0     H72978   6.396  10.770   0.697 -1.1496  2.7584  3.0573
  541MOL0     H72979   6.567  10.752   0.647  0.4212  0.5326 -0.7252
  541MOL0     H72980   6.591  10.533   0.774  0.3538  0.1845 -2.9256
  541MOL0     H72981   6.446  10.575   0.865  0.1514  1.8787  0.4277
  541MOL0     H72982   6.307  10.550   0.673 -0.0051 -0.9529 -2.8727
  541MOL0     H72983   6.455  10.520   0.571  0.2054 -0.9412 -0.1376
  541MOL0     H72984   6.361  10.340   0.814 -0.4228 -0.8530  0.9781
  541MOL0     H72985   6.518  10.337   0.740 -1.0100 -0.9442  2.9744
  541MOL0     H72986   6.153  10.329   0.573  2.9613  2.9662 -1.4178
  541MOL0     H72987   6.171  10.032   0.336  0.2871  0.6349 -3.6025
  541MOL0     H72988   6.051  10.135   0.422 -1.4581  0.8626 -1.8372
  541MOL0     H72989   6.167  10.335   0.278 -2.8455 -0.7452  3.4218
  541MOL0     H72990   6.064  10.209   0.187  2.6841 -2.3750 -3.3066
  541MOL0     H72991   6.297  10.094   0.142  0.1437  0.4606  1.2848
  541MOL0     H72992   6.369  10.235   0.202 -0.1695 -0.7553  3.4139
  541MOL0     H72993   6.346  10.241  -0.052  0.1763  2.7130 -0.1399
  541MOL0     H72994   6.271  10.378   0.025  0.4301  1.4330 -2.0520
  541MOL0     H72995   6.088  10.047   0.082  0.2086  0.7755 -0.7566
  541MOL0     H72996   6.005   9.810   0.130  1.3410 -0.3792 -0.1790
  541MOL0     H72997   5.858   9.778   0.036 -0.2554  1.9024  1.2630
  541MOL0     H72998   6.008   9.694  -0.005  1.4933  0.5014  0.2496
  541MOL0     H72999   5.658   9.620  -0.389  1.8819 -2.0149  1.6320
  541MOL0     H73000   5.599   9.433  -0.544  0.0859 -0.7513 -0.8537
  541MOL0     H73001   5.616   9.210  -0.711 -2.3509 -0.9302 -0.0319
  541MOL0     H73002   5.543   9.369  -0.745  1.8311  0.0517  1.8959
  541MOL0     H73003   5.492   9.213  -0.931 -0.6164  2.7265 -2.6987
  541MOL0     H73004   5.592   9.337  -0.987  1.5165 -0.7693  0.0733
  541MOL0     H73005   5.804   9.191  -0.953  0.7606 -1.0956 -0.0086
  541MOL0     H73006   5.701   9.150  -1.079  4.3246  3.0314 -0.5812
  541MOL0     H73007   5.758   8.944  -0.932 -1.0842 -1.0216  0.7088
  541MOL0     H73008   5.689   9.021  -0.794  0.3217 -2.9602 -0.3801
  541MOL0     H73009   5.516   8.962  -1.038  3.5396 -1.0171 -1.5081
  541MOL0     H73010   5.467   8.996  -0.867  0.4037 -0.4377 -1.6070
  541MOL0     H73011   5.464   8.742  -0.939 -0.5192  0.5635  2.3793
  541MOL0     H73012   5.641   8.762  -0.953  0.5308  1.7434 -0.4948
  541MOL0     H73013   5.448   8.804  -0.703 -2.3676 -0.2348 -2.8663
  541MOL0     H73014   5.634   8.809  -0.710 -0.3851  1.0531 -2.5841
  541MOL0     H73015   5.449   8.586  -0.792 -1.4836  1.7969  1.8644
  541MOL0     H73016   5.529   8.567  -0.638 -1.1405  2.3511  1.3428
  541MOL0     H73017   5.972   9.486  -0.747  4.0972 -0.0452  4.0472
  541MOL0     H73018   6.031   9.683  -0.594 -0.5798 -0.2340 -0.5380
  541MOL0     H73019   5.974   9.985  -0.388 -0.9484 -0.0658  0.6650
  541MOL0     H73020   6.086  10.186  -0.317 -0.4988  3.8987  1.9058
  541MOL0     H73021   6.793  10.541   0.950  2.0970 -2.4492  0.7817
  541MOL0     H73022   6.973  10.403   0.966 -0.3503  1.7521 -2.7246
  541MOL0     H73023   7.553  10.398   1.188  2.6470 -0.8771  1.1530
  541MOL0     H73024   7.697  10.218   1.191  0.8288 -2.5290 -0.5432
  541MOL0     H73025   7.553   9.789   1.113 -0.6561 -1.2046 -1.0901
  541MOL0     H73026   7.567   9.848   0.941 -0.2933 -0.7506 -0.6162
  541MOL0     H73027   7.728   9.685   0.933  0.3176  1.7031 -2.9310
  541MOL0     H73028   7.783   9.709   1.098  1.7289 -0.4167 -0.8081
  541MOL0     H73029   7.895   9.894   1.033 -3.0005 -0.0252  1.7149
  541MOL0     H73030   7.839   9.889   0.866 -1.9689 -4.2983 -2.1785
  541MOL0     H73031   7.949   9.695   0.804  3.2769 -0.8844 -0.5489
  541MOL0     H73032   7.990   9.657   0.979 -1.1229 -1.1409  0.1438
  541MOL0     H73033   8.237   9.991   0.854 -2.1641  1.3366 -0.2011
  541MOL0     H73034   7.406   9.996   0.948 -1.6540 -0.4633  1.0943
  541MOL0     H73035   7.273  10.186   0.935  0.0690 -0.0923 -0.5049
  542MOL0     O73036   0.904   6.846   5.757  0.8704 -0.1374 -0.6725
  542MOL0     C73037   0.854   6.942   5.698 -0.2461  0.0243 -0.6158
  542MOL0     O73038   0.877   7.072   5.721 -0.0462 -0.3047 -0.9667
  542MOL0     C73039   0.979   7.126   5.800 -0.5384  0.5160 -0.2465
  542MOL0     C73040   0.990   7.266   5.810  0.0624 -0.6191 -0.2828
  542MOL0     C73041   1.085   7.334   5.894  0.2686  0.0182 -0.0538
  542MOL0     C73042   1.161   7.252   5.973 -0.3528  0.3072  0.1511
  542MOL0     O73043   1.263   7.309   6.048 -0.3305 -0.5371 -0.1304
  542MOL0     C73044   1.251   7.324   6.190 -0.1969 -1.2731  0.8651
  542MOL0     C73045   1.124   7.400   6.220 -0.2487  0.7186  0.3410
  542MOL0     C73046   1.117   7.437   6.372  0.4046  0.5049 -0.3435
  542MOL0     C73047   0.974   7.497   6.415  0.8180  0.7156  1.0721
  542MOL0     C73048   0.970   7.537   6.566 -0.0125 -0.7200 -0.7559
  542MOL0     C73049   0.849   7.633   6.605 -0.2332  0.0297  1.1773
  542MOL0     C73050   0.830   7.671   6.756  0.6643 -0.5841 -0.6163
  542MOL0     C73051   0.695   7.748   6.773  0.8086  0.1482  0.5988
  542MOL0     N73052   0.661   7.794   6.908  0.2694  0.3827  0.2666
  542MOL0     C73053   0.673   7.738   7.031  1.3116  0.0675 -0.1412
  542MOL0     C73054   0.607   7.813   7.123  0.2747  0.1756 -0.2634
  542MOL0     C73055   0.585   7.816   7.273  0.0635 -0.5409  1.1529
  542MOL0     C73056   0.718   7.866   7.335  0.8789 -0.2140  1.0209
  542MOL0     C73057   0.742   8.016   7.308  0.3825 -1.0375  0.5778
  542MOL0     C73058   0.839   8.076   7.414  0.9577 -0.3660  0.0152
  542MOL0     O73059   0.865   8.218   7.397  1.3350  0.1666  0.2547
  542MOL0     C73060   0.978   8.271   7.442 -0.2912 -0.3888 -0.2087
  542MOL0     C73061   1.074   8.219   7.533 -0.5013 -0.3349 -0.2550
  542MOL0     C73062   1.196   8.299   7.563  0.3990  0.0903  0.4783
  542MOL0     C73063   1.294   8.241   7.651 -0.5593  0.6220 -0.0748
  542MOL0     C73064   1.223   8.411   7.489 -0.5898  0.7836 -0.3265
  542MOL0     C73065   1.342   8.497   7.474 -0.7837 -0.0526 -0.5023
  542MOL0     O73066   1.340   8.636   7.474 -0.0889  0.0493  0.3428
  542MOL0     C73067   1.470   8.686   7.461  0.5610 -0.0440  0.4433
  542MOL0     C73068   1.537   8.696   7.337  0.8637 -0.2478  0.6374
  542MOL0     C73069   1.673   8.735   7.323 -0.9953  0.2293  0.2130
  542MOL0     C73070   1.741   8.786   7.439 -0.1376 -0.4533  0.5409
  542MOL0     O73071   1.868   8.846   7.450 -0.2312  0.1843 -0.3547
  542MOL0     C73072   1.978   8.767   7.398  0.2536  0.1441 -0.0112
  542MOL0     C73073   2.046   8.699   7.512 -0.5851  0.3012 -0.0221
  542MOL0     C73074   2.200   8.682   7.500  0.5411  0.1355  0.2663
  542MOL0     C73075   2.247   8.611   7.367  0.2696  0.9113 -0.1866
  542MOL0     C73076   2.365   8.511   7.381 -0.3642 -0.2743 -0.3972
  542MOL0     C73077   2.411   8.462   7.248  0.6742 -0.5463  0.5954
  542MOL0     C73078   2.513   8.346   7.263  0.4609 -0.2286  0.7454
  542MOL0     C73079   2.517   8.274   7.121  0.1434  0.5109  0.5212
  542MOL0    Cl73080   2.556   8.106   7.159  0.5623  0.6704  0.1906
  542MOL0     C73081   1.664   8.795   7.563 -0.3967  0.0353  0.0761
  542MOL0     C73082   1.541   8.732   7.577 -0.6942  0.1369 -0.4973
  542MOL0     O73083   1.437   8.422   7.455 -0.6576 -0.0936  0.3001
  542MOL0     C73084   1.131   8.460   7.401  0.0323  0.0372 -1.1973
  542MOL0     C73085   1.007   8.394   7.374 -0.0438  1.0842 -0.4055
  542MOL0     N73086   0.563   7.924   7.051  0.2613 -0.4038  1.1497
  542MOL0     N73087   0.594   7.909   6.924  0.4806 -0.1839 -0.3829
  542MOL0     C73088   1.176   7.115   5.945 -0.5114  0.3721 -0.8092
  542MOL0     C73089   1.084   7.051   5.864 -0.3675 -1.4289 -0.2623
  542MOL0     C73090   0.774   6.918   5.573 -0.1363 -0.6502 -1.8740
  542MOL0     C73091   0.691   7.019   5.517 -0.9091  0.5891  0.2393
  542MOL0     C73092   0.624   6.987   5.396 -0.5189 -0.0547 -0.2632
  542MOL0     C73093   0.633   6.869   5.323 -0.9053 -0.5775 -0.9581
  542MOL0     O73094   0.559   6.847   5.208 -0.7065 -0.1122  0.3661
  542MOL0     C73095   0.606   6.743   5.120 -0.7351  0.5660 -0.3440
  542MOL0     C73096   0.746   6.759   5.068  1.4614  0.8470 -0.1317
  542MOL0     C73097   0.775   6.889   4.971 -0.4024  0.0582 -1.1575
  542MOL0     C73098   0.749   7.030   5.040  0.8099  0.6039 -0.5283
  542MOL0     C73099   0.827   7.122   4.966  0.3385 -0.0511  0.0704
  542MOL0     C73100   0.888   7.210   4.910 -0.3272 -0.1427 -0.2241
  542MOL0     C73101   0.716   6.775   5.389 -0.2958  1.2741 -0.1573
  542MOL0     C73102   0.777   6.797   5.515  0.3281 -0.4160 -0.0692
  542MOL0     H73103   0.916   7.329   5.761  0.4003 -1.1257 -1.4767
  542MOL0     H73104   1.083   7.442   5.892  0.4237  0.0660 -3.0660
  542MOL0     H73105   1.247   7.225   6.237 -0.0839 -0.2468  3.1870
  542MOL0     H73106   1.346   7.369   6.221  0.7122 -0.3535 -2.7818
  542MOL0     H73107   1.133   7.499   6.175  0.0084 -0.1232 -1.5276
  542MOL0     H73108   1.032   7.344   6.203  0.7333 -0.8164 -0.0519
  542MOL0     H73109   1.129   7.343   6.426 -0.2628 -1.4611 -3.3457
  542MOL0     H73110   1.198   7.499   6.412 -0.5715 -0.0713  2.7880
  542MOL0     H73111   0.956   7.588   6.355  0.7064 -0.2370 -0.3921
  542MOL0     H73112   0.903   7.414   6.407  0.7020  0.8616  0.4927
  542MOL0     H73113   0.961   7.441   6.619 -2.8670 -0.7596 -1.1454
  542MOL0     H73114   1.067   7.581   6.589 -0.3407  0.0631 -0.8221
  542MOL0     H73115   0.858   7.726   6.547 -0.9310  1.2093  2.8683
  542MOL0     H73116   0.755   7.598   6.563  0.5591 -1.6596  0.7324
  542MOL0     H73117   0.841   7.586   6.825  1.6268 -0.1739 -0.2475
  542MOL0     H73118   0.917   7.729   6.789  1.3928 -3.0244  2.3043
  542MOL0     H73119   0.616   7.681   6.738  1.0930 -0.1532  0.5232
  542MOL0     H73120   0.709   7.838   6.713  0.1696  0.5025  0.9801
  542MOL0     H73121   0.723   7.642   7.036 -0.9306 -1.1856 -0.4926
  542MOL0     H73122   0.502   7.880   7.305  0.9531  0.4173  1.6351
  542MOL0     H73123   0.568   7.713   7.306 -0.8300 -0.7513  0.0642
  542MOL0     H73124   0.801   7.807   7.293  0.6441  0.0243  0.2118
  542MOL0     H73125   0.732   7.831   7.438  3.2054 -1.0742  0.4797
  542MOL0     H73126   0.652   8.078   7.316  0.7543 -0.5227  0.7901
  542MOL0     H73127   0.785   8.037   7.209 -2.8376  2.4028 -0.2861
  542MOL0     H73128   0.935   8.025   7.419  2.1157  1.7570  0.6446
  542MOL0     H73129   0.797   8.063   7.514  1.8510 -1.4061  0.2703
  542MOL0     H73130   1.059   8.125   7.585 -1.2314  1.6284  3.4762
  542MOL0     H73131   1.386   8.219   7.595 -1.4742 -3.4915 -0.3236
  542MOL0     H73132   1.318   8.314   7.729  3.6535  0.9852 -1.4418
  542MOL0     H73133   1.263   8.147   7.698 -0.7284  1.8368  2.4044
  542MOL0     H73134   1.485   8.680   7.243 -0.8139  2.4647  1.0058
  542MOL0     H73135   1.718   8.723   7.225 -2.2444  1.5887 -0.5770
  542MOL0     H73136   1.933   8.697   7.326 -4.2432  0.7342  1.9471
  542MOL0     H73137   2.046   8.832   7.342  0.6745  0.1757  0.5332
  542MOL0     H73138   2.023   8.762   7.599  0.1239  3.0455 -1.6833
  542MOL0     H73139   2.001   8.606   7.549 -1.4198  1.2576  1.4713
  542MOL0     H73140   2.230   8.620   7.584 -2.7544 -0.3681  1.1995
  542MOL0     H73141   2.242   8.781   7.518  0.0468  0.3471  0.2840
  542MOL0     H73142   2.155   8.563   7.333 -1.2140  1.3538  2.9203
  542MOL0     H73143   2.276   8.692   7.300  0.9292  0.3380 -0.6189
  542MOL0     H73144   2.327   8.429   7.443  0.0529 -0.2795 -0.1405
  542MOL0     H73145   2.449   8.556   7.434 -1.5923  0.5409  0.9107
  542MOL0     H73146   2.325   8.441   7.183  0.0356 -0.9752  1.5645
  542MOL0     H73147   2.461   8.547   7.200  0.6224 -1.2328 -0.7102
  542MOL0     H73148   2.470   8.278   7.337 -0.1303  0.0276  0.6476
  542MOL0     H73149   2.618   8.374   7.276  0.3625  5.0584 -4.7472
  542MOL0     H73150   2.592   8.318   7.055  2.5958 -0.6904  2.3928
  542MOL0     H73151   2.419   8.276   7.071  0.7809 -1.3314 -0.9180
  542MOL0     H73152   1.710   8.839   7.650  0.6123 -2.8005  1.1053
  542MOL0     H73153   1.512   8.724   7.682  0.3140 -2.1317 -0.3406
  542MOL0     H73154   1.140   8.552   7.343  3.0888  0.0114 -0.9328
  542MOL0     H73155   0.941   8.427   7.294  0.4913 -1.3148 -1.9489
  542MOL0     H73156   1.257   7.054   5.984 -0.1529  1.9532  1.0669
  542MOL0     H73157   1.102   6.944   5.862  0.1569 -1.3325 -0.8315
  542MOL0     H73158   0.671   7.112   5.569  2.8299  0.4097  2.3407
  542MOL0     H73159   0.565   7.074   5.369 -2.4462 -1.1028  0.3570
  542MOL0     H73160   0.593   6.646   5.169  3.3579  0.3471  0.7404
  542MOL0     H73161   0.542   6.747   5.031  1.0573  1.1989 -1.6719
  542MOL0     H73162   0.762   6.667   5.011  2.0630  1.0907 -0.3657
  542MOL0     H73163   0.817   6.757   5.151 -0.0938 -1.1013  1.2191
  542MOL0     H73164   0.718   6.863   4.881 -0.9615  0.9123 -1.0669
  542MOL0     H73165   0.881   6.887   4.943 -0.6435  1.2183 -2.2511
  542MOL0     H73166   0.766   7.031   5.148  5.6577 -2.0084 -0.9837
  542MOL0     H73167   0.644   7.051   5.022  0.8179  2.2520  1.1294
  542MOL0     H73168   0.955   7.286   4.876 -0.4758  1.0653  2.0065
  542MOL0     H73169   0.739   6.675   5.353 -0.6497  1.3206 -0.5180
  542MOL0     H73170   0.838   6.720   5.562  2.7896  1.2778 -0.2607
  543MOL0     O73171   7.961   6.877   9.927 -0.1326  0.0584  0.6217
  543MOL0     C73172   7.845   6.862   9.948 -0.9486  0.0662  0.2654
  543MOL0     O73173   7.742   6.881   9.856  0.4030 -0.2160 -0.3717
  543MOL0     C73174   7.771   6.919   9.727  0.2707 -0.4115  0.4476
  543MOL0     C73175   7.851   7.036   9.684 -0.3867 -0.5368  0.5965
  543MOL0     C73176   7.867   7.071   9.549  0.0589  0.2627 -0.6260
  543MOL0     C73177   7.819   6.987   9.447 -0.7507 -0.6610  0.0004
  543MOL0     O73178   7.853   7.016   9.317  0.1783 -0.3009  0.2302
  543MOL0     C73179   7.848   6.922   9.206  0.9108  0.4159 -0.9842
  543MOL0     C73180   7.909   6.984   9.083 -0.1190 -0.3946  0.1495
  543MOL0     C73181   7.950   6.870   8.993 -0.9719  0.2275  0.1628
  543MOL0     C73182   8.068   6.911   8.900  0.3349 -0.1713  0.2626
  543MOL0     C73183   8.130   6.777   8.843  1.5800 -0.8109 -0.5906
  543MOL0     C73184   8.216   6.818   8.715 -0.6566  0.6496 -0.0319
  543MOL0     C73185   8.249   6.705   8.625  1.4595 -0.2894  0.7118
  543MOL0     C73186   8.360   6.734   8.516  0.9794 -0.3405  0.0511
  543MOL0     N73187   8.291   6.788   8.397 -0.2257  0.1032 -0.2469
  543MOL0     C73188   8.263   6.714   8.291 -0.4096  0.2410 -0.1981
  543MOL0     C73189   8.198   6.808   8.211  0.7182  0.4010 -0.0582
  543MOL0     C73190   8.135   6.803   8.080  0.4997 -0.5316  0.2159
  543MOL0     C73191   8.203   6.697   7.991  0.1168 -0.5843 -1.0577
  543MOL0     C73192   8.360   6.700   7.982  0.0350  0.0470  0.3001
  543MOL0     C73193   8.420   6.810   7.895 -0.2499 -1.3048 -0.4974
  543MOL0     O73194   8.554   6.780   7.856 -1.0277 -0.2569 -0.2618
  543MOL0     C73195   8.646   6.881   7.809  0.0542 -0.0757  1.3167
  543MOL0     C73196   8.776   6.850   7.813  0.9482 -0.3090  0.3945
  543MOL0     C73197   8.875   6.944   7.765  0.4371  0.4659  0.1967
  543MOL0     C73198   9.014   6.890   7.764 -0.7512 -0.8509 -0.6711
  543MOL0     C73199   8.829   7.072   7.711 -0.1873 -0.2054 -0.1452
  543MOL0     C73200   8.922   7.186   7.666  0.4860 -0.6064  0.2552
  543MOL0     O73201   9.045   7.175   7.694 -0.2650  0.0915 -0.1062
  543MOL0     C73202   9.134   7.285   7.680 -0.7878 -0.2232 -0.1926
  543MOL0     C73203   9.198   7.322   7.795  0.5390 -0.7529  0.5524
  543MOL0     C73204   9.297   7.411   7.777 -0.4008  0.2237 -0.8322
  543MOL0     C73205   9.345   7.476   7.659  0.8256  0.6026 -0.1375
  543MOL0     O73206   9.452   7.563   7.648  0.1291  0.3413 -0.1015
  543MOL0     C73207   9.479   7.656   7.757 -0.7119  0.0955  0.3978
  543MOL0     C73208   9.605   7.748   7.749 -0.6645  0.9038 -0.6121
  543MOL0     C73209   9.635   7.818   7.882  0.6944 -0.2435  1.3316
  543MOL0     C73210   9.731   7.755   7.986 -0.3818  0.0879 -0.4536
  543MOL0     C73211   9.782   7.842   8.100  0.2326  0.0791  0.1953
  543MOL0     C73212   9.894   7.938   8.048 -0.0369 -0.4114 -0.3701
  543MOL0     C73213   9.961   8.028   8.150  0.8244 -0.6657 -0.2612
  543MOL0     C73214  10.070   8.096   8.084 -0.7984 -0.2102 -0.7543
  543MOL0    Cl73215  10.224   7.995   8.117 -0.3651  0.6385 -0.3196
  543MOL0     C73216   9.265   7.454   7.540  0.2840 -0.7209 -0.4208
  543MOL0     C73217   9.166   7.352   7.555 -0.0947  0.4462 -0.8555
  543MOL0     O73218   8.872   7.284   7.604 -0.1761  0.3016  0.1350
  543MOL0     C73219   8.684   7.094   7.705  0.1901 -0.2931  0.4294
  543MOL0     C73220   8.597   7.002   7.755 -0.3408  0.3474  1.4889
  543MOL0     N73221   8.190   6.923   8.282  0.4859  0.0883 -0.2940
  543MOL0     N73222   8.239   6.915   8.398 -0.1044 -0.0069 -0.8007
  543MOL0     C73223   7.751   6.868   9.493 -0.1457 -0.0085  0.2216
  543MOL0     C73224   7.721   6.839   9.626 -0.5499  0.5890 -1.2802
  543MOL0     C73225   7.805   6.841  10.086 -0.5743  0.0638 -0.0747
  543MOL0     C73226   7.903   6.787  10.185  0.5146 -0.0809  0.5647
  543MOL0     C73227   7.854   6.748  10.313  0.7578 -1.0952  0.5889
  543MOL0     C73228   7.716   6.755  10.337 -0.3877 -0.5529 -0.2845
  543MOL0     O73229   7.687   6.723  10.480 -0.2150 -0.5147 -0.0671
  543MOL0     C73230   7.558   6.716  10.535  0.3007  0.2242 -0.2335
  543MOL0     C73231   7.499   6.580  10.520  0.7825 -0.6730  1.6966
  543MOL0     C73232   7.589   6.480  10.593  0.4960  0.4959  0.3464
  543MOL0     C73233   7.653   6.369  10.498 -0.1959  0.5527  0.5623
  543MOL0     C73234   7.555   6.280  10.424  0.4296 -0.7185 -0.8828
  543MOL0     C73235   7.473   6.208  10.368 -0.4938 -0.3363 -0.1293
  543MOL0     C73236   7.625   6.808  10.249 -0.3312  0.6575  0.8531
  543MOL0     C73237   7.674   6.853  10.131  0.6238  0.6571  0.5805
  543MOL0     H73238   7.895   7.104   9.757 -1.3027  0.1247  0.5506
  543MOL0     H73239   7.924   7.158   9.520  2.0724 -0.0271  2.0742
  543MOL0     H73240   7.897   6.837   9.254 -1.9019 -0.6745  0.1860
  543MOL0     H73241   7.746   6.893   9.179  0.1732  1.7217  0.2124
  543MOL0     H73242   7.844   7.052   9.027  1.1129  0.1669 -0.6461
  543MOL0     H73243   7.988   7.048   9.123 -0.1612 -0.2353 -0.0200
  543MOL0     H73244   7.983   6.784   9.051 -1.1075  0.7654  1.0447
  543MOL0     H73245   7.870   6.839   8.925  0.3883 -1.9202 -0.5417
  543MOL0     H73246   8.034   6.983   8.825  1.1290  2.9757  2.6881
  543MOL0     H73247   8.143   6.966   8.956  0.6459 -2.8673  2.7521
  543MOL0     H73248   8.194   6.738   8.923  1.4029 -0.3259 -0.2121
  543MOL0     H73249   8.051   6.703   8.828  0.9798 -0.1635 -0.6424
  543MOL0     H73250   8.162   6.888   8.651 -0.5898 -2.1706 -3.4891
  543MOL0     H73251   8.303   6.872   8.754  0.3220 -0.8513 -0.0484
  543MOL0     H73252   8.283   6.623   8.690  3.2720  1.6263  2.3408
  543MOL0     H73253   8.153   6.687   8.577  0.4471  1.3169  2.0578
  543MOL0     H73254   8.404   6.638   8.489 -0.7434 -0.5660 -2.2858
  543MOL0     H73255   8.433   6.809   8.548  0.5371  1.0961 -2.0861
  543MOL0     H73256   8.295   6.611   8.278 -1.8491 -0.0254 -1.8942
  543MOL0     H73257   8.027   6.792   8.092  0.3168 -1.4317 -1.7866
  543MOL0     H73258   8.153   6.895   8.023 -3.9892  0.0867 -0.5466
  543MOL0     H73259   8.162   6.704   7.890 -0.9272  1.2698 -0.5437
  543MOL0     H73260   8.177   6.597   8.027  1.0458 -0.1135  1.1269
  543MOL0     H73261   8.388   6.602   7.941 -0.3679  0.2656 -0.5052
  543MOL0     H73262   8.403   6.701   8.083 -2.8386 -0.1883  1.6321
  543MOL0     H73263   8.420   6.905   7.948  0.7151 -1.0411 -0.9302
  543MOL0     H73264   8.346   6.821   7.815 -1.4690  2.5968  0.9304
  543MOL0     H73265   8.822   6.759   7.849  1.3265 -1.0583 -1.7958
  543MOL0     H73266   9.058   6.889   7.663 -0.4120  1.8899 -0.6409
  543MOL0     H73267   9.074   6.960   7.823  2.5136  0.1929 -4.7008
  543MOL0     H73268   9.015   6.795   7.817 -0.2835 -1.5625 -1.9017
  543MOL0     H73269   9.176   7.301   7.899 -0.2621  0.6696  0.6973
  543MOL0     H73270   9.354   7.413   7.870 -5.3853 -0.6747  2.6683
  543MOL0     H73271   9.387   7.714   7.772 -0.8503  1.0956 -3.2787
  543MOL0     H73272   9.490   7.597   7.848  0.3977  1.4547  1.1851
  543MOL0     H73273   9.690   7.683   7.724  1.2525  2.5064  1.3534
  543MOL0     H73274   9.591   7.820   7.667 -1.8672 -0.1613 -1.3756
  543MOL0     H73275   9.555   7.854   7.948  1.4573  0.9271  1.6522
  543MOL0     H73276   9.685   7.908   7.844  2.4868 -0.9737  1.8438
  543MOL0     H73277   9.683   7.662   8.018 -0.4999  0.1562 -0.4308
  543MOL0     H73278   9.822   7.728   7.933 -0.1275  0.4392 -0.2039
  543MOL0     H73279   9.826   7.774   8.174  0.3347  2.5021  2.5451
  543MOL0     H73280   9.702   7.899   8.149 -1.0564  0.1335 -1.8806
  543MOL0     H73281   9.979   7.882   8.009  1.2944  1.3350 -0.1025
  543MOL0     H73282   9.853   8.002   7.969 -3.4888  0.6314  2.0030
  543MOL0     H73283   9.997   7.977   8.239 -0.5033  2.6287  2.3589
  543MOL0     H73284   9.880   8.098   8.176 -0.5061 -1.9426 -0.8517
  543MOL0     H73285  10.091   8.190   8.136 -3.6168 -0.2527  0.6015
  543MOL0     H73286  10.053   8.128   7.980  1.4105  0.9043 -0.8415
  543MOL0     H73287   9.290   7.510   7.451  2.2823 -2.6702 -1.1867
  543MOL0     H73288   9.108   7.323   7.468 -1.6858  1.6051 -0.2285
  543MOL0     H73289   8.641   7.179   7.652 -2.7316 -1.7669  0.2334
  543MOL0     H73290   8.491   7.025   7.754 -0.6775 -0.3601  5.3657
  543MOL0     H73291   7.723   6.787   9.426 -0.5723 -1.2188  1.7972
  543MOL0     H73292   7.649   6.762   9.649 -0.5966  1.2584  1.0711
  543MOL0     H73293   8.007   6.788  10.154  0.4945  1.2268  0.5217
  543MOL0     H73294   7.919   6.717  10.394  0.6709 -2.1686  0.2676
  543MOL0     H73295   7.565   6.732  10.643 -0.4560 -0.0151 -0.1421
  543MOL0     H73296   7.493   6.799  10.505  0.0516  0.5104  1.0053
  543MOL0     H73297   7.488   6.545  10.417  5.2508  1.5098  0.2045
  543MOL0     H73298   7.408   6.604  10.576 -0.4315  0.9678 -0.8090
  543MOL0     H73299   7.526   6.431  10.668 -1.9676  1.2714 -1.1053
  543MOL0     H73300   7.666   6.531  10.651  0.6718 -0.0725  0.6236
  543MOL0     H73301   7.710   6.298  10.559 -0.6578  0.9126  1.4390
  543MOL0     H73302   7.718   6.413  10.422 -1.4891  1.8658  0.1857
  543MOL0     H73303   7.395   6.145  10.331 -2.0304  0.1499  2.0975
  543MOL0     H73304   7.518   6.817  10.260 -0.5022  0.1152 -0.1941
  543MOL0     H73305   7.602   6.894  10.060  0.4407 -0.7359 -0.0814
  544MOL0     O73306   0.302   6.901   4.118 -0.2560 -0.0243 -0.5860
  544MOL0     C73307   0.186   6.907   4.149 -0.1507 -0.9069  0.9773
  544MOL0     O73308   0.111   7.029   4.155  0.3083 -0.3436  0.9193
  544MOL0     C73309   0.158   7.156   4.129 -0.1370  0.5776  0.3365
  544MOL0     C73310   0.287   7.194   4.171 -0.8590  0.4015  0.1345
  544MOL0     C73311   0.337   7.325   4.154 -0.3916 -0.7320  0.8755
  544MOL0     C73312   0.256   7.422   4.097 -0.3180  0.3709  0.5429
  544MOL0     O73313   0.303   7.548   4.087 -0.4107  1.1399 -0.0429
  544MOL0     C73314   0.224   7.652   4.027  0.2825 -0.3099 -0.1443
  544MOL0     C73315   0.303   7.780   4.019  0.0350 -1.1639  1.0769
  544MOL0     C73316   0.325   7.848   4.157  0.4004 -0.4709 -0.3489
  544MOL0     C73317   0.348   7.990   4.139  0.0255  0.0478 -0.1968
  544MOL0     C73318   0.457   8.058   4.219  0.6222 -0.4988  0.2028
  544MOL0     C73319   0.432   8.066   4.364 -0.4423 -0.2085  0.9712
  544MOL0     C73320   0.560   8.119   4.446 -0.0774 -0.0822  0.4544
  544MOL0     C73321   0.659   8.006   4.460 -0.4609 -0.2460 -0.4729
  544MOL0     N73322   0.656   7.941   4.597  0.6558  0.1107 -0.0139
  544MOL0     C73323   0.722   7.826   4.627  0.5165 -0.1201  0.4892
  544MOL0     C73324   0.761   7.832   4.756  0.1583  0.6843 -1.0488
  544MOL0     C73325   0.824   7.748   4.860  0.6349 -0.1814  0.8025
  544MOL0     C73326   0.971   7.720   4.837  0.2532  0.1390 -0.9945
  544MOL0     C73327   0.992   7.624   4.718 -1.0390  0.2059  0.9994
  544MOL0     C73328   1.127   7.627   4.676 -0.2705 -0.0581 -1.0868
  544MOL0     O73329   1.161   7.543   4.563 -0.3534  0.2302 -0.4286
  544MOL0     C73330   1.292   7.509   4.532 -1.0303  0.1202 -0.1594
  544MOL0     C73331   1.311   7.382   4.477  0.1803  0.3225  0.5484
  544MOL0     C73332   1.440   7.333   4.462 -0.5291  0.5576  1.3334
  544MOL0     C73333   1.461   7.189   4.409  0.1451 -0.1257  0.9970
  544MOL0     C73334   1.559   7.419   4.491  0.2441  0.4371  0.0739
  544MOL0     C73335   1.693   7.391   4.438 -0.2954 -0.8768 -0.6815
  544MOL0     O73336   1.793   7.440   4.509  0.2627  0.3354 -0.8523
  544MOL0     C73337   1.919   7.387   4.497 -0.0809  0.2083  1.3068
  544MOL0     C73338   1.949   7.258   4.557  0.3542  0.0590  0.9087
  544MOL0     C73339   2.076   7.203   4.533 -0.2417  0.6503 -0.1704
  544MOL0     C73340   2.158   7.258   4.436 -0.8198 -0.2707  0.1840
  544MOL0     O73341   2.275   7.185   4.412  0.2742  0.1869  0.0158
  544MOL0     C73342   2.367   7.218   4.313  0.6445  0.8568  0.0880
  544MOL0     C73343   2.467   7.109   4.283 -1.4041  0.2299 -0.3260
  544MOL0     C73344   2.571   7.154   4.182  0.2907 -0.3652 -0.5419
  544MOL0     C73345   2.522   7.125   4.034 -0.4643 -0.0782 -0.9254
  544MOL0     C73346   2.633   7.145   3.931  0.3420 -0.2725  0.6897
  544MOL0     C73347   2.597   7.126   3.780  0.2192 -0.7379  0.2935
  544MOL0     C73348   2.496   7.224   3.725 -0.0140  0.0621 -0.0278
  544MOL0     C73349   2.440   7.179   3.599  0.0227  0.0895 -0.1767
  544MOL0    Cl73350   2.366   7.017   3.618  0.0894 -0.3305 -0.2362
  544MOL0     C73351   2.110   7.363   4.352  0.2560  0.2274  0.0893
  544MOL0     C73352   1.999   7.427   4.394 -0.7427  0.2180  0.0637
  544MOL0     O73353   1.708   7.311   4.348  0.2669 -0.8354  0.1589
  544MOL0     C73354   1.530   7.538   4.550  1.2175 -0.0644  1.1673
  544MOL0     C73355   1.405   7.586   4.579  0.1440  0.4197  0.3507
  544MOL0     N73356   0.698   7.941   4.811  0.1790 -0.4437  0.2744
  544MOL0     N73357   0.643   8.005   4.708  0.2051  0.1032 -1.2425
  544MOL0     C73358   0.135   7.381   4.033 -0.1150  0.0429  0.8525
  544MOL0     C73359   0.087   7.248   4.049  0.0084  0.5909 -0.7234
  544MOL0     C73360   0.118   6.784   4.173  0.6572  0.3387 -0.4683
  544MOL0     C73361   0.012   6.775   4.267  0.9114  0.4075  0.1312
  544MOL0     C73362  -0.060   6.652   4.277  0.0264  0.3821  0.1920
  544MOL0     C73363  -0.024   6.535   4.206  0.2269 -0.2598 -0.2387
  544MOL0     O73364  -0.089   6.414   4.209 -0.3677  0.1960 -0.1790
  544MOL0     C73365  -0.172   6.404   4.327  0.6579 -0.2806 -0.3102
  544MOL0     C73366  -0.236   6.263   4.333 -1.0900 -0.7430  0.3552
  544MOL0     C73367  -0.352   6.250   4.431 -0.4166  0.0787 -0.0338
  544MOL0     C73368  -0.376   6.096   4.464 -0.6431  0.8602 -0.6678
  544MOL0     C73369  -0.248   6.043   4.518  0.0271 -0.0767 -0.2539
  544MOL0     C73370  -0.144   5.986   4.533 -0.1956  0.2406 -0.3609
  544MOL0     C73371   0.073   6.543   4.113  0.3169 -0.1284 -0.1423
  544MOL0     C73372   0.137   6.664   4.101 -0.2232 -0.1997  1.4339
  544MOL0     H73373   0.358   7.115   4.195 -1.7519 -1.1351 -1.9042
  544MOL0     H73374   0.442   7.347   4.172 -0.7964  0.1797  2.2623
  544MOL0     H73375   0.185   7.623   3.929 -1.7397 -0.2725  0.5984
  544MOL0     H73376   0.138   7.666   4.093 -0.7983  0.3608 -1.6496
  544MOL0     H73377   0.396   7.762   3.964 -0.7081 -1.7436 -0.0275
  544MOL0     H73378   0.223   7.836   3.970 -0.0969 -1.1423  1.3109
  544MOL0     H73379   0.235   7.835   4.218 -0.2426 -1.6726 -1.5064
  544MOL0     H73380   0.415   7.812   4.206  0.1442 -2.0823 -1.0127
  544MOL0     H73381   0.375   8.016   4.037 -1.6640  2.3902 -0.1152
  544MOL0     H73382   0.256   8.043   4.165  0.9803  1.9892 -0.6007
  544MOL0     H73383   0.554   8.011   4.196  2.0718  2.2924  0.2269
  544MOL0     H73384   0.480   8.156   4.176 -0.3592 -0.8127 -1.0930
  544MOL0     H73385   0.343   8.125   4.389 -0.5301 -0.2432  0.7423
  544MOL0     H73386   0.405   7.966   4.401 -3.1320  0.5564  1.3325
  544MOL0     H73387   0.604   8.201   4.388  0.7097 -1.5718 -1.1462
  544MOL0     H73388   0.532   8.153   4.546 -2.5265 -1.4609  0.3118
  544MOL0     H73389   0.762   8.044   4.455 -0.6841  0.2872 -1.1570
  544MOL0     H73390   0.640   7.920   4.394 -2.2597 -2.5977  2.8584
  544MOL0     H73391   0.747   7.748   4.556 -1.4742 -1.0201  0.6973
  544MOL0     H73392   0.802   7.800   4.954 -2.0449  2.3371 -1.0639
  544MOL0     H73393   0.770   7.652   4.865 -2.2302  1.2863  0.0628
  544MOL0     H73394   1.016   7.671   4.924 -0.9895  2.3437  0.9808
  544MOL0     H73395   1.018   7.817   4.824 -2.1613  1.6305  0.6369
  544MOL0     H73396   0.936   7.651   4.627  1.9475  0.1008 -1.0117
  544MOL0     H73397   0.973   7.518   4.742  1.7418 -0.4045  0.7887
  544MOL0     H73398   1.195   7.601   4.757  0.0751  2.1051 -0.6239
  544MOL0     H73399   1.156   7.730   4.656  1.2751 -0.5039 -1.3225
  544MOL0     H73400   1.220   7.331   4.447 -1.9379  3.4889  1.0716
  544MOL0     H73401   1.376   7.128   4.440 -0.1676  0.2439  0.8704
  544MOL0     H73402   1.476   7.184   4.301  3.3037  0.1978  1.3193
  544MOL0     H73403   1.546   7.135   4.453 -0.8168 -2.8266 -0.2099
  544MOL0     H73404   1.870   7.216   4.618 -1.2579  0.5098 -0.7864
  544MOL0     H73405   2.121   7.123   4.591  1.0760  0.1899 -1.7437
  544MOL0     H73406   2.322   7.240   4.216  0.7063  2.0707  0.3231
  544MOL0     H73407   2.436   7.296   4.345 -1.4670  2.1664  1.7541
  544MOL0     H73408   2.518   7.069   4.372 -0.1145 -0.4280 -1.3187
  544MOL0     H73409   2.411   7.035   4.225 -3.7971  1.5968  0.1353
  544MOL0     H73410   2.671   7.118   4.205  1.1355  2.2805  0.2334
  544MOL0     H73411   2.588   7.259   4.206  0.2408 -1.2583  4.4011
  544MOL0     H73412   2.484   7.024   4.016  1.7390 -1.2064  0.3137
  544MOL0     H73413   2.448   7.200   4.003  1.4148  1.9932 -0.6920
  544MOL0     H73414   2.715   7.073   3.934  0.6094 -0.2300 -2.3583
  544MOL0     H73415   2.680   7.241   3.951  0.6696 -1.0365  4.1229
  544MOL0     H73416   2.687   7.138   3.719 -0.5333  2.1617 -0.3995
  544MOL0     H73417   2.564   7.022   3.781 -0.5772 -0.5486  3.5897
  544MOL0     H73418   2.545   7.320   3.703 -2.3862  1.5131  0.5641
  544MOL0     H73419   2.417   7.239   3.800 -0.0834 -2.7806  0.5464
  544MOL0     H73420   2.526   7.167   3.533  1.3905 -2.8522  1.9165
  544MOL0     H73421   2.375   7.259   3.563  1.1327  0.8988 -0.4218
  544MOL0     H73422   2.166   7.400   4.267 -3.1510  0.6614 -2.1865
  544MOL0     H73423   1.976   7.514   4.333 -0.3688 -1.1358 -2.0847
  544MOL0     H73424   1.613   7.602   4.579  0.8535 -0.1823  2.5171
  544MOL0     H73425   1.398   7.687   4.618 -3.9538 -0.1128  1.5164
  544MOL0     H73426   0.061   7.446   3.989 -0.1824 -0.3871  0.3264
  544MOL0     H73427  -0.013   7.227   4.012  0.0412  1.0747 -1.0902
  544MOL0     H73428  -0.009   6.867   4.319 -0.0655  0.5054 -0.4210
  544MOL0     H73429  -0.140   6.653   4.350 -0.6813 -1.3552 -0.5154
  544MOL0     H73430  -0.122   6.427   4.422 -1.1411  0.3276  0.5321
  544MOL0     H73431  -0.254   6.475   4.316  0.8579 -0.0070 -0.0732
  544MOL0     H73432  -0.152   6.199   4.363 -0.7329 -1.0509 -1.2107
  544MOL0     H73433  -0.262   6.222   4.235 -0.6631 -0.4117  0.1014
  544MOL0     H73434  -0.444   6.289   4.386 -0.7879 -2.3829 -1.6001
  544MOL0     H73435  -0.329   6.305   4.522  0.9783 -2.7365  1.4446
  544MOL0     H73436  -0.413   6.043   4.376 -0.7514  1.2769 -0.8748
  544MOL0     H73437  -0.453   6.074   4.539 -0.2201  0.2241 -0.4078
  544MOL0     H73438  -0.053   5.933   4.555  0.6203  1.1597 -1.3996
  544MOL0     H73439   0.097   6.458   4.051  1.3476  0.0196  0.0421
  544MOL0     H73440   0.209   6.668   4.020 -2.5573 -1.6442 -0.8550
  545MOL0     O73441  10.956   4.689   5.780 -0.7433  0.2757  0.2162
  545MOL0     C73442  10.879   4.642   5.864  1.0199  0.5720  0.9821
  545MOL0     O73443  10.898   4.648   5.997  0.0261 -0.2752  0.0596
  545MOL0     C73444  11.018   4.685   6.044  0.1106  0.4716 -0.6240
  545MOL0     C73445  11.151   4.662   6.004  0.1882  0.8097  0.3475
  545MOL0     C73446  11.275   4.699   6.070 -0.5502  0.0460  0.7626
  545MOL0     C73447  11.249   4.770   6.189 -0.5307  0.1649  0.2437
  545MOL0     O73448  11.361   4.806   6.252  0.1084 -0.1168 -0.2454
  545MOL0     C73449  11.410   4.712   6.348  0.0202  0.1856  0.0096
  545MOL0     C73450  11.546   4.651   6.305 -0.6128 -0.0496 -0.6812
  545MOL0     C73451  11.597   4.558   6.424  0.2607 -0.0557  0.7872
  545MOL0     C73452  11.745   4.518   6.389  0.1470  0.4532 -0.1027
  545MOL0     C73453  11.792   4.392   6.452  0.7504  0.6774 -0.2442
  545MOL0     C73454  11.946   4.374   6.419  1.1096 -0.8106  0.4097
  545MOL0     C73455  11.995   4.237   6.467  0.2091 -0.3587 -0.0147
  545MOL0     C73456  12.078   4.168   6.356  0.1825 -0.2954 -0.3474
  545MOL0     N73457  12.131   4.044   6.406  0.3400 -0.3722  0.0813
  545MOL0     C73458  12.055   3.937   6.416 -0.0151  0.7295  0.2716
  545MOL0     C73459  12.135   3.830   6.437 -0.0501 -0.1243  0.3160
  545MOL0     C73460  12.070   3.696   6.474 -0.1301  0.1603  0.0938
  545MOL0     C73461  11.963   3.689   6.587  0.4407 -0.3738  0.9822
  545MOL0     C73462  11.912   3.537   6.612  0.5327 -0.6156  0.8654
  545MOL0     C73463  12.021   3.430   6.650 -0.0018 -0.8240  0.9728
  545MOL0     O73464  11.970   3.299   6.693 -0.1090 -0.4588 -0.0282
  545MOL0     C73465  12.055   3.203   6.724 -0.1073  0.2945 -0.4946
  545MOL0     C73466  12.010   3.068   6.694  0.6665  0.6034  0.4849
  545MOL0     C73467  12.088   2.955   6.714 -0.7707 -0.3861 -0.8834
  545MOL0     C73468  12.031   2.823   6.676 -0.6031 -0.0028 -0.2052
  545MOL0     C73469  12.233   2.971   6.751  0.7559  0.1255 -0.3521
  545MOL0     C73470  12.335   2.863   6.731 -0.5823 -0.3612 -1.1835
  545MOL0     O73471  12.428   2.855   6.825 -0.9457 -0.5666  0.4229
  545MOL0     C73472  12.530   2.765   6.823  1.1998  1.0955 -0.0709
  545MOL0     C73473  12.564   2.714   6.951  0.0120 -0.4755  0.2590
  545MOL0     C73474  12.665   2.615   6.959 -0.5255  0.4325  0.3689
  545MOL0     C73475  12.735   2.586   6.848  0.7639 -0.1076  0.5076
  545MOL0     O73476  12.837   2.496   6.867  0.2906  0.4604 -0.0641
  545MOL0     C73477  12.926   2.476   6.761 -0.1023 -0.7731 -0.0201
  545MOL0     C73478  13.058   2.413   6.796  0.1093  0.3202 -1.0126
  545MOL0     C73479  13.163   2.404   6.678  0.2324 -0.0314 -0.0036
  545MOL0     C73480  13.301   2.354   6.732  0.5230  0.4099  0.4106
  545MOL0     C73481  13.408   2.359   6.618 -0.5656  0.0601 -0.0842
  545MOL0     C73482  13.373   2.257   6.503 -0.6020 -0.0786 -0.1157
  545MOL0     C73483  13.487   2.251   6.400  0.3970  0.2229  0.7543
  545MOL0     C73484  13.450   2.154   6.286 -0.2378  1.0238 -0.1635
  545MOL0    Cl73485  13.302   2.191   6.190  0.5258  0.3695 -0.0981
  545MOL0     C73486  12.706   2.636   6.721  0.2476 -0.1630  0.9081
  545MOL0     C73487  12.599   2.725   6.713  0.6341 -0.2583 -0.0427
  545MOL0     O73488  12.328   2.792   6.630  0.6569 -0.3586 -0.6045
  545MOL0     C73489  12.273   3.103   6.787 -0.4618 -0.9268 -0.8614
  545MOL0     C73490  12.186   3.215   6.783  0.2358  0.5690 -0.1771
  545MOL0     N73491  12.264   3.874   6.440  0.6357 -0.2146  0.0692
  545MOL0     N73492  12.258   4.002   6.422 -0.6987 -0.1854 -0.0038
  545MOL0     C73493  11.126   4.810   6.225 -0.2135 -0.2471  0.0693
  545MOL0     C73494  11.010   4.761   6.161 -0.3908  0.0485  0.7630
  545MOL0     C73495  10.747   4.575   5.814 -0.5485  0.1185  0.7154
  545MOL0     C73496  10.674   4.494   5.901 -0.3388 -0.4688  0.1245
  545MOL0     C73497  10.563   4.428   5.859 -0.3162 -0.2108 -0.1093
  545MOL0     C73498  10.520   4.433   5.720  0.5667 -0.4680  0.3091
  545MOL0     O73499  10.408   4.376   5.667  0.5461 -1.1240 -0.2776
  545MOL0     C73500  10.320   4.322   5.758  0.9492  0.8003  0.5441
  545MOL0     C73501  10.189   4.311   5.680  0.0022 -0.4091  0.4030
  545MOL0     C73502  10.190   4.210   5.577 -0.5321  0.9827  0.4633
  545MOL0     C73503  10.220   4.065   5.610  0.2952  0.7404 -0.2394
  545MOL0     C73504  10.094   3.997   5.640 -0.3576 -0.4719 -0.3918
  545MOL0     C73505   9.996   3.935   5.678 -0.3436  0.1846  0.6737
  545MOL0     C73506  10.600   4.510   5.634  0.3731 -0.5298  0.7923
  545MOL0     C73507  10.707   4.579   5.681  0.2764  0.1008 -0.9644
  545MOL0     H73508  11.166   4.586   5.928  2.1124  0.0920  1.3772
  545MOL0     H73509  11.375   4.676   6.033 -0.8103 -1.3851  0.8647
  545MOL0     H73510  11.419   4.752   6.449  0.2972 -0.0664  0.0855
  545MOL0     H73511  11.339   4.631   6.367 -1.6630  1.6818  0.4034
  545MOL0     H73512  11.525   4.593   6.215 -1.1331 -0.9843  0.0144
  545MOL0     H73513  11.619   4.730   6.291 -0.2263  0.0570  1.4952
  545MOL0     H73514  11.606   4.620   6.514 -0.5636  0.3471  0.6058
  545MOL0     H73515  11.541   4.465   6.437 -2.1177  1.2304  0.4355
  545MOL0     H73516  11.742   4.495   6.282 -1.3235  2.6778 -0.6169
  545MOL0     H73517  11.813   4.604   6.402 -0.8063  1.3734 -1.0265
  545MOL0     H73518  11.773   4.405   6.559  1.3150  0.0524 -0.0578
  545MOL0     H73519  11.733   4.311   6.406  0.2131 -0.9009  2.9404
  545MOL0     H73520  11.966   4.402   6.315 -2.5275 -2.6897 -0.9642
  545MOL0     H73521  11.987   4.457   6.477 -0.6968  2.5148 -2.6497
  545MOL0     H73522  12.056   4.258   6.556 -1.3913  0.2484  0.9701
  545MOL0     H73523  11.907   4.179   6.494  0.8893 -1.9526 -1.0717
  545MOL0     H73524  12.163   4.223   6.314 -1.0308  1.6694 -0.3455
  545MOL0     H73525  12.006   4.152   6.276 -0.6197  0.9451  0.0988
  545MOL0     H73526  11.947   3.942   6.422 -0.0613 -0.2674  0.4494
  545MOL0     H73527  12.029   3.643   6.387 -4.2597 -0.6556  2.2459
  545MOL0     H73528  12.155   3.636   6.505  0.8597  1.5805  0.2188
  545MOL0     H73529  11.880   3.757   6.565  2.1558  1.7935  0.8721
  545MOL0     H73530  12.006   3.733   6.677 -0.6781  1.0681  0.8446
  545MOL0     H73531  11.864   3.512   6.517  2.4169  2.3228 -1.0218
  545MOL0     H73532  11.830   3.547   6.683  0.3072 -1.5654  0.7571
  545MOL0     H73533  12.082   3.481   6.725 -1.3427  2.2644  0.1138
  545MOL0     H73534  12.085   3.417   6.562  0.0273  4.4826 -0.0906
  545MOL0     H73535  11.914   3.043   6.649 -0.7636 -1.2459  4.1505
  545MOL0     H73536  11.981   2.836   6.579  1.2502  0.7614 -1.0946
  545MOL0     H73537  12.103   2.741   6.675  0.1197  0.6146 -1.9451
  545MOL0     H73538  11.962   2.797   6.757  0.3733  2.3029  1.4834
  545MOL0     H73539  12.502   2.736   7.038 -0.7686 -1.0178 -0.1494
  545MOL0     H73540  12.684   2.575   7.058  2.2263  3.3432  1.1763
  545MOL0     H73541  12.882   2.413   6.683  1.8154 -0.3578 -1.5264
  545MOL0     H73542  12.946   2.573   6.714 -2.6013 -0.9063 -1.5539
  545MOL0     H73543  13.114   2.470   6.871 -0.2488  2.0750 -2.0218
  545MOL0     H73544  13.036   2.314   6.837  2.1216  0.3310  0.2564
  545MOL0     H73545  13.181   2.507   6.647 -0.3744 -0.1528 -0.7658
  545MOL0     H73546  13.112   2.352   6.596  1.8089 -1.3923 -0.1895
  545MOL0     H73547  13.334   2.418   6.814  1.6859  0.1658  0.1469
  545MOL0     H73548  13.300   2.250   6.766 -1.5071 -0.3870 -1.7957
  545MOL0     H73549  13.502   2.324   6.662 -0.4708  2.7317  2.0889
  545MOL0     H73550  13.412   2.465   6.593 -0.0923  0.2842  0.8836
  545MOL0     H73551  13.383   2.158   6.549 -0.1868  0.0918  0.1601
  545MOL0     H73552  13.270   2.274   6.468 -2.1882 -1.9378  3.1803
  545MOL0     H73553  13.576   2.212   6.450 -1.0004 -2.1441  1.5459
  545MOL0     H73554  13.494   2.357   6.372  0.0502  1.0375  3.4972
  545MOL0     H73555  13.439   2.055   6.331  0.2873  1.0653  0.0597
  545MOL0     H73556  13.528   2.140   6.211  0.0239 -3.2674  0.6796
  545MOL0     H73557  12.753   2.604   6.629  0.4619  1.1680  0.5220
  545MOL0     H73558  12.558   2.758   6.618 -0.0649 -1.2625 -0.1027
  545MOL0     H73559  12.374   3.116   6.824 -0.7901 -2.2293  0.6110
  545MOL0     H73560  12.232   3.303   6.825 -2.4123  0.9189  2.3569
  545MOL0     H73561  11.126   4.868   6.317 -0.6470 -1.2729  0.7431
  545MOL0     H73562  10.910   4.784   6.197 -1.3611 -0.7926 -1.2044
  545MOL0     H73563  10.701   4.486   6.005  0.7823 -0.6606 -0.1626
  545MOL0     H73564  10.513   4.366   5.933  1.8614  1.4468  2.9632
  545MOL0     H73565  10.354   4.223   5.791  0.8370  0.8953  0.9494
  545MOL0     H73566  10.312   4.391   5.843 -2.6817 -1.1365  1.9963
  545MOL0     H73567  10.159   4.412   5.651  1.3585 -0.4562 -1.3209
  545MOL0     H73568  10.119   4.284   5.760 -1.8795  0.6474 -0.8116
  545MOL0     H73569  10.258   4.248   5.500  0.2254 -3.6103 -1.4617
  545MOL0     H73570  10.087   4.209   5.540 -0.5405  0.8128  0.4904
  545MOL0     H73571  10.284   4.054   5.698 -2.6574 -1.2651  1.8252
  545MOL0     H73572  10.269   4.018   5.523  0.4982 -0.5655  0.5471
  545MOL0     H73573   9.918   3.870   5.714  0.7874 -0.1843  2.5913
  545MOL0     H73574  10.595   4.518   5.526  2.9247  1.5579  0.7349
  545MOL0     H73575  10.754   4.644   5.608 -0.5578 -0.4366 -2.0183
  546MOL0     O73576   0.918   4.779   1.555 -0.2769  0.4783  0.3769
  546MOL0     C73577   0.980   4.871   1.599  0.9417  0.0527 -0.3554
  546MOL0     O73578   1.025   4.879   1.731  0.5718  0.4047  0.4457
  546MOL0     C73579   1.027   4.773   1.809 -0.1662  1.5563  0.6364
  546MOL0     C73580   1.102   4.647   1.782 -0.7456  0.0311  0.7387
  546MOL0     C73581   1.112   4.557   1.887 -0.3028 -0.4442  0.8312
  546MOL0     C73582   1.054   4.577   2.011 -0.3691  0.4836 -0.0107
  546MOL0     O73583   1.057   4.470   2.098 -0.2162 -0.0704  0.2833
  546MOL0     C73584   0.979   4.461   2.217 -0.2623 -0.9997 -0.3018
  546MOL0     C73585   1.066   4.477   2.342 -0.6734 -0.2082 -0.3571
  546MOL0     C73586   1.136   4.610   2.341 -0.3774 -0.6515  0.4868
  546MOL0     C73587   1.195   4.625   2.471  0.3742  0.1331 -0.1424
  546MOL0     C73588   1.288   4.741   2.478 -1.4563  0.5094  0.0825
  546MOL0     C73589   1.217   4.871   2.458 -0.1702 -0.6031 -0.9819
  546MOL0     C73590   1.317   4.986   2.478 -0.0076 -0.0669 -0.2403
  546MOL0     C73591   1.255   5.122   2.477  0.0608  0.0997  0.9865
  546MOL0     N73592   1.217   5.166   2.341  0.0218  0.2624 -0.5261
  546MOL0     C73593   1.267   5.278   2.280 -1.2573 -0.5066  1.4289
  546MOL0     C73594   1.183   5.288   2.164 -0.6549  0.1927 -0.3787
  546MOL0     C73595   1.206   5.386   2.053 -0.0574  1.0749 -0.2056
  546MOL0     C73596   1.126   5.343   1.926  0.2368  0.3894  0.0033
  546MOL0     C73597   1.218   5.252   1.842  0.8633  0.6421 -0.6234
  546MOL0     C73598   1.245   5.117   1.911 -0.2302  0.4049  0.7198
  546MOL0     O73599   1.323   5.041   1.813  0.2066 -0.4635 -0.3863
  546MOL0     C73600   1.379   4.923   1.857  0.1031  0.0479  0.0892
  546MOL0     C73601   1.436   4.853   1.757 -0.8794 -0.2421  0.2628
  546MOL0     C73602   1.506   4.732   1.779 -1.1664  0.1241  1.1555
  546MOL0     C73603   1.574   4.670   1.657  0.6447 -0.3304 -0.4942
  546MOL0     C73604   1.519   4.691   1.921  0.2810 -0.5221  0.1042
  546MOL0     C73605   1.624   4.593   1.964 -0.4343  0.2737 -0.1015
  546MOL0     O73606   1.740   4.603   1.892  0.6273 -0.2131  0.6943
  546MOL0     C73607   1.843   4.519   1.903 -0.3825  0.7180  0.0230
  546MOL0     C73608   1.904   4.520   2.026  0.4842 -0.7082 -0.0348
  546MOL0     C73609   2.012   4.435   2.056  0.0599 -0.5474 -0.5316
  546MOL0     C73610   2.063   4.351   1.961  0.8164  1.4148 -0.3181
  546MOL0     O73611   2.161   4.272   2.017  0.0786 -0.1393  0.1331
  546MOL0     C73612   2.234   4.181   1.946 -0.0726  0.6794  0.6114
  546MOL0     C73613   2.303   4.096   2.055  1.1480 -0.5701 -0.0678
  546MOL0     C73614   2.422   4.034   1.982  0.0908  1.3090  0.7165
  546MOL0     C73615   2.522   3.994   2.093 -1.3512  0.9941 -0.0939
  546MOL0     C73616   2.635   3.912   2.037 -0.5796  0.6344 -0.8260
  546MOL0     C73617   2.704   3.827   2.152  0.2308  0.0076 -0.3768
  546MOL0     C73618   2.854   3.783   2.116 -0.1233 -0.1854 -0.0274
  546MOL0     C73619   2.849   3.644   2.052  0.7291 -0.0201  0.6192
  546MOL0    Cl73620   2.979   3.612   1.934  0.0203  0.1322  0.4085
  546MOL0     C73621   2.001   4.341   1.833 -0.1579  0.8974  0.0207
  546MOL0     C73622   1.897   4.430   1.806  0.5762 -0.0845  0.5252
  546MOL0     O73623   1.606   4.517   2.058 -0.0274  0.7403 -0.7529
  546MOL0     C73624   1.440   4.749   2.017  0.2902  0.7905 -0.1423
  546MOL0     C73625   1.379   4.869   1.989 -0.1466 -0.6481 -0.4850
  546MOL0     N73626   1.075   5.206   2.180 -0.7471  0.2541  0.4107
  546MOL0     N73627   1.101   5.138   2.279  0.7420  0.3348  0.6061
  546MOL0     C73628   0.977   4.682   2.021  0.0245 -1.3822  0.6308
  546MOL0     C73629   0.984   4.794   1.934  0.3118  0.5300  0.2596
  546MOL0     C73630   1.015   4.988   1.505 -0.4223 -0.0630 -0.6439
  546MOL0     C73631   0.925   5.028   1.408  0.2581  0.0784 -0.8701
  546MOL0     C73632   0.942   5.138   1.340  0.7056  0.4963  0.5440
  546MOL0     C73633   1.054   5.210   1.348  0.6249  1.4657  0.0333
  546MOL0     O73634   1.081   5.321   1.270  0.5676  0.2362  0.1708
  546MOL0     C73635   1.019   5.317   1.141 -0.4277  0.7715 -0.0987
  546MOL0     C73636   1.105   5.409   1.059  0.2869 -1.3761 -0.3693
  546MOL0     C73637   1.254   5.371   1.060  0.1522 -0.0373  0.1264
  546MOL0     C73638   1.274   5.226   1.015 -0.0478  0.0434  0.1247
  546MOL0     C73639   1.403   5.211   0.954  0.2726  0.4620  0.2690
  546MOL0     C73640   1.506   5.180   0.903  0.0669 -0.9020  0.1381
  546MOL0     C73641   1.150   5.175   1.440  0.3744  0.0803 -0.0525
  546MOL0     C73642   1.127   5.067   1.526  1.3998 -0.9173 -0.3107
  546MOL0     H73643   1.151   4.639   1.686  0.3484 -1.8960  1.4117
  546MOL0     H73644   1.151   4.460   1.859 -1.5017 -0.6321 -0.2797
  546MOL0     H73645   0.885   4.517   2.213 -0.0585 -0.5785  0.6631
  546MOL0     H73646   0.949   4.355   2.215  2.9388 -2.0330  0.2595
  546MOL0     H73647   1.015   4.452   2.435  1.5695 -3.5438  0.1646
  546MOL0     H73648   1.137   4.396   2.322 -0.4159 -0.6610  2.0859
  546MOL0     H73649   1.219   4.597   2.272  0.6235 -4.1508  2.1108
  546MOL0     H73650   1.082   4.697   2.304 -1.1379 -1.6940 -0.9953
  546MOL0     H73651   1.105   4.637   2.533 -2.0734 -1.9474 -2.9721
  546MOL0     H73652   1.254   4.537   2.497  0.5563  0.1667 -0.4406
  546MOL0     H73653   1.340   4.730   2.574 -0.4217  0.4293 -0.4656
  546MOL0     H73654   1.374   4.721   2.414  0.3952  1.8069  2.0223
  546MOL0     H73655   1.171   4.882   2.359 -1.2826 -0.1082 -0.4269
  546MOL0     H73656   1.134   4.882   2.528 -0.9501 -0.7683 -1.8687
  546MOL0     H73657   1.354   4.972   2.580  0.0600  4.1064  0.4852
  546MOL0     H73658   1.399   4.978   2.406 -0.4626  0.0494 -0.7810
  546MOL0     H73659   1.329   5.197   2.507 -1.0123  0.0120  4.1469
  546MOL0     H73660   1.162   5.126   2.534 -1.8070  1.6793 -1.9003
  546MOL0     H73661   1.353   5.342   2.298  0.1839 -1.9495  0.1134
  546MOL0     H73662   1.169   5.483   2.088  1.9214  1.2671  1.5678
  546MOL0     H73663   1.314   5.397   2.038  0.1573 -0.8518 -0.3264
  546MOL0     H73664   1.120   5.441   1.879  0.9321  0.5141  0.1611
  546MOL0     H73665   1.027   5.304   1.950  0.4835  1.3391  2.8710
  546MOL0     H73666   1.316   5.299   1.831  1.3435  0.3639  1.8746
  546MOL0     H73667   1.177   5.243   1.741 -2.6351  2.1353  0.5102
  546MOL0     H73668   1.154   5.057   1.920  0.2283 -0.6438 -1.0122
  546MOL0     H73669   1.299   5.123   2.006 -1.1252 -0.2620  1.2825
  546MOL0     H73670   1.428   4.884   1.654  0.4484 -0.0480  0.1978
  546MOL0     H73671   1.540   4.566   1.662 -0.6760  0.0945 -0.2722
  546MOL0     H73672   1.531   4.718   1.570 -2.1347  0.7704  1.3566
  546MOL0     H73673   1.683   4.680   1.653  0.4310  1.8923 -3.6396
  546MOL0     H73674   1.880   4.590   2.105  2.3739  0.2609 -0.2577
  546MOL0     H73675   2.049   4.444   2.158  0.8047  0.5019 -0.8832
  546MOL0     H73676   2.167   4.120   1.883  1.1402 -1.4290  1.2553
  546MOL0     H73677   2.308   4.234   1.885 -3.7582  2.9486 -2.3706
  546MOL0     H73678   2.332   4.171   2.130 -1.5263  1.0438 -0.5286
  546MOL0     H73679   2.237   4.024   2.105  0.2998  1.3469  1.7467
  546MOL0     H73680   2.468   4.099   1.908 -0.2036 -1.2184 -1.8791
  546MOL0     H73681   2.379   3.944   1.936 -1.5416  3.6182 -2.6017
  546MOL0     H73682   2.564   4.082   2.143  3.4937  0.3965 -2.5362
  546MOL0     H73683   2.477   3.937   2.175  1.0292 -1.3032 -0.2609
  546MOL0     H73684   2.708   3.969   1.980  0.2721  2.3183  1.7869
  546MOL0     H73685   2.595   3.836   1.969  2.3746 -3.3711  1.4315
  546MOL0     H73686   2.701   3.877   2.249  1.2053 -3.8141  1.8398
  546MOL0     H73687   2.650   3.733   2.159  2.0752 -1.1690 -1.1227
  546MOL0     H73688   2.913   3.787   2.208  2.2960  0.6535 -1.5426
  546MOL0     H73689   2.896   3.841   2.034 -0.7461 -0.4536 -0.5469
  546MOL0     H73690   2.758   3.623   1.995  2.2700 -1.0566 -1.5872
  546MOL0     H73691   2.851   3.574   2.135 -2.3566  1.2714  1.9554
  546MOL0     H73692   2.038   4.263   1.768  1.2350  1.4121  0.1695
  546MOL0     H73693   1.844   4.418   1.712  1.6436 -2.1026  0.1236
  546MOL0     H73694   1.431   4.705   2.116 -0.6363  1.4371  0.0768
  546MOL0     H73695   1.326   4.920   2.069 -0.1813 -0.6576 -0.5014
  546MOL0     H73696   0.919   4.693   2.113 -0.2733 -4.4349  0.9077
  546MOL0     H73697   0.954   4.893   1.966  0.0061  1.5158 -2.8200
  546MOL0     H73698   0.834   4.975   1.382  0.8109 -0.2745 -2.1791
  546MOL0     H73699   0.862   5.160   1.271  2.2943 -0.4814 -1.7506
  546MOL0     H73700   1.009   5.221   1.088 -1.7798  0.4434  0.6861
  546MOL0     H73701   0.915   5.351   1.149 -0.3993  1.0112 -0.7261
  546MOL0     H73702   1.095   5.507   1.106  0.8747 -2.5107  2.3520
  546MOL0     H73703   1.069   5.409   0.956  3.1713 -0.2733 -1.4517
  546MOL0     H73704   1.298   5.388   1.158 -0.5210  1.8712  0.1287
  546MOL0     H73705   1.320   5.438   1.004  1.9837 -2.0493 -0.2803
  546MOL0     H73706   1.200   5.208   0.936  0.1812  0.4012 -0.1736
  546MOL0     H73707   1.252   5.158   1.098  2.0807 -0.1392  0.5876
  546MOL0     H73708   1.589   5.144   0.846  0.7851  0.2945  0.3976
  546MOL0     H73709   1.240   5.235   1.436  0.2295  0.2905 -0.1449
  546MOL0     H73710   1.202   5.036   1.598 -0.3595 -3.1192  0.7042
  547MOL0     O73711   5.580   5.056   8.239 -0.4433 -0.1989  0.3551
  547MOL0     C73712   5.579   5.178   8.275 -0.1892  0.7218  0.7658
  547MOL0     O73713   5.635   5.277   8.204 -0.2817  0.5741 -0.4744
  547MOL0     C73714   5.609   5.300   8.077  0.2726  0.4917  0.0661
  547MOL0     C73715   5.583   5.197   7.979 -0.3803  0.7057  0.4106
  547MOL0     C73716   5.588   5.227   7.837  0.8346  0.9318 -0.4801
  547MOL0     C73717   5.591   5.353   7.790  0.1434 -1.1488 -1.2200
  547MOL0     O73718   5.588   5.360   7.657  0.0309  0.0046 -0.1789
  547MOL0     C73719   5.488   5.452   7.604  0.1639 -0.7591 -0.0607
  547MOL0     C73720   5.347   5.403   7.568 -0.4983  0.2320  0.5736
  547MOL0     C73721   5.357   5.302   7.460 -1.1554 -0.5220 -0.1161
  547MOL0     C73722   5.226   5.230   7.447 -0.0233 -0.6587 -0.0862
  547MOL0     C73723   5.219   5.138   7.328  0.4893  0.7498  0.8583
  547MOL0     C73724   5.210   5.207   7.192 -0.1736  0.0052 -0.5993
  547MOL0     C73725   5.166   5.104   7.091 -0.8766 -1.1473  0.4412
  547MOL0     C73726   5.138   5.163   6.950  0.2849 -1.1805 -0.1508
  547MOL0     N73727   5.123   5.046   6.854  0.2837 -0.0865 -0.0206
  547MOL0     C73728   5.007   4.973   6.855  0.5296  0.5869  0.6533
  547MOL0     C73729   4.997   4.929   6.726  0.4894  0.2496  0.0779
  547MOL0     C73730   4.896   4.835   6.667 -0.9201 -0.3675 -0.3906
  547MOL0     C73731   4.881   4.706   6.749 -0.4947  0.4398  0.3958
  547MOL0     C73732   4.997   4.638   6.812 -0.8701  0.0437  0.4338
  547MOL0     C73733   5.111   4.611   6.706 -0.2151 -0.8162  0.6610
  547MOL0     O73734   5.175   4.485   6.742  0.1039 -0.0412 -0.4485
  547MOL0     C73735   5.244   4.421   6.644 -0.4265 -0.1415 -0.6644
  547MOL0     C73736   5.382   4.446   6.622  1.0262  0.1419 -0.0757
  547MOL0     C73737   5.453   4.385   6.511 -0.2414  1.0273 -0.2632
  547MOL0     C73738   5.596   4.427   6.487 -0.3875 -0.4715 -0.0959
  547MOL0     C73739   5.380   4.292   6.437  0.7116 -0.6336  0.7670
  547MOL0     C73740   5.407   4.222   6.308  0.2199  0.3194 -0.2073
  547MOL0     O73741   5.524   4.260   6.244  0.5904  0.2784  1.0734
  547MOL0     C73742   5.586   4.159   6.178  0.1597  0.7911 -0.0251
  547MOL0     C73743   5.712   4.096   6.219  0.6016  0.0572  0.5552
  547MOL0     C73744   5.771   4.001   6.133  0.0751  0.2312 -0.4469
  547MOL0     C73745   5.716   3.963   6.005 -0.1735 -0.2026 -0.5804
  547MOL0     O73746   5.781   3.873   5.919  0.3287 -0.1031 -0.1733
  547MOL0     C73747   5.710   3.748   5.896  0.1685  0.9368  0.3567
  547MOL0     C73748   5.787   3.671   5.788  0.1264 -0.0851  0.4386
  547MOL0     C73749   5.731   3.691   5.645 -0.6654  1.1828  0.3294
  547MOL0     C73750   5.733   3.563   5.551 -0.1469 -0.2504 -0.1610
  547MOL0     C73751   5.733   3.595   5.392  0.3619  1.0778 -0.3078
  547MOL0     C73752   5.598   3.634   5.329 -1.1118 -0.1838  0.3611
  547MOL0     C73753   5.470   3.562   5.369 -0.2344  0.7943  0.5833
  547MOL0     C73754   5.472   3.416   5.337  0.0284  0.2432  1.2382
  547MOL0    Cl73755   5.524   3.380   5.165 -0.2738 -0.4166  0.7709
  547MOL0     C73756   5.601   4.021   5.975  0.0222 -0.4013  1.1111
  547MOL0     C73757   5.536   4.115   6.055  0.2318 -0.8453 -0.0092
  547MOL0     O73758   5.335   4.134   6.270 -0.6937  0.8743  0.2237
  547MOL0     C73759   5.240   4.278   6.466  0.0966  0.0197  0.1795
  547MOL0     C73760   5.173   4.343   6.558 -0.0657 -0.2963 -0.5532
  547MOL0     N73761   5.121   4.945   6.663 -0.8996  0.3525  0.3837
  547MOL0     N73762   5.194   5.016   6.743 -1.1477  0.3256  0.3552
  547MOL0     C73763   5.618   5.455   7.887  0.5263 -0.8410  0.7614
  547MOL0     C73764   5.627   5.424   8.028  0.3781  0.0801  0.8508
  547MOL0     C73765   5.544   5.201   8.416 -0.4429  0.3047 -0.7901
  547MOL0     C73766   5.510   5.333   8.460 -0.1214 -0.7710 -0.8057
  547MOL0     C73767   5.490   5.365   8.589 -0.3830 -0.5260 -0.9445
  547MOL0     C73768   5.508   5.261   8.685 -0.5463 -0.4716  0.1779
  547MOL0     O73769   5.484   5.279   8.818  0.2007  0.3481  0.6399
  547MOL0     C73770   5.428   5.397   8.878 -0.4641  0.0052 -0.2600
  547MOL0     C73771   5.414   5.362   9.030  0.0827 -0.1368  0.3954
  547MOL0     C73772   5.389   5.493   9.107  0.5117  0.7805 -0.6779
  547MOL0     C73773   5.309   5.447   9.238 -0.8798 -0.1256  0.2576
  547MOL0     C73774   5.282   5.562   9.320  0.5058  0.0850 -0.1592
  547MOL0     C73775   5.255   5.665   9.388  0.1596 -0.5097 -0.2124
  547MOL0     C73776   5.529   5.127   8.648 -0.7623  0.0937 -0.0113
  547MOL0     C73777   5.545   5.094   8.517 -0.6412 -0.3555 -0.1156
  547MOL0     H73778   5.563   5.091   7.994 -1.0308  0.8900  0.8911
  547MOL0     H73779   5.580   5.151   7.761 -1.6295  1.5604 -0.9254
  547MOL0     H73780   5.489   5.549   7.655 -1.8920 -1.3721  1.2616
  547MOL0     H73781   5.532   5.478   7.507 -0.0595  0.6467  0.2015
  547MOL0     H73782   5.296   5.367   7.657 -0.4442  2.0480  1.3911
  547MOL0     H73783   5.296   5.490   7.524 -2.1992 -0.6062  0.7945
  547MOL0     H73784   5.384   5.354   7.368  1.2355 -3.6319 -1.3349
  547MOL0     H73785   5.426   5.220   7.480  0.9561  0.5599 -2.4851
  547MOL0     H73786   5.213   5.169   7.537  2.8901 -0.0429  0.8675
  547MOL0     H73787   5.153   5.311   7.442  3.7652  3.0785 -1.1421
  547MOL0     H73788   5.305   5.071   7.338  1.0342  1.3910  0.5370
  547MOL0     H73789   5.133   5.072   7.341  1.2579 -0.2746  0.8951
  547MOL0     H73790   5.132   5.284   7.197 -0.7155 -0.5695 -0.0932
  547MOL0     H73791   5.304   5.257   7.167 -0.4618  1.1236  0.4368
  547MOL0     H73792   5.231   5.016   7.083 -2.9427 -2.6059 -2.7699
  547MOL0     H73793   5.073   5.066   7.134 -0.7246  0.2833  2.1476
  547MOL0     H73794   5.216   5.229   6.912 -2.3961  2.7431  0.5983
  547MOL0     H73795   5.052   5.230   6.958  0.6615 -0.4755 -1.6674
  547MOL0     H73796   4.930   4.955   6.930 -0.2539 -0.7526 -0.4326
  547MOL0     H73797   4.794   4.876   6.671 -0.6676  0.2535  3.1552
  547MOL0     H73798   4.933   4.802   6.570 -1.4976 -3.9057  0.4495
  547MOL0     H73799   4.825   4.636   6.687 -1.6109  0.2861  1.5245
  547MOL0     H73800   4.812   4.736   6.829 -0.5450  0.7365  0.2433
  547MOL0     H73801   4.960   4.544   6.854  0.3342 -0.1301  1.1449
  547MOL0     H73802   5.043   4.700   6.890  0.9075 -1.8450  0.9656
  547MOL0     H73803   5.188   4.689   6.703 -2.4323  1.4879  0.0622
  547MOL0     H73804   5.074   4.615   6.604  2.7700  0.3312 -0.4962
  547MOL0     H73805   5.413   4.520   6.695 -0.6591 -0.9223  1.8129
  547MOL0     H73806   5.645   4.443   6.583 -0.0021 -4.0999  0.4399
  547MOL0     H73807   5.663   4.356   6.438  1.3054  1.7010 -1.0686
  547MOL0     H73808   5.604   4.520   6.430  0.7932 -1.4995 -1.7194
  547MOL0     H73809   5.750   4.130   6.315  1.4470 -0.5028  0.4337
  547MOL0     H73810   5.864   3.948   6.152  0.7860 -0.1285 -4.1663
  547MOL0     H73811   5.699   3.686   5.985  1.5443  0.1807  0.0162
  547MOL0     H73812   5.604   3.764   5.874  0.4259  0.7568 -1.1053
  547MOL0     H73813   5.896   3.683   5.786 -0.0531  2.2850  1.5397
  547MOL0     H73814   5.752   3.572   5.820 -2.4343  1.5744  3.3828
  547MOL0     H73815   5.800   3.754   5.588 -0.8096 -0.5469 -1.8881
  547MOL0     H73816   5.627   3.722   5.634 -0.6561  0.5145 -2.2856
  547MOL0     H73817   5.816   3.495   5.572 -0.1552  0.1672  1.4171
  547MOL0     H73818   5.641   3.511   5.581  1.5165 -3.1518  0.3468
  547MOL0     H73819   5.766   3.503   5.343  1.2542 -0.2897  2.6032
  547MOL0     H73820   5.799   3.679   5.370  0.0058  1.6831  0.8259
  547MOL0     H73821   5.579   3.739   5.351  1.9497  1.3905 -3.4124
  547MOL0     H73822   5.598   3.641   5.219 -1.3333  0.3388  0.3899
  547MOL0     H73823   5.391   3.616   5.317  0.9226  1.7883 -0.1880
  547MOL0     H73824   5.441   3.574   5.474  3.1266  1.4573  1.5607
  547MOL0     H73825   5.369   3.382   5.350  0.4142 -0.9464  1.3060
  547MOL0     H73826   5.540   3.358   5.401 -1.1323  0.9793  3.2429
  547MOL0     H73827   5.572   4.008   5.872 -1.9985 -0.9463  1.7010
  547MOL0     H73828   5.444   4.166   6.026  0.0727 -1.2296 -0.1940
  547MOL0     H73829   5.173   4.213   6.410  2.8955 -3.0145  0.0216
  547MOL0     H73830   5.068   4.351   6.585  0.5206  2.3147  1.3547
  547MOL0     H73831   5.627   5.558   7.856  0.8592 -0.9414  0.5177
  547MOL0     H73832   5.664   5.507   8.088  0.7535 -0.6160  1.6040
  547MOL0     H73833   5.505   5.413   8.386 -4.1464 -0.1996 -0.1399
  547MOL0     H73834   5.457   5.464   8.620 -1.0262 -1.0090 -0.0564
  547MOL0     H73835   5.502   5.474   8.858  0.8219 -1.1245 -0.0446
  547MOL0     H73836   5.327   5.428   8.850  0.2782  1.2010 -1.7562
  547MOL0     H73837   5.503   5.311   9.065  0.0551 -2.0397 -2.0321
  547MOL0     H73838   5.329   5.294   9.043  0.4515 -0.5869  0.4786
  547MOL0     H73839   5.326   5.565   9.054 -2.4492 -0.6456  0.6411
  547MOL0     H73840   5.486   5.537   9.131  1.8609 -1.9039 -0.8187
  547MOL0     H73841   5.371   5.375   9.293 -0.7209  1.0496  1.6583
  547MOL0     H73842   5.211   5.406   9.211 -1.0708  1.0545 -0.9414
  547MOL0     H73843   5.254   5.752   9.450 -1.5868 -0.8324  0.2465
  547MOL0     H73844   5.522   5.038   8.710  1.3150 -0.3929 -0.3779
  547MOL0     H73845   5.570   4.997   8.474  3.9509  0.8633 -0.7347
  548MOL0     O73846   8.565   4.286   3.964  0.1016  0.7127  0.5836
  548MOL0     C73847   8.601   4.205   4.051  0.2634 -0.9665 -0.3299
  548MOL0     O73848   8.525   4.170   4.154 -0.0826 -0.1151 -1.2724
  548MOL0     C73849   8.412   4.240   4.188 -0.7072  0.0851  0.0968
  548MOL0     C73850   8.302   4.256   4.103  0.0123  0.0228 -0.0277
  548MOL0     C73851   8.184   4.323   4.140  0.4991  0.9556  0.7408
  548MOL0     C73852   8.173   4.375   4.265  0.2096  0.7822 -0.3960
  548MOL0     O73853   8.056   4.438   4.291 -0.2536  0.3726 -1.0979
  548MOL0     C73854   8.022   4.489   4.426  0.6777  0.8728  1.0318
  548MOL0     C73855   7.940   4.621   4.398 -0.2753 -0.5287  1.0241
  548MOL0     C73856   7.928   4.704   4.521 -0.3855 -0.3651 -0.2430
  548MOL0     C73857   7.847   4.637   4.635  0.2762 -0.0320  0.4421
  548MOL0     C73858   7.820   4.737   4.756 -0.5964  0.5542  0.7523
  548MOL0     C73859   7.730   4.672   4.867  0.9134  0.1835 -0.1323
  548MOL0     C73860   7.805   4.605   4.985 -0.1969 -0.0217 -0.2666
  548MOL0     C73861   7.726   4.500   5.065 -0.0069  0.3797  0.7557
  548MOL0     N73862   7.793   4.412   5.161  0.8264  0.7992 -0.1981
  548MOL0     C73863   7.777   4.438   5.293 -1.1464  0.3975 -0.1412
  548MOL0     C73864   7.851   4.344   5.356  0.6625 -0.2843  0.2483
  548MOL0     C73865   7.858   4.336   5.505  0.7257 -0.4697 -0.1238
  548MOL0     C73866   7.987   4.270   5.556 -0.9246 -0.1512 -0.0806
  548MOL0     C73867   8.112   4.356   5.542 -0.0462  0.2891 -0.0347
  548MOL0     C73868   8.223   4.271   5.613 -0.1726 -0.8877  0.3423
  548MOL0     O73869   8.349   4.334   5.634 -0.6429  0.5918  0.1954
  548MOL0     C73870   8.408   4.416   5.548 -0.3580  0.3721  1.5934
  548MOL0     C73871   8.429   4.548   5.594 -2.0641 -0.1773 -0.4794
  548MOL0     C73872   8.503   4.644   5.514  0.6352  0.6953 -0.0851
  548MOL0     C73873   8.514   4.782   5.558 -0.9394  0.1709  0.5213
  548MOL0     C73874   8.569   4.600   5.400 -0.5571  1.0309 -0.6724
  548MOL0     C73875   8.634   4.686   5.296  0.1249 -0.3705 -0.0411
  548MOL0     O73876   8.707   4.608   5.208 -0.5120 -1.1398  0.4910
  548MOL0     C73877   8.766   4.649   5.090 -0.4924  1.2861  0.1807
  548MOL0     C73878   8.706   4.738   4.998 -1.5997 -1.6058  0.5687
  548MOL0     C73879   8.772   4.784   4.877 -0.1019 -0.0162 -0.8792
  548MOL0     C73880   8.901   4.724   4.851  0.7617 -0.8476  0.0191
  548MOL0     O73881   8.957   4.770   4.732  0.5139  0.2796  0.2510
  548MOL0     C73882   9.018   4.666   4.653 -0.6257  0.5033 -0.1431
  548MOL0     C73883   9.168   4.690   4.648  0.1737 -0.4232  0.0627
  548MOL0     C73884   9.247   4.577   4.574  1.2257 -0.8696 -0.2298
  548MOL0     C73885   9.394   4.617   4.561  0.6320 -0.1257 -0.0978
  548MOL0     C73886   9.483   4.486   4.565  0.0162 -0.1323  0.2132
  548MOL0     C73887   9.471   4.403   4.700  0.3254 -0.2018  0.4469
  548MOL0     C73888   9.569   4.295   4.681  0.2315 -0.3112 -0.5836
  548MOL0     C73889   9.575   4.203   4.798  0.5628 -0.5300  0.5352
  548MOL0    Cl73890   9.651   4.045   4.759  0.0528  0.4359  0.2715
  548MOL0     C73891   8.948   4.624   4.930 -1.3323  0.1339  0.4204
  548MOL0     C73892   8.889   4.592   5.049 -0.3808 -0.0850  0.3911
  548MOL0     O73893   8.620   4.807   5.292 -1.0822 -0.0675 -0.0093
  548MOL0     C73894   8.558   4.458   5.370 -0.3854 -0.8290  1.0404
  548MOL0     C73895   8.463   4.371   5.430  0.1445 -0.2845 -0.3199
  548MOL0     N73896   7.908   4.263   5.258 -0.2214  0.3573  0.1924
  548MOL0     N73897   7.871   4.302   5.144  0.0614 -0.2247 -0.3804
  548MOL0     C73898   8.281   4.363   4.354 -0.0076  0.1656  0.5406
  548MOL0     C73899   8.402   4.301   4.318  0.0840  0.8476 -0.4857
  548MOL0     C73900   8.731   4.142   4.035 -0.3423 -0.1960  0.8807
  548MOL0     C73901   8.820   4.189   3.933 -0.5633 -0.5869 -0.5847
  548MOL0     C73902   8.928   4.112   3.900 -0.0481 -0.5252  0.0074
  548MOL0     C73903   8.971   4.006   3.983 -0.2431 -0.1708 -0.1622
  548MOL0     O73904   9.078   3.918   3.952 -0.0244 -0.7950  0.0117
  548MOL0     C73905   9.109   3.911   3.809 -0.5449 -0.1261 -0.3870
  548MOL0     C73906   9.176   3.772   3.772  1.1113 -0.8749  0.4505
  548MOL0     C73907   9.177   3.752   3.619  0.2275  0.4893  0.5540
  548MOL0     C73908   9.284   3.832   3.536  0.2555 -0.0826 -0.5218
  548MOL0     C73909   9.330   3.749   3.426 -0.3713 -0.0047 -0.4592
  548MOL0     C73910   9.356   3.680   3.329  0.8386 -0.3171  0.5999
  548MOL0     C73911   8.899   3.977   4.091  0.0940 -0.4486  0.9268
  548MOL0     C73912   8.772   4.034   4.104 -0.1754  1.0158 -0.5346
  548MOL0     H73913   8.306   4.223   4.000 -0.7993 -0.3470  0.0495
  548MOL0     H73914   8.100   4.334   4.073 -0.1482 -0.4363  1.2744
  548MOL0     H73915   7.974   4.403   4.475 -1.6923  0.6268 -1.5009
  548MOL0     H73916   8.107   4.514   4.490  1.4786  1.0987 -0.1000
  548MOL0     H73917   7.995   4.680   4.324  2.1939 -2.5787  1.0906
  548MOL0     H73918   7.841   4.600   4.356  1.4978 -3.0091 -2.4428
  548MOL0     H73919   8.025   4.727   4.565 -0.8544 -1.1938  1.2725
  548MOL0     H73920   7.887   4.799   4.486 -0.7202 -0.9591 -1.5669
  548MOL0     H73921   7.754   4.599   4.592  0.4987 -0.2662  0.1636
  548MOL0     H73922   7.904   4.548   4.664 -1.0203 -1.2227 -0.5282
  548MOL0     H73923   7.917   4.774   4.790  0.0831  1.3815 -1.8452
  548MOL0     H73924   7.765   4.814   4.700 -2.0052 -1.7370 -1.2181
  548MOL0     H73925   7.654   4.745   4.900 -0.4349 -1.4028  0.4349
  548MOL0     H73926   7.670   4.597   4.816 -0.5597  1.0502  0.2472
  548MOL0     H73927   7.895   4.552   4.956  1.1658  0.4715  2.6726
  548MOL0     H73928   7.839   4.688   5.048 -0.8027 -0.0483  0.1006
  548MOL0     H73929   7.676   4.445   4.984  0.6418  2.1743 -0.9438
  548MOL0     H73930   7.646   4.549   5.121 -1.2962 -0.4807 -0.2619
  548MOL0     H73931   7.728   4.518   5.347 -1.9216 -1.1981  1.6423
  548MOL0     H73932   7.855   4.439   5.541 -0.8194 -0.3840 -0.4079
  548MOL0     H73933   7.772   4.281   5.545 -1.0838  0.4628 -2.4814
  548MOL0     H73934   8.019   4.176   5.509  2.9651 -0.1834  2.1937
  548MOL0     H73935   7.986   4.263   5.665  4.8186 -1.1614  0.2520
  548MOL0     H73936   8.095   4.438   5.612 -1.5892 -0.2846  0.2943
  548MOL0     H73937   8.138   4.399   5.444 -1.7490  1.1851 -0.1344
  548MOL0     H73938   8.245   4.178   5.559  2.9443  1.1743 -2.3790
  548MOL0     H73939   8.178   4.239   5.707 -2.1380  2.9624  0.9145
  548MOL0     H73940   8.401   4.577   5.695  1.2724 -0.9333  0.7595
  548MOL0     H73941   8.503   4.782   5.667  1.7164 -0.4863  0.8600
  548MOL0     H73942   8.615   4.821   5.539 -0.6750 -0.8949 -0.3507
  548MOL0     H73943   8.444   4.849   5.508 -1.7889 -0.0112  1.4322
  548MOL0     H73944   8.610   4.781   5.024 -0.3429  1.6684  0.2355
  548MOL0     H73945   8.740   4.858   4.804 -0.6212 -0.7239 -1.3848
  548MOL0     H73946   8.993   4.565   4.687  0.9801 -0.4096 -1.5214
  548MOL0     H73947   8.989   4.677   4.548  1.6460  2.9745 -0.6430
  548MOL0     H73948   9.185   4.786   4.598  1.7305 -0.0696  1.1821
  548MOL0     H73949   9.213   4.696   4.748 -1.9852 -1.8158  1.2028
  548MOL0     H73950   9.210   4.550   4.475 -1.3124 -5.2046  1.6278
  548MOL0     H73951   9.230   4.491   4.640 -2.5603  0.5695  0.9495
  548MOL0     H73952   9.403   4.677   4.470  0.3191 -0.9636 -0.6918
  548MOL0     H73953   9.411   4.686   4.645  3.6645 -1.2161  0.2950
  548MOL0     H73954   9.587   4.513   4.544 -0.0621  1.9710  2.0364
  548MOL0     H73955   9.457   4.425   4.478 -1.5502  2.0687 -0.9795
  548MOL0     H73956   9.486   4.457   4.794 -0.1125 -0.9492  0.9510
  548MOL0     H73957   9.377   4.348   4.705  0.3394 -0.2205  0.4839
  548MOL0     H73958   9.668   4.333   4.655  1.0088 -1.5554  0.4131
  548MOL0     H73959   9.537   4.228   4.601  1.4706 -2.3784  0.5635
  548MOL0     H73960   9.474   4.185   4.836  0.5577 -3.3358 -0.5601
  548MOL0     H73961   9.637   4.246   4.878  0.6206  2.6563 -1.0584
  548MOL0     H73962   9.028   4.564   4.887 -0.4301  1.9257 -0.5281
  548MOL0     H73963   8.936   4.518   5.113  0.9396 -0.5741 -1.0949
  548MOL0     H73964   8.603   4.421   5.278  3.3426  0.4485  2.2103
  548MOL0     H73965   8.454   4.267   5.402  2.9512 -0.0500 -2.6336
  548MOL0     H73966   8.275   4.395   4.458  1.5391  1.3842  0.2977
  548MOL0     H73967   8.473   4.280   4.397 -0.9921  0.7002  0.4699
  548MOL0     H73968   8.788   4.275   3.875  0.9084 -0.3391 -1.0455
  548MOL0     H73969   8.989   4.145   3.818 -2.2101 -0.2278 -1.5709
  548MOL0     H73970   9.025   3.921   3.738  1.3473  3.6784 -2.4297
  548MOL0     H73971   9.191   3.979   3.787 -1.2850  0.1848 -2.4316
  548MOL0     H73972   9.107   3.695   3.807  0.0274 -0.6091 -1.0285
  548MOL0     H73973   9.273   3.763   3.824  0.4976  0.8143  2.0241
  548MOL0     H73974   9.080   3.773   3.573  0.6098 -1.0246 -1.0439
  548MOL0     H73975   9.199   3.645   3.616 -2.1386 -0.1807  3.2525
  548MOL0     H73976   9.372   3.858   3.597  0.7537  1.8193 -1.9522
  548MOL0     H73977   9.248   3.930   3.503 -0.4203  1.0017  2.9831
  548MOL0     H73978   9.375   3.627   3.238 -0.5110  1.7243 -0.9579
  548MOL0     H73979   8.919   3.894   4.159 -1.7387  0.6046  2.8585
  548MOL0     H73980   8.708   3.994   4.181  0.6107  1.3199  0.2898
  549MOL0     O73981   5.654   5.639   4.250  0.2608 -0.8072  0.5312
  549MOL0     C73982   5.739   5.563   4.293  0.2233  0.1404 -0.9232
  549MOL0     O73983   5.791   5.458   4.232 -0.5055 -0.0979 -0.5204
  549MOL0     C73984   5.795   5.441   4.100  0.5232  0.2707  0.5204
  549MOL0     C73985   5.677   5.424   4.030 -0.3893  0.6573 -0.3551
  549MOL0     C73986   5.674   5.387   3.899 -0.7694 -0.4449  0.5777
  549MOL0     C73987   5.787   5.389   3.819 -0.5524  0.2225 -0.0876
  549MOL0     O73988   5.795   5.379   3.683 -0.7649  0.5680  0.7928
  549MOL0     C73989   5.676   5.360   3.606  0.0612  0.2432  0.2269
  549MOL0     C73990   5.716   5.418   3.465  0.6858  0.1863 -0.1113
  549MOL0     C73991   5.598   5.400   3.364 -0.3855  0.6336 -0.1839
  549MOL0     C73992   5.622   5.466   3.232 -0.9268  0.1496  1.1113
  549MOL0     C73993   5.490   5.448   3.139 -0.6742  0.4638  0.5637
  549MOL0     C73994   5.415   5.319   3.145  0.6243  0.4319  0.2060
  549MOL0     C73995   5.493   5.210   3.076 -0.0205 -0.3958 -0.4215
  549MOL0     C73996   5.418   5.076   3.067 -0.1423 -0.1395 -0.4788
  549MOL0     N73997   5.337   5.026   3.181  0.1798 -0.5015  0.8726
  549MOL0     C73998   5.209   5.057   3.200  0.7332 -0.3311 -0.0691
  549MOL0     C73999   5.187   5.028   3.336 -0.3535 -0.3740 -0.1992
  549MOL0     C74000   5.061   5.050   3.407  0.6076  0.2648 -0.0470
  549MOL0     C74001   5.084   5.090   3.543 -0.1210 -0.6539 -0.2504
  549MOL0     C74002   4.957   5.127   3.620 -0.7632  0.5463 -0.2981
  549MOL0     C74003   4.830   5.048   3.596  0.5535  0.5599 -0.3597
  549MOL0     O74004   4.711   5.105   3.656 -0.1262 -1.2550  1.1157
  549MOL0     C74005   4.699   5.085   3.794 -0.0641 -0.6761  0.8081
  549MOL0     C74006   4.615   4.984   3.846  0.8505  0.2332  0.0378
  549MOL0     C74007   4.603   4.956   3.983 -0.1796  0.4833 -1.2187
  549MOL0     C74008   4.495   4.861   4.018  0.7498  0.1353  0.5848
  549MOL0     C74009   4.664   5.046   4.078  0.3945  0.4117  1.1350
  549MOL0     C74010   4.670   5.021   4.224 -0.0204 -0.5016 -0.2774
  549MOL0     O74011   4.736   5.126   4.300  0.7391  0.4249  0.3381
  549MOL0     C74012   4.792   5.103   4.422  0.2438  0.1494 -0.1447
  549MOL0     C74013   4.785   5.206   4.522 -0.6453 -0.2221 -0.0400
  549MOL0     C74014   4.858   5.202   4.638  0.0131  0.7409 -0.6638
  549MOL0     C74015   4.936   5.088   4.662  0.4341 -0.1076 -0.1918
  549MOL0     O74016   5.001   5.079   4.777  0.1279 -0.5730 -0.6658
  549MOL0     C74017   4.944   5.146   4.891  0.3872 -0.5476 -1.2460
  549MOL0     C74018   5.051   5.128   4.995  0.5588 -0.4947  0.4155
  549MOL0     C74019   5.180   5.216   4.968  0.1604  0.1459  0.2655
  549MOL0     C74020   5.162   5.368   4.986 -0.7002  0.5836 -0.0509
  549MOL0     C74021   5.306   5.420   4.983  0.5872  0.3586  0.1543
  549MOL0     C74022   5.312   5.574   5.003  0.0413  0.0988 -0.7944
  549MOL0     C74023   5.251   5.632   5.134  0.2440  0.2411 -0.1673
  549MOL0     C74024   5.295   5.546   5.263 -0.0276  0.2096  0.5767
  549MOL0    Cl74025   5.230   5.626   5.412  0.0539 -0.3132 -0.3235
  549MOL0     C74026   4.948   4.990   4.565 -0.1146 -0.4699 -0.7057
  549MOL0     C74027   4.881   4.993   4.446  0.1301 -0.7743  0.2172
  549MOL0     O74028   4.642   4.914   4.276 -0.9489 -0.0305  0.4847
  549MOL0     C74029   4.734   5.155   4.016  0.3250 -0.2094 -0.2093
  549MOL0     C74030   4.759   5.171   3.883 -0.0599 -0.6225  0.0729
  549MOL0     N74031   5.304   4.974   3.385  0.4443 -0.7322 -0.6946
  549MOL0     N74032   5.392   4.961   3.290 -0.2682 -0.8773  0.1558
  549MOL0     C74033   5.910   5.413   3.889  0.3351 -0.3101 -0.1190
  549MOL0     C74034   5.915   5.436   4.023 -0.0007 -0.9404  0.5215
  549MOL0     C74035   5.760   5.567   4.438 -0.1827 -0.6529 -0.3243
  549MOL0     C74036   5.856   5.499   4.501 -0.6200  0.4094  0.5963
  549MOL0     C74037   5.885   5.519   4.636  1.1654  0.0946  0.8789
  549MOL0     C74038   5.801   5.592   4.723  0.1648  0.4322  0.4954
  549MOL0     O74039   5.835   5.619   4.851  0.5697  0.3124 -0.1433
  549MOL0     C74040   5.739   5.656   4.944  0.3384 -0.2999  0.6353
  549MOL0     C74041   5.753   5.581   5.066 -0.5522 -0.6909 -0.7827
  549MOL0     C74042   5.733   5.426   5.068  0.7334 -0.1657 -0.2782
  549MOL0     C74043   5.861   5.343   5.082 -0.1740  0.1991 -0.1479
  549MOL0     C74044   5.890   5.314   5.221 -0.4762 -0.8019  0.5034
  549MOL0     C74045   5.933   5.274   5.321 -0.2992 -0.6469 -0.9089
  549MOL0     C74046   5.697   5.655   4.658 -0.1349  0.4875  0.6241
  549MOL0     C74047   5.679   5.649   4.514  0.3953 -0.2262  0.1351
  549MOL0     H74048   5.584   5.409   4.085 -1.6722 -1.6740 -2.9084
  549MOL0     H74049   5.574   5.388   3.856 -0.5330 -3.4333 -0.3249
  549MOL0     H74050   5.645   5.256   3.599 -0.7299  0.4388  0.7250
  549MOL0     H74051   5.594   5.421   3.644 -0.7043 -1.1359  0.8040
  549MOL0     H74052   5.734   5.523   3.487  3.0031 -0.8008  3.6012
  549MOL0     H74053   5.797   5.354   3.428  0.3603 -0.0136 -0.4961
  549MOL0     H74054   5.591   5.292   3.344 -0.8779  1.0623 -2.6649
  549MOL0     H74055   5.502   5.437   3.402 -0.5196 -0.4187  0.5375
  549MOL0     H74056   5.643   5.572   3.251  0.0680  0.2797 -0.5285
  549MOL0     H74057   5.709   5.416   3.190 -0.3624  0.9074  1.3468
  549MOL0     H74058   5.414   5.525   3.153 -0.5325  1.1959 -2.2798
  549MOL0     H74059   5.521   5.464   3.036 -1.1679 -3.3258 -0.3435
  549MOL0     H74060   5.396   5.287   3.248 -3.5628  1.5877  0.0060
  549MOL0     H74061   5.318   5.331   3.095  2.0741 -0.1323 -2.9579
  549MOL0     H74062   5.522   5.242   2.975  5.1640  0.7445  1.1091
  549MOL0     H74063   5.591   5.202   3.123 -0.5614  1.1683  1.0662
  549MOL0     H74064   5.504   5.009   3.051 -0.2483 -0.5465  0.5445
  549MOL0     H74065   5.354   5.086   2.979  1.5689  0.4990 -1.7103
  549MOL0     H74066   5.143   5.105   3.129 -0.1199 -0.6996  0.4607
  549MOL0     H74067   5.006   5.132   3.361  1.6534  0.5184 -0.8712
  549MOL0     H74068   5.005   4.956   3.404  0.8090  0.0545  1.5784
  549MOL0     H74069   5.156   5.172   3.549 -2.5169  1.9121 -3.1448
  549MOL0     H74070   5.125   4.998   3.588 -3.0416 -1.3268  1.3372
  549MOL0     H74071   4.950   5.235   3.603 -1.0392  0.9602  2.1533
  549MOL0     H74072   4.986   5.112   3.724  0.3467  0.5553 -0.5873
  549MOL0     H74073   4.835   4.948   3.642 -1.4949  1.2270  1.5291
  549MOL0     H74074   4.818   5.045   3.488  0.3323 -2.6472 -0.3484
  549MOL0     H74075   4.560   4.912   3.786  0.3446  0.0591  0.6991
  549MOL0     H74076   4.409   4.884   3.955  3.1741  0.3945 -2.9377
  549MOL0     H74077   4.531   4.762   3.990  1.6209  0.7824 -0.6675
  549MOL0     H74078   4.455   4.861   4.120  0.8897 -0.9501  0.6504
  549MOL0     H74079   4.738   5.300   4.497 -2.2211 -0.4897  1.6126
  549MOL0     H74080   4.867   5.297   4.689  0.5159  0.2290  0.2275
  549MOL0     H74081   4.934   5.255   4.882 -1.2484 -0.3408  1.7584
  549MOL0     H74082   4.846   5.106   4.919  0.3010  1.9524  2.7399
  549MOL0     H74083   4.996   5.159   5.085 -2.6867  1.1223 -1.9356
  549MOL0     H74084   5.069   5.020   5.003 -2.1957 -1.0851 -0.3408
  549MOL0     H74085   5.200   5.204   4.862 -0.4956  4.4578 -0.5068
  549MOL0     H74086   5.256   5.182   5.040 -0.9203 -1.8939  0.5319
  549MOL0     H74087   5.104   5.412   4.905 -0.4343  0.4013 -0.3397
  549MOL0     H74088   5.114   5.385   5.083 -1.0227  0.4381 -0.1833
  549MOL0     H74089   5.338   5.388   4.884 -1.0329 -0.3967 -0.1603
  549MOL0     H74090   5.373   5.376   5.058  1.6371  0.6527 -0.5786
  549MOL0     H74091   5.417   5.603   4.997  0.1792 -0.6362 -2.0184
  549MOL0     H74092   5.272   5.627   4.916  1.0125  0.4836 -1.0206
  549MOL0     H74093   5.142   5.620   5.127 -0.0811  1.9523  1.3175
  549MOL0     H74094   5.274   5.737   5.156  0.3059  0.4025 -0.9688
  549MOL0     H74095   5.404   5.540   5.271  0.0851  1.3020  0.0721
  549MOL0     H74096   5.249   5.447   5.253  4.3930 -1.8320 -2.6770
  549MOL0     H74097   5.016   4.912   4.597  0.1511  0.0293 -0.0316
  549MOL0     H74098   4.897   4.918   4.369  0.4731 -0.7220  0.2352
  549MOL0     H74099   4.777   5.225   4.086  0.6210 -1.8008  1.2547
  549MOL0     H74100   4.825   5.250   3.849 -1.6716  1.8458  2.3131
  549MOL0     H74101   6.000   5.414   3.828 -0.1668 -0.3400 -0.8699
  549MOL0     H74102   6.015   5.455   4.061 -0.1501  2.8198 -0.5795
  549MOL0     H74103   5.916   5.438   4.434 -1.1983  0.1722  0.2890
  549MOL0     H74104   5.973   5.471   4.678  2.1003  0.9384 -0.0519
  549MOL0     H74105   5.757   5.762   4.960 -0.9532  0.2098 -0.9708
  549MOL0     H74106   5.636   5.645   4.910  0.0105  1.8527  0.7968
  549MOL0     H74107   5.685   5.635   5.134  0.9948 -0.8976  1.0283
  549MOL0     H74108   5.852   5.597   5.110 -2.9249  1.5321  4.7036
  549MOL0     H74109   5.677   5.398   4.979 -1.1717 -2.2668  1.4799
  549MOL0     H74110   5.673   5.403   5.157 -1.7115 -0.5494 -1.9604
  549MOL0     H74111   5.954   5.395   5.056  0.5610 -0.3124  1.3259
  549MOL0     H74112   5.869   5.253   5.020 -1.1444 -0.1084  0.1570
  549MOL0     H74113   5.967   5.243   5.418 -2.1324  0.2029  0.0754
  549MOL0     H74114   5.635   5.728   4.710 -2.7243 -2.6673  2.3361
  549MOL0     H74115   5.602   5.715   4.475  1.1949  0.0989 -0.9665
  550MOL0     O74116   4.553   1.681   7.102  0.1248  0.2700 -0.1332
  550MOL0     C74117   4.656   1.720   7.052 -1.0879 -0.3558  0.2608
  550MOL0     O74118   4.780   1.682   7.093 -0.2556  0.1307 -0.2623
  550MOL0     C74119   4.795   1.599   7.201  0.1772  1.0368 -1.4183
  550MOL0     C74120   4.798   1.460   7.181 -0.9591 -0.3750  0.7939
  550MOL0     C74121   4.830   1.364   7.281 -0.2930  0.5622 -0.5599
  550MOL0     C74122   4.831   1.408   7.416 -0.8341  0.4002  0.4969
  550MOL0     O74123   4.853   1.317   7.522  0.3261  0.8126 -0.4131
  550MOL0     C74124   4.859   1.359   7.655  0.2569  0.3824 -0.8723
  550MOL0     C74125   4.873   1.241   7.750  0.0815 -0.3151 -0.0991
  550MOL0     C74126   4.737   1.179   7.792  0.0321 -0.4575  0.5445
  550MOL0     C74127   4.769   1.052   7.874  0.2603 -0.0958  1.7832
  550MOL0     C74128   4.847   1.058   8.002 -0.2315  0.0288  0.0487
  550MOL0     C74129   4.853   0.910   8.051 -0.0155 -0.3155  0.3553
  550MOL0     C74130   4.970   0.853   8.131  0.4239 -0.1927  0.2794
  550MOL0     C74131   5.079   0.781   8.043 -0.7832 -0.1176  0.1313
  550MOL0     N74132   5.158   0.884   7.968 -0.2763  0.5668  0.2337
  550MOL0     C74133   5.120   0.935   7.842 -1.0037  0.0790  0.3081
  550MOL0     C74134   5.233   1.020   7.814  0.1643  0.5680  0.0736
  550MOL0     C74135   5.252   1.081   7.681  0.0680  0.1826 -0.1378
  550MOL0     C74136   5.362   1.192   7.675  0.9064 -0.4063  0.6157
  550MOL0     C74137   5.327   1.288   7.557 -0.6373 -0.2060  0.1078
  550MOL0     C74138   5.418   1.411   7.558 -1.6826  0.5754  0.0637
  550MOL0     O74139   5.330   1.525   7.575  0.5315 -0.1760 -0.4281
  550MOL0     C74140   5.393   1.646   7.616  0.3458  0.5743  0.6886
  550MOL0     C74141   5.308   1.700   7.706 -0.0469  0.2778  0.3647
  550MOL0     C74142   5.337   1.811   7.783  0.5478 -1.2636  0.1343
  550MOL0     C74143   5.251   1.874   7.889 -0.3046  0.0309 -0.1303
  550MOL0     C74144   5.468   1.865   7.759  0.7777  0.1486 -0.6372
  550MOL0     C74145   5.519   1.971   7.844  0.9403 -1.6858  0.6516
  550MOL0     O74146   5.505   1.966   7.975  0.1015  0.3386  0.5020
  550MOL0     C74147   5.546   2.079   8.048 -0.7236  1.1701  1.1349
  550MOL0     C74148   5.479   2.200   8.034 -0.5073 -0.0265 -0.1397
  550MOL0     C74149   5.524   2.314   8.110  0.3634 -0.2362  0.6087
  550MOL0     C74150   5.638   2.299   8.195  0.3109  0.5218 -0.0123
  550MOL0     O74151   5.682   2.417   8.246 -0.5770  0.2014 -0.3993
  550MOL0     C74152   5.598   2.478   8.341 -0.6227 -0.0879 -0.0913
  550MOL0     C74153   5.693   2.588   8.404  0.8153 -0.9584  0.2845
  550MOL0     C74154   5.619   2.660   8.522  0.5876 -0.0500  0.1528
  550MOL0     C74155   5.696   2.784   8.568 -0.3227  0.6020  0.2292
  550MOL0     C74156   5.634   2.841   8.702 -0.4507 -0.1444  0.2480
  550MOL0     C74157   5.673   2.989   8.724 -0.7432  0.3094  0.3087
  550MOL0     C74158   5.825   3.018   8.728 -1.1117 -0.4471 -0.0920
  550MOL0     C74159   5.850   3.172   8.708  0.3486 -0.7740  0.3322
  550MOL0    Cl74160   5.778   3.223   8.557 -0.6045 -0.0631  0.4774
  550MOL0     C74161   5.700   2.173   8.212 -0.1205  0.4553  0.1671
  550MOL0     C74162   5.654   2.066   8.138  0.5297 -0.0141 -0.4577
  550MOL0     O74163   5.568   2.062   7.773  0.0596  0.0109 -0.9564
  550MOL0     C74164   5.543   1.817   7.651 -0.1694 -0.6668 -0.5821
  550MOL0     C74165   5.509   1.711   7.568 -0.1993  0.4414  0.0064
  550MOL0     N74166   5.314   1.022   7.923  0.7141 -0.1973  0.1421
  550MOL0     N74167   5.281   0.936   8.014  0.2648  0.5860  0.1202
  550MOL0     C74168   4.829   1.544   7.437  0.1347  0.0791 -0.7270
  550MOL0     C74169   4.811   1.643   7.335  0.1469 -0.4001  0.4849
  550MOL0     C74170   4.646   1.823   6.953 -0.4648  0.5365 -0.4852
  550MOL0     C74171   4.761   1.876   6.880  0.3412 -1.1915 -0.9904
  550MOL0     C74172   4.749   1.971   6.773  0.9195 -0.1342  0.2123
  550MOL0     C74173   4.616   2.020   6.747 -0.6570  0.6209  0.1067
  550MOL0     O74174   4.616   2.118   6.644  0.7346  0.0693  0.4816
  550MOL0     C74175   4.517   2.111   6.538  0.6719  1.0224 -0.8625
  550MOL0     C74176   4.481   1.973   6.487  0.1527  1.1988  0.1749
  550MOL0     C74177   4.601   1.889   6.444  0.1975  0.1091  1.4519
  550MOL0     C74178   4.572   1.739   6.394  0.2560  0.8927  1.1133
  550MOL0     C74179   4.461   1.727   6.298  0.7442  0.1366  0.7373
  550MOL0     C74180   4.367   1.715   6.226 -0.4060  0.4049  0.3445
  550MOL0     C74181   4.505   1.977   6.813  1.2443  1.1782 -0.3436
  550MOL0     C74182   4.517   1.886   6.920  0.0593  0.8804  0.1983
  550MOL0     H74183   4.778   1.432   7.077  2.4719 -0.0222 -0.0763
  550MOL0     H74184   4.828   1.256   7.272 -1.0417  0.3161  1.7907
  550MOL0     H74185   4.939   1.431   7.673 -1.1499  1.9908 -0.7478
  550MOL0     H74186   4.762   1.402   7.683 -1.6515 -1.8607 -3.4790
  550MOL0     H74187   4.940   1.163   7.713  1.5125  0.7275  0.2219
  550MOL0     H74188   4.911   1.285   7.842  1.2336  1.2648 -1.2613
  550MOL0     H74189   4.681   1.248   7.856 -0.1611  0.6375 -0.7499
  550MOL0     H74190   4.681   1.166   7.699 -2.3357 -2.2000  2.0905
  550MOL0     H74191   4.676   1.002   7.900 -2.2370  2.3347 -1.5921
  550MOL0     H74192   4.820   0.987   7.803 -2.6375  0.2648 -0.8769
  550MOL0     H74193   4.950   1.093   7.997  0.5306 -1.8279  1.5610
  550MOL0     H74194   4.806   1.120   8.083  1.1179 -0.0096  0.7872
  550MOL0     H74195   4.760   0.883   8.102 -2.2356  1.7448 -2.2808
  550MOL0     H74196   4.866   0.854   7.958 -0.7885  0.5138 -0.2739
  550MOL0     H74197   5.011   0.932   8.194 -2.5701  1.0274  0.8862
  550MOL0     H74198   4.946   0.767   8.194 -0.0175 -1.8153 -1.9516
  550MOL0     H74199   5.052   0.700   7.975 -1.6777  0.4995 -0.2772
  550MOL0     H74200   5.141   0.740   8.123  1.7554  0.4636 -1.4350
  550MOL0     H74201   5.041   0.904   7.774  1.3378 -1.6234 -1.8215
  550MOL0     H74202   5.281   1.005   7.608 -0.7544  2.1873 -2.7061
  550MOL0     H74203   5.151   1.116   7.656 -0.1796  0.2054  0.8655
  550MOL0     H74204   5.458   1.149   7.647  0.9872  0.1915 -0.0533
  550MOL0     H74205   5.365   1.255   7.764 -0.4261 -1.6491  1.6034
  550MOL0     H74206   5.223   1.320   7.550 -0.1058  1.6573  0.3331
  550MOL0     H74207   5.346   1.230   7.466 -1.0974 -2.0267  1.1281
  550MOL0     H74208   5.479   1.419   7.468  0.8671 -0.9133  1.5467
  550MOL0     H74209   5.495   1.407   7.636 -1.7614  0.1568  0.1260
  550MOL0     H74210   5.212   1.651   7.715 -1.2615  1.8701 -2.6250
  550MOL0     H74211   5.153   1.830   7.868 -0.4441  0.6772 -0.8720
  550MOL0     H74212   5.288   1.860   7.991  2.8853  1.8621 -0.9056
  550MOL0     H74213   5.240   1.979   7.863  3.2208 -0.2014 -3.3994
  550MOL0     H74214   5.407   2.214   7.953  1.1382  2.1204 -1.3531
  550MOL0     H74215   5.481   2.412   8.096  0.2487 -0.6629 -3.0743
  550MOL0     H74216   5.510   2.529   8.301 -0.0650  0.2900 -0.8679
  550MOL0     H74217   5.566   2.403   8.413 -0.7705 -1.1429 -1.2182
  550MOL0     H74218   5.779   2.535   8.446  0.0571 -1.2764  1.4705
  550MOL0     H74219   5.718   2.661   8.326 -6.9506  1.8148 -0.5251
  550MOL0     H74220   5.629   2.590   8.606  0.4969 -0.8168 -0.4619
  550MOL0     H74221   5.515   2.681   8.498 -0.3590 -2.8821  1.2806
  550MOL0     H74222   5.799   2.751   8.589 -1.6494 -4.8570 -0.2739
  550MOL0     H74223   5.719   2.856   8.489  1.1396  0.1018  0.1691
  550MOL0     H74224   5.658   2.777   8.788  3.2800 -1.0182 -1.2381
  550MOL0     H74225   5.528   2.852   8.678  0.0746  0.2236 -2.2470
  550MOL0     H74226   5.614   3.046   8.651 -0.9767 -1.8881 -1.3022
  550MOL0     H74227   5.628   3.008   8.822 -1.2885 -0.8447  0.2954
  550MOL0     H74228   5.868   2.963   8.644 -1.5277 -0.7195 -0.1326
  550MOL0     H74229   5.876   2.980   8.816  0.2008  1.1291 -0.1172
  550MOL0     H74230   5.956   3.199   8.705  0.0443  0.3988 -2.3030
  550MOL0     H74231   5.800   3.238   8.779 -0.5839 -1.1344  0.0210
  550MOL0     H74232   5.783   2.152   8.278  1.5447  4.4216 -0.3409
  550MOL0     H74233   5.716   1.978   8.148  1.8832  1.1638  3.9910
  550MOL0     H74234   5.650   1.834   7.642  0.3803 -2.2151  1.8840
  550MOL0     H74235   5.563   1.681   7.479 -1.7241  1.3685 -1.3015
  550MOL0     H74236   4.844   1.575   7.541 -3.0351 -2.8589  0.8033
  550MOL0     H74237   4.801   1.750   7.349  0.7311 -0.1349 -0.9670
  550MOL0     H74238   4.858   1.834   6.905  0.5109 -1.5365 -2.1357
  550MOL0     H74239   4.838   2.002   6.719  1.3151  1.0482  1.5085
  550MOL0     H74240   4.420   2.143   6.577 -1.2213 -0.2349 -4.1278
  550MOL0     H74241   4.536   2.182   6.457  0.0921  1.4794 -0.6074
  550MOL0     H74242   4.417   1.987   6.399  0.6195 -0.7582 -0.5431
  550MOL0     H74243   4.421   1.919   6.561  0.2839 -1.0164 -1.2195
  550MOL0     H74244   4.668   1.895   6.531 -1.4362  1.2608  2.6899
  550MOL0     H74245   4.652   1.947   6.365 -3.9652  1.2657 -0.6536
  550MOL0     H74246   4.545   1.670   6.474 -1.7009  1.4161  0.9612
  550MOL0     H74247   4.662   1.701   6.344 -0.2761  1.1500 -0.0705
  550MOL0     H74248   4.294   1.686   6.152 -0.5282 -1.8625  1.3023
  550MOL0     H74249   4.404   2.010   6.795  0.5715 -1.1733 -1.2124
  550MOL0     H74250   4.432   1.850   6.978 -0.6882 -0.1279 -1.4476
  551MOL0     O74251   1.961   4.265   9.546 -0.0132  0.0680  0.6748
  551MOL0     C74252   1.904   4.158   9.569  0.5564  0.5440  0.4841
  551MOL0     O74253   1.849   4.108   9.689 -0.6056  0.0603  1.1773
  551MOL0     C74254   1.897   4.169   9.804 -0.7089  0.7814 -0.8924
  551MOL0     C74255   2.021   4.109   9.846 -0.4019 -0.3493 -0.2382
  551MOL0     C74256   2.079   4.156   9.966  0.4213  0.4261  0.2759
  551MOL0     C74257   2.024   4.258  10.048 -1.2213  0.1900  0.1004
  551MOL0     O74258   2.096   4.289  10.167 -0.2271  0.8179 -0.0902
  551MOL0     C74259   2.084   4.420  10.219 -0.1508 -0.6347  0.1179
  551MOL0     C74260   2.027   4.400  10.355 -0.1415  0.7854  0.7824
  551MOL0     C74261   2.137   4.364  10.461  0.8774 -0.2869  0.2392
  551MOL0     C74262   2.210   4.489  10.517 -0.6713  0.0734  0.2295
  551MOL0     C74263   2.269   4.473  10.662  0.8226 -0.4156  0.1891
  551MOL0     C74264   2.310   4.610  10.722 -0.0675  0.7528  1.5419
  551MOL0     C74265   2.395   4.596  10.843  0.9899  0.4896 -0.6292
  551MOL0     C74266   2.321   4.544  10.968  0.3244  0.9014 -0.6231
  551MOL0     N74267   2.410   4.523  11.075  0.3483 -1.2764  0.0671
  551MOL0     C74268   2.487   4.625  11.127  0.0964 -0.1150  0.4516
  551MOL0     C74269   2.595   4.562  11.180 -0.1635 -0.0372  0.2008
  551MOL0     C74270   2.708   4.628  11.243 -0.0794  0.2069  0.1459
  551MOL0     C74271   2.837   4.538  11.258 -1.0452 -0.6160  0.3676
  551MOL0     C74272   2.945   4.606  11.342  0.2268  0.4954 -0.3291
  551MOL0     C74273   3.077   4.533  11.321  0.8849  0.0680  0.3013
  551MOL0     O74274   3.183   4.602  11.385 -0.1028  0.3288  0.2273
  551MOL0     C74275   3.235   4.554  11.508 -0.9959 -0.4213 -0.0894
  551MOL0     C74276   3.365   4.599  11.529  0.0945 -0.8253 -0.3242
  551MOL0     C74277   3.441   4.568  11.643  0.2432 -2.0771  0.4737
  551MOL0     C74278   3.584   4.620  11.648 -0.3389  0.1928  0.9743
  551MOL0     C74279   3.384   4.494  11.746 -0.1017 -1.0863  0.0430
  551MOL0     C74280   3.448   4.445  11.877 -0.5013 -0.4961 -0.2344
  551MOL0     O74281   3.386   4.345  11.948 -0.0944 -0.9773  0.4565
  551MOL0     C74282   3.456   4.300  12.056  0.2962 -0.9405 -0.3539
  551MOL0     C74283   3.577   4.228  12.047  0.5556  0.2754  0.5855
  551MOL0     C74284   3.642   4.185  12.161 -0.4029  0.6352  0.5136
  551MOL0     C74285   3.586   4.209  12.284 -0.0721  0.4401 -0.2553
  551MOL0     O74286   3.637   4.161  12.404 -0.0909 -0.0453  0.6832
  551MOL0     C74287   3.759   4.093  12.406 -0.4124  0.7387  0.6128
  551MOL0     C74288   3.782   4.024  12.544  0.5746  0.2796  0.1788
  551MOL0     C74289   3.661   3.935  12.583 -0.4430  0.1265 -0.7099
  551MOL0     C74290   3.704   3.855  12.714 -0.0770 -0.7046 -0.9376
  551MOL0     C74291   3.775   3.726  12.690 -1.0073  0.5532  0.3799
  551MOL0     C74292   3.826   3.658  12.812  0.4396  0.0240  0.9903
  551MOL0     C74293   3.948   3.562  12.787  0.3109  0.0104  0.2501
  551MOL0     C74294   3.915   3.451  12.691  0.0707  0.1406 -0.0441
  551MOL0    Cl74295   3.928   3.507  12.516  0.6131  0.0129 -0.2878
  551MOL0     C74296   3.474   4.291  12.297 -0.3861  0.2161 -0.9493
  551MOL0     C74297   3.407   4.336  12.187  0.0684  0.1717  0.2784
  551MOL0     O74298   3.547   4.509  11.914  0.2927  0.1653  0.0802
  551MOL0     C74299   3.253   4.465  11.732  0.8681  1.1569 -0.0058
  551MOL0     C74300   3.172   4.489  11.617 -0.2514  0.5416  1.1456
  551MOL0     N74301   2.593   4.420  11.166 -0.3646  0.1954 -0.2134
  551MOL0     N74302   2.472   4.411  11.100  0.0588  0.7028  0.6882
  551MOL0     C74303   1.894   4.309  10.000  0.1114 -0.3156 -0.6951
  551MOL0     C74304   1.845   4.278   9.878  1.3687  1.1852 -0.2254
  551MOL0     C74305   1.897   4.075   9.449 -0.4318  1.3337  0.2830
  551MOL0     C74306   1.821   3.963   9.442  0.3992  0.7821 -1.4626
  551MOL0     C74307   1.804   3.878   9.331 -0.5282 -0.6609 -0.6285
  551MOL0     C74308   1.868   3.915   9.210 -0.6457 -0.4413  0.1232
  551MOL0     O74309   1.864   3.842   9.092 -0.0317 -0.5563  0.0963
  551MOL0     C74310   1.737   3.764   9.059 -0.4490  0.1422  0.2602
  551MOL0     C74311   1.653   3.832   8.963  0.0670  0.1247 -0.9342
  551MOL0     C74312   1.540   3.744   8.926 -0.0122  0.3514 -1.0723
  551MOL0     C74313   1.448   3.821   8.820 -0.4273 -0.3988 -1.1501
  551MOL0     C74314   1.310   3.799   8.859 -0.2467  0.7371 -0.1237
  551MOL0     C74315   1.194   3.767   8.886  0.7909 -0.1163 -0.5092
  551MOL0     C74316   1.948   4.029   9.210  0.1171  0.2529 -0.7253
  551MOL0     C74317   1.967   4.105   9.330  0.4549  0.1856 -0.7563
  551MOL0     H74318   2.063   4.033   9.781  3.5452  0.5094  1.0481
  551MOL0     H74319   2.167   4.103  10.002  1.7731  2.1176 -0.3615
  551MOL0     H74320   2.176   4.475  10.242 -1.7839  0.6625  4.5954
  551MOL0     H74321   2.019   4.478  10.153  0.3880 -0.9073 -0.6716
  551MOL0     H74322   1.965   4.485  10.386 -1.9750  0.4273 -1.6238
  551MOL0     H74323   1.954   4.319  10.346 -0.0919  0.6363  1.6385
  551MOL0     H74324   2.087   4.304  10.537  0.5484 -1.1288 -0.6178
  551MOL0     H74325   2.213   4.302  10.411  0.8692 -2.1600  2.4191
  551MOL0     H74326   2.283   4.520  10.442  0.3591 -0.5644  0.9352
  551MOL0     H74327   2.133   4.565  10.533  1.5364  2.9941 -1.8359
  551MOL0     H74328   2.195   4.435  10.733  2.6554 -0.2920  2.2996
  551MOL0     H74329   2.355   4.405  10.669  0.8784 -0.3301  0.3337
  551MOL0     H74330   2.372   4.664  10.651 -2.0574 -0.9170 -1.7434
  551MOL0     H74331   2.224   4.673  10.745 -1.3849 -0.8789  1.3262
  551MOL0     H74332   2.484   4.537  10.817  3.1727  3.6491 -0.7968
  551MOL0     H74333   2.431   4.695  10.871  3.2421 -0.6258  0.6516
  551MOL0     H74334   2.265   4.450  10.957 -0.7301  1.1499  2.0100
  551MOL0     H74335   2.249   4.620  10.997  2.8791  2.4544  2.1557
  551MOL0     H74336   2.473   4.732  11.128 -0.2566 -0.0724 -2.4039
  551MOL0     H74337   2.739   4.712  11.179  2.3276 -0.9660 -0.3540
  551MOL0     H74338   2.681   4.659  11.344 -2.0497  1.5979 -0.7494
  551MOL0     H74339   2.876   4.525  11.157 -1.6732  0.2084  0.0069
  551MOL0     H74340   2.815   4.440  11.301 -0.4059 -1.0531 -0.2880
  551MOL0     H74341   2.917   4.604  11.448 -0.0443  0.4587 -0.4020
  551MOL0     H74342   2.956   4.710  11.311  1.5584 -0.1399 -2.1574
  551MOL0     H74343   3.098   4.524  11.214 -0.7348 -0.8550  0.0224
  551MOL0     H74344   3.081   4.429  11.357  0.3245 -0.5502 -1.3427
  551MOL0     H74345   3.412   4.657  11.450 -2.9139 -1.2831 -2.6086
  551MOL0     H74346   3.593   4.694  11.569  1.3831 -0.4686  0.5085
  551MOL0     H74347   3.599   4.677  11.740  0.3355  0.2771  0.8142
  551MOL0     H74348   3.667   4.549  11.637  2.2764  3.2828 -0.9950
  551MOL0     H74349   3.623   4.206  11.952 -0.1273  2.9511 -0.4427
  551MOL0     H74350   3.732   4.128  12.140 -1.9878 -2.7382  2.1299
  551MOL0     H74351   3.744   4.009  12.337  0.4281 -3.0833  4.6191
  551MOL0     H74352   3.840   4.160  12.374 -1.9593  2.1159 -0.5932
  551MOL0     H74353   3.879   3.976  12.555  0.3525 -0.6976 -1.7380
  551MOL0     H74354   3.803   4.105  12.614  2.3358  2.0958 -2.2626
  551MOL0     H74355   3.644   3.856  12.509  0.9769 -1.7485  0.8335
  551MOL0     H74356   3.564   3.981  12.601 -0.2086  1.3795 -2.4389
  551MOL0     H74357   3.758   3.927  12.777 -0.6751 -1.3347  0.3314
  551MOL0     H74358   3.616   3.833  12.775  0.2246  2.7559  1.0256
  551MOL0     H74359   3.857   3.768  12.631 -2.6281 -1.1142 -3.3121
  551MOL0     H74360   3.716   3.658  12.628  1.5335  0.4962 -2.1648
  551MOL0     H74361   3.867   3.734  12.879 -0.0748 -0.1233  1.4897
  551MOL0     H74362   3.752   3.601  12.870  0.4953 -0.3511  0.7001
  551MOL0     H74363   3.966   3.512  12.883  1.1887  0.1018  0.1420
  551MOL0     H74364   4.032   3.621  12.750 -0.9926  1.9656  0.2705
  551MOL0     H74365   3.829   3.388  12.717  0.7892 -0.4540  0.9430
  551MOL0     H74366   4.003   3.387  12.708  1.0703  1.2006 -1.0238
  551MOL0     H74367   3.420   4.313  12.389 -0.0712 -1.1091 -0.4213
  551MOL0     H74368   3.315   4.391  12.197  0.0934  0.5394 -1.3327
  551MOL0     H74369   3.198   4.397  11.796  1.7815 -3.1313 -3.3191
  551MOL0     H74370   3.073   4.445  11.610  0.3721 -0.7056 -0.4300
  551MOL0     H74371   1.845   4.369  10.075  0.5406  1.7409 -1.9740
  551MOL0     H74372   1.745   4.309   9.850  1.4307  0.9303 -0.7536
  551MOL0     H74373   1.764   3.926   9.527 -0.6767 -2.5350 -3.4313
  551MOL0     H74374   1.752   3.784   9.346 -1.2145 -0.3262 -0.8854
  551MOL0     H74375   1.775   3.671   9.016  1.5250  1.9000 -2.0867
  551MOL0     H74376   1.686   3.746   9.154  2.7926 -2.3888  1.7194
  551MOL0     H74377   1.706   3.855   8.870 -2.8135 -0.7410 -2.9494
  551MOL0     H74378   1.615   3.918   9.019 -0.6285 -1.1007  0.5443
  551MOL0     H74379   1.481   3.714   9.013  2.2949 -1.1309  0.0801
  551MOL0     H74380   1.573   3.650   8.883 -0.5923 -0.6027  0.4822
  551MOL0     H74381   1.467   3.775   8.722 -2.0247 -3.0300 -0.3322
  551MOL0     H74382   1.467   3.928   8.813 -1.4039  0.0694  1.8831
  551MOL0     H74383   1.100   3.718   8.902  0.5786  0.0609 -1.1936
  551MOL0     H74384   2.000   4.041   9.116  0.9286  1.6279 -0.1285
  551MOL0     H74385   2.024   4.197   9.322 -0.6129  1.2701  2.5141
  552MOL0     O74386   2.426   3.984   7.233 -0.1110  0.2635  0.0761
  552MOL0     C74387   2.445   4.091   7.288 -0.6084  0.7394 -0.9549
  552MOL0     O74388   2.536   4.123   7.388 -0.1518  0.0393  0.1505
  552MOL0     C74389   2.646   4.039   7.416 -0.1045  0.3195 -0.3660
  552MOL0     C74390   2.681   3.913   7.367 -0.1664 -1.0499  0.8043
  552MOL0     C74391   2.788   3.836   7.425  1.0604 -0.2320  0.0943
  552MOL0     C74392   2.863   3.893   7.526  0.6165 -0.8121  0.0440
  552MOL0     O74393   2.955   3.807   7.582 -0.2693 -0.7102 -0.4939
  552MOL0     C74394   3.080   3.858   7.637 -0.0505  0.1912 -0.1380
  552MOL0     C74395   3.176   3.908   7.538 -0.0232 -0.8778 -0.2495
  552MOL0     C74396   3.316   3.865   7.572  0.4966 -1.0327 -0.3193
  552MOL0     C74397   3.404   3.852   7.440 -0.4274 -0.5758 -0.3613
  552MOL0     C74398   3.450   3.982   7.387  0.5855 -0.4502  0.3619
  552MOL0     C74399   3.501   4.081   7.491  0.1038  0.6801  0.3902
  552MOL0     C74400   3.538   4.205   7.416  0.4762 -0.7831  0.7432
  552MOL0     C74401   3.613   4.300   7.508  0.1949 -0.8114 -0.2891
  552MOL0     N74402   3.534   4.337   7.622  0.3046  0.7105 -0.1515
  552MOL0     C74403   3.542   4.283   7.754  0.8352 -0.7526 -0.2151
  552MOL0     C74404   3.427   4.312   7.821  0.4292  0.7322  1.2231
  552MOL0     C74405   3.415   4.284   7.965  0.7723  0.3769  0.0755
  552MOL0     C74406   3.352   4.149   7.997 -0.0335  1.1096  0.5851
  552MOL0     C74407   3.199   4.160   8.029  0.2628 -0.3063 -0.1766
  552MOL0     C74408   3.121   4.197   7.908 -0.4661 -0.3758 -0.3754
  552MOL0     O74409   2.983   4.216   7.951  0.2330 -0.1679 -0.3827
  552MOL0     C74410   2.890   4.277   7.860  0.2125  0.4732  0.2062
  552MOL0     C74411   2.753   4.275   7.896 -0.9080 -0.1324  0.0184
  552MOL0     C74412   2.655   4.350   7.834  0.8492  0.9225  0.3517
  552MOL0     C74413   2.515   4.356   7.906 -0.9048  0.6014 -0.2667
  552MOL0     C74414   2.686   4.415   7.710  1.3753 -0.5464  0.0823
  552MOL0     C74415   2.592   4.497   7.627  1.0383  0.2752 -0.7655
  552MOL0     O74416   2.649   4.599   7.559 -0.4363 -0.0566  0.0154
  552MOL0     C74417   2.570   4.693   7.500 -0.0954 -1.0974 -0.1614
  552MOL0     C74418   2.607   4.828   7.521 -0.4978 -0.0151 -0.8866
  552MOL0     C74419   2.554   4.927   7.444  0.0162  0.1084 -0.4369
  552MOL0     C74420   2.448   4.901   7.359 -0.5876 -0.8929 -0.3385
  552MOL0     O74421   2.402   5.013   7.294  0.0334  0.3543  1.0150
  552MOL0     C74422   2.297   4.998   7.191  1.4005 -0.5647 -0.1240
  552MOL0     C74423   2.155   5.035   7.234  0.4412 -0.2970  0.1936
  552MOL0     C74424   2.162   5.165   7.314  1.0399 -0.2363  0.5313
  552MOL0     C74425   2.010   5.218   7.347 -0.1407  1.1047 -0.1092
  552MOL0     C74426   1.956   5.145   7.482  0.3126 -0.0421 -0.1142
  552MOL0     C74427   1.808   5.179   7.505  0.0793  1.0111  0.5365
  552MOL0     C74428   1.714   5.126   7.387  0.1482  0.1725 -0.1273
  552MOL0     C74429   1.712   4.981   7.353  0.5143 -0.1305  0.5481
  552MOL0    Cl74430   1.670   4.882   7.488 -0.0902  0.2334 -0.0994
  552MOL0     C74431   2.411   4.773   7.336  0.3315  0.1072 -0.0928
  552MOL0     C74432   2.479   4.663   7.399 -0.6134  0.1438  0.4487
  552MOL0     O74433   2.469   4.466   7.632  0.4666  0.0863  0.6033
  552MOL0     C74434   2.828   4.427   7.684 -0.2216  0.6836  0.1139
  552MOL0     C74435   2.923   4.346   7.748  0.0399  0.0451 -0.8349
  552MOL0     N74436   3.357   4.395   7.726  0.0860 -0.3156  0.3283
  552MOL0     N74437   3.426   4.410   7.616 -1.0515 -0.7395 -0.5589
  552MOL0     C74438   2.836   4.025   7.569  0.3147  0.0192 -0.4938
  552MOL0     C74439   2.729   4.095   7.513 -0.5488  0.8171 -0.5478
  552MOL0     C74440   2.356   4.199   7.254 -0.0481  0.0396 -0.5801
  552MOL0     C74441   2.317   4.283   7.357  0.4482  0.1541  0.6139
  552MOL0     C74442   2.219   4.388   7.331 -0.1765  0.0561 -0.3584
  552MOL0     C74443   2.161   4.405   7.208 -0.0655  0.2392  0.0342
  552MOL0     O74444   2.054   4.482   7.176 -0.2178  0.8871  0.9010
  552MOL0     C74445   1.995   4.550   7.289  0.5743 -0.2321  0.3896
  552MOL0     C74446   1.881   4.636   7.228  0.0321  0.5645  0.0543
  552MOL0     C74447   1.771   4.556   7.151 -0.3328 -0.6547 -0.2805
  552MOL0     C74448   1.659   4.654   7.099  0.2950  0.1431 -0.6350
  552MOL0     C74449   1.707   4.779   7.027  0.6699  0.7429  0.5258
  552MOL0     C74450   1.775   4.871   6.977  0.1089  0.2465  0.7460
  552MOL0     C74451   2.209   4.323   7.106 -0.3434  0.3222  0.4835
  552MOL0     C74452   2.305   4.227   7.121  0.8228 -0.6181 -0.2697
  552MOL0     H74453   2.636   3.879   7.274  0.1384  1.1307 -0.2086
  552MOL0     H74454   2.831   3.746   7.384  1.2285  1.6823 -4.5770
  552MOL0     H74455   3.073   3.932   7.717  0.3856  1.4299 -1.2133
  552MOL0     H74456   3.118   3.769   7.687 -0.1099  0.5155  0.4941
  552MOL0     H74457   3.143   3.855   7.448  0.3226 -2.9405  0.7738
  552MOL0     H74458   3.186   4.015   7.517 -0.3905 -1.2856 -2.7531
  552MOL0     H74459   3.368   3.909   7.658  3.0849 -2.0194 -1.2715
  552MOL0     H74460   3.303   3.761   7.603 -2.7995 -0.6646 -0.1382
  552MOL0     H74461   3.487   3.784   7.458  0.1803 -0.0937 -1.2422
  552MOL0     H74462   3.348   3.796   7.364 -2.0785 -0.3523  0.6383
  552MOL0     H74463   3.523   3.965   7.307  0.8643 -0.2515  0.5696
  552MOL0     H74464   3.363   4.026   7.338  2.4453  3.9167  0.4747
  552MOL0     H74465   3.424   4.110   7.563 -0.4770 -1.7195  0.8147
  552MOL0     H74466   3.586   4.043   7.549  0.0715 -0.4194 -0.2515
  552MOL0     H74467   3.611   4.189   7.336  1.2662 -0.1486  1.3174
  552MOL0     H74468   3.447   4.235   7.363  2.6007 -0.1317 -2.8797
  552MOL0     H74469   3.632   4.380   7.435  0.5681 -0.6085  0.0280
  552MOL0     H74470   3.712   4.259   7.529 -0.2202 -3.6945 -3.2006
  552MOL0     H74471   3.619   4.227   7.807 -0.2585 -2.7667 -0.6421
  552MOL0     H74472   3.513   4.290   8.013  0.1373 -4.2747  2.5010
  552MOL0     H74473   3.354   4.367   8.003  2.6266  1.6891  0.2958
  552MOL0     H74474   3.400   4.114   8.089 -0.3080 -0.2756  0.2323
  552MOL0     H74475   3.374   4.063   7.933 -0.6500 -1.6340  3.7350
  552MOL0     H74476   3.176   4.234   8.106 -0.7310  0.1900 -0.9144
  552MOL0     H74477   3.156   4.067   8.068 -0.3601  0.0072 -0.0899
  552MOL0     H74478   3.136   4.118   7.833  1.4494 -0.2007 -0.2424
  552MOL0     H74479   3.155   4.293   7.870  1.2991 -0.3039  1.2284
  552MOL0     H74480   2.730   4.224   7.989 -0.5162 -2.7133 -1.2087
  552MOL0     H74481   2.447   4.422   7.852 -0.7230  1.3916  0.4470
  552MOL0     H74482   2.474   4.255   7.904  2.3274 -0.9728  2.3994
  552MOL0     H74483   2.520   4.378   8.013  0.7297 -0.9364  0.0375
  552MOL0     H74484   2.681   4.859   7.594  0.2748 -2.4198 -0.5350
  552MOL0     H74485   2.580   5.029   7.470  0.6103  0.4048 -2.0908
  552MOL0     H74486   2.330   5.065   7.110 -1.5659 -0.5287 -1.4201
  552MOL0     H74487   2.287   4.902   7.140 -3.3265  0.6202 -1.9245
  552MOL0     H74488   2.086   5.055   7.152  1.4212  3.1360  0.0574
  552MOL0     H74489   2.123   4.952   7.297 -0.1757 -0.5349 -0.4217
  552MOL0     H74490   2.208   5.240   7.248 -2.4259  1.3889 -0.2753
  552MOL0     H74491   2.215   5.147   7.408  1.4123 -2.0695  0.0128
  552MOL0     H74492   2.009   5.324   7.373 -3.0494  1.5886 -1.6955
  552MOL0     H74493   1.948   5.197   7.259  2.3634  1.6410 -2.1324
  552MOL0     H74494   2.018   5.168   7.569 -0.0416 -1.9954  0.6943
  552MOL0     H74495   1.977   5.038   7.480  3.0040  0.3555  1.8716
  552MOL0     H74496   1.776   5.135   7.600 -1.5563 -3.0761 -1.6713
  552MOL0     H74497   1.809   5.289   7.504  2.1666  1.0381  1.3667
  552MOL0     H74498   1.743   5.181   7.297 -0.4763 -1.1540 -1.1822
  552MOL0     H74499   1.611   5.158   7.401  1.1562  3.3862  0.8490
  552MOL0     H74500   1.805   4.951   7.305  1.7302  2.2805  1.2579
  552MOL0     H74501   1.632   4.968   7.280  0.7577  1.9796 -0.1559
  552MOL0     H74502   2.333   4.737   7.270 -1.6436 -0.2711  2.2821
  552MOL0     H74503   2.453   4.562   7.371  1.7655 -0.3911 -0.0793
  552MOL0     H74504   2.885   4.496   7.623  1.8812  0.3297  1.5723
  552MOL0     H74505   3.026   4.348   7.712  0.1500  1.4330 -0.4632
  552MOL0     H74506   2.888   4.067   7.654 -2.4583 -0.1048  1.3931
  552MOL0     H74507   2.714   4.194   7.555  4.5973  1.2953  0.8713
  552MOL0     H74508   2.351   4.270   7.459 -1.0214  2.1271  1.4225
  552MOL0     H74509   2.190   4.451   7.415 -2.0643  0.5236 -1.3187
  552MOL0     H74510   1.942   4.473   7.346 -1.6688  0.6621 -0.3514
  552MOL0     H74511   2.063   4.620   7.338  3.0204  1.6984 -5.0325
  552MOL0     H74512   1.928   4.699   7.151 -0.1122 -0.5573 -0.9821
  552MOL0     H74513   1.830   4.696   7.305 -1.6962  0.9573 -1.3181
  552MOL0     H74514   1.722   4.480   7.213  0.6270 -2.0879 -1.1935
  552MOL0     H74515   1.821   4.515   7.062  1.2574 -0.2336  0.3807
  552MOL0     H74516   1.596   4.693   7.180  0.2098  1.7817 -1.4576
  552MOL0     H74517   1.604   4.593   7.027  1.3348  0.5267 -1.7850
  552MOL0     H74518   1.829   4.953   6.932 -1.2622  1.8430  1.8744
  552MOL0     H74519   2.182   4.345   7.003  2.5863  1.5371 -0.1209
  552MOL0     H74520   2.339   4.173   7.034 -2.5595  2.1701 -3.7229
  553MOL0     O74521   8.148   0.885   2.974 -0.5201  0.0618  0.7006
  553MOL0     C74522   8.029   0.907   2.961  0.2339  0.2200 -0.1786
  553MOL0     O74523   7.935   0.811   2.954  1.3944 -0.0532  0.7195
  553MOL0     C74524   7.963   0.681   2.966  0.1154 -0.5210 -0.1378
  553MOL0     C74525   7.972   0.623   3.094  0.3942  0.5520  0.5776
  553MOL0     C74526   8.006   0.488   3.107  0.0350  0.4214  0.3249
  553MOL0     C74527   8.011   0.409   2.995 -0.5116  1.0617  0.5027
  553MOL0     O74528   8.035   0.263   3.001 -0.1553  0.3772 -0.4496
  553MOL0     C74529   8.131   0.214   2.905  0.1929  0.8542  0.1225
  553MOL0     C74530   8.169   0.061   2.931 -0.0102  0.0764 -0.0657
  553MOL0     C74531   8.239   0.032   3.064 -0.4843  0.2025 -0.1475
  553MOL0     C74532   8.275  -0.111   3.100 -0.2493 -0.7160  0.0709
  553MOL0     C74533   8.303  -0.135   3.250  0.3106  0.6330  0.0242
  553MOL0     C74534   8.390  -0.254   3.272  0.4312  0.4084  0.7322
  553MOL0     C74535   8.338  -0.393   3.223 -0.9209 -0.1422 -0.4694
  553MOL0     C74536   8.224  -0.428   3.323 -0.4743  0.3215 -0.6800
  553MOL0     N74537   8.162  -0.561   3.291 -0.0338  0.8107  0.1916
  553MOL0     C74538   8.123  -0.599   3.170 -0.9670  0.3896  0.5447
  553MOL0     C74539   8.059  -0.713   3.184 -0.4447  0.0145 -0.4850
  553MOL0     C74540   7.981  -0.786   3.067 -0.8509  0.5148  0.1760
  553MOL0     C74541   8.069  -0.818   2.953  0.6407  0.1132  1.3763
  553MOL0     C74542   8.139  -0.944   2.967 -1.0453  0.1381  0.4513
  553MOL0     C74543   8.228  -0.955   3.096  0.6307 -0.4241 -0.6990
  553MOL0     O74544   8.325  -1.060   3.077 -0.2793  0.5708  0.6675
  553MOL0     C74545   8.415  -1.095   3.180  0.2732 -0.4015  0.9470
  553MOL0     C74546   8.420  -1.040   3.307  0.2147  0.1373 -0.8296
  553MOL0     C74547   8.524  -1.061   3.395 -0.5299  0.4086 -0.2306
  553MOL0     C74548   8.519  -0.979   3.523 -0.3253 -0.7556 -0.5264
  553MOL0     C74549   8.635  -1.140   3.353 -0.4425  0.2440 -0.2265
  553MOL0     C74550   8.769  -1.147   3.418 -0.2871  1.0054 -0.9966
  553MOL0     O74551   8.786  -1.081   3.540 -0.7642  0.6921  0.6123
  553MOL0     C74552   8.902  -1.079   3.611  0.1421  0.1030 -0.4723
  553MOL0     C74553   9.031  -1.107   3.571 -0.1045  0.1169 -0.1468
  553MOL0     C74554   9.140  -1.091   3.657 -0.0281  0.3930 -0.5057
  553MOL0     C74555   9.112  -1.025   3.781 -0.4284  0.1217 -0.5393
  553MOL0     O74556   9.211  -0.992   3.871 -1.4533  0.0655 -0.2872
  553MOL0     C74557   9.320  -1.075   3.885  0.2933 -0.1971  0.6121
  553MOL0     C74558   9.422  -1.000   3.957 -0.0105  0.7597  0.3269
  553MOL0     C74559   9.368  -0.944   4.092 -0.4661  0.8596 -0.2457
  553MOL0     C74560   9.443  -0.829   4.147  0.5840 -0.3878  0.2002
  553MOL0     C74561   9.408  -0.792   4.293  0.3013 -0.8305 -0.1680
  553MOL0     C74562   9.500  -0.685   4.361 -0.2527 -1.1321 -0.0658
  553MOL0     C74563   9.448  -0.614   4.489  0.4225  0.4732  0.3376
  553MOL0     C74564   9.445  -0.713   4.610 -0.5808 -0.4691 -0.4215
  553MOL0    Cl74565   9.616  -0.775   4.637 -0.2352 -0.2237  0.4344
  553MOL0     C74566   8.980  -1.000   3.818  0.0584  0.4456  1.0277
  553MOL0     C74567   8.875  -1.016   3.727  0.5966 -0.4554  0.0396
  553MOL0     O74568   8.859  -1.209   3.362  1.0359  0.4146 -0.2139
  553MOL0     C74569   8.607  -1.214   3.241 -0.8916  1.0306  0.0503
  553MOL0     C74570   8.512  -1.183   3.149 -0.8650  0.5747  0.8523
  553MOL0     N74571   8.050  -0.758   3.315 -0.0730 -0.6780  0.2267
  553MOL0     N74572   8.129  -0.676   3.372  0.2480 -0.2984 -0.1299
  553MOL0     C74573   8.015   0.472   2.867 -0.3147  0.8102  0.4415
  553MOL0     C74574   7.990   0.610   2.851  0.8306 -0.7178 -0.0923
  553MOL0     C74575   7.989   1.044   2.937 -0.0986 -0.5022 -0.8688
  553MOL0     C74576   8.086   1.153   2.920 -0.1019 -0.2759 -0.2656
  553MOL0     C74577   8.044   1.277   2.883 -0.4343  0.5494  1.7363
  553MOL0     C74578   7.906   1.302   2.854 -1.1877 -0.2289 -0.0898
  553MOL0     O74579   7.860   1.420   2.817  0.1206 -0.0084 -0.3636
  553MOL0     C74580   7.893   1.472   2.688  0.4852  0.5088 -0.6308
  553MOL0     C74581   7.809   1.406   2.582 -0.2657 -1.0708  0.0530
  553MOL0     C74582   7.839   1.496   2.451 -0.1775 -0.0461 -0.2644
  553MOL0     C74583   7.931   1.418   2.354  0.3210 -0.7148  0.1385
  553MOL0     C74584   7.972   1.502   2.242  0.5644  0.2891 -0.0290
  553MOL0     C74585   8.004   1.579   2.152 -1.2494 -0.1705  0.8737
  553MOL0     C74586   7.817   1.201   2.880  0.0585 -0.4345 -0.3961
  553MOL0     C74587   7.849   1.073   2.918  0.9036  0.7758  0.3849
  553MOL0     H74588   7.938   0.678   3.181 -0.8758  0.6620  0.0424
  553MOL0     H74589   8.017   0.434   3.201  1.9910 -2.5252 -1.4319
  553MOL0     H74590   8.092   0.209   2.803  0.5322  0.9246 -0.0112
  553MOL0     H74591   8.221   0.276   2.910  0.1659  0.8302  0.9375
  553MOL0     H74592   8.076   0.005   2.918  0.4756 -1.4396  2.3980
  553MOL0     H74593   8.237   0.026   2.853 -1.0902 -1.2883 -0.4278
  553MOL0     H74594   8.335   0.083   3.063  2.3098 -4.4702  0.0272
  553MOL0     H74595   8.174   0.074   3.141 -2.0694 -3.6000  0.8256
  553MOL0     H74596   8.209  -0.189   3.063  0.9300 -1.2446 -0.9805
  553MOL0     H74597   8.368  -0.139   3.049 -0.2725  0.8936 -0.9301
  553MOL0     H74598   8.348  -0.046   3.295  1.9299  0.9830 -2.1114
  553MOL0     H74599   8.209  -0.156   3.301 -1.5372  0.9532 -2.9672
  553MOL0     H74600   8.479  -0.240   3.210 -1.8777  0.8210 -2.7518
  553MOL0     H74601   8.428  -0.258   3.375 -0.5788 -1.9218  1.0655
  553MOL0     H74602   8.300  -0.383   3.121  0.6772  0.4199 -1.0552
  553MOL0     H74603   8.425  -0.459   3.234 -0.2437  0.5979 -1.2220
  553MOL0     H74604   8.141  -0.357   3.317  0.3406  1.5665  1.6464
  553MOL0     H74605   8.274  -0.439   3.419 -2.3539 -0.5433  0.2484
  553MOL0     H74606   8.137  -0.560   3.069 -2.3440 -1.1779 -0.3014
  553MOL0     H74607   7.928  -0.873   3.105  0.2757 -0.6781 -0.8842
  553MOL0     H74608   7.913  -0.706   3.036  0.0176  1.0225 -0.5036
  553MOL0     H74609   8.135  -0.735   2.924  1.2006 -0.8531 -0.2437
  553MOL0     H74610   8.002  -0.827   2.868 -1.8651  2.8860  2.8739
  553MOL0     H74611   8.207  -0.963   2.884  1.3244  1.1576  2.0535
  553MOL0     H74612   8.061  -1.022   2.967 -1.4496  0.5065  1.9499
  553MOL0     H74613   8.174  -0.977   3.189  2.9233 -0.4172  0.7239
  553MOL0     H74614   8.268  -0.854   3.108 -0.9223  0.2169 -0.7079
  553MOL0     H74615   8.347  -0.965   3.336 -0.3687 -1.8626  3.8568
  553MOL0     H74616   8.558  -1.022   3.615  1.8201  1.4843 -0.2967
  553MOL0     H74617   8.568  -0.882   3.506  0.4179 -1.1324 -0.5794
  553MOL0     H74618   8.414  -0.980   3.554 -0.4017 -0.7343 -0.7799
  553MOL0     H74619   9.060  -1.151   3.476  3.1917 -1.9573  1.6210
  553MOL0     H74620   9.241  -1.108   3.622  0.1850 -2.7996  1.3383
  553MOL0     H74621   9.284  -1.157   3.948  2.8240 -1.7335  0.2001
  553MOL0     H74622   9.362  -1.116   3.793 -0.8058  2.2547 -1.0772
  553MOL0     H74623   9.511  -1.061   3.976 -1.1379 -0.5457  1.6528
  553MOL0     H74624   9.444  -0.914   3.893  1.3924  0.9496  1.0113
  553MOL0     H74625   9.391  -1.023   4.163  0.6666  0.6205 -0.8578
  553MOL0     H74626   9.261  -0.923   4.103 -0.4526  0.4740  0.7333
  553MOL0     H74627   9.550  -0.850   4.137  0.8579  0.5292  1.0793
  553MOL0     H74628   9.421  -0.748   4.076 -0.4495 -0.7452  0.0944
  553MOL0     H74629   9.399  -0.883   4.353 -0.7775 -0.8177 -0.2825
  553MOL0     H74630   9.309  -0.745   4.289  1.1938  1.0591 -1.7802
  553MOL0     H74631   9.592  -0.735   4.393  0.3658 -1.5432 -2.3087
  553MOL0     H74632   9.516  -0.599   4.295 -0.9319 -0.3713  0.7297
  553MOL0     H74633   9.349  -0.571   4.468 -0.6812 -2.5645 -1.2909
  553MOL0     H74634   9.516  -0.532   4.513 -0.3700  1.3248 -0.2218
  553MOL0     H74635   9.376  -0.798   4.609 -0.9875 -0.4075  3.8693
  553MOL0     H74636   9.403  -0.658   4.695 -2.1888 -1.5918 -0.4388
  553MOL0     H74637   8.958  -0.961   3.917  2.1957  2.3097  0.8360
  553MOL0     H74638   8.773  -0.988   3.749  0.5453 -1.0121  0.5409
  553MOL0     H74639   8.671  -1.296   3.211 -0.0745  0.8986  2.0072
  553MOL0     H74640   8.531  -1.229   3.052 -2.2229 -1.0232  1.3070
  553MOL0     H74641   8.028   0.408   2.779 -1.0586 -0.7733  1.4365
  553MOL0     H74642   7.977   0.668   2.760 -2.9281 -0.1692  0.6099
  553MOL0     H74643   8.191   1.134   2.941 -0.6588 -2.7405  0.5583
  553MOL0     H74644   8.127   1.346   2.876  2.3596 -2.6693  0.4852
  553MOL0     H74645   7.868   1.578   2.682  1.9045  0.8502 -0.6972
  553MOL0     H74646   8.000   1.457   2.672  0.2387 -1.9359 -0.4364
  553MOL0     H74647   7.704   1.426   2.604  0.0235  0.0413  0.4880
  553MOL0     H74648   7.840   1.302   2.570 -0.6463 -1.4517  1.9548
  553MOL0     H74649   7.878   1.595   2.473  2.6094 -1.3878  1.3713
  553MOL0     H74650   7.739   1.508   2.408  0.5946 -1.6668 -2.7023
  553MOL0     H74651   7.869   1.344   2.301 -2.3640  0.5916  1.2359
  553MOL0     H74652   8.009   1.366   2.410  2.0919  1.0583 -0.5796
  553MOL0     H74653   8.035   1.628   2.062  1.5298 -0.9518  1.3096
  553MOL0     H74654   7.712   1.221   2.864  0.3511 -0.3613 -2.5803
  553MOL0     H74655   7.775   0.998   2.941  1.5701  0.0860  0.3306
  554MOL0     O74656  10.005   5.484   5.375 -0.2303  0.8447  0.0241
  554MOL0     C74657  10.123   5.457   5.392 -0.1321  0.8103 -0.1038
  554MOL0     O74658  10.227   5.541   5.376  0.7211 -0.1008 -0.6706
  554MOL0     C74659  10.208   5.672   5.347 -0.3257 -0.5054  0.2096
  554MOL0     C74660  10.087   5.748   5.332 -0.6578 -0.0884  1.1900
  554MOL0     C74661  10.082   5.888   5.318 -1.5211  0.5220  0.0305
  554MOL0     C74662  10.204   5.947   5.292 -0.3595  1.0455  0.1275
  554MOL0     O74663  10.211   6.080   5.274  0.4134  0.1306  0.5626
  554MOL0     C74664  10.090   6.155   5.254  0.0354 -0.6922 -1.1216
  554MOL0     C74665  10.125   6.301   5.251 -0.4751  0.5402  0.9356
  554MOL0     C74666   9.993   6.385   5.236 -0.2353  0.0237 -0.3514
  554MOL0     C74667   9.917   6.370   5.096 -0.1650 -0.0816  0.2265
  554MOL0     C74668   9.777   6.415   5.113  0.7384 -0.6703 -0.1208
  554MOL0     C74669   9.702   6.416   4.973  0.6628  0.5651 -0.3736
  554MOL0     C74670   9.557   6.465   4.981 -0.0375 -0.5695 -0.8432
  554MOL0     C74671   9.498   6.516   4.847 -0.1038  0.0704  0.5457
  554MOL0     N74672   9.356   6.526   4.862  0.4562 -0.5845  0.8920
  554MOL0     C74673   9.292   6.642   4.899 -1.1527 -0.3006  1.6351
  554MOL0     C74674   9.167   6.617   4.929 -1.2541  0.4362 -0.3920
  554MOL0     C74675   9.066   6.713   4.989 -0.9575  1.6844 -0.3375
  554MOL0     C74676   9.110   6.790   5.111 -0.3299  0.4307  0.3489
  554MOL0     C74677   8.990   6.859   5.180 -0.3307  0.5436 -0.0039
  554MOL0     C74678   8.947   6.994   5.114  0.1528  0.5230 -0.4340
  554MOL0     O74679   8.912   6.966   4.978 -0.3258 -0.3860  0.2694
  554MOL0     C74680   8.855   7.084   4.925  0.5942  0.0191  0.3440
  554MOL0     C74681   8.932   7.202   4.882 -0.9884 -0.1186  0.4790
  554MOL0     C74682   8.870   7.310   4.816  0.8011  0.1657 -0.2236
  554MOL0     C74683   8.957   7.407   4.749  0.2000 -0.6401 -1.0668
  554MOL0     C74684   8.728   7.318   4.821  0.2499  0.5995  0.1585
  554MOL0     C74685   8.657   7.439   4.779  0.2814 -0.0455  0.4597
  554MOL0     O74686   8.543   7.419   4.697 -0.3411 -0.3525 -0.5430
  554MOL0     C74687   8.444   7.517   4.708 -0.7692  0.5727 -0.2230
  554MOL0     C74688   8.369   7.531   4.820 -0.0961 -0.1415 -0.7659
  554MOL0     C74689   8.261   7.623   4.818  0.0192  0.1542 -0.7562
  554MOL0     C74690   8.220   7.695   4.696  0.6536  0.2252  0.6899
  554MOL0     O74691   8.114   7.780   4.676  0.0008  0.4594 -0.0492
  554MOL0     C74692   8.018   7.783   4.783  0.8425  0.2532  0.0026
  554MOL0     C74693   7.889   7.855   4.746  0.3181 -0.5646  0.2698
  554MOL0     C74694   7.831   7.817   4.618 -0.5263  1.0525 -0.5693
  554MOL0     C74695   7.721   7.906   4.575 -0.3109  0.3920  0.1390
  554MOL0     C74696   7.760   8.040   4.512 -0.1483 -0.0204 -0.9533
  554MOL0     C74697   7.640   8.134   4.462  0.2610  0.3075 -0.3025
  554MOL0     C74698   7.680   8.219   4.344 -0.1847  0.7276  0.1018
  554MOL0     C74699   7.570   8.297   4.270 -0.0600 -0.5156 -0.5761
  554MOL0    Cl74700   7.437   8.192   4.215 -0.0239 -0.3630  0.0513
  554MOL0     C74701   8.308   7.694   4.594  0.1530 -0.2561  0.0006
  554MOL0     C74702   8.413   7.595   4.595 -0.3602  0.0422 -0.8255
  554MOL0     O74703   8.700   7.546   4.813  1.1319  0.6768 -0.2112
  554MOL0     C74704   8.651   7.207   4.870 -0.3351  1.0552 -0.2367
  554MOL0     C74705   8.719   7.090   4.919  0.5536 -1.0528 -0.1683
  554MOL0     N74706   9.161   6.479   4.904  0.3244 -0.5180 -0.2475
  554MOL0     N74707   9.269   6.426   4.861  0.2884 -1.2118 -0.8557
  554MOL0     C74708  10.325   5.872   5.300  0.4151 -0.2781 -0.5487
  554MOL0     C74709  10.328   5.737   5.327 -0.1057  1.2120  0.8014
  554MOL0     C74710  10.143   5.312   5.425 -0.1816 -0.3907 -0.6670
  554MOL0     C74711  10.265   5.254   5.417  0.3869 -1.0097 -1.0855
  554MOL0     C74712  10.281   5.121   5.448  0.3484  0.2767 -0.1395
  554MOL0     C74713  10.182   5.033   5.497  1.2147  0.9791  0.4750
  554MOL0     O74714  10.204   4.899   5.509  0.0199  0.9256 -0.5697
  554MOL0     C74715  10.085   4.807   5.534 -1.3062  0.3954  0.6469
  554MOL0     C74716  10.100   4.660   5.505 -1.2903 -0.9361  1.0259
  554MOL0     C74717  10.139   4.642   5.348 -0.0427  0.2882  0.5933
  554MOL0     C74718  10.260   4.557   5.318  0.9171  0.2697 -0.0871
  554MOL0     C74719  10.271   4.540   5.171 -0.7886  0.4913 -0.3166
  554MOL0     C74720  10.286   4.538   5.050 -1.1076 -0.2538 -0.2358
  554MOL0     C74721  10.061   5.101   5.521 -0.5999  0.6329  0.0883
  554MOL0     C74722  10.045   5.233   5.482 -0.1204 -0.9974 -0.1711
  554MOL0     H74723   9.988   5.704   5.331 -0.7407 -0.2261 -2.8278
  554MOL0     H74724   9.982   5.930   5.309 -2.4921 -1.8513 -1.2888
  554MOL0     H74725  10.041   6.135   5.158  0.2888 -0.9787 -1.1936
  554MOL0     H74726  10.023   6.138   5.339  1.3909  1.3969  0.4704
  554MOL0     H74727  10.167   6.329   5.348 -1.6025  2.6911  0.8800
  554MOL0     H74728  10.204   6.322   5.178  0.1041 -2.6860  0.4846
  554MOL0     H74729   9.924   6.364   5.319  0.2661 -1.0913 -0.2004
  554MOL0     H74730  10.021   6.489   5.254 -1.1890  0.5706 -1.8354
  554MOL0     H74731   9.968   6.436   5.024  1.0920 -0.9068  0.3341
  554MOL0     H74732   9.919   6.269   5.055  1.3002 -0.9237  2.2368
  554MOL0     H74733   9.725   6.351   5.185 -0.0242 -0.1631 -0.2054
  554MOL0     H74734   9.774   6.512   5.162  0.1002 -1.5213  1.6229
  554MOL0     H74735   9.767   6.466   4.900 -0.7046  1.9317 -0.6956
  554MOL0     H74736   9.699   6.310   4.948 -0.1671  0.9732 -2.1346
  554MOL0     H74737   9.494   6.390   5.030 -0.6583  0.9460  0.7945
  554MOL0     H74738   9.559   6.551   5.049  0.4779 -0.3451 -1.1365
  554MOL0     H74739   9.511   6.440   4.769  0.8507  0.4420  0.3271
  554MOL0     H74740   9.538   6.616   4.828  1.4525 -0.6573 -0.2317
  554MOL0     H74741   9.325   6.746   4.891 -1.4821 -0.2095  1.4505
  554MOL0     H74742   9.045   6.778   4.903  0.4770  1.2050 -1.0802
  554MOL0     H74743   8.983   6.645   5.008 -0.5570  1.2142 -0.2573
  554MOL0     H74744   9.175   6.870   5.074 -2.6242  1.5141 -1.6483
  554MOL0     H74745   9.158   6.731   5.188  2.2008 -1.1116 -2.2107
  554MOL0     H74746   9.012   6.881   5.285 -4.1933  1.1942  0.8429
  554MOL0     H74747   8.907   6.788   5.191 -0.4962  0.4927 -1.3841
  554MOL0     H74748   9.032   7.063   5.111  1.2895 -0.7783  0.4284
  554MOL0     H74749   8.860   7.036   5.164 -1.3617 -0.0836 -2.4271
  554MOL0     H74750   9.041   7.200   4.890 -1.0146 -0.8810  0.6701
  554MOL0     H74751   8.922   7.431   4.649 -2.0813 -0.6354 -0.3255
  554MOL0     H74752   8.961   7.497   4.811 -5.4079 -2.3755  2.6023
  554MOL0     H74753   9.053   7.358   4.733  0.5172 -0.6070  0.5381
  554MOL0     H74754   8.408   7.475   4.904  2.9999  1.5259 -0.9350
  554MOL0     H74755   8.208   7.628   4.913  0.5015 -3.4265 -0.1421
  554MOL0     H74756   7.995   7.685   4.827 -0.1709  0.5514  0.1694
  554MOL0     H74757   8.054   7.843   4.867 -1.5910 -1.0482  2.1064
  554MOL0     H74758   7.818   7.839   4.827 -2.0195  4.2504 -0.4425
  554MOL0     H74759   7.902   7.963   4.732 -0.5503 -0.7918 -3.2445
  554MOL0     H74760   7.793   7.715   4.624 -0.5765  1.1272  0.6129
  554MOL0     H74761   7.913   7.799   4.549 -0.4972  0.5684 -0.4113
  554MOL0     H74762   7.689   7.846   4.490 -1.8132  2.5075 -0.9006
  554MOL0     H74763   7.640   7.913   4.648  0.7404 -0.1396  1.3966
  554MOL0     H74764   7.823   8.016   4.426  1.2561  0.4852 -0.0968
  554MOL0     H74765   7.821   8.100   4.581  1.3659 -2.2524 -0.2198
  554MOL0     H74766   7.559   8.069   4.429 -0.9971 -0.7441  4.1465
  554MOL0     H74767   7.596   8.196   4.541  3.7818  1.7378  0.7689
  554MOL0     H74768   7.728   8.146   4.277 -0.2918 -1.3473  2.1605
  554MOL0     H74769   7.753   8.296   4.370  0.4434 -0.1912  1.1572
  554MOL0     H74770   7.621   8.339   4.183  1.1729  0.1424  0.4425
  554MOL0     H74771   7.539   8.383   4.330  2.7386 -0.1677  0.5092
  554MOL0     H74772   8.305   7.751   4.502 -2.3208 -0.1385  0.0867
  554MOL0     H74773   8.474   7.582   4.506  0.8019 -3.0993  0.3112
  554MOL0     H74774   8.544   7.198   4.878 -0.1863 -4.8883 -0.4415
  554MOL0     H74775   8.670   7.000   4.953 -1.9613 -1.0305 -3.2760
  554MOL0     H74776  10.409   5.941   5.301  0.4132 -0.2786 -0.2691
  554MOL0     H74777  10.421   5.684   5.346  0.2734  1.4429 -0.3255
  554MOL0     H74778  10.347   5.315   5.380 -0.5484  0.6128 -0.5916
  554MOL0     H74779  10.374   5.072   5.420 -0.2006 -1.6376  1.1759
  554MOL0     H74780  10.075   4.826   5.641  1.1319 -2.2353  1.4762
  554MOL0     H74781   9.998   4.832   5.473 -1.1714 -0.8156 -0.0824
  554MOL0     H74782  10.000   4.621   5.523 -1.4616 -1.2164 -0.3648
  554MOL0     H74783  10.173   4.632   5.581 -0.3307  0.8478  0.8258
  554MOL0     H74784  10.147   4.740   5.301  1.5822 -0.3460 -0.5699
  554MOL0     H74785  10.048   4.604   5.301 -0.7258  2.0482  0.4472
  554MOL0     H74786  10.258   4.462   5.372 -0.6242  1.5979  2.3635
  554MOL0     H74787  10.351   4.607   5.353  1.1586  0.4693 -0.9576
  554MOL0     H74788  10.298   4.550   4.944  1.8756  0.6476  0.1053
  554MOL0     H74789   9.979   5.060   5.577 -1.3286  0.6479 -0.9381
  554MOL0     H74790   9.943   5.270   5.487 -0.7518 -2.6943  0.0730
  555MOL0     O74791   2.592   7.199   0.042 -0.5730 -0.0134 -1.2177
  555MOL0     C74792   2.484   7.253   0.009 -0.2567  0.2800  0.1433
  555MOL0     O74793   2.433   7.370   0.040  0.5121 -0.5130  0.2830
  555MOL0     C74794   2.486   7.445   0.144  0.0126  0.0848  0.6814
  555MOL0     C74795   2.454   7.573   0.135 -0.1175  0.0045 -0.3228
  555MOL0     C74796   2.481   7.660   0.245 -0.4051 -0.2396 -0.1484
  555MOL0     C74797   2.560   7.629   0.347 -1.2526  0.9005  0.5602
  555MOL0     O74798   2.591   7.719   0.447  0.0397 -0.3036 -0.2425
  555MOL0     C74799   2.726   7.716   0.502  0.3567 -1.2462 -1.1423
  555MOL0     C74800   2.740   7.812   0.617 -0.3893 -0.2798 -0.7559
  555MOL0     C74801   2.890   7.837   0.659  0.2435 -0.4427 -0.2457
  555MOL0     C74802   2.890   7.908   0.797  1.0946 -0.1239 -0.6479
  555MOL0     C74803   3.028   7.972   0.820  0.2214  0.2715  0.7211
  555MOL0     C74804   3.034   8.070   0.937  0.2873 -0.6138 -0.0840
  555MOL0     C74805   3.163   8.155   0.946  0.0657  1.0109 -0.1483
  555MOL0     C74806   3.294   8.068   0.944 -0.3974 -0.4321  0.7518
  555MOL0     N74807   3.403   8.120   1.024  1.3202 -0.5342  0.2770
  555MOL0     C74808   3.472   8.053   1.125  1.2226 -0.3188  0.9863
  555MOL0     C74809   3.568   8.148   1.168  0.2883  0.7493  0.3392
  555MOL0     C74810   3.679   8.130   1.276  0.1705  0.0793  1.1096
  555MOL0     C74811   3.644   8.188   1.418 -0.2655  0.0279  0.1485
  555MOL0     C74812   3.636   8.340   1.409 -0.2981  0.2712 -0.0751
  555MOL0     C74813   3.774   8.411   1.441  1.0277 -0.2796  0.6621
  555MOL0     O74814   3.836   8.340   1.551 -0.5252  0.0894  0.0899
  555MOL0     C74815   3.972   8.326   1.575  0.4424  0.7197 -0.5254
  555MOL0     C74816   4.011   8.383   1.693 -0.7282 -0.6510  0.1608
  555MOL0     C74817   4.148   8.390   1.732 -0.0048 -0.9213  0.4533
  555MOL0     C74818   4.186   8.485   1.848 -0.0200  0.4214 -0.1624
  555MOL0     C74819   4.248   8.320   1.661  0.4567  0.8252  0.2094
  555MOL0     C74820   4.388   8.318   1.696 -0.2171  0.2121 -0.0093
  555MOL0     O74821   4.470   8.273   1.594 -0.1934 -0.1456 -0.7169
  555MOL0     C74822   4.605   8.274   1.601 -0.2727 -0.3711 -0.3382
  555MOL0     C74823   4.678   8.177   1.676  0.3478  0.1874 -0.3607
  555MOL0     C74824   4.821   8.165   1.668  0.6838 -0.9157 -0.0416
  555MOL0     C74825   4.886   8.269   1.606  0.4185 -0.2216  0.3327
  555MOL0     O74826   5.018   8.252   1.621 -1.2003 -0.0199 -0.3466
  555MOL0     C74827   5.110   8.356   1.581  0.2396 -0.8146 -0.3606
  555MOL0     C74828   5.123   8.465   1.688  0.2844  0.1123  0.2027
  555MOL0     C74829   5.137   8.404   1.832  0.1035 -0.1645  0.2132
  555MOL0     C74830   5.118   8.508   1.940  1.1082  0.0702 -0.6479
  555MOL0     C74831   4.959   8.555   1.951 -0.6051 -0.6306 -0.3586
  555MOL0     C74832   4.873   8.473   2.050 -0.4279  0.4472 -0.4569
  555MOL0     C74833   4.754   8.405   1.980 -0.1364 -0.0455  0.8809
  555MOL0     C74834   4.648   8.339   2.080 -0.1433  0.6866 -0.0140
  555MOL0    Cl74835   4.570   8.467   2.180  0.1705  0.3186 -0.0016
  555MOL0     C74836   4.815   8.371   1.548 -0.5147  0.6328 -0.2864
  555MOL0     C74837   4.678   8.377   1.539  1.3900 -0.1273 -0.0683
  555MOL0     O74838   4.426   8.361   1.805  0.2535  0.0420  0.0074
  555MOL0     C74839   4.198   8.257   1.547 -0.3441  0.4219  0.7448
  555MOL0     C74840   4.066   8.256   1.500 -0.2870  1.0082 -0.4428
  555MOL0     N74841   3.544   8.269   1.104  0.5862  0.3890  0.1118
  555MOL0     N74842   3.440   8.251   1.020  0.6500 -0.4302  0.0722
  555MOL0     C74843   2.595   7.495   0.351 -0.2011  0.0132 -0.2104
  555MOL0     C74844   2.555   7.399   0.255 -0.4596  0.5193  0.6416
  555MOL0     C74845   2.408   7.165  -0.077  0.0226  0.2048  1.1150
  555MOL0     C74846   2.410   7.023  -0.055  0.0033  0.0863  0.1155
  555MOL0     C74847   2.339   6.943  -0.150 -0.9326  0.8056  0.3783
  555MOL0     C74848   2.252   6.996  -0.245  0.8187  0.4396  0.5199
  555MOL0     O74849   2.178   6.925  -0.336  0.5232  0.7066 -0.2295
  555MOL0     C74850   2.196   6.777  -0.339  0.0327 -0.9115  0.1298
  555MOL0     C74851   2.095   6.733  -0.447 -0.1176 -0.2843 -0.8515
  555MOL0     C74852   2.079   6.582  -0.454  0.5428  0.9767 -1.4177
  555MOL0     C74853   2.187   6.497  -0.507 -0.2513  0.0101 -0.7810
  555MOL0     C74854   2.163   6.353  -0.499 -0.3720 -0.7164  0.1739
  555MOL0     C74855   2.138   6.230  -0.501  0.2089  0.6098  1.2213
  555MOL0     C74856   2.257   7.129  -0.269  1.0397  0.1142 -0.2292
  555MOL0     C74857   2.326   7.216  -0.181  0.6771 -0.9066  0.0968
  555MOL0     H74858   2.395   7.606   0.050  1.4092  2.6573 -0.4906
  555MOL0     H74859   2.444   7.762   0.249 -3.2779 -1.0718 -2.5478
  555MOL0     H74860   2.746   7.620   0.550  0.4282  0.6457  2.9831
  555MOL0     H74861   2.806   7.739   0.431  3.5279 -1.8067  1.9606
  555MOL0     H74862   2.686   7.905   0.599 -1.2659 -0.0923  2.2481
  555MOL0     H74863   2.692   7.772   0.707  2.2477  2.8247  2.3463
  555MOL0     H74864   2.950   7.746   0.658  0.2218 -0.5893  3.0421
  555MOL0     H74865   2.934   7.908   0.588  0.7987  1.5042  1.9483
  555MOL0     H74866   2.825   7.993   0.774  3.8153  1.6610 -2.3508
  555MOL0     H74867   2.860   7.842   0.879  0.2826 -3.1010 -3.1521
  555MOL0     H74868   3.105   7.895   0.829 -0.1922 -0.4641 -1.4006
  555MOL0     H74869   3.050   8.046   0.743 -2.9204  0.8447  0.2299
  555MOL0     H74870   2.960   8.150   0.930  0.8624 -0.1784 -1.7552
  555MOL0     H74871   3.036   8.006   1.025 -2.1410  0.5323  0.8942
  555MOL0     H74872   3.154   8.229   0.865 -0.6404  1.6493  0.4999
  555MOL0     H74873   3.161   8.203   1.044 -3.5196 -1.5031  1.2339
  555MOL0     H74874   3.336   8.070   0.843  0.0886  0.7116  0.9628
  555MOL0     H74875   3.280   7.965   0.980  2.5200 -0.9039  0.7848
  555MOL0     H74876   3.460   7.947   1.144 -2.6734 -0.2323 -0.1433
  555MOL0     H74877   3.701   8.023   1.283 -3.6154 -0.8590  0.9563
  555MOL0     H74878   3.770   8.172   1.232 -1.0194  0.0030 -1.6496
  555MOL0     H74879   3.719   8.147   1.486  0.1241 -1.1227 -0.9468
  555MOL0     H74880   3.549   8.150   1.458  0.3868 -2.2602 -0.3535
  555MOL0     H74881   3.575   8.386   1.488  0.0499  2.0451 -0.7905
  555MOL0     H74882   3.611   8.362   1.305  1.1752 -0.8740 -0.7085
  555MOL0     H74883   3.761   8.518   1.457  2.9698  0.0667  0.1347
  555MOL0     H74884   3.832   8.389   1.351 -0.3916 -1.1134 -0.0927
  555MOL0     H74885   3.939   8.439   1.751 -0.6169 -0.7285  0.3748
  555MOL0     H74886   4.223   8.421   1.928 -2.9425 -0.4048  0.6455
  555MOL0     H74887   4.263   8.554   1.812  0.2976  0.8472  1.2790
  555MOL0     H74888   4.096   8.535   1.884 -2.7527 -2.8694 -1.9479
  555MOL0     H74889   4.638   8.111   1.751  0.6671 -1.0805 -1.2738
  555MOL0     H74890   4.859   8.080   1.724  0.9538 -0.8643 -0.1452
  555MOL0     H74891   5.205   8.308   1.558 -0.6588 -1.3555 -3.3704
  555MOL0     H74892   5.077   8.393   1.483 -1.3427 -2.4621 -0.4990
  555MOL0     H74893   5.212   8.525   1.668  0.7533 -0.4145  0.6651
  555MOL0     H74894   5.033   8.526   1.671 -0.9877 -1.6077  0.5063
  555MOL0     H74895   5.238   8.362   1.832 -0.9599 -2.9612  1.2668
  555MOL0     H74896   5.065   8.322   1.843  0.5735 -0.9696 -2.0032
  555MOL0     H74897   5.155   8.472   2.037 -4.4698 -0.6141  1.6041
  555MOL0     H74898   5.167   8.600   1.908  0.8530  0.6372  0.5295
  555MOL0     H74899   4.918   8.562   1.849 -0.8065 -0.9287 -0.2975
  555MOL0     H74900   4.960   8.661   1.976 -0.8034 -0.5396 -0.7281
  555MOL0     H74901   4.923   8.395   2.107 -1.9224 -1.7450 -2.0126
  555MOL0     H74902   4.833   8.541   2.126  0.5766 -0.4341  0.9005
  555MOL0     H74903   4.796   8.331   1.911  1.1738  0.6587  0.8873
  555MOL0     H74904   4.698   8.474   1.915 -0.1678  0.5079  1.4761
  555MOL0     H74905   4.701   8.272   2.148  2.3540  2.0399 -0.5140
  555MOL0     H74906   4.575   8.278   2.026 -1.4956  1.1108  1.2572
  555MOL0     H74907   4.861   8.459   1.505  1.9690  1.4597  3.5010
  555MOL0     H74908   4.625   8.457   1.488 -0.7755 -1.4349  0.0155
  555MOL0     H74909   4.267   8.194   1.491 -2.7720  1.1643 -3.5289
  555MOL0     H74910   4.049   8.208   1.404  0.4628  1.9958 -1.0823
  555MOL0     H74911   2.666   7.464   0.426 -2.2516  0.1870  1.9262
  555MOL0     H74912   2.581   7.294   0.242  2.3040  1.4991 -4.4594
  555MOL0     H74913   2.468   6.977   0.024 -3.5956 -0.1853  2.8379
  555MOL0     H74914   2.349   6.835  -0.139  1.1826  0.8916 -0.3661
  555MOL0     H74915   2.298   6.741  -0.356 -0.5109 -1.8561 -1.3450
  555MOL0     H74916   2.154   6.744  -0.244  1.7464  2.0531  2.0607
  555MOL0     H74917   2.108   6.767  -0.550 -0.0282  0.7584 -0.5089
  555MOL0     H74918   1.998   6.775  -0.417  0.8933 -0.5722  3.3374
  555MOL0     H74919   1.991   6.562  -0.515  1.2304 -1.0071 -1.8488
  555MOL0     H74920   2.063   6.545  -0.352  2.5930  1.3877 -0.8875
  555MOL0     H74921   2.279   6.520  -0.453 -1.0677  2.2095 -0.2362
  555MOL0     H74922   2.215   6.517  -0.611 -1.3501 -0.4810 -1.1927
  555MOL0     H74923   2.113   6.127  -0.515  1.5671  0.5646 -1.4287
  555MOL0     H74924   2.203   7.168  -0.354 -1.6992 -0.1053  1.2914
  555MOL0     H74925   2.324   7.324  -0.197  0.7685 -0.7857  0.8452
  556MOL0     O74926   8.666   1.224   2.014 -0.0660 -0.8057 -0.1865
  556MOL0     C74927   8.688   1.174   2.121  0.4976  0.9974 -0.1072
  556MOL0     O74928   8.630   1.209   2.241  0.0995  0.1431  0.3983
  556MOL0     C74929   8.596   1.345   2.248  0.1690  0.6049  0.4458
  556MOL0     C74930   8.674   1.426   2.319  1.0280 -0.1248 -1.1714
  556MOL0     C74931   8.629   1.557   2.349 -0.4807  0.3734 -0.5755
  556MOL0     C74932   8.516   1.607   2.290  0.1258  0.2578  0.5612
  556MOL0     O74933   8.478   1.735   2.322  0.0998 -0.0057  0.0276
  556MOL0     C74934   8.376   1.811   2.250  0.6378 -0.3880 -0.3921
  556MOL0     C74935   8.430   1.871   2.113  1.1616  0.7791  0.0120
  556MOL0     C74936   8.328   1.954   2.032  0.0762 -0.2549  0.2145
  556MOL0     C74937   8.198   1.890   1.973  0.0157 -0.4999 -0.5678
  556MOL0     C74938   8.071   1.949   2.031 -0.3503  0.2110 -0.1967
  556MOL0     C74939   7.953   1.950   1.940  0.2510  0.4358 -1.2440
  556MOL0     C74940   7.824   1.971   2.011 -0.6066  0.2577  0.0003
  556MOL0     C74941   7.714   2.021   1.912 -0.8916 -0.4865 -0.1439
  556MOL0     N74942   7.640   1.917   1.829  0.2689  0.8312 -0.1845
  556MOL0     C74943   7.661   1.908   1.692 -0.7540 -0.0517  0.0502
  556MOL0     C74944   7.563   1.837   1.640  0.2163  0.3078 -0.4590
  556MOL0     C74945   7.563   1.786   1.505 -0.2697  0.1359 -0.1980
  556MOL0     C74946   7.445   1.716   1.436  0.1424 -0.1947 -0.5646
  556MOL0     C74947   7.313   1.801   1.421 -0.2151  0.0945 -0.9382
  556MOL0     C74948   7.205   1.719   1.337  0.2703  1.1777 -0.1761
  556MOL0     O74949   7.202   1.753   1.191 -0.5963  0.2421 -0.3066
  556MOL0     C74950   7.165   1.652   1.102  0.8916 -0.4907 -0.2012
  556MOL0     C74951   7.041   1.666   1.050 -0.1231 -0.4258  0.5340
  556MOL0     C74952   6.988   1.576   0.958  0.4325  0.4556  0.3160
  556MOL0     C74953   6.849   1.609   0.908  0.7448 -0.1478  0.0569
  556MOL0     C74954   7.069   1.459   0.926 -0.1626 -0.1515  0.1961
  556MOL0     C74955   7.027   1.346   0.846 -0.2581  0.7137 -0.1804
  556MOL0     O74956   6.941   1.367   0.753  0.0513 -0.8442  0.2406
  556MOL0     C74957   6.886   1.269   0.678 -0.6684  0.1802 -0.2154
  556MOL0     C74958   6.800   1.314   0.579 -0.4683 -0.6870 -0.6381
  556MOL0     C74959   6.723   1.222   0.509 -0.7075  0.3382  0.2602
  556MOL0     C74960   6.740   1.086   0.518 -0.3755 -0.4029  0.6864
  556MOL0     O74961   6.676   0.982   0.450  0.1909  0.0939  0.1029
  556MOL0     C74962   6.564   1.031   0.372 -1.3077  1.3323 -0.4799
  556MOL0     C74963   6.493   0.899   0.331  0.5203 -0.1352  0.1590
  556MOL0     C74964   6.574   0.812   0.223  0.6790  0.0038  0.0184
  556MOL0     C74965   6.504   0.682   0.193  0.8234  0.4493  0.3227
  556MOL0     C74966   6.569   0.599   0.074  0.7609  0.8897 -0.2155
  556MOL0     C74967   6.478   0.475   0.057  0.2296 -0.4179  0.3907
  556MOL0     C74968   6.547   0.385  -0.063 -0.0273 -0.5255 -0.0480
  556MOL0     C74969   6.465   0.275  -0.134  0.2412 -0.0549  0.2959
  556MOL0    Cl74970   6.306   0.348  -0.150  0.1102  0.2946 -0.4435
  556MOL0     C74971   6.834   1.042   0.617  0.6797 -0.0852  1.4263
  556MOL0     C74972   6.892   1.135   0.702 -0.5488  0.4677  0.0932
  556MOL0     O74973   7.094   1.242   0.857  0.2900 -0.7393 -0.7392
  556MOL0     C74974   7.191   1.447   0.996 -0.4795  0.3325  0.3552
  556MOL0     C74975   7.245   1.544   1.084  0.5378 -0.0056 -0.8906
  556MOL0     N74976   7.485   1.798   1.740  1.3814 -0.3310  0.3171
  556MOL0     N74977   7.529   1.847   1.855  1.1354  0.3286 -0.1830
  556MOL0     C74978   8.447   1.521   2.203 -0.7496  0.0971 -0.3528
  556MOL0     C74979   8.478   1.388   2.183  1.3918 -0.7506 -0.2597
  556MOL0     C74980   8.779   1.059   2.110 -0.2877  0.0785 -0.6022
  556MOL0     C74981   8.853   1.030   2.219  0.1819 -0.3331  0.9709
  556MOL0     C74982   8.958   0.932   2.204 -1.1824  0.1339 -0.6294
  556MOL0     C74983   8.977   0.865   2.077 -0.3172  0.4977  0.3805
  556MOL0     O74984   9.061   0.757   2.065 -0.4912 -0.2303  0.6462
  556MOL0     C74985   9.194   0.792   2.099 -0.2927  0.1053  0.5569
  556MOL0     C74986   9.285   0.741   1.990 -0.0735  0.6236  0.1506
  556MOL0     C74987   9.273   0.829   1.862 -0.8281  0.2092 -0.5825
  556MOL0     C74988   9.213   0.746   1.747  0.0405  0.1378 -0.3994
  556MOL0     C74989   9.310   0.637   1.708  0.0792  0.3982 -0.3071
  556MOL0     C74990   9.384   0.548   1.666 -0.1011 -0.2678  0.1689
  556MOL0     C74991   8.894   0.901   1.971 -0.3131  0.4696  0.2644
  556MOL0     C74992   8.803   0.997   1.990 -0.3049  0.3688  0.3845
  556MOL0     H74993   8.764   1.382   2.361  1.3436  1.4889 -0.0827
  556MOL0     H74994   8.674   1.632   2.414  0.0763  1.5514 -2.2407
  556MOL0     H74995   8.290   1.756   2.211 -0.7502  2.1292 -1.0528
  556MOL0     H74996   8.344   1.887   2.321  0.3842 -2.0555  1.3611
  556MOL0     H74997   8.518   1.936   2.120  5.6043 -4.3926 -0.8575
  556MOL0     H74998   8.443   1.776   2.059  1.5635  0.5253  0.5498
  556MOL0     H74999   8.305   2.043   2.092  0.4586 -0.3826  0.5560
  556MOL0     H75000   8.382   1.993   1.945 -2.1831  0.9439 -0.7454
  556MOL0     H75001   8.208   1.922   1.869  1.5272 -0.4749 -0.4435
  556MOL0     H75002   8.208   1.782   1.985  0.8570 -0.7732 -3.0854
  556MOL0     H75003   8.039   1.896   2.121 -1.7013  2.2113  0.5487
  556MOL0     H75004   8.090   2.051   2.065 -2.0404 -0.6730  3.9896
  556MOL0     H75005   7.979   2.039   1.881  2.1851  2.5796  2.4230
  556MOL0     H75006   7.948   1.863   1.874  0.6504  0.5703 -1.4559
  556MOL0     H75007   7.808   1.871   2.054  0.8019 -0.6262 -1.4367
  556MOL0     H75008   7.847   2.033   2.098 -1.1563  1.6735 -0.8347
  556MOL0     H75009   7.749   2.100   1.844  1.2145 -1.0447  0.2255
  556MOL0     H75010   7.646   2.074   1.979 -2.7224 -1.2671 -1.2899
  556MOL0     H75011   7.748   1.942   1.638 -0.1513 -1.0665  0.3677
  556MOL0     H75012   7.572   1.878   1.446 -3.6434  1.7552  1.4805
  556MOL0     H75013   7.655   1.727   1.503 -1.1596 -1.2999  0.0123
  556MOL0     H75014   7.435   1.613   1.471 -1.1935  0.7859  2.2164
  556MOL0     H75015   7.477   1.683   1.337 -1.6357 -3.1349 -0.2950
  556MOL0     H75016   7.331   1.896   1.369  1.2937  1.5259  1.9760
  556MOL0     H75017   7.270   1.831   1.517 -1.5846  3.4387 -2.4422
  556MOL0     H75018   7.110   1.752   1.380 -0.8233 -1.1143 -0.6708
  556MOL0     H75019   7.211   1.613   1.360 -0.2504  1.2939  0.5096
  556MOL0     H75020   6.984   1.754   1.077 -0.3330 -0.8524  1.5111
  556MOL0     H75021   6.871   1.687   0.834  0.9830 -1.7448 -1.6590
  556MOL0     H75022   6.794   1.527   0.860  0.2925  1.1267 -1.6902
  556MOL0     H75023   6.778   1.648   0.981  2.8535  1.2890  1.4576
  556MOL0     H75024   6.793   1.422   0.574  0.0310 -0.2932  3.5880
  556MOL0     H75025   6.653   1.253   0.433 -1.6005 -4.8367 -1.4319
  556MOL0     H75026   6.493   1.065   0.448 -0.2112 -0.2837  1.3835
  556MOL0     H75027   6.598   1.090   0.287 -0.5832 -0.5903 -1.5827
  556MOL0     H75028   6.459   0.832   0.410  2.7559 -0.9266  0.5381
  556MOL0     H75029   6.403   0.937   0.283 -0.2578 -1.1430  0.7778
  556MOL0     H75030   6.678   0.791   0.248  1.0319  1.0102 -0.5361
  556MOL0     H75031   6.577   0.876   0.135 -1.3690 -1.2420 -1.0269
  556MOL0     H75032   6.503   0.621   0.284  0.2142 -2.0259 -1.2614
  556MOL0     H75033   6.401   0.712   0.169  0.6667 -0.3191  0.0319
  556MOL0     H75034   6.669   0.567   0.104  0.8191 -0.1834 -1.4520
  556MOL0     H75035   6.581   0.655  -0.019  2.1500  1.6075  0.3690
  556MOL0     H75036   6.483   0.418   0.150  2.3478  2.0930  1.9613
  556MOL0     H75037   6.378   0.516   0.037  0.8543  0.6954 -0.5667
  556MOL0     H75038   6.630   0.337  -0.012  1.2461 -0.8653 -2.3131
  556MOL0     H75039   6.579   0.455  -0.141  0.9301 -2.3530 -1.3864
  556MOL0     H75040   6.455   0.182  -0.078  0.8750 -0.0584  0.4083
  556MOL0     H75041   6.509   0.254  -0.232 -0.9082  1.0347 -0.4806
  556MOL0     H75042   6.853   0.937   0.637  1.8819  0.2754  2.2565
  556MOL0     H75043   6.957   1.088   0.775  0.2754  0.2627 -0.7525
  556MOL0     H75044   7.253   1.359   0.981  0.4769  0.7764  1.5682
  556MOL0     H75045   7.333   1.504   1.133 -1.3946 -2.6179  0.7633
  556MOL0     H75046   8.357   1.554   2.151  0.3316 -0.5486 -2.8029
  556MOL0     H75047   8.410   1.322   2.130 -0.7016 -0.9668  2.5264
  556MOL0     H75048   8.853   1.076   2.317 -0.3288 -1.3401  1.4551
  556MOL0     H75049   9.025   0.907   2.285 -3.1235 -1.2100  0.6483
  556MOL0     H75050   9.215   0.899   2.103 -2.5713  0.6680 -0.7938
  556MOL0     H75051   9.215   0.737   2.191  1.5251 -0.9105 -0.4034
  556MOL0     H75052   9.259   0.638   1.964  2.7289 -0.0890 -0.1793
  556MOL0     H75053   9.388   0.757   2.024  0.9513 -0.3319 -2.2719
  556MOL0     H75054   9.366   0.877   1.834  0.4127 -0.8278  1.4886
  556MOL0     H75055   9.206   0.913   1.885 -0.9657 -0.2163  0.6824
  556MOL0     H75056   9.194   0.819   1.668  1.2006  4.3724  2.8596
  556MOL0     H75057   9.112   0.714   1.774  0.4618  0.6853  2.0671
  556MOL0     H75058   9.450   0.473   1.628  0.6776 -0.0257  1.0374
  556MOL0     H75059   8.913   0.859   1.873  0.2627 -0.5248  0.7831
  556MOL0     H75060   8.777   1.044   1.896  2.3051  1.1000 -0.0701
  557MOL0     O75061  11.134   3.716  10.812  0.0175  0.1876  0.1469
  557MOL0     C75062  11.129   3.606  10.862  0.6041 -0.2170 -0.7515
  557MOL0     O75063  11.199   3.571  10.968  0.1238  0.6219 -0.8205
  557MOL0     C75064  11.300   3.658  11.024 -0.2154  0.9221 -0.0012
  557MOL0     C75065  11.401   3.738  10.954  0.2652 -0.1791 -0.3256
  557MOL0     C75066  11.493   3.816  11.018 -0.0798  0.2172 -0.7221
  557MOL0     C75067  11.488   3.820  11.158 -0.0200  0.4632  0.0623
  557MOL0     O75068  11.578   3.909  11.208 -1.0223 -0.0347 -0.0024
  557MOL0     C75069  11.546   3.966  11.333 -0.0333  0.2127  0.1313
  557MOL0     C75070  11.652   4.074  11.376 -0.5869 -0.0801  0.0703
  557MOL0     C75071  11.614   4.144  11.506  0.1461 -0.5021 -0.2265
  557MOL0     C75072  11.616   4.055  11.628 -0.4588 -0.3847 -1.1140
  557MOL0     C75073  11.590   4.145  11.745 -1.2992 -0.8112 -0.5050
  557MOL0     C75074  11.595   4.073  11.887 -0.7806 -0.0345  1.1147
  557MOL0     C75075  11.553   4.155  12.013 -0.5258  0.4294  0.0376
  557MOL0     C75076  11.637   4.278  12.049 -0.5668 -0.6972  0.0240
  557MOL0     N75077  11.641   4.310  12.189 -0.3684 -0.1835  0.9795
  557MOL0     C75078  11.545   4.379  12.255  0.2407 -0.0209 -1.2081
  557MOL0     C75079  11.605   4.428  12.368 -0.2189 -0.0241 -0.2328
  557MOL0     C75080  11.553   4.531  12.465 -0.6155  0.0179 -0.5600
  557MOL0     C75081  11.519   4.463  12.596  0.6291  0.2538 -0.5060
  557MOL0     C75082  11.630   4.404  12.670 -0.2483 -0.2780 -0.5833
  557MOL0     C75083  11.741   4.509  12.712 -0.0069  0.0209 -0.3346
  557MOL0     O75084  11.696   4.632  12.777  0.2369 -0.4255  0.1237
  557MOL0     C75085  11.682   4.646  12.912 -0.0939 -0.4260  0.4157
  557MOL0     C75086  11.711   4.555  13.014  0.4896 -0.0502  0.0046
  557MOL0     C75087  11.695   4.588  13.147  1.1033  0.4117  0.5594
  557MOL0     C75088  11.758   4.495  13.243  0.9795  0.1968  0.7617
  557MOL0     C75089  11.634   4.709  13.192  0.2970  0.2681  0.1286
  557MOL0     C75090  11.591   4.742  13.332  0.5016 -0.0590  0.9996
  557MOL0     O75091  11.597   4.872  13.368  0.3850 -0.0606  0.4842
  557MOL0     C75092  11.572   4.908  13.494  1.0322  0.3082  0.8247
  557MOL0     C75093  11.458   4.878  13.570 -0.2488 -0.8033  0.7761
  557MOL0     C75094  11.438   4.938  13.699 -0.0388  0.2771  0.1183
  557MOL0     C75095  11.535   5.024  13.754  0.5297 -0.5250  0.2413
  557MOL0     O75096  11.511   5.061  13.883 -0.2075  0.5871 -0.3420
  557MOL0     C75097  11.545   5.195  13.919  0.0388 -0.8285  0.0932
  557MOL0     C75098  11.507   5.232  14.068  0.5014  0.0728  0.4948
  557MOL0     C75099  11.364   5.188  14.101 -1.3606 -0.1146  0.5968
  557MOL0     C75100  11.251   5.259  14.025 -0.0335  0.7250  0.6570
  557MOL0     C75101  11.132   5.269  14.111 -0.3326 -0.5721 -0.5565
  557MOL0     C75102  11.015   5.296  14.016 -0.1815  0.6152 -0.0074
  557MOL0     C75103  11.018   5.438  13.957  0.5805 -0.4616  0.0075
  557MOL0     C75104  10.885   5.479  13.886 -0.4814 -0.9120  0.8087
  557MOL0    Cl75105  10.869   5.653  13.857  0.2250  0.1357  0.1771
  557MOL0     C75106  11.644   5.055  13.679 -1.1777  0.0692  0.1518
  557MOL0     C75107  11.660   4.998  13.548 -0.6024  0.6940 -0.3969
  557MOL0     O75108  11.533   4.652  13.397  0.3802 -0.4802  0.2887
  557MOL0     C75109  11.609   4.802  13.097  0.8658 -0.3375  0.5280
  557MOL0     C75110  11.631   4.764  12.964 -0.4879 -0.3803 -0.1480
  557MOL0     N75111  11.736   4.382  12.361 -0.1525 -0.0549 -0.4208
  557MOL0     N75112  11.756   4.327  12.245 -0.1486 -1.1868 -0.2465
  557MOL0     C75113  11.414   3.726  11.231 -0.3691  0.4985 -0.8127
  557MOL0     C75114  11.328   3.641  11.157  0.6102  0.1546  0.6754
  557MOL0     C75115  11.051   3.503  10.792  0.2477 -0.8081 -0.8884
  557MOL0     C75116  11.029   3.511  10.658 -0.5794  0.4019 -0.3840
  557MOL0     C75117  10.961   3.416  10.593 -0.0509 -0.1196 -0.6463
  557MOL0     C75118  10.909   3.301  10.661 -0.2068 -0.9869  0.2908
  557MOL0     O75119  10.826   3.206  10.619  0.8400  0.1399  0.0219
  557MOL0     C75120  10.764   3.224  10.484 -0.0516  0.2536 -0.5386
  557MOL0     C75121  10.691   3.105  10.417 -0.3382 -0.2609  0.2044
  557MOL0     C75122  10.543   3.082  10.468 -0.7283 -0.6016  0.1547
  557MOL0     C75123  10.478   2.976  10.389 -0.6191 -0.3984  0.3061
  557MOL0     C75124  10.340   2.961  10.442  0.1431 -0.7585 -0.6568
  557MOL0     C75125  10.220   2.962  10.473 -0.1910  1.2481  0.3932
  557MOL0     C75126  10.928   3.300  10.794 -0.2670  1.1155 -0.0156
  557MOL0     C75127  10.999   3.397  10.865 -0.8216 -0.0877  0.2987
  557MOL0     H75128  11.397   3.745  10.845 -0.1666 -0.3344 -0.3221
  557MOL0     H75129  11.571   3.866  10.962  0.1404 -0.1968 -0.7817
  557MOL0     H75130  11.448   4.015  11.329 -0.0196  0.1641 -0.7836
  557MOL0     H75131  11.538   3.890  11.412  0.1330  0.9224  0.8533
  557MOL0     H75132  11.750   4.035  11.404 -0.7612 -0.0014  0.8126
  557MOL0     H75133  11.654   4.147  11.295  1.6015 -0.0080  0.1415
  557MOL0     H75134  11.689   4.223  11.516 -0.0100 -0.4162  0.2898
  557MOL0     H75135  11.515   4.188  11.492  0.7441  1.6514  1.6996
  557MOL0     H75136  11.536   3.981  11.620 -1.3022  0.4406 -0.6242
  557MOL0     H75137  11.714   4.008  11.636 -1.5447 -2.4820  2.5999
  557MOL0     H75138  11.661   4.227  11.732 -0.5887 -1.5932 -1.8252
  557MOL0     H75139  11.490   4.187  11.740 -1.4896 -0.9313  1.6195
  557MOL0     H75140  11.538   3.980  11.875  1.0184 -0.8567 -2.4161
  557MOL0     H75141  11.698   4.048  11.913  0.2681  0.8907 -1.6950
  557MOL0     H75142  11.451   4.191  11.999 -0.5286 -0.2404 -1.8770
  557MOL0     H75143  11.549   4.100  12.108 -0.6288  0.4439  0.0411
  557MOL0     H75144  11.592   4.368  12.005  1.1135  0.3338  0.3112
  557MOL0     H75145  11.738   4.261  12.012 -1.0435 -1.8555 -0.7886
  557MOL0     H75146  11.443   4.406  12.231 -0.5975 -0.4363  1.5381
  557MOL0     H75147  11.626   4.610  12.484  1.8461 -2.2556 -0.1296
  557MOL0     H75148  11.470   4.565  12.401  1.2663 -0.0420 -3.2257
  557MOL0     H75149  11.437   4.394  12.579  0.6682 -0.0985  0.6237
  557MOL0     H75150  11.461   4.525  12.665  0.7196 -1.5162  1.2564
  557MOL0     H75151  11.664   4.311  12.624 -4.0919 -1.4138 -1.5135
  557MOL0     H75152  11.590   4.384  12.770  1.9544  3.8569  1.3782
  557MOL0     H75153  11.800   4.542  12.626  0.0885  1.0009  0.0904
  557MOL0     H75154  11.812   4.459  12.778  0.8116  1.4035 -0.1420
  557MOL0     H75155  11.749   4.460  12.979 -1.1287 -0.5065 -0.6354
  557MOL0     H75156  11.837   4.434  13.199  0.3397 -0.6393  0.7430
  557MOL0     H75157  11.795   4.538  13.337 -0.0602  0.9263  0.8568
  557MOL0     H75158  11.672   4.431  13.263 -2.0079  4.1160  1.6414
  557MOL0     H75159  11.384   4.817  13.519  0.8284 -1.9179  0.4871
  557MOL0     H75160  11.347   4.935  13.758 -0.2913 -0.7355 -0.3115
  557MOL0     H75161  11.651   5.220  13.905 -0.7395  1.8407 -1.8823
  557MOL0     H75162  11.480   5.259  13.859  3.5396  1.9451 -1.0803
  557MOL0     H75163  11.571   5.176  14.136  0.2708 -2.9190 -1.5498
  557MOL0     H75164  11.537   5.337  14.082 -3.0395  1.3077 -0.2043
  557MOL0     H75165  11.334   5.206  14.204  1.3839 -1.9275  1.8398
  557MOL0     H75166  11.347   5.082  14.079 -0.7137 -0.2012  0.5021
  557MOL0     H75167  11.284   5.359  13.993 -0.4201  1.5002  2.5451
  557MOL0     H75168  11.225   5.213  13.929 -1.6470  3.3903 -0.2850
  557MOL0     H75169  11.148   5.353  14.179 -1.2102  0.8706 -2.0630
  557MOL0     H75170  11.122   5.176  14.167  1.5481  0.0445  0.9173
  557MOL0     H75171  11.017   5.217  13.940 -1.0318  0.2128  0.3697
  557MOL0     H75172  10.916   5.295  14.063 -1.2620  2.5114 -2.0674
  557MOL0     H75173  11.094   5.454  13.879 -0.8409  2.9368 -0.8864
  557MOL0     H75174  11.044   5.512  14.034  3.6902  1.0422 -2.2559
  557MOL0     H75175  10.802   5.446  13.949 -0.1616  2.7479  3.4538
  557MOL0     H75176  10.881   5.428  13.790 -0.9920 -1.0038  0.8783
  557MOL0     H75177  11.726   5.118  13.713 -0.2801 -1.0549  0.1092
  557MOL0     H75178  11.755   5.015  13.498 -0.3006  1.3979  0.4032
  557MOL0     H75179  11.581   4.906  13.114 -1.5601 -0.2175 -2.9493
  557MOL0     H75180  11.612   4.845  12.894  1.9735  2.0403  1.7461
  557MOL0     H75181  11.434   3.707  11.336  0.7103 -0.0143 -1.0933
  557MOL0     H75182  11.266   3.568  11.209  0.1162 -0.7486 -1.1008
  557MOL0     H75183  11.075   3.583  10.590 -2.8352 -0.3852 -2.9109
  557MOL0     H75184  10.962   3.423  10.485  0.1456  0.0459 -0.6330
  557MOL0     H75185  10.697   3.311  10.489  1.2520  1.2353  0.2998
  557MOL0     H75186  10.850   3.247  10.421  0.6270  1.6456  0.8516
  557MOL0     H75187  10.747   3.012  10.431 -0.8745 -0.8672 -1.4317
  557MOL0     H75188  10.680   3.123  10.310  0.6470  1.8151  0.3988
  557MOL0     H75189  10.495   3.180  10.472  1.3805  0.4469  2.9350
  557MOL0     H75190  10.558   3.046  10.571 -0.7385  1.7309  1.0189
  557MOL0     H75191  10.540   2.886  10.386  0.2639  0.1985 -0.0626
  557MOL0     H75192  10.468   3.031  10.295  0.2451  0.6993  0.8399
  557MOL0     H75193  10.129   2.964  10.531 -0.2734 -1.2683  0.4490
  557MOL0     H75194  10.877   3.223  10.851  0.5048  0.5898 -0.0178
  557MOL0     H75195  11.009   3.397  10.973  0.4544  0.1903  0.1996
  558MOL0     O75196   7.553   1.710   2.987 -0.3282  0.4721  0.0179
  558MOL0     C75197   7.624   1.771   3.071  0.5370 -0.5041 -0.1847
  558MOL0     O75198   7.621   1.755   3.212 -0.2179  0.6949  0.3834
  558MOL0     C75199   7.521   1.684   3.285 -0.2073 -0.1753 -0.2600
  558MOL0     C75200   7.563   1.622   3.405 -0.0540 -0.4975  0.6885
  558MOL0     C75201   7.469   1.540   3.476 -0.3239 -0.3331  0.4451
  558MOL0     C75202   7.337   1.528   3.429 -0.2235  0.4343  0.2998
  558MOL0     O75203   7.250   1.472   3.512 -0.3549  0.1006  0.4528
  558MOL0     C75204   7.180   1.572   3.595  0.2491  1.1486  0.8908
  558MOL0     C75205   7.095   1.666   3.510  0.4684  0.3247  0.2790
  558MOL0     C75206   6.996   1.740   3.602 -0.1123  0.2085  0.6941
  558MOL0     C75207   7.052   1.853   3.677  0.0880 -0.9507  0.6835
  558MOL0     C75208   6.946   1.930   3.750 -0.2406 -0.3783 -0.6569
  558MOL0     C75209   6.995   2.052   3.836  0.1073 -0.4287 -0.2029
  558MOL0     C75210   6.875   2.125   3.902 -0.3250 -0.3659 -0.8751
  558MOL0     C75211   6.872   2.273   3.850  0.3263  0.1927 -0.6219
  558MOL0     N75212   6.961   2.363   3.919  0.1253  0.1431 -0.0299
  558MOL0     C75213   6.937   2.453   4.018  0.4169 -0.3759 -1.1720
  558MOL0     C75214   7.044   2.537   4.029  0.0073  0.5094 -0.2763
  558MOL0     C75215   7.074   2.647   4.128  0.0294  0.6278  0.2365
  558MOL0     C75216   6.943   2.703   4.189 -0.2774  0.3003 -0.2871
  558MOL0     C75217   6.963   2.780   4.326  0.9881  0.2616 -0.1189
  558MOL0     C75218   6.843   2.870   4.355 -0.2878 -0.1848  0.8830
  558MOL0     O75219   6.733   2.793   4.407  0.8254 -0.1621  0.7951
  558MOL0     C75220   6.718   2.750   4.536 -0.9891 -0.0640  1.1579
  558MOL0     C75221   6.622   2.660   4.565  1.0827 -0.0892 -0.2995
  558MOL0     C75222   6.606   2.615   4.700  0.3925  0.2490  0.5820
  558MOL0     C75223   6.509   2.499   4.714  0.6035 -0.5833  0.4630
  558MOL0     C75224   6.669   2.678   4.803  0.2260 -0.9295  0.5199
  558MOL0     C75225   6.653   2.652   4.949 -0.0903 -0.4493  0.6281
  558MOL0     O75226   6.538   2.611   4.986  0.1646  0.5948 -0.5036
  558MOL0     C75227   6.500   2.610   5.116  1.1278 -1.1583 -0.0115
  558MOL0     C75228   6.409   2.704   5.159 -0.9456 -0.0959  0.8625
  558MOL0     C75229   6.379   2.706   5.295  0.4718  0.2136 -1.3887
  558MOL0     C75230   6.430   2.608   5.391 -0.2157  0.0970 -0.2737
  558MOL0     O75231   6.398   2.591   5.513  0.7478 -0.0418  0.6068
  558MOL0     C75232   6.268   2.632   5.552  0.8035  0.4315 -0.5021
  558MOL0     C75233   6.261   2.591   5.703 -0.1276  0.1160 -0.1258
  558MOL0     C75234   6.356   2.682   5.794 -0.2386 -0.4668  0.2107
  558MOL0     C75235   6.375   2.630   5.939  0.4736  0.4797 -0.2978
  558MOL0     C75236   6.471   2.704   6.032 -0.2387  0.1554 -0.1592
  558MOL0     C75237   6.413   2.832   6.079  0.9407 -0.1323 -1.5899
  558MOL0     C75238   6.526   2.921   6.139  0.5321  0.2863  0.8749
  558MOL0     C75239   6.476   3.043   6.213  0.1871  0.2390 -1.2098
  558MOL0    Cl75240   6.617   3.160   6.216  0.7450  0.1701  0.0004
  558MOL0     C75241   6.543   2.532   5.348 -0.1749  0.1290  0.4793
  558MOL0     C75242   6.567   2.521   5.207 -0.6684 -0.6953 -1.2393
  558MOL0     O75243   6.750   2.671   5.023  0.2462 -0.3660 -0.2321
  558MOL0     C75244   6.786   2.761   4.768  0.2050 -1.0872  0.6032
  558MOL0     C75245   6.800   2.804   4.637  0.3687  0.8205 -0.1238
  558MOL0     N75246   7.137   2.507   3.930 -0.3715 -0.5365 -0.2415
  558MOL0     N75247   7.086   2.401   3.870 -0.4637  1.1924  0.3512
  558MOL0     C75248   7.299   1.589   3.308  0.2112  0.0366 -0.7171
  558MOL0     C75249   7.390   1.662   3.241  0.6471 -1.2162  0.2243
  558MOL0     C75250   7.722   1.872   3.029 -0.3021 -0.3018  0.2516
  558MOL0     C75251   7.771   1.969   3.120  0.6021 -0.7638  0.1173
  558MOL0     C75252   7.861   2.069   3.084 -0.4258 -0.4310 -0.1375
  558MOL0     C75253   7.918   2.067   2.957 -0.1325 -0.4607  1.1335
  558MOL0     O75254   8.026   2.159   2.936  0.3066  0.1029  0.0082
  558MOL0     C75255   8.088   2.162   2.806 -0.1783 -0.8592 -0.6866
  558MOL0     C75256   8.189   2.271   2.815 -1.0954 -0.2113 -0.5618
  558MOL0     C75257   8.130   2.406   2.859 -0.4042  0.3625  0.2932
  558MOL0     C75258   8.114   2.508   2.747  0.7425 -1.0514  0.0043
  558MOL0     C75259   8.062   2.640   2.795  0.1252 -0.5237  0.1207
  558MOL0     C75260   8.005   2.747   2.826  0.9591  0.9711  0.3912
  558MOL0     C75261   7.877   1.975   2.861  0.1926 -0.2310  0.9036
  558MOL0     C75262   7.770   1.887   2.896  0.0192 -0.8115  0.7097
  558MOL0     H75263   7.660   1.644   3.447  0.3666 -0.1646 -0.4113
  558MOL0     H75264   7.499   1.491   3.568 -1.9338  2.3059  2.5118
  558MOL0     H75265   7.115   1.513   3.660 -0.7315 -0.1405 -1.1652
  558MOL0     H75266   7.242   1.636   3.660 -0.4308  0.4209  2.3083
  558MOL0     H75267   7.150   1.733   3.443 -0.0487  0.7863  0.2988
  558MOL0     H75268   7.045   1.614   3.428 -2.3460  2.6389  0.3626
  558MOL0     H75269   6.918   1.780   3.536  2.0472  1.1592 -1.4124
  558MOL0     H75270   6.951   1.667   3.670  0.4997 -1.1829 -0.3460
  558MOL0     H75271   7.136   1.839   3.746  0.9828  3.3385  0.7811
  558MOL0     H75272   7.099   1.922   3.606  0.7612  0.3935  2.3548
  558MOL0     H75273   6.879   1.981   3.680  1.0836  3.5034  0.6463
  558MOL0     H75274   6.883   1.868   3.814  1.5651 -1.4675  0.1290
  558MOL0     H75275   7.063   2.021   3.915 -0.0687  1.7617  0.8868
  558MOL0     H75276   7.049   2.115   3.764  1.2379 -2.0994 -0.8693
  558MOL0     H75277   6.786   2.066   3.878 -1.4760  1.0170 -0.1581
  558MOL0     H75278   6.889   2.131   4.010 -3.6112 -1.7596 -0.2428
  558MOL0     H75279   6.772   2.315   3.863 -0.3942 -1.0802 -1.7468
  558MOL0     H75280   6.894   2.286   3.744  2.2742 -0.8407 -0.3934
  558MOL0     H75281   6.845   2.458   4.076 -0.5877 -1.2945 -2.5948
  558MOL0     H75282   7.132   2.608   4.212  0.0666  0.9989  0.3830
  558MOL0     H75283   7.127   2.735   4.090 -1.6927  1.7098  0.2265
  558MOL0     H75284   6.872   2.621   4.200 -1.7770  1.1911 -2.5523
  558MOL0     H75285   6.903   2.766   4.109  4.8162  1.8729 -1.9996
  558MOL0     H75286   7.047   2.850   4.328  1.2323 -0.0412  0.8773
  558MOL0     H75287   6.975   2.710   4.409 -0.4778  0.6074  0.4222
  558MOL0     H75288   6.808   2.909   4.259  0.5441 -1.0703  0.2011
  558MOL0     H75289   6.868   2.953   4.421  0.9141  0.8976 -0.8488
  558MOL0     H75290   6.551   2.623   4.493  3.0484  1.1746 -3.0567
  558MOL0     H75291   6.484   2.475   4.611 -1.0564 -2.7943  1.2865
  558MOL0     H75292   6.538   2.407   4.766  0.4958  0.6727  2.9025
  558MOL0     H75293   6.413   2.541   4.749  0.2671  0.0206 -1.1204
  558MOL0     H75294   6.351   2.770   5.095 -0.9701  0.3006  1.2933
  558MOL0     H75295   6.297   2.771   5.326  0.3230  0.6191 -2.5646
  558MOL0     H75296   6.257   2.740   5.541  0.2178  0.5809  1.3497
  558MOL0     H75297   6.188   2.579   5.500 -0.0155 -0.3791  1.5132
  558MOL0     H75298   6.158   2.600   5.739 -0.1328  0.2620 -0.1759
  558MOL0     H75299   6.283   2.485   5.715  1.9554  0.6557  1.5421
  558MOL0     H75300   6.314   2.783   5.789 -1.4747 -1.0162 -0.8439
  558MOL0     H75301   6.460   2.693   5.762 -0.3308 -1.0847 -0.3376
  558MOL0     H75302   6.276   2.635   5.986  1.1806  2.0148  1.1466
  558MOL0     H75303   6.403   2.524   5.933  0.0993  0.4643 -2.0403
  558MOL0     H75304   6.566   2.714   5.979  1.1034 -0.3161  2.0466
  558MOL0     H75305   6.486   2.641   6.120 -1.3846  0.0846  0.0090
  558MOL0     H75306   6.383   2.885   5.988 -0.1192  1.5144 -0.3354
  558MOL0     H75307   6.324   2.812   6.139  2.8248  1.0174  1.9439
  558MOL0     H75308   6.597   2.942   6.058 -2.5111 -2.9160 -3.0539
  558MOL0     H75309   6.584   2.861   6.210 -1.3314 -0.4769  1.8083
  558MOL0     H75310   6.445   3.022   6.315 -0.2649  3.6495 -0.5571
  558MOL0     H75311   6.396   3.100   6.166 -1.7760 -0.3176  1.2802
  558MOL0     H75312   6.615   2.484   5.413  0.0318  1.9044  1.6258
  558MOL0     H75313   6.644   2.451   5.178  1.7348 -0.4234  3.5508
  558MOL0     H75314   6.859   2.803   4.837  1.3321  0.6515 -1.5050
  558MOL0     H75315   6.886   2.868   4.622  2.2345 -1.7217 -1.0242
  558MOL0     H75316   7.200   1.596   3.264  0.5814 -0.5012 -1.6706
  558MOL0     H75317   7.374   1.709   3.144  6.8432  3.5389  0.8663
  558MOL0     H75318   7.734   1.972   3.222  0.8945 -1.2019  0.2423
  558MOL0     H75319   7.895   2.147   3.151  2.7864 -1.7970 -0.0306
  558MOL0     H75320   8.135   2.067   2.780 -0.1434 -1.1785  0.4605
  558MOL0     H75321   8.018   2.190   2.726  3.4703 -0.1580 -3.8999
  558MOL0     H75322   8.236   2.273   2.716 -3.3736  1.5927 -1.7051
  558MOL0     H75323   8.259   2.250   2.896  1.9494  1.9445 -2.3976
  558MOL0     H75324   8.200   2.447   2.932  2.7568  0.2053 -2.3672
  558MOL0     H75325   8.032   2.386   2.903  0.1357 -0.7017  1.0512
  558MOL0     H75326   8.043   2.468   2.674 -0.4096 -0.9724  1.0524
  558MOL0     H75327   8.203   2.521   2.684  0.8026 -0.8588  0.1278
  558MOL0     H75328   7.956   2.839   2.853  3.5529  3.0258 -1.3346
  558MOL0     H75329   7.920   1.968   2.762  0.1786 -1.2422  0.9643
  558MOL0     H75330   7.744   1.810   2.824 -2.5607  0.9780 -0.4607
  559MOL0     O75331  11.372   7.110  11.214 -0.2881 -0.2499  0.1045
  559MOL0     C75332  11.280   7.050  11.266  0.1064 -0.1059 -0.3375
  559MOL0     O75333  11.301   6.935  11.331  1.1971 -0.2885 -0.5896
  559MOL0     C75334  11.415   6.866  11.308  1.0420 -0.7156  0.2971
  559MOL0     C75335  11.511   6.864  11.411  0.4326  0.3525 -0.2566
  559MOL0     C75336  11.628   6.785  11.384 -0.2722 -0.1746  0.3423
  559MOL0     C75337  11.645   6.706  11.273  0.8260  0.4662  0.4706
  559MOL0     O75338  11.746   6.623  11.255 -0.0902  0.7300 -0.4102
  559MOL0     C75339  11.706   6.479  11.242 -0.4177 -0.8894 -0.8060
  559MOL0     C75340  11.828   6.389  11.257  0.7921  0.1244  0.5474
  559MOL0     C75341  11.782   6.235  11.247  0.2040 -0.0297 -0.0009
  559MOL0     C75342  11.817   6.174  11.380 -0.9005 -0.1882  0.0595
  559MOL0     C75343  11.796   6.021  11.378  0.6875 -0.2594 -0.4154
  559MOL0     C75344  11.819   5.961  11.522 -0.2865  1.8086 -0.2317
  559MOL0     C75345  11.839   5.805  11.503 -0.1441  0.6896 -0.7699
  559MOL0     C75346  11.698   5.729  11.505  1.1139 -0.4562 -0.4175
  559MOL0     N75347  11.711   5.626  11.609  0.2384 -0.7646  0.4123
  559MOL0     C75348  11.650   5.640  11.731  1.0686  0.7493 -0.1020
  559MOL0     C75349  11.657   5.518  11.786 -0.3050  0.1007 -0.2617
  559MOL0     C75350  11.596   5.495  11.923 -0.4832  0.7895 -0.0810
  559MOL0     C75351  11.447   5.462  11.912 -0.0619  1.3690 -0.5607
  559MOL0     C75352  11.383   5.393  12.032  0.3488 -0.5458 -0.5247
  559MOL0     C75353  11.355   5.493  12.141 -0.3150 -0.7033  0.4395
  559MOL0     O75354  11.305   5.416  12.254 -0.6752 -0.4593 -0.1686
  559MOL0     C75355  11.208   5.472  12.332  0.4096 -0.8274 -0.1999
  559MOL0     C75356  11.183   5.416  12.463 -0.3370  0.3795 -0.0944
  559MOL0     C75357  11.094   5.464  12.557  0.3983 -0.8094  1.2312
  559MOL0     C75358  11.110   5.385  12.688 -0.4703 -0.5844 -0.8965
  559MOL0     C75359  11.007   5.573  12.524 -0.2402  1.0338 -0.5323
  559MOL0     C75360  10.922   5.635  12.622  0.6546  0.2009  0.1797
  559MOL0     O75361  10.834   5.556  12.698 -0.3437  0.1815  0.4938
  559MOL0     C75362  10.736   5.621  12.765 -0.7452  0.3208 -0.3484
  559MOL0     C75363  10.635   5.692  12.701 -0.6960 -0.4026 -0.4792
  559MOL0     C75364  10.519   5.729  12.774 -0.6795  0.0939 -0.4248
  559MOL0     C75365  10.508   5.694  12.913  0.0566 -0.4764  0.1640
  559MOL0     O75366  10.399   5.735  12.977  0.0651 -0.3195 -0.8117
  559MOL0     C75367  10.414   5.794  13.115  1.2755  0.5557  0.1249
  559MOL0     C75368  10.483   5.922  13.114  0.1887 -0.0135  0.7077
  559MOL0     C75369  10.451   6.010  13.230 -0.3098  0.8047 -1.1538
  559MOL0     C75370  10.528   6.132  13.236  0.3633 -0.4331 -0.0361
  559MOL0     C75371  10.543   6.188  13.378  1.4444  0.3327  0.5744
  559MOL0     C75372  10.413   6.249  13.431 -0.6574  0.3925 -0.1898
  559MOL0     C75373  10.423   6.340  13.556  0.4779  0.3978 -0.7089
  559MOL0     C75374  10.305   6.434  13.570  0.2761  0.4508 -0.5896
  559MOL0    Cl75375  10.146   6.343  13.571 -0.0529  0.0676 -0.7567
  559MOL0     C75376  10.612   5.619  12.973 -0.1120 -0.0434 -0.6596
  559MOL0     C75377  10.726   5.588  12.897  0.5413  0.1681 -0.0894
  559MOL0     O75378  10.938   5.750  12.649  0.4794 -0.1938 -0.4358
  559MOL0     C75379  11.044   5.637  12.395  0.9014 -0.5327 -0.1896
  559MOL0     C75380  11.122   5.580  12.302 -1.4104 -0.2078  0.7167
  559MOL0     N75381  11.698   5.426  11.696  0.1116 -0.9899  0.7153
  559MOL0     N75382  11.726   5.495  11.579 -0.0816  0.1220 -0.6864
  559MOL0     C75383  11.543   6.706  11.174 -0.2864  0.3818 -0.4711
  559MOL0     C75384  11.423   6.784  11.196 -0.5170  0.2366  0.0521
  559MOL0     C75385  11.145   7.117  11.262 -0.2811  0.5760  0.2504
  559MOL0     C75386  11.043   7.049  11.326  0.6289 -0.3005  0.7264
  559MOL0     C75387  10.912   7.096  11.324 -0.3540  0.2393  0.0505
  559MOL0     C75388  10.880   7.219  11.259 -0.4014  0.2179  0.3524
  559MOL0     O75389  10.758   7.279  11.227 -1.0794  0.0629 -0.9615
  559MOL0     C75390  10.637   7.207  11.243 -0.9529 -1.2975 -0.6858
  559MOL0     C75391  10.527   7.279  11.163 -0.0570  0.2153 -0.1897
  559MOL0     C75392  10.490   7.422  11.200  0.5463  0.2490  0.6527
  559MOL0     C75393  10.411   7.495  11.091  1.0847  0.2555 -0.0350
  559MOL0     C75394  10.274   7.453  11.090 -0.2318  0.6826  0.1984
  559MOL0     C75395  10.154   7.434  11.076  0.6239  0.2486  0.1731
  559MOL0     C75396  10.990   7.294  11.207 -0.1451 -0.5420 -0.4049
  559MOL0     C75397  11.120   7.242  11.197 -0.8192  0.6048 -0.3023
  559MOL0     H75398  11.489   6.918  11.502  3.1752  1.0046  0.1048
  559MOL0     H75399  11.703   6.790  11.463 -0.5081  2.7754  0.4683
  559MOL0     H75400  11.627   6.461  11.316  0.9150  3.6692  2.1874
  559MOL0     H75401  11.675   6.482  11.137 -0.4808  1.3039 -0.7694
  559MOL0     H75402  11.907   6.399  11.182  3.1009 -2.9729  2.3223
  559MOL0     H75403  11.882   6.411  11.349  3.1812 -0.9428 -0.4953
  559MOL0     H75404  11.674   6.220  11.235 -0.4831  2.2193  2.4858
  559MOL0     H75405  11.839   6.192  11.164 -0.2135  1.0291 -0.8506
  559MOL0     H75406  11.924   6.192  11.390 -0.2327 -1.2152 -3.6996
  559MOL0     H75407  11.754   6.217  11.459  0.0542  1.7894 -0.2069
  559MOL0     H75408  11.698   5.986  11.345 -0.7418 -0.2572  3.3476
  559MOL0     H75409  11.876   5.981  11.316 -0.5136 -1.5586 -1.1777
  559MOL0     H75410  11.907   6.012  11.560  0.1264  1.2698 -0.4512
  559MOL0     H75411  11.737   5.986  11.590  0.7558  0.9257  1.4049
  559MOL0     H75412  11.898   5.785  11.413  0.2903  0.9705 -0.5534
  559MOL0     H75413  11.902   5.761  11.581  1.3344  0.3450 -2.1005
  559MOL0     H75414  11.683   5.697  11.402  1.8269 -0.4507 -0.5277
  559MOL0     H75415  11.623   5.800  11.540 -0.9704 -3.1989  1.0951
  559MOL0     H75416  11.608   5.732  11.771 -0.7975  0.2233 -0.7623
  559MOL0     H75417  11.628   5.403  11.973 -1.3672  2.1271  3.2639
  559MOL0     H75418  11.621   5.569  12.000  1.8849 -1.6690  1.7161
  559MOL0     H75419  11.432   5.392  11.830  1.2545 -0.5633  0.7381
  559MOL0     H75420  11.398   5.557  11.893 -1.1204  0.8742 -0.3830
  559MOL0     H75421  11.445   5.320  12.085  1.1937  2.0649  2.3541
  559MOL0     H75422  11.288   5.349  12.000 -0.0841 -1.1523  1.4416
  559MOL0     H75423  11.292   5.567  12.092 -0.1164  0.6376  2.1059
  559MOL0     H75424  11.448   5.546  12.165 -0.0401 -0.0431 -1.8655
  559MOL0     H75425  11.254   5.337  12.486 -0.7130  0.2984  0.8378
  559MOL0     H75426  11.172   5.296  12.674 -1.4392 -1.0952 -2.1115
  559MOL0     H75427  11.157   5.445  12.767 -2.0431 -1.5970  0.8818
  559MOL0     H75428  11.018   5.353  12.739 -0.5124  0.9069  0.0209
  559MOL0     H75429  10.635   5.735  12.601 -0.5142  0.6015 -0.0656
  559MOL0     H75430  10.437   5.780  12.725  1.1139  1.3005 -2.3594
  559MOL0     H75431  10.316   5.785  13.162  1.2411 -1.0284 -0.1923
  559MOL0     H75432  10.468   5.723  13.178 -1.5196 -2.2193 -0.3025
  559MOL0     H75433  10.590   5.896  13.116  0.8063  2.0787 -1.2473
  559MOL0     H75434  10.474   5.967  13.015 -4.6170 -0.5836  0.6946
  559MOL0     H75435  10.469   5.947  13.318  0.3907  1.1287 -1.0632
  559MOL0     H75436  10.343   6.020  13.218 -0.4910  0.3003 -0.0742
  559MOL0     H75437  10.625   6.112  13.189  0.2086  2.0085 -1.5581
  559MOL0     H75438  10.490   6.209  13.168  1.4279 -0.2750 -0.4809
  559MOL0     H75439  10.610   6.275  13.373 -1.1392  2.3561 -2.1020
  559MOL0     H75440  10.583   6.123  13.457  1.6698 -0.6323 -0.3150
  559MOL0     H75441  10.366   6.290  13.341 -2.7575 -0.1349  0.6109
  559MOL0     H75442  10.343   6.169  13.456  0.8726 -1.1674 -0.6505
  559MOL0     H75443  10.517   6.393  13.543 -0.6681  2.0612 -2.9693
  559MOL0     H75444  10.430   6.277  13.645  0.0577  1.7899  0.3511
  559MOL0     H75445  10.301   6.480  13.471  0.3643 -1.2212 -1.4048
  559MOL0     H75446  10.315   6.494  13.661  3.6489 -0.8289  0.0262
  559MOL0     H75447  10.600   5.583  13.075 -0.4183 -1.4293 -1.1633
  559MOL0     H75448  10.802   5.529  12.946  0.0757 -0.2723  0.1159
  559MOL0     H75449  10.980   5.721  12.370  0.1389 -1.4516 -1.4312
  559MOL0     H75450  11.134   5.644  12.215 -0.7183  0.5635  1.3561
  559MOL0     H75451  11.562   6.646  11.085  2.0628  0.2010  0.1024
  559MOL0     H75452  11.329   6.770  11.145 -2.4936  0.4912  3.3527
  559MOL0     H75453  11.054   6.950  11.369 -1.0192 -0.9199 -0.1950
  559MOL0     H75454  10.828   7.043  11.367 -0.2435  1.0369  1.2900
  559MOL0     H75455  10.651   7.101  11.219  2.8872 -0.9826 -0.5804
  559MOL0     H75456  10.619   7.232  11.348 -0.5697  0.2489 -0.9528
  559MOL0     H75457  10.440   7.215  11.183 -0.4082  0.4956 -0.7854
  559MOL0     H75458  10.552   7.265  11.058 -3.1066 -2.6275 -0.6943
  559MOL0     H75459  10.584   7.478  11.207  0.8861  0.1108 -1.8144
  559MOL0     H75460  10.429   7.429  11.291  1.6384 -0.5762  1.4714
  559MOL0     H75461  10.455   7.492  10.991  2.8354  1.3149  0.6343
  559MOL0     H75462  10.402   7.600  11.123 -1.2385  0.3835 -0.9577
  559MOL0     H75463  10.050   7.408  11.065  0.9062 -0.2206 -1.7246
  559MOL0     H75464  10.980   7.394  11.167  2.6878  0.2495  0.6477
  559MOL0     H75465  11.195   7.288  11.133 -0.9033 -0.7243 -1.3921
  560MOL0     O75466   8.220   7.240  10.431 -0.7428  0.0498 -0.8056
  560MOL0     C75467   8.114   7.180  10.449 -0.7744  0.6397 -0.7269
  560MOL0     O75468   7.998   7.200  10.375  0.1376  0.6537 -0.0497
  560MOL0     C75469   8.003   7.244  10.247  0.2244  0.2185 -0.8006
  560MOL0     C75470   8.041   7.168  10.136 -0.1238 -0.3756 -0.1545
  560MOL0     C75471   8.025   7.224  10.010 -0.0106 -0.2416 -0.0216
  560MOL0     C75472   7.974   7.355   9.985  0.8995  0.7340  0.2289
  560MOL0     O75473   7.960   7.409   9.862 -0.7182  0.5683  0.3223
  560MOL0     C75474   8.057   7.369   9.755  0.7071  0.8429  0.2438
  560MOL0     C75475   8.200   7.413   9.789 -0.3198  0.0789  0.0196
  560MOL0     C75476   8.297   7.408   9.665  0.6801  0.8451 -0.3675
  560MOL0     C75477   8.354   7.266   9.669  0.0910 -0.5965 -0.4442
  560MOL0     C75478   8.445   7.253   9.544  0.3797  0.6334  0.8115
  560MOL0     C75479   8.588   7.277   9.582 -0.8425 -0.3210  0.0550
  560MOL0     C75480   8.658   7.336   9.457  0.1313  0.8321 -0.8956
  560MOL0     C75481   8.815   7.338   9.474 -0.5501  0.4882 -0.0779
  560MOL0     N75482   8.862   7.420   9.582 -0.8643 -0.4681  0.2234
  560MOL0     C75483   8.840   7.550   9.618  0.6594  0.0645  0.2084
  560MOL0     C75484   8.890   7.569   9.744 -0.1593  0.4654  0.5564
  560MOL0     C75485   8.883   7.697   9.812  0.6126 -1.0610  0.0077
  560MOL0     C75486   8.739   7.751   9.835  0.1872 -1.6159 -0.7443
  560MOL0     C75487   8.647   7.647   9.886  0.7190  0.1758 -0.4946
  560MOL0     C75488   8.684   7.622  10.038  0.2007 -0.4405  0.3780
  560MOL0     O75489   8.565   7.552  10.085 -0.5528  0.3270 -0.5981
  560MOL0     C75490   8.569   7.409  10.090 -0.3258 -0.6481 -0.5365
  560MOL0     C75491   8.680   7.327  10.053  0.4054  0.2765 -0.2310
  560MOL0     C75492   8.682   7.190  10.070 -0.1859 -0.0770 -0.9878
  560MOL0     C75493   8.793   7.112  10.014  0.1464 -0.5857 -0.0649
  560MOL0     C75494   8.569   7.124  10.140  0.8457  0.3735  0.3247
  560MOL0     C75495   8.554   6.979  10.172 -0.9795 -0.6519 -1.1181
  560MOL0     O75496   8.425   6.946  10.212 -0.3107 -0.2434 -0.6657
  560MOL0     C75497   8.388   6.818  10.249 -0.8641  0.1767  0.9933
  560MOL0     C75498   8.286   6.812  10.340 -0.4349 -0.3256 -0.3561
  560MOL0     C75499   8.245   6.694  10.395 -0.4413  1.0805 -0.8291
  560MOL0     C75500   8.306   6.571  10.351  0.0327 -0.6954  0.0795
  560MOL0     O75501   8.257   6.459  10.402 -0.3504 -0.1857  0.3708
  560MOL0     C75502   8.347   6.345  10.393  1.2348  0.2707 -0.2877
  560MOL0     C75503   8.308   6.230  10.487 -0.1737  0.6609  0.4997
  560MOL0     C75504   8.331   6.248  10.642 -0.1559  0.0504 -0.8183
  560MOL0     C75505   8.351   6.115  10.696 -0.0295  1.2416 -0.3463
  560MOL0     C75506   8.399   6.110  10.840 -0.6147  0.4016  1.4883
  560MOL0     C75507   8.304   6.181  10.941  0.1678  0.8183 -0.6490
  560MOL0     C75508   8.183   6.102  10.998  1.0941 -0.0247  0.5191
  560MOL0     C75509   8.215   5.988  11.089  0.5786  0.5376 -0.2097
  560MOL0    Cl75510   8.337   6.001  11.204 -1.1145 -0.2299 -0.4837
  560MOL0     C75511   8.401   6.576  10.248  0.5870 -0.6386  1.5169
  560MOL0     C75512   8.437   6.701  10.189 -0.2541  0.1595  0.7983
  560MOL0     O75513   8.655   6.906  10.157 -0.6947 -0.2166  0.1363
  560MOL0     C75514   8.458   7.213  10.171 -0.2970  0.9270 -0.0662
  560MOL0     C75515   8.465   7.349  10.151  0.1058 -0.4922 -0.4114
  560MOL0     N75516   8.936   7.445   9.792  0.3739 -1.2302 -0.6007
  560MOL0     N75517   8.923   7.367   9.691 -0.1838 -0.4853  0.3357
  560MOL0     C75518   7.941   7.430  10.103  0.0579  0.3555 -0.5926
  560MOL0     C75519   7.952   7.375  10.233  0.0880 -0.4181  1.1772
  560MOL0     C75520   8.107   7.088  10.570  0.5508 -0.4621  0.3808
  560MOL0     C75521   8.212   7.072  10.668  0.1802 -0.5382 -0.2939
  560MOL0     C75522   8.210   6.975  10.768  0.5385 -0.4822  0.6791
  560MOL0     C75523   8.100   6.889  10.786 -0.3079 -0.0703 -0.4744
  560MOL0     O75524   8.085   6.805  10.894 -0.3673 -0.0924  0.3263
  560MOL0     C75525   8.187   6.702  10.909  0.1654  0.1604  0.0975
  560MOL0     C75526   8.155   6.587  10.809  0.6944 -0.2270  0.6590
  560MOL0     C75527   8.007   6.537  10.815 -0.5819  0.3370 -0.0250
  560MOL0     C75528   8.000   6.395  10.768  0.9212 -0.1573  0.0471
  560MOL0     C75529   7.858   6.336  10.793 -0.3692 -0.0673  0.6232
  560MOL0     C75530   7.753   6.284  10.817  1.2195 -0.2427 -0.1101
  560MOL0     C75531   7.998   6.898  10.692 -0.6665  0.1478 -0.0990
  560MOL0     C75532   8.004   6.993  10.591  0.5789 -0.0334 -0.4145
  560MOL0     H75533   8.071   7.065  10.151  0.6629 -0.5685 -2.6692
  560MOL0     H75534   8.049   7.157   9.927 -3.5010 -1.5553 -0.1087
  560MOL0     H75535   8.056   7.261   9.736  3.0062  0.2527  2.7744
  560MOL0     H75536   8.024   7.408   9.658 -0.4887 -0.0591  0.2699
  560MOL0     H75537   8.189   7.520   9.811  0.5147 -0.4948  4.1088
  560MOL0     H75538   8.242   7.362   9.877  0.4481  1.1172  0.2698
  560MOL0     H75539   8.241   7.430   9.573 -1.5885  0.4433  0.8394
  560MOL0     H75540   8.374   7.483   9.681  0.4287  1.0171  0.0593
  560MOL0     H75541   8.419   7.261   9.757 -0.6857  1.6909  0.3369
  560MOL0     H75542   8.277   7.188   9.674  1.0323 -1.4723  1.2037
  560MOL0     H75543   8.426   7.149   9.516 -0.9071 -0.3753  4.8370
  560MOL0     H75544   8.415   7.316   9.460 -0.3440  1.4244  1.6419
  560MOL0     H75545   8.592   7.351   9.663  1.7494  1.0333 -1.1604
  560MOL0     H75546   8.632   7.181   9.608  2.4596  0.6517 -1.3349
  560MOL0     H75547   8.625   7.272   9.375 -0.0896  0.8960 -0.8570
  560MOL0     H75548   8.628   7.441   9.447  0.3530  1.2258  1.7746
  560MOL0     H75549   8.865   7.363   9.380  0.3265 -1.6566 -0.2537
  560MOL0     H75550   8.825   7.232   9.499 -1.6404  1.0667  3.3299
  560MOL0     H75551   8.793   7.621   9.551 -2.2465 -1.1998  0.7460
  560MOL0     H75552   8.925   7.688   9.912 -1.4240 -2.6833  0.7912
  560MOL0     H75553   8.942   7.774   9.762  1.9770 -1.7349  0.5397
  560MOL0     H75554   8.705   7.797   9.742  1.4268 -0.0739 -0.4763
  560MOL0     H75555   8.742   7.826   9.915 -2.2390  0.8748 -2.7742
  560MOL0     H75556   8.653   7.558   9.821 -3.1619 -0.8529  0.3097
  560MOL0     H75557   8.545   7.686   9.879 -0.1604 -1.8140  0.4521
  560MOL0     H75558   8.689   7.722  10.081 -0.2703 -0.3723  0.2788
  560MOL0     H75559   8.781   7.572  10.047  0.0038 -0.8804  0.0631
  560MOL0     H75560   8.763   7.377  10.003 -0.1945  1.0869 -0.4548
  560MOL0     H75561   8.845   7.165   9.934 -0.7405 -1.8865 -1.5426
  560MOL0     H75562   8.860   7.085  10.097 -0.6513 -2.0255  0.1462
  560MOL0     H75563   8.739   7.027   9.971 -1.5854  0.6381 -0.3877
  560MOL0     H75564   8.236   6.899  10.382  0.6582  0.4272 -0.5878
  560MOL0     H75565   8.159   6.697  10.460 -0.1687  1.7709 -0.4979
  560MOL0     H75566   8.337   6.306  10.291 -0.7641  2.0933 -0.8526
  560MOL0     H75567   8.453   6.368  10.403  1.3504 -0.9210  1.7113
  560MOL0     H75568   8.200   6.237  10.471 -0.3358 -2.2223 -0.1991
  560MOL0     H75569   8.352   6.147  10.430  0.6281  2.7352 -2.0855
  560MOL0     H75570   8.241   6.293  10.685  0.5417 -0.0889  0.9038
  560MOL0     H75571   8.420   6.310  10.653  1.6661 -2.2683 -1.7442
  560MOL0     H75572   8.271   6.047  10.665  0.1581  2.0150 -2.7716
  560MOL0     H75573   8.435   6.082  10.633  0.3497  2.8961 -0.7482
  560MOL0     H75574   8.499   6.155  10.838 -0.1567 -0.6200  0.3765
  560MOL0     H75575   8.424   6.007  10.868  2.9669  0.5679 -0.5228
  560MOL0     H75576   8.364   6.206  11.029  0.1432 -2.0654  0.2747
  560MOL0     H75577   8.265   6.276  10.904 -2.1164  0.5660  0.9275
  560MOL0     H75578   8.124   6.074  10.910  0.4279 -1.0971  1.2956
  560MOL0     H75579   8.119   6.171  11.055 -0.1453 -0.4024 -0.3675
  560MOL0     H75580   8.237   5.902  11.025 -2.2000  0.1645 -0.7895
  560MOL0     H75581   8.119   5.966  11.137 -0.7302  1.5857 -2.2249
  560MOL0     H75582   8.445   6.485  10.209  0.5425  0.0919 -0.3247
  560MOL0     H75583   8.493   6.693  10.097 -1.7230 -0.6917 -0.0534
  560MOL0     H75584   8.369   7.162  10.206  0.8152 -0.6292  0.5713
  560MOL0     H75585   8.372   7.400  10.175 -0.4944 -2.4178  1.7474
  560MOL0     H75586   7.891   7.526  10.116 -0.3378 -0.1435  2.1959
  560MOL0     H75587   7.924   7.442  10.313 -1.7281 -2.3778  2.2754
  560MOL0     H75588   8.285   7.152  10.656  0.1414 -0.5446 -0.5840
  560MOL0     H75589   8.305   6.957  10.816  0.6703 -1.0259  0.2280
  560MOL0     H75590   8.281   6.752  10.882 -0.6120  1.8520  0.4115
  560MOL0     H75591   8.196   6.660  11.010  1.9271 -0.5640 -0.3096
  560MOL0     H75592   8.220   6.501  10.825 -1.6498 -2.1513  0.2494
  560MOL0     H75593   8.177   6.623  10.708 -2.6690  1.6563  0.4488
  560MOL0     H75594   7.946   6.599  10.749  2.5063  2.7153 -0.8576
  560MOL0     H75595   7.958   6.550  10.912 -0.1233 -0.0089  0.2523
  560MOL0     H75596   8.060   6.325  10.826  0.3854 -1.4303 -0.8957
  560MOL0     H75597   8.027   6.393  10.662 -0.5332  1.7880 -0.4293
  560MOL0     H75598   7.659   6.241  10.847  1.2916  1.0240  2.1349
  560MOL0     H75599   7.919   6.824  10.704 -0.7373  0.5129  2.0678
  560MOL0     H75600   7.923   6.986  10.520  1.4449  4.1608 -2.1723
  561MOL0     O75601   5.338   8.324  11.311 -0.2658  0.1249 -0.4439
  561MOL0     C75602   5.240   8.394  11.306 -0.0703 -0.0295 -0.2901
  561MOL0     O75603   5.243   8.521  11.329  1.1170  0.0752  0.3418
  561MOL0     C75604   5.359   8.600  11.320  0.2738 -0.3492  0.7171
  561MOL0     C75605   5.424   8.608  11.199  0.2471 -0.3897  0.3509
  561MOL0     C75606   5.561   8.641  11.198  1.1077 -0.8658 -0.9001
  561MOL0     C75607   5.633   8.684  11.316 -0.1852  0.1907 -0.6406
  561MOL0     O75608   5.773   8.705  11.306  0.9463 -0.0827  0.2398
  561MOL0     C75609   5.842   8.739  11.426  0.5247 -0.5019  0.2889
  561MOL0     C75610   5.885   8.624  11.513  0.7057  0.1315  1.1922
  561MOL0     C75611   5.999   8.657  11.614  0.1613  0.7230 -0.8338
  561MOL0     C75612   6.143   8.652  11.553 -0.1147 -1.2138 -1.0634
  561MOL0     C75613   6.238   8.629  11.666  0.9917 -0.2046 -0.6970
  561MOL0     C75614   6.384   8.648  11.635 -0.5796 -0.8158 -0.4045
  561MOL0     C75615   6.435   8.776  11.705  0.8910 -0.2890 -0.4053
  561MOL0     C75616   6.569   8.819  11.664  0.0003 -1.4037  0.3171
  561MOL0     N75617   6.586   8.827  11.517  0.1110  0.6313 -0.1688
  561MOL0     C75618   6.647   8.731  11.437 -1.3541 -0.7962 -0.5959
  561MOL0     C75619   6.627   8.786  11.308  0.9477  0.3586  0.5361
  561MOL0     C75620   6.652   8.729  11.169 -0.1973 -0.0660  0.9508
  561MOL0     C75621   6.720   8.589  11.173  0.5510  0.0004  0.1358
  561MOL0     C75622   6.681   8.504  11.046 -0.3725 -0.9012  0.2345
  561MOL0     C75623   6.752   8.365  11.033 -0.0729 -0.3151 -0.5274
  561MOL0     O75624   6.701   8.256  11.118 -0.4455  0.3005 -0.1803
  561MOL0     C75625   6.711   8.123  11.068  0.6555 -0.4375 -0.4982
  561MOL0     C75626   6.613   8.027  11.121 -0.1568 -0.5887 -0.5166
  561MOL0     C75627   6.611   7.891  11.096 -0.2635 -0.4758 -0.7535
  561MOL0     C75628   6.493   7.815  11.139  1.2199  0.8302 -0.8632
  561MOL0     C75629   6.707   7.850  10.990  0.0162 -0.4660 -0.5158
  561MOL0     C75630   6.716   7.723  10.935  1.0468  0.1137 -0.0458
  561MOL0     O75631   6.674   7.618  11.015 -0.3508  0.3025  0.4284
  561MOL0     C75632   6.657   7.495  10.968  0.7778 -0.1429  0.1414
  561MOL0     C75633   6.717   7.429  10.868  0.1136 -0.2105  0.2104
  561MOL0     C75634   6.716   7.289  10.858  1.0894  0.3772  0.0752
  561MOL0     C75635   6.607   7.218  10.920  0.4529 -1.0931 -0.0418
  561MOL0     O75636   6.595   7.077  10.891  0.3183 -0.6218 -0.4606
  561MOL0     C75637   6.519   6.990  10.980 -0.7019 -0.6071  1.1958
  561MOL0     C75638   6.523   6.844  10.936  0.6848  0.4515 -0.2140
  561MOL0     C75639   6.659   6.767  10.948  0.2482 -0.7170 -0.3500
  561MOL0     C75640   6.648   6.625  10.881  1.4238 -0.6545 -0.0382
  561MOL0     C75641   6.788   6.555  10.869  0.5744  0.0610  0.8931
  561MOL0     C75642   6.775   6.404  10.832  1.2967 -0.2798 -0.3366
  561MOL0     C75643   6.679   6.315  10.923 -0.7912  0.2656  0.1197
  561MOL0     C75644   6.701   6.160  10.929  0.5908 -0.8448 -0.0745
  561MOL0    Cl75645   6.745   6.102  10.765  0.4680  0.2360  0.2087
  561MOL0     C75646   6.514   7.290  10.999 -0.5145 -0.1256  0.2652
  561MOL0     C75647   6.551   7.422  11.028  0.4163 -0.7180  0.5836
  561MOL0     O75648   6.749   7.715  10.817  0.2005  0.0834  0.3414
  561MOL0     C75649   6.797   7.939  10.936 -0.8791 -0.1437  0.1278
  561MOL0     C75650   6.800   8.076  10.980 -0.2523  0.5437  0.0957
  561MOL0     N75651   6.553   8.898  11.320 -0.9213 -0.1814  0.0738
  561MOL0     N75652   6.534   8.926  11.439 -0.4233 -0.1180  0.4018
  561MOL0     C75653   5.548   8.715  11.426  1.0112 -0.5763  0.7750
  561MOL0     C75654   5.414   8.666  11.432  0.7861  0.7253  0.1091
  561MOL0     C75655   5.109   8.341  11.261  0.1760 -0.0405 -0.2735
  561MOL0     C75656   4.985   8.426  11.262 -0.7439 -0.2499 -0.1887
  561MOL0     C75657   4.872   8.380  11.203  0.5811  1.1880  0.2777
  561MOL0     C75658   4.867   8.253  11.144  0.6379  0.5255 -0.2543
  561MOL0     O75659   4.748   8.212  11.077  0.4776 -0.1564  0.2516
  561MOL0     C75660   4.733   8.069  11.056  1.5124 -0.4104  0.1536
  561MOL0     C75661   4.607   8.060  10.986 -0.7227  0.4121  0.7767
  561MOL0     C75662   4.585   7.915  10.926  0.7264  0.1869  0.1777
  561MOL0     C75663   4.568   7.808  11.036 -0.1118  0.4513  0.4206
  561MOL0     C75664   4.526   7.683  10.964  0.5045  0.1162  0.1894
  561MOL0     C75665   4.480   7.593  10.898  0.4126  0.1292  0.0257
  561MOL0     C75666   4.979   8.162  11.143  0.0196  0.2646  0.2351
  561MOL0     C75667   5.100   8.212  11.199 -0.2523  0.5252  0.1446
  561MOL0     H75668   5.367   8.570  11.115  2.1526 -0.4841 -0.9421
  561MOL0     H75669   5.618   8.633  11.106 -0.3050 -3.9627 -1.6354
  561MOL0     H75670   5.934   8.794  11.402 -0.1400  0.7875  0.6222
  561MOL0     H75671   5.785   8.812  11.484  2.6520  2.4597 -1.1066
  561MOL0     H75672   5.805   8.567  11.562 -0.2754  0.1674 -0.3050
  561MOL0     H75673   5.932   8.558  11.440 -1.8091 -0.9458  0.4170
  561MOL0     H75674   5.987   8.764  11.633  0.4113  0.6789 -0.4256
  561MOL0     H75675   5.991   8.594  11.702  1.1320  2.1297  0.3060
  561MOL0     H75676   6.148   8.570  11.481 -1.1468 -2.0430 -0.2182
  561MOL0     H75677   6.163   8.744  11.498 -1.5530 -0.7651 -0.8634
  561MOL0     H75678   6.210   8.705  11.739 -1.2941 -1.5695 -0.0326
  561MOL0     H75679   6.219   8.530  11.709  2.4621 -0.9835 -1.7396
  561MOL0     H75680   6.425   8.548  11.652 -0.8391 -0.7864  0.4325
  561MOL0     H75681   6.390   8.675  11.529  2.6006  0.6184  0.0074
  561MOL0     H75682   6.359   8.853  11.685 -1.7691 -2.1171  1.9558
  561MOL0     H75683   6.432   8.753  11.812  5.4006 -1.8667 -0.4188
  561MOL0     H75684   6.647   8.765  11.720  1.5426  0.7701  0.3968
  561MOL0     H75685   6.581   8.923  11.697 -0.4554 -1.4258  0.5637
  561MOL0     H75686   6.709   8.646  11.459  0.4350  0.5217 -0.3027
  561MOL0     H75687   6.557   8.725  11.115  1.1394 -1.7975 -1.4457
  561MOL0     H75688   6.722   8.794  11.116  1.0918 -2.4304 -0.4169
  561MOL0     H75689   6.692   8.530  11.260  1.0216 -0.3878  0.0274
  561MOL0     H75690   6.829   8.595  11.170  0.7612 -1.7899  2.3036
  561MOL0     H75691   6.725   8.565  10.967  2.3062 -0.1617  2.1784
  561MOL0     H75692   6.573   8.487  11.034 -0.4669 -0.0780 -0.1137
  561MOL0     H75693   6.860   8.381  11.048 -0.2335 -0.6600  1.2288
  561MOL0     H75694   6.738   8.324  10.933  0.9744  0.8963 -1.2050
  561MOL0     H75695   6.541   8.058  11.196  0.6085 -0.9855  0.4010
  561MOL0     H75696   6.418   7.791  11.063  0.3544 -0.9600  0.4867
  561MOL0     H75697   6.525   7.731  11.202 -0.2745  2.5406  2.3829
  561MOL0     H75698   6.417   7.857  11.204  0.9891 -0.8816  0.0470
  561MOL0     H75699   6.794   7.475  10.807 -2.0045 -0.9558 -3.2728
  561MOL0     H75700   6.784   7.230  10.798 -0.0757 -1.5463  0.5542
  561MOL0     H75701   6.559   6.993  11.082  0.0043 -0.9516  0.9387
  561MOL0     H75702   6.421   7.034  10.998  0.3065  1.6797  1.4022
  561MOL0     H75703   6.450   6.781  10.988  1.3664  0.2295  0.4819
  561MOL0     H75704   6.491   6.835  10.831  0.0262 -1.4666  0.1189
  561MOL0     H75705   6.693   6.750  11.051  0.3430 -1.1062 -0.4422
  561MOL0     H75706   6.724   6.836  10.895 -1.7597 -0.7536 -3.0795
  561MOL0     H75707   6.586   6.563  10.947 -0.6658 -1.0097 -2.2191
  561MOL0     H75708   6.592   6.625  10.787 -0.3779  1.7371  0.9131
  561MOL0     H75709   6.842   6.572  10.963 -1.8976  2.1189  2.0730
  561MOL0     H75710   6.837   6.590  10.778 -1.8549  0.5251 -0.2989
  561MOL0     H75711   6.730   6.399  10.733  1.0132 -1.0512 -0.1756
  561MOL0     H75712   6.874   6.357  10.824  1.2414 -1.3725  3.3450
  561MOL0     H75713   6.576   6.350  10.913 -0.1173  2.3660  0.0257
  561MOL0     H75714   6.709   6.340  11.026 -0.4106  2.0128 -0.3847
  561MOL0     H75715   6.623   6.114  10.991  1.5852  0.1914  2.0608
  561MOL0     H75716   6.791   6.145  10.989  1.0983  1.7957 -0.0773
  561MOL0     H75717   6.423   7.241  11.030 -2.1657  1.5860 -1.5877
  561MOL0     H75718   6.489   7.477  11.098 -4.6750 -0.7397 -3.3141
  561MOL0     H75719   6.874   7.909  10.866  0.2836  0.0220  1.2854
  561MOL0     H75720   6.886   8.131  10.943  1.5452 -2.7703 -1.1700
  561MOL0     H75721   5.586   8.771  11.511 -1.3669  1.1654  0.7636
  561MOL0     H75722   5.341   8.690  11.509 -0.5460  1.0219 -1.2156
  561MOL0     H75723   4.987   8.527  11.302  2.9688 -1.0769  2.2193
  561MOL0     H75724   4.778   8.432  11.190 -0.1867 -0.7240 -2.6946
  561MOL0     H75725   4.810   8.027  10.991 -2.0553 -0.1177 -4.8459
  561MOL0     H75726   4.722   8.011  11.149  0.4355  1.2411  1.0971
  561MOL0     H75727   4.598   8.130  10.902  1.1745  2.2198  1.9850
  561MOL0     H75728   4.522   8.084  11.050 -0.6259 -0.0273  1.0725
  561MOL0     H75729   4.674   7.878  10.873  0.7486  0.2235  0.1886
  561MOL0     H75730   4.498   7.929  10.861 -1.2587  0.4597  2.7377
  561MOL0     H75731   4.495   7.858  11.100  1.1372  3.4072 -0.2952
  561MOL0     H75732   4.660   7.791  11.093 -0.3845  2.6173  1.5836
  561MOL0     H75733   4.442   7.518  10.831 -4.9402  2.2573  0.1227
  561MOL0     H75734   4.996   8.060  11.110  0.9210 -0.0571  1.5883
  561MOL0     H75735   5.188   8.153  11.178 -0.7055 -0.0139 -0.2817
  562MOL0     O75736   8.579  11.040   3.593 -0.8639 -0.1310 -0.2889
  562MOL0     C75737   8.636  11.026   3.703 -1.0538 -0.2979  0.1123
  562MOL0     O75738   8.617  10.921   3.792  0.9144 -0.7665 -0.1590
  562MOL0     C75739   8.509  10.837   3.782 -0.4771 -0.3144  0.4322
  562MOL0     C75740   8.516  10.718   3.854 -1.2760 -0.4981  0.3556
  562MOL0     C75741   8.409  10.629   3.853 -0.4355 -1.2236 -0.7590
  562MOL0     C75742   8.300  10.649   3.773 -0.9381 -0.6077 -0.4937
  562MOL0     O75743   8.204  10.543   3.767  0.5753  0.7021 -0.7455
  562MOL0     C75744   8.080  10.567   3.699 -1.1975  0.8691 -0.5963
  562MOL0     C75745   7.980  10.667   3.775 -0.0598  0.8876 -0.0438
  562MOL0     C75746   7.839  10.667   3.731 -0.2101  1.1524  0.4615
  562MOL0     C75747   7.834  10.704   3.582 -0.1112 -0.8617 -0.4194
  562MOL0     C75748   7.703  10.783   3.544 -0.8590  2.1611  0.0022
  562MOL0     C75749   7.579  10.683   3.531 -0.4164 -0.1360  0.1157
  562MOL0     C75750   7.455  10.765   3.494  0.3570 -0.2793  0.4696
  562MOL0     C75751   7.316  10.692   3.474  0.5591 -0.1933  0.4784
  562MOL0     N75752   7.289  10.620   3.604  0.4308 -0.0915  0.7195
  562MOL0     C75753   7.268  10.655   3.734  0.0264 -0.6555  0.4949
  562MOL0     C75754   7.262  10.545   3.805 -0.2379  0.8141 -0.5799
  562MOL0     C75755   7.264  10.543   3.958  0.5481 -0.2179 -0.1631
  562MOL0     C75756   7.407  10.568   4.010  0.2332 -0.6502  0.5046
  562MOL0     C75757   7.482  10.438   4.006 -0.0460  0.6239 -0.2125
  562MOL0     C75758   7.618  10.433   4.082 -0.2220 -0.2746 -0.3019
  562MOL0     O75759   7.697  10.554   4.062  0.0465  0.4175  0.5439
  562MOL0     C75760   7.814  10.580   4.131 -0.2604  0.7578 -0.0268
  562MOL0     C75761   7.877  10.479   4.205 -0.3869 -0.3153 -0.4184
  562MOL0     C75762   8.006  10.506   4.260 -0.0791 -0.3515  0.9161
  562MOL0     C75763   8.078  10.395   4.318 -0.2946  0.8264  0.2600
  562MOL0     C75764   8.069  10.640   4.243 -0.0209 -0.3036  0.4421
  562MOL0     C75765   8.209  10.668   4.292  0.8808 -0.2850 -0.1210
  562MOL0     O75766   8.295  10.726   4.207  0.8000 -0.9719  0.1756
  562MOL0     C75767   8.407  10.805   4.247  0.1329  0.0509 -0.5533
  562MOL0     C75768   8.440  10.827   4.384 -0.2991 -0.6106  1.0576
  562MOL0     C75769   8.523  10.936   4.414  0.4803  0.2144  0.2007
  562MOL0     C75770   8.577  11.019   4.315  0.9446  0.1753 -0.5725
  562MOL0     O75771   8.655  11.125   4.356 -0.4642 -0.0983  0.6010
  562MOL0     C75772   8.719  11.206   4.257 -0.1484  0.0208  0.5018
  562MOL0     C75773   8.627  11.318   4.193 -1.1926  0.3251 -0.0156
  562MOL0     C75774   8.705  11.405   4.097 -0.6110 -0.3462  0.4910
  562MOL0     C75775   8.643  11.550   4.075 -0.8457  0.0737 -0.0790
  562MOL0     C75776   8.650  11.638   4.200  0.3513  0.0174  0.0402
  562MOL0     C75777   8.567  11.766   4.174 -0.4794  0.6579 -0.0228
  562MOL0     C75778   8.645  11.862   4.062 -0.1477  0.4731  0.0302
  562MOL0     C75779   8.544  11.944   3.977 -0.2397 -0.0971 -0.8061
  562MOL0    Cl75780   8.431  11.831   3.890  0.1518  0.5726 -0.9442
  562MOL0     C75781   8.549  10.984   4.185 -0.6132  0.1630 -0.5977
  562MOL0     C75782   8.460  10.882   4.156 -0.9939 -0.8360  0.8184
  562MOL0     O75783   8.238  10.627   4.399  0.5149  0.7629 -0.4903
  562MOL0     C75784   7.997  10.736   4.177  0.2420 -0.0881  1.1223
  562MOL0     C75785   7.873  10.699   4.115 -0.7459 -0.3576  0.3857
  562MOL0     N75786   7.256  10.439   3.716 -0.2428  0.2692 -0.0755
  562MOL0     N75787   7.268  10.485   3.600 -0.0230 -0.6122 -0.0636
  562MOL0     C75788   8.284  10.778   3.709  0.0588  0.4875  0.6445
  562MOL0     C75789   8.388  10.875   3.721 -0.9700  0.5812 -0.2374
  562MOL0     C75790   8.741  11.125   3.740 -0.0810  0.0536 -0.5319
  562MOL0     C75791   8.806  11.115   3.863  0.3926 -0.2230  0.6805
  562MOL0     C75792   8.910  11.205   3.894  0.1509 -0.5898 -0.4776
  562MOL0     C75793   8.940  11.311   3.815  0.4151 -0.7194  1.5305
  562MOL0     O75794   9.032  11.399   3.864 -0.0970 -1.1730 -1.1795
  562MOL0     C75795   9.066  11.516   3.786  0.2737  0.1410  0.1754
  562MOL0     C75796   9.205  11.568   3.815 -0.7129 -0.5176  0.1104
  562MOL0     C75797   9.243  11.708   3.755 -0.4122  0.5160  0.1949
  562MOL0     C75798   9.248  11.716   3.597  0.5859  0.2941 -1.1021
  562MOL0     C75799   9.366  11.654   3.551 -0.2743 -1.2662  0.0934
  562MOL0     C75800   9.464  11.618   3.490  0.0113  0.2583  0.4488
  562MOL0     C75801   8.874  11.322   3.692  0.0454 -0.3589 -0.2412
  562MOL0     C75802   8.783  11.220   3.647 -0.1180  0.3482  0.2692
  562MOL0     H75803   8.611  10.694   3.901 -0.5727  0.8621 -0.3152
  562MOL0     H75804   8.426  10.538   3.908  3.8567 -1.3959 -2.0382
  562MOL0     H75805   8.106  10.601   3.598  0.4011  0.3871 -0.3747
  562MOL0     H75806   8.035  10.468   3.687 -1.7590  0.9195  0.8633
  562MOL0     H75807   7.984  10.625   3.876  1.8127 -0.4543 -0.6421
  562MOL0     H75808   8.024  10.765   3.757  0.0058  0.9615  0.5018
  562MOL0     H75809   7.784  10.573   3.741  1.7780 -0.0764  0.3771
  562MOL0     H75810   7.790  10.744   3.791  0.5763  3.2381 -1.4385
  562MOL0     H75811   7.907  10.780   3.552 -1.3946  0.3837 -0.5128
  562MOL0     H75812   7.836  10.614   3.520 -2.1169 -0.3182 -1.3413
  562MOL0     H75813   7.682  10.861   3.617  0.1725 -0.3608  3.2222
  562MOL0     H75814   7.716  10.830   3.446 -0.6958  0.2534 -0.9385
  562MOL0     H75815   7.587  10.614   3.447  0.5249 -0.5990  0.5771
  562MOL0     H75816   7.559  10.630   3.625  0.4588  1.7359  1.4246
  562MOL0     H75817   7.431  10.840   3.570 -0.8387 -0.1777  0.0178
  562MOL0     H75818   7.477  10.814   3.399  2.1835 -4.0287 -1.2457
  562MOL0     H75819   7.302  10.631   3.384 -2.8734 -1.5454  1.7877
  562MOL0     H75820   7.246  10.776   3.468 -0.6175 -1.1342  0.8092
  562MOL0     H75821   7.254  10.758   3.765  2.6428  0.9518 -3.0127
  562MOL0     H75822   7.196  10.613   4.007 -0.1258 -1.6986  1.0701
  562MOL0     H75823   7.238  10.445   3.999  1.3550 -2.1721 -3.8646
  562MOL0     H75824   7.415  10.594   4.116 -0.1907 -1.2467  0.6853
  562MOL0     H75825   7.450  10.655   3.959 -2.5252  1.6036  1.7409
  562MOL0     H75826   7.505  10.414   3.902 -0.6813  1.3431 -0.5290
  562MOL0     H75827   7.433  10.351   4.050  1.3902 -0.5131 -0.7866
  562MOL0     H75828   7.678  10.349   4.047  3.4017  1.3683  1.4411
  562MOL0     H75829   7.595  10.421   4.188  1.0157  3.0840  0.4796
  562MOL0     H75830   7.841  10.377   4.214  0.3704 -0.5093  0.5335
  562MOL0     H75831   8.038  10.300   4.280  2.2544 -2.2717  4.3842
  562MOL0     H75832   8.185  10.395   4.297  0.0518 -1.3350  1.6341
  562MOL0     H75833   8.054  10.379   4.424 -1.2079  0.4045  0.0057
  562MOL0     H75834   8.396  10.776   4.469 -0.0587 -2.1582  0.2840
  562MOL0     H75835   8.567  10.959   4.510  2.0265  4.5300 -1.2616
  562MOL0     H75836   8.808  11.249   4.304  0.4964  2.0364 -2.3235
  562MOL0     H75837   8.763  11.152   4.174  1.3009  3.1107 -0.8943
  562MOL0     H75838   8.540  11.282   4.139  0.3044 -2.8588 -0.5238
  562MOL0     H75839   8.576  11.372   4.274 -1.0549  1.7116 -0.8293
  562MOL0     H75840   8.709  11.356   4.000  2.4560  3.0857 -1.3335
  562MOL0     H75841   8.811  11.421   4.119  0.2729 -0.9631 -2.8441
  562MOL0     H75842   8.705  11.589   3.994  1.3669  0.3144  1.6404
  562MOL0     H75843   8.538  11.547   4.045 -1.1300  0.7650  0.8091
  562MOL0     H75844   8.755  11.664   4.217  0.3538  1.0578 -1.3574
  562MOL0     H75845   8.593  11.592   4.281  0.4183  0.0108  0.0834
  562MOL0     H75846   8.464  11.743   4.146 -0.6482  0.1451  0.9799
  562MOL0     H75847   8.568  11.809   4.275 -0.9583 -3.0624  1.7327
  562MOL0     H75848   8.718  11.812   3.998 -0.7678  1.8841 -1.8714
  562MOL0     H75849   8.703  11.932   4.123 -0.2299  1.4455 -0.9775
  562MOL0     H75850   8.603  12.006   3.909 -1.9681  2.3652 -0.2075
  562MOL0     H75851   8.484  12.018   4.032 -2.2598 -2.2421  0.0560
  562MOL0     H75852   8.600  11.047   4.113 -2.1949  2.4780  0.1873
  562MOL0     H75853   8.413  10.872   4.059 -1.5279  0.7422  0.8762
  562MOL0     H75854   8.035  10.837   4.160  0.3808 -0.6060 -2.2214
  562MOL0     H75855   7.813  10.776   4.067 -0.2969 -0.6003 -0.5937
  562MOL0     H75856   8.198  10.811   3.651 -2.2973 -1.1128  2.9817
  562MOL0     H75857   8.372  10.973   3.677 -1.0585  2.1007  2.8642
  562MOL0     H75858   8.772  11.037   3.930 -3.5566 -1.8711 -2.7204
  562MOL0     H75859   8.961  11.203   3.990  1.6755  0.2702 -1.2363
  562MOL0     H75860   9.072  11.510   3.677 -3.2466 -1.2492 -0.0776
  562MOL0     H75861   8.989  11.591   3.808 -0.8271 -0.6895 -0.6881
  562MOL0     H75862   9.277  11.494   3.779 -1.4641 -2.8051  2.9326
  562MOL0     H75863   9.224  11.586   3.922  0.1540 -0.4550 -0.0438
  562MOL0     H75864   9.342  11.738   3.789  0.2344 -0.5036 -0.6968
  562MOL0     H75865   9.174  11.789   3.778  1.0648  2.1469 -0.8861
  562MOL0     H75866   9.255  11.821   3.567  0.2824 -0.1907 -3.0335
  562MOL0     H75867   9.154  11.679   3.556 -1.2346  2.4385  0.8810
  562MOL0     H75868   9.551  11.599   3.431 -0.4250 -2.6014  0.5882
  562MOL0     H75869   8.899  11.397   3.618 -2.5685 -0.4101 -1.2741
  562MOL0     H75870   8.749  11.226   3.544 -3.4191  2.2442  1.3210
  563MOL0     O75871   8.926   5.807  10.237 -0.2937  0.0982 -0.4260
  563MOL0     C75872   8.912   5.750  10.351  0.3835 -0.2500  0.6532
  563MOL0     O75873   8.868   5.819  10.469 -0.1506  1.0096  0.4590
  563MOL0     C75874   8.810   5.943  10.476 -0.3091  0.6909  0.2205
  563MOL0     C75875   8.754   6.007  10.369  0.4413 -0.2387 -0.2419
  563MOL0     C75876   8.694   6.137  10.390 -0.2037  0.2647  0.1881
  563MOL0     C75877   8.702   6.189  10.519  0.4633 -0.3723 -0.1032
  563MOL0     O75878   8.645   6.310  10.551  0.9982 -0.1716 -0.0193
  563MOL0     C75879   8.723   6.417  10.501  0.4120  0.3012  0.0053
  563MOL0     C75880   8.654   6.550  10.497 -0.8121  0.2447 -0.2097
  563MOL0     C75881   8.636   6.608  10.639 -0.6767 -0.2574  0.6755
  563MOL0     C75882   8.559   6.743  10.649  0.3374 -0.4914 -0.4200
  563MOL0     C75883   8.625   6.863  10.569 -0.7768 -0.2830 -0.2505
  563MOL0     C75884   8.541   6.994  10.586 -0.9197  0.7156  0.0217
  563MOL0     C75885   8.623   7.114  10.534  1.0624 -0.3476 -0.8518
  563MOL0     C75886   8.553   7.247  10.557 -0.6111 -0.8932  1.4353
  563MOL0     N75887   8.658   7.356  10.560  0.1121  0.3002  0.4707
  563MOL0     C75888   8.711   7.394  10.443 -0.0649  0.3701 -0.1523
  563MOL0     C75889   8.819   7.476  10.467  0.4525  0.1831  0.6127
  563MOL0     C75890   8.900   7.557  10.370 -0.4408 -0.0989 -1.2508
  563MOL0     C75891   9.028   7.494  10.334 -0.2617 -0.2746 -1.3145
  563MOL0     C75892   9.010   7.403  10.210  0.4857  0.1012  0.5344
  563MOL0     C75893   9.085   7.455  10.088 -0.0380 -0.0580 -0.6837
  563MOL0     O75894   9.219   7.464  10.111 -0.6753  0.6886  0.1203
  563MOL0     C75895   9.288   7.566  10.054  0.2393 -0.0414  0.8255
  563MOL0     C75896   9.407   7.609  10.103 -1.1518 -0.5329  0.0090
  563MOL0     C75897   9.472   7.727  10.075  0.1927 -0.2750 -0.0926
  563MOL0     C75898   9.594   7.761  10.150 -0.0411 -0.1073 -0.6772
  563MOL0     C75899   9.407   7.804   9.977  0.1189 -0.4804  0.4886
  563MOL0     C75900   9.468   7.933   9.931 -0.8838  0.1577  0.1980
  563MOL0     O75901   9.590   7.974   9.969 -0.7716 -0.3967  0.3044
  563MOL0     C75902   9.637   8.094   9.909  0.0324  0.5089  0.2763
  563MOL0     C75903   9.602   8.219   9.953  0.5855  0.6505  0.6201
  563MOL0     C75904   9.651   8.333   9.891 -0.0489 -0.1092 -0.9209
  563MOL0     C75905   9.728   8.330   9.778  1.2118  0.8633  0.8255
  563MOL0     O75906   9.783   8.444   9.723 -0.2415 -0.3841  0.3020
  563MOL0     C75907   9.716   8.495   9.605 -0.9599 -0.5237 -0.3662
  563MOL0     C75908   9.785   8.613   9.525  0.4038  0.2037 -0.5736
  563MOL0     C75909   9.712   8.657   9.409 -0.5172 -0.1891  0.6216
  563MOL0     C75910   9.762   8.799   9.363 -0.5189  0.2233  0.0581
  563MOL0     C75911   9.904   8.800   9.293  0.5640  0.5907  0.5362
  563MOL0     C75912  10.015   8.858   9.386  0.9455  0.2543 -0.1291
  563MOL0     C75913  10.147   8.877   9.317 -0.3260 -0.3716  0.4087
  563MOL0     C75914  10.265   8.920   9.408 -0.5079 -0.9572 -0.7381
  563MOL0    Cl75915  10.232   9.102   9.448 -0.3751 -0.0939  0.3043
  563MOL0     C75916   9.766   8.198   9.729 -0.0514  0.2816  0.4871
  563MOL0     C75917   9.725   8.080   9.793  0.9407 -0.3834  1.3822
  563MOL0     O75918   9.397   7.989   9.849 -0.2748 -0.8738 -0.1256
  563MOL0     C75919   9.286   7.763   9.912  1.1834  0.3173  1.0341
  563MOL0     C75920   9.229   7.637   9.945 -0.3202 -0.6574 -0.0531
  563MOL0     N75921   8.837   7.480  10.598  0.5405 -0.5277  0.0766
  563MOL0     N75922   8.741   7.403  10.654 -0.2652 -0.6628 -0.1766
  563MOL0     C75923   8.757   6.124  10.623 -0.5118 -0.2125  0.3470
  563MOL0     C75924   8.807   5.999  10.609  0.7395 -0.5105  0.4434
  563MOL0     C75925   8.967   5.619  10.369 -0.6883  0.3577  1.5330
  563MOL0     C75926   8.946   5.538  10.478 -0.4454 -1.0789 -0.0501
  563MOL0     C75927   8.989   5.408  10.489  0.0126 -0.1876  0.3030
  563MOL0     C75928   9.067   5.350  10.376 -0.7347 -0.0511 -0.4173
  563MOL0     O75929   9.111   5.225  10.381 -0.2582 -0.3628 -0.3190
  563MOL0     C75930   9.086   5.126  10.479  0.4068  0.1012 -0.7035
  563MOL0     C75931   9.084   4.993  10.408  0.4847 -0.5051 -0.8444
  563MOL0     C75932   8.992   4.998  10.280  0.5576  0.5056  0.2109
  563MOL0     C75933   8.891   4.882  10.281  0.2177 -0.1072  0.1147
  563MOL0     C75934   8.796   4.890  10.159 -0.7969  0.7287 -0.5695
  563MOL0     C75935   8.735   4.912  10.059  0.4143 -0.4202 -0.5360
  563MOL0     C75936   9.090   5.424  10.262 -0.3404  0.2994 -0.4933
  563MOL0     C75937   9.042   5.558  10.259  0.5569  0.4438 -0.6650
  563MOL0     H75938   8.757   5.964  10.269  3.1757 -1.6477  0.3385
  563MOL0     H75939   8.650   6.198  10.311 -1.7058  0.4216  1.0909
  563MOL0     H75940   8.821   6.411  10.550  2.4997  2.4681 -3.4995
  563MOL0     H75941   8.751   6.388  10.400 -1.1827  1.6915 -0.8719
  563MOL0     H75942   8.714   6.623  10.441  1.0927 -1.9215 -1.1860
  563MOL0     H75943   8.556   6.526  10.455 -0.7542 -0.0973 -0.1498
  563MOL0     H75944   8.575   6.539  10.696 -4.0049  0.5730 -1.5784
  563MOL0     H75945   8.728   6.630  10.693 -1.7328  1.5011  1.8607
  563MOL0     H75946   8.455   6.730  10.618  1.0330 -0.5638 -2.9840
  563MOL0     H75947   8.565   6.783  10.751 -1.5775  0.6588 -0.7228
  563MOL0     H75948   8.727   6.871  10.607 -0.8816 -0.2150  0.0183
  563MOL0     H75949   8.633   6.835  10.464 -2.0180 -4.7062  0.6192
  563MOL0     H75950   8.452   6.977  10.526  0.4795  0.7253 -2.1527
  563MOL0     H75951   8.519   7.003  10.693 -2.5383 -5.0531  0.5037
  563MOL0     H75952   8.716   7.113  10.592  0.0771 -4.1489  0.9661
  563MOL0     H75953   8.653   7.097  10.431  0.9693  3.0366 -1.5691
  563MOL0     H75954   8.498   7.249  10.652  0.5250  0.0555  2.1066
  563MOL0     H75955   8.483   7.273  10.477 -1.6701  3.1094  3.4036
  563MOL0     H75956   8.684   7.348  10.348  1.3062 -2.1726  0.5943
  563MOL0     H75957   8.849   7.585  10.278 -2.1352  2.9851  0.4475
  563MOL0     H75958   8.916   7.652  10.424  0.2756  0.8443 -3.0559
  563MOL0     H75959   9.084   7.455  10.419  0.8573 -0.1945 -1.9833
  563MOL0     H75960   9.093   7.581  10.317  2.4637 -1.9579 -0.1379
  563MOL0     H75961   8.905   7.395  10.178  1.2956  0.7302 -2.6658
  563MOL0     H75962   9.052   7.307  10.240  2.0905  0.7714  0.5010
  563MOL0     H75963   9.037   7.551  10.068  2.3693  1.0934 -1.3407
  563MOL0     H75964   9.059   7.394  10.001  1.7529  1.1052 -2.1078
  563MOL0     H75965   9.454   7.540  10.172  1.8408 -1.5194 -2.7497
  563MOL0     H75966   9.640   7.673  10.197  0.1035 -0.2146 -1.0164
  563MOL0     H75967   9.664   7.793  10.073 -0.3912 -0.4927 -1.1692
  563MOL0     H75968   9.576   7.837  10.227 -3.0524 -1.3557  0.0017
  563MOL0     H75969   9.540   8.220  10.042 -0.1645 -2.0476  0.2410
  563MOL0     H75970   9.619   8.428   9.934 -1.3149  0.6292 -3.3053
  563MOL0     H75971   9.707   8.412   9.534 -2.5831 -2.4378  1.8945
  563MOL0     H75972   9.618   8.531   9.636 -1.7717 -1.2676 -1.9493
  563MOL0     H75973   9.789   8.694   9.598 -0.1728  0.4408 -0.7956
  563MOL0     H75974   9.886   8.584   9.495  0.8924 -0.2457  1.3990
  563MOL0     H75975   9.608   8.676   9.437  0.3086  1.3470  2.9434
  563MOL0     H75976   9.732   8.592   9.323  3.5906  0.1997  1.0733
  563MOL0     H75977   9.691   8.832   9.287  1.7315 -0.3156 -2.4158
  563MOL0     H75978   9.771   8.866   9.450  5.3530 -1.2171  1.0520
  563MOL0     H75979   9.903   8.872   9.211  2.8962  0.7301  0.5505
  563MOL0     H75980   9.933   8.702   9.252  1.5843  0.5232  1.3937
  563MOL0     H75981   9.983   8.951   9.434 -1.3842 -0.6053  0.0916
  563MOL0     H75982  10.032   8.783   9.463  0.0096  0.9951  0.8363
  563MOL0     H75983  10.135   8.951   9.237  0.8057  0.1762  0.7246
  563MOL0     H75984  10.180   8.779   9.279 -0.2586 -0.7744  1.4749
  563MOL0     H75985  10.361   8.904   9.360 -1.1350 -3.1226 -1.3637
  563MOL0     H75986  10.280   8.861   9.499  3.4064 -0.4295 -0.8774
  563MOL0     H75987   9.836   8.185   9.647 -0.5024 -1.3705  0.3291
  563MOL0     H75988   9.738   7.984   9.743 -1.5568  0.4535 -1.1662
  563MOL0     H75989   9.235   7.828   9.843  0.3266  0.7163  2.0191
  563MOL0     H75990   9.144   7.601   9.889  1.1460  2.3277 -4.7780
  563MOL0     H75991   8.741   6.156  10.726 -1.0868  2.5414 -0.5136
  563MOL0     H75992   8.834   5.954  10.704 -1.8368 -3.9279 -0.2449
  563MOL0     H75993   8.895   5.589  10.559 -1.4678 -1.9898 -0.1020
  563MOL0     H75994   8.964   5.359  10.582 -5.4254 -2.1708 -1.8056
  563MOL0     H75995   9.168   5.135  10.551 -0.6643  2.4794  0.3169
  563MOL0     H75996   8.988   5.155  10.517  2.7562  3.7436  3.5216
  563MOL0     H75997   9.052   4.912  10.475 -1.2250 -0.5695 -1.6863
  563MOL0     H75998   9.182   4.968  10.367 -0.6130 -1.0996 -3.2980
  563MOL0     H75999   9.055   4.977  10.193 -0.0450 -1.7364  0.2393
  563MOL0     H76000   8.936   5.091  10.272 -1.0374 -0.4905 -0.8423
  563MOL0     H76001   8.842   4.892  10.379 -1.8821  0.0242 -0.9021
  563MOL0     H76002   8.939   4.784  10.285  2.9189  1.1785  1.7964
  563MOL0     H76003   8.671   4.925   9.974  1.3334  1.9315 -0.9627
  563MOL0     H76004   9.136   5.382  10.174 -0.4486  3.2136 -2.0881
  563MOL0     H76005   9.056   5.612  10.166  1.6390  0.5670 -0.4513
  564MOL0     O76006   6.627   9.578   1.416  0.1810 -0.8728  0.6790
  564MOL0     C76007   6.523   9.577   1.351 -1.0383  0.0869 -0.1367
  564MOL0     O76008   6.417   9.655   1.397  0.1558 -0.5772  0.5044
  564MOL0     C76009   6.412   9.780   1.348  0.0778 -0.9996  0.5853
  564MOL0     C76010   6.286   9.832   1.367 -0.1007  0.0149  0.5876
  564MOL0     C76011   6.249   9.962   1.333 -0.8501  0.4497  0.7713
  564MOL0     C76012   6.354  10.048   1.285  0.8350  0.5257  0.9280
  564MOL0     O76013   6.326  10.174   1.258  0.5309 -0.4743 -0.6150
  564MOL0     C76014   6.311  10.226   1.125 -0.5812 -0.3501  0.0746
  564MOL0     C76015   6.432  10.310   1.109 -0.0488 -0.3070 -0.3023
  564MOL0     C76016   6.422  10.446   1.184  0.0355  0.5927 -0.6406
  564MOL0     C76017   6.541  10.528   1.170  0.7433  0.0403  0.1977
  564MOL0     C76018   6.541  10.616   1.294 -0.3033  0.1455 -0.0826
  564MOL0     C76019   6.623  10.755   1.279 -0.0419  0.3368  0.1228
  564MOL0     C76020   6.647  10.833   1.407 -0.9162 -1.4026 -0.6176
  564MOL0     C76021   6.521  10.887   1.463  0.5904 -0.1038 -0.3223
  564MOL0     N76022   6.547  10.956   1.593 -0.6198  0.8404 -0.3539
  564MOL0     C76023   6.603  10.904   1.711  1.1863  0.5867  0.1875
  564MOL0     C76024   6.574  10.991   1.808  1.0146  0.6161 -0.6181
  564MOL0     C76025   6.610  10.995   1.965 -0.0647 -0.7908  0.7432
  564MOL0     C76026   6.693  10.874   2.001 -0.0963 -0.4826  0.5741
  564MOL0     C76027   6.679  10.853   2.150 -0.3022  0.1761  0.0218
  564MOL0     C76028   6.735  10.730   2.203 -0.5796  0.3152  0.2531
  564MOL0     O76029   6.672  10.704   2.332 -0.0911  0.1393  0.7118
  564MOL0     C76030   6.715  10.777   2.435  0.3409 -0.6358  0.4139
  564MOL0     C76031   6.846  10.768   2.486  0.6456  0.6646  0.5068
  564MOL0     C76032   6.883  10.859   2.581 -0.2515 -0.4949  0.3492
  564MOL0     C76033   7.017  10.825   2.648 -0.6244  0.0164 -0.2189
  564MOL0     C76034   6.802  10.972   2.617  0.4420  1.0490 -0.8951
  564MOL0     C76035   6.832  11.083   2.723  0.6048  0.6970  0.0370
  564MOL0     O76036   6.747  11.186   2.730 -0.7203  0.5852  0.3719
  564MOL0     C76037   6.774  11.288   2.817 -0.9230  0.5277 -0.3648
  564MOL0     C76038   6.804  11.279   2.958 -0.1633 -0.6692 -0.7159
  564MOL0     C76039   6.825  11.388   3.045 -0.3451  0.1076  0.0745
  564MOL0     C76040   6.828  11.514   2.990  0.3143 -0.5180  0.8061
  564MOL0     O76041   6.844  11.622   3.075 -0.6246 -0.0848 -0.4732
  564MOL0     C76042   6.898  11.738   3.016 -0.7747  0.0493  0.6786
  564MOL0     C76043   6.978  11.825   3.117  0.1317 -0.3085  0.5901
  564MOL0     C76044   6.887  11.873   3.230  0.5814 -0.3872 -0.1247
  564MOL0     C76045   6.947  11.991   3.308  0.2009  0.0018  0.0668
  564MOL0     C76046   6.880  12.021   3.451  0.6820  0.4663  0.0571
  564MOL0     C76047   6.753  12.104   3.453 -0.0277 -0.1601 -0.9067
  564MOL0     C76048   6.765  12.248   3.395  0.1264 -0.0386  1.1021
  564MOL0     C76049   6.674  12.272   3.277  0.3497  0.1881  0.3574
  564MOL0    Cl76050   6.715  12.430   3.200 -0.1416 -0.2347  0.4627
  564MOL0     C76051   6.802  11.526   2.849  1.4034 -1.1518 -0.2738
  564MOL0     C76052   6.770  11.419   2.766  0.3381 -0.4321  0.2308
  564MOL0     O76053   6.921  11.056   2.800 -0.1100 -0.9394 -0.2168
  564MOL0     C76054   6.677  10.978   2.564  0.3779 -0.8365 -0.9858
  564MOL0     C76055   6.627  10.875   2.485  0.9371  0.8559 -0.4503
  564MOL0     N76056   6.513  11.102   1.752 -0.4901  0.1140  0.8079
  564MOL0     N76057   6.496  11.079   1.618  0.5418 -0.0775  0.2190
  564MOL0     C76058   6.479  10.001   1.264 -0.0876  0.3956  0.5679
  564MOL0     C76059   6.510   9.864   1.292  0.8212  0.2829 -0.0969
  564MOL0     C76060   6.510   9.489   1.238  0.2140 -0.3526  0.2193
  564MOL0     C76061   6.388   9.474   1.157  0.2273 -0.0420 -1.3992
  564MOL0     C76062   6.377   9.386   1.048 -0.1617 -1.0603 -0.2379
  564MOL0     C76063   6.489   9.320   1.014  0.3700 -0.2647 -0.8061
  564MOL0     O76064   6.501   9.212   0.924  0.1282 -1.2187  0.0679
  564MOL0     C76065   6.391   9.181   0.845 -0.1510  0.1373 -0.6316
  564MOL0     C76066   6.421   9.066   0.740 -0.7645  0.1322  0.6233
  564MOL0     C76067   6.507   8.947   0.786 -1.3252  0.5456 -0.2696
  564MOL0     C76068   6.569   8.886   0.670 -0.6128 -0.3806 -0.0832
  564MOL0     C76069   6.563   8.745   0.685 -0.3967  0.0483  0.0073
  564MOL0     C76070   6.577   8.625   0.696  0.8335 -0.3729  0.1283
  564MOL0     C76071   6.602   9.332   1.087  0.7287 -0.6330 -0.6350
  564MOL0     C76072   6.615   9.419   1.187  0.3688  0.6315 -0.5433
  564MOL0     H76073   6.206   9.776   1.414  1.3760 -0.2610  2.9062
  564MOL0     H76074   6.146   9.995   1.345 -0.2107  3.2326 -0.4483
  564MOL0     H76075   6.302  10.143   1.055 -0.9586 -0.3104  0.0739
  564MOL0     H76076   6.217  10.282   1.113 -1.1557 -1.0747  1.0710
  564MOL0     H76077   6.527  10.266   1.140 -1.1301 -1.6553  1.2676
  564MOL0     H76078   6.434  10.322   1.000  3.0312 -0.4286 -0.3520
  564MOL0     H76079   6.335  10.499   1.147 -0.1049 -0.2477 -1.5605
  564MOL0     H76080   6.403  10.431   1.291 -0.6417 -2.6159 -1.0992
  564MOL0     H76081   6.631  10.465   1.167  0.3002 -0.5633 -2.3833
  564MOL0     H76082   6.543  10.591   1.081 -1.9818  1.8830  1.3172
  564MOL0     H76083   6.435  10.633   1.318 -1.1888  0.0252 -3.3916
  564MOL0     H76084   6.582  10.571   1.385 -1.3204  4.0423  2.5581
  564MOL0     H76085   6.727  10.730   1.253  0.0695  3.3087 -3.0012
  564MOL0     H76086   6.591  10.823   1.200  1.9357  0.9136 -0.2446
  564MOL0     H76087   6.709  10.772   1.474  3.1505  0.4129 -2.4004
  564MOL0     H76088   6.705  10.925   1.394  0.0364 -1.5835  1.7845
  564MOL0     H76089   6.455  10.804   1.489  1.1663 -0.4707 -0.0047
  564MOL0     H76090   6.481  10.969   1.402  4.0093  2.8717  1.0369
  564MOL0     H76091   6.650  10.809   1.736  0.0638  0.0086  0.1649
  564MOL0     H76092   6.667  11.086   1.985  1.4801 -1.6488  0.4002
  564MOL0     H76093   6.515  11.000   2.018 -0.1549  0.1391  0.5157
  564MOL0     H76094   6.795  10.879   1.962  0.1646 -0.5390  1.2440
  564MOL0     H76095   6.649  10.780   1.966 -3.6315  1.0267  0.5327
  564MOL0     H76096   6.578  10.867   2.189  0.7409  0.6816  2.7063
  564MOL0     H76097   6.738  10.935   2.192 -0.3062  1.1230 -1.6888
  564MOL0     H76098   6.844  10.740   2.213  0.3580 -2.3731 -4.4742
  564MOL0     H76099   6.736  10.645   2.134  3.3925 -0.6124  1.1710
  564MOL0     H76100   6.907  10.691   2.441  1.6880  1.6020  0.2854
  564MOL0     H76101   7.018  10.817   2.757 -1.7002 -2.4172 -0.3230
  564MOL0     H76102   7.046  10.726   2.612 -2.9249 -0.9842  0.4908
  564MOL0     H76103   7.091  10.899   2.614 -1.5547  2.0810  1.9332
  564MOL0     H76104   6.812  11.187   3.014 -2.0335  0.4222  1.5309
  564MOL0     H76105   6.835  11.388   3.153  0.5025 -0.3355  0.0054
  564MOL0     H76106   6.961  11.719   2.929  1.9979  1.3436  2.2926
  564MOL0     H76107   6.819  11.799   2.971  0.3426  1.9959  1.2656
  564MOL0     H76108   7.061  11.763   3.152  1.0401  0.8098  0.5119
  564MOL0     H76109   7.013  11.921   3.077 -1.1333 -1.0231 -2.5655
  564MOL0     H76110   6.868  11.790   3.299 -1.5333 -0.7855 -1.1196
  564MOL0     H76111   6.791  11.902   3.186  0.2826 -4.4140 -2.6219
  564MOL0     H76112   7.054  11.974   3.325  0.7223 -0.4849 -3.1591
  564MOL0     H76113   6.939  12.078   3.243  2.1564  0.1539 -0.0189
  564MOL0     H76114   6.957  12.070   3.511 -1.5696  2.1661  1.7066
  564MOL0     H76115   6.864  11.931   3.510 -2.2875  1.0939  0.3712
  564MOL0     H76116   6.676  12.041   3.408 -0.8164  0.6081 -0.6742
  564MOL0     H76117   6.724  12.116   3.558  2.2891 -3.0394  0.1876
  564MOL0     H76118   6.866  12.263   3.355  0.0025 -0.4759  0.6229
  564MOL0     H76119   6.751  12.324   3.472  1.9520 -1.0396  2.5159
  564MOL0     H76120   6.568  12.282   3.302 -0.2118  5.0785 -2.7089
  564MOL0     H76121   6.696  12.194   3.203  0.5165  0.8795 -0.3379
  564MOL0     H76122   6.800  11.626   2.807 -1.7090 -2.3926 -3.6016
  564MOL0     H76123   6.751  11.423   2.659  3.0623 -0.5547 -0.3410
  564MOL0     H76124   6.608  11.047   2.611  1.5865  1.1299 -1.9805
  564MOL0     H76125   6.523  10.869   2.452  1.9438  0.7438 -3.9886
  564MOL0     H76126   6.557  10.065   1.225  1.0532 -1.6659 -0.7357
  564MOL0     H76127   6.611   9.829   1.274  1.8108  3.9850 -2.8070
  564MOL0     H76128   6.309   9.544   1.182 -0.2131 -1.2057  0.6705
  564MOL0     H76129   6.288   9.373   0.987 -2.8275  2.2349  2.5417
  564MOL0     H76130   6.319   9.130   0.910  0.5023  0.6363  0.5284
  564MOL0     H76131   6.346   9.269   0.800  1.4601  1.2065 -0.2352
  564MOL0     H76132   6.470   9.106   0.651 -0.0979 -1.3769  0.2920
  564MOL0     H76133   6.325   9.028   0.705 -0.2060 -0.2818 -0.4989
  564MOL0     H76134   6.445   8.875   0.842  0.1622 -0.3025  0.3586
  564MOL0     H76135   6.575   8.981   0.865 -1.3062  2.3302 -1.0247
  564MOL0     H76136   6.671   8.924   0.661 -1.1543  1.1222 -0.2059
  564MOL0     H76137   6.522   8.912   0.575 -1.7560  0.4478  0.6862
  564MOL0     H76138   6.572   8.518   0.701 -0.1777 -0.3749 -0.5594
  564MOL0     H76139   6.688   9.267   1.074  0.6344 -1.0940  0.9090
  564MOL0     H76140   6.717   9.433   1.222  1.8148 -0.6881 -3.7855
  565MOL0     O76141   3.794   8.916   3.632 -0.3560  0.3955  0.3056
  565MOL0     C76142   3.717   8.999   3.683  0.0264  0.1530  0.5563
  565MOL0     O76143   3.580   8.986   3.686  0.8937  1.0579  0.5019
  565MOL0     C76144   3.523   8.867   3.631  0.4477 -0.1794  0.9270
  565MOL0     C76145   3.576   8.733   3.664  0.6217 -0.7027  0.1697
  565MOL0     C76146   3.514   8.619   3.620 -0.2295  0.1216 -0.3815
  565MOL0     C76147   3.408   8.634   3.529 -0.7475 -0.6179 -0.7066
  565MOL0     O76148   3.347   8.537   3.466  0.1480 -0.4439 -0.7452
  565MOL0     C76149   3.424   8.452   3.381 -0.2780  0.2775  0.1749
  565MOL0     C76150   3.414   8.481   3.234 -0.3071 -0.2545  0.5723
  565MOL0     C76151   3.298   8.422   3.160  0.2438 -0.1937 -0.3279
  565MOL0     C76152   3.284   8.485   3.018 -0.3232 -0.9013 -0.8367
  565MOL0     C76153   3.155   8.441   2.950  0.0368  0.2178 -0.0110
  565MOL0     C76154   3.160   8.468   2.798  0.2720  0.4265 -0.5438
  565MOL0     C76155   3.032   8.439   2.714  0.8628  0.1600  0.2983
  565MOL0     C76156   3.010   8.283   2.697  0.1657 -0.1899  1.5302
  565MOL0     N76157   2.886   8.234   2.628 -0.5177  0.6391 -0.8943
  565MOL0     C76158   2.841   8.264   2.500  0.1933  0.0242 -0.3899
  565MOL0     C76159   2.754   8.166   2.468  0.3931  0.2695  0.1858
  565MOL0     C76160   2.698   8.146   2.326 -0.2739 -0.3351  0.2822
  565MOL0     C76161   2.706   7.986   2.301 -0.5575 -0.8062 -0.3369
  565MOL0     C76162   2.665   7.950   2.161  0.0528 -0.2806  0.1517
  565MOL0     C76163   2.536   8.026   2.116 -0.2651  0.1918  0.0550
  565MOL0     O76164   2.442   7.998   2.212 -0.1246  0.0285  0.1180
  565MOL0     C76165   2.316   8.048   2.193  0.0765 -0.1320  0.5503
  565MOL0     C76166   2.288   8.148   2.092 -0.5900 -0.0891  0.4281
  565MOL0     C76167   2.158   8.184   2.061  0.7448  0.0639  0.3777
  565MOL0     C76168   2.133   8.274   1.941 -0.0135  0.4829 -0.4055
  565MOL0     C76169   2.050   8.136   2.136  1.0174  0.5782 -0.1936
  565MOL0     C76170   1.900   8.174   2.121 -0.4550 -0.4348  0.4857
  565MOL0     O76171   1.820   8.186   2.229  0.9244  0.0238 -0.1630
  565MOL0     C76172   1.691   8.214   2.196  1.0351  0.0412 -0.5849
  565MOL0     C76173   1.611   8.132   2.118 -0.2603 -0.3915 -0.6215
  565MOL0     C76174   1.469   8.158   2.124  0.0819 -0.3161 -0.2087
  565MOL0     C76175   1.411   8.256   2.208 -0.3589  0.3031 -0.5083
  565MOL0     O76176   1.274   8.267   2.202 -0.5555  0.5556  0.1770
  565MOL0     C76177   1.200   8.173   2.284  0.7782  0.2704  0.0439
  565MOL0     C76178   1.099   8.260   2.361 -1.3037  0.1585  0.2541
  565MOL0     C76179   1.028   8.183   2.470 -0.5239 -0.3522 -0.1037
  565MOL0     C76180   0.957   8.284   2.560 -0.0628  0.0061 -0.5182
  565MOL0     C76181   0.838   8.230   2.633  0.9106  0.0615 -0.3661
  565MOL0     C76182   0.871   8.120   2.727 -0.4072  0.1836 -0.3896
  565MOL0     C76183   0.742   8.058   2.777  0.3082  0.0296 -0.8516
  565MOL0     C76184   0.761   7.914   2.827 -0.3592  0.6421 -0.8758
  565MOL0    Cl76185   0.618   7.820   2.792 -0.5650 -0.0753 -0.0862
  565MOL0     C76186   1.494   8.346   2.272  0.2217  0.0298  0.2259
  565MOL0     C76187   1.632   8.322   2.264  0.1515  0.5565  0.0657
  565MOL0     O76188   1.866   8.200   2.002 -0.4035  0.3470 -0.3868
  565MOL0     C76189   2.082   8.041   2.240 -0.3753 -0.2838  0.5114
  565MOL0     C76190   2.214   7.990   2.257 -0.0997  0.5370 -0.1230
  565MOL0     N76191   2.739   8.078   2.577 -0.1744 -0.8188 -0.4187
  565MOL0     N76192   2.820   8.127   2.675  0.5998  0.3038  0.4795
  565MOL0     C76193   3.351   8.763   3.512  0.0743  0.2731 -0.2346
  565MOL0     C76194   3.398   8.882   3.564  0.6633  0.5365  0.0899
  565MOL0     C76195   3.758   9.117   3.766 -0.1102  0.1565 -0.0055
  565MOL0     C76196   3.671   9.221   3.811 -0.6238 -0.2794  0.5775
  565MOL0     C76197   3.722   9.330   3.868  0.1164 -0.2251 -0.1202
  565MOL0     C76198   3.854   9.340   3.898 -0.6493 -0.5864 -0.6747
  565MOL0     O76199   3.910   9.453   3.953  0.6177 -0.8154  0.5632
  565MOL0     C76200   3.822   9.540   4.023  0.5141  1.2050  1.8810
  565MOL0     C76201   3.889   9.603   4.140  0.5359 -0.7415 -0.6088
  565MOL0     C76202   4.020   9.674   4.101  0.1012 -0.3463  0.1196
  565MOL0     C76203   4.005   9.802   4.030  0.5698  0.1718  0.7507
  565MOL0     C76204   3.884   9.884   4.060 -0.3735  0.0607  0.1608
  565MOL0     C76205   3.789   9.957   4.090 -0.2903 -0.2194  0.5084
  565MOL0     C76206   3.943   9.244   3.868 -0.5923 -0.3151  0.2631
  565MOL0     C76207   3.891   9.129   3.805  1.1678  0.0485  0.4419
  565MOL0     H76208   3.650   8.713   3.741 -0.7673 -2.7595  1.0353
  565MOL0     H76209   3.561   8.523   3.638  0.3850  0.3262 -0.8739
  565MOL0     H76210   3.530   8.456   3.409 -0.4063 -1.6627  1.0369
  565MOL0     H76211   3.398   8.349   3.405  3.2937 -1.4278 -2.3729
  565MOL0     H76212   3.401   8.587   3.212  0.0338 -0.6039 -1.5684
  565MOL0     H76213   3.507   8.460   3.180  0.1023  0.7196  0.8791
  565MOL0     H76214   3.310   8.314   3.147  2.5574 -0.0590  0.1486
  565MOL0     H76215   3.206   8.452   3.211  0.8854 -0.8822  1.3026
  565MOL0     H76216   3.288   8.595   3.021  1.4378 -0.9340  1.5507
  565MOL0     H76217   3.374   8.452   2.966  0.4914 -0.6345  0.3608
  565MOL0     H76218   3.147   8.335   2.975 -1.0248 -0.0162 -1.2500
  565MOL0     H76219   3.060   8.474   2.993 -0.0450 -1.8983  1.5958
  565MOL0     H76220   3.167   8.577   2.795 -3.6652  0.7776 -1.6717
  565MOL0     H76221   3.249   8.417   2.760  1.1162 -0.8305  2.7417
  565MOL0     H76222   2.939   8.468   2.763 -1.6316  2.2751 -4.8921
  565MOL0     H76223   3.028   8.501   2.624 -0.0557 -1.5298 -0.8777
  565MOL0     H76224   3.013   8.224   2.789  1.6054 -0.7613  1.1466
  565MOL0     H76225   3.089   8.248   2.630 -1.8594 -0.0923 -1.0568
  565MOL0     H76226   2.879   8.338   2.431  1.6988  0.3865  0.7765
  565MOL0     H76227   2.591   8.171   2.329  0.0728  1.2595  0.0511
  565MOL0     H76228   2.754   8.195   2.246  0.6521  1.7826  2.1410
  565MOL0     H76229   2.642   7.934   2.374 -0.0403  1.3658  1.7789
  565MOL0     H76230   2.808   7.951   2.319  0.9714  2.7579 -1.3364
  565MOL0     H76231   2.667   7.842   2.146  1.3690 -0.1729 -0.6087
  565MOL0     H76232   2.754   7.975   2.103 -0.5416 -1.7595 -1.4467
  565MOL0     H76233   2.513   8.001   2.012  1.8653  2.7232 -1.1646
  565MOL0     H76234   2.570   8.130   2.118 -0.7330  0.3384  2.2588
  565MOL0     H76235   2.371   8.194   2.041 -1.2042  0.3654 -0.1684
  565MOL0     H76236   2.063   8.355   1.964  2.5658  2.5822  0.5298
  565MOL0     H76237   2.222   8.324   1.902  2.6863 -3.5720 -0.0910
  565MOL0     H76238   2.093   8.223   1.853  1.2111 -0.0040 -0.6959
  565MOL0     H76239   1.659   8.057   2.058  3.4104 -0.7074  2.3573
  565MOL0     H76240   1.401   8.082   2.086  0.5869 -0.9311  0.1029
  565MOL0     H76241   1.150   8.104   2.215  0.5841 -0.7257  1.1342
  565MOL0     H76242   1.259   8.107   2.349 -0.7206 -3.2872 -1.9116
  565MOL0     H76243   1.163   8.339   2.402  1.2439 -2.7701  2.4219
  565MOL0     H76244   1.035   8.311   2.288 -0.7305 -0.4250 -0.6911
  565MOL0     H76245   1.098   8.133   2.538 -2.6819 -0.3752  2.2463
  565MOL0     H76246   0.963   8.110   2.422  1.9252 -1.8262 -1.3790
  565MOL0     H76247   1.026   8.330   2.631  2.5777 -3.9536 -0.1924
  565MOL0     H76248   0.924   8.359   2.488  4.7357 -0.3769 -3.5382
  565MOL0     H76249   0.763   8.200   2.559 -2.4131  5.1403  0.3943
  565MOL0     H76250   0.788   8.316   2.679 -0.1677  0.3577 -1.9903
  565MOL0     H76251   0.935   8.054   2.667  1.6911  0.8661  0.9895
  565MOL0     H76252   0.920   8.168   2.812  1.9526  1.3855 -2.3095
  565MOL0     H76253   0.663   8.053   2.702 -0.8275 -1.3360  0.3581
  565MOL0     H76254   0.705   8.118   2.861 -1.1983 -2.4595  0.3972
  565MOL0     H76255   0.790   7.901   2.932  1.5865 -5.2279 -1.7664
  565MOL0     H76256   0.835   7.848   2.780 -0.8029 -2.0492  1.8137
  565MOL0     H76257   1.446   8.428   2.325 -3.5190 -2.0940  0.4848
  565MOL0     H76258   1.702   8.382   2.322  1.5466 -0.4168 -0.5618
  565MOL0     H76259   2.009   7.997   2.308  1.2828 -0.7371  2.0726
  565MOL0     H76260   2.227   7.908   2.328 -0.8569 -0.7675 -1.4447
  565MOL0     H76261   3.280   8.786   3.433 -1.8009  1.1694  1.6155
  565MOL0     H76262   3.345   8.975   3.548 -2.7587 -1.0455  1.1356
  565MOL0     H76263   3.567   9.212   3.784 -0.6112  0.1869  0.3670
  565MOL0     H76264   3.649   9.406   3.891  0.3457 -0.0437  0.0129
  565MOL0     H76265   3.780   9.616   3.956 -0.9743 -0.4628  0.8212
  565MOL0     H76266   3.735   9.487   4.063 -0.6266 -1.0509 -2.8169
  565MOL0     H76267   3.904   9.526   4.216  0.0472  0.6266  0.9416
  565MOL0     H76268   3.813   9.670   4.183 -0.1441 -1.1890 -1.1080
  565MOL0     H76269   4.087   9.612   4.041  2.5858  0.3372  2.0317
  565MOL0     H76270   4.072   9.702   4.193 -0.2875 -1.9349  0.8539
  565MOL0     H76271   3.987   9.778   3.925 -0.4092  3.7778 -0.0489
  565MOL0     H76272   4.096   9.863   4.032 -0.8413  2.4261 -0.3729
  565MOL0     H76273   3.706  10.014   4.125  0.8955  2.7581 -1.2266
  565MOL0     H76274   4.044   9.261   3.902 -1.4560  5.5692  0.8672
  565MOL0     H76275   3.955   9.043   3.783 -0.3761 -0.6783 -1.5011
  566MOL0     O76276   5.990   0.974   5.950 -0.5486 -0.0565  0.6117
  566MOL0     C76277   6.099   0.920   5.958 -0.1104 -0.5140 -1.0414
  566MOL0     O76278   6.219   0.971   5.925  0.3068  0.0169 -0.1732
  566MOL0     C76279   6.245   1.099   5.879  0.8934 -0.9164  0.2982
  566MOL0     C76280   6.167   1.215   5.913  0.5090 -0.0167  0.0419
  566MOL0     C76281   6.195   1.335   5.855 -0.7753 -0.1098  0.9311
  566MOL0     C76282   6.308   1.358   5.772  0.6748  0.1002 -0.2915
  566MOL0     O76283   6.364   1.477   5.723  0.2029  0.0661 -0.0850
  566MOL0     C76284   6.265   1.543   5.649 -0.9555 -0.6212 -0.8793
  566MOL0     C76285   6.316   1.625   5.534  0.0914  0.3416 -0.1155
  566MOL0     C76286   6.387   1.547   5.420  0.5368  0.6036 -0.0592
  566MOL0     C76287   6.454   1.644   5.324  0.0282  0.7431  0.1892
  566MOL0     C76288   6.475   1.582   5.183  0.1878  0.0368  0.3929
  566MOL0     C76289   6.594   1.487   5.197 -0.0777  0.4843 -0.0459
  566MOL0     C76290   6.723   1.554   5.245 -0.4204 -0.4081  0.9371
  566MOL0     C76291   6.842   1.461   5.249 -0.2109 -0.1904  0.5761
  566MOL0     N76292   6.899   1.432   5.123 -0.1892  0.8253 -0.2313
  566MOL0     C76293   6.879   1.319   5.047  0.0544  0.3438  0.9369
  566MOL0     C76294   6.958   1.345   4.933  0.9304 -0.8528 -0.7410
  566MOL0     C76295   7.000   1.253   4.829  0.6745  0.1465  0.1019
  566MOL0     C76296   6.897   1.146   4.820  0.0282  1.1189 -0.0732
  566MOL0     C76297   6.907   1.088   4.677  0.5437 -0.2119  0.5744
  566MOL0     C76298   6.782   1.004   4.640 -0.6136  0.2049  0.3472
  566MOL0     O76299   6.757   0.888   4.724 -0.5164 -0.4744 -0.4137
  566MOL0     C76300   6.651   0.810   4.677 -0.1609 -0.5382  0.1571
  566MOL0     C76301   6.547   0.844   4.594 -0.2937 -0.2711 -0.0756
  566MOL0     C76302   6.445   0.751   4.557 -0.3749 -0.4451  0.0588
  566MOL0     C76303   6.336   0.805   4.475  1.1691 -0.0598  1.7140
  566MOL0     C76304   6.443   0.623   4.614 -0.5977 -0.4517  0.0780
  566MOL0     C76305   6.347   0.515   4.579 -0.4561 -0.4718  0.0128
  566MOL0     O76306   6.392   0.385   4.586  0.2450  0.6801  0.6743
  566MOL0     C76307   6.326   0.279   4.534 -0.2823 -0.0413 -0.1453
  566MOL0     C76308   6.397   0.166   4.553  0.1657  0.1450  0.6606
  566MOL0     C76309   6.365   0.042   4.491  0.5233 -0.0284 -0.4586
  566MOL0     C76310   6.235   0.022   4.439  0.4557 -0.8795  0.2233
  566MOL0     O76311   6.189  -0.088   4.370 -0.6789  0.1758 -0.6489
  566MOL0     C76312   6.289  -0.184   4.333 -0.0339  0.7080  0.4324
  566MOL0     C76313   6.306  -0.304   4.428 -0.5578  1.3202  0.4938
  566MOL0     C76314   6.169  -0.365   4.466  0.5247  0.2673  0.6568
  566MOL0     C76315   6.159  -0.433   4.601  0.3225  0.0994  0.2240
  566MOL0     C76316   6.131  -0.336   4.725  1.4630 -0.4938  0.0620
  566MOL0     C76317   6.093  -0.424   4.849  0.2735  1.0616 -0.3487
  566MOL0     C76318   6.086  -0.342   4.984  0.6282  0.3646  0.0465
  566MOL0     C76319   5.949  -0.314   5.027  0.4363 -0.4256  0.2570
  566MOL0    Cl76320   5.924  -0.252   5.195 -0.6216  0.1059  0.0683
  566MOL0     C76321   6.147   0.136   4.447  0.2928 -0.1627 -0.3401
  566MOL0     C76322   6.192   0.268   4.486  0.0120 -0.6729  0.9855
  566MOL0     O76323   6.237   0.549   4.564  0.3699  0.4852 -0.8943
  566MOL0     C76324   6.545   0.587   4.709  0.0540  0.3914  0.0273
  566MOL0     C76325   6.645   0.687   4.738  0.8406 -1.1222 -0.0681
  566MOL0     N76326   7.009   1.470   4.942 -0.6515  0.1686  0.6077
  566MOL0     N76327   6.986   1.518   5.052 -0.2970  0.2713 -0.3381
  566MOL0     C76328   6.384   1.239   5.736 -0.4042 -0.7381 -0.4984
  566MOL0     C76329   6.353   1.119   5.784  0.3751 -0.1760 -0.9567
  566MOL0     C76330   6.108   0.792   6.024 -0.7911 -0.6290 -0.0966
  566MOL0     C76331   6.234   0.725   6.033 -0.4861  0.4191 -0.7266
  566MOL0     C76332   6.239   0.597   6.086  0.8355  0.8380  0.9808
  566MOL0     C76333   6.119   0.537   6.139  0.2495  0.0492 -0.9193
  566MOL0     O76334   6.120   0.416   6.191  0.1808 -0.7600 -0.6957
  566MOL0     C76335   6.148   0.309   6.102 -0.3945  0.1707 -0.4372
  566MOL0     C76336   6.045   0.197   6.115 -0.6534 -0.6204 -0.0879
  566MOL0     C76337   6.047   0.117   6.241 -0.8022 -0.1884  0.0751
  566MOL0     C76338   5.990   0.191   6.357 -0.8760 -0.2206  0.0836
  566MOL0     C76339   6.031   0.129   6.485  0.1234 -0.9241  0.1394
  566MOL0     C76340   6.061   0.081   6.594  0.1671 -0.7962 -0.9581
  566MOL0     C76341   6.001   0.605   6.143  1.4000  0.8984  0.1120
  566MOL0     C76342   5.988   0.730   6.080 -0.0889  1.2016  0.2407
  566MOL0     H76343   6.087   1.214   5.987 -0.7470 -1.4998 -1.2624
  566MOL0     H76344   6.135   1.420   5.885 -1.1771  0.3784 -1.0872
  566MOL0     H76345   6.194   1.471   5.608 -2.1335 -0.4520  0.7877
  566MOL0     H76346   6.215   1.604   5.724  1.5879 -1.0025  1.3073
  566MOL0     H76347   6.228   1.675   5.493  0.5919 -0.1529 -1.8943
  566MOL0     H76348   6.379   1.707   5.570  1.4532 -0.6775 -0.0716
  566MOL0     H76349   6.460   1.489   5.477  0.5375 -1.7586 -2.2491
  566MOL0     H76350   6.321   1.476   5.368 -0.4269  0.5528  1.1802
  566MOL0     H76351   6.382   1.725   5.310 -0.0510  1.0992  2.2557
  566MOL0     H76352   6.537   1.698   5.371 -0.2163 -0.0350  1.5672
  566MOL0     H76353   6.384   1.531   5.152 -0.0578  1.4000 -1.2625
  566MOL0     H76354   6.490   1.664   5.112  0.7795  0.3293  0.8416
  566MOL0     H76355   6.576   1.397   5.258 -1.1574  1.1264  0.6122
  566MOL0     H76356   6.609   1.449   5.096  0.3783  2.4008 -0.7342
  566MOL0     H76357   6.743   1.642   5.182 -2.3929 -1.9910 -2.1603
  566MOL0     H76358   6.700   1.588   5.346 -1.5046 -0.3226  0.6748
  566MOL0     H76359   6.827   1.365   5.300  0.0024 -0.0529  0.9038
  566MOL0     H76360   6.923   1.514   5.300  0.3060 -0.9593  0.5626
  566MOL0     H76361   6.819   1.233   5.077  1.6978 -0.0538  3.3367
  566MOL0     H76362   7.011   1.299   4.730  2.0614  0.7282  0.5088
  566MOL0     H76363   7.099   1.213   4.855  0.0851 -2.0067 -0.7780
  566MOL0     H76364   6.800   1.195   4.833 -1.2464 -1.5456  1.1025
  566MOL0     H76365   6.921   1.066   4.890  3.0149 -0.7777 -2.9829
  566MOL0     H76366   6.992   1.018   4.677  0.5967 -0.1810 -1.1969
  566MOL0     H76367   6.919   1.169   4.605 -1.0275  0.2307  0.7687
  566MOL0     H76368   6.790   0.970   4.536 -0.3426  2.7465 -0.5339
  566MOL0     H76369   6.700   1.076   4.650 -2.3204 -1.0170 -3.0685
  566MOL0     H76370   6.559   0.938   4.540  3.1455  1.2480  2.9486
  566MOL0     H76371   6.351   0.912   4.453  2.6222 -0.9903 -3.1984
  566MOL0     H76372   6.340   0.750   4.381  0.5310  1.6241  0.6412
  566MOL0     H76373   6.237   0.792   4.519 -0.8101  1.9738 -1.5990
  566MOL0     H76374   6.496   0.174   4.598  0.2223 -3.3525  1.5055
  566MOL0     H76375   6.439  -0.035   4.509 -0.1210 -0.7399 -0.7991
  566MOL0     H76376   6.249  -0.231   4.243 -2.9621  1.0112  1.4482
  566MOL0     H76377   6.387  -0.142   4.311  0.3297 -0.1725  0.3238
  566MOL0     H76378   6.362  -0.379   4.372 -0.5700  0.0682  2.1062
  566MOL0     H76379   6.368  -0.268   4.511  1.2362 -2.0439  0.7574
  566MOL0     H76380   6.152  -0.449   4.398  1.0144  0.1683  0.6577
  566MOL0     H76381   6.092  -0.288   4.453 -0.1930 -0.3515  1.1947
  566MOL0     H76382   6.083  -0.511   4.606 -1.8347  2.1796  3.3821
  566MOL0     H76383   6.252  -0.485   4.628  0.5918  0.2140 -0.4647
  566MOL0     H76384   6.053  -0.264   4.701  0.2878 -2.3703 -2.1013
  566MOL0     H76385   6.216  -0.277   4.761 -0.0917  2.2326 -0.4865
  566MOL0     H76386   5.992  -0.459   4.823 -0.6185  0.9540  2.8574
  566MOL0     H76387   6.170  -0.500   4.856  1.6063  2.1789 -2.0554
  566MOL0     H76388   6.146  -0.251   4.982  1.7473 -0.3506  0.0439
  566MOL0     H76389   6.127  -0.403   5.066 -0.0829 -1.6000 -0.9932
  566MOL0     H76390   5.896  -0.410   5.020 -1.0848  0.4465 -0.7350
  566MOL0     H76391   5.911  -0.238   4.959  0.8991  0.4670  0.9794
  566MOL0     H76392   6.044   0.121   4.415 -0.4622 -0.4734  2.0385
  566MOL0     H76393   6.117   0.346   4.493  1.8754  2.0506 -4.1315
  566MOL0     H76394   6.549   0.484   4.743 -3.5329 -0.3576 -1.3791
  566MOL0     H76395   6.729   0.656   4.800  0.4524 -3.1258 -0.4921
  566MOL0     H76396   6.468   1.252   5.670 -0.8720  1.6206 -0.7213
  566MOL0     H76397   6.411   1.033   5.751 -1.2179 -2.1408  1.0394
  566MOL0     H76398   6.331   0.761   6.002 -0.6121  3.0079  1.4908
  566MOL0     H76399   6.338   0.553   6.083  1.4100  2.1329 -0.6214
  566MOL0     H76400   6.144   0.354   6.002 -2.0810  1.0939  0.0181
  566MOL0     H76401   6.247   0.262   6.111  0.2001  1.4441 -0.0711
  566MOL0     H76402   6.062   0.139   6.024  1.6956 -0.7055  0.3573
  566MOL0     H76403   5.945   0.234   6.088 -1.1235 -0.6396  1.5337
  566MOL0     H76404   6.152   0.092   6.254 -0.0498  0.1281 -4.0578
  566MOL0     H76405   6.007   0.015   6.241 -0.8487 -0.1724  0.3471
  566MOL0     H76406   5.882   0.181   6.363 -1.1416  1.8166 -0.2644
  566MOL0     H76407   6.012   0.299   6.351  1.6992 -0.2763  4.4891
  566MOL0     H76408   6.093   0.050   6.692  2.9542  1.3333 -1.0764
  566MOL0     H76409   5.915   0.551   6.181  1.3799 -0.3948 -1.6398
  566MOL0     H76410   5.895   0.786   6.088 -2.0801 -1.8673  0.2726
  567MOL0     O76411  10.004   5.678   9.738 -0.4355 -0.3216 -0.0587
  567MOL0     C76412  10.093   5.657   9.825 -0.8915 -1.3043  0.9487
  567MOL0     O76413  10.165   5.755   9.896 -0.6770  0.4230  0.5660
  567MOL0     C76414  10.135   5.889   9.882 -0.8705 -0.2550  0.1687
  567MOL0     C76415  10.212   5.977   9.795  0.2778 -0.0770 -0.1951
  567MOL0     C76416  10.175   6.109   9.780 -0.0996  0.6883  0.6866
  567MOL0     C76417  10.066   6.156   9.854 -0.5765 -0.7872  0.6650
  567MOL0     O76418  10.010   6.288   9.859 -0.0213  0.6044  0.0039
  567MOL0     C76419  10.108   6.391   9.854 -0.2816  0.7670 -0.2542
  567MOL0     C76420  10.128   6.452   9.713 -0.1479 -0.2612 -0.3240
  567MOL0     C76421   9.990   6.477   9.655  0.1656 -0.5202  1.0331
  567MOL0     C76422  10.017   6.594   9.556  0.0048 -0.4608 -0.3679
  567MOL0     C76423   9.915   6.580   9.446 -0.1664  0.4635  0.2101
  567MOL0     C76424   9.771   6.596   9.491  0.9340 -0.0352  0.6122
  567MOL0     C76425   9.677   6.577   9.373  0.8244  0.2325  0.9279
  567MOL0     C76426   9.676   6.427   9.312 -0.8180 -0.5342  0.0018
  567MOL0     N76427   9.573   6.427   9.204 -1.0200  0.8020  0.6383
  567MOL0     C76428   9.441   6.394   9.208 -0.2356  0.6132  0.3820
  567MOL0     C76429   9.397   6.408   9.083  0.1582 -0.6578 -0.4235
  567MOL0     C76430   9.252   6.401   9.036 -0.8025 -0.4303  0.5177
  567MOL0     C76431   9.206   6.262   9.081 -0.2249  0.8426 -0.0474
  567MOL0     C76432   9.048   6.247   9.045  0.4100  0.3901 -1.1240
  567MOL0     C76433   8.999   6.276   8.901  0.8872 -0.6016 -0.1464
  567MOL0     O76434   8.872   6.215   8.856 -0.0460 -0.3882 -0.3804
  567MOL0     C76435   8.847   6.082   8.896 -0.4771 -0.5511 -0.6088
  567MOL0     C76436   8.729   6.067   8.961  0.1023  0.3713 -0.3055
  567MOL0     C76437   8.685   5.936   8.997  1.0310 -0.7512 -0.4345
  567MOL0     C76438   8.552   5.925   9.057 -0.4574 -1.0443  0.9076
  567MOL0     C76439   8.777   5.830   8.985  0.1186  0.0575  0.6057
  567MOL0     C76440   8.765   5.689   9.035 -0.7690  0.0427 -0.9520
  567MOL0     O76441   8.889   5.618   9.046  0.0822 -0.4720  0.5231
  567MOL0     C76442   8.877   5.489   9.083  0.1826  1.0957  0.0250
  567MOL0     C76443   8.938   5.386   9.002  0.0615  0.3341  0.8092
  567MOL0     C76444   8.918   5.245   9.032 -0.1467 -0.7771  0.0337
  567MOL0     C76445   8.866   5.210   9.152 -0.2148  0.8029 -0.0905
  567MOL0     O76446   8.852   5.078   9.198 -0.3792  0.0164  0.3502
  567MOL0     C76447   8.887   4.963   9.104 -0.3837  0.1282 -0.0060
  567MOL0     C76448   9.001   4.887   9.168  1.0552 -0.1531 -0.0570
  567MOL0     C76449   9.027   4.750   9.108 -0.5976  0.7045 -0.3385
  567MOL0     C76450   9.063   4.740   8.953 -0.3003  0.6237  0.2631
  567MOL0     C76451   9.146   4.608   8.926  1.1960 -0.2672  1.4046
  567MOL0     C76452   9.179   4.599   8.766  0.6621 -0.7943  0.0317
  567MOL0     C76453   9.286   4.698   8.722 -0.8774 -1.3722 -1.7979
  567MOL0     C76454   9.319   4.674   8.579 -1.0106  0.1135  0.1845
  567MOL0    Cl76455   9.196   4.731   8.466  0.0856 -0.0927 -0.2157
  567MOL0     C76456   8.813   5.302   9.234 -0.5481 -0.2393 -0.5472
  567MOL0     C76457   8.814   5.438   9.202 -0.2425 -0.9067 -0.6203
  567MOL0     O76458   8.658   5.642   9.060  0.8274  0.6967  0.4861
  567MOL0     C76459   8.901   5.850   8.915  0.6370 -0.2747 -0.4424
  567MOL0     C76460   8.944   5.981   8.884 -0.0899  0.2622  0.1878
  567MOL0     N76461   9.497   6.434   8.997  0.3083 -0.4836  1.3837
  567MOL0     N76462   9.612   6.458   9.071 -0.0936 -0.0511 -0.7953
  567MOL0     C76463   9.989   6.076   9.932 -1.5020  0.4940  0.1803
  567MOL0     C76464  10.022   5.943   9.943  0.9319 -0.2135  1.2995
  567MOL0     C76465  10.139   5.523   9.854  0.3045  0.8026 -0.2704
  567MOL0     C76466  10.247   5.497   9.947  0.2378  0.4714  0.4640
  567MOL0     C76467  10.294   5.369   9.947  0.0183 -0.3252 -0.1817
  567MOL0     C76468  10.251   5.256   9.884  0.1655 -0.6175 -0.5118
  567MOL0     O76469  10.293   5.123   9.882  0.3068 -0.3366  0.2667
  567MOL0     C76470  10.434   5.104   9.918 -0.0022  0.5470  0.8400
  567MOL0     C76471  10.480   4.960   9.899 -0.4154 -0.4225 -0.4012
  567MOL0     C76472  10.428   4.887   9.777  0.1767  0.6005  0.3646
  567MOL0     C76473  10.485   4.922   9.636  0.5205 -0.1498 -0.4296
  567MOL0     C76474  10.424   4.834   9.537 -0.5313 -0.8237 -1.0179
  567MOL0     C76475  10.345   4.775   9.473  0.8260 -0.4694 -0.2532
  567MOL0     C76476  10.135   5.284   9.805 -1.1128  0.2845 -0.0285
  567MOL0     C76477  10.077   5.415   9.791  0.7845  0.0624  0.2481
  567MOL0     H76478  10.300   5.947   9.738  0.7208  0.3216  0.2680
  567MOL0     H76479  10.221   6.172   9.704  1.5505 -0.3941  0.7397
  567MOL0     H76480  10.074   6.472   9.919 -1.3338 -0.1121  0.3265
  567MOL0     H76481  10.190   6.363   9.920  0.4595 -0.6516 -1.7007
  567MOL0     H76482  10.195   6.538   9.709  0.0712 -0.4645 -1.1604
  567MOL0     H76483  10.182   6.376   9.656  1.2495 -0.0109  0.6194
  567MOL0     H76484   9.959   6.393   9.592  0.5235  2.4238 -3.5484
  567MOL0     H76485   9.909   6.505   9.724 -0.5847  0.0347 -0.0365
  567MOL0     H76486   9.989   6.681   9.617 -1.9020 -1.5230  0.3866
  567MOL0     H76487  10.118   6.601   9.516 -0.5331  1.1472 -1.5414
  567MOL0     H76488   9.932   6.659   9.372  0.1611  1.7698  1.6326
  567MOL0     H76489   9.944   6.488   9.395  0.5315  0.0037  1.4043
  567MOL0     H76490   9.739   6.522   9.565 -2.7567  1.2196  0.4847
  567MOL0     H76491   9.761   6.700   9.522 -2.6574 -0.0695  0.0852
  567MOL0     H76492   9.582   6.620   9.405  1.6345  2.6200  0.2922
  567MOL0     H76493   9.691   6.650   9.294  2.3321 -0.3458  0.6192
  567MOL0     H76494   9.654   6.350   9.386  0.2854  0.5427  1.5232
  567MOL0     H76495   9.780   6.417   9.280 -0.8346 -0.1687 -0.1786
  567MOL0     H76496   9.387   6.367   9.298 -0.4061  5.4025  1.9877
  567MOL0     H76497   9.187   6.483   9.069 -0.4512 -0.1038  0.4049
  567MOL0     H76498   9.252   6.403   8.927 -1.1612 -0.0418  0.5222
  567MOL0     H76499   9.213   6.251   9.190 -2.1133  3.3116  0.4201
  567MOL0     H76500   9.263   6.181   9.036 -1.7313 -0.4011  0.2272
  567MOL0     H76501   8.977   6.287   9.118  0.1906 -0.2784 -0.9651
  567MOL0     H76502   9.031   6.144   9.076 -1.6366  0.9979 -0.0211
  567MOL0     H76503   9.083   6.252   8.834  1.5104 -0.4534  0.5598
  567MOL0     H76504   8.981   6.384   8.897 -0.2085 -0.7793 -0.2582
  567MOL0     H76505   8.655   6.145   8.978  0.8160  1.0406 -0.2093
  567MOL0     H76506   8.552   5.853   9.139  0.4866 -2.3381 -0.1801
  567MOL0     H76507   8.546   6.021   9.110  3.5868  0.2918 -0.6168
  567MOL0     H76508   8.465   5.901   8.995  0.1745 -2.9424  0.6842
  567MOL0     H76509   8.983   5.406   8.905  0.2375 -2.3314  0.2493
  567MOL0     H76510   8.958   5.178   8.956 -2.0887 -1.6736 -0.2614
  567MOL0     H76511   8.809   4.886   9.108  0.4083 -1.0336 -3.4919
  567MOL0     H76512   8.904   4.987   8.999  1.9250  0.0210  0.2992
  567MOL0     H76513   9.093   4.941   9.144  1.2381 -0.9901 -1.3042
  567MOL0     H76514   8.979   4.885   9.275 -2.6978  3.0924 -0.5168
  567MOL0     H76515   8.937   4.688   9.112 -0.8990  0.8702 -2.9604
  567MOL0     H76516   9.108   4.702   9.165  1.7063  1.2311 -2.9671
  567MOL0     H76517   8.967   4.750   8.902 -0.5276  0.3396  0.6351
  567MOL0     H76518   9.131   4.823   8.931  2.0223 -0.3013  3.3136
  567MOL0     H76519   9.088   4.518   8.947  0.5696 -0.2207  0.0268
  567MOL0     H76520   9.244   4.608   8.974  1.7305  1.0349  0.3692
  567MOL0     H76521   9.225   4.501   8.751  0.4566 -0.8216 -0.4496
  567MOL0     H76522   9.085   4.596   8.710  0.6618 -0.5272  0.0203
  567MOL0     H76523   9.370   4.671   8.787 -1.6501  0.2572 -0.0238
  567MOL0     H76524   9.260   4.805   8.729  0.7347 -1.0626  1.3792
  567MOL0     H76525   9.333   4.567   8.560 -1.2840  0.4808 -2.5403
  567MOL0     H76526   9.417   4.718   8.559  0.5797 -1.5104  3.6240
  567MOL0     H76527   8.757   5.281   9.325 -0.2785  0.1075 -0.3002
  567MOL0     H76528   8.780   5.514   9.271  3.4518 -0.1470  0.5973
  567MOL0     H76529   8.989   5.787   8.907  2.5368  2.3990 -2.3320
  567MOL0     H76530   9.043   5.994   8.842  0.4670 -0.0390  1.3659
  567MOL0     H76531   9.914   6.119   9.998 -1.7831  0.6785 -0.2483
  567MOL0     H76532   9.967   5.885  10.016 -1.3691 -1.9000 -1.5599
  567MOL0     H76533  10.295   5.567  10.016 -0.0197  0.3614  0.7590
  567MOL0     H76534  10.383   5.349  10.007  1.7629  2.3221 -1.6894
  567MOL0     H76535  10.498   5.163   9.853  1.8643  0.3328  2.3938
  567MOL0     H76536  10.452   5.153  10.014  0.7553  0.4218  0.7647
  567MOL0     H76537  10.447   4.903   9.986 -0.5647 -0.5487 -0.5382
  567MOL0     H76538  10.587   4.946   9.911 -0.2636 -1.4097 -2.3968
  567MOL0     H76539  10.320   4.904   9.780  0.5268  3.0743  1.6171
  567MOL0     H76540  10.444   4.780   9.794 -1.8746  0.1448 -0.3374
  567MOL0     H76541  10.594   4.920   9.626  0.3544 -0.1022 -2.9043
  567MOL0     H76542  10.452   5.025   9.619 -0.7073  0.0401  2.5824
  567MOL0     H76543  10.297   4.704   9.410  1.2945 -1.1652  0.1553
  567MOL0     H76544  10.104   5.211   9.731 -2.1606  1.0423 -0.3735
  567MOL0     H76545   9.992   5.417   9.724  1.4195 -1.5866 -0.6500
  568MOL0     O76546   2.803   0.630   2.892 -0.2318 -0.2776  0.0796
  568MOL0     C76547   2.854   0.542   2.827 -0.4780  0.2303 -0.4221
  568MOL0     O76548   2.856   0.534   2.692  0.3285 -0.3283  0.0946
  568MOL0     C76549   2.813   0.627   2.610  0.4667 -0.2654  0.2277
  568MOL0     C76550   2.817   0.772   2.633 -0.0672  0.5263  0.6496
  568MOL0     C76551   2.773   0.858   2.536 -0.5326  0.4830 -0.2266
  568MOL0     C76552   2.712   0.815   2.421  0.2255 -0.9324 -0.5120
  568MOL0     O76553   2.659   0.904   2.322  0.1402  0.2225 -0.1884
  568MOL0     C76554   2.661   0.866   2.182 -0.2347 -0.3644 -0.1405
  568MOL0     C76555   2.803   0.855   2.122  0.2202 -0.5254  0.2716
  568MOL0     C76556   2.896   0.965   2.157 -0.0174 -0.4327 -0.0024
  568MOL0     C76557   3.037   0.942   2.101  0.3865  0.3392 -0.6512
  568MOL0     C76558   3.125   1.061   2.108  0.6691  0.0115  0.2778
  568MOL0     C76559   3.247   1.060   2.013  0.2158 -0.4371  0.5214
  568MOL0     C76560   3.326   0.926   2.015  0.0228 -0.0622  0.6722
  568MOL0     C76561   3.389   0.894   1.881  0.7483  0.5185  0.1754
  568MOL0     N76562   3.492   0.782   1.903  0.3784  0.0166  0.6460
  568MOL0     C76563   3.466   0.653   1.850 -0.4742 -0.4827  0.2926
  568MOL0     C76564   3.572   0.572   1.863 -0.2901  0.0141  0.0997
  568MOL0     C76565   3.588   0.423   1.833  0.3480  0.1146 -0.2830
  568MOL0     C76566   3.456   0.338   1.832 -0.9214 -0.2671  0.7059
  568MOL0     C76567   3.406   0.302   1.976  0.1183  0.0901 -0.0922
  568MOL0     C76568   3.264   0.235   1.962 -0.4851 -0.4447  0.0675
  568MOL0     O76569   3.269   0.130   1.865  0.2235 -0.0357 -0.2015
  568MOL0     C76570   3.220   0.010   1.916  0.1010 -0.3096  0.0283
  568MOL0     C76571   3.288  -0.056   2.025 -0.2421  0.1130  0.1039
  568MOL0     C76572   3.233  -0.161   2.089 -0.2733  0.2166  0.1751
  568MOL0     C76573   3.312  -0.221   2.200  0.7863 -0.6734 -1.2048
  568MOL0     C76574   3.113  -0.228   2.049  0.8932  0.5071  0.2886
  568MOL0     C76575   3.062  -0.366   2.094 -0.3204 -0.8031 -0.4781
  568MOL0     O76576   2.938  -0.406   2.037  0.1362  0.1692 -0.4772
  568MOL0     C76577   2.892  -0.535   2.070  0.8020  0.4180  0.5081
  568MOL0     C76578   2.871  -0.560   2.203 -0.5746  0.2257 -0.0328
  568MOL0     C76579   2.848  -0.691   2.245  0.5204 -0.3225  0.1233
  568MOL0     C76580   2.814  -0.793   2.145 -0.3681  0.4748  0.4308
  568MOL0     O76581   2.776  -0.928   2.181  0.1365 -0.6536  0.1580
  568MOL0     C76582   2.800  -0.970   2.316 -0.1699  0.1160  0.4306
  568MOL0     C76583   2.716  -1.106   2.336  0.7887  0.7220 -0.0643
  568MOL0     C76584   2.752  -1.217   2.229  0.3222  0.3654  0.1672
  568MOL0     C76585   2.646  -1.327   2.231  0.1575 -0.0072 -0.9431
  568MOL0     C76586   2.683  -1.417   2.122  0.7106 -0.4110  0.2482
  568MOL0     C76587   2.588  -1.529   2.115  0.6425 -0.0139  0.1548
  568MOL0     C76588   2.642  -1.657   2.043  0.1270  0.3472  0.8863
  568MOL0     C76589   2.686  -1.771   2.137 -0.0284 -0.3865  0.2577
  568MOL0    Cl76590   2.725  -1.914   2.031  0.3524  0.5380 -0.0993
  568MOL0     C76591   2.826  -0.758   2.010  0.5312  0.1689 -0.5179
  568MOL0     C76592   2.869  -0.627   1.963 -0.4623  0.2403 -0.4529
  568MOL0     O76593   3.128  -0.437   2.174  0.2838 -0.2968 -0.9977
  568MOL0     C76594   3.055  -0.161   1.939 -0.2764  0.0162  0.2093
  568MOL0     C76595   3.103  -0.051   1.870 -1.4410 -0.7203  0.5547
  568MOL0     N76596   3.653   0.655   1.947 -1.0904  0.1926  0.1597
  568MOL0     N76597   3.620   0.778   1.948 -0.0625 -0.5847 -0.1503
  568MOL0     C76598   2.701   0.679   2.402  0.2675  0.5269  0.8548
  568MOL0     C76599   2.743   0.583   2.495  0.3807 -0.6956 -0.2857
  568MOL0     C76600   2.927   0.440   2.890 -0.1140  0.0401 -0.0479
  568MOL0     C76601   2.965   0.456   3.032 -0.2456  0.7555  0.7386
  568MOL0     C76602   3.028   0.350   3.100 -0.8694 -0.2744  0.4029
  568MOL0     C76603   3.066   0.233   3.026 -0.3469  0.0223 -0.6314
  568MOL0     O76604   3.147   0.141   3.093  0.5459 -0.3396  1.0711
  568MOL0     C76605   3.253   0.101   3.015  0.1445 -0.5130 -0.0191
  568MOL0     C76606   3.341   0.222   2.980  0.6280  0.1694  0.0697
  568MOL0     C76607   3.390   0.298   3.099  0.3717 -1.0923 -0.5252
  568MOL0     C76608   3.495   0.406   3.065 -0.7510 -0.3136 -0.2608
  568MOL0     C76609   3.619   0.340   3.016  0.0390  0.2382 -0.5002
  568MOL0     C76610   3.729   0.289   2.993  0.2805 -0.4215 -0.4973
  568MOL0     C76611   3.023   0.222   2.896 -0.6380  0.5070 -0.4771
  568MOL0     C76612   2.962   0.319   2.828  0.7927 -1.1583  0.0289
  568MOL0     H76613   2.869   0.812   2.719  0.5552 -1.7369  1.4141
  568MOL0     H76614   2.791   0.960   2.568 -1.6819 -0.4961  4.1331
  568MOL0     H76615   2.611   0.770   2.169 -0.6036 -0.2958  0.6901
  568MOL0     H76616   2.606   0.939   2.123  1.3891  0.2915 -0.9145
  568MOL0     H76617   2.842   0.755   2.142  0.2599 -1.1271 -2.3770
  568MOL0     H76618   2.793   0.845   2.013  5.0865  0.8623 -0.5424
  568MOL0     H76619   2.870   1.066   2.126  1.5501  0.4765  1.4663
  568MOL0     H76620   2.892   0.969   2.266 -0.8005 -1.0136 -0.0022
  568MOL0     H76621   3.094   0.857   2.142 -1.6414 -1.4187 -1.2667
  568MOL0     H76622   3.021   0.923   1.995  0.5885 -2.3925 -0.2769
  568MOL0     H76623   3.067   1.153   2.099 -1.2229 -0.7578  3.2416
  568MOL0     H76624   3.165   1.057   2.209  1.4631 -3.5974 -0.0143
  568MOL0     H76625   3.199   1.060   1.915  0.8234 -1.8583  0.1976
  568MOL0     H76626   3.308   1.150   2.024  0.0276  0.4794 -4.1734
  568MOL0     H76627   3.408   0.929   2.088 -1.0909 -2.7877  2.1949
  568MOL0     H76628   3.262   0.840   2.037  1.9045 -1.5190  0.7397
  568MOL0     H76629   3.445   0.981   1.845 -2.6877  2.9811  0.2675
  568MOL0     H76630   3.313   0.875   1.806  0.7182  3.0748 -0.5354
  568MOL0     H76631   3.376   0.627   1.796  0.1299  2.7426 -2.6250
  568MOL0     H76632   3.647   0.418   1.741  1.4963  1.4987  0.3339
  568MOL0     H76633   3.656   0.384   1.910  0.9551  2.0740  0.2419
  568MOL0     H76634   3.476   0.247   1.774 -0.2611 -1.3082  2.4988
  568MOL0     H76635   3.381   0.397   1.777 -0.0097 -0.8991 -1.3205
  568MOL0     H76636   3.399   0.396   2.031  0.7762  0.0747  0.0366
  568MOL0     H76637   3.470   0.237   2.036  0.9159  1.2251  0.3324
  568MOL0     H76638   3.198   0.320   1.940 -1.8506 -0.3175  3.8780
  568MOL0     H76639   3.231   0.206   2.062  1.4699 -1.0762  0.5748
  568MOL0     H76640   3.384  -0.016   2.057 -1.2622  1.1367  2.0492
  568MOL0     H76641   3.242  -0.217   2.283  1.8054 -1.0560 -0.3048
  568MOL0     H76642   3.335  -0.328   2.193 -2.4395 -1.5333 -0.1526
  568MOL0     H76643   3.404  -0.167   2.225  1.4218 -2.3280  0.2049
  568MOL0     H76644   2.871  -0.473   2.269  1.1219  1.2178 -1.2748
  568MOL0     H76645   2.844  -0.713   2.351 -0.0490 -0.5716  0.0523
  568MOL0     H76646   2.907  -0.980   2.333  0.4123  0.3843 -2.6625
  568MOL0     H76647   2.768  -0.913   2.404  1.7156  0.2011  1.1075
  568MOL0     H76648   2.731  -1.134   2.441 -0.7353  0.7942  0.1878
  568MOL0     H76649   2.613  -1.080   2.314  1.7127  2.3522 -2.9378
  568MOL0     H76650   2.849  -1.264   2.247 -0.7309 -2.2443 -0.5319
  568MOL0     H76651   2.757  -1.176   2.128 -0.1255 -1.4238 -0.6127
  568MOL0     H76652   2.645  -1.379   2.327  1.1217  2.1772  0.3418
  568MOL0     H76653   2.548  -1.277   2.226 -0.0330 -0.4295 -1.5694
  568MOL0     H76654   2.785  -1.453   2.138  0.0660 -2.7877 -0.5057
  568MOL0     H76655   2.676  -1.361   2.029 -2.1722  0.2133  0.7495
  568MOL0     H76656   2.541  -1.556   2.210 -0.1551  2.3569  0.5125
  568MOL0     H76657   2.504  -1.500   2.051 -0.9226 -3.9204  0.1488
  568MOL0     H76658   2.731  -1.627   1.988  2.1446  0.5604  3.9908
  568MOL0     H76659   2.559  -1.688   1.979  0.8085  2.5846 -1.2252
  568MOL0     H76660   2.609  -1.785   2.213  0.8644 -0.5588  1.1545
  568MOL0     H76661   2.770  -1.732   2.195 -0.8589  0.4964  0.8907
  568MOL0     H76662   2.783  -0.827   1.938 -1.9773  1.6681 -0.5851
  568MOL0     H76663   2.883  -0.598   1.860  1.3635  1.0112 -0.0303
  568MOL0     H76664   2.969  -0.199   1.886 -0.0069  0.5842 -0.6701
  568MOL0     H76665   3.041  -0.006   1.794  0.4303 -2.3587 -2.1195
  568MOL0     H76666   2.666   0.637   2.309 -0.0051 -0.0218  1.2015
  568MOL0     H76667   2.726   0.477   2.479  2.8805 -1.3062  0.6349
  568MOL0     H76668   2.923   0.539   3.088 -2.2600 -0.0251  0.4990
  568MOL0     H76669   3.067   0.370   3.199 -1.6544  2.3804  0.2485
  568MOL0     H76670   3.310   0.027   3.073 -0.5637 -0.8984  0.1916
  568MOL0     H76671   3.230   0.069   2.913  3.6497 -0.3815 -0.9805
  568MOL0     H76672   3.279   0.283   2.914 -0.2888 -0.3110  0.4777
  568MOL0     H76673   3.429   0.191   2.924  2.0569 -0.2836  2.4150
  568MOL0     H76674   3.437   0.230   3.171  2.9641 -0.0228 -1.0842
  568MOL0     H76675   3.304   0.350   3.143  2.0949  0.6442  0.9867
  568MOL0     H76676   3.516   0.459   3.159 -2.4684 -1.0993  0.6264
  568MOL0     H76677   3.444   0.478   3.000 -0.4561 -0.6856 -0.9087
  568MOL0     H76678   3.830   0.252   2.988  0.0803 -1.9660  3.3037
  568MOL0     H76679   3.047   0.132   2.840  0.6068  0.7618 -0.3757
  568MOL0     H76680   2.922   0.290   2.732 -2.7899 -0.0580  1.0138
  569MOL0     O76681   3.910   3.164   1.531 -0.1942  0.3657  0.3982
  569MOL0     C76682   3.821   3.117   1.600 -1.4082 -1.5249 -0.2146
  569MOL0     O76683   3.762   3.191   1.699  0.0083  1.0168  0.3384
  569MOL0     C76684   3.815   3.316   1.728  1.1919  0.1551 -0.5370
  569MOL0     C76685   3.908   3.323   1.829 -0.1042 -0.4266 -0.5512
  569MOL0     C76686   3.982   3.440   1.853  0.3406  0.2051 -0.6114
  569MOL0     C76687   3.959   3.559   1.780  0.2415  0.2848 -0.2952
  569MOL0     O76688   4.022   3.678   1.793  0.7101  0.4154 -0.0869
  569MOL0     C76689   4.105   3.687   1.904 -1.2544 -0.3634 -0.2621
  569MOL0     C76690   4.169   3.834   1.916 -0.2155  0.1768 -0.5742
  569MOL0     C76691   4.241   3.875   1.791  0.6882  0.2347  0.7337
  569MOL0     C76692   4.320   4.001   1.809 -0.8108  0.3063 -0.6870
  569MOL0     C76693   4.419   4.026   1.698  0.9667  0.0431 -0.1978
  569MOL0     C76694   4.492   4.158   1.717 -1.2417  0.3871  0.3735
  569MOL0     C76695   4.629   4.145   1.636  0.2771 -0.8182  0.1290
  569MOL0     C76696   4.694   4.279   1.642  0.0476 -0.0769  0.0534
  569MOL0     N76697   4.838   4.253   1.635 -0.8980 -0.1593 -0.9796
  569MOL0     C76698   4.912   4.239   1.527  0.6002 -1.0915  0.3551
  569MOL0     C76699   5.038   4.224   1.576  0.2168  0.2544  0.0370
  569MOL0     C76700   5.154   4.227   1.481  0.3491  0.8540 -0.0246
  569MOL0     C76701   5.273   4.175   1.556 -0.3638  0.4994  0.2965
  569MOL0     C76702   5.335   4.282   1.652  1.1677 -0.4028  0.4345
  569MOL0     C76703   5.443   4.213   1.744  0.0089 -0.5314  0.9124
  569MOL0     O76704   5.508   4.308   1.825 -0.0729 -0.2854 -0.1326
  569MOL0     C76705   5.597   4.255   1.917  0.1627  0.0902 -0.4696
  569MOL0     C76706   5.646   4.346   2.010  0.3118  0.5878 -0.2277
  569MOL0     C76707   5.757   4.306   2.092 -0.6546  0.5294 -0.3208
  569MOL0     C76708   5.834   4.422   2.159  0.1875 -0.0556 -0.3862
  569MOL0     C76709   5.796   4.165   2.101  0.2901 -0.6428 -0.0986
  569MOL0     C76710   5.908   4.110   2.178  1.0710 -0.2229  1.0131
  569MOL0     O76711   5.945   3.980   2.153 -0.2512  0.2806 -0.0259
  569MOL0     C76712   6.033   3.933   2.235 -0.0129  0.4916 -0.2608
  569MOL0     C76713   5.987   3.882   2.357  0.5235 -0.6573  0.0394
  569MOL0     C76714   6.086   3.842   2.456  0.0697 -0.0289  0.3773
  569MOL0     C76715   6.220   3.821   2.417  0.0496 -0.3277 -0.3187
  569MOL0     O76716   6.303   3.765   2.514 -0.4308 -0.0608 -0.6887
  569MOL0     C76717   6.446   3.800   2.506 -0.0033 -0.2112  0.5197
  569MOL0     C76718   6.523   3.699   2.592 -0.3217  0.2217 -0.4777
  569MOL0     C76719   6.680   3.703   2.583 -0.7352  0.0032 -0.7694
  569MOL0     C76720   6.731   3.568   2.629 -0.9384  0.9085 -0.6342
  569MOL0     C76721   6.877   3.549   2.590 -0.2842  0.4548 -0.5498
  569MOL0     C76722   6.920   3.394   2.605  0.1928 -0.2388  0.4612
  569MOL0     C76723   6.928   3.345   2.754  0.0883 -0.9154  0.6956
  569MOL0     C76724   6.935   3.194   2.783 -0.0617 -0.1923 -0.0774
  569MOL0    Cl76725   6.974   3.152   2.960  0.2572 -0.3388 -0.0612
  569MOL0     C76726   6.259   3.868   2.297  0.7747 -0.8869  0.9446
  569MOL0     C76727   6.165   3.934   2.201 -0.2411 -0.2167 -1.3067
  569MOL0     O76728   5.954   4.180   2.268  0.2282  0.2639 -0.3167
  569MOL0     C76729   5.728   4.081   2.016 -0.8638  1.0398  0.2162
  569MOL0     C76730   5.632   4.128   1.926  0.3424  0.8846 -0.2190
  569MOL0     N76731   5.031   4.211   1.712  0.6080  0.9889 -0.4893
  569MOL0     N76732   4.906   4.213   1.748 -0.6398 -0.4829  0.5616
  569MOL0     C76733   3.864   3.547   1.675 -0.8725  0.4147 -0.7783
  569MOL0     C76734   3.785   3.427   1.655  0.5369 -0.6734 -0.6826
  569MOL0     C76735   3.767   2.985   1.592 -0.1332  0.5775  0.0455
  569MOL0     C76736   3.718   2.910   1.693  0.4346 -0.8726 -0.1537
  569MOL0     C76737   3.676   2.780   1.691 -0.4953  0.9117 -0.2642
  569MOL0     C76738   3.671   2.708   1.568  0.3624  0.5619  0.6755
  569MOL0     O76739   3.632   2.584   1.586 -0.0735  0.5729 -0.1050
  569MOL0     C76740   3.628   2.488   1.479 -0.1544 -0.6577 -0.1475
  569MOL0     C76741   3.762   2.431   1.437  0.0876  0.4935  0.8791
  569MOL0     C76742   3.754   2.345   1.298 -0.2913 -1.1849  0.1813
  569MOL0     C76743   3.732   2.445   1.178  0.7450  0.6958 -0.5679
  569MOL0     C76744   3.590   2.462   1.149  0.4063 -0.2621 -0.0254
  569MOL0     C76745   3.473   2.496   1.124  0.9469 -0.0540  0.2780
  569MOL0     C76746   3.724   2.780   1.459  0.3971  1.5080 -0.2298
  569MOL0     C76747   3.763   2.914   1.464 -1.2610  0.7252  0.2578
  569MOL0     H76748   3.934   3.235   1.887  1.9940  1.1303  1.0493
  569MOL0     H76749   4.064   3.424   1.922 -1.3951 -1.6320  1.1843
  569MOL0     H76750   4.047   3.666   1.994  0.3241  0.8885  1.1333
  569MOL0     H76751   4.181   3.609   1.902 -3.0513 -2.2395  0.8845
  569MOL0     H76752   4.088   3.908   1.926  1.7120  2.2573  0.6783
  569MOL0     H76753   4.232   3.832   2.006 -0.3589 -0.3318 -0.4810
  569MOL0     H76754   4.301   3.790   1.759 -0.6264 -0.5914  0.3696
  569MOL0     H76755   4.164   3.887   1.715  1.8403 -0.0642 -0.5057
  569MOL0     H76756   4.246   4.080   1.824 -1.5350 -0.5076  0.1731
  569MOL0     H76757   4.385   3.990   1.896 -0.7458  3.2628 -0.2493
  569MOL0     H76758   4.498   3.952   1.712  1.2820  0.7994  2.5239
  569MOL0     H76759   4.374   4.039   1.599 -1.5319  1.2291  0.9823
  569MOL0     H76760   4.425   4.232   1.673 -1.5020 -0.7796 -1.2853
  569MOL0     H76761   4.511   4.172   1.824  0.0081  1.2389  0.0601
  569MOL0     H76762   4.694   4.080   1.695  0.6466  0.7535  1.5134
  569MOL0     H76763   4.617   4.111   1.532 -4.0402 -0.2790  0.2771
  569MOL0     H76764   4.679   4.317   1.744  0.9249  2.1088 -0.5768
  569MOL0     H76765   4.658   4.363   1.582 -0.0693  2.4981  3.3813
  569MOL0     H76766   4.887   4.253   1.422  1.0023 -0.7636  0.2986
  569MOL0     H76767   5.138   4.168   1.390  1.6634  0.5314 -0.0672
  569MOL0     H76768   5.178   4.331   1.460  0.9692  1.1963  2.1348
  569MOL0     H76769   5.355   4.149   1.488  1.7903  1.6155  2.3246
  569MOL0     H76770   5.245   4.082   1.607 -1.7601  1.0712  0.6324
  569MOL0     H76771   5.260   4.328   1.716 -0.2293  1.6810 -2.4553
  569MOL0     H76772   5.378   4.366   1.597  0.4566  0.8916  1.7779
  569MOL0     H76773   5.513   4.177   1.668 -2.1296 -3.7227  0.2710
  569MOL0     H76774   5.404   4.127   1.799  1.0941 -0.1900  2.2732
  569MOL0     H76775   5.614   4.449   2.011  0.9154  0.7766 -0.0137
  569MOL0     H76776   5.865   4.380   2.256  0.8101 -0.9289 -0.9506
  569MOL0     H76777   5.919   4.461   2.103 -0.8048  0.6463 -1.4285
  569MOL0     H76778   5.767   4.504   2.185  1.9598  1.2294  0.3479
  569MOL0     H76779   5.883   3.888   2.387  0.2544  3.0489 -1.1264
  569MOL0     H76780   6.060   3.813   2.558  0.5799 -2.0005 -0.0004
  569MOL0     H76781   6.483   3.794   2.404 -0.3320 -0.4903  0.4150
  569MOL0     H76782   6.481   3.901   2.532  0.3161 -0.1343 -0.1865
  569MOL0     H76783   6.486   3.711   2.694 -0.0549 -2.8600  0.0632
  569MOL0     H76784   6.489   3.597   2.570 -0.1428 -0.0750  0.5898
  569MOL0     H76785   6.723   3.772   2.656 -0.7002 -0.4461 -0.3544
  569MOL0     H76786   6.712   3.734   2.484 -1.3796 -0.3856 -1.1035
  569MOL0     H76787   6.725   3.562   2.738 -0.3092 -2.2977 -0.6792
  569MOL0     H76788   6.675   3.487   2.580  1.0282 -0.8226 -0.1904
  569MOL0     H76789   6.953   3.598   2.651 -0.2452  1.5239 -1.4260
  569MOL0     H76790   6.880   3.577   2.484 -0.8657  0.7065 -0.5055
  569MOL0     H76791   6.855   3.326   2.548  0.8230 -1.5854  1.3113
  569MOL0     H76792   7.024   3.385   2.573  0.9203  1.4843  2.1734
  569MOL0     H76793   6.828   3.377   2.786  0.4437 -1.9039  2.9366
  569MOL0     H76794   6.999   3.403   2.814 -1.2711  0.0194  1.4625
  569MOL0     H76795   7.006   3.135   2.724  0.8012  1.9463 -1.3054
  569MOL0     H76796   6.832   3.168   2.759 -0.2293 -0.7062  1.1320
  569MOL0     H76797   6.361   3.873   2.261 -0.7767 -0.9713 -4.3661
  569MOL0     H76798   6.205   3.976   2.110 -1.0942 -0.5273 -1.8299
  569MOL0     H76799   5.749   3.975   2.012  0.8838  1.3983 -2.8352
  569MOL0     H76800   5.591   4.052   1.859  1.4821 -1.7198  1.8477
  569MOL0     H76801   3.865   3.627   1.602  1.2266 -0.6678 -2.0138
  569MOL0     H76802   3.722   3.411   1.569 -0.4959 -3.9259  0.5395
  569MOL0     H76803   3.707   2.956   1.791  1.4097 -2.3715  0.7038
  569MOL0     H76804   3.643   2.723   1.777  0.4840 -1.7962 -1.5643
  569MOL0     H76805   3.558   2.409   1.508  0.1513 -1.2370 -0.9492
  569MOL0     H76806   3.575   2.543   1.401 -0.5791  1.7233  1.6926
  569MOL0     H76807   3.798   2.362   1.514 -0.2598 -0.1739  0.4496
  569MOL0     H76808   3.830   2.515   1.422  1.1435 -0.4931  0.0659
  569MOL0     H76809   3.670   2.275   1.291  1.6319 -3.4619 -2.7887
  569MOL0     H76810   3.849   2.293   1.285  1.8530  2.8714 -2.2479
  569MOL0     H76811   3.785   2.400   1.094  1.0500 -4.1458  1.8574
  569MOL0     H76812   3.770   2.544   1.208  2.6274 -0.5088  1.3299
  569MOL0     H76813   3.371   2.528   1.113  0.6560  0.2117  2.9836
  569MOL0     H76814   3.721   2.725   1.365 -0.6781  0.5782  0.3346
  569MOL0     H76815   3.802   2.973   1.382  2.2962  1.9839  2.6381
  570MOL0     O76816   5.244   2.503   5.115 -0.0503 -0.4587 -0.6418
  570MOL0     C76817   5.357   2.499   5.169  0.4015 -1.0532 -0.1163
  570MOL0     O76818   5.476   2.527   5.107 -0.4214 -0.2361 -0.1467
  570MOL0     C76819   5.475   2.527   4.968 -0.8910 -0.0328 -0.1087
  570MOL0     C76820   5.490   2.408   4.897 -0.2073  0.1772  0.0834
  570MOL0     C76821   5.522   2.425   4.756 -1.3633  0.0195  1.0082
  570MOL0     C76822   5.518   2.548   4.687  0.3162 -0.2107 -0.3273
  570MOL0     O76823   5.550   2.540   4.553  0.6698 -0.1191  0.0377
  570MOL0     C76824   5.506   2.647   4.468  0.0737  0.3166 -0.8769
  570MOL0     C76825   5.483   2.606   4.319 -0.8155 -0.6875  0.2206
  570MOL0     C76826   5.361   2.678   4.270 -0.1206  0.2489  0.6888
  570MOL0     C76827   5.316   2.619   4.134  0.3162 -0.0711 -0.4236
  570MOL0     C76828   5.201   2.709   4.093  0.2652 -0.6060 -0.5981
  570MOL0     C76829   5.152   2.646   3.962 -0.9281  0.0248  0.7471
  570MOL0     C76830   5.070   2.745   3.878  0.2908  0.0017  0.1607
  570MOL0     C76831   4.981   2.654   3.794  0.3017  0.5338 -0.0651
  570MOL0     N76832   4.911   2.728   3.682 -0.1208 -0.8220 -1.0140
  570MOL0     C76833   4.959   2.758   3.564 -1.2914 -1.0010  0.1018
  570MOL0     C76834   4.854   2.786   3.484  0.2037 -0.8021  0.2991
  570MOL0     C76835   4.854   2.818   3.337  0.2681 -0.7241 -0.9643
  570MOL0     C76836   4.760   2.933   3.281 -0.2946  0.8158  0.2338
  570MOL0     C76837   4.833   3.057   3.242  0.5010 -0.3758 -0.3099
  570MOL0     C76838   4.728   3.175   3.215  0.0098  0.3137  0.4830
  570MOL0     O76839   4.787   3.300   3.187  0.4810  0.4256  0.3479
  570MOL0     C76840   4.688   3.394   3.168 -0.0539 -0.2441 -0.7863
  570MOL0     C76841   4.555   3.369   3.166  1.5911 -0.5635  0.0555
  570MOL0     C76842   4.460   3.472   3.159  0.1943 -1.0770 -0.5456
  570MOL0     C76843   4.313   3.426   3.154  0.1778  0.0557 -0.5343
  570MOL0     C76844   4.504   3.607   3.145  0.1606 -0.3743  0.4893
  570MOL0     C76845   4.408   3.726   3.117 -0.3504 -0.9787 -1.2430
  570MOL0     O76846   4.473   3.849   3.135  0.0804 -0.1578 -0.4502
  570MOL0     C76847   4.429   3.968   3.147  1.4125 -0.3937  0.4709
  570MOL0     C76848   4.297   4.007   3.114 -0.2952  0.0778 -0.0093
  570MOL0     C76849   4.254   4.139   3.119 -0.0798 -0.8150 -0.4476
  570MOL0     C76850   4.350   4.242   3.154  0.9184 -0.5103 -0.8923
  570MOL0     O76851   4.319   4.374   3.177  0.2660 -0.9360  0.2417
  570MOL0     C76852   4.240   4.446   3.085 -0.0805 -0.0776  0.1647
  570MOL0     C76853   4.086   4.453   3.125 -0.3732 -0.4239 -0.2924
  570MOL0     C76854   4.009   4.584   3.108  0.0859  0.5686  0.5929
  570MOL0     C76855   3.867   4.574   3.165  0.0659  0.0999 -0.3549
  570MOL0     C76856   3.796   4.718   3.163  1.0284  0.3151 -0.0020
  570MOL0     C76857   3.657   4.730   3.242 -1.1135 -0.9165  1.0086
  570MOL0     C76858   3.676   4.746   3.398 -0.2415 -0.6198  0.7929
  570MOL0     C76859   3.540   4.717   3.467 -0.6951 -0.1812  0.4253
  570MOL0    Cl76860   3.502   4.544   3.436 -1.0477 -0.3445  0.2848
  570MOL0     C76861   4.481   4.202   3.184 -0.4222  0.8233 -0.7018
  570MOL0     C76862   4.526   4.068   3.178 -0.0622  0.3911 -0.7498
  570MOL0     O76863   4.294   3.710   3.099 -0.0483  0.0307  0.2776
  570MOL0     C76864   4.643   3.631   3.150 -1.3222  0.2731 -0.1245
  570MOL0     C76865   4.730   3.526   3.182 -0.2662  0.2719  0.5384
  570MOL0     N76866   4.738   2.809   3.561 -0.5275  0.9003  0.3632
  570MOL0     N76867   4.777   2.762   3.675  1.3300 -0.4806 -0.5449
  570MOL0     C76868   5.464   2.659   4.762 -1.2186  0.5463  0.5836
  570MOL0     C76869   5.463   2.648   4.907  0.9541  0.0492  0.7747
  570MOL0     C76870   5.352   2.471   5.315 -1.1284  0.1701  1.1701
  570MOL0     C76871   5.462   2.423   5.384 -0.1149  0.3199 -0.3944
  570MOL0     C76872   5.450   2.402   5.519 -0.0201 -0.3073 -0.4638
  570MOL0     C76873   5.343   2.457   5.595 -0.6439 -0.0140 -0.6919
  570MOL0     O76874   5.338   2.456   5.731 -0.6222  0.0154  1.1402
  570MOL0     C76875   5.415   2.373   5.813 -0.6745 -0.8360  1.4193
  570MOL0     C76876   5.375   2.233   5.845 -0.5488  0.4619 -0.1244
  570MOL0     C76877   5.454   2.144   5.950  0.0133 -0.8100 -0.5901
  570MOL0     C76878   5.524   2.227   6.059  0.4788  0.5911  0.2244
  570MOL0     C76879   5.436   2.306   6.144  0.7404 -0.9321  0.5358
  570MOL0     C76880   5.375   2.373   6.222 -0.3848 -0.0043 -0.7916
  570MOL0     C76881   5.240   2.510   5.519 -0.1654 -0.5569 -0.8110
  570MOL0     C76882   5.251   2.525   5.385  0.5364 -0.1038  0.4717
  570MOL0     H76883   5.493   2.315   4.953  0.5076  2.4590  4.2438
  570MOL0     H76884   5.545   2.335   4.700 -5.1336 -0.5186  0.0848
  570MOL0     H76885   5.421   2.696   4.516  1.0579  0.7442  0.4885
  570MOL0     H76886   5.586   2.721   4.472 -2.0146  2.6714  1.0809
  570MOL0     H76887   5.566   2.632   4.253  0.0005 -0.0972  1.4594
  570MOL0     H76888   5.473   2.497   4.308  2.2781 -1.0051 -0.1678
  570MOL0     H76889   5.277   2.664   4.340 -0.8416 -0.1555 -0.2281
  570MOL0     H76890   5.385   2.782   4.248 -1.0569  0.1297 -1.0847
  570MOL0     H76891   5.400   2.628   4.065 -1.2270  0.3068 -2.3470
  570MOL0     H76892   5.278   2.516   4.137  1.5387 -0.5239  2.7186
  570MOL0     H76893   5.125   2.708   4.172  2.0785 -2.7731  1.2552
  570MOL0     H76894   5.229   2.810   4.063 -1.5747  0.2741  0.4602
  570MOL0     H76895   5.244   2.620   3.909 -1.1206 -1.7565  1.2367
  570MOL0     H76896   5.099   2.555   3.992 -0.5625  0.6183  3.4307
  570MOL0     H76897   5.013   2.820   3.933  1.2950 -0.5352  1.9881
  570MOL0     H76898   5.125   2.808   3.808 -1.0715  0.4383 -0.5451
  570MOL0     H76899   4.899   2.619   3.857 -1.9590  0.2553 -2.9322
  570MOL0     H76900   5.041   2.570   3.757  1.0294  0.9270  0.2116
  570MOL0     H76901   5.066   2.771   3.553 -1.6077 -0.2129 -2.6220
  570MOL0     H76902   4.955   2.837   3.301  0.6750  0.5545  0.7303
  570MOL0     H76903   4.817   2.729   3.286 -1.9377  0.2239 -1.1325
  570MOL0     H76904   4.678   2.950   3.352 -1.3995 -2.4887 -0.0655
  570MOL0     H76905   4.709   2.895   3.192 -0.1368  0.7100  0.1882
  570MOL0     H76906   4.887   3.047   3.148 -0.3907  0.3040 -0.9038
  570MOL0     H76907   4.901   3.100   3.316 -1.4976  0.2855  1.2435
  570MOL0     H76908   4.668   3.179   3.306  2.8689  2.1884  2.4331
  570MOL0     H76909   4.665   3.140   3.132 -2.0297 -0.2344  2.1789
  570MOL0     H76910   4.511   3.270   3.164 -2.1054  0.9117 -1.2744
  570MOL0     H76911   4.294   3.319   3.139  1.1763 -0.2063 -0.0978
  570MOL0     H76912   4.269   3.452   3.251  0.8847 -3.1349  0.8018
  570MOL0     H76913   4.264   3.476   3.071 -2.8265  1.7079  2.0102
  570MOL0     H76914   4.216   3.936   3.098 -2.7724  2.8258 -0.6080
  570MOL0     H76915   4.150   4.164   3.103 -0.3903 -1.5929  0.2720
  570MOL0     H76916   4.294   4.539   3.066  3.1444 -1.1050  3.2015
  570MOL0     H76917   4.237   4.381   2.997  2.1383  0.4037 -0.3313
  570MOL0     H76918   4.036   4.379   3.062  0.8676  0.6280 -2.6739
  570MOL0     H76919   4.080   4.423   3.230  2.6468  0.8066  0.3497
  570MOL0     H76920   4.022   4.590   2.999  3.4420 -2.5525  0.6370
  570MOL0     H76921   4.074   4.665   3.143  0.4482  1.2977 -1.6074
  570MOL0     H76922   3.815   4.502   3.102  0.6191 -1.7588  1.2279
  570MOL0     H76923   3.866   4.550   3.271 -0.0564  0.9096 -0.1641
  570MOL0     H76924   3.778   4.752   3.061  0.6648 -2.3251 -0.8902
  570MOL0     H76925   3.858   4.798   3.207  0.1688  0.8865  0.1905
  570MOL0     H76926   3.587   4.803   3.199 -0.1638  0.0983  1.1506
  570MOL0     H76927   3.612   4.632   3.225 -4.4497  0.5931  0.1541
  570MOL0     H76928   3.713   4.843   3.436 -1.3152 -0.6445  1.9715
  570MOL0     H76929   3.744   4.674   3.445  0.0303  0.6481  2.4689
  570MOL0     H76930   3.459   4.788   3.453  0.9703  1.6935 -0.1721
  570MOL0     H76931   3.557   4.717   3.575 -0.7317 -0.3122  0.4313
  570MOL0     H76932   4.557   4.271   3.219 -0.8776  0.3503  1.3443
  570MOL0     H76933   4.623   4.031   3.211  0.6482  1.4097 -1.6265
  570MOL0     H76934   4.681   3.732   3.143 -2.5019  0.6821 -0.9508
  570MOL0     H76935   4.833   3.539   3.212 -0.6275 -0.4297  2.2272
  570MOL0     H76936   5.434   2.753   4.715  0.7490  0.1346 -1.6792
  570MOL0     H76937   5.452   2.735   4.971 -0.1573 -1.5747  2.9087
  570MOL0     H76938   5.559   2.396   5.343  0.9509 -0.4115  2.3791
  570MOL0     H76939   5.539   2.353   5.555  2.5017  2.2466 -2.7266
  570MOL0     H76940   5.519   2.374   5.777 -0.9638  0.1568  0.5585
  570MOL0     H76941   5.420   2.436   5.903  1.1670  2.6056 -0.8473
  570MOL0     H76942   5.385   2.185   5.747 -0.8831  1.5567 -0.7109
  570MOL0     H76943   5.270   2.237   5.876 -1.4524 -2.2353 -2.4071
  570MOL0     H76944   5.530   2.086   5.898  0.9321  0.1928 -0.3998
  570MOL0     H76945   5.388   2.070   5.997  0.6702 -0.5938  0.7353
  570MOL0     H76946   5.602   2.284   6.007  0.7342 -2.1051 -2.6186
  570MOL0     H76947   5.566   2.149   6.123 -1.5247 -2.2710 -1.6602
  570MOL0     H76948   5.321   2.442   6.284  0.9324  1.0298 -0.7363
  570MOL0     H76949   5.149   2.550   5.563 -0.8112  1.8135 -3.9626
  570MOL0     H76950   5.163   2.569   5.339 -0.0235  1.5127  2.8957
  571MOL0     O76951   1.380   3.609   6.301 -0.8668  0.4301 -1.0034
  571MOL0     C76952   1.372   3.499   6.250  0.0392  1.0612  0.7762
  571MOL0     O76953   1.278   3.402   6.284 -0.5691  1.0340 -0.8592
  571MOL0     C76954   1.178   3.434   6.378  0.9302 -0.2916  0.3881
  571MOL0     C76955   1.135   3.332   6.463 -0.9684 -1.6792  0.7226
  571MOL0     C76956   1.041   3.357   6.564  0.7697  0.0002 -0.0719
  571MOL0     C76957   0.972   3.484   6.582 -0.3358  0.7546 -0.8754
  571MOL0     O76958   0.872   3.502   6.672 -0.1308  0.7615  0.1283
  571MOL0     C76959   0.863   3.633   6.733  0.5882  0.5590 -0.8975
  571MOL0     C76960   0.832   3.612   6.888  0.4874 -0.4536 -1.0891
  571MOL0     C76961   0.888   3.718   6.981  1.1828  1.3535  0.0730
  571MOL0     C76962   0.855   3.691   7.129  0.3981 -0.0598 -1.1797
  571MOL0     C76963   0.934   3.567   7.176  0.3453  0.1060 -0.2507
  571MOL0     C76964   0.941   3.552   7.326  0.6749 -1.0683 -0.0155
  571MOL0     C76965   0.986   3.409   7.355  0.8929 -0.3438 -0.0514
  571MOL0     C76966   0.868   3.339   7.419 -0.5285  0.5875 -0.7728
  571MOL0     N76967   0.905   3.203   7.460 -1.7889  0.4825 -0.7104
  571MOL0     C76968   0.908   3.105   7.374  0.5364 -0.1039  0.2023
  571MOL0     C76969   0.975   3.004   7.429  0.5502 -0.3190  0.9767
  571MOL0     C76970   0.989   2.872   7.363 -0.2573  0.0567  0.7436
  571MOL0     C76971   1.139   2.840   7.324  1.0466  0.0520  0.1970
  571MOL0     C76972   1.223   2.799   7.440 -0.2202  0.5687 -0.0923
  571MOL0     C76973   1.168   2.658   7.484 -1.0588  0.3048 -0.4820
  571MOL0     O76974   1.272   2.557   7.489 -0.1226 -0.5025  0.9819
  571MOL0     C76975   1.303   2.509   7.606 -0.0370  0.4840  0.0289
  571MOL0     C76976   1.256   2.389   7.654  0.6781  0.5192 -0.1415
  571MOL0     C76977   1.274   2.340   7.788  0.4453  0.2726 -0.0136
  571MOL0     C76978   1.219   2.203   7.815  0.2240  0.0274  0.1568
  571MOL0     C76979   1.334   2.433   7.883  0.5193  0.1290  1.1358
  571MOL0     C76980   1.342   2.410   8.021  1.2762  0.7290  0.5458
  571MOL0     O76981   1.386   2.507   8.108 -0.1906  1.4764  0.2529
  571MOL0     C76982   1.403   2.472   8.236  0.5979 -0.5860  0.0173
  571MOL0     C76983   1.499   2.380   8.281 -0.0105  0.1236 -0.0668
  571MOL0     C76984   1.511   2.349   8.417 -0.7656  0.2317  0.4355
  571MOL0     C76985   1.428   2.405   8.513  0.3127  0.4546 -0.1379
  571MOL0     O76986   1.434   2.351   8.640 -0.5388 -0.3826 -0.1817
  571MOL0     C76987   1.466   2.442   8.745  0.2621  0.1818  0.3618
  571MOL0     C76988   1.491   2.361   8.877  0.3230 -0.8299 -0.4896
  571MOL0     C76989   1.559   2.441   8.990 -0.2049  0.1260 -0.7638
  571MOL0     C76990   1.642   2.364   9.105  0.2800  0.1429 -0.4409
  571MOL0     C76991   1.695   2.467   9.210 -0.4108 -0.1136 -0.7910
  571MOL0     C76992   1.771   2.379   9.318  0.0979 -0.4337  0.1851
  571MOL0     C76993   1.831   2.455   9.435  0.7593 -0.0954  0.3366
  571MOL0     C76994   1.973   2.507   9.413  0.6724  0.5509 -0.1993
  571MOL0    Cl76995   1.987   2.648   9.294 -0.3213  0.4688  0.0288
  571MOL0     C76996   1.339   2.501   8.472  0.7871 -0.1561  0.5779
  571MOL0     C76997   1.319   2.537   8.336  0.6901  0.6904  0.8895
  571MOL0     O76998   1.305   2.303   8.064  0.4883  0.2816  0.0669
  571MOL0     C76999   1.386   2.552   7.826 -0.4405  0.4982 -0.7731
  571MOL0     C77000   1.368   2.595   7.697  0.1701  0.0173  0.0574
  571MOL0     N77001   1.023   3.050   7.548  0.6739  0.2413 -0.0597
  571MOL0     N77002   0.981   3.167   7.565  0.6807 -0.3051 -0.4169
  571MOL0     C77003   0.998   3.580   6.485  0.5777 -0.3915  1.1993
  571MOL0     C77004   1.097   3.552   6.386 -0.0384 -0.8263 -1.0169
  571MOL0     C77005   1.477   3.469   6.148  0.4222  0.3087  0.4379
  571MOL0     C77006   1.491   3.342   6.101  1.0884  0.2341 -0.1297
  571MOL0     C77007   1.591   3.305   6.001  0.3360  0.2689 -0.7909
  571MOL0     C77008   1.669   3.401   5.947  0.1791  0.0322  0.0853
  571MOL0     O77009   1.765   3.381   5.843 -0.5554  0.5636  0.6847
  571MOL0     C77010   1.834   3.257   5.819  1.6124  0.2672  1.1765
  571MOL0     C77011   1.982   3.262   5.849  1.0246  0.0326 -0.4649
  571MOL0     C77012   2.020   3.277   6.007  0.1708  0.1291 -0.4792
  571MOL0     C77013   2.173   3.283   6.034  0.2957  0.4296  0.2199
  571MOL0     C77014   2.249   3.169   5.984 -0.2055  0.5693  0.3830
  571MOL0     C77015   2.304   3.062   5.966  0.0446 -0.7407 -0.7775
  571MOL0     C77016   1.639   3.533   5.971 -0.2176 -0.6793  0.1151
  571MOL0     C77017   1.557   3.565   6.085 -0.0093 -0.1140 -0.1536
  571MOL0     H77018   1.182   3.235   6.451  1.4824 -0.2681 -2.6340
  571MOL0     H77019   1.011   3.278   6.633 -0.6909 -0.3983 -1.1226
  571MOL0     H77020   0.957   3.688   6.721  0.1285  1.2061 -1.6448
  571MOL0     H77021   0.784   3.692   6.685  0.1169  0.2538 -0.5124
  571MOL0     H77022   0.724   3.622   6.904  0.1738 -3.2152 -0.9424
  571MOL0     H77023   0.868   3.517   6.928  0.0044  0.7192  2.5801
  571MOL0     H77024   0.996   3.724   6.968  1.3121  1.4786  1.1796
  571MOL0     H77025   0.866   3.825   6.966  3.4578  1.7328 -0.9578
  571MOL0     H77026   0.880   3.781   7.187 -1.7831  0.2129 -0.5899
  571MOL0     H77027   0.747   3.676   7.137  0.3969  0.5625  0.2526
  571MOL0     H77028   0.870   3.484   7.144 -0.5158  1.2867 -1.7350
  571MOL0     H77029   1.034   3.564   7.132  0.8985  1.9914  0.7812
  571MOL0     H77030   1.009   3.629   7.365  1.0869 -1.2026 -0.4639
  571MOL0     H77031   0.857   3.591   7.384  1.4973  0.9522 -0.0968
  571MOL0     H77032   1.015   3.359   7.262 -1.7445 -0.0276 -1.1550
  571MOL0     H77033   1.062   3.410   7.434  0.5353 -1.5976  0.3255
  571MOL0     H77034   0.777   3.335   7.359 -2.0519 -0.2372  1.4702
  571MOL0     H77035   0.853   3.389   7.515  0.0727 -1.2869  0.3485
  571MOL0     H77036   0.877   3.119   7.271  0.1311 -1.0338  0.1926
  571MOL0     H77037   0.942   2.791   7.420 -4.2667  0.9781 -0.9558
  571MOL0     H77038   0.930   2.881   7.272 -1.1346  0.2968  1.3240
  571MOL0     H77039   1.184   2.926   7.273  3.9453 -1.7992 -0.6545
  571MOL0     H77040   1.125   2.754   7.258 -1.8479  0.5326  0.0481
  571MOL0     H77041   1.221   2.878   7.516 -1.0972  0.9944 -0.5499
  571MOL0     H77042   1.329   2.787   7.413 -0.5442 -1.6834 -0.4988
  571MOL0     H77043   1.091   2.627   7.412  0.0691 -0.1650 -1.5180
  571MOL0     H77044   1.113   2.661   7.579  0.5850  2.1066  0.4768
  571MOL0     H77045   1.184   2.344   7.586  1.0237  2.3083 -1.7670
  571MOL0     H77046   1.115   2.214   7.846 -0.0687  0.3782 -0.8779
  571MOL0     H77047   1.234   2.147   7.722  1.7363  1.0046 -0.2309
  571MOL0     H77048   1.276   2.143   7.887 -1.1654 -3.5741 -1.5094
  571MOL0     H77049   1.540   2.313   8.206 -0.5307 -2.8350  2.1233
  571MOL0     H77050   1.582   2.269   8.438 -0.6698  0.3014  0.3804
  571MOL0     H77051   1.554   2.506   8.730 -0.2983  1.3734  1.9237
  571MOL0     H77052   1.379   2.507   8.756  0.0410  0.0552 -0.5062
  571MOL0     H77053   1.390   2.325   8.900 -0.1769  0.4901 -0.5453
  571MOL0     H77054   1.557   2.276   8.855  2.3874 -0.4739  3.4328
  571MOL0     H77055   1.491   2.507   9.044  0.0035  3.0776 -3.7452
  571MOL0     H77056   1.620   2.519   8.943  0.7366  0.3098  0.7190
  571MOL0     H77057   1.588   2.281   9.151  1.1378 -0.3721 -0.3346
  571MOL0     H77058   1.732   2.322   9.058  0.0607  1.2209 -1.9169
  571MOL0     H77059   1.618   2.533   9.252  1.2384  1.3655  0.0107
  571MOL0     H77060   1.766   2.542   9.173 -0.6158  1.7717  2.2903
  571MOL0     H77061   1.700   2.310   9.364 -1.7273  2.5683  2.3182
  571MOL0     H77062   1.853   2.331   9.265 -0.3652 -0.0036 -0.9445
  571MOL0     H77063   1.838   2.381   9.515 -1.1744 -0.1644  0.5008
  571MOL0     H77064   1.767   2.530   9.484  0.1637 -1.1183  1.1628
  571MOL0     H77065   2.035   2.421   9.385  0.4031  0.0737  0.6264
  571MOL0     H77066   2.019   2.539   9.507  1.6171 -1.5079  0.0975
  571MOL0     H77067   1.273   2.537   8.550 -1.2003  0.8723 -1.4584
  571MOL0     H77068   1.238   2.599   8.298 -0.6091 -1.8486 -0.7722
  571MOL0     H77069   1.439   2.633   7.876 -0.4865  0.2020 -0.2336
  571MOL0     H77070   1.415   2.692   7.684  0.6437 -0.0126  1.4030
  571MOL0     H77071   0.936   3.668   6.473  0.2642 -0.6010  1.2615
  571MOL0     H77072   1.118   3.623   6.307 -2.3804 -1.5479 -2.3877
  571MOL0     H77073   1.424   3.277   6.157  0.4704  0.2725 -0.8113
  571MOL0     H77074   1.609   3.200   5.982  1.6689  0.0712  1.2591
  571MOL0     H77075   1.772   3.187   5.876 -2.7564  1.3489 -1.7503
  571MOL0     H77076   1.820   3.238   5.712  1.1476  2.1441  0.8719
  571MOL0     H77077   2.025   3.351   5.802  2.5216  2.7350  5.1478
  571MOL0     H77078   2.033   3.169   5.821  0.8181 -0.2971  0.2509
  571MOL0     H77079   1.987   3.191   6.065 -0.6854 -0.0527 -1.2126
  571MOL0     H77080   1.968   3.366   6.043  2.3432  2.4067 -2.5236
  571MOL0     H77081   2.170   3.294   6.143 -2.2396 -0.3216  0.3140
  571MOL0     H77082   2.214   3.379   6.005 -1.5365  1.4651  0.8829
  571MOL0     H77083   2.350   2.965   5.971  1.9695  0.1955  1.5888
  571MOL0     H77084   1.696   3.611   5.922  2.0258 -1.7524  0.8774
  571MOL0     H77085   1.561   3.671   6.106  1.3158  0.0115 -0.9399
  572MOL0     O77086   0.989   0.253   7.738  0.6890  0.0116 -1.0329
  572MOL0     C77087   0.946   0.162   7.668 -0.0999 -0.0945  0.4863
  572MOL0     O77088   0.970   0.152   7.535  0.3983 -0.9867 -0.1377
  572MOL0     C77089   1.042   0.258   7.475  0.7062 -0.0048  0.2262
  572MOL0     C77090   1.170   0.238   7.438 -0.0662  0.4523  0.2000
  572MOL0     C77091   1.242   0.341   7.380 -0.4734 -0.0396 -1.4351
  572MOL0     C77092   1.188   0.466   7.372  0.0433 -1.2480 -0.8359
  572MOL0     O77093   1.283   0.556   7.325  0.6479 -0.3153  0.0857
  572MOL0     C77094   1.246   0.692   7.313 -0.3096  0.1355  0.4093
  572MOL0     C77095   1.363   0.773   7.250  0.7380  0.5050  0.7573
  572MOL0     C77096   1.478   0.783   7.353 -0.2209  0.0520 -0.3580
  572MOL0     C77097   1.570   0.902   7.325  0.3203 -1.0319  0.4864
  572MOL0     C77098   1.674   0.920   7.433  0.1005 -0.1836  0.1523
  572MOL0     C77099   1.755   1.050   7.417 -0.1440 -0.0662  0.8657
  572MOL0     C77100   1.852   1.071   7.521 -0.6181  0.2597  0.6379
  572MOL0     C77101   1.976   0.968   7.526  0.0868  0.0878 -0.5694
  572MOL0     N77102   2.038   0.950   7.658 -0.0227  0.5456  0.1101
  572MOL0     C77103   1.979   0.927   7.782  0.3407  1.0240  1.0625
  572MOL0     C77104   2.079   0.927   7.871  0.4495 -0.0175  0.2485
  572MOL0     C77105   2.062   0.854   8.007 -0.1306 -0.4438 -0.4010
  572MOL0     C77106   2.110   0.711   8.006 -0.4363 -0.0031  0.3830
  572MOL0     C77107   2.235   0.689   7.914 -0.6656  0.2989  0.3552
  572MOL0     C77108   2.301   0.561   7.918 -0.6736  0.4462 -0.3715
  572MOL0     O77109   2.213   0.446   7.929  0.4199 -0.0600 -0.5566
  572MOL0     C77110   2.261   0.324   7.883  0.0576  0.0517 -0.4933
  572MOL0     C77111   2.175   0.220   7.826 -0.6303 -0.1382 -0.7624
  572MOL0     C77112   2.224   0.102   7.779 -0.4881 -0.8418  0.5595
  572MOL0     C77113   2.120   0.002   7.733 -0.3799  0.1306  0.6627
  572MOL0     C77114   2.364   0.083   7.769  0.1275  0.1634 -0.0133
  572MOL0     C77115   2.419  -0.050   7.739  0.5026 -0.3626  0.0841
  572MOL0     O77116   2.529  -0.082   7.816 -0.0271 -0.8931  0.4282
  572MOL0     C77117   2.610  -0.194   7.786  0.3355 -0.6120 -0.2451
  572MOL0     C77118   2.749  -0.187   7.804  0.7535  0.3706 -0.3816
  572MOL0     C77119   2.842  -0.293   7.813 -0.3003 -1.1474 -0.5648
  572MOL0     C77120   2.794  -0.422   7.802  1.3734  1.3713  1.4344
  572MOL0     O77121   2.881  -0.536   7.806  0.2528  0.4251 -0.2313
  572MOL0     C77122   2.970  -0.550   7.916 -0.5128 -0.3369  0.7395
  572MOL0     C77123   2.903  -0.624   8.028  0.7739 -0.1887  0.2724
  572MOL0     C77124   2.916  -0.771   7.985  0.5598 -0.3300 -0.1356
  572MOL0     C77125   2.827  -0.856   8.084 -0.7289 -0.7262  0.2552
  572MOL0     C77126   2.833  -1.010   8.058 -0.1563  0.6656 -0.2629
  572MOL0     C77127   2.977  -1.052   8.046  0.4533  0.6880 -0.4954
  572MOL0     C77128   2.980  -1.206   8.045 -0.1891 -0.8879 -0.0924
  572MOL0     C77129   3.126  -1.235   8.017  0.0773  1.2878  0.6827
  572MOL0    Cl77130   3.149  -1.412   7.997  0.0418  0.5217 -0.4332
  572MOL0     C77131   2.647  -0.432   7.784 -0.3315 -0.1012 -0.1501
  572MOL0     C77132   2.560  -0.320   7.782  0.2319  0.1625  0.0856
  572MOL0     O77133   2.376  -0.111   7.648  1.0357  0.4094 -0.2977
  572MOL0     C77134   2.455   0.178   7.816  0.4722 -0.5077  0.1387
  572MOL0     C77135   2.403   0.306   7.878  0.8401 -0.0959  0.8836
  572MOL0     N77136   2.189   0.984   7.809 -0.4432  0.4528 -0.0125
  572MOL0     N77137   2.168   0.990   7.678  0.0619  0.4973 -0.0924
  572MOL0     C77138   1.057   0.490   7.411 -0.6265 -1.1412  0.5978
  572MOL0     C77139   0.977   0.384   7.454 -0.7588 -1.7399  0.3265
  572MOL0     C77140   0.866   0.052   7.726 -0.2898  0.1555  0.6873
  572MOL0     C77141   0.850  -0.073   7.658 -0.3752  0.3186 -0.0688
  572MOL0     C77142   0.769  -0.172   7.712 -0.4542  0.1181  0.6990
  572MOL0     C77143   0.700  -0.147   7.829  0.3732  0.5076 -0.7010
  572MOL0     O77144   0.629  -0.256   7.875  0.1371  0.5146 -0.3580
  572MOL0     C77145   0.559  -0.249   8.008  0.0331 -0.0082 -0.0588
  572MOL0     C77146   0.414  -0.182   8.006  0.2254  0.0349 -0.3043
  572MOL0     C77147   0.354  -0.167   8.141 -0.0678 -0.4921 -0.0547
  572MOL0     C77148   0.266  -0.291   8.186  0.0295  0.5170  0.9319
  572MOL0     C77149   0.217  -0.271   8.329 -0.2560 -0.0510  0.2248
  572MOL0     C77150   0.151  -0.276   8.433 -0.2456  0.0028  0.7660
  572MOL0     C77151   0.702  -0.022   7.892 -0.0365  0.2099 -0.4671
  572MOL0     C77152   0.787   0.080   7.839  0.7094  0.5132  0.4318
  572MOL0     H77153   1.199   0.134   7.456  0.4460  0.4865 -0.3626
  572MOL0     H77154   1.344   0.330   7.344 -0.2150  2.6836 -1.7113
  572MOL0     H77155   1.155   0.706   7.254 -2.3339  0.7306  3.4176
  572MOL0     H77156   1.227   0.745   7.407  0.9950  0.3475  0.5719
  572MOL0     H77157   1.391   0.722   7.158 -1.3663 -0.1347  0.4190
  572MOL0     H77158   1.328   0.873   7.222 -1.6732 -0.4933 -0.0099
  572MOL0     H77159   1.443   0.801   7.455 -0.5720 -2.1195 -0.0490
  572MOL0     H77160   1.530   0.687   7.350 -1.9853 -0.9970  1.1623
  572MOL0     H77161   1.623   0.891   7.230  0.9083 -0.9704  0.8038
  572MOL0     H77162   1.508   0.992   7.334  0.3145 -1.2578  3.6067
  572MOL0     H77163   1.610   0.921   7.522 -0.9696 -5.0719 -0.2606
  572MOL0     H77164   1.733   0.828   7.439  0.7809 -0.1241 -3.3571
  572MOL0     H77165   1.808   1.018   7.327 -0.0926 -1.7985  1.4705
  572MOL0     H77166   1.683   1.127   7.388 -2.5664 -2.6909 -0.5629
  572MOL0     H77167   1.897   1.170   7.505 -0.2603  0.0288  0.1676
  572MOL0     H77168   1.800   1.069   7.617 -1.1696 -1.0076  0.3347
  572MOL0     H77169   2.045   1.000   7.448  3.0591 -2.4355  0.8057
  572MOL0     H77170   1.945   0.873   7.481 -0.8395 -0.3167  0.8505
  572MOL0     H77171   1.878   0.891   7.800  0.3493  0.9315  0.9260
  572MOL0     H77172   2.126   0.899   8.084 -0.8584 -1.6757  0.9777
  572MOL0     H77173   1.961   0.849   8.048  0.3955 -1.2573  0.8779
  572MOL0     H77174   2.033   0.649   7.960  0.1164 -0.5152  0.1282
  572MOL0     H77175   2.126   0.679   8.110  0.8819 -2.5787 -0.5196
  572MOL0     H77176   2.309   0.766   7.938 -1.8319  1.1030  1.5107
  572MOL0     H77177   2.198   0.686   7.811 -1.1070  1.6425  0.4525
  572MOL0     H77178   2.364   0.564   8.007  1.2502 -0.3479 -1.6467
  572MOL0     H77179   2.365   0.539   7.832  1.1384 -0.6564  1.1708
  572MOL0     H77180   2.075   0.261   7.828  0.0740  1.7026 -0.5565
  572MOL0     H77181   2.143  -0.105   7.735 -1.3783 -0.1219 -0.3302
  572MOL0     H77182   2.042   0.018   7.808  0.4145 -1.4654  1.9004
  572MOL0     H77183   2.092   0.016   7.628  1.9668  0.2082 -0.0206
  572MOL0     H77184   2.786  -0.087   7.825 -0.1051  0.2863  1.8727
  572MOL0     H77185   2.946  -0.270   7.831 -0.3020 -2.7716  1.9529
  572MOL0     H77186   3.070  -0.579   7.880 -0.1148  0.2998  1.3067
  572MOL0     H77187   2.991  -0.452   7.958 -2.1808 -0.0217  0.8658
  572MOL0     H77188   2.964  -0.604   8.117  0.0031 -1.4627  1.1253
  572MOL0     H77189   2.800  -0.590   8.043  0.5620 -0.8648  0.3859
  572MOL0     H77190   3.023  -0.796   7.988  0.8002  0.6256 -0.4661
  572MOL0     H77191   2.878  -0.779   7.883  0.2392  2.3877 -0.3031
  572MOL0     H77192   2.859  -0.837   8.186  0.9461  1.0969 -0.5574
  572MOL0     H77193   2.726  -0.821   8.060  0.0856 -0.4332 -3.3545
  572MOL0     H77194   2.777  -1.040   7.969  1.3325 -1.3299 -0.5920
  572MOL0     H77195   2.792  -1.070   8.140  2.3378 -0.0186  0.5887
  572MOL0     H77196   3.024  -1.014   7.955  1.9404 -0.9066 -0.4299
  572MOL0     H77197   3.031  -1.021   8.136 -3.2126  0.9661  1.8256
  572MOL0     H77198   2.924  -1.254   7.965  0.7538  0.9572 -1.9741
  572MOL0     H77199   2.952  -1.242   8.144  0.0292 -2.7140 -0.6626
  572MOL0     H77200   3.180  -1.201   8.105  2.9534  3.4067 -1.6845
  572MOL0     H77201   3.165  -1.177   7.933 -1.8112  3.0143  0.9244
  572MOL0     H77202   2.602  -0.531   7.776 -1.1412  0.3921 -3.1606
  572MOL0     H77203   2.457  -0.350   7.792  0.3055  0.0233  0.4483
  572MOL0     H77204   2.563   0.166   7.812  0.3328 -1.6337 -0.7286
  572MOL0     H77205   2.468   0.376   7.929 -0.1789 -0.2241  2.4270
  572MOL0     H77206   1.001   0.582   7.395  1.9530  0.5032  0.5621
  572MOL0     H77207   0.875   0.415   7.473 -0.7160 -0.2614 -1.5691
  572MOL0     H77208   0.899  -0.106   7.567 -0.6227  0.5454 -0.2841
  572MOL0     H77209   0.762  -0.264   7.655  1.1395  1.7138 -2.3393
  572MOL0     H77210   0.537  -0.349   8.047 -3.4508  0.2908 -0.9011
  572MOL0     H77211   0.631  -0.203   8.077  0.9190 -0.4724 -0.6530
  572MOL0     H77212   0.355  -0.244   7.938  2.0986  0.1693 -2.1770
  572MOL0     H77213   0.415  -0.084   7.957  0.7435  0.7808  1.1496
  572MOL0     H77214   0.289  -0.079   8.141  1.3425  0.5822 -0.9329
  572MOL0     H77215   0.432  -0.137   8.211  2.2148  0.5391 -2.8623
  572MOL0     H77216   0.316  -0.388   8.181 -2.2033 -0.7952  2.5704
  572MOL0     H77217   0.177  -0.293   8.123 -0.2052  1.4802  1.2068
  572MOL0     H77218   0.077  -0.291   8.508  0.3314  0.3631  1.4282
  572MOL0     H77219   0.650  -0.009   7.986  0.7989  2.3243 -0.2418
  572MOL0     H77220   0.801   0.175   7.890  0.8816 -0.0655  1.4855
  573MOL0     O77221   2.710   6.246   7.965 -0.5029 -0.1176 -0.1760
  573MOL0     C77222   2.767   6.172   7.881  0.7132 -1.1618 -0.4385
  573MOL0     O77223   2.701   6.094   7.794  0.3946  0.4014  0.1335
  573MOL0     C77224   2.566   6.084   7.772 -1.9443  0.3709 -0.2631
  573MOL0     C77225   2.531   6.014   7.652 -0.0870 -1.1233  1.1604
  573MOL0     C77226   2.389   6.002   7.617 -0.3585 -0.5692 -0.1346
  573MOL0     C77227   2.293   6.061   7.692 -0.3718 -0.9130  0.4803
  573MOL0     O77228   2.157   6.071   7.658 -0.0875 -0.8962  0.7370
  573MOL0     C77229   2.095   5.960   7.592 -1.0371 -0.9364  0.1965
  573MOL0     C77230   1.952   5.963   7.619 -0.2986 -0.7911 -0.1007
  573MOL0     C77231   1.930   5.961   7.772  0.0074  0.3765 -0.2765
  573MOL0     C77232   1.783   5.911   7.800  0.7382  0.0161  0.4446
  573MOL0     C77233   1.753   5.912   7.944 -1.2376 -0.2881 -0.8671
  573MOL0     C77234   1.624   5.845   7.967  0.1402 -0.0748 -1.7030
  573MOL0     C77235   1.634   5.693   7.973 -1.1308 -1.0807  0.2941
  573MOL0     C77236   1.732   5.634   8.073 -0.4484  0.5736 -0.3469
  573MOL0     N77237   1.697   5.666   8.211 -0.0581  0.2566 -0.2921
  573MOL0     C77238   1.745   5.764   8.289  0.4968 -0.7528 -0.0724
  573MOL0     C77239   1.672   5.770   8.404 -0.0987 -0.6785  0.4972
  573MOL0     C77240   1.699   5.871   8.511  0.8374 -0.1846  0.0607
  573MOL0     C77241   1.853   5.876   8.553  0.2222 -0.4264 -0.3390
  573MOL0     C77242   1.887   5.972   8.667  0.0270 -0.5585 -0.5735
  573MOL0     C77243   1.847   5.934   8.812  0.0274 -0.1793  1.3597
  573MOL0     O77244   1.703   5.949   8.821  0.1473 -0.3113 -0.2013
  573MOL0     C77245   1.661   5.896   8.939  0.6372 -1.2194  0.0881
  573MOL0     C77246   1.681   5.970   9.064  0.7486  0.1577 -0.2596
  573MOL0     C77247   1.643   5.916   9.184  0.1324  1.1613 -0.2270
  573MOL0     C77248   1.694   5.989   9.307  0.0061 -0.8834  0.8892
  573MOL0     C77249   1.569   5.791   9.182 -0.0670  1.8131 -0.2908
  573MOL0     C77250   1.534   5.715   9.297  1.3702 -0.6999 -0.6982
  573MOL0     O77251   1.401   5.707   9.324  0.0045 -0.4193  0.1398
  573MOL0     C77252   1.367   5.645   9.444 -1.1109 -1.5033 -0.7136
  573MOL0     C77253   1.405   5.707   9.563 -0.3959  0.4554  0.5354
  573MOL0     C77254   1.347   5.658   9.679 -0.4306  0.6152  0.7163
  573MOL0     C77255   1.251   5.553   9.680  0.2434  0.0920  0.3959
  573MOL0     O77256   1.186   5.513   9.801 -0.0757 -0.4236  0.6192
  573MOL0     C77257   1.087   5.397   9.813 -0.8281 -0.8214  1.2339
  573MOL0     C77258   0.949   5.433   9.776 -0.4082 -0.2794 -0.7028
  573MOL0     C77259   0.906   5.557   9.868 -0.8088  0.1501  0.0822
  573MOL0     C77260   0.903   5.524  10.024  0.2515 -0.0095  0.0678
  573MOL0     C77261   0.835   5.632  10.109 -0.3708 -0.7924  0.1494
  573MOL0     C77262   0.790   5.583  10.246 -0.2724 -0.1947  0.1656
  573MOL0     C77263   0.771   5.702  10.346 -0.5421  0.8023 -0.1074
  573MOL0     C77264   0.623   5.740  10.339  0.1940 -0.4880  0.3611
  573MOL0    Cl77265   0.600   5.856  10.200  0.5484  0.1516  0.0850
  573MOL0     C77266   1.222   5.491   9.561 -0.5908  0.0364 -0.6036
  573MOL0     C77267   1.282   5.534   9.443 -0.1161  0.7575  0.5763
  573MOL0     O77268   1.623   5.678   9.368 -0.2595 -0.3349 -0.2829
  573MOL0     C77269   1.526   5.731   9.059  0.1728 -0.2214 -0.3548
  573MOL0     C77270   1.576   5.788   8.937  0.0776 -0.4679  1.1298
  573MOL0     N77271   1.575   5.665   8.386 -0.9843 -0.8910  0.1365
  573MOL0     N77272   1.582   5.623   8.262  0.2577  0.2111 -0.2794
  573MOL0     C77273   2.335   6.139   7.804  0.1260  0.6911 -0.0886
  573MOL0     C77274   2.462   6.137   7.858 -0.2120 -0.0790 -0.6249
  573MOL0     C77275   2.916   6.149   7.882  0.3423 -0.4543 -0.1451
  573MOL0     C77276   2.979   6.047   7.810  0.5134 -0.2284  0.6765
  573MOL0     C77277   3.118   6.019   7.825  0.7502 -0.8120 -0.6418
  573MOL0     C77278   3.188   6.082   7.920 -0.2259 -1.1049 -0.2391
  573MOL0     O77279   3.321   6.055   7.947 -0.5621 -0.0296 -0.7193
  573MOL0     C77280   3.416   6.149   7.896 -0.0804  0.1366 -0.4970
  573MOL0     C77281   3.492   6.089   7.765 -1.0297 -0.2089 -1.2772
  573MOL0     C77282   3.627   6.031   7.795  0.9775 -0.2142  0.3538
  573MOL0     C77283   3.693   5.977   7.666  0.2805  0.5737 -0.3880
  573MOL0     C77284   3.824   5.930   7.698 -0.0373  0.1873 -0.5942
  573MOL0     C77285   3.936   5.885   7.738  0.2218  0.0131 -0.4008
  573MOL0     C77286   3.131   6.190   7.985 -0.0906 -0.6504 -1.0585
  573MOL0     C77287   2.997   6.231   7.961  0.6417  0.3672 -0.1184
  573MOL0     H77288   2.604   5.964   7.589 -0.8764  0.2369 -0.9504
  573MOL0     H77289   2.371   5.945   7.526  2.4990  0.8190 -1.7432
  573MOL0     H77290   2.088   5.975   7.484  0.5816  1.4828  0.3456
  573MOL0     H77291   2.152   5.869   7.614  0.3368 -0.5367 -1.4579
  573MOL0     H77292   1.924   6.058   7.573  1.0488 -0.4931 -0.3501
  573MOL0     H77293   1.904   5.882   7.563  3.4832 -0.3921 -4.5533
  573MOL0     H77294   2.004   5.902   7.827 -0.0783  2.9655  2.9593
  573MOL0     H77295   1.935   6.063   7.812 -3.1048  0.7830 -0.6667
  573MOL0     H77296   1.701   5.968   7.756 -0.9435 -1.2204  1.8448
  573MOL0     H77297   1.771   5.805   7.773 -4.3959  0.3350  0.4722
  573MOL0     H77298   1.821   5.852   8.004  1.3980  2.9574 -0.3188
  573MOL0     H77299   1.749   6.020   7.964 -2.0610 -0.6074  0.8989
  573MOL0     H77300   1.586   5.876   8.065 -0.1508 -1.8180 -1.2312
  573MOL0     H77301   1.545   5.865   7.895 -3.5450  0.3158  2.0360
  573MOL0     H77302   1.528   5.667   7.976 -2.2014  1.1020 -5.4670
  573MOL0     H77303   1.652   5.670   7.868  0.4596  0.9625  0.0619
  573MOL0     H77304   1.837   5.660   8.058  0.1765  1.7665  4.5420
  573MOL0     H77305   1.731   5.526   8.054  1.2029  0.6852 -1.2071
  573MOL0     H77306   1.826   5.831   8.259  0.4642 -0.8477 -0.3775
  573MOL0     H77307   1.658   5.968   8.480  2.6745  0.5283 -0.2669
  573MOL0     H77308   1.642   5.837   8.598 -0.3609 -2.8820 -1.6373
  573MOL0     H77309   1.901   5.892   8.456 -0.0926 -1.3161 -0.6518
  573MOL0     H77310   1.876   5.777   8.592  0.2350  0.3930  1.8406
  573MOL0     H77311   1.831   6.062   8.638 -0.0581 -0.7130 -0.8960
  573MOL0     H77312   1.996   5.988   8.668  0.0727 -0.7949 -1.2316
  573MOL0     H77313   1.907   5.994   8.880  3.9681  1.4134 -2.9463
  573MOL0     H77314   1.870   5.827   8.819 -0.3326 -0.4068 -0.3821
  573MOL0     H77315   1.717   6.071   9.046  1.2314 -0.1444 -1.0299
  573MOL0     H77316   1.618   6.051   9.355  0.1065  1.2605 -1.4882
  573MOL0     H77317   1.728   5.921   9.385  1.3212  0.7599  1.8122
  573MOL0     H77318   1.776   6.058   9.284 -3.9213  4.5913  1.4335
  573MOL0     H77319   1.468   5.795   9.552  0.7565 -0.3991  0.1437
  573MOL0     H77320   1.360   5.698   9.779 -4.2926 -0.5399  1.8702
  573MOL0     H77321   1.106   5.308   9.754 -0.5200 -3.3660  4.8217
  573MOL0     H77322   1.089   5.353   9.913  0.3564 -3.8212  0.0012
  573MOL0     H77323   0.961   5.470   9.673  2.8560  0.5285 -0.1532
  573MOL0     H77324   0.882   5.347   9.769 -0.6062 -0.0272 -2.6459
  573MOL0     H77325   0.803   5.580   9.838 -0.6361 -1.7061 -2.1542
  573MOL0     H77326   0.957   5.654   9.860 -3.7086  2.1605  3.0423
  573MOL0     H77327   0.845   5.431  10.027  3.2175 -1.9787  0.2440
  573MOL0     H77328   1.004   5.509  10.063 -0.2738 -3.5147  0.3858
  573MOL0     H77329   0.748   5.670  10.054  1.9138  2.5683 -1.4898
  573MOL0     H77330   0.902   5.718  10.114  0.2614 -0.7651 -4.4476
  573MOL0     H77331   0.695   5.532  10.226 -1.2272  2.1699 -1.8736
  573MOL0     H77332   0.863   5.521  10.300  0.0969  0.4227  0.3838
  573MOL0     H77333   0.835   5.785  10.315  3.3262 -1.8689  0.0280
  573MOL0     H77334   0.810   5.661  10.439  0.9807 -0.9983 -1.4473
  573MOL0     H77335   0.599   5.783  10.437 -0.5285  0.4239 -0.1993
  573MOL0     H77336   0.561   5.652  10.318  0.1367 -0.6499  1.1807
  573MOL0     H77337   1.167   5.397   9.557  1.3204 -1.2405  1.0983
  573MOL0     H77338   1.247   5.480   9.355  0.5834  0.8783  0.2186
  573MOL0     H77339   1.478   5.633   9.066 -2.1832  0.9858  2.9270
  573MOL0     H77340   1.573   5.746   8.837 -0.4434  0.8356  0.5710
  573MOL0     H77341   2.257   6.184   7.864  1.5468 -1.2065  3.4572
  573MOL0     H77342   2.478   6.192   7.950 -1.3574  1.6595 -1.4172
  573MOL0     H77343   2.914   5.989   7.746 -2.4546  0.9808  2.3629
  573MOL0     H77344   3.167   5.933   7.780 -0.0088 -1.2197 -0.7103
  573MOL0     H77345   3.367   6.240   7.860  0.9904  0.2724 -1.7107
  573MOL0     H77346   3.470   6.185   7.984  0.9384  0.9287 -1.4094
  573MOL0     H77347   3.510   6.168   7.692  0.7425 -0.1567 -0.8480
  573MOL0     H77348   3.436   6.009   7.716 -1.9521  0.9728 -2.1863
  573MOL0     H77349   3.615   5.954   7.872 -0.8588 -1.6648 -1.2727
  573MOL0     H77350   3.683   6.113   7.841 -0.3942  2.0040 -1.7326
  573MOL0     H77351   3.698   6.055   7.590 -0.7683  3.8668  2.6543
  573MOL0     H77352   3.630   5.901   7.619  1.2216  0.1310 -0.9705
  573MOL0     H77353   4.020   5.835   7.782  0.1178 -1.8065 -2.1242
  573MOL0     H77354   3.183   6.238   8.067 -1.0941 -1.0965 -0.1294
  573MOL0     H77355   2.945   6.288   8.037 -1.0041 -0.3442 -0.6792
  574MOL0     O77356   7.557   5.704  11.453  0.5668  0.5869 -0.4703
  574MOL0     C77357   7.661   5.678  11.519  0.7844 -0.2799  0.1072
  574MOL0     O77358   7.679   5.580  11.606  0.0886  0.1150  0.0106
  574MOL0     C77359   7.601   5.462  11.607  0.2885  0.5935  0.2476
  574MOL0     C77360   7.508   5.415  11.517 -0.4402 -0.6768  0.4793
  574MOL0     C77361   7.426   5.301  11.528 -0.0683  0.0750 -0.0708
  574MOL0     C77362   7.437   5.230  11.645  0.9464 -0.1536 -0.3074
  574MOL0     O77363   7.359   5.127  11.686 -0.4933 -0.0015  0.4517
  574MOL0     C77364   7.310   5.049  11.578 -0.5645  0.8761  0.1404
  574MOL0     C77365   7.207   4.946  11.636 -0.1121  0.0442  0.1153
  574MOL0     C77366   7.105   5.023  11.725  0.4745 -0.4746  0.6121
  574MOL0     C77367   6.963   4.981  11.717 -0.0160 -0.7564  0.4123
  574MOL0     C77368   6.878   5.068  11.808  0.1078  0.1651  0.5846
  574MOL0     C77369   6.720   5.065  11.768  1.5042  0.3784 -0.3994
  574MOL0     C77370   6.692   5.098  11.622 -0.1581 -0.0060 -0.6483
  574MOL0     C77371   6.539   5.103  11.583 -0.2600  0.5591  0.1741
  574MOL0     N77372   6.482   4.964  11.574 -0.5957  0.9043 -0.0279
  574MOL0     C77373   6.468   4.889  11.457  1.2579 -0.8732  0.1490
  574MOL0     C77374   6.407   4.779  11.491  0.4276 -0.6876 -0.2010
  574MOL0     C77375   6.356   4.675  11.391 -0.3404 -0.7432 -0.3503
  574MOL0     C77376   6.465   4.594  11.307  0.2797 -0.1498  0.7367
  574MOL0     C77377   6.406   4.481  11.223 -1.3607 -0.1429 -0.6944
  574MOL0     C77378   6.339   4.523  11.095  0.8178  0.1513  0.5999
  574MOL0     O77379   6.432   4.587  11.002 -0.4168  0.5055  0.2109
  574MOL0     C77380   6.385   4.677  10.915  1.0241 -0.1905  0.7236
  574MOL0     C77381   6.287   4.637  10.815 -0.2438  0.7201 -0.3681
  574MOL0     C77382   6.245   4.732  10.720  0.0416  0.0636 -0.1036
  574MOL0     C77383   6.142   4.677  10.620 -0.5938  0.3274 -0.6245
  574MOL0     C77384   6.288   4.863  10.723 -0.2619 -0.4750  0.4282
  574MOL0     C77385   6.266   4.973  10.625 -0.4272  0.8900 -0.3438
  574MOL0     O77386   6.295   5.104  10.662 -0.6051  0.7318 -0.0754
  574MOL0     C77387   6.294   5.204  10.567 -0.3962  0.2880  0.3290
  574MOL0     C77388   6.400   5.220  10.477 -0.5850  1.0437  1.1131
  574MOL0     C77389   6.404   5.310  10.378  0.0196 -2.1421 -0.8836
  574MOL0     C77390   6.292   5.395  10.366  0.2390  0.6620  0.5605
  574MOL0     O77391   6.287   5.482  10.265  0.6722  0.6157  0.1503
  574MOL0     C77392   6.398   5.574  10.257  0.6761  0.3753  0.5877
  574MOL0     C77393   6.369   5.690  10.152  0.3621  0.3336  1.0389
  574MOL0     C77394   6.307   5.639  10.016 -0.4820 -0.5064 -0.7932
  574MOL0     C77395   6.311   5.750   9.917 -0.5739 -0.2899 -0.5625
  574MOL0     C77396   6.222   5.730   9.798  0.6400 -0.1444 -0.3659
  574MOL0     C77397   6.231   5.843   9.704 -0.6232  0.2646 -0.4433
  574MOL0     C77398   6.138   5.811   9.584  1.2946  0.2792  0.1412
  574MOL0     C77399   5.992   5.851   9.611  0.4112  0.8402  0.6149
  574MOL0    Cl77400   5.973   6.019   9.654 -0.7808 -0.3558  0.0045
  574MOL0     C77401   6.172   5.366  10.429  0.5266  0.6321  0.1194
  574MOL0     C77402   6.171   5.264  10.531 -0.5680  0.8836  0.1179
  574MOL0     O77403   6.222   4.942  10.515  0.2726  0.8122 -0.0766
  574MOL0     C77404   6.379   4.898  10.823  0.1030  0.5539 -0.4209
  574MOL0     C77405   6.432   4.805  10.916  1.0292  0.1059 -0.9160
  574MOL0     N77406   6.394   4.771  11.625 -0.3850  0.2575  0.0746
  574MOL0     N77407   6.441   4.879  11.672  0.3522  0.6059  0.2851
  574MOL0     C77408   7.537   5.260  11.735 -0.6061 -0.7843  0.4735
  574MOL0     C77409   7.624   5.373  11.713  0.0474  0.6440 -1.0993
  574MOL0     C77410   7.766   5.785  11.527 -0.7911  0.5511 -0.8071
  574MOL0     C77411   7.736   5.904  11.460 -0.3783 -0.9413  0.5232
  574MOL0     C77412   7.835   5.999  11.458  0.6610 -0.0997  0.2525
  574MOL0     C77413   7.964   5.977  11.500  1.0048  0.2564  0.5580
  574MOL0     O77414   8.055   6.072  11.460  0.0295  0.1710  0.0992
  574MOL0     C77415   8.162   6.095  11.550  0.2824 -0.9505  0.3942
  574MOL0     C77416   8.215   6.232  11.523  0.1599 -1.6646  0.3416
  574MOL0     C77417   8.115   6.339  11.565 -0.5398 -0.1090 -0.6000
  574MOL0     C77418   8.102   6.353  11.716 -0.4731 -0.3914 -0.4417
  574MOL0     C77419   8.238   6.397  11.766 -0.2892 -0.2142 -0.7664
  574MOL0     C77420   8.351   6.443  11.780 -0.5148 -0.8490 -0.2727
  574MOL0     C77421   7.998   5.854  11.558  0.9060 -0.2861 -1.3858
  574MOL0     C77422   7.898   5.756  11.569 -0.4300  0.8812  1.2413
  574MOL0     H77423   7.477   5.484  11.439  0.3813  0.2394  0.9419
  574MOL0     H77424   7.343   5.292  11.460  0.0051 -0.6589 -0.0682
  574MOL0     H77425   7.262   5.107  11.499 -3.2901 -2.4940 -0.9239
  574MOL0     H77426   7.389   4.994  11.526 -1.3326 -0.4635  0.3607
  574MOL0     H77427   7.146   4.889  11.566 -0.5044  0.6081 -0.0065
  574MOL0     H77428   7.256   4.874  11.702 -1.4684 -0.8423  0.1920
  574MOL0     H77429   7.142   5.026  11.828 -0.6221 -0.4107  1.0128
  574MOL0     H77430   7.102   5.125  11.686  1.1495 -0.5965  0.2161
  574MOL0     H77431   6.926   4.988  11.615 -1.0503 -1.4572  0.7242
  574MOL0     H77432   6.949   4.883  11.764  2.4561 -2.3302 -1.8357
  574MOL0     H77433   6.900   5.030  11.908  0.1893 -0.5696  0.2989
  574MOL0     H77434   6.904   5.174  11.809 -2.6550  1.0169 -1.5115
  574MOL0     H77435   6.699   4.959  11.784  0.3591  0.7397  0.6225
  574MOL0     H77436   6.663   5.120  11.843 -0.0303 -2.6443  0.8490
  574MOL0     H77437   6.732   5.199  11.609  0.6532  0.1608  2.4105
  574MOL0     H77438   6.741   5.041  11.543 -0.0704  0.2686 -0.7964
  574MOL0     H77439   6.536   5.157  11.488 -0.5860  2.8633  1.4129
  574MOL0     H77440   6.488   5.173  11.650 -1.4672 -2.5623  2.8301
  574MOL0     H77441   6.483   4.927  11.356 -1.7623 -1.1945 -0.5220
  574MOL0     H77442   6.306   4.595  11.446 -0.8185 -2.2606 -2.8503
  574MOL0     H77443   6.291   4.730  11.322  0.5497  0.5493 -0.2018
  574MOL0     H77444   6.541   4.552  11.374  1.2045 -0.1049 -0.2599
  574MOL0     H77445   6.508   4.666  11.238 -1.5803 -0.9682 -1.3661
  574MOL0     H77446   6.330   4.431  11.284 -2.2670  3.1656  1.1426
  574MOL0     H77447   6.486   4.409  11.204 -2.0054 -1.4481  1.2755
  574MOL0     H77448   6.261   4.595  11.121 -0.4732 -0.5135 -1.2067
  574MOL0     H77449   6.308   4.431  11.044  0.8728  0.4601  0.0020
  574MOL0     H77450   6.242   4.538  10.805  1.9339 -0.3771  0.2012
  574MOL0     H77451   6.168   4.571  10.621  1.0334  0.2659  6.7922
  574MOL0     H77452   6.044   4.694  10.663 -0.3121  0.6285 -0.0959
  574MOL0     H77453   6.158   4.713  10.518  1.2233 -1.3384 -0.9990
  574MOL0     H77454   6.496   5.172  10.491 -0.8873  0.6803  2.0299
  574MOL0     H77455   6.498   5.339  10.331 -0.2763  0.8205  0.1175
  574MOL0     H77456   6.406   5.620  10.356  0.4842 -0.1196  0.8391
  574MOL0     H77457   6.488   5.520  10.225 -2.2463 -4.1431 -0.9353
  574MOL0     H77458   6.302   5.761  10.201 -0.9457 -1.5668  2.1069
  574MOL0     H77459   6.462   5.740  10.123 -0.3140  0.4842 -1.0711
  574MOL0     H77460   6.208   5.612  10.053 -0.9417 -1.1370 -2.4149
  574MOL0     H77461   6.352   5.545   9.985  1.4396 -0.7269  2.2359
  574MOL0     H77462   6.292   5.854   9.947  2.6507  1.3615 -3.4640
  574MOL0     H77463   6.416   5.758   9.885 -1.6204 -0.0686 -4.4765
  574MOL0     H77464   6.116   5.716   9.819  0.2670  0.5449 -1.6911
  574MOL0     H77465   6.252   5.633   9.756 -0.1738 -0.2626 -0.6805
  574MOL0     H77466   6.207   5.938   9.752 -1.8225  0.7135 -1.8444
  574MOL0     H77467   6.330   5.863   9.662 -0.9504  1.1192 -0.8308
  574MOL0     H77468   6.142   5.705   9.559 -1.2589 -0.0149  0.6249
  574MOL0     H77469   6.169   5.863   9.493 -1.7596 -0.0151 -1.1783
  574MOL0     H77470   5.952   5.784   9.688 -2.0079 -1.2635 -2.2171
  574MOL0     H77471   5.928   5.824   9.526 -1.3377 -0.1788  2.1860
  574MOL0     H77472   6.083   5.420  10.396 -0.3905 -1.9031 -1.8640
  574MOL0     H77473   6.078   5.227  10.572 -1.0640 -0.0121 -1.7155
  574MOL0     H77474   6.410   5.001  10.833  0.8960  0.4046 -1.2691
  574MOL0     H77475   6.500   4.829  10.996 -0.3701 -2.1318  1.0760
  574MOL0     H77476   7.562   5.198  11.821  1.3882 -2.3940 -1.1464
  574MOL0     H77477   7.688   5.399  11.796 -1.6416  0.8829  0.1797
  574MOL0     H77478   7.638   5.925  11.419 -1.1103  0.7836  2.9024
  574MOL0     H77479   7.808   6.092  11.409 -0.2742  0.9099  2.5081
  574MOL0     H77480   8.132   6.079  11.654 -1.3578  1.0911  0.2912
  574MOL0     H77481   8.242   6.022  11.533  1.7118  0.5748  0.2458
  574MOL0     H77482   8.233   6.233  11.415  2.4183 -4.5696  0.5390
  574MOL0     H77483   8.317   6.251  11.558 -0.5776 -0.5681  1.9875
  574MOL0     H77484   8.012   6.324  11.533 -2.8818  1.3823  5.1139
  574MOL0     H77485   8.140   6.426  11.503 -0.0505  0.7106  0.6989
  574MOL0     H77486   8.078   6.256  11.761  0.8615 -2.0045 -2.9834
  574MOL0     H77487   8.036   6.437  11.740  0.2979  0.8303 -2.3314
  574MOL0     H77488   8.441   6.501  11.781 -0.4551 -0.9392 -0.3553
  574MOL0     H77489   8.097   5.835  11.598  0.7226 -0.2437 -0.9101
  574MOL0     H77490   7.919   5.652  11.592  1.0021  0.5154 -1.3695
  575MOL0     O77491   7.846   8.471   3.619 -0.5098  1.3931 -0.1499
  575MOL0     C77492   7.740   8.514   3.644  0.3984 -0.1815 -0.0020
  575MOL0     O77493   7.689   8.536   3.771  0.1116  0.3326  0.0869
  575MOL0     C77494   7.765   8.497   3.881 -0.0661 -0.5661  0.1040
  575MOL0     C77495   7.752   8.576   3.995  0.5109  0.1518  0.4879
  575MOL0     C77496   7.816   8.529   4.108  0.0277 -1.2392 -0.5480
  575MOL0     C77497   7.883   8.403   4.121 -0.2063 -0.8400  1.3580
  575MOL0     O77498   7.949   8.379   4.234 -0.2668  0.2140 -0.8526
  575MOL0     C77499   8.038   8.265   4.249  0.1052 -0.0261  0.3597
  575MOL0     C77500   8.100   8.270   4.393  0.9740 -0.3687 -0.6854
  575MOL0     C77501   8.186   8.146   4.422  0.8092 -0.0470  0.5942
  575MOL0     C77502   8.203   8.142   4.568  0.5617  0.0006 -0.6217
  575MOL0     C77503   8.333   8.082   4.608  0.3336  0.2036  0.4584
  575MOL0     C77504   8.345   8.048   4.750 -0.1612  0.2780 -0.3986
  575MOL0     C77505   8.469   7.973   4.774  0.5100  0.7456  0.4716
  575MOL0     C77506   8.596   8.059   4.769 -0.0188  0.5699  0.8057
  575MOL0     N77507   8.697   7.999   4.857  0.0186 -0.4458 -0.6732
  575MOL0     C77508   8.745   7.877   4.873  0.1234  1.2599 -0.4553
  575MOL0     C77509   8.818   7.872   4.985 -0.4739 -0.1052  0.4467
  575MOL0     C77510   8.889   7.747   5.039 -0.5823 -0.8651  0.5173
  575MOL0     C77511   9.035   7.785   5.089 -0.5543 -0.4480  0.4161
  575MOL0     C77512   9.138   7.698   5.037 -0.0374  0.8474  0.8367
  575MOL0     C77513   9.134   7.554   5.098  0.0945 -0.7784 -0.1554
  575MOL0     O77514   9.269   7.525   5.148 -0.4630  0.5741 -1.0599
  575MOL0     C77515   9.280   7.403   5.211 -0.1285 -0.0703  0.2139
  575MOL0     C77516   9.405   7.330   5.196  0.0670  1.0134 -0.2968
  575MOL0     C77517   9.427   7.201   5.247 -0.7395 -0.3630  0.5131
  575MOL0     C77518   9.554   7.123   5.224  0.4707 -0.4784  0.2258
  575MOL0     C77519   9.317   7.138   5.311  0.5827  0.2432  0.3152
  575MOL0     C77520   9.315   6.998   5.361 -0.0976  0.2440 -0.4200
  575MOL0     O77521   9.257   6.973   5.482 -0.4383 -0.7939  0.1299
  575MOL0     C77522   9.252   6.847   5.527  0.0146  1.3524  0.5909
  575MOL0     C77523   9.126   6.796   5.579 -0.5455  0.5783  0.0633
  575MOL0     C77524   9.106   6.666   5.625 -1.0712  0.6387  0.1660
  575MOL0     C77525   9.214   6.574   5.612 -0.3022  0.4540 -0.6230
  575MOL0     O77526   9.187   6.448   5.675  0.3856 -0.3164 -0.3875
  575MOL0     C77527   9.294   6.357   5.675 -0.4008 -0.1798  0.5821
  575MOL0     C77528   9.232   6.230   5.733 -0.6141 -1.6023 -0.0844
  575MOL0     C77529   9.332   6.114   5.723  0.6657 -0.0011 -0.6827
  575MOL0     C77530   9.270   6.000   5.803  0.3493  0.6194 -0.3705
  575MOL0     C77531   9.372   5.895   5.784 -0.1410  0.6105  0.1966
  575MOL0     C77532   9.311   5.767   5.839  0.4447 -0.1538 -0.4686
  575MOL0     C77533   9.419   5.662   5.872 -0.5183  0.2646  0.4714
  575MOL0     C77534   9.381   5.514   5.919  0.9169 -0.0250  0.4219
  575MOL0    Cl77535   9.524   5.409   5.942  0.2612  0.3925  0.4501
  575MOL0     C77536   9.336   6.625   5.555 -0.4930 -0.5508  0.2999
  575MOL0     C77537   9.358   6.754   5.523  0.0230  1.3713 -0.7279
  575MOL0     O77538   9.378   6.917   5.298  0.9708  0.1873 -0.3155
  575MOL0     C77539   9.188   7.193   5.309  0.4316  0.5692  0.2571
  575MOL0     C77540   9.174   7.327   5.267 -0.0294  0.9299 -0.4819
  575MOL0     N77541   8.821   8.002   5.031 -1.2471  0.5388 -0.7331
  575MOL0     N77542   8.740   8.077   4.963  0.3993  0.2934 -0.0022
  575MOL0     C77543   7.891   8.325   4.009  0.5332  0.0998 -0.9563
  575MOL0     C77544   7.831   8.367   3.890  0.0938 -0.2576  0.9332
  575MOL0     C77545   7.658   8.546   3.529  0.6119  0.1957  0.5592
  575MOL0     C77546   7.547   8.622   3.551  0.7401 -0.9567  0.7867
  575MOL0     C77547   7.472   8.658   3.436  0.1305  0.4102 -0.6351
  575MOL0     C77548   7.508   8.635   3.303  0.2354 -0.0726 -0.5346
  575MOL0     O77549   7.439   8.702   3.203  0.1223  1.0260 -0.1193
  575MOL0     C77550   7.503   8.829   3.167  0.3694 -0.0356 -0.3788
  575MOL0     C77551   7.456   8.875   3.029  0.3257 -0.1007 -0.9022
  575MOL0     C77552   7.501   9.019   2.993  1.1774 -1.6465 -0.2411
  575MOL0     C77553   7.469   9.063   2.850 -0.1374 -0.8203  0.4596
  575MOL0     C77554   7.522   9.192   2.802 -0.2609  0.8167  0.2449
  575MOL0     C77555   7.565   9.301   2.786 -0.2129 -0.6071  0.2950
  575MOL0     C77556   7.623   8.561   3.281  0.9825 -0.1002  0.7647
  575MOL0     C77557   7.696   8.527   3.395  0.0172 -0.3545 -0.1233
  575MOL0     H77558   7.691   8.666   3.987  0.5075 -0.0408 -2.6607
  575MOL0     H77559   7.827   8.606   4.183 -4.7587 -1.5484  0.8182
  575MOL0     H77560   7.985   8.172   4.230  4.0428 -1.9457 -2.8270
  575MOL0     H77561   8.110   8.280   4.168 -1.8637 -0.2736 -1.5282
  575MOL0     H77562   8.168   8.355   4.406  2.2875 -1.4474 -0.2199
  575MOL0     H77563   8.016   8.297   4.457 -0.0760 -0.2205 -2.0723
  575MOL0     H77564   8.130   8.055   4.398  3.5290 -1.9205  0.9185
  575MOL0     H77565   8.276   8.151   4.360  1.2366  1.0489  1.2648
  575MOL0     H77566   8.193   8.241   4.614  1.4399  0.6283 -1.7478
  575MOL0     H77567   8.123   8.079   4.608  2.0834 -1.1796  0.6859
  575MOL0     H77568   8.345   7.986   4.557 -0.5650 -1.1469  2.6273
  575MOL0     H77569   8.412   8.149   4.575  0.6277 -0.1866  0.3692
  575MOL0     H77570   8.346   8.131   4.822  1.9039  1.0321 -1.2255
  575MOL0     H77571   8.256   7.991   4.778 -0.5509  0.9830 -0.1791
  575MOL0     H77572   8.458   7.927   4.873 -1.9324 -0.4856 -0.2865
  575MOL0     H77573   8.467   7.890   4.702 -0.3279  0.8188  0.3930
  575MOL0     H77574   8.577   8.159   4.807  0.1760  0.3691  1.4384
  575MOL0     H77575   8.624   8.065   4.663 -3.3547 -2.5517 -0.4653
  575MOL0     H77576   8.720   7.791   4.812  3.8925 -1.9235  2.0260
  575MOL0     H77577   8.830   7.685   5.107 -1.8449 -0.5659 -0.2697
  575MOL0     H77578   8.896   7.678   4.954 -0.9390  1.3433 -1.4028
  575MOL0     H77579   9.042   7.772   5.197 -1.1903 -2.1960  0.2709
  575MOL0     H77580   9.050   7.888   5.055  0.3766 -1.3927 -2.3346
  575MOL0     H77581   9.226   7.750   5.076  0.2872  0.5315  0.5260
  575MOL0     H77582   9.144   7.689   4.929 -2.6760 -1.6498  0.7733
  575MOL0     H77583   9.093   7.480   5.028  0.6485  0.2548 -1.5999
  575MOL0     H77584   9.070   7.568   5.186  0.6200  1.0399 -0.0318
  575MOL0     H77585   9.483   7.386   5.145  2.1836  0.2824  1.9769
  575MOL0     H77586   9.536   7.046   5.148 -0.5684 -0.6378  0.6105
  575MOL0     H77587   9.630   7.196   5.196  1.1744 -1.4350 -0.4022
  575MOL0     H77588   9.586   7.078   5.319 -3.5033 -3.6630  0.3534
  575MOL0     H77589   9.042   6.860   5.554  2.1360  3.6988 -1.7534
  575MOL0     H77590   9.013   6.620   5.659 -3.0031  1.1880 -3.7264
  575MOL0     H77591   9.326   6.334   5.573  1.3309 -0.3566  1.1238
  575MOL0     H77592   9.374   6.392   5.741 -1.5131  0.1588  1.7798
  575MOL0     H77593   9.196   6.248   5.835  2.4446  0.0128  0.8227
  575MOL0     H77594   9.142   6.202   5.677 -1.4000 -0.0958  0.3605
  575MOL0     H77595   9.437   6.136   5.745 -0.0763  0.5596  2.8433
  575MOL0     H77596   9.322   6.087   5.618  1.2298 -2.4243 -0.1748
  575MOL0     H77597   9.259   6.019   5.911 -1.6929 -0.0339 -0.4189
  575MOL0     H77598   9.163   5.985   5.783  0.2324  0.3962  0.3483
  575MOL0     H77599   9.469   5.920   5.828  0.7663  0.3305 -1.5394
  575MOL0     H77600   9.393   5.882   5.677  1.1059 -0.5207  0.5463
  575MOL0     H77601   9.274   5.796   5.938 -1.0994  2.4918 -1.6893
  575MOL0     H77602   9.230   5.728   5.776 -1.0044  1.9341 -0.0128
  575MOL0     H77603   9.483   5.702   5.951  1.2382 -0.4377 -0.5436
  575MOL0     H77604   9.474   5.658   5.778  0.1620  1.0786  0.8294
  575MOL0     H77605   9.325   5.474   5.834  3.8769  2.1485 -2.8393
  575MOL0     H77606   9.313   5.529   6.004 -3.6598  0.0267 -2.8905
  575MOL0     H77607   9.417   6.556   5.531  2.2300  2.5291 -0.0383
  575MOL0     H77608   9.458   6.782   5.490  1.3610  2.1599  3.4281
  575MOL0     H77609   9.110   7.128   5.346 -0.8584  0.7107 -2.0468
  575MOL0     H77610   9.074   7.369   5.276 -0.2121  0.2657  0.8482
  575MOL0     H77611   7.947   8.232   4.008  1.1766  0.3916 -4.4080
  575MOL0     H77612   7.850   8.303   3.804 -1.4980 -1.6770  1.5699
  575MOL0     H77613   7.501   8.627   3.649 -2.0032  0.0911 -0.4367
  575MOL0     H77614   7.387   8.723   3.455  0.2710  0.1740  0.9307
  575MOL0     H77615   7.483   8.905   3.243  2.6717  2.5249 -2.1746
  575MOL0     H77616   7.612   8.822   3.169  0.4839  0.8974 -1.9057
  575MOL0     H77617   7.348   8.869   3.016  0.1838  2.0748 -1.2055
  575MOL0     H77618   7.499   8.812   2.951 -0.3034  1.1458 -2.2988
  575MOL0     H77619   7.606   9.038   3.016  1.0145  4.3686 -2.5476
  575MOL0     H77620   7.434   9.084   3.051 -1.7536 -2.4342 -2.4941
  575MOL0     H77621   7.364   9.059   2.822  0.2844  0.7094 -1.5369
  575MOL0     H77622   7.515   8.991   2.782 -3.6478 -1.2974 -1.6171
  575MOL0     H77623   7.620   9.392   2.776  0.1443 -1.0693 -2.9267
  575MOL0     H77624   7.651   8.532   3.181 -1.8962 -0.6984  0.0340
  575MOL0     H77625   7.789   8.476   3.369  1.2549  2.0510 -0.6987
  576MOL0     O77626   0.782   1.628   2.738  0.6072  0.1530  0.6667
  576MOL0     C77627   0.776   1.550   2.646  0.7649  0.2041 -0.3752
  576MOL0     O77628   0.751   1.412   2.657  0.2620  0.3711  0.1423
  576MOL0     C77629   0.755   1.361   2.785  0.4636  0.9770  0.0941
  576MOL0     C77630   0.836   1.397   2.887 -0.4609  0.1453  1.0739
  576MOL0     C77631   0.830   1.340   3.011  0.2667 -0.0648  0.4602
  576MOL0     C77632   0.751   1.234   3.045 -0.0859 -0.2517 -0.4048
  576MOL0     O77633   0.742   1.176   3.164  0.7135  0.3729 -0.3234
  576MOL0     C77634   0.694   1.250   3.277 -0.0098 -1.1404 -0.0178
  576MOL0     C77635   0.552   1.200   3.317 -0.3340  0.3733 -0.2467
  576MOL0     C77636   0.523   1.051   3.320 -0.0261 -0.4945  0.1621
  576MOL0     C77637   0.388   1.007   3.394  0.3958 -0.6637 -0.8087
  576MOL0     C77638   0.265   1.063   3.324 -0.6618 -0.2946  0.4950
  576MOL0     C77639   0.208   0.991   3.199  0.8413 -0.2481  0.4304
  576MOL0     C77640   0.100   1.062   3.130  0.6129 -0.0488  0.8884
  576MOL0     C77641  -0.042   1.051   3.198  1.5657 -0.6791  0.4927
  576MOL0     N77642  -0.054   1.133   3.322 -0.6599  0.3833  0.8655
  576MOL0     C77643  -0.083   1.093   3.443  0.5179  0.1061 -0.3911
  576MOL0     C77644  -0.088   1.204   3.520 -0.6465  0.6547  1.3087
  576MOL0     C77645  -0.100   1.201   3.675  0.5956  0.6562  0.4403
  576MOL0     C77646   0.042   1.156   3.720 -0.3597  0.1328 -0.8496
  576MOL0     C77647   0.150   1.236   3.665  0.1837 -0.0713 -0.2851
  576MOL0     C77648   0.140   1.382   3.683 -0.3142 -0.0003 -0.3669
  576MOL0     O77649   0.123   1.413   3.828  0.4226  0.1015 -0.3235
  576MOL0     C77650   0.085   1.540   3.858 -0.3804  0.5299 -0.1325
  576MOL0     C77651   0.006   1.566   3.969 -0.6648 -0.2765  0.2212
  576MOL0     C77652  -0.038   1.703   4.001 -0.0572  0.5545  0.0797
  576MOL0     C77653  -0.153   1.693   4.101 -0.1762 -0.2359  0.4392
  576MOL0     C77654  -0.000   1.816   3.924  0.5263  1.3675 -0.1103
  576MOL0     C77655  -0.024   1.960   3.963  0.0731 -0.7737 -0.9461
  576MOL0     O77656  -0.086   1.997   4.078 -0.0748  0.5217  0.2313
  576MOL0     C77657  -0.127   2.124   4.098 -0.1880 -0.2115  0.4793
  576MOL0     C77658  -0.115   2.171   4.232  0.4319 -0.3810 -0.3974
  576MOL0     C77659  -0.152   2.305   4.268 -0.0615 -0.6089  0.1042
  576MOL0     C77660  -0.206   2.391   4.167  0.0718 -0.2762 -0.4269
  576MOL0     O77661  -0.241   2.518   4.170  0.1815 -0.2958  0.0795
  576MOL0     C77662  -0.291   2.560   4.302 -0.0703 -0.4906 -0.7046
  576MOL0     C77663  -0.348   2.700   4.292 -0.2321 -0.0133  0.5577
  576MOL0     C77664  -0.482   2.701   4.221 -0.2984  0.3811  0.0628
  576MOL0     C77665  -0.578   2.820   4.227 -0.1862 -0.0737 -0.3608
  576MOL0     C77666  -0.699   2.783   4.134 -0.6598  0.3805 -0.4142
  576MOL0     C77667  -0.805   2.891   4.122  0.7289  0.7857 -0.7719
  576MOL0     C77668  -0.866   2.930   4.257  0.2194  0.4967  0.3707
  576MOL0     C77669  -0.909   2.829   4.353  0.0111  0.4316 -0.4599
  576MOL0    Cl77670  -0.984   2.905   4.497 -0.1168  0.5270 -0.0270
  576MOL0     C77671  -0.222   2.343   4.034 -0.1040 -0.0211 -0.4288
  576MOL0     C77672  -0.182   2.215   4.008  0.8133 -0.1265  0.7836
  576MOL0     O77673   0.015   2.044   3.881 -0.8781 -0.4979  0.2805
  576MOL0     C77674   0.080   1.781   3.811 -0.7294 -0.9896  0.7788
  576MOL0     C77675   0.122   1.652   3.783  0.3761  0.5084  0.6393
  576MOL0     N77676  -0.072   1.311   3.437 -1.0585  0.6033 -0.0534
  576MOL0     N77677  -0.049   1.269   3.318  1.4019  0.0927 -0.2755
  576MOL0     C77678   0.652   1.204   2.944  0.7780  0.3647  0.5812
  576MOL0     C77679   0.654   1.270   2.821 -0.1791  0.6519 -0.4061
  576MOL0     C77680   0.766   1.610   2.515 -0.3995  0.8739  1.2668
  576MOL0     C77681   0.722   1.536   2.403 -0.0092  0.0992  0.5928
  576MOL0     C77682   0.721   1.593   2.276 -0.3955  1.0776 -0.0062
  576MOL0     C77683   0.761   1.727   2.253  0.0094  0.5420 -0.7046
  576MOL0     O77684   0.755   1.775   2.126  1.4729  0.1982 -0.1969
  576MOL0     C77685   0.842   1.883   2.094 -1.0727 -0.5132  0.6758
  576MOL0     C77686   0.872   1.884   1.946 -0.1456 -0.1996  0.7257
  576MOL0     C77687   0.917   1.740   1.886 -0.4623 -0.5824  0.0265
  576MOL0     C77688   0.985   1.754   1.751  0.2792  0.4572  0.2455
  576MOL0     C77689   1.073   1.638   1.730 -0.1708 -0.2645 -0.4026
  576MOL0     C77690   1.159   1.567   1.697 -0.9129  0.0816 -0.4367
  576MOL0     C77691   0.804   1.806   2.369  0.5659  0.8401  0.4295
  576MOL0     C77692   0.810   1.741   2.493  0.4479  0.4977 -1.1028
  576MOL0     H77693   0.906   1.480   2.885  0.3684 -0.5238  2.0303
  576MOL0     H77694   0.908   1.372   3.080  2.1558 -2.0291 -0.6286
  576MOL0     H77695   0.757   1.239   3.365 -1.2114  1.7969  1.3461
  576MOL0     H77696   0.690   1.357   3.256  1.6703 -0.6935  1.6797
  576MOL0     H77697   0.525   1.248   3.412 -2.4500  1.0936 -1.1431
  576MOL0     H77698   0.478   1.244   3.250 -1.4521  0.5183  1.0454
  576MOL0     H77699   0.516   1.015   3.217  4.4377  3.5800 -2.0060
  576MOL0     H77700   0.605   0.998   3.370 -0.4144 -0.8332  0.4444
  576MOL0     H77701   0.370   0.899   3.390  2.2704 -1.0621  0.4009
  576MOL0     H77702   0.396   1.043   3.497  0.9321  1.0585 -1.4275
  576MOL0     H77703   0.175   1.058   3.386 -1.6579 -1.0964 -0.9542
  576MOL0     H77704   0.280   1.169   3.304  3.7370 -0.6604  0.9699
  576MOL0     H77705   0.282   0.982   3.119  0.7450  1.3993  0.1214
  576MOL0     H77706   0.169   0.892   3.225  0.0944  0.8539  3.9895
  576MOL0     H77707   0.131   1.158   3.087 -1.6026  0.1578 -0.4060
  576MOL0     H77708   0.076   1.011   3.036 -1.1547 -0.2402  1.4056
  576MOL0     H77709  -0.059   0.950   3.235  1.0206 -1.0439 -0.6800
  576MOL0     H77710  -0.110   1.085   3.118  1.8754 -2.2796 -0.5057
  576MOL0     H77711  -0.090   0.991   3.480 -2.7603  1.7870  4.5559
  576MOL0     H77712  -0.125   1.303   3.708  1.2324  0.8898  0.2082
  576MOL0     H77713  -0.177   1.131   3.710  2.3085 -1.5902 -0.0578
  576MOL0     H77714   0.060   1.048   3.722 -4.7466 -0.9125  3.6157
  576MOL0     H77715   0.035   1.184   3.826  0.0899  0.4869 -0.9111
  576MOL0     H77716   0.162   1.222   3.557 -0.7888  1.3899 -0.6177
  576MOL0     H77717   0.239   1.194   3.712  0.2123  0.2244 -0.0709
  576MOL0     H77718   0.065   1.426   3.616  0.8544  0.9907 -1.0519
  576MOL0     H77719   0.231   1.425   3.640  0.7990 -0.0360  1.8184
  576MOL0     H77720  -0.033   1.486   4.032  0.9886 -2.4053 -1.3447
  576MOL0     H77721  -0.252   1.699   4.056 -1.4550  0.6274  3.1463
  576MOL0     H77722  -0.149   1.613   4.175  0.4571 -0.0531  0.6088
  576MOL0     H77723  -0.145   1.774   4.174  2.8328 -0.6074  0.6738
  576MOL0     H77724  -0.077   2.109   4.313 -2.3410 -1.6824  0.0252
  576MOL0     H77725  -0.137   2.340   4.369 -1.0125 -0.5845  0.2479
  576MOL0     H77726  -0.368   2.499   4.350  1.5421 -1.5511  0.5977
  576MOL0     H77727  -0.214   2.563   4.379 -0.6858  1.5673 -0.1095
  576MOL0     H77728  -0.381   2.725   4.393  0.6824 -2.4717  1.5276
  576MOL0     H77729  -0.281   2.767   4.237 -0.9442 -0.8479 -1.4277
  576MOL0     H77730  -0.529   2.614   4.266  1.3916 -1.7666 -2.0261
  576MOL0     H77731  -0.478   2.660   4.119 -2.4055  2.2253 -0.8451
  576MOL0     H77732  -0.612   2.850   4.327  1.3709 -0.1085  0.2080
  576MOL0     H77733  -0.527   2.908   4.185  0.6500 -0.0183  0.7273
  576MOL0     H77734  -0.757   2.697   4.170 -3.7528  1.0573 -3.2543
  576MOL0     H77735  -0.670   2.763   4.031 -2.7848  1.0960 -1.2126
  576MOL0     H77736  -0.750   2.973   4.074 -0.5176  1.6687 -0.7491
  576MOL0     H77737  -0.889   2.870   4.056 -0.5264 -0.4715  1.1417
  576MOL0     H77738  -0.952   2.995   4.236  0.5639  0.7010 -0.4501
  576MOL0     H77739  -0.794   2.996   4.305 -1.3663  2.0723  0.6921
  576MOL0     H77740  -0.836   2.751   4.381  0.6909 -0.7155 -4.6557
  576MOL0     H77741  -0.989   2.780   4.297  1.1844  1.1227 -2.9196
  576MOL0     H77742  -0.265   2.413   3.963 -3.0017  0.6578  1.8212
  576MOL0     H77743  -0.188   2.172   3.908  0.5945  0.2477  0.6342
  576MOL0     H77744   0.098   1.860   3.739  1.6891 -0.8745  1.4448
  576MOL0     H77745   0.174   1.637   3.689 -0.8079 -0.7872  0.1525
  576MOL0     H77746   0.590   1.124   2.984 -0.9170  0.7168 -1.1830
  576MOL0     H77747   0.570   1.259   2.753 -0.4751 -0.1082  0.0772
  576MOL0     H77748   0.699   1.430   2.398 -3.8857  0.8480 -2.8359
  576MOL0     H77749   0.696   1.544   2.182 -0.1710  1.5409 -0.3113
  576MOL0     H77750   0.811   1.981   2.131  0.6022  0.7596 -1.0765
  576MOL0     H77751   0.940   1.870   2.141 -0.4470  1.3628 -0.0418
  576MOL0     H77752   0.946   1.963   1.931  0.3836 -0.6996  0.6623
  576MOL0     H77753   0.784   1.912   1.887 -1.7581  0.4566  3.3077
  576MOL0     H77754   0.833   1.673   1.869  1.4899 -2.6383 -2.4553
  576MOL0     H77755   0.983   1.689   1.957 -3.5521 -3.5870  0.9857
  576MOL0     H77756   1.039   1.847   1.733 -2.3194  1.9572 -0.4603
  576MOL0     H77757   0.910   1.765   1.672 -1.2768  1.8588  1.8295
  576MOL0     H77758   1.237   1.497   1.676 -2.0577 -0.7475 -2.1223
  576MOL0     H77759   0.841   1.908   2.359 -1.7771  1.6073 -1.0619
  576MOL0     H77760   0.840   1.790   2.585 -1.5031 -0.7637  0.2913
  577MOL0     O77761   2.151  10.566   5.764 -0.2464  0.3412 -0.9676
  577MOL0     C77762   2.262  10.546   5.808  1.0323 -1.0231  0.4410
  577MOL0     O77763   2.308  10.441   5.866  0.9036  0.6399  0.0113
  577MOL0     C77764   2.219  10.338   5.903  0.6215  1.0736 -0.2863
  577MOL0     C77765   2.110  10.362   5.987 -0.1422  0.7254  0.1303
  577MOL0     C77766   2.025  10.261   6.027  0.2957  1.0071  1.4847
  577MOL0     C77767   2.050  10.124   5.988  0.4564 -0.4336  0.9495
  577MOL0     O77768   1.961  10.030   6.031  0.5685  0.3002  0.1198
  577MOL0     C77769   2.019   9.902   6.065 -0.0417  0.0835  1.3513
  577MOL0     C77770   1.923   9.809   6.135  0.6175 -0.4729  0.7851
  577MOL0     C77771   1.830   9.740   6.029  0.5759 -0.2417 -0.4256
  577MOL0     C77772   1.738   9.629   6.087  0.0842 -0.6420 -0.3027
  577MOL0     C77773   1.641   9.605   5.972  0.4476  0.4657 -0.2049
  577MOL0     C77774   1.522   9.502   5.998 -0.2889  0.5910 -0.5733
  577MOL0     C77775   1.468   9.454   5.863 -0.6525  0.1481  0.0067
  577MOL0     C77776   1.359   9.355   5.884  0.1843  0.4917 -0.2650
  577MOL0     N77777   1.347   9.269   5.761 -0.8212 -1.5886  1.3870
  577MOL0     C77778   1.230   9.242   5.698  0.9980 -0.3114 -0.6121
  577MOL0     C77779   1.264   9.158   5.599 -0.3969  0.6877 -0.1746
  577MOL0     C77780   1.173   9.097   5.503  0.1336  0.9998 -0.2036
  577MOL0     C77781   1.088   8.991   5.577  0.7105 -0.0858  0.2675
  577MOL0     C77782   1.033   8.882   5.473  0.6083 -0.6169  0.0050
  577MOL0     C77783   0.931   8.945   5.371  0.1443  0.0966 -0.1996
  577MOL0     O77784   0.866   8.839   5.295 -0.2523  0.5280  0.4164
  577MOL0     C77785   0.753   8.785   5.348  0.9678  0.9927 -1.1867
  577MOL0     C77786   0.668   8.707   5.271 -0.0665 -0.1129 -0.3858
  577MOL0     C77787   0.545   8.661   5.325 -0.3296 -0.7725 -0.2172
  577MOL0     C77788   0.459   8.587   5.236  0.2366  0.7901 -0.9297
  577MOL0     C77789   0.495   8.699   5.452 -0.2513  0.2785  0.8483
  577MOL0     C77790   0.357   8.664   5.510 -0.4108 -0.7875  0.6538
  577MOL0     O77791   0.327   8.713   5.638 -0.4176 -0.4487  0.0005
  577MOL0     C77792   0.208   8.671   5.696 -0.2174 -0.2167  0.2741
  577MOL0     C77793   0.130   8.767   5.770 -0.7299 -0.2111 -0.7384
  577MOL0     C77794   0.018   8.725   5.844  0.6907 -0.7634  0.6664
  577MOL0     C77795  -0.036   8.594   5.842 -0.6127  0.6587  0.5429
  577MOL0     O77796  -0.156   8.561   5.902 -0.6078  0.0297  0.7070
  577MOL0     C77797  -0.193   8.423   5.905 -0.1802  0.3068 -0.7169
  577MOL0     C77798  -0.321   8.396   5.988  1.0579 -0.7623  0.2767
  577MOL0     C77799  -0.442   8.460   5.911 -0.2106  0.3314 -0.0101
  577MOL0     C77800  -0.571   8.436   5.994 -0.1263 -0.4944 -0.2110
  577MOL0     C77801  -0.703   8.436   5.924 -0.7004  0.2221  0.7582
  577MOL0     C77802  -0.810   8.504   6.010  0.2354  0.1298 -0.1933
  577MOL0     C77803  -0.929   8.529   5.921  0.0315  0.7104 -0.2030
  577MOL0     C77804  -1.010   8.403   5.897 -0.0089 -1.3010 -0.4408
  577MOL0    Cl77805  -1.164   8.434   5.806 -0.2523  0.2214  0.2769
  577MOL0     C77806   0.033   8.502   5.757  0.4292 -1.1528 -0.4305
  577MOL0     C77807   0.158   8.539   5.694  0.7976 -0.6670  0.4809
  577MOL0     O77808   0.277   8.604   5.438  0.6769  0.1814 -0.9203
  577MOL0     C77809   0.579   8.773   5.539 -0.3029  0.2676 -1.1885
  577MOL0     C77810   0.705   8.807   5.489 -0.0934 -0.4754 -0.0256
  577MOL0     N77811   1.405   9.144   5.597  1.3670  0.5520  0.2887
  577MOL0     N77812   1.447   9.209   5.698  0.0672 -0.0876 -0.9490
  577MOL0     C77813   2.154  10.101   5.904 -1.1317  0.6787 -0.1816
  577MOL0     C77814   2.245  10.205   5.866 -1.3945 -0.2584  0.0602
  577MOL0     C77815   2.360  10.650   5.786 -0.3085  1.3081 -0.0152
  577MOL0     C77816   2.321  10.782   5.790  0.3119  0.5623  0.5064
  577MOL0     C77817   2.424  10.880   5.785  0.7899  0.3445 -1.0403
  577MOL0     C77818   2.560  10.861   5.762  0.6662 -0.3380  0.1715
  577MOL0     O77819   2.646  10.971   5.755 -0.4971 -0.2306  0.2498
  577MOL0     C77820   2.778  10.954   5.803  0.5829 -0.5985 -0.7608
  577MOL0     C77821   2.836  11.095   5.826  0.1366 -0.5008  0.0576
  577MOL0     C77822   2.780  11.161   5.951  0.3240 -0.2551 -0.0207
  577MOL0     C77823   2.746  11.319   5.942  0.3720  0.8801 -0.0434
  577MOL0     C77824   2.858  11.393   5.883  0.7826 -0.3470 -0.0921
  577MOL0     C77825   2.951  11.459   5.850 -0.1072  0.1405  0.3229
  577MOL0     C77826   2.595  10.724   5.748  0.0476  0.1333  0.9142
  577MOL0     C77827   2.500  10.623   5.770 -0.7945  0.5161 -1.0262
  577MOL0     H77828   2.084  10.463   6.019  2.1237  1.4201 -0.0244
  577MOL0     H77829   1.946  10.288   6.097 -0.9816  1.4897 -0.0840
  577MOL0     H77830   2.077   9.850   5.988 -0.2595 -1.4647  2.1777
  577MOL0     H77831   2.091   9.912   6.148  0.8817 -1.8401  0.8443
  577MOL0     H77832   1.990   9.741   6.189  1.6395 -0.7303 -0.7384
  577MOL0     H77833   1.857   9.866   6.200  0.4533  0.0554  0.1586
  577MOL0     H77834   1.771   9.823   5.988  2.9460  0.6883 -2.2294
  577MOL0     H77835   1.890   9.708   5.943 -1.8525  1.5257 -2.9843
  577MOL0     H77836   1.798   9.539   6.105  0.9200 -0.4939 -2.0951
  577MOL0     H77837   1.679   9.670   6.169  2.3438  3.3783 -0.4473
  577MOL0     H77838   1.611   9.701   5.928  0.4438  0.9584  0.8520
  577MOL0     H77839   1.687   9.561   5.883 -3.1305  2.1933 -3.2103
  577MOL0     H77840   1.554   9.413   6.052  0.2103 -0.5484 -2.6179
  577MOL0     H77841   1.444   9.549   6.058 -1.2180  0.1580 -1.3981
  577MOL0     H77842   1.426   9.538   5.808  0.4064  2.5161  2.6090
  577MOL0     H77843   1.540   9.407   5.795  0.0909 -1.6416  1.9534
  577MOL0     H77844   1.266   9.411   5.900 -0.7051 -1.3741  1.6171
  577MOL0     H77845   1.370   9.292   5.972  2.5808  0.5130 -0.4836
  577MOL0     H77846   1.133   9.290   5.702  1.5265  0.9061 -1.8346
  577MOL0     H77847   1.116   9.174   5.449 -0.5463 -0.1979 -1.2520
  577MOL0     H77848   1.244   9.050   5.434 -0.1296 -0.5454  0.5486
  577MOL0     H77849   1.017   9.056   5.629 -1.0168 -1.6240 -0.0607
  577MOL0     H77850   1.161   8.945   5.644  2.0204  0.5671 -0.6573
  577MOL0     H77851   0.988   8.799   5.527  0.2457 -0.3304  0.1409
  577MOL0     H77852   1.121   8.847   5.418  1.6750  3.3699 -1.2073
  577MOL0     H77853   0.986   9.010   5.302  1.0704 -1.6737 -1.1747
  577MOL0     H77854   0.857   9.013   5.416  0.4712  0.4735 -0.2293
  577MOL0     H77855   0.697   8.684   5.169 -3.1761  3.2392 -2.2967
  577MOL0     H77856   0.382   8.649   5.190  0.7672  0.8339 -1.7874
  577MOL0     H77857   0.521   8.539   5.160  1.0201  0.6979 -0.2437
  577MOL0     H77858   0.410   8.505   5.289  2.1962  0.5175  0.5857
  577MOL0     H77859   0.154   8.872   5.761 -2.8376  0.5559  1.5863
  577MOL0     H77860  -0.037   8.807   5.890 -0.3128 -0.5791 -0.7965
  577MOL0     H77861  -0.202   8.377   5.806  2.3981  0.8205 -1.2551
  577MOL0     H77862  -0.110   8.367   5.948 -0.3681  0.7086  0.2071
  577MOL0     H77863  -0.344   8.291   6.004 -1.4461 -0.2161  0.5619
  577MOL0     H77864  -0.307   8.440   6.087  0.7478  1.3061 -0.5521
  577MOL0     H77865  -0.445   8.412   5.813 -0.4160 -0.9123  0.5826
  577MOL0     H77866  -0.436   8.568   5.898 -0.1001  0.6695  2.3631
  577MOL0     H77867  -0.564   8.340   6.047 -1.2667  0.8389  2.5808
  577MOL0     H77868  -0.569   8.514   6.071 -0.7079 -1.6367  1.0081
  577MOL0     H77869  -0.728   8.333   5.895 -1.5120  0.2962  1.1716
  577MOL0     H77870  -0.697   8.497   5.833 -1.4750  1.3702  1.4568
  577MOL0     H77871  -0.848   8.444   6.093  1.6054 -0.6460 -0.0885
  577MOL0     H77872  -0.770   8.601   6.040 -0.8450  0.8710 -1.0535
  577MOL0     H77873  -0.902   8.563   5.821  3.8726 -2.2416 -0.4115
  577MOL0     H77874  -0.994   8.603   5.969 -1.6262 -0.7995  0.0287
  577MOL0     H77875  -1.041   8.367   5.996 -1.7898 -1.0553 -0.8575
  577MOL0     H77876  -0.944   8.328   5.853  0.7415 -0.4946 -0.7109
  577MOL0     H77877  -0.001   8.404   5.727 -0.1652 -0.1613 -3.3838
  577MOL0     H77878   0.210   8.462   5.638  0.4601 -2.3905  2.4063
  577MOL0     H77879   0.554   8.795   5.643  0.9503 -3.5337  0.0591
  577MOL0     H77880   0.772   8.862   5.555 -0.6539 -0.8556  0.8816
  577MOL0     H77881   2.191  10.005   5.868  2.6376  2.4456 -1.5978
  577MOL0     H77882   2.332  10.177   5.808 -2.8693 -1.3999 -1.7095
  577MOL0     H77883   2.218  10.816   5.794  0.5736  1.3366  0.9425
  577MOL0     H77884   2.385  10.981   5.786  1.3855  0.6058  1.0312
  577MOL0     H77885   2.777  10.902   5.899 -1.5371  2.2357  0.8857
  577MOL0     H77886   2.843  10.901   5.732  2.4461  2.3322 -1.4401
  577MOL0     H77887   2.808  11.147   5.733  0.4196  1.6671  1.1204
  577MOL0     H77888   2.944  11.089   5.841  0.4900  0.3374 -1.7959
  577MOL0     H77889   2.861  11.154   6.025  1.2947 -0.7800 -1.0990
  577MOL0     H77890   2.691  11.118   5.998 -2.0299  0.8011 -3.1613
  577MOL0     H77891   2.716  11.358   6.040 -1.2268  2.3241 -1.0527
  577MOL0     H77892   2.651  11.325   5.889 -0.7968 -1.9548  1.4698
  577MOL0     H77893   3.032  11.519   5.812  2.5199 -2.7772  0.8633
  577MOL0     H77894   2.700  10.701   5.735 -0.5887 -2.9498  0.3321
  577MOL0     H77895   2.533  10.521   5.783 -0.4354  0.9181  1.9931
  578MOL0     O77896   8.965   9.702   7.082 -0.4598 -0.6035 -0.4270
  578MOL0     C77897   8.850   9.671   7.107  0.6419 -0.1049 -0.4388
  578MOL0     O77898   8.775   9.701   7.213  0.2901  0.1525  0.8554
  578MOL0     C77899   8.829   9.751   7.330 -0.1602  0.2384  0.4574
  578MOL0     C77900   8.730   9.811   7.414 -0.0476  0.0349  0.5818
  578MOL0     C77901   8.773   9.889   7.518  0.7963  0.5601  0.0571
  578MOL0     C77902   8.906   9.889   7.556 -0.8287  0.1075 -0.6798
  578MOL0     O77903   8.934   9.949   7.670 -0.0033  0.3974 -0.1965
  578MOL0     C77904   9.030   9.908   7.767 -0.2010 -0.0422 -0.1248
  578MOL0     C77905   8.976   9.851   7.892  0.7196 -1.0794 -0.4505
  578MOL0     C77906   9.073   9.762   7.968  1.1906 -0.4630 -0.5153
  578MOL0     C77907   8.995   9.651   8.043  0.8910 -0.1841 -0.3487
  578MOL0     C77908   9.090   9.590   8.153  0.3180 -0.0169 -0.2413
  578MOL0     C77909   9.215   9.499   8.100  0.5426 -0.1664 -0.3813
  578MOL0     C77910   9.316   9.454   8.209 -0.5737 -1.4968  0.5621
  578MOL0     C77911   9.385   9.579   8.270 -0.1079 -0.8207 -0.0314
  578MOL0     N77912   9.476   9.645   8.180 -0.7126  0.8036 -0.0547
  578MOL0     C77913   9.572   9.573   8.111  1.1624 -1.1002 -0.3416
  578MOL0     C77914   9.649   9.674   8.052  0.0335  1.5753 -1.1476
  578MOL0     C77915   9.773   9.647   7.970  0.9408  0.4436  0.4569
  578MOL0     C77916   9.893   9.741   8.002 -0.0929 -0.7733  0.1489
  578MOL0     C77917   9.986   9.681   8.106 -0.1737  0.4795  0.7853
  578MOL0     C77918   9.921   9.653   8.240 -0.6461  0.9761 -0.6331
  578MOL0     O77919   9.866   9.515   8.262 -0.6316 -0.7155  0.1407
  578MOL0     C77920   9.842   9.495   8.392 -0.8286  0.3469 -1.1574
  578MOL0     C77921   9.740   9.570   8.460  0.3459  0.0730 -0.0213
  578MOL0     C77922   9.729   9.574   8.602  0.2216  0.1977 -0.0031
  578MOL0     C77923   9.618   9.644   8.667 -0.1747  0.0684 -0.4698
  578MOL0     C77924   9.824   9.494   8.676 -0.0096  0.3130 -0.5883
  578MOL0     C77925   9.813   9.483   8.821 -0.0054 -0.9532 -0.1546
  578MOL0     O77926   9.921   9.537   8.886 -0.4549  0.1283 -0.5712
  578MOL0     C77927   9.928   9.520   9.026  0.0197  1.0481  0.4400
  578MOL0     C77928   9.837   9.583   9.105 -0.3831  0.0753  0.4427
  578MOL0     C77929   9.842   9.569   9.241  0.0643 -0.2213 -0.1622
  578MOL0     C77930   9.953   9.501   9.297 -0.3622 -0.5007 -0.3450
  578MOL0     O77931   9.964   9.515   9.430 -0.4908 -0.2866 -0.0285
  578MOL0     C77932  10.084   9.471   9.500 -0.0022 -0.1696 -0.7594
  578MOL0     C77933  10.163   9.593   9.529  0.8907 -0.3454 -0.1071
  578MOL0     C77934  10.226   9.658   9.401 -0.0838 -0.6759 -0.4780
  578MOL0     C77935  10.309   9.779   9.434 -0.5708 -0.1245  0.3804
  578MOL0     C77936  10.413   9.805   9.323 -0.2790 -0.3540  0.6118
  578MOL0     C77937  10.459   9.949   9.310 -0.5517 -0.4991 -0.5586
  578MOL0     C77938  10.585   9.973   9.229 -0.5062  0.8619 -0.5144
  578MOL0     C77939  10.603  10.122   9.206  0.4576  0.0817  0.9238
  578MOL0    Cl77940  10.476  10.204   9.109  0.5728 -0.0657 -0.4604
  578MOL0     C77941  10.044   9.435   9.215 -0.6530  0.1501 -0.1477
  578MOL0     C77942  10.031   9.436   9.078 -0.6327  0.2630 -0.0304
  578MOL0     O77943   9.720   9.427   8.875 -0.5090  0.6520  0.0741
  578MOL0     C77944   9.930   9.427   8.616  0.2123  0.2024  0.7588
  578MOL0     C77945   9.945   9.436   8.473  0.1081  0.5558 -1.0039
  578MOL0     N77946   9.604   9.795   8.080 -0.0769 -0.0206 -0.5280
  578MOL0     N77947   9.498   9.781   8.155  0.0047  0.1186  0.0604
  578MOL0     C77948   9.003   9.826   7.485  0.3622  0.4836 -0.1468
  578MOL0     C77949   8.965   9.756   7.366 -0.7919 -0.1963  0.7867
  578MOL0     C77950   8.773   9.611   6.996  1.3379  0.6062 -0.5127
  578MOL0     C77951   8.645   9.550   7.014  0.0877  0.2786  0.2628
  578MOL0     C77952   8.571   9.496   6.900  0.0760 -0.3982 -0.4402
  578MOL0     C77953   8.628   9.510   6.773  0.2019 -0.4498 -0.4500
  578MOL0     O77954   8.559   9.437   6.676 -1.0852  0.0134 -0.0333
  578MOL0     C77955   8.594   9.448   6.542  0.1901  0.1165  0.3211
  578MOL0     C77956   8.711   9.361   6.518 -0.2116  0.3753  0.4220
  578MOL0     C77957   8.745   9.347   6.369  0.0070  1.1219 -0.0166
  578MOL0     C77958   8.867   9.249   6.344 -0.3780  0.2235  0.1565
  578MOL0     C77959   8.985   9.328   6.366 -0.3415  0.0953 -0.4474
  578MOL0     C77960   9.098   9.367   6.378 -0.6443  0.4769 -0.3931
  578MOL0     C77961   8.756   9.584   6.755  0.1254  0.3286 -0.0125
  578MOL0     C77962   8.827   9.622   6.866  0.1137  0.0792 -0.2497
  578MOL0     H77963   8.631   9.810   7.369  0.1156  3.5999 -0.1147
  578MOL0     H77964   8.700   9.929   7.587  0.5442  1.3062 -0.6316
  578MOL0     H77965   9.099   9.834   7.724  0.3083  1.0802 -1.3076
  578MOL0     H77966   9.096   9.990   7.798 -0.7826  1.4807 -2.6252
  578MOL0     H77967   8.954   9.925   7.969  0.6418  0.9492 -2.3231
  578MOL0     H77968   8.889   9.787   7.877 -1.0053  1.1627 -0.6352
  578MOL0     H77969   9.135   9.724   7.887 -1.9815 -1.7644 -2.5139
  578MOL0     H77970   9.133   9.820   8.039 -0.2930  2.7417 -1.6893
  578MOL0     H77971   8.914   9.706   8.092  2.0376  1.0184  0.2842
  578MOL0     H77972   8.962   9.580   7.967 -1.7456 -1.1262  1.5478
  578MOL0     H77973   9.128   9.670   8.216  1.0159 -0.4598 -0.0939
  578MOL0     H77974   9.026   9.532   8.221  2.9567  0.1433  2.5658
  578MOL0     H77975   9.176   9.407   8.055  0.2478 -0.2328  0.0025
  578MOL0     H77976   9.267   9.556   8.023 -0.5980 -0.2340 -1.2263
  578MOL0     H77977   9.259   9.388   8.275 -1.1715 -2.6859 -1.0702
  578MOL0     H77978   9.390   9.393   8.157 -1.5009 -1.9096 -0.3215
  578MOL0     H77979   9.444   9.549   8.358  2.3486  0.0377 -1.2866
  578MOL0     H77980   9.319   9.660   8.304 -1.5650 -3.0305  2.8380
  578MOL0     H77981   9.592   9.468   8.130  2.9945 -0.5407  1.1922
  578MOL0     H77982   9.805   9.542   7.974 -1.1144 -0.1996  3.0512
  578MOL0     H77983   9.738   9.670   7.870 -2.1049  1.1987  1.5900
  578MOL0     H77984   9.862   9.838   8.043  3.8748  0.8053 -0.2029
  578MOL0     H77985   9.949   9.768   7.913 -1.1005  2.1610  0.2831
  578MOL0     H77986  10.066   9.753   8.124  1.8345 -1.5592  0.4707
  578MOL0     H77987  10.045   9.598   8.066  1.4427  1.2624  1.4655
  578MOL0     H77988   9.839   9.721   8.267 -1.4171 -0.5096  0.9908
  578MOL0     H77989  10.005   9.661   8.310 -0.3711 -2.7422 -0.3322
  578MOL0     H77990   9.667   9.614   8.394  2.8704  3.5880 -0.7291
  578MOL0     H77991   9.582   9.721   8.599  0.0413 -2.5938 -3.9099
  578MOL0     H77992   9.534   9.579   8.693 -0.2177 -0.9745 -2.8797
  578MOL0     H77993   9.657   9.689   8.758  2.2782 -1.1932 -0.8049
  578MOL0     H77994   9.769   9.655   9.060 -0.4386 -0.6819 -0.7285
  578MOL0     H77995   9.766   9.623   9.298 -1.3219 -2.8052  0.5717
  578MOL0     H77996  10.054   9.422   9.593  0.8621 -2.4757 -1.6171
  578MOL0     H77997  10.152   9.406   9.443  1.0095 -1.2280  1.5241
  578MOL0     H77998  10.095   9.661   9.581 -2.0430 -2.2463 -1.1922
  578MOL0     H77999  10.248   9.570   9.593 -0.9830 -0.0967  2.6395
  578MOL0     H78000  10.145   9.685   9.333 -0.5342 -1.3961 -0.2447
  578MOL0     H78001  10.293   9.589   9.349  0.7590  0.4588 -0.9311
  578MOL0     H78002  10.245   9.866   9.453  2.1438  1.2185  4.9879
  578MOL0     H78003  10.366   9.759   9.525 -2.2531  0.7081  1.6762
  578MOL0     H78004  10.371   9.781   9.225  4.2712 -0.2402 -1.6309
  578MOL0     H78005  10.487   9.725   9.332  0.7761  0.1977 -2.1515
  578MOL0     H78006  10.383   9.995   9.246 -0.4867 -1.6934 -1.5388
  578MOL0     H78007  10.465   9.994   9.409  2.2435 -2.8367  0.4485
  578MOL0     H78008  10.590   9.912   9.138 -2.4547 -1.9650  1.1155
  578MOL0     H78009  10.669   9.937   9.290  0.6948 -0.7273 -2.9516
  578MOL0     H78010  10.700  10.129   9.155 -0.0442  0.9648  0.0587
  578MOL0     H78011  10.618  10.185   9.295  1.0319  3.0052 -1.0854
  578MOL0     H78012  10.128   9.375   9.247 -0.5844  0.2762 -0.0898
  578MOL0     H78013  10.107   9.381   9.023 -1.0620  0.4336 -0.8099
  578MOL0     H78014   9.997   9.357   8.666  0.2406 -0.9700 -0.8487
  578MOL0     H78015  10.029   9.386   8.425 -2.0727 -3.6603 -0.8858
  578MOL0     H78016   9.109   9.819   7.506  1.4948 -0.8867 -5.0173
  578MOL0     H78017   9.042   9.699   7.315 -0.3800  2.5849 -1.9717
  578MOL0     H78018   8.608   9.537   7.115 -2.7395 -0.0823 -0.7235
  578MOL0     H78019   8.485   9.436   6.928  0.8078 -0.0841  3.0405
  578MOL0     H78020   8.516   9.440   6.466  1.5017 -0.8642 -1.0059
  578MOL0     H78021   8.623   9.553   6.534 -2.6699  0.9486 -0.0937
  578MOL0     H78022   8.697   9.266   6.571 -0.8526  0.5472  0.5686
  578MOL0     H78023   8.801   9.398   6.569  1.6327 -0.4771 -2.0196
  578MOL0     H78024   8.763   9.441   6.317  0.2100  0.4472 -1.2022
  578MOL0     H78025   8.656   9.313   6.315 -1.1249  1.3665  1.6327
  578MOL0     H78026   8.877   9.217   6.240  0.2478 -1.6523  0.7470
  578MOL0     H78027   8.870   9.163   6.412  0.3809 -1.3832 -1.7844
  578MOL0     H78028   9.194   9.411   6.396 -0.9906  0.8348  0.6895
  578MOL0     H78029   8.803   9.604   6.659  0.0674  0.6323  0.0209
  578MOL0     H78030   8.916   9.678   6.840 -0.2238  1.1236  0.7367
  579MOL0     O78031   1.455   5.071   9.723  0.5617 -0.2012  0.6024
  579MOL0     C78032   1.495   5.019   9.827  0.3567  0.6250  0.2086
  579MOL0     O78033   1.613   5.047   9.881  0.4332  0.2312 -0.2592
  579MOL0     C78034   1.706   5.139   9.828  0.1338  0.5247 -0.3567
  579MOL0     C78035   1.819   5.158   9.913  0.1688 -0.2469  0.1806
  579MOL0     C78036   1.931   5.225   9.861  0.0759  0.0680  0.4284
  579MOL0     C78037   1.922   5.292   9.732 -0.2642 -0.9597 -0.5940
  579MOL0     O78038   2.032   5.340   9.665 -0.1859 -0.1152  0.2283
  579MOL0     C78039   2.138   5.406   9.739 -0.1915  0.2292 -1.1722
  579MOL0     C78040   2.247   5.307   9.784  0.0773 -0.0214  0.0440
  579MOL0     C78041   2.398   5.347   9.779 -0.1220 -0.3471  0.4774
  579MOL0     C78042   2.435   5.480   9.848  0.2661 -0.1231  0.2633
  579MOL0     C78043   2.587   5.510   9.860  0.1352  0.1424  0.2608
  579MOL0     C78044   2.599   5.635   9.947 -0.4335 -0.4038  0.7242
  579MOL0     C78045   2.714   5.722   9.929 -0.1319  0.1992  0.1091
  579MOL0     C78046   2.686   5.863   9.995  0.9159  0.1855 -0.4143
  579MOL0     N78047   2.652   5.848  10.134 -0.5616  0.0439  0.6462
  579MOL0     C78048   2.746   5.788  10.224 -0.7114 -0.5857 -1.4635
  579MOL0     C78049   2.669   5.781  10.339  0.4022 -0.0740  0.6456
  579MOL0     C78050   2.702   5.743  10.483 -0.0819 -0.9131 -0.2166
  579MOL0     C78051   2.634   5.826  10.587 -0.1011  0.0258 -0.2215
  579MOL0     C78052   2.699   5.967  10.563 -0.0272  0.2254 -0.3003
  579MOL0     C78053   2.657   6.068  10.674  0.6262 -1.1605  0.0112
  579MOL0     O78054   2.725   6.195  10.655 -0.0772  0.1602  0.3928
  579MOL0     C78055   2.691   6.299  10.736 -0.6791 -0.2566 -0.3870
  579MOL0     C78056   2.790   6.392  10.751 -0.8027  0.4400 -0.3281
  579MOL0     C78057   2.765   6.512  10.809 -0.1636  0.3187  0.5100
  579MOL0     C78058   2.882   6.595  10.841 -0.3626 -0.3938 -0.7071
  579MOL0     C78059   2.648   6.543  10.861 -0.2459  0.6072  0.8953
  579MOL0     C78060   2.605   6.673  10.906 -0.9462 -0.7462  0.0832
  579MOL0     O78061   2.688   6.772  10.954 -0.1370  0.0318  0.3903
  579MOL0     C78062   2.641   6.901  10.944  0.4831  1.3875  0.2750
  579MOL0     C78063   2.613   6.969  11.065  0.0915  0.4573 -0.3569
  579MOL0     C78064   2.578   7.102  11.069  0.8751 -0.1839  0.7194
  579MOL0     C78065   2.552   7.171  10.946  0.4774 -0.3206  1.7324
  579MOL0     O78066   2.499   7.296  10.951  0.4851 -0.1923 -0.4415
  579MOL0     C78067   2.359   7.308  10.914 -0.8850  0.0917  0.6619
  579MOL0     C78068   2.340   7.451  10.867  0.1531 -0.4230 -0.1776
  579MOL0     C78069   2.407   7.473  10.735 -1.0095  0.2500  1.2249
  579MOL0     C78070   2.358   7.388  10.622  0.2780 -0.2720  0.2399
  579MOL0     C78071   2.431   7.410  10.486  0.1333 -0.8976 -0.3904
  579MOL0     C78072   2.414   7.300  10.380  0.6697  1.0053 -0.2838
  579MOL0     C78073   2.426   7.340  10.235  0.2739  0.2031  0.6099
  579MOL0     C78074   2.528   7.446  10.199 -1.1973  0.7901  0.5598
  579MOL0    Cl78075   2.488   7.620  10.238  0.4263 -0.3464 -0.2556
  579MOL0     C78076   2.564   7.093  10.827 -0.7478  0.5512  0.0834
  579MOL0     C78077   2.619   6.962  10.825 -0.1720 -0.6909 -0.4948
  579MOL0     O78078   2.490   6.694  10.867 -0.2746  0.2513 -1.0934
  579MOL0     C78079   2.548   6.446  10.850 -0.3752 -0.1652 -0.6268
  579MOL0     C78080   2.569   6.319  10.797  0.1441  0.2065 -1.3696
  579MOL0     N78081   2.538   5.812  10.299  0.5247  0.2219  0.5344
  579MOL0     N78082   2.520   5.850  10.176 -1.4568  1.1816  0.1102
  579MOL0     C78083   1.807   5.279   9.655  0.1772 -0.1683  0.0010
  579MOL0     C78084   1.696   5.212   9.706  0.2216 -0.2433 -0.3391
  579MOL0     C78085   1.399   4.929   9.897 -0.7966 -1.1919 -0.3148
  579MOL0     C78086   1.271   4.914   9.836  0.7364  0.6234 -0.1788
  579MOL0     C78087   1.173   4.824   9.897 -1.3699 -0.5857 -0.3575
  579MOL0     C78088   1.205   4.760  10.015  0.7305  0.6077 -0.3928
  579MOL0     O78089   1.108   4.677  10.089 -0.1184  0.2241 -0.1228
  579MOL0     C78090   1.005   4.605  10.012  0.0374 -0.3658 -0.3684
  579MOL0     C78091   0.985   4.462  10.060 -0.3443 -0.0700 -0.2413
  579MOL0     C78092   0.851   4.412   9.995 -1.4181 -0.3786  0.0255
  579MOL0     C78093   0.852   4.406   9.849  1.3421  0.1938  0.1247
  579MOL0     C78094   0.795   4.530   9.784  0.0180  1.3848  0.1611
  579MOL0     C78095   0.736   4.634   9.741 -0.4024  0.1054  0.3489
  579MOL0     C78096   1.318   4.788  10.086 -0.9599  0.1406  0.8063
  579MOL0     C78097   1.414   4.868  10.025  0.9889  0.0853 -0.1138
  579MOL0     H78098   1.819   5.104  10.007  1.0874  1.8540  1.4512
  579MOL0     H78099   2.018   5.244   9.923  0.6344 -0.3429 -0.2098
  579MOL0     H78100   2.182   5.494   9.691  1.5975  1.2604  2.0470
  579MOL0     H78101   2.094   5.457   9.826  1.6452  0.7326 -0.4823
  579MOL0     H78102   2.219   5.264   9.880  1.6987 -0.4041  0.3851
  579MOL0     H78103   2.239   5.227   9.711  2.0269 -0.3148  0.0924
  579MOL0     H78104   2.455   5.275   9.837  2.3100  1.3527  0.3555
  579MOL0     H78105   2.424   5.355   9.673 -1.4626  4.0824  0.2410
  579MOL0     H78106   2.381   5.548   9.782 -2.3630 -1.7133  0.6120
  579MOL0     H78107   2.389   5.483   9.947 -0.9203  0.5055 -0.2794
  579MOL0     H78108   2.637   5.427   9.910 -3.1104 -0.7212  2.3489
  579MOL0     H78109   2.634   5.521   9.761 -0.0445  1.0515  0.2616
  579MOL0     H78110   2.508   5.692   9.927  1.4118  1.6468 -2.7041
  579MOL0     H78111   2.606   5.596  10.049  0.0685 -0.8764  0.5172
  579MOL0     H78112   2.797   5.675   9.983 -0.4246  0.0372  0.4229
  579MOL0     H78113   2.745   5.736   9.825 -0.0061 -1.1002 -0.0429
  579MOL0     H78114   2.608   5.921   9.945 -0.3687  0.6039  1.9112
  579MOL0     H78115   2.780   5.920   9.993 -1.4083  4.5072 -3.8626
  579MOL0     H78116   2.848   5.751  10.219 -0.3995 -0.1468  0.5267
  579MOL0     H78117   2.670   5.638  10.485  0.7591 -1.1967 -0.9869
  579MOL0     H78118   2.807   5.730  10.510  0.0491 -1.2507 -0.8587
  579MOL0     H78119   2.641   5.778  10.685  2.2465  1.3167  0.3111
  579MOL0     H78120   2.528   5.850  10.571  0.7632  5.0195  0.1189
  579MOL0     H78121   2.686   6.001  10.460  1.3370  3.1144  0.3857
  579MOL0     H78122   2.808   5.958  10.570  0.1521  0.2961 -2.4390
  579MOL0     H78123   2.678   6.034  10.776  0.7538  2.2549  1.2188
  579MOL0     H78124   2.552   6.087  10.650 -1.0737 -6.0735  2.2169
  579MOL0     H78125   2.891   6.378  10.715  0.1623  1.1351  1.9220
  579MOL0     H78126   2.971   6.561  10.787  1.2886  1.3064  0.8070
  579MOL0     H78127   2.861   6.696  10.806 -0.3632  0.1876  0.8880
  579MOL0     H78128   2.910   6.597  10.947 -1.7730 -1.4062 -0.2764
  579MOL0     H78129   2.645   6.927  11.160 -2.2049  4.8703  2.7210
  579MOL0     H78130   2.564   7.148  11.166  0.7220  0.2969  0.4759
  579MOL0     H78131   2.341   7.229  10.841  0.3238 -0.0930  0.5417
  579MOL0     H78132   2.295   7.306  11.002 -2.2435 -0.1856 -0.2975
  579MOL0     H78133   2.236   7.477  10.845  0.5945  1.1626 -0.4978
  579MOL0     H78134   2.377   7.515  10.947  0.8009 -0.8029 -0.1602
  579MOL0     H78135   2.513   7.447  10.745 -1.1855  0.0048  2.5746
  579MOL0     H78136   2.403   7.581  10.715 -2.3702  0.0144  0.0317
  579MOL0     H78137   2.373   7.282  10.647  2.4456  0.2437  1.3620
  579MOL0     H78138   2.252   7.413  10.612  0.4688  0.1131 -1.0285
  579MOL0     H78139   2.537   7.431  10.504 -0.5770  1.4207  1.6555
  579MOL0     H78140   2.387   7.501  10.443 -5.8736 -2.8984  0.5909
  579MOL0     H78141   2.487   7.225  10.411 -3.4987 -1.3795  5.7707
  579MOL0     H78142   2.311   7.265  10.392 -0.3969  3.4810 -1.4455
  579MOL0     H78143   2.331   7.381  10.199 -1.1186 -1.7382  1.8017
  579MOL0     H78144   2.445   7.250  10.175  3.7503  1.1070  0.1723
  579MOL0     H78145   2.533   7.437  10.090 -1.1453  0.3216  0.6024
  579MOL0     H78146   2.623   7.421  10.247 -0.7506 -1.4443 -1.3145
  579MOL0     H78147   2.541   7.118  10.725  0.0275 -1.9724 -0.8042
  579MOL0     H78148   2.627   6.896  10.740  1.1090 -1.1675 -0.0263
  579MOL0     H78149   2.449   6.475  10.884  0.1286  1.5716 -0.5081
  579MOL0     H78150   2.497   6.237  10.801  1.8792 -1.4269  3.1663
  579MOL0     H78151   1.798   5.342   9.567  2.3042 -1.8498 -1.5442
  579MOL0     H78152   1.614   5.217   9.636 -1.0875  0.1501  1.1616
  579MOL0     H78153   1.253   4.965   9.743  3.8529  0.9473 -0.7281
  579MOL0     H78154   1.081   4.822   9.840 -1.9262  0.6909  0.4705
  579MOL0     H78155   0.907   4.654  10.008 -0.3261 -0.9858  0.4907
  579MOL0     H78156   1.043   4.591   9.911 -0.2094 -1.0229 -0.3731
  579MOL0     H78157   0.963   4.458  10.167 -1.0989  0.7202 -0.3475
  579MOL0     H78158   1.061   4.393  10.023  0.4264  0.6120  0.0271
  579MOL0     H78159   0.765   4.469  10.031 -2.8586 -1.1640 -2.0405
  579MOL0     H78160   0.841   4.310  10.036  1.4380  0.4153  3.2065
  579MOL0     H78161   0.785   4.323   9.828 -0.6946  1.0232  2.8078
  579MOL0     H78162   0.949   4.390   9.800  0.6388 -1.5616 -0.7742
  579MOL0     H78163   0.670   4.711   9.706 -1.3825 -1.5482 -1.6520
  579MOL0     H78164   1.330   4.741  10.183  0.2497 -0.2266  0.4895
  579MOL0     H78165   1.507   4.882  10.079  1.3206 -0.8590 -0.4125
  580MOL0     O78166   4.065   2.074   6.538 -0.5064  0.4583  0.0847
  580MOL0     C78167   4.066   1.963   6.492 -0.2514 -0.2913 -0.9120
  580MOL0     O78168   4.022   1.930   6.365 -0.1049  0.1140  0.2092
  580MOL0     C78169   3.991   2.036   6.284  0.5973  0.9590 -1.1268
  580MOL0     C78170   4.072   2.148   6.258  0.3428  0.4542 -0.1501
  580MOL0     C78171   4.046   2.243   6.167  0.2270  1.1735 -0.4153
  580MOL0     C78172   3.939   2.227   6.080 -0.5629  0.1013  0.1320
  580MOL0     O78173   3.899   2.310   5.984  0.4131 -0.6999 -0.2644
  580MOL0     C78174   3.988   2.415   5.942 -0.5591  0.7407 -0.4085
  580MOL0     C78175   3.926   2.509   5.846 -0.2394  0.0433  0.5242
  580MOL0     C78176   3.886   2.434   5.714  0.4181 -0.3284  0.3221
  580MOL0     C78177   3.805   2.538   5.620 -0.1632 -0.2157 -0.5958
  580MOL0     C78178   3.749   2.487   5.493  0.8720 -0.1019  1.0639
  580MOL0     C78179   3.674   2.606   5.429  0.4069 -0.5962  0.0346
  580MOL0     C78180   3.648   2.577   5.275 -0.3163 -0.2540  0.1533
  580MOL0     C78181   3.607   2.702   5.210 -0.7983  0.0162  0.2819
  580MOL0     N78182   3.477   2.765   5.242  0.3214  0.1230 -0.5727
  580MOL0     C78183   3.440   2.824   5.362 -0.6346 -1.4015 -0.1730
  580MOL0     C78184   3.314   2.862   5.351  0.5630  0.1063  0.0940
  580MOL0     C78185   3.228   2.916   5.462 -0.6530  0.7048  0.5284
  580MOL0     C78186   3.155   2.814   5.544 -0.4298  0.1876  0.5442
  580MOL0     C78187   3.009   2.790   5.496  0.2964  0.2395  0.2152
  580MOL0     C78188   2.914   2.723   5.587 -0.5011  0.5693 -0.1426
  580MOL0     O78189   2.926   2.591   5.617 -0.3658  0.3967 -0.1309
  580MOL0     C78190   2.841   2.504   5.554  0.4122  1.3756 -0.4495
  580MOL0     C78191   2.749   2.426   5.628 -0.3457  0.7429  0.6319
  580MOL0     C78192   2.668   2.332   5.568 -0.9580  1.4517 -0.0963
  580MOL0     C78193   2.590   2.248   5.666  0.1422  0.3290 -0.1871
  580MOL0     C78194   2.661   2.316   5.425  0.2228  0.1965 -0.1851
  580MOL0     C78195   2.553   2.239   5.346 -0.6763  0.1508 -0.8660
  580MOL0     O78196   2.579   2.241   5.208  0.0065  0.1669  0.2563
  580MOL0     C78197   2.493   2.179   5.125  0.4832 -0.1875  0.5646
  580MOL0     C78198   2.353   2.210   5.114  0.0717  0.5192 -0.2590
  580MOL0     C78199   2.267   2.134   5.035 -0.1456 -0.8539  0.0587
  580MOL0     C78200   2.318   2.030   4.951  0.1455  0.1949 -0.4689
  580MOL0     O78201   2.244   1.942   4.879  0.1169 -0.3213 -0.6881
  580MOL0     C78202   2.104   1.977   4.867 -0.6803  0.3335 -0.1422
  580MOL0     C78203   2.038   1.862   4.787 -0.2603  0.5365 -0.1733
  580MOL0     C78204   1.883   1.844   4.782 -0.2465  0.4454 -0.8094
  580MOL0     C78205   1.833   1.817   4.643  0.1154 -0.0509  0.5872
  580MOL0     C78206   1.679   1.781   4.616 -0.1533  0.2487 -0.4778
  580MOL0     C78207   1.581   1.883   4.672 -0.2288 -0.9938 -0.4928
  580MOL0     C78208   1.618   2.023   4.618 -0.5006 -0.7783  0.5074
  580MOL0     C78209   1.520   2.121   4.674 -0.4820  0.1207  0.7936
  580MOL0    Cl78210   1.350   2.076   4.644 -0.1942  0.0011 -0.0313
  580MOL0     C78211   2.451   1.993   4.962  0.5280 -0.0175 -0.5519
  580MOL0     C78212   2.538   2.066   5.045  0.2415 -0.0451 -0.3731
  580MOL0     O78213   2.445   2.214   5.395  0.0145  0.6314  0.0981
  580MOL0     C78214   2.758   2.395   5.352  0.1118 -0.1698  0.1030
  580MOL0     C78215   2.850   2.487   5.413  0.4970  0.5549  1.9996
  580MOL0     N78216   3.276   2.843   5.226  0.3675 -0.0122 -0.0278
  580MOL0     N78217   3.369   2.771   5.169 -0.3913  0.5546  0.4575
  580MOL0     C78218   3.868   2.104   6.081  0.4408 -0.1165 -0.0265
  580MOL0     C78219   3.888   2.017   6.191 -0.2872  0.2084  1.9350
  580MOL0     C78220   4.131   1.858   6.571  0.6327 -0.3300 -0.8053
  580MOL0     C78221   4.160   1.881   6.710  1.2110 -0.8122  0.6815
  580MOL0     C78222   4.221   1.777   6.779 -0.1093 -0.3158  0.0236
  580MOL0     C78223   4.269   1.662   6.709  0.9210  0.4510 -0.6307
  580MOL0     O78224   4.356   1.584   6.777 -0.4081  0.4189  0.8225
  580MOL0     C78225   4.353   1.448   6.747 -0.2305 -0.3847 -0.3409
  580MOL0     C78226   4.465   1.388   6.828 -0.6568  0.3525 -0.2223
  580MOL0     C78227   4.432   1.373   6.979  0.1465 -0.0219  0.0106
  580MOL0     C78228   4.322   1.258   7.013 -0.7812 -0.7909 -0.3584
  580MOL0     C78229   4.362   1.129   6.953  1.2983  0.2867  0.0577
  580MOL0     C78230   4.398   1.024   6.900 -1.2199 -0.1146 -0.5819
  580MOL0     C78231   4.242   1.644   6.573  0.2545 -0.7389 -0.2058
  580MOL0     C78232   4.169   1.737   6.506  0.1460 -0.6132  0.3473
  580MOL0     H78233   4.163   2.163   6.316  2.7328  1.0491 -3.7537
  580MOL0     H78234   4.119   2.323   6.160  3.7032 -1.2826  3.2850
  580MOL0     H78235   4.028   2.470   6.028  1.9253  0.0465 -1.0276
  580MOL0     H78236   4.068   2.373   5.880 -0.9227  1.9543 -1.7331
  580MOL0     H78237   3.831   2.544   5.889 -0.3604 -0.0972  0.3760
  580MOL0     H78238   3.990   2.594   5.821  4.0114 -2.5089  1.7393
  580MOL0     H78239   3.974   2.386   5.672  0.4990 -0.4863  0.6623
  580MOL0     H78240   3.814   2.352   5.726  3.0880 -3.1371 -1.5053
  580MOL0     H78241   3.732   2.587   5.685  3.0894  3.2973  0.7888
  580MOL0     H78242   3.876   2.617   5.590  0.6175  0.1080  1.9094
  580MOL0     H78243   3.829   2.453   5.427 -0.8146 -3.5070  0.5191
  580MOL0     H78244   3.677   2.410   5.522  1.0649  0.4352  3.1313
  580MOL0     H78245   3.586   2.628   5.490  0.6147 -0.9054  0.4492
  580MOL0     H78246   3.747   2.687   5.432  1.9628 -1.8609 -1.4858
  580MOL0     H78247   3.730   2.522   5.228 -1.0991  0.8262 -2.6787
  580MOL0     H78248   3.560   2.513   5.262 -0.7225  0.1033  1.0961
  580MOL0     H78249   3.601   2.679   5.103 -2.9164 -2.0824  0.7768
  580MOL0     H78250   3.691   2.772   5.218 -0.3430 -0.6875  2.4690
  580MOL0     H78251   3.496   2.822   5.455  1.0827 -1.0647 -1.1531
  580MOL0     H78252   3.296   2.977   5.523  0.7911 -0.1048 -0.2130
  580MOL0     H78253   3.164   2.989   5.412  2.5631  2.5806 -1.2015
  580MOL0     H78254   3.156   2.841   5.650  3.8409  2.0983  0.2198
  580MOL0     H78255   3.207   2.719   5.533 -2.2608 -0.7009 -1.1009
  580MOL0     H78256   3.015   2.741   5.398  3.6332  0.0533  0.3993
  580MOL0     H78257   2.960   2.887   5.484  1.3694  0.7135 -0.4800
  580MOL0     H78258   2.816   2.740   5.541 -0.8031 -1.6991 -0.4635
  580MOL0     H78259   2.917   2.788   5.674  0.5505  1.6470 -0.9535
  580MOL0     H78260   2.732   2.437   5.734 -1.5451  0.0205  0.5267
  580MOL0     H78261   2.483   2.251   5.649 -0.4009  1.1606  2.7284
  580MOL0     H78262   2.625   2.144   5.658 -1.3525 -0.4026  1.8283
  580MOL0     H78263   2.609   2.263   5.773  0.4379  1.3198 -0.3717
  580MOL0     H78264   2.310   2.293   5.169 -2.6212  0.3958 -1.9826
  580MOL0     H78265   2.165   2.171   5.031 -0.0255 -0.5505 -0.1679
  580MOL0     H78266   2.058   1.983   4.966  1.2542  2.7487  0.7083
  580MOL0     H78267   2.097   2.074   4.818  0.4462  1.4607  1.8171
  580MOL0     H78268   2.082   1.855   4.687 -0.2648 -1.7943 -0.0786
  580MOL0     H78269   2.076   1.770   4.832  2.4713  1.2087 -0.9409
  580MOL0     H78270   1.835   1.928   4.834  2.1580  0.1150  2.2246
  580MOL0     H78271   1.870   1.752   4.839 -0.2435  0.8868 -0.0937
  580MOL0     H78272   1.853   1.904   4.581  0.7354  1.6812  3.0775
  580MOL0     H78273   1.901   1.743   4.600  0.8005  0.6706  0.4104
  580MOL0     H78274   1.657   1.696   4.681 -3.2926  0.3830 -1.1916
  580MOL0     H78275   1.659   1.761   4.510 -1.2741 -0.5305 -0.1331
  580MOL0     H78276   1.480   1.859   4.638 -0.2765 -2.9331  0.8685
  580MOL0     H78277   1.583   1.885   4.781  3.5411  0.9834 -0.4258
  580MOL0     H78278   1.612   2.039   4.510  0.0849  1.6352  0.7593
  580MOL0     H78279   1.720   2.059   4.633 -0.7259 -0.6034  1.6872
  580MOL0     H78280   1.532   2.224   4.641 -1.4148 -0.2317 -0.7629
  580MOL0     H78281   1.541   2.134   4.781 -2.5310  1.1248  1.1194
  580MOL0     H78282   2.479   1.906   4.904 -1.6393 -1.4786  0.4618
  580MOL0     H78283   2.642   2.035   5.053  0.1951  0.0152  0.5140
  580MOL0     H78284   2.755   2.397   5.243 -1.1039  3.2625  0.0920
  580MOL0     H78285   2.910   2.546   5.345 -2.8907 -0.5776 -2.4871
  580MOL0     H78286   3.797   2.084   6.002  0.5282 -0.6291  0.0204
  580MOL0     H78287   3.825   1.930   6.200 -1.1834  0.8131  1.6726
  580MOL0     H78288   4.126   1.972   6.757 -1.1953  0.1474 -2.5348
  580MOL0     H78289   4.218   1.790   6.886  1.2572  0.4471 -0.0057
  580MOL0     H78290   4.258   1.409   6.785 -1.9063  4.0768  0.7420
  580MOL0     H78291   4.359   1.433   6.639 -1.5546  0.0708 -0.4946
  580MOL0     H78292   4.562   1.438   6.823  0.7595 -2.2667 -0.8287
  580MOL0     H78293   4.484   1.289   6.785  0.2070  0.6470 -0.5485
  580MOL0     H78294   4.409   1.469   7.027 -1.4011  0.6057 -1.8654
  580MOL0     H78295   4.518   1.333   7.033 -1.8107 -1.0186  2.5940
  580MOL0     H78296   4.224   1.289   6.976  0.6183  3.9833 -0.7800
  580MOL0     H78297   4.318   1.249   7.122 -0.0773  0.5318 -0.1990
  580MOL0     H78298   4.431   0.927   6.866  3.3396  1.2994 -0.9506
  580MOL0     H78299   4.269   1.561   6.508  4.2287  0.0705  0.1543
  580MOL0     H78300   4.153   1.715   6.400  1.4452 -1.9127  0.3859
  581MOL0     O78301   6.238   4.830   5.509 -0.3794  0.4520  0.7316
  581MOL0     C78302   6.153   4.888   5.444 -0.1937  0.6696  0.9691
  581MOL0     O78303   6.161   4.928   5.315 -0.4715 -1.0192  0.4007
  581MOL0     C78304   6.280   4.920   5.240  0.2946  0.1211 -0.3364
  581MOL0     C78305   6.372   4.817   5.244  0.2744 -0.1168 -0.2040
  581MOL0     C78306   6.488   4.833   5.178 -0.3680 -0.7499 -1.1588
  581MOL0     C78307   6.515   4.935   5.094 -1.4684 -0.1073  0.0381
  581MOL0     O78308   6.624   4.956   5.001  0.3003 -0.5060  0.2405
  581MOL0     C78309   6.745   4.878   5.001 -0.2626 -0.1237 -0.9595
  581MOL0     C78310   6.867   4.943   4.921 -0.7410  1.3231  0.1308
  581MOL0     C78311   6.832   4.976   4.774 -0.6268 -1.2527 -1.2142
  581MOL0     C78312   6.741   5.089   4.749 -0.0200  0.5111  1.0280
  581MOL0     C78313   6.751   5.150   4.611 -0.5240 -0.0927  0.5611
  581MOL0     C78314   6.714   5.048   4.507 -0.1118  0.2051 -0.6487
  581MOL0     C78315   6.700   5.112   4.366  0.3370 -0.3716 -0.2230
  581MOL0     C78316   6.617   5.027   4.259 -0.6602 -1.1724  0.4632
  581MOL0     N78317   6.596   5.095   4.129  0.6308 -0.1915 -0.0289
  581MOL0     C78318   6.531   5.212   4.112  0.5738  0.1031 -0.3064
  581MOL0     C78319   6.555   5.253   3.987 -0.0278 -0.2323 -0.3650
  581MOL0     C78320   6.501   5.386   3.933 -0.8670 -0.0532  0.3831
  581MOL0     C78321   6.396   5.348   3.819  0.5591  0.1560  0.4049
  581MOL0     C78322   6.339   5.481   3.768 -0.6570  0.2820  0.1368
  581MOL0     C78323   6.247   5.463   3.654 -0.6619 -0.8378 -0.0356
  581MOL0     O78324   6.302   5.400   3.539 -0.0292  0.7443 -0.7532
  581MOL0     C78325   6.259   5.454   3.421  0.5449 -1.2554 -0.0250
  581MOL0     C78326   6.344   5.449   3.306 -0.3696 -0.2646 -0.5130
  581MOL0     C78327   6.320   5.533   3.198 -0.2836 -0.4228  0.7080
  581MOL0     C78328   6.413   5.515   3.086  0.0934 -0.8872 -0.3649
  581MOL0     C78329   6.196   5.600   3.184  0.0993 -0.2584  0.2740
  581MOL0     C78330   6.150   5.665   3.058  0.3988 -0.3611 -0.7127
  581MOL0     O78331   6.014   5.687   3.053 -0.4819  0.0690  0.7125
  581MOL0     C78332   5.945   5.745   2.954  0.6946 -0.5695  0.4739
  581MOL0     C78333   5.992   5.836   2.852 -0.4092  0.1887 -0.6082
  581MOL0     C78334   5.913   5.893   2.748 -0.0101  0.6894  0.7266
  581MOL0     C78335   5.776   5.851   2.748 -0.0165  1.2348 -1.2413
  581MOL0     O78336   5.691   5.891   2.654  0.4013 -0.7469  0.0574
  581MOL0     C78337   5.710   5.834   2.511 -0.5293  0.3272 -2.0861
  581MOL0     C78338   5.601   5.886   2.418  0.1396 -0.6420  0.2385
  581MOL0     C78339   5.459   5.833   2.452  0.8161 -1.0079 -0.0778
  581MOL0     C78340   5.358   5.955   2.419  0.0838  0.4499 -0.1656
  581MOL0     C78341   5.206   5.925   2.439  0.0440 -0.1012 -0.7149
  581MOL0     C78342   5.123   6.020   2.354  0.6272 -0.0999  0.5518
  581MOL0     C78343   5.135   6.166   2.390 -0.1457 -0.1787 -1.0527
  581MOL0     C78344   5.042   6.264   2.319 -0.4036 -0.5279 -0.1061
  581MOL0    Cl78345   5.086   6.270   2.140  0.1604  0.5177  0.3276
  581MOL0     C78346   5.728   5.768   2.854 -0.4122 -0.4314 -0.1093
  581MOL0     C78347   5.813   5.717   2.949  0.0224  0.1795 -0.6235
  581MOL0     O78348   6.228   5.676   2.966 -0.0087 -0.5958 -0.3519
  581MOL0     C78349   6.108   5.596   3.288 -0.1125 -0.1830  0.6851
  581MOL0     C78350   6.132   5.527   3.399 -0.8133  0.5989 -0.5373
  581MOL0     N78351   6.625   5.156   3.929 -0.3927  0.1089  0.4291
  581MOL0     N78352   6.654   5.068   4.007 -0.1313 -0.4456 -0.3264
  581MOL0     C78353   6.426   5.042   5.092 -0.2882 -0.4570  0.6587
  581MOL0     C78354   6.311   5.037   5.170  0.0707  0.1557  0.3110
  581MOL0     C78355   6.030   4.929   5.521  0.8026 -0.6098  0.7700
  581MOL0     C78356   5.906   4.934   5.453 -0.6026  0.3837 -0.7123
  581MOL0     C78357   5.791   4.970   5.522  0.2328  0.1223  0.2644
  581MOL0     C78358   5.789   5.006   5.658  1.4248  0.6147  0.0334
  581MOL0     O78359   5.664   5.029   5.711 -0.7857 -0.5621 -1.3262
  581MOL0     C78360   5.639   4.978   5.847  0.1174  0.8079 -0.3827
  581MOL0     C78361   5.640   5.096   5.950  0.8462  0.5568 -0.7391
  581MOL0     C78362   5.593   5.238   5.889  0.3501  0.2076 -1.0341
  581MOL0     C78363   5.711   5.319   5.844  0.7251  0.7186 -0.3832
  581MOL0     C78364   5.793   5.369   5.952  0.1874  0.1545  0.1285
  581MOL0     C78365   5.872   5.411   6.035 -0.4485 -0.0281 -0.2219
  581MOL0     C78366   5.918   5.010   5.726  0.1851  0.8650  0.0728
  581MOL0     C78367   6.035   4.974   5.656  0.3358  0.8858 -0.0464
  581MOL0     H78368   6.336   4.727   5.292 -0.5525 -0.5410 -1.5471
  581MOL0     H78369   6.568   4.764   5.201 -0.6328 -0.3298  1.2450
  581MOL0     H78370   6.772   4.864   5.106 -1.6182  1.1123 -0.4134
  581MOL0     H78371   6.724   4.784   4.949 -1.9576  1.0128 -2.4569
  581MOL0     H78372   6.888   5.033   4.979 -2.2317  1.6112  0.2601
  581MOL0     H78373   6.955   4.878   4.920 -1.6068  0.1221 -0.4948
  581MOL0     H78374   6.923   4.992   4.716  2.1275  0.0766  3.0319
  581MOL0     H78375   6.793   4.886   4.726  1.2093 -2.2726 -0.8820
  581MOL0     H78376   6.640   5.049   4.754 -1.1670  3.2374  1.0300
  581MOL0     H78377   6.742   5.162   4.830 -1.2926  1.0102  0.6171
  581MOL0     H78378   6.684   5.236   4.617 -2.3129 -1.4396  0.4659
  581MOL0     H78379   6.850   5.196   4.600 -0.5543  0.6782  3.1003
  581MOL0     H78380   6.793   4.974   4.491 -0.1716  0.3960 -1.8839
  581MOL0     H78381   6.617   5.005   4.533 -1.0127  0.6502 -3.0562
  581MOL0     H78382   6.653   5.209   4.380  0.8005 -0.0031 -1.0799
  581MOL0     H78383   6.800   5.135   4.327  0.7735 -0.4743  0.8050
  581MOL0     H78384   6.520   4.997   4.298 -1.1550 -1.5072 -0.9585
  581MOL0     H78385   6.671   4.932   4.250 -0.4970 -0.9112 -2.6976
  581MOL0     H78386   6.470   5.257   4.189  0.1191 -1.7281  0.4611
  581MOL0     H78387   6.445   5.441   4.009  0.8653  2.8574 -0.3158
  581MOL0     H78388   6.581   5.452   3.898  1.5870 -3.6539 -1.4789
  581MOL0     H78389   6.315   5.288   3.862 -1.2129  2.7064  0.9032
  581MOL0     H78390   6.443   5.282   3.746 -0.0043  1.5347 -1.2656
  581MOL0     H78391   6.427   5.528   3.723 -0.7744 -0.4763 -0.9114
  581MOL0     H78392   6.312   5.552   3.846 -0.9837  1.0376 -0.6443
  581MOL0     H78393   6.201   5.558   3.624  0.8427 -1.3255 -4.7684
  581MOL0     H78394   6.164   5.403   3.691 -0.9093 -0.9265 -0.7148
  581MOL0     H78395   6.439   5.397   3.305  0.3558  1.0181 -0.1800
  581MOL0     H78396   6.507   5.469   3.116 -1.0796 -3.0593  0.1571
  581MOL0     H78397   6.351   5.454   3.019  0.0800 -0.7823 -0.4495
  581MOL0     H78398   6.440   5.603   3.026 -0.0086 -1.9926 -2.0907
  581MOL0     H78399   6.096   5.867   2.856 -0.0744 -0.9283  2.7369
  581MOL0     H78400   5.947   5.969   2.679 -0.3275  1.0833  0.9987
  581MOL0     H78401   5.812   5.858   2.478  2.1678 -4.0732  1.8324
  581MOL0     H78402   5.711   5.725   2.504 -0.4962  0.3125 -1.8751
  581MOL0     H78403   5.606   5.995   2.429  1.6610 -0.3290 -2.7046
  581MOL0     H78404   5.626   5.865   2.314  0.0403  0.9645 -0.1261
  581MOL0     H78405   5.456   5.814   2.559 -1.6727  2.6554  0.7001
  581MOL0     H78406   5.425   5.741   2.403  0.3758 -0.3368 -1.0777
  581MOL0     H78407   5.389   6.041   2.479  0.9963 -0.2118  0.3349
  581MOL0     H78408   5.375   5.986   2.315 -2.2346  0.5185 -0.5673
  581MOL0     H78409   5.183   5.930   2.545  1.2565 -3.7696 -0.1427
  581MOL0     H78410   5.184   5.821   2.412 -3.7660  0.2038  0.6494
  581MOL0     H78411   5.159   5.998   2.253 -0.0577 -1.3434  0.5631
  581MOL0     H78412   5.015   6.001   2.353  0.3996  1.0801  0.8964
  581MOL0     H78413   5.237   6.204   2.383  1.9146 -4.9840 -1.3718
  581MOL0     H78414   5.109   6.168   2.496  2.2413 -1.0794 -0.3815
  581MOL0     H78415   5.064   6.361   2.365  1.8724 -0.9681 -0.1540
  581MOL0     H78416   4.938   6.232   2.327 -0.6197  0.2123  0.1646
  581MOL0     H78417   5.623   5.739   2.860 -0.5534 -0.8029 -2.8380
  581MOL0     H78418   5.779   5.647   3.025 -0.1020  0.1482 -0.7068
  581MOL0     H78419   6.001   5.612   3.273 -0.8878 -4.1398  0.9075
  581MOL0     H78420   6.053   5.523   3.474  0.4155  3.0100  1.0102
  581MOL0     H78421   6.456   5.123   5.026  0.1041 -1.2988 -0.2216
  581MOL0     H78422   6.249   5.126   5.159  2.5005  1.8831 -0.3109
  581MOL0     H78423   5.917   4.907   5.349  2.4343 -5.9978  0.7679
  581MOL0     H78424   5.694   4.968   5.474 -0.7079 -0.0100  2.1033
  581MOL0     H78425   5.547   4.919   5.849  0.7230 -0.1325  0.1002
  581MOL0     H78426   5.709   4.901   5.879 -2.2283 -0.3875  2.4184
  581MOL0     H78427   5.739   5.109   5.995  0.3318  5.6452 -0.5496
  581MOL0     H78428   5.584   5.072   6.041  0.4179  2.1059 -0.5627
  581MOL0     H78429   5.542   5.288   5.971 -1.6089 -1.7716 -0.9305
  581MOL0     H78430   5.525   5.225   5.804 -1.0500  2.6967 -0.3726
  581MOL0     H78431   5.669   5.408   5.796  0.4306 -1.0515 -3.7272
  581MOL0     H78432   5.769   5.264   5.769  1.7006 -1.8876  2.1003
  581MOL0     H78433   5.942   5.475   6.086  1.0170  0.4480 -2.6511
  581MOL0     H78434   5.934   5.039   5.829 -4.7329  2.2639  0.6698
  581MOL0     H78435   6.124   4.969   5.717  0.7974 -3.9351 -0.7260
  582MOL0     O78436   1.010   3.172   1.625 -0.7250 -0.0984  0.1966
  582MOL0     C78437   0.941   3.254   1.572  0.4002 -0.6070  0.3639
  582MOL0     O78438   0.828   3.229   1.500 -1.4322 -0.6776  0.5657
  582MOL0     C78439   0.776   3.096   1.498  0.3197  0.2236  0.7161
  582MOL0     C78440   0.851   2.974   1.500  1.1524  0.5434 -0.0232
  582MOL0     C78441   0.790   2.849   1.490  0.3771  0.2882 -0.1659
  582MOL0     C78442   0.653   2.834   1.477  0.0493  0.4841  0.3934
  582MOL0     O78443   0.610   2.700   1.459 -0.4853 -0.0420  0.4128
  582MOL0     C78444   0.474   2.676   1.438  0.1315  0.4258  0.4045
  582MOL0     C78445   0.462   2.530   1.384 -0.0191 -0.0909 -0.0481
  582MOL0     C78446   0.325   2.518   1.317 -0.8435 -0.1020  0.6738
  582MOL0     C78447   0.304   2.369   1.277 -0.9702  0.0260 -0.9280
  582MOL0     C78448   0.162   2.347   1.232 -0.3656 -0.3024  0.0789
  582MOL0     C78449   0.100   2.224   1.300 -0.1891 -0.2695  0.3415
  582MOL0     C78450  -0.046   2.210   1.254 -0.2739  0.3017 -0.7023
  582MOL0     C78451  -0.094   2.084   1.325  0.0948  1.2704 -0.1843
  582MOL0     N78452  -0.244   2.094   1.316  0.0659  0.0240 -0.2997
  582MOL0     C78453  -0.319   2.146   1.424  0.2492  0.0753  0.5649
  582MOL0     C78454  -0.444   2.115   1.385  1.1829  0.5964  0.8455
  582MOL0     C78455  -0.559   2.169   1.479  0.0265 -0.2405  0.6288
  582MOL0     C78456  -0.678   2.062   1.471  0.7732 -0.0337  1.0464
  582MOL0     C78457  -0.794   2.096   1.552 -0.4148 -0.2394 -0.5869
  582MOL0     C78458  -0.896   1.979   1.540 -0.8312  0.7695  0.8845
  582MOL0     O78459  -0.962   1.957   1.404  0.4191  0.1581  0.0372
  582MOL0     C78460  -1.066   2.036   1.368  0.5449 -0.4989 -0.3602
  582MOL0     C78461  -1.192   1.995   1.395 -1.0850 -1.3913 -0.7703
  582MOL0     C78462  -1.301   2.073   1.350  0.2542 -0.6663  1.0862
  582MOL0     C78463  -1.441   2.020   1.371 -0.6071  0.0448  0.1477
  582MOL0     C78464  -1.278   2.198   1.280 -1.1256 -0.3173  1.0000
  582MOL0     C78465  -1.390   2.299   1.236  0.7290  0.2921 -2.4484
  582MOL0     O78466  -1.340   2.422   1.191  0.1330 -0.4659 -0.0504
  582MOL0     C78467  -1.425   2.530   1.177 -0.3116  0.2572  0.0064
  582MOL0     C78468  -1.416   2.606   1.061 -0.0119 -0.0500  0.2466
  582MOL0     C78469  -1.514   2.709   1.041 -0.2246  0.4694 -0.2773
  582MOL0     C78470  -1.588   2.744   1.149  0.8050 -1.0951 -0.4923
  582MOL0     O78471  -1.679   2.844   1.141 -0.9765 -0.6232  0.0421
  582MOL0     C78472  -1.715   2.892   1.008  0.2090 -0.1855 -0.9139
  582MOL0     C78473  -1.824   3.004   1.030  0.3120 -0.1304 -0.0203
  582MOL0     C78474  -1.881   3.044   0.888 -0.3699 -0.0514 -0.6834
  582MOL0     C78475  -1.776   3.118   0.799 -0.4095  0.2604 -0.3885
  582MOL0     C78476  -1.853   3.183   0.683 -0.3624 -0.1684 -0.4489
  582MOL0     C78477  -1.906   3.324   0.713 -0.2568 -0.0556 -0.0697
  582MOL0     C78478  -1.801   3.427   0.778  1.0585 -0.2942  0.3199
  582MOL0     C78479  -1.846   3.567   0.773  0.6926  0.4509  0.6575
  582MOL0    Cl78480  -1.848   3.618   0.597 -0.5584  0.3439 -0.5140
  582MOL0     C78481  -1.583   2.679   1.269 -1.0661  1.4145  0.7004
  582MOL0     C78482  -1.497   2.566   1.288  0.5549  0.3030  0.6199
  582MOL0     O78483  -1.513   2.270   1.241 -0.0689  0.0067  0.5466
  582MOL0     C78484  -1.145   2.239   1.272  0.1218 -0.3181  0.6885
  582MOL0     C78485  -1.043   2.160   1.315 -0.5464 -0.5496  0.8526
  582MOL0     N78486  -0.448   2.043   1.268 -0.0047 -0.8265 -0.1348
  582MOL0     N78487  -0.330   2.037   1.223 -0.5756 -0.0333 -0.7661
  582MOL0     C78488   0.572   2.952   1.485 -0.3069  0.3252 -0.7240
  582MOL0     C78489   0.637   3.075   1.490  1.2674 -0.4643  0.4944
  582MOL0     C78490   0.988   3.385   1.596 -0.3241 -0.8194 -0.5322
  582MOL0     C78491   1.122   3.435   1.586  0.0291 -1.0966  0.7220
  582MOL0     C78492   1.149   3.571   1.591  0.4607 -0.3829 -0.7805
  582MOL0     C78493   1.045   3.667   1.603  0.6836 -0.1588  0.4618
  582MOL0     O78494   1.064   3.806   1.589 -0.2106 -0.5404 -0.2162
  582MOL0     C78495   1.187   3.865   1.546  1.0118 -0.4963 -0.6665
  582MOL0     C78496   1.172   4.013   1.597  0.1544 -0.4955  0.1363
  582MOL0     C78497   1.206   4.016   1.751 -0.0786  0.2589 -0.3310
  582MOL0     C78498   1.348   4.043   1.789 -0.4025  0.0739 -0.6039
  582MOL0     C78499   1.371   4.190   1.799  0.5893  0.0133  0.1668
  582MOL0     C78500   1.392   4.313   1.811  0.9560 -0.3778  0.5714
  582MOL0     C78501   0.917   3.612   1.617  0.0869  0.0032 -0.5211
  582MOL0     C78502   0.889   3.480   1.608  0.3422 -0.0554  0.2117
  582MOL0     H78503   0.959   2.970   1.502  1.1144 -1.2008  0.0675
  582MOL0     H78504   0.850   2.759   1.498 -0.9834 -0.7538 -1.2030
  582MOL0     H78505   0.432   2.664   1.538  1.9286 -3.8862  0.9042
  582MOL0     H78506   0.423   2.751   1.378  0.9030  0.7590  0.1585
  582MOL0     H78507   0.547   2.501   1.321 -0.8657 -3.5452  0.1980
  582MOL0     H78508   0.466   2.472   1.476 -0.2372  0.3764  0.2584
  582MOL0     H78509   0.240   2.535   1.384 -0.8957  1.6360  0.2189
  582MOL0     H78510   0.313   2.582   1.229  2.7901  2.8506  2.0567
  582MOL0     H78511   0.369   2.337   1.195 -1.2800  1.3309 -1.7076
  582MOL0     H78512   0.328   2.309   1.366  2.0326  0.5119 -1.3192
  582MOL0     H78513   0.114   2.440   1.262  1.7598  0.1852  2.4075
  582MOL0     H78514   0.163   2.344   1.123 -0.4280  0.1707  0.0635
  582MOL0     H78515   0.158   2.131   1.296 -2.1418 -1.6600  1.9355
  582MOL0     H78516   0.113   2.243   1.407  3.8133 -1.5041  0.2553
  582MOL0     H78517  -0.108   2.300   1.261  0.5589  0.9968 -1.7199
  582MOL0     H78518  -0.052   2.195   1.146  0.3859 -0.8536 -0.5865
  582MOL0     H78519  -0.057   2.075   1.427  0.0895 -2.5074 -0.3494
  582MOL0     H78520  -0.063   1.993   1.273 -0.6671 -0.0037  1.4904
  582MOL0     H78521  -0.280   2.167   1.523  0.0371 -3.3978  1.5272
  582MOL0     H78522  -0.536   2.182   1.585  1.1665 -4.3884  1.0764
  582MOL0     H78523  -0.597   2.267   1.448 -2.1016 -0.3190  2.6606
  582MOL0     H78524  -0.641   1.962   1.496  1.8975  0.0904 -0.0449
  582MOL0     H78525  -0.708   2.054   1.367  0.7657 -0.0209  1.0475
  582MOL0     H78526  -0.838   2.185   1.507  0.4464  0.1592 -0.6700
  582MOL0     H78527  -0.773   2.115   1.658  0.4844  2.0919 -1.1171
  582MOL0     H78528  -0.978   1.968   1.611  0.8559 -2.9106  2.5423
  582MOL0     H78529  -0.850   1.882   1.563 -0.5528  0.3081 -1.3871
  582MOL0     H78530  -1.212   1.904   1.450 -1.4874  0.5875  2.6787
  582MOL0     H78531  -1.429   1.924   1.421  0.3801  0.3369  0.4882
  582MOL0     H78532  -1.496   2.090   1.434  1.4181 -1.9672  4.5794
  582MOL0     H78533  -1.485   2.011   1.271 -0.7098  0.0317  0.1948
  582MOL0     H78534  -1.344   2.576   0.985 -0.9018  2.2926 -1.6570
  582MOL0     H78535  -1.510   2.757   0.944  2.9005  1.9135  0.4515
  582MOL0     H78536  -1.625   2.936   0.964 -0.1223  0.2651 -1.1461
  582MOL0     H78537  -1.760   2.820   0.939 -2.4967 -0.4590  0.9674
  582MOL0     H78538  -1.916   2.982   1.085  0.3337  2.9547  1.4738
  582MOL0     H78539  -1.785   3.093   1.081 -0.7888 -1.2927  3.0406
  582MOL0     H78540  -1.968   3.110   0.898 -0.6056 -0.6552  1.9844
  582MOL0     H78541  -1.911   2.946   0.850 -0.5948 -1.9001  3.6836
  582MOL0     H78542  -1.705   3.180   0.854  1.0846 -0.7653 -1.0959
  582MOL0     H78543  -1.711   3.040   0.758  1.6272  1.2269  0.8909
  582MOL0     H78544  -1.938   3.117   0.663 -0.7384  0.2748 -0.3370
  582MOL0     H78545  -1.791   3.185   0.594 -0.6174  0.3305 -0.6195
  582MOL0     H78546  -1.955   3.352   0.619  1.6429 -2.4008 -1.9169
  582MOL0     H78547  -1.995   3.318   0.777  0.7775  0.5900  1.4901
  582MOL0     H78548  -1.708   3.395   0.730  0.3545 -1.7322 -0.1390
  582MOL0     H78549  -1.792   3.415   0.887  0.4390 -0.1746  0.3885
  582MOL0     H78550  -1.791   3.634   0.839 -0.5399  3.3045 -1.0164
  582MOL0     H78551  -1.951   3.571   0.804 -0.6854  2.6099 -3.4774
  582MOL0     H78552  -1.644   2.707   1.354 -2.8086  1.9646 -0.6510
  582MOL0     H78553  -1.505   2.508   1.379 -0.0037 -0.7385 -0.0767
  582MOL0     H78554  -1.135   2.338   1.229  1.4707 -0.2323  1.1796
  582MOL0     H78555  -0.937   2.181   1.313 -0.4464 -0.9256  1.8191
  582MOL0     H78556   0.464   2.946   1.476 -0.3497 -0.5517  0.1392
  582MOL0     H78557   0.569   3.159   1.485  2.8238  0.8402  0.2201
  582MOL0     H78558   1.205   3.374   1.549  1.1163  0.2886  0.8052
  582MOL0     H78559   1.244   3.616   1.565 -1.2352  2.2223 -3.0478
  582MOL0     H78560   1.273   3.813   1.588  0.5264  0.2925  1.4225
  582MOL0     H78561   1.178   3.871   1.437 -0.2846  0.6210 -0.5321
  582MOL0     H78562   1.066   4.039   1.591  0.3829  1.0006  1.6312
  582MOL0     H78563   1.219   4.089   1.533 -2.3992  1.6785  0.6616
  582MOL0     H78564   1.185   3.924   1.804 -2.5501  2.4249  2.8016
  582MOL0     H78565   1.144   4.086   1.807 -0.2458 -1.0028  1.1069
  582MOL0     H78566   1.419   3.994   1.722  1.5547  2.4925 -0.4372
  582MOL0     H78567   1.369   4.004   1.889  2.3250  1.2833 -0.5986
  582MOL0     H78568   1.394   4.420   1.806 -1.0564 -0.3465 -0.2710
  582MOL0     H78569   0.829   3.676   1.627 -1.2543 -2.0255  1.9042
  582MOL0     H78570   0.785   3.452   1.597  0.3751  0.2363 -0.9092
  583MOL0     O78571   0.299   0.361   3.610  0.3488  0.4821  0.2956
  583MOL0     C78572   0.282   0.478   3.577 -0.7389 -0.0884  0.2506
  583MOL0     O78573   0.371   0.579   3.608 -0.7990  0.4128  0.6854
  583MOL0     C78574   0.500   0.549   3.643  0.4200  0.2369 -1.2888
  583MOL0     C78575   0.576   0.430   3.615 -0.7169  0.5577  0.5277
  583MOL0     C78576   0.709   0.415   3.654  0.0559  0.6816 -0.1740
  583MOL0     C78577   0.774   0.518   3.716 -0.9521 -1.3160 -0.4399
  583MOL0     O78578   0.908   0.517   3.764 -0.1369 -0.3053 -0.2925
  583MOL0     C78579   0.988   0.400   3.746 -0.4328  0.0876 -0.2096
  583MOL0     C78580   1.086   0.426   3.634 -0.5643  0.0925 -0.4645
  583MOL0     C78581   1.201   0.334   3.648 -0.2051  0.2252  0.6674
  583MOL0     C78582   1.307   0.381   3.744  0.7650 -0.2868  0.0094
  583MOL0     C78583   1.419   0.289   3.727  0.0195  0.0713 -0.0793
  583MOL0     C78584   1.531   0.327   3.825  0.6153  0.4152  0.0082
  583MOL0     C78585   1.676   0.300   3.789 -0.0066 -0.5214  0.7485
  583MOL0     C78586   1.761   0.353   3.892 -1.0087  0.8108  0.0418
  583MOL0     N78587   1.901   0.308   3.882 -0.1595 -0.1533 -0.4424
  583MOL0     C78588   1.976   0.312   3.767  0.2057 -0.2069  0.2647
  583MOL0     C78589   2.093   0.253   3.803 -0.2769  0.2215 -0.1435
  583MOL0     C78590   2.206   0.233   3.703 -0.1792 -0.6210  0.3028
  583MOL0     C78591   2.175   0.121   3.609  0.3525 -0.5322 -0.2482
  583MOL0     C78592   2.250  -0.000   3.664  0.4750  1.2954  0.2071
  583MOL0     C78593   2.241  -0.121   3.574 -0.6075 -0.1728  0.4125
  583MOL0     O78594   2.099  -0.165   3.571 -0.0961  0.6194 -0.4200
  583MOL0     C78595   2.082  -0.292   3.517  0.9103 -0.3014  1.0440
  583MOL0     C78596   1.982  -0.376   3.558 -0.0177  0.4798 -0.0757
  583MOL0     C78597   1.968  -0.505   3.502 -0.5808  0.1144  0.2489
  583MOL0     C78598   1.844  -0.567   3.564  0.2114 -0.4285  0.1725
  583MOL0     C78599   2.052  -0.559   3.405 -0.2378 -0.5693 -0.4986
  583MOL0     C78600   2.025  -0.684   3.330  0.1632  1.1205  0.7217
  583MOL0     O78601   1.973  -0.793   3.396 -0.4793  0.0579 -0.6889
  583MOL0     C78602   1.955  -0.906   3.328  0.2144  0.8982 -0.5179
  583MOL0     C78603   2.043  -1.008   3.357  0.1003 -0.7651 -0.5235
  583MOL0     C78604   2.045  -1.131   3.286  0.7978 -0.4551 -0.1848
  583MOL0     C78605   1.946  -1.152   3.182 -0.2445  0.1315 -0.3508
  583MOL0     O78606   1.939  -1.278   3.123  0.5954  0.5971  0.5991
  583MOL0     C78607   1.948  -1.399   3.197 -0.2119  0.2008 -0.3723
  583MOL0     C78608   2.064  -1.488   3.145  0.3331 -1.0064 -1.4450
  583MOL0     C78609   2.073  -1.517   2.989  0.1175  0.1697  0.5469
  583MOL0     C78610   1.933  -1.564   2.939 -0.0688  0.3706 -0.0240
  583MOL0     C78611   1.946  -1.634   2.802  0.0941 -0.5238 -0.1733
  583MOL0     C78612   1.811  -1.686   2.746 -0.1693  1.0612 -0.4415
  583MOL0     C78613   1.820  -1.743   2.602  0.1516  0.0953  0.3200
  583MOL0     C78614   1.750  -1.882   2.601  0.1312 -0.3313 -0.6077
  583MOL0    Cl78615   1.573  -1.831   2.645  0.1267  0.0725 -0.1614
  583MOL0     C78616   1.855  -1.049   3.154  0.2961  0.6904 -0.7597
  583MOL0     C78617   1.859  -0.934   3.226 -0.0863 -0.2804 -0.2923
  583MOL0     O78618   2.066  -0.690   3.211  0.5721  0.1408  0.8384
  583MOL0     C78619   2.144  -0.474   3.355  0.2828 -0.4698 -0.1925
  583MOL0     C78620   2.159  -0.342   3.407  0.5876  1.3653 -0.6617
  583MOL0     N78621   2.089   0.230   3.937 -0.1865 -0.5010 -0.6834
  583MOL0     N78622   1.970   0.257   3.985 -0.8918  0.1885 -0.3084
  583MOL0     C78623   0.704   0.640   3.739  0.2543  0.7047 -0.9476
  583MOL0     C78624   0.568   0.654   3.701  0.1118  0.1191  0.8877
  583MOL0     C78625   0.157   0.514   3.497  0.0749 -0.4315 -0.6995
  583MOL0     C78626   0.149   0.632   3.423 -0.1619 -0.4764 -0.9470
  583MOL0     C78627   0.055   0.656   3.322 -0.5862  0.4773  0.5156
  583MOL0     C78628  -0.050   0.561   3.318  0.5058  0.5069 -0.1475
  583MOL0     O78629  -0.139   0.582   3.217  0.3120  0.4554  0.1940
  583MOL0     C78630  -0.071   0.556   3.091 -0.4640  0.8077 -0.5732
  583MOL0     C78631  -0.176   0.545   2.979  0.7426 -0.8524 -0.2394
  583MOL0     C78632  -0.229   0.684   2.946 -0.2961 -1.3327 -0.3807
  583MOL0     C78633  -0.338   0.683   2.836 -0.7170  0.4380 -0.1073
  583MOL0     C78634  -0.403   0.815   2.840  0.4189  0.3402  0.3260
  583MOL0     C78635  -0.448   0.923   2.815 -0.0512  0.1051 -0.3128
  583MOL0     C78636  -0.053   0.441   3.393  0.1286 -0.0340  0.0923
  583MOL0     C78637   0.055   0.421   3.484 -0.1363  0.1068 -0.5885
  583MOL0     H78638   0.536   0.352   3.551  0.1702  0.3966  0.1565
  583MOL0     H78639   0.745   0.316   3.632 -0.6295  0.0344  1.4526
  583MOL0     H78640   1.044   0.363   3.833 -2.8213 -1.9841  0.5622
  583MOL0     H78641   0.928   0.313   3.717  0.8051 -0.9455  0.2124
  583MOL0     H78642   1.036   0.405   3.539  1.4285 -1.2339 -1.3094
  583MOL0     H78643   1.117   0.528   3.659 -2.7315  0.1669  2.4596
  583MOL0     H78644   1.181   0.231   3.677 -0.0633 -0.5394 -1.7550
  583MOL0     H78645   1.240   0.326   3.546  0.8981 -0.4870  1.1281
  583MOL0     H78646   1.324   0.488   3.727  3.4964 -0.2823  1.9803
  583MOL0     H78647   1.281   0.378   3.851  0.2389  3.5627  0.1428
  583MOL0     H78648   1.403   0.181   3.733 -0.3229  0.1632  0.7388
  583MOL0     H78649   1.449   0.313   3.624 -1.9603  1.6121 -0.3452
  583MOL0     H78650   1.516   0.432   3.850  1.8437  0.5378  0.3059
  583MOL0     H78651   1.514   0.273   3.919 -0.0691 -0.9042 -0.8459
  583MOL0     H78652   1.685   0.192   3.775  1.3483 -0.0864 -2.9443
  583MOL0     H78653   1.699   0.352   3.695 -1.5404  0.5179  0.9054
  583MOL0     H78654   1.713   0.318   3.984 -4.0796  1.9400 -0.9928
  583MOL0     H78655   1.770   0.462   3.890 -1.5258  0.8472 -1.6302
  583MOL0     H78656   1.930   0.343   3.674  2.2320 -0.3309 -0.8298
  583MOL0     H78657   2.214   0.325   3.645 -1.1456 -0.9318 -0.3538
  583MOL0     H78658   2.301   0.213   3.751  2.4296  0.7832 -3.7330
  583MOL0     H78659   2.211   0.141   3.508 -1.3281  1.2683 -0.5444
  583MOL0     H78660   2.065   0.115   3.611  0.1475  2.2385  0.5844
  583MOL0     H78661   2.203  -0.022   3.760 -0.6705  1.7558 -0.2320
  583MOL0     H78662   2.357   0.024   3.668  0.3517  1.8264  0.3644
  583MOL0     H78663   2.301  -0.205   3.610  0.2531  0.1902 -0.1549
  583MOL0     H78664   2.271  -0.077   3.479 -0.1953 -0.7472  0.2746
  583MOL0     H78665   1.910  -0.354   3.636 -2.4521 -0.3839 -1.9697
  583MOL0     H78666   1.766  -0.491   3.558 -1.9090 -2.2589  2.6715
  583MOL0     H78667   1.801  -0.650   3.509  2.6887 -2.6293  1.3030
  583MOL0     H78668   1.857  -0.595   3.669 -2.1577  1.8969  1.1955
  583MOL0     H78669   2.112  -0.987   3.437 -1.8859 -0.6004  1.2385
  583MOL0     H78670   2.113  -1.206   3.325  1.2990  1.2603  2.5146
  583MOL0     H78671   1.958  -1.379   3.304  0.4849 -1.2903 -0.1343
  583MOL0     H78672   1.861  -1.461   3.176  0.0655 -0.0830 -0.7038
  583MOL0     H78673   2.156  -1.438   3.177  0.5899 -1.3039 -1.7067
  583MOL0     H78674   2.052  -1.582   3.199  0.9735 -0.4473 -0.2890
  583MOL0     H78675   2.153  -1.592   2.987  0.8637  0.8274  2.8051
  583MOL0     H78676   2.114  -1.433   2.932  2.7775 -1.3326  0.0809
  583MOL0     H78677   1.893  -1.635   3.012  1.6497  1.0893  1.6919
  583MOL0     H78678   1.861  -1.482   2.944 -1.2817 -0.6117 -0.6887
  583MOL0     H78679   2.023  -1.710   2.810  1.5577  0.6880 -1.9371
  583MOL0     H78680   1.996  -1.557   2.742  3.8359 -1.9562  0.8676
  583MOL0     H78681   1.758  -1.756   2.810 -2.3375  1.7958 -1.3291
  583MOL0     H78682   1.740  -1.603   2.738 -0.9549  0.7197  2.1923
  583MOL0     H78683   1.925  -1.742   2.572  0.2359  2.2530  0.5229
  583MOL0     H78684   1.778  -1.666   2.537 -0.7367  0.3418  1.1506
  583MOL0     H78685   1.793  -1.939   2.684  0.1319  1.0800  0.3998
  583MOL0     H78686   1.764  -1.946   2.514  0.7294 -1.0180 -0.0231
  583MOL0     H78687   1.777  -1.062   3.079 -2.0509  3.6670  0.9022
  583MOL0     H78688   1.773  -0.874   3.201 -1.7171 -2.2510  0.3679
  583MOL0     H78689   2.202  -0.505   3.269 -1.5300 -3.4679 -0.4675
  583MOL0     H78690   2.233  -0.276   3.363  1.2379  0.7756 -0.4638
  583MOL0     H78691   0.738   0.724   3.798 -0.7703 -0.4619  1.3940
  583MOL0     H78692   0.513   0.745   3.720  1.4987  0.9501  1.0648
  583MOL0     H78693   0.225   0.709   3.433  0.3632 -0.9129 -1.5223
  583MOL0     H78694   0.066   0.743   3.259  2.7964 -1.0861 -1.2950
  583MOL0     H78695  -0.005   0.639   3.064  2.3212 -0.2041  2.4025
  583MOL0     H78696  -0.001   0.472   3.098 -0.8833  0.5504  3.6176
  583MOL0     H78697  -0.259   0.486   3.016 -0.0882  0.1920 -0.3879
  583MOL0     H78698  -0.133   0.493   2.893  1.5295 -0.1700 -0.2711
  583MOL0     H78699  -0.143   0.744   2.915 -0.1237 -1.0180  0.6471
  583MOL0     H78700  -0.281   0.729   3.031  0.8753  2.2753 -1.4026
  583MOL0     H78701  -0.420   0.619   2.870 -0.1217  1.4374  3.7628
  583MOL0     H78702  -0.302   0.660   2.735 -2.3343 -0.0733 -0.5999
  583MOL0     H78703  -0.488   1.017   2.783 -1.7582 -0.4245  0.1423
  583MOL0     H78704  -0.142   0.380   3.381  0.1655  0.2039 -1.5852
  583MOL0     H78705   0.057   0.328   3.540 -3.3254  0.1132 -0.2802
  584MOL0     O78706   1.178   1.513   6.354 -0.0207  0.2911 -0.5064
  584MOL0     C78707   1.231   1.572   6.448 -1.0344  0.0304 -1.2526
  584MOL0     O78708   1.214   1.699   6.480  0.3223  0.5387 -0.7089
  584MOL0     C78709   1.120   1.760   6.407  0.3365  0.4079 -0.4306
  584MOL0     C78710   0.982   1.750   6.438 -0.5774 -0.1959  0.9155
  584MOL0     C78711   0.884   1.819   6.372 -0.5845 -1.0368 -0.2545
  584MOL0     C78712   0.917   1.924   6.283 -0.5748  0.4044 -0.7418
  584MOL0     O78713   0.819   1.986   6.214 -0.1507 -0.0407  0.4013
  584MOL0     C78714   0.834   2.116   6.157  0.0377  0.1190  0.8025
  584MOL0     C78715   0.888   2.110   6.012 -0.1668 -0.3743 -0.5864
  584MOL0     C78716   0.830   2.005   5.923 -0.5623 -0.0838  0.2072
  584MOL0     C78717   0.902   2.002   5.786  1.1771 -0.1699 -0.0619
  584MOL0     C78718   0.825   1.920   5.691 -0.1850 -0.0345  0.1290
  584MOL0     C78719   0.907   1.899   5.563  0.5696 -0.4215 -0.9627
  584MOL0     C78720   0.817   1.806   5.477 -0.4980  0.4873 -0.0222
  584MOL0     C78721   0.884   1.762   5.344  0.1737  1.3001 -0.5419
  584MOL0     N78722   0.798   1.672   5.267  0.6147 -0.1812 -0.8582
  584MOL0     C78723   0.833   1.546   5.234 -0.1670  0.0790 -0.0922
  584MOL0     C78724   0.715   1.474   5.216  0.3010  0.5920 -1.7963
  584MOL0     C78725   0.699   1.331   5.187  0.2073 -0.8507 -0.7668
  584MOL0     C78726   0.765   1.256   5.302  0.4761 -0.3691  0.1820
  584MOL0     C78727   0.760   1.105   5.273  0.2593 -0.2710 -0.2263
  584MOL0     C78728   0.810   1.020   5.385  0.3005  0.4506 -0.1183
  584MOL0     O78729   0.801   0.879   5.351  0.1601 -0.2179 -0.2510
  584MOL0     C78730   0.853   0.776   5.441 -0.6007  0.1511  0.2969
  584MOL0     C78731   0.921   0.804   5.561 -0.8431 -0.3733 -0.9485
  584MOL0     C78732   0.949   0.704   5.655  0.3350  0.1541 -0.4949
  584MOL0     C78733   1.020   0.754   5.777  0.5539 -0.2530  0.2007
  584MOL0     C78734   0.926   0.569   5.619 -1.3741  0.4453 -0.4060
  584MOL0     C78735   0.969   0.473   5.718  0.8731  0.8959  0.5152
  584MOL0     O78736   1.027   0.365   5.664 -1.1956  0.1450  0.3174
  584MOL0     C78737   1.046   0.257   5.736  0.1130  0.3708  0.0102
  584MOL0     C78738   1.112   0.258   5.860  0.8936 -0.7403  0.9656
  584MOL0     C78739   1.107   0.140   5.938 -0.3863  0.1824 -0.0033
  584MOL0     C78740   1.068   0.010   5.891  0.6051 -0.7219  0.5103
  584MOL0     O78741   1.079  -0.105   5.969 -0.4697 -1.2646 -0.2705
  584MOL0     C78742   1.092  -0.234   5.918 -0.4627  0.7790  0.2096
  584MOL0     C78743   1.073  -0.311   6.053  0.6340  1.2059  0.3117
  584MOL0     C78744   1.035  -0.455   6.031  0.0782  0.9042  0.0327
  584MOL0     C78745   1.063  -0.550   6.144 -0.2223 -0.2374  0.8237
  584MOL0     C78746   0.999  -0.548   6.283 -0.1182  0.3399 -0.2547
  584MOL0     C78747   1.106  -0.585   6.386  0.7665  1.4311  1.0393
  584MOL0     C78748   1.037  -0.653   6.510 -1.4850  0.0713 -0.4475
  584MOL0     C78749   1.141  -0.683   6.623  0.4839  0.2610  0.8410
  584MOL0    Cl78750   1.071  -0.777   6.755  0.0843  0.2144 -0.3316
  584MOL0     C78751   1.017   0.011   5.761 -0.6402  0.1814 -0.0365
  584MOL0     C78752   1.007   0.126   5.685 -0.4661 -0.1279  0.4452
  584MOL0     O78753   0.931   0.482   5.838 -0.0583 -0.5940  0.3329
  584MOL0     C78754   0.869   0.542   5.498 -0.4416 -1.2306 -0.3300
  584MOL0     C78755   0.827   0.646   5.415 -0.5527 -0.9667 -0.0170
  584MOL0     N78756   0.617   1.566   5.213  0.4432 -0.8776  0.3144
  584MOL0     N78757   0.661   1.684   5.252 -0.1184 -1.0343  1.3450
  584MOL0     C78758   1.059   1.935   6.256 -0.0393 -0.1971  0.2455
  584MOL0     C78759   1.154   1.849   6.306  0.8846 -0.4075 -0.4473
  584MOL0     C78760   1.342   1.493   6.517  0.2684  0.7116  0.3864
  584MOL0     C78761   1.447   1.560   6.586  0.0804 -0.1742  0.2862
  584MOL0     C78762   1.565   1.499   6.629  0.2956  0.2515  0.2680
  584MOL0     C78763   1.569   1.359   6.623 -0.0498 -0.6302  0.2391
  584MOL0     O78764   1.674   1.279   6.669 -0.1140 -0.1895 -0.3663
  584MOL0     C78765   1.805   1.339   6.646  0.9687  0.6682  0.2661
  584MOL0     C78766   1.909   1.233   6.663  0.4597 -0.3116 -0.5598
  584MOL0     C78767   2.055   1.287   6.666 -0.2308  0.6562  0.1284
  584MOL0     C78768   2.150   1.180   6.733  0.1347  0.8209  0.1678
  584MOL0     C78769   2.292   1.222   6.732 -0.1771  0.0360 -0.7493
  584MOL0     C78770   2.415   1.235   6.730  0.2852  0.0144 -0.8523
  584MOL0     C78771   1.460   1.291   6.566 -0.5245  0.5711 -0.0800
  584MOL0     C78772   1.356   1.354   6.508 -0.4856 -0.5816 -0.9007
  584MOL0     H78773   0.948   1.683   6.518  0.7894 -1.0463  0.8192
  584MOL0     H78774   0.784   1.806   6.412 -3.1180  1.8910 -4.7545
  584MOL0     H78775   0.729   2.144   6.148  0.6938  2.4797 -0.1733
  584MOL0     H78776   0.887   2.183   6.225  1.4135  0.5160 -0.6135
  584MOL0     H78777   0.886   2.212   5.972  2.6871  1.4880  3.2653
  584MOL0     H78778   0.996   2.092   6.015  0.4387  2.7678  0.9393
  584MOL0     H78779   0.847   1.908   5.971  4.5769 -0.3498 -1.6085
  584MOL0     H78780   0.725   2.034   5.914 -0.1152  1.2735 -1.0711
  584MOL0     H78781   0.933   2.100   5.749  0.6225  0.2296  0.5155
  584MOL0     H78782   0.990   1.946   5.821 -0.3999 -2.5246  0.3494
  584MOL0     H78783   0.802   1.822   5.734 -1.7374  0.2610  0.0237
  584MOL0     H78784   0.734   1.974   5.666  0.1615  1.8742  2.6458
  584MOL0     H78785   0.923   1.998   5.520 -0.0980  2.8039  5.0771
  584MOL0     H78786   1.003   1.852   5.589 -0.9135 -2.0337  2.0031
  584MOL0     H78787   0.810   1.714   5.536  1.3797  0.4740  0.2479
  584MOL0     H78788   0.723   1.857   5.454 -0.3685  1.8299  2.1308
  584MOL0     H78789   0.977   1.710   5.368 -0.7687 -1.8702 -3.0370
  584MOL0     H78790   0.917   1.842   5.277  2.6524 -1.2622 -2.6240
  584MOL0     H78791   0.937   1.513   5.233  0.2898  1.1703  2.8093
  584MOL0     H78792   0.592   1.308   5.185  0.2169 -2.2117  3.6755
  584MOL0     H78793   0.747   1.300   5.094  0.3688 -0.8058 -0.6981
  584MOL0     H78794   0.700   1.272   5.389 -2.8486 -0.9160 -1.9939
  584MOL0     H78795   0.869   1.282   5.321  0.8011 -0.9353 -0.7436
  584MOL0     H78796   0.835   1.081   5.197  4.2873  0.0036  3.3028
  584MOL0     H78797   0.660   1.070   5.248 -0.3234  1.5422 -0.5575
  584MOL0     H78798   0.731   1.026   5.461  0.3344 -2.8246  0.3026
  584MOL0     H78799   0.911   1.053   5.410  0.1691  0.8359 -0.0723
  584MOL0     H78800   0.942   0.907   5.588  0.0052 -0.6166 -0.6443
  584MOL0     H78801   1.091   0.681   5.818 -0.9791 -2.7986 -1.4165
  584MOL0     H78802   1.066   0.852   5.756 -0.8596  0.6637  1.2355
  584MOL0     H78803   0.947   0.766   5.857  0.9137 -0.9869  0.6480
  584MOL0     H78804   1.141   0.351   5.909 -2.8088  0.8630  0.4436
  584MOL0     H78805   1.162   0.134   6.032 -3.0302  1.0655  1.7298
  584MOL0     H78806   1.017  -0.248   5.840 -0.7747  0.4108  0.5707
  584MOL0     H78807   1.193  -0.246   5.876 -0.9299 -0.2235 -0.6553
  584MOL0     H78808   1.164  -0.312   6.115  0.6306  1.3237  0.3202
  584MOL0     H78809   0.997  -0.262   6.115 -4.1490 -3.5364 -1.0963
  584MOL0     H78810   1.090  -0.488   5.942 -3.8878 -5.4361 -0.6965
  584MOL0     H78811   0.933  -0.464   5.991  1.2900  2.8493 -4.0305
  584MOL0     H78812   1.060  -0.654   6.113 -1.1994  0.8172 -3.1681
  584MOL0     H78813   1.171  -0.541   6.154 -0.0830 -0.2884 -0.4679
  584MOL0     H78814   0.928  -0.631   6.288  4.1742 -3.6782  0.5305
  584MOL0     H78815   0.964  -0.452   6.321 -1.7879 -0.6486  0.8193
  584MOL0     H78816   1.154  -0.669   6.335 -2.8310  0.1538 -0.6051
  584MOL0     H78817   1.174  -0.503   6.411 -2.5136  5.0939 -0.9753
  584MOL0     H78818   1.012  -0.758   6.493  0.7018 -0.8318  1.3383
  584MOL0     H78819   0.957  -0.589   6.548  0.1819  1.4743  0.9103
  584MOL0     H78820   1.184  -0.588   6.655  1.1709 -0.0703  0.8991
  584MOL0     H78821   1.219  -0.750   6.587 -1.5096 -1.9986  0.4330
  584MOL0     H78822   0.978  -0.074   5.705  0.2556 -0.1714 -0.1385
  584MOL0     H78823   0.974   0.109   5.583 -3.7422  0.9434  1.1878
  584MOL0     H78824   0.853   0.443   5.455 -2.5540 -0.8399 -0.5584
  584MOL0     H78825   0.773   0.615   5.326  0.1311  2.3304 -1.7719
  584MOL0     H78826   1.090   2.011   6.185  2.1680  1.2993  2.6541
  584MOL0     H78827   1.259   1.862   6.285  1.1397  2.5037  1.9430
  584MOL0     H78828   1.454   1.666   6.605  4.1483 -0.3437  0.5657
  584MOL0     H78829   1.642   1.564   6.669  1.1817 -0.4473 -0.2695
  584MOL0     H78830   1.812   1.392   6.550 -2.0059  3.7040  1.5018
  584MOL0     H78831   1.814   1.415   6.725 -1.6298 -1.6492  3.0262
  584MOL0     H78832   1.909   1.165   6.578  0.5251 -2.3236  0.9806
  584MOL0     H78833   1.888   1.176   6.754 -1.4211  0.1297 -0.6895
  584MOL0     H78834   2.050   1.388   6.708 -2.7549  0.9572 -0.6848
  584MOL0     H78835   2.096   1.286   6.564 -1.0718  1.4226 -0.2316
  584MOL0     H78836   2.142   1.086   6.678 -1.0221  0.4899  0.8659
  584MOL0     H78837   2.123   1.155   6.836 -2.3805  0.5890 -0.4606
  584MOL0     H78838   2.520   1.248   6.712  0.0620  2.2872 -0.7693
  584MOL0     H78839   1.469   1.184   6.555  0.7872  0.4798  1.6267
  584MOL0     H78840   1.279   1.298   6.457 -1.5997 -0.6482  0.7830
  585MOL0     O78841   1.054   7.004  10.515  0.3960 -0.0965 -0.6282
  585MOL0     C78842   1.104   6.914  10.584 -0.4784 -0.2219 -0.1910
  585MOL0     O78843   1.090   6.898  10.720 -0.3471  0.3984 -0.7363
  585MOL0     C78844   1.024   7.001  10.788  0.1775 -0.1753  0.2141
  585MOL0     C78845   1.093   7.116  10.817  0.4920 -0.7603  0.4558
  585MOL0     C78846   1.043   7.219  10.898 -0.5432 -0.2005  0.1964
  585MOL0     C78847   0.915   7.207  10.956 -0.4690  0.3415 -0.8593
  585MOL0     O78848   0.854   7.308  11.036 -0.5742 -0.3966  0.3002
  585MOL0     C78849   0.926   7.433  11.043  0.1864  0.6888 -0.4333
  585MOL0     C78850   0.831   7.543  11.076 -0.2591 -0.1709  0.4771
  585MOL0     C78851   0.874   7.639  11.188  0.6636 -0.1371 -0.2083
  585MOL0     C78852   0.763   7.749  11.199 -0.6936 -0.1082 -0.5251
  585MOL0     C78853   0.751   7.820  11.332 -1.0225  0.3234 -1.3529
  585MOL0     C78854   0.631   7.929  11.318 -0.2531  0.0297  0.5346
  585MOL0     C78855   0.620   8.022  11.448  0.8460  1.3957  0.8791
  585MOL0     C78856   0.637   7.943  11.574  0.0567  0.0814 -0.5361
  585MOL0     N78857   0.632   8.027  11.696 -0.0429 -0.1574 -0.2228
  585MOL0     C78858   0.515   8.082  11.742 -0.1114 -0.2727 -0.2682
  585MOL0     C78859   0.560   8.122  11.862  0.7780  0.2623  0.2753
  585MOL0     C78860   0.470   8.173  11.969 -0.0607 -0.1146  0.5575
  585MOL0     C78861   0.381   8.284  11.916  0.3847 -0.0082  0.1328
  585MOL0     C78862   0.291   8.360  12.018  0.1619 -0.6109  0.3569
  585MOL0     C78863   0.228   8.488  11.953 -0.0781  1.3862 -0.3555
  585MOL0     O78864   0.124   8.542  12.037  0.1976  0.3322  0.0460
  585MOL0     C78865  -0.001   8.500  12.018 -0.3820 -0.9120  0.5319
  585MOL0     C78866  -0.090   8.586  12.080 -0.8481  0.1938  0.8093
  585MOL0     C78867  -0.226   8.579  12.058 -0.2403  0.4981  0.4735
  585MOL0     C78868  -0.297   8.696  12.119  0.5411 -0.0293 -0.2935
  585MOL0     C78869  -0.275   8.480  11.969 -0.4943 -0.1365  0.4106
  585MOL0     C78870  -0.423   8.471  11.935 -0.1030  0.0324 -0.0143
  585MOL0     O78871  -0.510   8.570  11.960 -0.2557 -0.6353 -0.3697
  585MOL0     C78872  -0.639   8.536  11.951  0.5169 -0.0162  0.7486
  585MOL0     C78873  -0.721   8.516  12.064 -0.0402  0.9376 -0.6562
  585MOL0     C78874  -0.857   8.488  12.055  0.2752  0.3721  0.1614
  585MOL0     C78875  -0.923   8.489  11.930  0.8647  1.4528  0.0895
  585MOL0     O78876  -1.051   8.439  11.917  0.2282  0.2527  0.1804
  585MOL0     C78877  -1.068   8.321  11.991  1.0791  0.0091 -0.6552
  585MOL0     C78878  -1.189   8.247  11.937  0.5636 -0.7169  0.4919
  585MOL0     C78879  -1.217   8.109  11.989 -0.6735  0.3682 -0.3958
  585MOL0     C78880  -1.249   8.005  11.872 -0.6597  1.1974 -1.1295
  585MOL0     C78881  -1.378   8.028  11.805  0.4193 -0.6270 -0.2950
  585MOL0     C78882  -1.363   8.096  11.665 -0.4253 -0.0765  0.4800
  585MOL0     C78883  -1.488   8.060  11.583  0.6509  0.0778  0.1610
  585MOL0     C78884  -1.624   8.108  11.652  0.5000  0.2193  0.0894
  585MOL0    Cl78885  -1.753   8.065  11.544 -0.3638  0.0671 -0.1703
  585MOL0     C78886  -0.835   8.497  11.820  0.4321 -0.5636 -0.3222
  585MOL0     C78887  -0.701   8.516  11.830  0.3303  0.7791 -0.3730
  585MOL0     O78888  -0.450   8.363  11.877  0.2800  0.0325 -0.2250
  585MOL0     C78889  -0.185   8.386  11.915 -0.9181 -0.4070  1.7897
  585MOL0     C78890  -0.050   8.405  11.927  0.0452 -0.4372  0.3709
  585MOL0     N78891   0.699   8.118  11.869  0.0097 -0.2546 -1.0912
  585MOL0     N78892   0.743   8.060  11.767  1.0944  0.0447  0.1904
  585MOL0     C78893   0.842   7.089  10.929  0.4959 -0.2537  0.0886
  585MOL0     C78894   0.891   6.992  10.834 -0.3302 -0.3676  0.0809
  585MOL0     C78895   1.193   6.828  10.519 -0.3132 -0.3955 -0.0467
  585MOL0     C78896   1.271   6.741  10.593 -0.3245  0.3164  1.1845
  585MOL0     C78897   1.370   6.664  10.540 -0.0975 -0.4404 -0.1087
  585MOL0     C78898   1.385   6.666  10.401  0.5468 -0.7976 -0.1547
  585MOL0     O78899   1.475   6.593  10.324  0.0861  0.3440  0.4855
  585MOL0     C78900   1.537   6.471  10.376  0.1887 -0.0929 -0.1571
  585MOL0     C78901   1.685   6.495  10.369  0.1841  0.4975  1.2399
  585MOL0     C78902   1.743   6.618  10.456 -0.4393  0.4684  0.6689
  585MOL0     C78903   1.896   6.621  10.451 -0.5254  0.0887 -0.5457
  585MOL0     C78904   1.944   6.714  10.552  0.3277  0.4027 -1.0233
  585MOL0     C78905   2.000   6.768  10.646 -0.4881  0.3456 -0.3003
  585MOL0     C78906   1.309   6.764  10.322  0.3963 -0.0010 -1.0614
  585MOL0     C78907   1.219   6.848  10.387 -0.1147  0.0552  0.6260
  585MOL0     H78908   1.196   7.128  10.788  0.2594 -2.5516 -1.3327
  585MOL0     H78909   1.106   7.304  10.919 -1.7507  1.3277 -1.9870
  585MOL0     H78910   1.012   7.420  11.110 -0.3847  0.9164  0.3662
  585MOL0     H78911   0.955   7.452  10.940  0.0712  1.1966 -0.3723
  585MOL0     H78912   0.818   7.617  10.996 -2.2763  1.0284  1.8375
  585MOL0     H78913   0.735   7.493  11.090  0.4949 -2.9576 -2.8430
  585MOL0     H78914   0.895   7.588  11.283 -0.5966 -0.7401 -0.2274
  585MOL0     H78915   0.966   7.693  11.168 -0.3723  1.3671 -1.0443
  585MOL0     H78916   0.783   7.831  11.128 -4.6470  2.0780  0.5880
  585MOL0     H78917   0.669   7.701  11.172 -0.6915 -0.5755  0.2978
  585MOL0     H78918   0.738   7.753  11.417 -1.1694  0.9912 -0.8381
  585MOL0     H78919   0.845   7.869  11.357 -0.3664 -2.3964  2.4321
  585MOL0     H78920   0.654   7.996  11.234  1.0533 -1.1687 -0.1057
  585MOL0     H78921   0.533   7.885  11.299  0.5402 -0.4507 -3.1885
  585MOL0     H78922   0.693   8.103  11.445 -0.3492  2.5185 -2.7200
  585MOL0     H78923   0.525   8.077  11.459 -0.2097  0.5584 -2.8758
  585MOL0     H78924   0.738   7.903  11.561  1.2053  2.4512  0.4388
  585MOL0     H78925   0.562   7.863  11.573  0.0332  0.0962 -0.0918
  585MOL0     H78926   0.419   8.070  11.693 -2.3145  0.8059  3.4126
  585MOL0     H78927   0.416   8.082  11.998 -0.0238 -0.6100 -0.8898
  585MOL0     H78928   0.523   8.217  12.054 -1.2298 -0.6200  1.5972
  585MOL0     H78929   0.316   8.234  11.844 -2.3660 -1.7941  3.5550
  585MOL0     H78930   0.432   8.364  11.860 -2.1518  1.0851 -0.7361
  585MOL0     H78931   0.352   8.392  12.103 -1.6517 -0.9034  1.8290
  585MOL0     H78932   0.221   8.282  12.048  1.7388 -2.5132 -0.6406
  585MOL0     H78933   0.194   8.464  11.852  1.8127 -1.4395 -0.4215
  585MOL0     H78934   0.299   8.572  11.951 -0.1317  1.5131  1.1878
  585MOL0     H78935  -0.053   8.668  12.141  0.7432 -0.2913  0.5189
  585MOL0     H78936  -0.227   8.780  12.127 -0.6312  0.9662 -0.1861
  585MOL0     H78937  -0.378   8.735  12.057  1.1043 -1.8346 -2.2792
  585MOL0     H78938  -0.330   8.692  12.224 -2.2287  0.2512 -1.0811
  585MOL0     H78939  -0.675   8.524  12.162 -0.3018  1.4473 -0.5725
  585MOL0     H78940  -0.918   8.476  12.144  1.2256  0.7278  0.8691
  585MOL0     H78941  -0.983   8.255  11.971  0.6745  0.0739 -2.9281
  585MOL0     H78942  -1.088   8.341  12.096 -1.0581  0.6529 -1.1414
  585MOL0     H78943  -1.266   8.323  11.950  2.5266  1.8752 -1.8333
  585MOL0     H78944  -1.184   8.242  11.828 -0.4799  0.3225  0.3742
  585MOL0     H78945  -1.305   8.109  12.053  0.6347 -0.8372  1.5166
  585MOL0     H78946  -1.130   8.070  12.043  0.3385  1.4500 -1.1794
  585MOL0     H78947  -1.165   7.993  11.803 -1.9611 -1.0219 -2.4614
  585MOL0     H78948  -1.268   7.905  11.913 -3.4657  1.2040 -2.1559
  585MOL0     H78949  -1.440   8.087  11.872 -3.0720 -1.3993 -2.5689
  585MOL0     H78950  -1.436   7.937  11.785 -3.0517  1.0968  1.2276
  585MOL0     H78951  -1.341   8.203  11.672 -0.2312  0.1982 -2.6595
  585MOL0     H78952  -1.282   8.057  11.603 -0.5562  0.3144  0.0547
  585MOL0     H78953  -1.501   7.954  11.561  0.6668  0.8148 -4.3697
  585MOL0     H78954  -1.479   8.109  11.486 -2.0871  0.9984  0.2676
  585MOL0     H78955  -1.615   8.212  11.682 -0.3758  0.6277 -0.9587
  585MOL0     H78956  -1.636   8.047  11.742 -0.8664  1.0995  0.5289
  585MOL0     H78957  -0.885   8.490  11.724  2.4960 -3.9177 -1.3254
  585MOL0     H78958  -0.654   8.528  11.733 -3.8645  1.8314 -2.5523
  585MOL0     H78959  -0.224   8.309  11.850 -2.2477  0.1970  1.8486
  585MOL0     H78960   0.013   8.334  11.875  2.3287 -0.7069  3.2014
  585MOL0     H78961   0.744   7.071  10.972  0.0086  2.1563  0.1209
  585MOL0     H78962   0.835   6.899  10.836 -1.2361  0.1277 -1.0255
  585MOL0     H78963   1.253   6.724  10.699  2.9129 -0.2896  1.7518
  585MOL0     H78964   1.435   6.600  10.599  2.0680  0.6461 -1.1881
  585MOL0     H78965   1.512   6.460  10.482  0.4392  2.6051  0.2334
  585MOL0     H78966   1.501   6.384  10.321 -0.7085  0.8862 -1.1399
  585MOL0     H78967   1.700   6.495  10.260 -3.0743 -0.2415  0.6822
  585MOL0     H78968   1.735   6.404  10.404  0.9933 -0.0319 -1.0710
  585MOL0     H78969   1.711   6.604  10.560  2.7694  2.5422  2.1057
  585MOL0     H78970   1.710   6.714  10.416  2.6188  0.4371 -2.3924
  585MOL0     H78971   1.931   6.645  10.350 -2.5956  0.2403 -1.2712
  585MOL0     H78972   1.938   6.524  10.479  0.4673  0.2043 -1.5534
  585MOL0     H78973   2.054   6.805  10.732  1.8903 -0.0341 -1.5435
  585MOL0     H78974   1.323   6.758  10.214  1.1094 -0.2240 -0.9613
  585MOL0     H78975   1.171   6.924  10.327  0.0411  0.0346  0.4748
  586MOL0     O78976   3.896   0.847   1.368  1.7757 -0.6429  0.4737
  586MOL0     C78977   3.845   0.947   1.316 -0.2140 -0.4354  0.1973
  586MOL0     O78978   3.796   0.951   1.186 -0.1433  0.5623  0.1998
  586MOL0     C78979   3.820   0.836   1.111  0.3797  0.1875  0.8746
  586MOL0     C78980   3.887   0.852   0.986 -0.2815 -0.2734  0.1586
  586MOL0     C78981   3.898   0.742   0.895  1.2838 -0.2728 -0.3441
  586MOL0     C78982   3.836   0.621   0.931 -0.7002  0.2160  0.2148
  586MOL0     O78983   3.811   0.517   0.840 -0.0128  0.0270  0.0828
  586MOL0     C78984   3.828   0.532   0.701 -0.6527 -0.1048  0.4571
  586MOL0     C78985   3.819   0.386   0.636  0.0670 -0.9023 -1.1279
  586MOL0     C78986   3.823   0.404   0.480  0.0286 -0.5282 -0.2777
  586MOL0     C78987   3.792   0.283   0.393 -0.1776 -0.6486  0.5465
  586MOL0     C78988   3.711   0.321   0.259  0.4255  1.0336  0.5245
  586MOL0     C78989   3.660   0.186   0.190 -0.1700  0.0002  0.2221
  586MOL0     C78990   3.771   0.131   0.097  1.1324  0.3691  0.2791
  586MOL0     C78991   3.706   0.010   0.019 -0.4336 -0.0021 -0.9587
  586MOL0     N78992   3.693  -0.111   0.107  0.5488  0.1769  0.1443
  586MOL0     C78993   3.795  -0.192   0.157 -0.9201 -0.1874  0.0487
  586MOL0     C78994   3.731  -0.298   0.223 -0.7394 -0.6049 -0.4733
  586MOL0     C78995   3.797  -0.427   0.263  0.6927 -0.1054  1.1412
  586MOL0     C78996   3.780  -0.523   0.143  0.4472  0.1003 -0.2299
  586MOL0     C78997   3.857  -0.658   0.152 -0.4763  0.3999  0.6353
  586MOL0     C78998   4.013  -0.640   0.151  0.6534  0.1578  0.4652
  586MOL0     O78999   4.109  -0.740   0.101 -0.1982  0.0713  0.2220
  586MOL0     C79000   4.067  -0.871   0.130 -0.9536 -0.1574 -0.1205
  586MOL0     C79001   4.041  -0.915   0.259  0.2134  1.0274 -0.4616
  586MOL0     C79002   3.993  -1.049   0.283  0.3770  0.7269  0.6420
  586MOL0     C79003   3.939  -1.086   0.423  0.6466 -1.0286  0.1716
  586MOL0     C79004   3.996  -1.145   0.174  0.1487 -0.2438 -0.7156
  586MOL0     C79005   3.965  -1.283   0.201 -0.2280  0.2196  0.7370
  586MOL0     O79006   4.032  -1.337   0.308 -0.9494 -0.4567 -0.1392
  586MOL0     C79007   4.034  -1.474   0.311  0.8632 -0.4277 -0.8679
  586MOL0     C79008   3.967  -1.538   0.422 -1.3965  0.8195 -0.3151
  586MOL0     C79009   3.945  -1.681   0.409 -0.8093 -0.3858  0.3292
  586MOL0     C79010   3.984  -1.745   0.292 -0.9677  0.8717  0.0461
  586MOL0     O79011   3.950  -1.879   0.275 -0.6924 -0.3830 -0.3483
  586MOL0     C79012   4.033  -1.976   0.338  0.1988  0.3213 -0.7599
  586MOL0     C79013   3.945  -2.091   0.371  0.1991  0.7628  0.0618
  586MOL0     C79014   3.874  -2.151   0.249 -0.2168 -0.4191  0.2102
  586MOL0     C79015   3.800  -2.277   0.287 -0.0326 -0.0544  0.8871
  586MOL0     C79016   3.718  -2.331   0.166 -0.0078 -0.5505 -0.3946
  586MOL0     C79017   3.640  -2.453   0.217  0.7519 -0.0121  1.1305
  586MOL0     C79018   3.559  -2.516   0.092 -0.6131 -0.9583 -0.2019
  586MOL0     C79019   3.460  -2.622   0.143 -0.2675  0.4096 -0.7463
  586MOL0    Cl79020   3.541  -2.775   0.186 -0.1149  0.2294 -0.0588
  586MOL0     C79021   4.057  -1.677   0.200 -0.7002 -0.0211 -0.3040
  586MOL0     C79022   4.088  -1.543   0.206  0.5651 -0.1721 -0.3889
  586MOL0     O79023   3.890  -1.346   0.121 -0.3726  0.2510  0.4245
  586MOL0     C79024   4.019  -1.092   0.038 -0.2608 -0.4789  0.4054
  586MOL0     C79025   4.054  -0.959   0.024  0.1578 -0.3320  0.5829
  586MOL0     N79026   3.590  -0.270   0.219 -0.4489 -0.5086  0.2612
  586MOL0     N79027   3.568  -0.159   0.145 -0.2676  0.0470 -0.7551
  586MOL0     C79028   3.776   0.596   1.056  0.2959  0.1987  0.4814
  586MOL0     C79029   3.763   0.708   1.144 -0.2612 -0.1364  0.6219
  586MOL0     C79030   3.858   1.077   1.377 -0.2310 -0.3982  0.3162
  586MOL0     C79031   3.781   1.188   1.333  0.6128 -0.1262  0.3991
  586MOL0     C79032   3.801   1.307   1.389 -0.0401 -0.3031  0.0643
  586MOL0     C79033   3.895   1.328   1.473 -0.6105 -0.4213 -0.5743
  586MOL0     O79034   3.916   1.453   1.533  0.1431  0.0798 -0.0222
  586MOL0     C79035   3.833   1.570   1.513  0.5988  0.6049 -0.0538
  586MOL0     C79036   3.885   1.692   1.590 -1.8690  0.1756  0.4040
  586MOL0     C79037   4.041   1.722   1.558 -0.6465 -0.2380 -0.1831
  586MOL0     C79038   4.105   1.841   1.642  0.1875  0.7867 -0.1075
  586MOL0     C79039   4.172   1.944   1.558 -0.2397 -0.4555 -0.0668
  586MOL0     C79040   4.228   2.029   1.491  0.0403  0.9320  0.2137
  586MOL0     C79041   3.977   1.228   1.523 -0.5357  1.0450  0.5289
  586MOL0     C79042   3.957   1.098   1.475  0.2191 -0.0832  0.0556
  586MOL0     H79043   3.930   0.947   0.957 -1.5459  0.9370  1.9912
  586MOL0     H79044   3.951   0.755   0.801  2.8397  0.8454  0.6386
  586MOL0     H79045   3.744   0.590   0.662 -1.2390 -1.4423 -0.3647
  586MOL0     H79046   3.921   0.578   0.668 -1.2039 -0.0315 -1.1021
  586MOL0     H79047   3.915   0.344   0.670 -0.5199 -3.4260 -2.3438
  586MOL0     H79048   3.730   0.335   0.673  0.4958  0.4788  2.1930
  586MOL0     H79049   3.751   0.478   0.444  0.1199 -0.9444 -1.3551
  586MOL0     H79050   3.920   0.447   0.454 -1.4748  3.3480 -0.1439
  586MOL0     H79051   3.888   0.237   0.367 -0.7189 -1.5547  0.0933
  586MOL0     H79052   3.743   0.212   0.460  0.6375  0.0786  1.9776
  586MOL0     H79053   3.623   0.382   0.276  0.5750  2.2951 -2.5250
  586MOL0     H79054   3.776   0.365   0.183 -0.0541  1.8013  0.5500
  586MOL0     H79055   3.629   0.125   0.275  1.4490 -4.2916 -1.9641
  586MOL0     H79056   3.571   0.215   0.132 -2.3854 -1.9662  2.3813
  586MOL0     H79057   3.793   0.219   0.036 -0.9662 -0.1406 -1.3449
  586MOL0     H79058   3.857   0.097   0.156  0.3281  0.4542  1.5560
  586MOL0     H79059   3.772  -0.008  -0.066 -1.6565  0.4618 -2.0483
  586MOL0     H79060   3.603   0.025  -0.013 -1.3188 -0.7562  1.3127
  586MOL0     H79061   3.901  -0.171   0.146 -0.9110  3.1662  4.1210
  586MOL0     H79062   3.904  -0.417   0.280  0.7960 -2.2562  2.1668
  586MOL0     H79063   3.761  -0.469   0.358  1.8739 -0.2685  1.5368
  586MOL0     H79064   3.813  -0.482   0.047 -2.0494  1.2375 -0.6930
  586MOL0     H79065   3.676  -0.557   0.143  0.1766  0.7768  1.9339
  586MOL0     H79066   3.831  -0.722   0.067  0.9923  1.4074 -0.6439
  586MOL0     H79067   3.827  -0.719   0.237  1.8843  2.2316  2.9526
  586MOL0     H79068   4.037  -0.644   0.258  0.8259 -5.2467  0.5161
  586MOL0     H79069   4.042  -0.548   0.099 -1.8701 -0.7082 -2.8271
  586MOL0     H79070   4.045  -0.839   0.337  1.9123 -0.0318  0.5550
  586MOL0     H79071   3.884  -1.006   0.474  0.4186 -0.3134 -1.1378
  586MOL0     H79072   3.861  -1.162   0.418 -3.3559  2.5866  1.3087
  586MOL0     H79073   4.014  -1.129   0.491  0.5377 -2.6569 -0.6903
  586MOL0     H79074   3.939  -1.470   0.503 -3.0481  0.4953 -0.5767
  586MOL0     H79075   3.877  -1.735   0.473 -1.0116 -1.3058 -0.6447
  586MOL0     H79076   4.108  -2.010   0.265 -1.7964 -2.1185 -1.7917
  586MOL0     H79077   4.090  -1.945   0.426  0.4781 -0.1680 -0.7685
  586MOL0     H79078   4.002  -2.167   0.425  0.3765  1.0124  0.2288
  586MOL0     H79079   3.868  -2.049   0.436  1.7681  2.2390  1.0535
  586MOL0     H79080   3.946  -2.186   0.174  2.4584 -0.2511  2.5406
  586MOL0     H79081   3.801  -2.087   0.199  2.0125  2.1312  0.0138
  586MOL0     H79082   3.867  -2.356   0.322  0.7979  0.1473 -0.1788
  586MOL0     H79083   3.733  -2.249   0.369 -0.4225  2.3567 -0.1567
  586MOL0     H79084   3.786  -2.371   0.091  2.2305 -1.0772  1.7883
  586MOL0     H79085   3.654  -2.249   0.134 -0.4673 -0.5240  0.5313
  586MOL0     H79086   3.716  -2.526   0.247 -0.4805 -1.3522  1.1082
  586MOL0     H79087   3.574  -2.438   0.303 -0.7675 -3.4676  0.7501
  586MOL0     H79088   3.642  -2.566   0.042 -1.5386 -0.2264 -2.5912
  586MOL0     H79089   3.529  -2.432   0.029  3.6150  1.2810  0.4698
  586MOL0     H79090   3.392  -2.652   0.063 -1.6119  3.7524 -1.0285
  586MOL0     H79091   3.396  -2.596   0.227 -1.0929 -1.5225 -0.7215
  586MOL0     H79092   4.081  -1.737   0.112  0.3961  0.8223 -0.6044
  586MOL0     H79093   4.139  -1.486   0.129 -0.8100  1.0261 -0.4541
  586MOL0     H79094   4.023  -1.147  -0.055  2.4504 -0.0555  0.1807
  586MOL0     H79095   4.097  -0.936  -0.073 -0.3014 -2.0059 -0.0412
  586MOL0     H79096   3.715   0.506   1.059 -0.0992  0.4591  0.3310
  586MOL0     H79097   3.706   0.700   1.236  0.7531 -0.3264  1.2592
  586MOL0     H79098   3.701   1.183   1.260 -0.2510  0.6324  1.2562
  586MOL0     H79099   3.739   1.389   1.351  1.3127  3.0058  4.1729
  586MOL0     H79100   3.806   1.605   1.413  0.3797  2.4220  0.6015
  586MOL0     H79101   3.733   1.569   1.557  1.7425  2.0238  2.8146
  586MOL0     H79102   3.876   1.693   1.699  0.6894  1.1128  0.6906
  586MOL0     H79103   3.828   1.778   1.554 -3.9347 -2.1935 -2.3660
  586MOL0     H79104   4.048   1.749   1.452  1.3476  1.3488  0.2824
  586MOL0     H79105   4.109   1.640   1.583 -0.2325  0.9996  3.3345
  586MOL0     H79106   4.185   1.804   1.707  0.6964  0.4793 -0.8962
  586MOL0     H79107   4.025   1.882   1.705 -0.3089 -1.6967  0.9909
  586MOL0     H79108   4.268   2.121   1.455  0.0545  2.2535  3.3642
  586MOL0     H79109   4.041   1.247   1.608 -1.7489  0.7464  1.5473
  586MOL0     H79110   4.023   1.018   1.509  0.6287  1.5237  3.4210
  587MOL0     O79111   0.414   9.900   4.839 -0.7856 -0.6203 -0.2880
  587MOL0     C79112   0.508   9.912   4.913 -0.5319  1.2602 -0.5744
  587MOL0     O79113   0.627   9.846   4.891  0.5765  0.0723  0.4486
  587MOL0     C79114   0.642   9.802   4.760  0.4526 -0.1109 -1.1240
  587MOL0     C79115   0.706   9.690   4.745  0.3854  1.1666  1.6538
  587MOL0     C79116   0.764   9.647   4.624 -0.2636  0.3000  0.3457
  587MOL0     C79117   0.759   9.729   4.515 -0.0834 -0.3972  0.1209
  587MOL0     O79118   0.827   9.677   4.402  0.5733 -0.3192 -0.4353
  587MOL0     C79119   0.803   9.755   4.274 -0.0891  0.4448 -0.2302
  587MOL0     C79120   0.903   9.703   4.171  0.6144  0.3695  1.2504
  587MOL0     C79121   1.048   9.746   4.203  0.8078  0.9663  0.9120
  587MOL0     C79122   1.130   9.615   4.252  0.6909  0.5430  0.2730
  587MOL0     C79123   1.286   9.642   4.276  0.3375 -0.0243  0.0045
  587MOL0     C79124   1.355   9.522   4.344  0.8107  0.1406  0.0427
  587MOL0     C79125   1.505   9.556   4.362  0.4372  0.4259  0.3029
  587MOL0     C79126   1.584   9.420   4.392  0.5225  0.6116  0.0395
  587MOL0     N79127   1.720   9.468   4.426  0.9116  0.1364 -0.6106
  587MOL0     C79128   1.812   9.533   4.345  0.4685  1.1056  0.1218
  587MOL0     C79129   1.926   9.538   4.422  0.5994  0.5719  0.1200
  587MOL0     C79130   2.044   9.603   4.377  0.4858 -0.3627 -0.5190
  587MOL0     C79131   2.103   9.569   4.236  0.2567  0.1326 -0.8767
  587MOL0     C79132   2.156   9.433   4.226 -1.0108  0.2177 -0.1295
  587MOL0     C79133   2.241   9.414   4.096 -0.2012  0.4709 -0.0868
  587MOL0     O79134   2.162   9.446   3.972  0.1836  0.0681 -0.0543
  587MOL0     C79135   2.228   9.483   3.862 -0.0947  0.5748  1.1396
  587MOL0     C79136   2.149   9.541   3.769 -0.1113 -0.5063  0.0688
  587MOL0     C79137   2.188   9.593   3.653 -0.1884  0.2789  0.4794
  587MOL0     C79138   2.081   9.662   3.563  0.1719 -0.3871  0.2962
  587MOL0     C79139   2.328   9.601   3.630  1.2318 -0.6285  0.6320
  587MOL0     C79140   2.392   9.665   3.513 -0.0887 -0.4508 -0.2058
  587MOL0     O79141   2.478   9.593   3.430 -0.0827  0.4136  0.4330
  587MOL0     C79142   2.517   9.631   3.305  0.6210 -0.0515 -0.8409
  587MOL0     C79143   2.460   9.718   3.214 -0.3173 -0.1764  0.2057
  587MOL0     C79144   2.509   9.738   3.085 -1.2801 -0.0958  0.3009
  587MOL0     C79145   2.629   9.666   3.046  0.0288  0.4720 -0.5242
  587MOL0     O79146   2.672   9.689   2.921 -0.1009 -0.0828 -0.5347
  587MOL0     C79147   2.722   9.582   2.841  0.4755  0.2547  0.0365
  587MOL0     C79148   2.652   9.441   2.870  0.8782 -0.8961 -0.0582
  587MOL0     C79149   2.652   9.346   2.754  0.6547 -0.1998  0.4776
  587MOL0     C79150   2.567   9.372   2.622 -1.3937 -0.0515  0.9244
  587MOL0     C79151   2.564   9.243   2.538  0.0071  1.0579 -0.1151
  587MOL0     C79152   2.494   9.258   2.405  0.1849  0.3844  0.0049
  587MOL0     C79153   2.527   9.156   2.305 -0.7552 -0.6856  0.1606
  587MOL0     C79154   2.426   9.150   2.191 -0.1321 -0.0729 -0.0104
  587MOL0    Cl79155   2.263   9.100   2.229  0.1777 -0.3942  0.0905
  587MOL0     C79156   2.692   9.587   3.144  0.0613 -0.5830 -0.0717
  587MOL0     C79157   2.627   9.559   3.262 -0.3196 -0.1118  0.5064
  587MOL0     O79158   2.359   9.785   3.501  0.4645 -0.1040 -0.1829
  587MOL0     C79159   2.413   9.552   3.728  0.2355 -0.0013  0.3684
  587MOL0     C79160   2.364   9.491   3.844 -0.7912  0.3355  0.3490
  587MOL0     N79161   1.897   9.476   4.543 -0.7542 -0.3360 -0.7972
  587MOL0     N79162   1.780   9.423   4.541 -0.9751 -0.2150  0.2634
  587MOL0     C79163   0.680   9.848   4.519 -0.2628 -0.1724 -0.2312
  587MOL0     C79164   0.619   9.880   4.644  0.4362  1.1194  0.1422
  587MOL0     C79165   0.499   9.994   5.032  1.4325  0.0082 -0.3192
  587MOL0     C79166   0.606  10.017   5.112  0.6930 -0.6790  0.8297
  587MOL0     C79167   0.606  10.098   5.218 -0.3103 -0.5086  0.6958
  587MOL0     C79168   0.490  10.169   5.249  0.6158 -0.7637 -0.0823
  587MOL0     O79169   0.493  10.250   5.366 -0.3918  0.3742  0.1037
  587MOL0     C79170   0.403  10.355   5.369  0.1268  0.1262 -0.5461
  587MOL0     C79171   0.451  10.447   5.479 -0.1043 -0.0384 -0.1275
  587MOL0     C79172   0.384  10.587   5.477  0.4608 -0.1171 -0.0890
  587MOL0     C79173   0.455  10.690   5.390  0.1155  0.7170  0.3763
  587MOL0     C79174   0.418  10.822   5.428 -0.5548 -0.3764  0.0063
  587MOL0     C79175   0.399  10.932   5.484  0.1052 -0.8975 -0.6647
  587MOL0     C79176   0.378  10.151   5.177 -0.1669  0.4498  0.5048
  587MOL0     C79177   0.379  10.062   5.067 -0.2807 -0.1710  0.4342
  587MOL0     H79178   0.734   9.628   4.830 -1.4484 -0.7793  0.9384
  587MOL0     H79179   0.821   9.556   4.610 -0.3253 -0.4913  4.2413
  587MOL0     H79180   0.699   9.754   4.241 -1.0622 -0.9268  2.5174
  587MOL0     H79181   0.807   9.864   4.285  0.8010  0.6790 -2.3225
  587MOL0     H79182   0.892   9.595   4.151 -0.9462  0.5827  0.8070
  587MOL0     H79183   0.880   9.753   4.076  2.7471 -3.9386 -1.8911
  587MOL0     H79184   1.084   9.781   4.107 -1.4341 -1.8802 -1.1568
  587MOL0     H79185   1.056   9.817   4.286  1.3131 -2.4444  4.1085
  587MOL0     H79186   1.072   9.576   4.336 -0.1984 -0.9460 -0.9919
  587MOL0     H79187   1.123   9.544   4.169  0.0411  0.3720  0.4691
  587MOL0     H79188   1.324   9.668   4.177  1.4729 -2.6969 -0.3332
  587MOL0     H79189   1.296   9.721   4.352 -5.5532 -2.6706  4.3781
  587MOL0     H79190   1.305   9.484   4.433  0.0398 -3.1466 -1.6196
  587MOL0     H79191   1.347   9.438   4.274  0.9387 -0.1751  0.4047
  587MOL0     H79192   1.550   9.602   4.273  1.1643  0.4133  0.6590
  587MOL0     H79193   1.510   9.619   4.450 -1.6495  0.9446  0.1027
  587MOL0     H79194   1.594   9.340   4.318  0.3205 -1.0337  1.7248
  587MOL0     H79195   1.546   9.390   4.490  1.4549  1.6622  0.7562
  587MOL0     H79196   1.796   9.562   4.241 -1.8854  0.3246  0.2217
  587MOL0     H79197   2.028   9.711   4.380 -2.0989 -0.6802  2.7008
  587MOL0     H79198   2.110   9.584   4.461  0.2569 -1.7522 -0.6203
  587MOL0     H79199   2.192   9.632   4.227  0.2404  0.3476  0.4052
  587MOL0     H79200   2.031   9.595   4.158  0.4560 -0.6124 -1.3231
  587MOL0     H79201   2.083   9.353   4.240  2.1709 -2.9048 -0.0507
  587MOL0     H79202   2.221   9.416   4.312 -0.2900  1.4325 -0.4128
  587MOL0     H79203   2.265   9.308   4.099  0.0583  0.5245  2.8377
  587MOL0     H79204   2.331   9.477   4.093  0.5553 -0.6023 -2.6507
  587MOL0     H79205   2.041   9.548   3.775 -0.0582  2.7617 -0.9997
  587MOL0     H79206   2.030   9.733   3.629 -0.8455 -0.0760 -0.7834
  587MOL0     H79207   2.116   9.709   3.471 -3.0210 -3.5983 -2.9036
  587MOL0     H79208   2.006   9.591   3.527 -1.5109  1.7349 -0.6265
  587MOL0     H79209   2.375   9.782   3.237 -1.9175 -2.2475  0.3814
  587MOL0     H79210   2.473   9.807   3.009  2.4188 -0.3615 -1.9650
  587MOL0     H79211   2.700   9.615   2.739 -1.3834  1.3026  0.7332
  587MOL0     H79212   2.830   9.566   2.852  0.1097 -2.1651  0.6273
  587MOL0     H79213   2.706   9.405   2.958  2.5659  0.0918 -0.6654
  587MOL0     H79214   2.547   9.450   2.899  1.2313 -3.4725  2.5400
  587MOL0     H79215   2.617   9.250   2.793 -1.1947  0.4959  0.6295
  587MOL0     H79216   2.754   9.325   2.722  0.4843  0.3707 -0.5077
  587MOL0     H79217   2.460   9.393   2.635 -1.6305 -1.0561  0.7308
  587MOL0     H79218   2.607   9.463   2.578 -0.0792 -0.6730  0.7786
  587MOL0     H79219   2.518   9.158   2.590  3.2733  0.8419  2.7971
  587MOL0     H79220   2.666   9.208   2.519 -0.2391 -0.8273  1.7011
  587MOL0     H79221   2.387   9.260   2.426  0.5359  3.4009  2.1576
  587MOL0     H79222   2.507   9.357   2.360 -0.1446  0.2670 -0.3516
  587MOL0     H79223   2.532   9.059   2.356  0.0233 -0.7260  0.0237
  587MOL0     H79224   2.621   9.187   2.258  0.5340  0.1735  3.0795
  587MOL0     H79225   2.464   9.079   2.117 -1.0521  1.7089 -2.3336
  587MOL0     H79226   2.429   9.249   2.143 -0.7289 -0.8772 -1.8010
  587MOL0     H79227   2.786   9.539   3.118  0.7973  2.4706 -3.9837
  587MOL0     H79228   2.681   9.496   3.332  1.9856  0.6376 -0.4848
  587MOL0     H79229   2.521   9.559   3.722  0.1983 -0.1904 -0.7353
  587MOL0     H79230   2.425   9.432   3.912 -1.6445  0.6953  1.4678
  587MOL0     H79231   0.659   9.914   4.435  1.6152  0.5258 -0.1956
  587MOL0     H79232   0.562   9.970   4.661 -0.1803  0.6685  0.4800
  587MOL0     H79233   0.693   9.954   5.095 -0.0710 -1.3847 -0.6263
  587MOL0     H79234   0.675  10.120   5.299 -1.1738  1.8076  0.8628
  587MOL0     H79235   0.404  10.409   5.274  0.5789  0.9458 -0.0808
  587MOL0     H79236   0.304  10.316   5.394  0.8363 -2.2993 -1.2606
  587MOL0     H79237   0.559  10.458   5.470  0.2121 -1.0429  1.8184
  587MOL0     H79238   0.447  10.395   5.575  3.0275  0.5636  0.4475
  587MOL0     H79239   0.388  10.617   5.582 -1.0642 -0.2139  0.0115
  587MOL0     H79240   0.282  10.580   5.438  1.3468 -1.9413 -2.3102
  587MOL0     H79241   0.447  10.671   5.283  3.1054 -2.2876  0.4925
  587MOL0     H79242   0.560  10.680   5.419 -0.3563 -0.0486  1.9204
  587MOL0     H79243   0.387  11.027   5.531 -0.4677 -0.6286 -1.3427
  587MOL0     H79244   0.289  10.206   5.207  0.1633  1.5384 -0.4155
  587MOL0     H79245   0.304  10.042   4.990  2.4320 -0.5065 -2.2893
  588MOL0     O79246   1.048   7.381  11.504  0.2213  0.5857 -0.7731
  588MOL0     C79247   0.964   7.296  11.546  0.1158 -1.4842  0.1567
  588MOL0     O79248   0.991   7.162  11.557 -0.5033  0.1157 -0.2997
  588MOL0     C79249   1.119   7.123  11.586 -0.1856  0.0093  0.5847
  588MOL0     C79250   1.222   7.192  11.648 -0.0646  0.7019  0.6159
  588MOL0     C79251   1.354   7.143  11.649  1.1088  0.6750  0.5159
  588MOL0     C79252   1.385   7.023  11.580  0.0576  0.4659 -0.7298
  588MOL0     O79253   1.523   6.989  11.583  0.6926 -0.1331 -0.2958
  588MOL0     C79254   1.572   6.916  11.469  0.2992 -0.2502 -0.3272
  588MOL0     C79255   1.708   6.960  11.431  0.9569 -0.5587  0.6700
  588MOL0     C79256   1.807   6.931  11.533 -0.4063 -0.4800 -1.1045
  588MOL0     C79257   1.954   6.946  11.487 -0.5029 -0.9239  0.7531
  588MOL0     C79258   2.052   6.951  11.607 -0.5921 -0.4629 -1.5608
  588MOL0     C79259   2.061   7.091  11.676 -0.4235  0.3552 -0.3458
  588MOL0     C79260   2.156   7.076  11.798 -0.3993  1.0324 -0.3922
  588MOL0     C79261   2.289   7.157  11.791  0.7338  0.0868 -0.2690
  588MOL0     N79262   2.357   7.153  11.917  0.0236 -1.1206  0.5833
  588MOL0     C79263   2.359   7.249  12.012  0.0425  0.3888  0.0745
  588MOL0     C79264   2.405   7.185  12.122 -0.2860 -0.4473  0.6133
  588MOL0     C79265   2.403   7.238  12.261  0.9208  0.3968  0.5851
  588MOL0     C79266   2.554   7.279  12.295 -0.5810  0.1119  1.0320
  588MOL0     C79267   2.567   7.382  12.403  0.0242 -0.1907 -0.2388
  588MOL0     C79268   2.708   7.428  12.419  0.8598 -0.3607  0.3720
  588MOL0     O79269   2.727   7.525  12.532  0.4592  0.0281  0.6536
  588MOL0     C79270   2.857   7.573  12.559 -0.6128 -0.1986  0.7940
  588MOL0     C79271   2.966   7.562  12.467 -0.3255  0.5835  0.0384
  588MOL0     C79272   3.093   7.612  12.506 -0.0840 -0.9558  0.1189
  588MOL0     C79273   3.191   7.611  12.397  0.5632  0.5050 -0.0903
  588MOL0     C79274   3.109   7.670  12.633  1.1466  1.1707 -1.1831
  588MOL0     C79275   3.244   7.704  12.700  0.9710  0.4716  0.5896
  588MOL0     O79276   3.363   7.639  12.663 -0.1139 -0.2594 -0.3121
  588MOL0     C79277   3.492   7.688  12.687  0.6835  1.0223  0.0104
  588MOL0     C79278   3.578   7.670  12.579  0.6321  1.2657 -0.8919
  588MOL0     C79279   3.712   7.712  12.586 -0.0095 -0.1841 -0.2696
  588MOL0     C79280   3.763   7.775  12.703  0.0571 -0.5659 -0.1648
  588MOL0     O79281   3.879   7.842  12.715 -0.6755 -0.0343 -0.3020
  588MOL0     C79282   3.989   7.811  12.627 -0.3031  0.3419 -0.5654
  588MOL0     C79283   4.126   7.858  12.676 -0.2627 -0.0293 -0.6477
  588MOL0     C79284   4.137   8.006  12.664  0.5594 -0.3900 -0.2858
  588MOL0     C79285   4.251   8.077  12.718 -0.4562 -0.1998  0.4502
  588MOL0     C79286   4.390   8.033  12.650 -0.1440  0.0140 -1.1005
  588MOL0     C79287   4.491   8.121  12.726 -0.6192  0.5112 -0.1600
  588MOL0     C79288   4.638   8.077  12.675  0.7381 -0.3612  0.0391
  588MOL0     C79289   4.736   8.158  12.745  0.6421  0.5512 -0.4148
  588MOL0    Cl79290   4.707   8.337  12.705 -0.0501 -0.2237  0.2569
  588MOL0     C79291   3.675   7.780  12.809  0.6787 -0.8225 -0.5234
  588MOL0     C79292   3.545   7.746  12.807  0.7034  0.4294 -0.2354
  588MOL0     O79293   3.240   7.787  12.791 -0.1122  0.1600 -0.0333
  588MOL0     C79294   2.998   7.675  12.719 -0.4163  1.1410 -0.2157
  588MOL0     C79295   2.872   7.622  12.686 -1.6498  0.0287 -0.0397
  588MOL0     N79296   2.438   7.055  12.090  0.7056  0.1717  0.1326
  588MOL0     N79297   2.419   7.041  11.963 -0.0116 -0.2394  0.0595
  588MOL0     C79298   1.283   6.954  11.516  0.4381 -0.5888 -0.2145
  588MOL0     C79299   1.152   7.003  11.526 -0.6099  0.1531  0.0331
  588MOL0     C79300   0.826   7.343  11.549  0.0193  0.7078 -0.8484
  588MOL0     C79301   0.723   7.254  11.518  0.1244 -0.7653  0.0546
  588MOL0     C79302   0.598   7.304  11.499  0.0806  1.0310  0.8292
  588MOL0     C79303   0.562   7.442  11.520  0.0290 -0.1065 -0.1107
  588MOL0     O79304   0.436   7.491  11.489 -0.9312  0.2870  0.2208
  588MOL0     C79305   0.383   7.454  11.363  0.2064  0.0039 -0.4176
  588MOL0     C79306   0.267   7.538  11.318  0.0522  0.6038 -0.2498
  588MOL0     C79307   0.222   7.487  11.186 -0.3057 -0.1291 -0.3058
  588MOL0     C79308   0.103   7.569  11.122  0.7993 -1.3157  0.2015
  588MOL0     C79309  -0.005   7.594  11.223 -0.3069 -0.2796 -0.5660
  588MOL0     C79310  -0.098   7.628  11.293 -0.4293  0.8182 -0.8502
  588MOL0     C79311   0.664   7.526  11.559  0.8418 -0.6277 -0.1198
  588MOL0     C79312   0.799   7.488  11.571 -0.4380  1.3456  0.4988
  588MOL0     H79313   1.196   7.281  11.705 -3.0968 -1.5273  3.0335
  588MOL0     H79314   1.420   7.200  11.713  2.5323 -2.5006  2.0950
  588MOL0     H79315   1.571   6.808  11.485  5.4720 -0.2991  1.7009
  588MOL0     H79316   1.507   6.937  11.384  1.1363  3.2591 -0.2780
  588MOL0     H79317   1.735   6.907  11.339 -1.5485  2.3451 -1.9762
  588MOL0     H79318   1.713   7.067  11.412  2.6080 -0.5579  0.9634
  588MOL0     H79319   1.784   6.989  11.624 -2.6992  1.4179 -2.7502
  588MOL0     H79320   1.799   6.825  11.556  1.1693 -0.0212  2.2609
  588MOL0     H79321   1.985   6.862  11.425 -1.2038 -3.2946  3.4050
  588MOL0     H79322   1.969   7.032  11.421  0.6159 -2.3335 -0.9005
  588MOL0     H79323   2.011   6.877  11.676 -0.1588 -2.0935 -2.9774
  588MOL0     H79324   2.148   6.909  11.576  1.4719  1.6634  1.4646
  588MOL0     H79325   2.098   7.159  11.599 -0.2311 -0.4460 -0.9792
  588MOL0     H79326   1.965   7.134  11.707  0.1605  1.8674 -0.5296
  588MOL0     H79327   2.098   7.119  11.881 -0.9731  0.3892 -0.4484
  588MOL0     H79328   2.173   6.971  11.824  1.9515  1.3831 -0.3317
  588MOL0     H79329   2.286   7.263  11.763  3.5200  0.7028  1.3722
  588MOL0     H79330   2.361   7.118  11.718 -0.7842  2.4668 -3.3019
  588MOL0     H79331   2.315   7.346  11.990 -0.2997 -0.0935 -1.4809
  588MOL0     H79332   2.331   7.320  12.272  1.3678  0.7786  0.6656
  588MOL0     H79333   2.352   7.176  12.336 -1.2301  2.4488  0.9382
  588MOL0     H79334   2.600   7.302  12.198 -1.8950 -2.8289 -0.4233
  588MOL0     H79335   2.610   7.189  12.324 -1.5002 -1.1862 -0.9789
  588MOL0     H79336   2.525   7.344  12.496  1.5838 -1.5601 -0.0583
  588MOL0     H79337   2.509   7.470  12.373  1.3811  0.1806 -1.9283
  588MOL0     H79338   2.730   7.474  12.322  0.6580  0.0279  0.5087
  588MOL0     H79339   2.773   7.342  12.439  0.6332  0.1420  4.0466
  588MOL0     H79340   2.957   7.530  12.364  0.4975 -0.8683  0.3886
  588MOL0     H79341   3.231   7.509  12.395  1.7539  0.9239 -3.2246
  588MOL0     H79342   3.153   7.639  12.298 -1.2282  1.3002  0.7811
  588MOL0     H79343   3.278   7.670  12.427  0.5947  0.7902 -0.7229
  588MOL0     H79344   3.528   7.633  12.490 -0.0488  0.1505 -0.0499
  588MOL0     H79345   3.775   7.710  12.498 -0.8357  0.0402 -0.8821
  588MOL0     H79346   3.995   7.702  12.628 -2.4803  0.0606  3.4893
  588MOL0     H79347   3.984   7.855  12.527  0.9846 -2.5728 -2.0368
  588MOL0     H79348   4.120   7.833  12.783 -0.7622 -0.0930 -0.6894
  588MOL0     H79349   4.206   7.803  12.624  0.7720 -1.1234  1.8966
  588MOL0     H79350   4.056   8.053  12.720  0.0190 -2.1496  0.4944
  588MOL0     H79351   4.121   8.036  12.560 -0.4035  2.2572  0.5464
  588MOL0     H79352   4.221   8.182  12.719 -2.5264 -0.7454  0.7654
  588MOL0     H79353   4.265   8.057  12.825  1.7084  2.3735  0.7500
  588MOL0     H79354   4.395   8.071  12.547 -0.2865 -2.5267 -2.1351
  588MOL0     H79355   4.403   7.924  12.644 -0.2402  0.0785 -3.2510
  588MOL0     H79356   4.475   8.220  12.682  1.5964 -1.1271 -5.4465
  588MOL0     H79357   4.478   8.110  12.834 -0.1759 -0.6210 -0.2070
  588MOL0     H79358   4.658   8.094  12.568 -2.6011  3.4924 -0.1959
  588MOL0     H79359   4.650   7.970  12.694 -1.1511 -1.1601 -2.5831
  588MOL0     H79360   4.840   8.128  12.726  0.1589  0.2432 -2.9236
  588MOL0     H79361   4.726   8.142  12.853  0.7094  4.1931  0.2456
  588MOL0     H79362   3.707   7.842  12.892  1.3513 -2.2510  0.3261
  588MOL0     H79363   3.483   7.749  12.896 -1.4174 -1.1096 -1.5490
  588MOL0     H79364   3.011   7.699  12.824 -0.3247  0.6849 -0.1237
  588MOL0     H79365   2.788   7.619  12.754  0.0414 -1.5433  2.1212
  588MOL0     H79366   1.297   6.864  11.457  0.6619  0.6549 -2.1547
  588MOL0     H79367   1.074   6.955  11.468  1.1227 -0.0197 -2.3019
  588MOL0     H79368   0.752   7.153  11.491 -0.9706 -1.5184  1.5603
  588MOL0     H79369   0.529   7.238  11.448  1.2113  1.4886 -1.4020
  588MOL0     H79370   0.455   7.436  11.284 -2.4711 -5.3501 -2.1306
  588MOL0     H79371   0.338   7.362  11.401  0.3335  0.1965  0.2174
  588MOL0     H79372   0.307   7.640  11.314  0.0649  0.6018 -0.1783
  588MOL0     H79373   0.184   7.523  11.388  0.2278 -1.5566 -0.4319
  588MOL0     H79374   0.190   7.383  11.200 -1.6191  0.3180  0.1474
  588MOL0     H79375   0.292   7.504  11.104 -1.3772 -2.5753 -1.8493
  588MOL0     H79376   0.060   7.521  11.033  1.9205 -0.0009 -1.1152
  588MOL0     H79377   0.143   7.666  11.090  0.5110 -1.9885 -2.4802
  588MOL0     H79378  -0.192   7.667  11.327 -0.2157  0.9483 -0.4138
  588MOL0     H79379   0.628   7.626  11.582  0.0907 -0.3554 -2.2631
  588MOL0     H79380   0.868   7.559  11.616 -4.0936  3.0053  4.1412
  589MOL0     O79381   6.840   7.005  10.184  0.1096 -0.8186 -0.3479
  589MOL0     C79382   6.932   7.088  10.194  0.2978  0.6350 -1.1142
  589MOL0     O79383   7.034   7.088  10.284 -0.2248 -0.3040  0.7862
  589MOL0     C79384   7.045   6.967  10.346  0.7149  0.4954 -0.5599
  589MOL0     C79385   7.114   6.854  10.294  0.1583 -0.1178  0.1171
  589MOL0     C79386   7.108   6.730  10.359  0.0511 -0.3638  0.8935
  589MOL0     C79387   7.046   6.717  10.484 -1.0712 -0.2182 -0.4411
  589MOL0     O79388   7.037   6.601  10.559 -0.0976 -0.7087  0.2676
  589MOL0     C79389   7.077   6.480  10.507  0.2119  0.9759 -0.6530
  589MOL0     C79390   7.021   6.384  10.605  0.3260 -0.2634  0.2933
  589MOL0     C79391   7.062   6.233  10.576  0.3643 -0.4961 -0.2741
  589MOL0     C79392   7.193   6.199  10.643  1.0262 -0.5957 -0.3365
  589MOL0     C79393   7.263   6.062  10.604 -0.5164 -0.0712  0.3150
  589MOL0     C79394   7.192   5.943  10.675  0.1574  0.0306  0.2515
  589MOL0     C79395   7.249   5.816  10.617 -1.1144 -0.3223 -0.2402
  589MOL0     C79396   7.153   5.740  10.523  0.9167 -0.6265 -0.5909
  589MOL0     N79397   7.203   5.600  10.497  0.4594  0.3248 -0.6118
  589MOL0     C79398   7.319   5.547  10.543 -0.5984  1.1288  0.4151
  589MOL0     C79399   7.325   5.422  10.488 -0.0590 -0.3645 -0.0888
  589MOL0     C79400   7.415   5.299  10.511 -0.5239  0.2686 -0.2312
  589MOL0     C79401   7.560   5.320  10.543  0.1485 -0.3772 -0.5107
  589MOL0     C79402   7.607   5.371  10.685  0.2151 -0.2050  0.2166
  589MOL0     C79403   7.750   5.419  10.685  0.3695 -0.2561 -0.2934
  589MOL0     O79404   7.744   5.556  10.629 -0.3874  1.0346 -0.1183
  589MOL0     C79405   7.710   5.657  10.712 -0.5378  0.4770 -0.7082
  589MOL0     C79406   7.740   5.659  10.852  0.5557  0.1127 -0.3892
  589MOL0     C79407   7.696   5.760  10.939 -0.0159  0.1202 -0.0450
  589MOL0     C79408   7.737   5.759  11.082 -0.7880  0.8915  1.0502
  589MOL0     C79409   7.616   5.862  10.887  0.3956  0.1208 -0.1691
  589MOL0     C79410   7.573   5.982  10.963  0.4656  0.3749  0.6005
  589MOL0     O79411   7.655   6.028  11.061  0.5039  0.2827 -0.1456
  589MOL0     C79412   7.597   6.123  11.145 -0.7201  1.0670 -0.3666
  589MOL0     C79413   7.677   6.247  11.174 -0.2476 -0.4009 -0.6507
  589MOL0     C79414   7.628   6.341  11.257  0.9904  0.1787 -1.1462
  589MOL0     C79415   7.501   6.317  11.315  0.2201 -0.7054  0.4576
  589MOL0     O79416   7.431   6.401  11.406 -0.1269 -0.4524  0.0464
  589MOL0     C79417   7.516   6.476  11.496 -0.3147 -0.3836 -0.6265
  589MOL0     C79418   7.595   6.362  11.586  0.5859  0.4502 -0.0940
  589MOL0     C79419   7.512   6.261  11.661  0.2339  0.4619  0.0423
  589MOL0     C79420   7.606   6.156  11.739  0.6175 -0.4392  0.6060
  589MOL0     C79421   7.505   6.047  11.792 -0.5184 -0.5946  0.4012
  589MOL0     C79422   7.536   5.982  11.924  0.9764  1.4987 -0.8262
  589MOL0     C79423   7.654   5.886  11.919 -0.4187 -0.0165 -0.1983
  589MOL0     C79424   7.799   5.955  11.912 -0.5945  0.9110  0.4618
  589MOL0    Cl79425   7.929   5.839  11.891 -0.4389 -0.6821  0.0673
  589MOL0     C79426   7.433   6.197  11.304  0.6119  0.6107 -0.2823
  589MOL0     C79427   7.482   6.097  11.218  0.6566 -0.7597  0.4151
  589MOL0     O79428   7.483   6.050  10.915  0.1377 -0.0583 -0.5789
  589MOL0     C79429   7.577   5.854  10.756  0.7849  1.1110  1.3444
  589MOL0     C79430   7.624   5.756  10.665  0.3891 -0.4103 -0.3605
  589MOL0     N79431   7.224   5.416  10.387  0.7984  0.3420 -0.1870
  589MOL0     N79432   7.155   5.522  10.393 -0.2128 -0.1333  0.2436
  589MOL0     C79433   6.975   6.832  10.538 -0.0868 -0.2665 -0.2332
  589MOL0     C79434   6.974   6.956  10.470 -0.9511  0.4797 -0.2761
  589MOL0     C79435   6.921   7.203  10.106  0.2838 -0.3430 -0.0773
  589MOL0     C79436   6.975   7.323  10.137  0.5897 -0.3710  0.0242
  589MOL0     C79437   6.930   7.437  10.072 -0.4697  0.6743 -0.7385
  589MOL0     C79438   6.841   7.427   9.968 -0.8193 -0.6124  0.6540
  589MOL0     O79439   6.804   7.547   9.903  0.1626  0.4931 -0.5138
  589MOL0     C79440   6.725   7.541   9.778  1.8422  0.7262 -0.2618
  589MOL0     C79441   6.585   7.583   9.819  0.2147  0.2529  0.3265
  589MOL0     C79442   6.572   7.740   9.816  0.3164  0.1665  0.6980
  589MOL0     C79443   6.565   7.793   9.674 -0.5510 -0.0838  0.4168
  589MOL0     C79444   6.459   7.894   9.661  0.4199 -0.1430  0.3060
  589MOL0     C79445   6.374   7.980   9.658  0.0969  0.1215  0.6767
  589MOL0     C79446   6.807   7.294   9.917  0.5377 -0.8542  0.3038
  589MOL0     C79447   6.840   7.185   9.993 -0.0264  0.3709  0.8122
  589MOL0     H79448   7.168   6.854  10.199 -0.7753  0.6882 -0.4373
  589MOL0     H79449   7.165   6.657  10.303  1.6152  2.9176 -2.1752
  589MOL0     H79450   7.046   6.450  10.406 -0.6854 -0.4459  0.0158
  589MOL0     H79451   7.186   6.484  10.517  0.1561  0.8230  0.0609
  589MOL0     H79452   7.051   6.410  10.707 -1.8044  0.1677  0.8675
  589MOL0     H79453   6.912   6.399  10.601  0.1883 -1.1617  0.4621
  589MOL0     H79454   6.981   6.170  10.614 -1.7265  0.9210 -2.1383
  589MOL0     H79455   7.071   6.211  10.470 -2.4798 -2.4220 -0.2246
  589MOL0     H79456   7.257   6.284  10.619 -1.5774  1.5650 -0.1026
  589MOL0     H79457   7.173   6.211  10.750  1.5113  2.2285 -0.4946
  589MOL0     H79458   7.265   6.043  10.496 -2.7338 -3.1421  0.6712
  589MOL0     H79459   7.367   6.059  10.638 -0.6906  0.8149  0.9760
  589MOL0     H79460   7.231   5.947  10.778  0.6719 -1.8215  0.1667
  589MOL0     H79461   7.084   5.951  10.659 -0.2421 -3.2505  0.5591
  589MOL0     H79462   7.337   5.841  10.556 -1.1199  1.4708  0.4266
  589MOL0     H79463   7.279   5.744  10.694  0.6741  0.8561  0.2363
  589MOL0     H79464   7.138   5.797  10.431 -1.5118 -3.0212 -1.7791
  589MOL0     H79465   7.054   5.725  10.567  0.7688  1.2449 -0.1644
  589MOL0     H79466   7.394   5.583  10.613  1.2054  1.3174 -1.5236
  589MOL0     H79467   7.368   5.242  10.591 -4.3095  3.2424 -0.0506
  589MOL0     H79468   7.393   5.242  10.420 -3.2447  0.3048  0.3322
  589MOL0     H79469   7.590   5.398  10.473  0.2503 -1.4528 -1.7049
  589MOL0     H79470   7.611   5.226  10.519  0.6370 -0.6020  1.2787
  589MOL0     H79471   7.593   5.292  10.760  1.8630 -1.7092 -0.9791
  589MOL0     H79472   7.539   5.454  10.709 -1.2727 -0.8785 -1.4466
  589MOL0     H79473   7.816   5.351  10.630 -0.6757 -1.4086 -0.1511
  589MOL0     H79474   7.798   5.423  10.783 -1.6976  2.3490  0.7228
  589MOL0     H79475   7.784   5.580  10.912  1.3485 -0.0355 -1.1483
  589MOL0     H79476   7.675   5.813  11.155  0.2431  4.0773 -0.2578
  589MOL0     H79477   7.740   5.652  11.103  0.1910  0.1958 -2.1502
  589MOL0     H79478   7.841   5.789  11.098  0.0016 -1.1727  0.1475
  589MOL0     H79479   7.774   6.262  11.127  0.1982 -4.2906 -1.3188
  589MOL0     H79480   7.686   6.427  11.285  1.1188  0.5524 -2.4700
  589MOL0     H79481   7.589   6.532  11.437  0.2573 -1.1614 -0.6756
  589MOL0     H79482   7.445   6.536  11.555  2.2463  1.2442  0.9728
  589MOL0     H79483   7.662   6.304  11.521  1.6209 -0.2835  1.5516
  589MOL0     H79484   7.665   6.406  11.658  1.2160 -1.6287  0.6527
  589MOL0     H79485   7.446   6.202  11.597  0.6140 -2.1583  1.9295
  589MOL0     H79486   7.458   6.324  11.732  3.7881  1.5598  1.9911
  589MOL0     H79487   7.671   6.105  11.667  1.5648 -0.0272  1.1414
  589MOL0     H79488   7.676   6.195  11.814  3.2066 -0.3557 -1.6780
  589MOL0     H79489   7.491   5.977  11.709 -2.3767 -0.2159  0.3463
  589MOL0     H79490   7.404   6.090  11.792  0.0473  0.8315  1.5677
  589MOL0     H79491   7.559   6.057  12.000 -3.1468  0.4579  1.7516
  589MOL0     H79492   7.447   5.937  11.968  3.5894 -0.7436  2.6729
  589MOL0     H79493   7.649   5.830  11.825 -2.2337 -1.7520  0.8369
  589MOL0     H79494   7.651   5.819  12.005  1.5132  1.2378  0.9089
  589MOL0     H79495   7.805   6.006  12.009  0.9447  2.5360 -0.4253
  589MOL0     H79496   7.800   6.022  11.826 -1.9217 -0.9676 -1.1052
  589MOL0     H79497   7.353   6.180  11.377  1.0908  1.9755  0.5915
  589MOL0     H79498   7.436   5.999  11.209 -1.0943 -0.0887  1.5822
  589MOL0     H79499   7.521   5.931  10.703  0.7732 -0.3730 -0.9173
  589MOL0     H79500   7.593   5.747  10.561 -2.7949  2.7768  0.1200
  589MOL0     H79501   6.932   6.823  10.637  2.7360  0.2008  1.1379
  589MOL0     H79502   6.921   7.046  10.499  0.3685  1.2184 -0.0794
  589MOL0     H79503   7.034   7.335  10.228 -0.1623 -1.3465  0.6688
  589MOL0     H79504   6.973   7.535  10.089  0.6583  0.2723 -1.2128
  589MOL0     H79505   6.777   7.604   9.705  1.0565 -2.2810 -3.6955
  589MOL0     H79506   6.717   7.444   9.729 -1.0371  0.5096  0.4682
  589MOL0     H79507   6.562   7.547   9.920  0.6258 -0.3453  0.2107
  589MOL0     H79508   6.506   7.539   9.757  0.0443 -1.6109  1.7679
  589MOL0     H79509   6.657   7.777   9.874 -0.1450  1.2311  0.7161
  589MOL0     H79510   6.476   7.765   9.864 -1.5945 -1.1397 -2.1911
  589MOL0     H79511   6.530   7.719   9.603 -3.7378 -0.7210  2.4416
  589MOL0     H79512   6.665   7.835   9.658  1.0426 -2.8894  2.2154
  589MOL0     H79513   6.303   8.061   9.653  0.8238  0.7515  0.4819
  589MOL0     H79514   6.754   7.271   9.825 -1.8944  0.4461  1.2805
  589MOL0     H79515   6.819   7.084   9.957 -0.3918 -0.0562  2.1839
  590MOL0     O79516  10.053   6.661   6.765 -0.1456 -0.5694  0.4162
  590MOL0     C79517  10.058   6.592   6.666  0.0986  0.1098 -0.0050
  590MOL0     O79518  10.012   6.626   6.547 -0.5299  0.3995  0.6334
  590MOL0     C79519   9.998   6.755   6.500  0.9388  0.1751 -0.1190
  590MOL0     C79520  10.101   6.845   6.491 -0.7924 -0.8413 -0.7183
  590MOL0     C79521  10.079   6.966   6.428 -0.1595  0.9775 -0.6255
  590MOL0     C79522   9.951   7.012   6.397  0.6465  0.5763  0.7629
  590MOL0     O79523   9.942   7.144   6.344  0.5425 -0.2712  0.7484
  590MOL0     C79524   9.818   7.215   6.353  0.7774  0.1085  0.0003
  590MOL0     C79525   9.841   7.367   6.336  0.0806 -0.4547  0.4835
  590MOL0     C79526   9.711   7.427   6.353 -0.1634  1.3085  0.1996
  590MOL0     C79527   9.675   7.534   6.258 -0.4460  0.6050  0.7904
  590MOL0     C79528   9.628   7.667   6.327 -0.5344  0.8860 -0.3547
  590MOL0     C79529   9.545   7.760   6.237 -0.7817  1.0080 -0.0849
  590MOL0     C79530   9.539   7.903   6.302 -0.2706  0.5896  0.2775
  590MOL0     C79531   9.438   7.902   6.418  0.1808  0.4942 -0.0379
  590MOL0     N79532   9.515   7.888   6.537  0.6027 -0.2899 -0.1812
  590MOL0     C79533   9.603   7.981   6.585 -0.0762  0.6105 -0.1288
  590MOL0     C79534   9.629   7.932   6.707 -0.9849 -0.6491 -0.3509
  590MOL0     C79535   9.722   8.009   6.811  0.4380 -0.0468  0.8040
  590MOL0     C79536   9.646   8.044   6.945 -0.1864  0.0974  0.6599
  590MOL0     C79537   9.748   8.093   7.051 -0.7436 -0.1469  1.0113
  590MOL0     C79538   9.666   8.092   7.180  0.7396 -0.6846 -0.4872
  590MOL0     O79539   9.546   8.180   7.165 -0.6700  0.2310 -0.4757
  590MOL0     C79540   9.453   8.175   7.268  0.1468 -0.3363 -0.1548
  590MOL0     C79541   9.477   8.125   7.396 -0.5323 -0.0792 -1.0488
  590MOL0     C79542   9.391   8.138   7.504  0.5255  0.4940 -0.1896
  590MOL0     C79543   9.439   8.091   7.646 -0.0197  0.0599  0.0642
  590MOL0     C79544   9.270   8.211   7.485 -0.2000 -0.0707  0.1134
  590MOL0     C79545   9.166   8.225   7.590 -0.5154 -1.0184  0.4521
  590MOL0     O79546   9.104   8.350   7.601  0.2569  0.6015 -0.9105
  590MOL0     C79547   8.996   8.366   7.698 -0.5764 -0.1798 -0.6874
  590MOL0     C79548   8.886   8.273   7.702 -1.1206 -0.7339 -0.5579
  590MOL0     C79549   8.786   8.292   7.798 -0.4705 -0.7579 -0.2170
  590MOL0     C79550   8.804   8.403   7.890  0.3268  0.2237  0.0522
  590MOL0     O79551   8.722   8.431   7.995 -0.2626 -0.3738 -0.8918
  590MOL0     C79552   8.635   8.326   8.041 -0.1553 -0.9644  0.0085
  590MOL0     C79553   8.581   8.351   8.182 -0.4828  0.1117  0.4520
  590MOL0     C79554   8.506   8.487   8.192  0.6585 -0.0916  0.0431
  590MOL0     C79555   8.477   8.519   8.335 -0.3346  0.0137 -0.1378
  590MOL0     C79556   8.368   8.626   8.360  0.5820  0.1391 -0.1301
  590MOL0     C79557   8.396   8.777   8.337  0.0976 -0.0190  0.0117
  590MOL0     C79558   8.271   8.855   8.343 -0.0946 -0.8130  0.5642
  590MOL0     C79559   8.183   8.842   8.476 -0.6009 -0.2804 -0.0542
  590MOL0    Cl79560   8.039   8.941   8.447  0.0738  0.0164  0.2785
  590MOL0     C79561   8.909   8.493   7.875 -0.6813  0.2001  0.2253
  590MOL0     C79562   9.005   8.479   7.771 -0.6421  0.1702 -0.6746
  590MOL0     O79563   9.152   8.135   7.663  0.5545  0.4645  0.7477
  590MOL0     C79564   9.235   8.245   7.355  0.6739  0.0208  0.5825
  590MOL0     C79565   9.329   8.237   7.248  0.3458  0.6297 -1.1320
  590MOL0     N79566   9.565   7.820   6.738  0.3250  0.3045 -0.2710
  590MOL0     N79567   9.495   7.786   6.633 -0.1226 -0.1791  0.1071
  590MOL0     C79568   9.837   6.935   6.437 -0.3760  0.2983  1.0258
  590MOL0     C79569   9.866   6.800   6.468  1.2609  0.2191 -1.0948
  590MOL0     C79570  10.103   6.456   6.680  1.1755  0.7109 -0.5637
  590MOL0     C79571  10.180   6.420   6.801 -0.9509  0.1744 -0.3522
  590MOL0     C79572  10.239   6.297   6.815  1.2712  1.4318  0.4708
  590MOL0     C79573  10.224   6.199   6.720 -0.7650 -0.4740  1.1811
  590MOL0     O79574  10.270   6.077   6.738 -0.5738  0.1519 -0.4349
  590MOL0     C79575  10.185   5.971   6.729  0.6437  0.6654  0.4093
  590MOL0     C79576  10.190   5.874   6.857 -0.4126 -0.0348 -1.7596
  590MOL0     C79577  10.311   5.776   6.858  1.1943 -1.1993  0.1089
  590MOL0     C79578  10.448   5.835   6.895  0.6890 -0.6245 -0.2461
  590MOL0     C79579  10.452   5.849   7.040 -0.6786  0.5393  0.5710
  590MOL0     C79580  10.434   5.870   7.158 -0.2988  0.4909 -0.0247
  590MOL0     C79581  10.158   6.228   6.600 -0.5576  0.4538  0.5533
  590MOL0     C79582  10.087   6.353   6.581  0.3596  0.9355  1.1437
  590MOL0     H79583  10.196   6.807   6.528 -0.7164 -0.4622 -0.5101
  590MOL0     H79584  10.164   7.034   6.427  1.2708 -0.7195  0.2037
  590MOL0     H79585   9.744   7.187   6.278 -0.2179  0.3531  0.8783
  590MOL0     H79586   9.773   7.196   6.451 -0.7691 -0.0684 -0.7176
  590MOL0     H79587   9.915   7.411   6.404  1.2021  0.0109 -1.0052
  590MOL0     H79588   9.869   7.369   6.231  2.7199 -2.2061  1.0778
  590MOL0     H79589   9.637   7.348   6.335  1.5596 -0.5820  0.9505
  590MOL0     H79590   9.706   7.450   6.460  4.6407  1.9944  0.4987
  590MOL0     H79591   9.754   7.566   6.190  2.2256 -1.6341  2.6034
  590MOL0     H79592   9.594   7.502   6.192 -0.1175  1.5943 -0.1187
  590MOL0     H79593   9.569   7.641   6.415  0.9076  1.4669  0.8386
  590MOL0     H79594   9.724   7.713   6.355 -0.3288 -0.0439  0.5248
  590MOL0     H79595   9.591   7.772   6.138 -0.3763  2.6688  0.2716
  590MOL0     H79596   9.441   7.736   6.215 -0.6522 -0.6832  1.0025
  590MOL0     H79597   9.637   7.935   6.338 -0.2652  2.6268 -1.3811
  590MOL0     H79598   9.508   7.975   6.226  4.8693  2.1186 -0.7556
  590MOL0     H79599   9.358   7.829   6.401  1.4758 -0.5782 -1.8271
  590MOL0     H79600   9.390   8.000   6.431  0.4062  0.5460  0.4258
  590MOL0     H79601   9.635   8.067   6.527 -1.0586  0.4038 -0.9954
  590MOL0     H79602   9.810   7.949   6.835  1.5175  1.6563  1.2713
  590MOL0     H79603   9.753   8.102   6.761  0.1718 -0.8055 -0.8189
  590MOL0     H79604   9.596   7.951   6.972  2.0313 -1.2453  0.3794
  590MOL0     H79605   9.582   8.126   6.909  0.0170 -1.3723 -3.5549
  590MOL0     H79606   9.774   8.196   7.021 -0.5356 -0.5410 -0.2122
  590MOL0     H79607   9.838   8.031   7.048  1.6155  2.9954 -0.9683
  590MOL0     H79608   9.715   8.140   7.265 -0.1717 -0.7166  0.0706
  590MOL0     H79609   9.644   7.986   7.199  3.1397 -1.7199 -2.8946
  590MOL0     H79610   9.575   8.081   7.412  0.8095  1.2109 -4.7446
  590MOL0     H79611   9.544   8.061   7.654 -0.3943 -1.2685  0.2683
  590MOL0     H79612   9.419   8.165   7.724  1.7769  0.6498  0.0002
  590MOL0     H79613   9.383   7.999   7.667 -0.2572  0.1640 -0.1082
  590MOL0     H79614   8.888   8.194   7.627 -1.1885 -1.4719  0.2041
  590MOL0     H79615   8.704   8.224   7.815 -0.2529 -0.4824  2.2401
  590MOL0     H79616   8.549   8.332   7.972 -1.8560  0.6201  2.1351
  590MOL0     H79617   8.680   8.226   8.046 -3.2159 -2.5198 -0.4317
  590MOL0     H79618   8.511   8.273   8.215 -2.2735  0.6836 -1.7449
  590MOL0     H79619   8.673   8.340   8.240  0.8718 -0.9682 -1.7709
  590MOL0     H79620   8.412   8.466   8.138  0.1759  1.3867  0.2671
  590MOL0     H79621   8.552   8.570   8.137  0.5045 -0.7490 -1.1070
  590MOL0     H79622   8.439   8.427   8.380 -4.3171  1.8824  0.7924
  590MOL0     H79623   8.573   8.536   8.383  0.8384 -1.7981 -1.7206
  590MOL0     H79624   8.316   8.608   8.455  0.2025 -0.3602 -0.4250
  590MOL0     H79625   8.294   8.592   8.287 -1.3787 -0.3154  1.9599
  590MOL0     H79626   8.455   8.826   8.415 -0.1829 -0.4885  0.5322
  590MOL0     H79627   8.441   8.790   8.238 -1.0379  1.9816 -0.2746
  590MOL0     H79628   8.212   8.817   8.259 -0.3839 -0.1848  0.4755
  590MOL0     H79629   8.284   8.960   8.316  3.1513 -1.4578 -0.8710
  590MOL0     H79630   8.241   8.886   8.558 -1.3739 -0.4853  0.6205
  590MOL0     H79631   8.156   8.737   8.494 -1.2215 -0.4587 -1.8123
  590MOL0     H79632   8.916   8.573   7.948 -4.1299  0.5925  0.3018
  590MOL0     H79633   9.070   8.565   7.755  1.1472 -1.0225 -0.1358
  590MOL0     H79634   9.143   8.302   7.344  0.2895 -0.8539 -0.9324
  590MOL0     H79635   9.302   8.280   7.152 -0.0669  1.3300 -0.7121
  590MOL0     H79636   9.737   6.968   6.408 -1.0311 -2.1075  0.2685
  590MOL0     H79637   9.784   6.729   6.479  2.8967 -1.7412 -0.9917
  590MOL0     H79638  10.183   6.481   6.891 -1.6308 -1.6736  0.9912
  590MOL0     H79639  10.305   6.278   6.899  0.2918 -1.4653  0.6796
  590MOL0     H79640  10.087   6.020   6.728  0.3368  0.0565 -0.0166
  590MOL0     H79641  10.198   5.919   6.634  3.1676  1.4089  0.2741
  590MOL0     H79642  10.100   5.816   6.880  0.0625  0.5727  2.4251
  590MOL0     H79643  10.207   5.939   6.943 -4.2101 -0.7494 -0.2804
  590MOL0     H79644  10.308   5.750   6.751  2.3260 -0.6682 -0.0627
  590MOL0     H79645  10.302   5.688   6.923 -2.3882  0.9772  3.0054
  590MOL0     H79646  10.448   5.934   6.848 -1.0637 -0.6200 -0.3073
  590MOL0     H79647  10.532   5.775   6.858  0.3668 -0.9662 -0.4313
  590MOL0     H79648  10.398   5.888   7.258 -1.5583  0.1168 -0.3950
  590MOL0     H79649  10.158   6.156   6.519  0.2622 -2.6725  3.1284
  590MOL0     H79650  10.033   6.382   6.492  1.0589  1.6629  0.9459
  591MOL0     O79651   6.880   2.296   7.212  0.1241 -0.1062 -0.2068
  591MOL0     C79652   6.933   2.186   7.237  0.2213  0.3446 -0.0132
  591MOL0     O79653   6.887   2.059   7.195  0.2627 -0.5787 -0.4999
  591MOL0     C79654   6.756   2.046   7.167  0.3878 -1.0711  0.4754
  591MOL0     C79655   6.729   1.989   7.047  0.4254 -0.4418 -0.1916
  591MOL0     C79656   6.596   1.960   7.019  0.0096  0.4883 -0.4416
  591MOL0     C79657   6.494   2.013   7.099 -0.6095  0.0700  0.5669
  591MOL0     O79658   6.363   2.023   7.047  0.5650  0.2606 -0.1960
  591MOL0     C79659   6.283   1.904   7.053 -0.3790 -0.2691  0.2683
  591MOL0     C79660   6.147   1.940   7.006  0.7571  0.7672  0.0058
  591MOL0     C79661   6.057   2.050   7.070 -0.1913 -0.3742 -0.1164
  591MOL0     C79662   6.054   2.030   7.220 -0.0237 -0.0270 -1.0311
  591MOL0     C79663   6.000   2.159   7.290 -0.0267  0.3827 -0.8753
  591MOL0     C79664   5.927   2.122   7.414 -0.4752  0.7024  0.4290
  591MOL0     C79665   5.839   2.241   7.457 -0.3651 -0.0014  0.3694
  591MOL0     C79666   5.791   2.256   7.601 -0.6736  0.2374 -0.3033
  591MOL0     N79667   5.671   2.340   7.616  0.5348 -0.2801  0.0289
  591MOL0     C79668   5.542   2.292   7.607 -0.0104 -0.0548  0.2996
  591MOL0     C79669   5.463   2.398   7.635 -0.2118 -0.5613 -0.2453
  591MOL0     C79670   5.313   2.419   7.628 -0.4460  0.2573  0.5326
  591MOL0     C79671   5.280   2.407   7.478 -0.1122 -0.1995  0.3047
  591MOL0     C79672   5.322   2.529   7.386  0.1434  0.1653 -0.3288
  591MOL0     C79673   5.222   2.563   7.278 -0.5130  0.7782  0.2793
  591MOL0     O79674   5.261   2.689   7.228 -0.3074 -0.7267 -0.0873
  591MOL0     C79675   5.184   2.738   7.124  0.6222  0.7753 -0.3508
  591MOL0     C79676   5.220   2.857   7.075  0.0225  0.5564 -0.2113
  591MOL0     C79677   5.160   2.927   6.972  0.8764  0.5489  0.3724
  591MOL0     C79678   5.216   3.058   6.931 -0.7603 -0.1683 -0.0244
  591MOL0     C79679   5.042   2.873   6.909  0.2372 -0.4741  0.0250
  591MOL0     C79680   4.969   2.937   6.798  0.4124 -0.1348 -0.0170
  591MOL0     O79681   4.911   2.859   6.707 -0.6158  0.0231 -0.4042
  591MOL0     C79682   4.820   2.905   6.618 -0.3798 -0.5343 -0.5163
  591MOL0     C79683   4.859   2.938   6.489 -1.0494  0.2026  0.8220
  591MOL0     C79684   4.767   2.992   6.406 -0.2777 -0.6143  0.1624
  591MOL0     C79685   4.638   3.008   6.447  0.9944 -0.2181  0.8803
  591MOL0     O79686   4.557   3.059   6.351 -0.7224  0.3127 -0.3071
  591MOL0     C79687   4.420   3.101   6.384 -0.1052  0.5787 -0.6185
  591MOL0     C79688   4.343   3.184   6.287 -0.1432  0.6595  1.0422
  591MOL0     C79689   4.197   3.187   6.327 -0.1926  0.0664  0.9693
  591MOL0     C79690   4.121   3.294   6.254 -0.6502 -0.0906  0.3367
  591MOL0     C79691   3.983   3.317   6.331 -0.5346 -0.8592  0.6439
  591MOL0     C79692   3.893   3.384   6.232 -0.1502  0.5122  0.4186
  591MOL0     C79693   3.755   3.438   6.294 -0.7275  0.8584  0.8313
  591MOL0     C79694   3.651   3.330   6.275  0.1868  0.5384  0.1920
  591MOL0    Cl79695   3.498   3.366   6.372  0.0054 -0.0303 -0.5230
  591MOL0     C79696   4.583   2.967   6.570  0.2999  0.6833 -0.3450
  591MOL0     C79697   4.682   2.907   6.650  0.6926  0.1241 -0.2480
  591MOL0     O79698   4.972   3.064   6.800  0.8887  0.7317 -0.2242
  591MOL0     C79699   5.002   2.752   6.958  0.0713  0.5909 -1.1312
  591MOL0     C79700   5.061   2.689   7.069 -0.6083  0.1769  0.4465
  591MOL0     N79701   5.545   2.502   7.669  0.2821 -0.2180 -0.0117
  591MOL0     N79702   5.665   2.466   7.649 -0.2265  0.1573 -0.1726
  591MOL0     C79703   6.522   2.073   7.220 -0.5049 -0.4664  0.5129
  591MOL0     C79704   6.658   2.091   7.252  0.5609 -0.5233 -0.1164
  591MOL0     C79705   7.064   2.191   7.296  0.4905  1.2635  1.0139
  591MOL0     C79706   7.123   2.316   7.328  0.7238  1.3803  0.2081
  591MOL0     C79707   7.263   2.318   7.368  0.2124 -0.3560 -0.3868
  591MOL0     C79708   7.333   2.195   7.384 -0.0459 -0.6310  0.2673
  591MOL0     O79709   7.455   2.195   7.425 -1.0910 -0.1332  0.1888
  591MOL0     C79710   7.520   2.318   7.481 -0.3016  0.1857 -0.4688
  591MOL0     C79711   7.655   2.295   7.541 -0.5817 -0.1860 -0.7709
  591MOL0     C79712   7.645   2.289   7.693 -0.9664 -0.2399 -1.6496
  591MOL0     C79713   7.554   2.175   7.751 -0.5050  0.0646 -0.4937
  591MOL0     C79714   7.594   2.046   7.692  0.7520 -0.2687 -0.7520
  591MOL0     C79715   7.624   1.941   7.641  0.2452  0.1407 -0.2481
  591MOL0     C79716   7.272   2.069   7.363 -0.1591 -0.2320 -0.5459
  591MOL0     C79717   7.140   2.076   7.314  1.0724  0.0141  0.3975
  591MOL0     H79718   6.812   1.964   6.982  0.6268  3.4946 -1.7590
  591MOL0     H79719   6.578   1.919   6.920 -1.9130  0.9957 -0.3555
  591MOL0     H79720   6.325   1.826   6.990 -0.5163 -0.9542  1.0070
  591MOL0     H79721   6.283   1.854   7.151 -2.3911 -5.6897 -2.1092
  591MOL0     H79722   6.163   1.983   6.907  2.0054  1.8343  0.6334
  591MOL0     H79723   6.089   1.849   6.991 -1.5066  2.1109  0.2788
  591MOL0     H79724   6.102   2.149   7.055  1.3494 -0.3038  3.6563
  591MOL0     H79725   5.957   2.057   7.027  0.3487  4.4473 -1.1158
  591MOL0     H79726   5.979   1.953   7.240 -1.1278  1.4560  0.9010
  591MOL0     H79727   6.140   1.998   7.279 -1.9540 -1.7306  1.0490
  591MOL0     H79728   6.082   2.231   7.292  1.5220 -1.2185 -2.3835
  591MOL0     H79729   5.920   2.191   7.223 -1.0661  1.8112  0.9434
  591MOL0     H79730   5.862   2.035   7.402 -0.6712  0.7165  1.3502
  591MOL0     H79731   6.010   2.111   7.485  0.1094  3.6033  0.3181
  591MOL0     H79732   5.879   2.337   7.422 -1.9595  0.6965  0.4133
  591MOL0     H79733   5.753   2.222   7.393  0.0996  0.2451 -0.3540
  591MOL0     H79734   5.876   2.294   7.658 -1.6686 -0.4266  1.7022
  591MOL0     H79735   5.761   2.157   7.635  4.4611 -2.0512 -1.4592
  591MOL0     H79736   5.511   2.193   7.577 -1.3063  0.9446 -1.8363
  591MOL0     H79737   5.273   2.337   7.688  0.0452 -0.1295  0.3461
  591MOL0     H79738   5.296   2.513   7.681 -0.7436 -2.0929  5.0987
  591MOL0     H79739   5.171   2.416   7.479 -0.1504  0.1256 -2.0320
  591MOL0     H79740   5.313   2.310   7.441  2.5585  0.6848  0.1538
  591MOL0     H79741   5.423   2.517   7.345  1.6994  2.1503  2.6040
  591MOL0     H79742   5.325   2.614   7.455  0.5312 -1.8106  2.2262
  591MOL0     H79743   5.125   2.586   7.323 -0.2791  1.6562  0.3608
  591MOL0     H79744   5.223   2.495   7.192 -0.2357  1.8062 -0.5561
  591MOL0     H79745   5.313   2.892   7.118 -0.5731  0.9980  0.7455
  591MOL0     H79746   5.152   3.146   6.946 -0.1701  0.1047  1.0405
  591MOL0     H79747   5.301   3.078   6.997  1.7839 -3.2988 -2.0803
  591MOL0     H79748   5.254   3.061   6.829 -0.0252  1.4548  0.2599
  591MOL0     H79749   4.958   2.937   6.444 -1.1453 -0.0608  0.6116
  591MOL0     H79750   4.786   3.016   6.302 -1.3456 -1.8846 -0.3659
  591MOL0     H79751   4.358   3.013   6.406  0.5090 -0.6148 -3.3085
  591MOL0     H79752   4.431   3.163   6.474  0.3888  1.8296 -1.5170
  591MOL0     H79753   4.380   3.287   6.300  1.8235  0.2076 -0.4961
  591MOL0     H79754   4.355   3.159   6.181  2.1151 -1.8889  1.7970
  591MOL0     H79755   4.187   3.198   6.436 -1.1673 -0.5116  0.9449
  591MOL0     H79756   4.149   3.091   6.309  1.7923 -0.3330 -3.1783
  591MOL0     H79757   4.181   3.385   6.270 -2.0544  0.5790  2.2223
  591MOL0     H79758   4.118   3.272   6.147  2.4066  2.3037 -0.3974
  591MOL0     H79759   4.004   3.383   6.415  2.6398  1.4832 -1.7727
  591MOL0     H79760   3.932   3.225   6.364 -0.4277 -1.5757 -1.0788
  591MOL0     H79761   3.949   3.466   6.186  2.6396 -2.2700 -1.5654
  591MOL0     H79762   3.871   3.308   6.156  1.0005 -0.9339  1.4646
  591MOL0     H79763   3.728   3.533   6.248  2.9548  0.8850 -1.7764
  591MOL0     H79764   3.774   3.448   6.401 -0.3636  0.9944  0.7538
  591MOL0     H79765   3.694   3.238   6.315  2.9024  1.6879  0.0850
  591MOL0     H79766   3.625   3.320   6.169 -0.4359  1.3111  0.2582
  591MOL0     H79767   4.481   2.978   6.605  0.0687 -2.7740  0.4792
  591MOL0     H79768   4.649   2.884   6.751 -1.9858 -1.4140 -1.3837
  591MOL0     H79769   4.916   2.694   6.928  0.0758 -1.2381  1.9120
  591MOL0     H79770   5.029   2.591   7.102 -3.9984  0.6246 -1.1536
  591MOL0     H79771   6.433   2.101   7.277 -1.2989 -1.8943  0.0416
  591MOL0     H79772   6.680   2.153   7.338 -3.2313  3.6039 -1.6923
  591MOL0     H79773   7.063   2.406   7.322 -0.1780  0.9397  1.8957
  591MOL0     H79774   7.308   2.414   7.387  2.3355 -1.0673 -1.4690
  591MOL0     H79775   7.525   2.387   7.397 -3.3744  2.8157  1.2929
  591MOL0     H79776   7.451   2.358   7.556 -1.0082 -2.6303  0.5422
  591MOL0     H79777   7.717   2.384   7.529 -2.1106  1.0402  0.0104
  591MOL0     H79778   7.696   2.199   7.509 -0.0857 -0.7133  1.2876
  591MOL0     H79779   7.621   2.385   7.740  0.4869 -1.4265  1.9062
  591MOL0     H79780   7.740   2.258   7.739 -0.8719 -0.0634 -1.7254
  591MOL0     H79781   7.449   2.193   7.725 -1.1697  0.9326  2.3898
  591MOL0     H79782   7.564   2.168   7.860 -3.9555 -0.0896 -0.0748
  591MOL0     H79783   7.654   1.850   7.593 -0.1175  0.5506 -1.2760
  591MOL0     H79784   7.319   1.972   7.374 -1.4778 -0.7458  0.7567
  591MOL0     H79785   7.093   1.984   7.280  0.3664 -0.3060  2.1765
  592MOL0     O79786  10.022   5.174   0.564  0.3221 -0.4529 -0.9640
  592MOL0     C79787   9.963   5.202   0.669 -0.7357  0.6742 -0.8054
  592MOL0     O79788  10.021   5.273   0.776 -0.2651 -0.3511  0.7614
  592MOL0     C79789  10.125   5.358   0.753 -0.8405 -0.1113  0.8124
  592MOL0     C79790  10.106   5.484   0.696 -0.4925 -0.1754 -0.0120
  592MOL0     C79791  10.208   5.572   0.679 -0.1092  0.5872  0.4710
  592MOL0     C79792  10.343   5.529   0.709  0.2477  0.5545 -0.4615
  592MOL0     O79793  10.463   5.595   0.678  0.1765  0.6863 -0.3033
  592MOL0     C79794  10.445   5.730   0.620  1.5647  0.9994 -0.2865
  592MOL0     C79795  10.585   5.783   0.583 -1.2691  0.6799  0.3632
  592MOL0     C79796  10.677   5.678   0.513  0.0732 -0.3884 -0.5746
  592MOL0     C79797  10.819   5.734   0.487 -0.8662  0.1506 -0.4721
  592MOL0     C79798  10.819   5.869   0.412 -0.5699 -0.6424  0.2073
  592MOL0     C79799  10.948   5.901   0.341  0.1572  0.2665  0.1065
  592MOL0     C79800  11.064   5.949   0.438 -0.4449 -0.3730 -0.5360
  592MOL0     C79801  11.196   5.964   0.354  0.3054 -0.2972  0.4204
  592MOL0     N79802  11.315   5.923   0.435 -0.6436 -0.3480  0.6403
  592MOL0     C79803  11.326   5.977   0.562  0.5208  0.4417 -0.0446
  592MOL0     C79804  11.405   5.887   0.626 -0.5023  0.0727 -0.5265
  592MOL0     C79805  11.436   5.873   0.775  0.6133 -0.1232  0.1216
  592MOL0     C79806  11.374   5.979   0.864  0.3644 -0.2968  0.7558
  592MOL0     C79807  11.417   5.962   1.008  0.5370  0.2399  0.5381
  592MOL0     C79808  11.356   5.839   1.079  0.2256 -0.0681 -0.4301
  592MOL0     O79809  11.408   5.712   1.059 -0.3191  0.0486  0.1592
  592MOL0     C79810  11.543   5.697   1.043 -0.1337  0.5585 -0.5627
  592MOL0     C79811  11.638   5.764   1.122 -0.9998  0.1814 -0.7450
  592MOL0     C79812  11.776   5.734   1.097 -0.0388 -0.0591 -0.1522
  592MOL0     C79813  11.878   5.802   1.174 -0.2323  0.3517 -0.1577
  592MOL0     C79814  11.811   5.617   1.018  0.5283 -1.1788 -0.9051
  592MOL0     C79815  11.942   5.548   1.022  0.0719  0.4453 -0.1978
  592MOL0     O79816  11.987   5.498   0.903 -0.1614  0.1253  0.2302
  592MOL0     C79817  12.100   5.424   0.899 -1.2910  0.2532 -0.4493
  592MOL0     C79818  12.121   5.302   0.963 -1.0709 -0.4103 -0.4784
  592MOL0     C79819  12.234   5.227   0.945 -0.9627  0.1640 -0.5446
  592MOL0     C79820  12.335   5.278   0.857  0.4563 -0.2944  0.3595
  592MOL0     O79821  12.454   5.202   0.847  0.4418  0.3211  0.9773
  592MOL0     C79822  12.516   5.195   0.710 -0.0067  0.6924 -0.6224
  592MOL0     C79823  12.415   5.128   0.612 -0.1598 -0.4404 -0.0619
  592MOL0     C79824  12.471   5.109   0.466  0.3109  0.1605 -0.7655
  592MOL0     C79825  12.466   5.238   0.395  0.6660 -0.1152 -0.0458
  592MOL0     C79826  12.476   5.225   0.242  0.4522 -0.3329  0.0339
  592MOL0     C79827  12.584   5.134   0.177 -0.5319  1.0650 -0.3981
  592MOL0     C79828  12.569   5.110   0.023 -0.5163 -0.6028  0.0842
  592MOL0     C79829  12.672   4.999  -0.019  0.1541  0.5304  0.1493
  592MOL0    Cl79830  12.626   4.928  -0.177  0.6264 -0.4095  0.6092
  592MOL0     C79831  12.319   5.401   0.787  0.8092  0.2658  0.6506
  592MOL0     C79832  12.199   5.470   0.817 -0.0020  0.3523  0.3418
  592MOL0     O79833  11.998   5.535   1.128  0.3663  0.1598 -0.0489
  592MOL0     C79834  11.717   5.572   0.932  0.5280 -0.2983  0.2044
  592MOL0     C79835  11.589   5.617   0.941  0.7426 -0.5635  0.2846
  592MOL0     N79836  11.434   5.785   0.538 -0.0225 -0.2456 -0.7172
  592MOL0     N79837  11.385   5.812   0.421 -0.1448  0.0466 -0.4423
  592MOL0     C79838  10.359   5.402   0.772 -1.4428 -0.5255  0.1414
  592MOL0     C79839  10.255   5.311   0.779 -0.0852 -0.1862  0.4550
  592MOL0     C79840   9.814   5.169   0.677  0.3818 -0.6347  0.1476
  592MOL0     C79841   9.744   5.162   0.562 -0.5016 -0.7605  0.3552
  592MOL0     C79842   9.609   5.123   0.565  0.1476  0.2758 -0.1701
  592MOL0     C79843   9.537   5.094   0.686  0.7321  0.0814 -0.4010
  592MOL0     O79844   9.410   5.070   0.672  0.5463  0.5309  0.9277
  592MOL0     C79845   9.319   5.104   0.773  1.0120  1.4500 -0.4548
  592MOL0     C79846   9.193   5.169   0.705 -0.1461 -0.0777  0.0448
  592MOL0     C79847   9.108   5.072   0.626 -0.0129 -0.5384 -0.6362
  592MOL0     C79848   8.969   5.123   0.594  0.8636  0.0792  0.2726
  592MOL0     C79849   8.975   5.224   0.490  0.2418 -0.6026 -0.1283
  592MOL0     C79850   8.995   5.302   0.408  0.0422  0.2427  1.1441
  592MOL0     C79851   9.613   5.096   0.798  1.0740 -0.2309  0.6875
  592MOL0     C79852   9.746   5.135   0.792 -0.9256 -0.7269 -0.1498
  592MOL0     H79853  10.007   5.505   0.656 -0.0350  0.9077 -0.6193
  592MOL0     H79854  10.184   5.668   0.636 -1.2647  0.6652  1.2752
  592MOL0     H79855  10.385   5.721   0.529  0.0835 -2.7270  0.8647
  592MOL0     H79856  10.393   5.794   0.691  0.5503 -1.3423  1.2179
  592MOL0     H79857  10.543   5.861   0.518 -1.6180  0.9237  0.8738
  592MOL0     H79858  10.638   5.829   0.666  4.0133 -1.6132 -1.3060
  592MOL0     H79859  10.689   5.591   0.579 -0.8676 -0.2244 -0.1780
  592MOL0     H79860  10.626   5.652   0.420  0.9669  0.5409 -1.3520
  592MOL0     H79861  10.872   5.745   0.582  0.5097 -1.9147 -0.9250
  592MOL0     H79862  10.882   5.670   0.424  0.7010  1.8364 -0.7149
  592MOL0     H79863  10.744   5.872   0.332 -1.4108  1.9026  1.0069
  592MOL0     H79864  10.791   5.956   0.471  0.6253  0.3601 -0.6394
  592MOL0     H79865  10.992   5.812   0.296 -1.7406 -1.0128  0.6298
  592MOL0     H79866  10.930   5.977   0.264  0.6533  0.2894  0.0128
  592MOL0     H79867  11.052   6.048   0.484  0.0340 -0.5689  0.0236
  592MOL0     H79868  11.083   5.886   0.526  1.4081  2.3661  1.1726
  592MOL0     H79869  11.192   6.069   0.325 -1.1950  0.4232  2.9217
  592MOL0     H79870  11.188   5.893   0.272  0.2444  0.0969  0.0832
  592MOL0     H79871  11.270   6.065   0.592  0.0963  0.1261  0.1129
  592MOL0     H79872  11.397   5.773   0.795  1.0734  0.0464  2.1168
  592MOL0     H79873  11.544   5.868   0.791  0.4230 -3.9176  1.0650
  592MOL0     H79874  11.265   5.967   0.866  0.3258 -0.2621 -0.6933
  592MOL0     H79875  11.395   6.080   0.829 -0.6777 -0.6398 -0.9411
  592MOL0     H79876  11.379   6.055   1.050  1.4635  0.6586  0.4637
  592MOL0     H79877  11.522   5.987   1.025 -0.3335  2.4448  3.5700
  592MOL0     H79878  11.253   5.830   1.042  0.9488 -1.7927 -2.2260
  592MOL0     H79879  11.356   5.861   1.186 -0.0619  2.8421 -0.9390
  592MOL0     H79880  11.610   5.829   1.204  0.0631 -1.5454  1.0821
  592MOL0     H79881  11.908   5.756   1.268 -0.4928 -1.5412 -0.9582
  592MOL0     H79882  11.971   5.797   1.117  1.5640  0.2051  2.5991
  592MOL0     H79883  11.850   5.906   1.189 -2.6852  0.6015 -4.5793
  592MOL0     H79884  12.044   5.270   1.033 -1.0745 -0.8947 -0.7008
  592MOL0     H79885  12.249   5.136   1.003 -4.1975  0.8197  1.5906
  592MOL0     H79886  12.550   5.294   0.679  4.1769  0.2616  1.8554
  592MOL0     H79887  12.608   5.136   0.706  0.0825  0.6482  1.2583
  592MOL0     H79888  12.378   5.031   0.647 -0.0814 -1.3367 -2.2904
  592MOL0     H79889  12.324   5.187   0.606  0.0242 -0.0358  0.9748
  592MOL0     H79890  12.412   5.038   0.408 -2.0473  2.0431 -0.8185
  592MOL0     H79891  12.570   5.063   0.469  0.0064 -0.4407  0.4924
  592MOL0     H79892  12.366   5.276   0.418  0.7097 -0.3264  0.5179
  592MOL0     H79893  12.537   5.313   0.430  0.1085  0.4279 -0.0787
  592MOL0     H79894  12.477   5.329   0.207  0.6053  1.4765  4.6862
  592MOL0     H79895  12.382   5.181   0.207  0.2054 -0.1136  0.4095
  592MOL0     H79896  12.682   5.178   0.194 -0.5258  0.4030  1.4165
  592MOL0     H79897  12.578   5.037   0.226 -0.2650  0.4706 -1.5025
  592MOL0     H79898  12.598   5.198  -0.036  3.2130 -3.2414 -2.4493
  592MOL0     H79899  12.469   5.084  -0.013 -0.0547 -2.1078 -0.1559
  592MOL0     H79900  12.649   4.912   0.044  5.2922 -1.4536 -0.2566
  592MOL0     H79901  12.780   5.018  -0.017  0.2069  1.2205 -3.5925
  592MOL0     H79902  12.392   5.446   0.720  2.8513  0.8373  3.0770
  592MOL0     H79903  12.173   5.566   0.773  0.7331  0.1519 -0.5446
  592MOL0     H79904  11.733   5.498   0.854  0.9456  1.5476 -1.5363
  592MOL0     H79905  11.508   5.576   0.882 -0.6997  2.1125  0.2239
  592MOL0     H79906  10.458   5.378   0.808 -0.7668 -1.0776 -1.9522
  592MOL0     H79907  10.257   5.218   0.835 -2.6403 -1.3453 -1.2187
  592MOL0     H79908   9.794   5.183   0.468  1.5010  1.2891  1.7876
  592MOL0     H79909   9.543   5.132   0.480 -1.5105  0.6949  1.1158
  592MOL0     H79910   9.281   5.008   0.808 -3.0666  3.1439  0.3327
  592MOL0     H79911   9.367   5.174   0.843  4.7149 -2.5062  1.4683
  592MOL0     H79912   9.209   5.255   0.639 -0.6127  0.6505  0.8776
  592MOL0     H79913   9.137   5.218   0.785  2.1797  2.8333  0.0750
  592MOL0     H79914   9.103   4.977   0.681  1.5553 -2.1891 -3.1155
  592MOL0     H79915   9.158   5.033   0.537  0.5072 -2.4723  0.4405
  592MOL0     H79916   8.932   5.164   0.689 -1.6207 -2.6828  0.6322
  592MOL0     H79917   8.905   5.040   0.561 -2.3785  2.0831  1.1202
  592MOL0     H79918   9.019   5.354   0.317 -3.3558 -0.7658 -0.5149
  592MOL0     H79919   9.572   5.049   0.887  2.4036  2.0186  2.6103
  592MOL0     H79920   9.800   5.123   0.885  1.4946  3.1592 -0.7826
  593MOL0     O79921   6.720   0.329   4.679 -0.2788 -0.4073  0.2381
  593MOL0     C79922   6.803   0.277   4.613  0.6468  0.4237  0.3520
  593MOL0     O79923   6.810   0.268   4.474  0.5923 -0.5588 -0.2289
  593MOL0     C79924   6.695   0.304   4.402 -1.2258  0.4329  0.1221
  593MOL0     C79925   6.628   0.202   4.328 -0.1206 -0.0293 -0.9125
  593MOL0     C79926   6.536   0.241   4.233  0.7210 -0.2693  0.6412
  593MOL0     C79927   6.483   0.377   4.238 -0.7415  0.6626 -1.1394
  593MOL0     O79928   6.387   0.394   4.149  0.4562  0.3033  0.2736
  593MOL0     C79929   6.303   0.508   4.180 -0.5228 -0.3644 -0.6019
  593MOL0     C79930   6.168   0.481   4.109 -1.0302 -0.5474 -1.2104
  593MOL0     C79931   6.093   0.355   4.165 -0.4313 -0.0407 -0.3437
  593MOL0     C79932   5.993   0.315   4.063 -0.2148  0.0623  0.2491
  593MOL0     C79933   5.942   0.172   4.077  1.0102 -0.3907  0.6618
  593MOL0     C79934   5.849   0.139   3.966  0.7015 -0.5810  0.3870
  593MOL0     C79935   5.755   0.030   3.993  0.2124 -0.5776 -0.0535
  593MOL0     C79936   5.825  -0.103   4.021 -0.7826 -0.8940 -0.7693
  593MOL0     N79937   5.726  -0.207   4.066 -0.1348  0.0359  0.3461
  593MOL0     C79938   5.671  -0.208   4.190 -0.2257 -0.4020 -0.1811
  593MOL0     C79939   5.561  -0.289   4.168  0.7316  0.2811 -0.1018
  593MOL0     C79940   5.456  -0.351   4.261 -0.7045 -0.3679  0.5684
  593MOL0     C79941   5.509  -0.483   4.322  0.0950 -0.3879 -1.6097
  593MOL0     C79942   5.402  -0.569   4.392 -0.3763 -0.2505 -0.9465
  593MOL0     C79943   5.457  -0.692   4.436  0.7461  0.8985  0.5530
  593MOL0     O79944   5.351  -0.765   4.481  0.4220  0.7957  0.4614
  593MOL0     C79945   5.355  -0.900   4.462 -0.8791 -0.8231  0.1242
  593MOL0     C79946   5.242  -0.973   4.459 -0.4249  0.1640  1.4816
  593MOL0     C79947   5.236  -1.106   4.419 -0.9694  0.1917 -0.6013
  593MOL0     C79948   5.106  -1.156   4.359 -0.2528  0.3030  0.2393
  593MOL0     C79949   5.364  -1.171   4.400 -0.6681  0.2820  0.2137
  593MOL0     C79950   5.385  -1.308   4.353  0.8446 -0.4767 -0.5966
  593MOL0     O79951   5.277  -1.389   4.351 -0.1183 -0.3667  0.0089
  593MOL0     C79952   5.282  -1.520   4.331  0.3438 -0.0750  0.0140
  593MOL0     C79953   5.285  -1.614   4.440 -0.3860 -0.3555 -0.5512
  593MOL0     C79954   5.302  -1.751   4.410 -0.4724 -0.4491 -0.9657
  593MOL0     C79955   5.307  -1.803   4.280 -0.6073 -0.0610 -0.1397
  593MOL0     O79956   5.310  -1.929   4.242 -0.0186 -0.1990  0.6569
  593MOL0     C79957   5.243  -2.025   4.328 -0.1604 -0.4369 -0.8746
  593MOL0     C79958   5.241  -2.167   4.289  0.6427 -0.3233 -0.0013
  593MOL0     C79959   5.377  -2.231   4.251  1.2289  0.2845  0.0191
  593MOL0     C79960   5.349  -2.355   4.160 -0.6302  0.0686  0.1450
  593MOL0     C79961   5.481  -2.412   4.123 -0.4967  0.5312  0.2074
  593MOL0     C79962   5.566  -2.471   4.236  0.6079  0.3710 -0.4181
  593MOL0     C79963   5.652  -2.589   4.172  0.4457  0.0927 -0.3259
  593MOL0     C79964   5.653  -2.708   4.266  0.2342 -0.1162  0.0296
  593MOL0    Cl79965   5.737  -2.835   4.176  0.2292 -0.2027  0.1518
  593MOL0     C79966   5.307  -1.708   4.179 -0.6511 -0.6007  0.0938
  593MOL0     C79967   5.291  -1.574   4.198 -0.2542  0.4637 -0.3063
  593MOL0     O79968   5.492  -1.354   4.332  0.2424 -0.5722 -0.4081
  593MOL0     C79969   5.485  -1.101   4.424 -0.2458 -0.4868  0.5456
  593MOL0     C79970   5.477  -0.966   4.455  0.2139 -0.4061  0.1034
  593MOL0     N79971   5.555  -0.314   4.031  1.2555 -0.2655 -0.4992
  593MOL0     N79972   5.652  -0.256   3.976 -0.6669 -0.2887  0.3800
  593MOL0     C79973   6.548   0.483   4.314 -0.3604  0.0946  0.6175
  593MOL0     C79974   6.660   0.438   4.389  1.1637 -0.1685  0.0831
  593MOL0     C79975   6.907   0.209   4.686  0.6065 -1.1511  0.2892
  593MOL0     C79976   6.931   0.249   4.818 -0.0244  0.7970 -0.8132
  593MOL0     C79977   7.041   0.195   4.884 -0.9044 -0.8429  0.5818
  593MOL0     C79978   7.126   0.113   4.815 -0.4711  0.9616 -0.3266
  593MOL0     O79979   7.249   0.070   4.864 -0.3002  0.5417  0.5748
  593MOL0     C79980   7.332   0.169   4.929 -0.0317  0.1704 -0.0522
  593MOL0     C79981   7.440   0.090   5.006 -0.3487  0.2195 -0.6943
  593MOL0     C79982   7.387   0.007   5.125 -0.2131  0.3010  0.5128
  593MOL0     C79983   7.479  -0.097   5.178 -0.7262  0.0732 -0.3194
  593MOL0     C79984   7.609  -0.034   5.229  0.2495  0.6125  0.6744
  593MOL0     C79985   7.714   0.017   5.267 -0.3924  0.5816  0.6537
  593MOL0     C79986   7.099   0.069   4.682  0.7915 -0.0494  0.5986
  593MOL0     C79987   6.993   0.122   4.622  0.6035 -0.5923 -0.0804
  593MOL0     H79988   6.652   0.096   4.329  2.5477  0.4718 -2.5400
  593MOL0     H79989   6.497   0.176   4.155  2.4108  0.1874 -0.6592
  593MOL0     H79990   6.283   0.540   4.283 -2.2753 -2.2961 -0.2701
  593MOL0     H79991   6.364   0.585   4.133  0.6131 -0.5615  0.4826
  593MOL0     H79992   6.105   0.570   4.115 -0.6981 -0.4195  0.8896
  593MOL0     H79993   6.183   0.469   4.001 -0.1177  1.2810 -1.3316
  593MOL0     H79994   6.164   0.274   4.185  0.4331  0.8202  0.1855
  593MOL0     H79995   6.038   0.375   4.258  1.5639  3.3912  0.2801
  593MOL0     H79996   5.909   0.384   4.072  0.4839  0.8173  1.2201
  593MOL0     H79997   6.042   0.326   3.966  0.9259 -1.4389  0.6208
  593MOL0     H79998   6.022   0.097   4.086 -0.0358 -1.8672 -1.3658
  593MOL0     H79999   5.888   0.181   4.171 -1.5372  0.9913 -0.8325
  593MOL0     H80000   5.787   0.225   3.938  1.3830 -0.0563  0.4824
  593MOL0     H80001   5.902   0.109   3.875  0.2745  0.6376 -0.2831
  593MOL0     H80002   5.690   0.061   4.075 -2.6026 -0.7930 -2.0463
  593MOL0     H80003   5.684   0.025   3.910 -1.9193  0.8831  1.5722
  593MOL0     H80004   5.900  -0.088   4.099  0.1727 -2.0347 -1.4474
  593MOL0     H80005   5.880  -0.141   3.935  0.8364 -1.0476  0.2851
  593MOL0     H80006   5.691  -0.157   4.284 -0.9811 -2.2375  1.0407
  593MOL0     H80007   5.424  -0.275   4.333  1.0958  0.9155  0.0885
  593MOL0     H80008   5.372  -0.390   4.203 -1.0557  0.5743  0.4313
  593MOL0     H80009   5.590  -0.456   4.391  0.6769  0.4652 -2.5987
  593MOL0     H80010   5.544  -0.549   4.242 -2.8329 -3.2407 -0.7026
  593MOL0     H80011   5.323  -0.582   4.318  0.2333  0.0425 -1.6609
  593MOL0     H80012   5.359  -0.511   4.474  0.7859 -1.7523  0.8133
  593MOL0     H80013   5.530  -0.675   4.515 -0.0514  0.9990  1.2836
  593MOL0     H80014   5.506  -0.738   4.350 -2.8464 -1.3071 -0.5732
  593MOL0     H80015   5.152  -0.912   4.453  0.6312  1.6884  0.5514
  593MOL0     H80016   5.131  -1.206   4.265  1.5064  0.3901  0.6314
  593MOL0     H80017   5.065  -1.225   4.434 -0.2768 -0.6872 -0.6490
  593MOL0     H80018   5.029  -1.085   4.327 -2.3799 -1.3649  1.3009
  593MOL0     H80019   5.279  -1.577   4.542 -0.3646  0.5969 -0.8809
  593MOL0     H80020   5.327  -1.820   4.490  2.1728  2.8655  1.3374
  593MOL0     H80021   5.297  -2.009   4.422 -1.8015  2.6070 -0.2936
  593MOL0     H80022   5.142  -1.986   4.342  0.2138  0.5323 -0.7907
  593MOL0     H80023   5.206  -2.223   4.376 -1.0146  1.8205  0.7896
  593MOL0     H80024   5.162  -2.172   4.214  0.8724 -0.1384 -0.2606
  593MOL0     H80025   5.428  -2.259   4.343  0.5883 -1.3865 -0.0906
  593MOL0     H80026   5.436  -2.156   4.197  1.0604  0.6943  0.4032
  593MOL0     H80027   5.277  -2.426   4.202  0.7901 -2.1261 -0.9221
  593MOL0     H80028   5.298  -2.301   4.080 -2.5268  0.9171  1.8335
  593MOL0     H80029   5.552  -2.341   4.079  3.0213 -1.7834  1.6711
  593MOL0     H80030   5.452  -2.481   4.043  1.2375 -0.4762  0.3901
  593MOL0     H80031   5.632  -2.392   4.272 -2.6793  2.9548  0.3936
  593MOL0     H80032   5.513  -2.514   4.321  2.3024  0.3733  0.6830
  593MOL0     H80033   5.757  -2.557   4.173  1.1212 -1.8834 -1.8174
  593MOL0     H80034   5.619  -2.608   4.069 -2.0745  0.4429  0.3446
  593MOL0     H80035   5.553  -2.738   4.297 -0.5115 -1.5296 -3.2514
  593MOL0     H80036   5.706  -2.677   4.356 -2.2201  0.9268  1.1918
  593MOL0     H80037   5.326  -1.745   4.079  1.2759 -2.1018  0.9505
  593MOL0     H80038   5.281  -1.492   4.127 -0.5983 -0.1480 -0.9740
  593MOL0     H80039   5.585  -1.143   4.413 -0.1349  0.4033 -3.0844
  593MOL0     H80040   5.569  -0.915   4.482  0.1862 -1.2598  1.9885
  593MOL0     H80041   6.520   0.587   4.306  1.5053  0.6875  1.3496
  593MOL0     H80042   6.721   0.509   4.444  0.2077  1.3026 -0.6705
  593MOL0     H80043   6.859   0.316   4.862 -0.4213 -0.5410  0.6728
  593MOL0     H80044   7.047   0.231   4.987  0.3130  2.2171 -0.4448
  593MOL0     H80045   7.381   0.223   4.847 -0.0992 -0.3531 -0.4435
  593MOL0     H80046   7.276   0.241   4.989 -1.0009 -0.1073 -0.5892
  593MOL0     H80047   7.508   0.168   5.042 -1.2422  1.4346 -1.5681
  593MOL0     H80048   7.495   0.025   4.937 -0.9791  0.6298 -1.6055
  593MOL0     H80049   7.298  -0.050   5.098  1.5272 -1.5356 -1.7890
  593MOL0     H80050   7.353   0.070   5.208 -2.7593 -2.5265  1.8108
  593MOL0     H80051   7.498  -0.162   5.093 -0.7156 -1.7308  1.0121
  593MOL0     H80052   7.424  -0.146   5.259 -0.7138 -0.3815 -0.5832
  593MOL0     H80053   7.815   0.049   5.283  0.3484  2.5220 -5.2443
  593MOL0     H80054   7.151  -0.012   4.633 -0.2157 -0.1739 -0.3022
  593MOL0     H80055   6.983   0.091   4.518  0.4525 -3.4216  0.6873
  594MOL0     O80056  10.062   8.496   7.567  0.1030  0.5972  0.0192
  594MOL0     C80057  10.019   8.527   7.453  0.3210 -0.7743 -0.3371
  594MOL0     O80058   9.890   8.567   7.427 -0.1763 -0.2353 -0.3576
  594MOL0     C80059   9.789   8.554   7.518 -0.5832  0.0481 -0.0860
  594MOL0     C80060   9.781   8.633   7.630  0.2410  0.3365 -0.3760
  594MOL0     C80061   9.672   8.616   7.722  0.8608 -0.0590  0.6757
  594MOL0     C80062   9.576   8.520   7.704  0.7211 -0.1058 -0.4498
  594MOL0     O80063   9.463   8.505   7.779  0.4116 -0.4376  0.3070
  594MOL0     C80064   9.471   8.543   7.919  0.6269  0.1556 -0.3828
  594MOL0     C80065   9.334   8.507   7.990  0.0072  0.6647  0.2772
  594MOL0     C80066   9.338   8.356   8.008  0.8749  0.4197 -0.6299
  594MOL0     C80067   9.197   8.293   8.011  0.3486 -0.2909  0.6748
  594MOL0     C80068   9.201   8.138   7.985  0.9335  0.1895  0.0357
  594MOL0     C80069   9.286   8.069   8.090  0.2264 -0.1407  0.2744
  594MOL0     C80070   9.292   7.917   8.083 -0.3495 -0.0660 -0.2236
  594MOL0     C80071   9.160   7.847   8.115  0.4658  1.3608  0.0090
  594MOL0     N80072   9.184   7.699   8.120  0.0375  0.6399  0.1290
  594MOL0     C80073   9.244   7.617   8.216 -0.5499  0.0096  0.0064
  594MOL0     C80074   9.210   7.488   8.189  0.6852  0.7531 -0.1673
  594MOL0     C80075   9.268   7.358   8.255 -0.4352 -0.6756  0.4077
  594MOL0     C80076   9.190   7.324   8.378  0.0944 -0.5388  0.7177
  594MOL0     C80077   9.032   7.302   8.352 -0.3674  0.2917  0.2888
  594MOL0     C80078   8.966   7.220   8.463  0.2030  0.7557 -0.1036
  594MOL0     O80079   8.955   7.301   8.579  0.3804  0.7310  0.4905
  594MOL0     C80080   8.949   7.242   8.700  0.1393  0.4974  1.1191
  594MOL0     C80081   8.974   7.318   8.814  0.4592 -0.3537 -0.7800
  594MOL0     C80082   8.943   7.280   8.951  0.2172  0.1227 -0.3251
  594MOL0     C80083   8.936   7.396   9.046  0.1227 -0.0085  0.2856
  594MOL0     C80084   8.929   7.133   8.965 -0.3501  1.0911  0.6543
  594MOL0     C80085   8.905   7.076   9.098  0.6801 -0.5862 -0.6751
  594MOL0     O80086   8.849   6.949   9.104 -0.3771 -0.8051 -0.5346
  594MOL0     C80087   8.832   6.895   9.232  0.4708 -0.5599  0.4055
  594MOL0     C80088   8.704   6.886   9.275 -0.2053 -0.9019 -1.2244
  594MOL0     C80089   8.693   6.832   9.406 -0.0318  0.6756  0.0440
  594MOL0     C80090   8.794   6.776   9.482 -0.9984 -0.8849 -0.1460
  594MOL0     O80091   8.782   6.723   9.610  0.8239 -0.1385  0.5769
  594MOL0     C80092   8.655   6.681   9.665 -0.1517  0.3394  0.6714
  594MOL0     C80093   8.658   6.623   9.811 -0.3894 -0.3622  0.4083
  594MOL0     C80094   8.727   6.492   9.823 -0.0066  0.0157  0.8262
  594MOL0     C80095   8.721   6.451   9.972  0.0924 -0.7738  0.0571
  594MOL0     C80096   8.802   6.341  10.025  0.1776  0.4951  0.4760
  594MOL0     C80097   8.761   6.213   9.965  0.3593 -0.1467  0.6156
  594MOL0     C80098   8.880   6.141   9.902 -0.9340  0.1086 -1.2057
  594MOL0     C80099   8.853   5.989   9.870 -0.8276  0.1066  0.1701
  594MOL0    Cl80100   8.967   5.933   9.747  0.3632 -0.0774 -0.1389
  594MOL0     C80101   8.926   6.789   9.435  0.6438 -0.0070 -0.5322
  594MOL0     C80102   8.947   6.849   9.304  0.9491 -0.1193 -0.0311
  594MOL0     O80103   8.938   7.142   9.196 -0.1845 -0.7712  0.6330
  594MOL0     C80104   8.925   7.057   8.848 -0.5634  0.2053 -0.2722
  594MOL0     C80105   8.927   7.109   8.719 -0.2441  0.9120 -0.7007
  594MOL0     N80106   9.134   7.483   8.072  0.5190  0.1808 -0.0875
  594MOL0     N80107   9.121   7.615   8.045  0.4419  0.7252 -0.0465
  594MOL0     C80108   9.589   8.445   7.592 -0.5452  0.7417 -0.0105
  594MOL0     C80109   9.698   8.456   7.497 -0.2426 -0.1316 -0.6243
  594MOL0     C80110  10.117   8.531   7.347  0.6594 -0.2619  0.3299
  594MOL0     C80111  10.243   8.480   7.364  0.3221  0.2121  0.5977
  594MOL0     C80112  10.341   8.495   7.272  0.9552  0.1211 -0.1341
  594MOL0     C80113  10.308   8.559   7.153 -0.1572  0.4275  0.1207
  594MOL0     O80114  10.413   8.582   7.065  0.4372  0.5617 -0.4161
  594MOL0     C80115  10.478   8.461   7.009 -0.7189 -0.4603  0.4652
  594MOL0     C80116  10.623   8.512   6.961  0.5917 -0.1695 -0.4697
  594MOL0     C80117  10.623   8.590   6.829  0.6065  0.4238 -0.9180
  594MOL0     C80118  10.645   8.504   6.700  0.2293 -0.3544  0.0477
  594MOL0     C80119  10.611   8.576   6.585 -0.2005  0.6507 -0.1638
  594MOL0     C80120  10.566   8.646   6.492  0.2627 -0.6928 -0.2068
  594MOL0     C80121  10.180   8.606   7.127 -0.6641  0.5903  0.6436
  594MOL0     C80122  10.081   8.586   7.225  0.6900 -0.9124  0.6402
  594MOL0     H80123   9.857   8.708   7.651 -1.0970  0.9067  3.2897
  594MOL0     H80124   9.656   8.684   7.805 -2.2436  0.9943 -0.6371
  594MOL0     H80125   9.549   8.484   7.968  0.1835 -0.0753  0.0628
  594MOL0     H80126   9.489   8.650   7.922  1.0503  0.0789  1.8339
  594MOL0     H80127   9.330   8.552   8.089 -1.8132  2.6510 -0.6305
  594MOL0     H80128   9.249   8.532   7.927 -0.5754 -1.7605 -0.0182
  594MOL0     H80129   9.385   8.308   7.922 -3.0596 -0.2490 -2.6238
  594MOL0     H80130   9.394   8.333   8.100 -3.9970 -0.2147  2.5552
  594MOL0     H80131   9.153   8.316   8.109 -0.8092 -0.8137  0.2958
  594MOL0     H80132   9.135   8.347   7.940  0.1507  0.3975  1.3522
  594MOL0     H80133   9.099   8.103   7.998  0.2678  2.2732  0.8680
  594MOL0     H80134   9.252   8.117   7.890  1.4581  1.8051 -0.0773
  594MOL0     H80135   9.390   8.100   8.082 -0.0589  0.9584  0.6284
  594MOL0     H80136   9.253   8.098   8.190 -0.9665  2.9645 -0.9193
  594MOL0     H80137   9.336   7.885   7.988  0.0890 -1.2912  0.3693
  594MOL0     H80138   9.368   7.889   8.157 -0.4434  2.3014  0.8476
  594MOL0     H80139   9.090   7.875   8.036  0.2435 -1.9564 -1.0975
  594MOL0     H80140   9.116   7.873   8.212  1.2053  0.2238  0.6674
  594MOL0     H80141   9.308   7.654   8.296 -0.6446  2.9950 -1.1461
  594MOL0     H80142   9.266   7.283   8.176 -1.6290  0.6684 -0.9049
  594MOL0     H80143   9.369   7.363   8.296 -0.9403 -4.3055  2.4638
  594MOL0     H80144   9.204   7.409   8.446 -1.6172  0.5657 -0.2492
  594MOL0     H80145   9.234   7.235   8.424 -0.2026 -0.1072  1.8808
  594MOL0     H80146   9.029   7.239   8.262 -0.9321  1.4053 -0.5011
  594MOL0     H80147   8.970   7.388   8.324  0.1889  0.0011 -2.0537
  594MOL0     H80148   9.030   7.135   8.490  1.4823  1.9417  0.7438
  594MOL0     H80149   8.868   7.185   8.429  0.8837 -1.3539 -0.0052
  594MOL0     H80150   9.001   7.421   8.795 -0.4039  0.2192  0.8709
  594MOL0     H80151   9.026   7.430   9.098  0.5837  1.4241 -1.3696
  594MOL0     H80152   8.896   7.481   8.990  0.3003 -2.0741 -3.3246
  594MOL0     H80153   8.861   7.364   9.120 -3.1602 -5.8512 -4.5738
  594MOL0     H80154   8.615   6.920   9.222 -0.4871 -2.5572 -1.8663
  594MOL0     H80155   8.590   6.821   9.438  0.2341  1.4503  1.2611
  594MOL0     H80156   8.582   6.762   9.667  0.9677  1.3739  2.0582
  594MOL0     H80157   8.606   6.613   9.596 -0.8353  2.6732 -1.2552
  594MOL0     H80158   8.697   6.694   9.884  1.6864 -0.9557 -0.0607
  594MOL0     H80159   8.554   6.605   9.840  0.3739 -0.4310  3.3657
  594MOL0     H80160   8.830   6.498   9.787 -0.1734  1.9207  0.5693
  594MOL0     H80161   8.660   6.422   9.772 -1.4967  0.1896  2.4689
  594MOL0     H80162   8.756   6.537  10.030  0.4658  0.5226 -1.9837
  594MOL0     H80163   8.616   6.429   9.993 -0.4057 -0.0989 -1.5704
  594MOL0     H80164   8.797   6.338  10.134  0.8133 -1.6254  0.4964
  594MOL0     H80165   8.905   6.365   9.996 -0.5017  1.0981 -1.6242
  594MOL0     H80166   8.704   6.148  10.033  0.2256  0.3215  0.9553
  594MOL0     H80167   8.694   6.225   9.879  2.6116 -0.5249 -1.3041
  594MOL0     H80168   8.962   6.147   9.975 -0.7912  1.7057 -1.4696
  594MOL0     H80169   8.904   6.191   9.808  4.7828 -0.7910 -0.5815
  594MOL0     H80170   8.750   5.964   9.842 -0.8429 -2.3859  2.0626
  594MOL0     H80171   8.874   5.925   9.957 -2.9973 -1.0422 -0.0926
  594MOL0     H80172   9.013   6.753   9.488  1.5238  1.9318 -0.5502
  594MOL0     H80173   9.044   6.857   9.256  0.9750 -2.5245 -0.5427
  594MOL0     H80174   8.932   6.948   8.851  3.0842  0.3095 -0.6736
  594MOL0     H80175   8.912   7.037   8.639  1.5608  1.5959 -1.7163
  594MOL0     H80176   9.512   8.372   7.571 -1.3263  0.7863  2.4211
  594MOL0     H80177   9.700   8.400   7.404 -0.8860  0.0437 -0.7497
  594MOL0     H80178  10.258   8.430   7.459  0.4273 -2.7205 -0.8756
  594MOL0     H80179  10.445   8.468   7.290  0.5569 -1.1897  0.3658
  594MOL0     H80180  10.492   8.372   7.069  1.4737 -1.1085 -0.8824
  594MOL0     H80181  10.427   8.433   6.916 -0.0852 -0.2990  0.0566
  594MOL0     H80182  10.686   8.424   6.948  1.3148  0.3674 -0.6603
  594MOL0     H80183  10.663   8.572   7.044  0.3187 -1.5750  0.7240
  594MOL0     H80184  10.706   8.659   6.843 -0.3021  1.3096  0.2779
  594MOL0     H80185  10.534   8.652   6.816 -0.2804  1.1366  5.4332
  594MOL0     H80186  10.581   8.417   6.716  3.7880 -2.9009  1.5571
  594MOL0     H80187  10.749   8.474   6.686 -0.1963 -3.0983  2.0727
  594MOL0     H80188  10.529   8.721   6.426  1.7135 -0.6222 -0.9958
  594MOL0     H80189  10.175   8.652   7.029 -2.0928  1.4116  1.0833
  594MOL0     H80190   9.978   8.609   7.201  0.6745 -1.2818  0.3501
  595MOL0     O80191   3.892   1.636   7.571  0.7134  0.3628 -0.0762
  595MOL0     C80192   3.955   1.733   7.618 -0.3557  0.7074 -0.8928
  595MOL0     O80193   3.937   1.860   7.580  0.1856 -0.2062 -0.2510
  595MOL0     C80194   3.864   1.886   7.466 -0.2146  0.4010  0.4541
  595MOL0     C80195   3.928   1.888   7.340 -0.0321  0.8999  0.1054
  595MOL0     C80196   3.846   1.918   7.225 -0.2425  0.3345  0.0070
  595MOL0     C80197   3.712   1.939   7.239 -0.4365 -0.5162 -0.6505
  595MOL0     O80198   3.639   1.963   7.124  0.0517  1.1256  0.3649
  595MOL0     C80199   3.498   1.959   7.110  0.2232 -0.7955 -0.7054
  595MOL0     C80200   3.451   2.009   6.971 -0.0427  0.2035  0.9295
  595MOL0     C80201   3.504   1.928   6.857 -0.4444 -0.2424 -0.3701
  595MOL0     C80202   3.647   1.957   6.806  0.1032 -0.5083 -0.3294
  595MOL0     C80203   3.663   2.075   6.708  0.4632 -0.3360 -0.2372
  595MOL0     C80204   3.593   2.045   6.572 -0.6114  0.1900  0.4271
  595MOL0     C80205   3.615   2.166   6.494 -0.7128 -1.1291 -0.3074
  595MOL0     C80206   3.564   2.163   6.350  0.3430  0.1753  0.2427
  595MOL0     N80207   3.419   2.134   6.323 -0.6300 -0.1926  1.0705
  595MOL0     C80208   3.378   2.126   6.195  0.1214  1.0366  1.2757
  595MOL0     C80209   3.277   2.035   6.183 -1.1253 -0.4532  0.7765
  595MOL0     C80210   3.238   1.976   6.047 -0.9381  0.0283  0.6528
  595MOL0     C80211   3.212   1.832   6.049 -0.6171 -0.0888  1.0546
  595MOL0     C80212   3.069   1.788   6.076  0.7860 -0.0594  0.6202
  595MOL0     C80213   3.053   1.636   6.031 -0.5175 -0.0652 -0.9567
  595MOL0     O80214   2.922   1.591   6.056  0.2787  0.7077 -0.0394
  595MOL0     C80215   2.873   1.471   5.997 -1.1940  1.0441  0.4601
  595MOL0     C80216   2.747   1.416   6.038  0.4196 -0.4154  0.8717
  595MOL0     C80217   2.693   1.293   5.992  0.1684  0.1046  0.1520
  595MOL0     C80218   2.556   1.259   6.051 -0.0044  0.4758 -0.1009
  595MOL0     C80219   2.765   1.221   5.893 -1.4673 -0.2483  0.2803
  595MOL0     C80220   2.721   1.092   5.835 -0.7084  0.7245 -0.1432
  595MOL0     O80221   2.612   1.107   5.748 -0.1031  0.3429  0.1727
  595MOL0     C80222   2.611   1.004   5.654  0.6450  0.3095  0.0159
  595MOL0     C80223   2.643   1.027   5.521  0.2943 -0.6048 -1.0032
  595MOL0     C80224   2.648   0.925   5.426  0.1384 -0.1757 -0.2336
  595MOL0     C80225   2.610   0.791   5.463  1.3974 -0.3966 -0.1000
  595MOL0     O80226   2.614   0.681   5.383  0.2982 -0.1862 -0.1711
  595MOL0     C80227   2.679   0.700   5.264  0.3276 -0.3839  0.3816
  595MOL0     C80228   2.692   0.578   5.173 -0.5900 -0.0980  0.4763
  595MOL0     C80229   2.806   0.490   5.220 -0.3799  0.8554 -0.0555
  595MOL0     C80230   2.791   0.351   5.151  0.1018  0.1608 -0.0544
  595MOL0     C80231   2.916   0.259   5.177  0.2673  0.7960 -0.3907
  595MOL0     C80232   2.893   0.182   5.317  0.5970 -0.0676  0.4424
  595MOL0     C80233   3.009   0.085   5.343 -0.2908  1.0303 -0.2552
  595MOL0     C80234   3.054   0.083   5.488 -0.5226  0.0659 -0.1921
  595MOL0    Cl80235   3.093   0.246   5.552 -0.1748 -0.3276  0.3683
  595MOL0     C80236   2.568   0.763   5.593 -0.3766 -0.2963 -0.4949
  595MOL0     C80237   2.557   0.875   5.682  0.4001 -0.8814 -0.8594
  595MOL0     O80238   2.799   0.993   5.842 -0.9522 -0.1941  0.0762
  595MOL0     C80239   2.898   1.266   5.854  0.1317 -0.3500 -0.0328
  595MOL0     C80240   2.955   1.389   5.909  0.8287 -1.3756 -0.4738
  595MOL0     N80241   3.243   1.999   6.310  0.0436  0.1348 -0.0523
  595MOL0     N80242   3.332   2.057   6.385  0.4907  0.2877 -0.9723
  595MOL0     C80243   3.659   1.939   7.367 -0.5917  0.1087 -0.5510
  595MOL0     C80244   3.736   1.914   7.484 -0.3007 -0.0315  0.8240
  595MOL0     C80245   4.056   1.699   7.717 -0.1875 -0.2161  0.5908
  595MOL0     C80246   4.112   1.794   7.804  0.2188  0.2649 -1.2681
  595MOL0     C80247   4.209   1.757   7.896  0.7556  0.4325  0.4396
  595MOL0     C80248   4.258   1.631   7.897  0.3433  0.1318  0.5416
  595MOL0     O80249   4.351   1.611   7.992 -0.4268  0.1324 -0.0424
  595MOL0     C80250   4.446   1.504   7.995 -0.3901 -0.1306  0.0793
  595MOL0     C80251   4.411   1.424   8.119  0.3104  1.1828  0.4166
  595MOL0     C80252   4.496   1.309   8.139 -0.4947  0.3401 -0.0267
  595MOL0     C80253   4.439   1.224   8.253  0.9637  0.3742  1.1984
  595MOL0     C80254   4.514   1.103   8.259 -0.0973  0.9294 -1.3118
  595MOL0     C80255   4.579   0.997   8.280  0.4592  0.3431 -0.5413
  595MOL0     C80256   4.194   1.532   7.826  0.1648 -0.7265  0.3229
  595MOL0     C80257   4.089   1.564   7.735 -1.0171 -0.4645  0.1428
  595MOL0     H80258   4.035   1.868   7.342  0.3342  2.0556 -2.5970
  595MOL0     H80259   3.892   1.937   7.129 -0.6664  0.5094 -0.1618
  595MOL0     H80260   3.473   1.853   7.121 -0.6032 -0.4059  1.6785
  595MOL0     H80261   3.450   2.014   7.191  2.7457 -2.3986  2.1054
  595MOL0     H80262   3.342   2.004   6.966 -0.1065  2.0676 -0.3494
  595MOL0     H80263   3.483   2.110   6.945  2.1073 -0.4927  0.6709
  595MOL0     H80264   3.497   1.822   6.884  0.3529 -0.3691 -0.6396
  595MOL0     H80265   3.438   1.943   6.771 -0.2722 -1.5844 -0.7564
  595MOL0     H80266   3.712   1.974   6.893  2.5381 -4.3363 -1.1256
  595MOL0     H80267   3.693   1.866   6.765  2.3619  1.4767 -2.5205
  595MOL0     H80268   3.618   2.161   6.760 -1.0896 -1.3266  0.1405
  595MOL0     H80269   3.769   2.100   6.697  0.5230 -0.3729  0.2336
  595MOL0     H80270   3.653   1.964   6.529  0.4425  1.3525 -0.3860
  595MOL0     H80271   3.486   2.022   6.571 -0.7704  0.9188 -0.5202
  595MOL0     H80272   3.569   2.254   6.541  1.8962  0.6282 -0.8455
  595MOL0     H80273   3.721   2.191   6.494 -1.0987  0.6217 -0.2510
  595MOL0     H80274   3.622   2.092   6.290 -1.3196 -1.3713  0.4013
  595MOL0     H80275   3.583   2.261   6.304 -1.4311  0.3686 -0.1551
  595MOL0     H80276   3.431   2.172   6.112 -2.9031  0.7077 -1.0568
  595MOL0     H80277   3.147   2.024   6.012 -0.8262  0.0321  0.3654
  595MOL0     H80278   3.307   1.992   5.963 -1.8501  0.4629 -0.0234
  595MOL0     H80279   3.270   1.784   6.128  0.8908  1.9308  1.2516
  595MOL0     H80280   3.248   1.789   5.955 -2.8436 -0.6877  0.4054
  595MOL0     H80281   3.001   1.834   6.004  1.4716  0.3576  0.2180
  595MOL0     H80282   3.045   1.815   6.179  1.1976  1.5303  0.3294
  595MOL0     H80283   3.132   1.578   6.080 -0.1792  1.2533  0.1322
  595MOL0     H80284   3.069   1.621   5.924  0.4988 -3.6193 -0.4342
  595MOL0     H80285   2.690   1.474   6.111  3.3761  1.6241  1.7834
  595MOL0     H80286   2.548   1.247   6.160 -0.6910 -0.9679 -0.2864
  595MOL0     H80287   2.478   1.330   6.021 -0.9144 -1.3520 -2.3501
  595MOL0     H80288   2.512   1.168   6.009 -2.6362  1.3336  0.6293
  595MOL0     H80289   2.676   1.129   5.502  1.9219 -0.9049  0.0760
  595MOL0     H80290   2.691   0.946   5.329 -1.9075 -1.5084 -1.5216
  595MOL0     H80291   2.605   0.759   5.209  0.4618 -0.1163  0.4850
  595MOL0     H80292   2.778   0.747   5.269 -0.3738  1.0782  0.9954
  595MOL0     H80293   2.604   0.515   5.163 -0.7523  0.2963 -0.7633
  595MOL0     H80294   2.712   0.609   5.070  3.2103 -1.1280  0.7553
  595MOL0     H80295   2.802   0.458   5.325 -3.3520 -1.9609 -0.8689
  595MOL0     H80296   2.906   0.520   5.187  0.1272 -2.4041 -1.8741
  595MOL0     H80297   2.698   0.299   5.176  0.7958 -0.7449  0.7620
  595MOL0     H80298   2.801   0.371   5.044  1.7283 -0.9050 -0.1484
  595MOL0     H80299   3.011   0.314   5.184  0.2761  0.6010  1.9240
  595MOL0     H80300   2.912   0.188   5.094  0.5170  0.7920 -0.3992
  595MOL0     H80301   2.877   0.248   5.403  0.5638  1.4318 -0.6640
  595MOL0     H80302   2.797   0.132   5.302  0.3438  0.9115 -1.4925
  595MOL0     H80303   3.092   0.127   5.286 -1.8043  0.4870 -3.0434
  595MOL0     H80304   2.980  -0.015   5.309  2.4093 -0.4967  1.6148
  595MOL0     H80305   3.148   0.026   5.493 -0.2075  0.6527  0.7738
  595MOL0     H80306   2.978   0.051   5.560  1.2455  1.8410  2.6956
  595MOL0     H80307   2.532   0.663   5.615 -0.3559 -0.0293  0.8386
  595MOL0     H80308   2.510   0.863   5.779 -0.1576 -1.5602 -1.2103
  595MOL0     H80309   2.950   1.212   5.775  0.7465 -0.3201  0.3407
  595MOL0     H80310   3.055   1.421   5.882  0.6381 -1.0311 -0.7735
  595MOL0     H80311   3.554   1.966   7.380 -1.2850 -2.7074  0.5732
  595MOL0     H80312   3.676   1.914   7.574 -0.8303 -0.6814  0.4788
  595MOL0     H80313   4.083   1.898   7.792  1.0789  0.3929 -2.3578
  595MOL0     H80314   4.254   1.825   7.968  0.6778 -0.3696  1.2655
  595MOL0     H80315   4.453   1.443   7.904 -0.6643 -1.1058  0.6987
  595MOL0     H80316   4.542   1.553   8.013 -0.6962  0.6562 -0.3452
  595MOL0     H80317   4.309   1.389   8.102  0.7628  1.0136 -2.4117
  595MOL0     H80318   4.402   1.479   8.213  1.6211 -1.0702  1.9803
  595MOL0     H80319   4.603   1.322   8.158 -1.0694  1.3529  3.1541
  595MOL0     H80320   4.493   1.258   8.042  2.3038  1.9650 -1.0697
  595MOL0     H80321   4.335   1.195   8.239  1.5505 -3.1292  3.0283
  595MOL0     H80322   4.444   1.285   8.344 -0.6343  0.4992  1.2240
  595MOL0     H80323   4.615   0.897   8.296 -1.5190 -0.4979 -1.0696
  595MOL0     H80324   4.232   1.430   7.834 -0.8699 -1.0090  2.3713
  595MOL0     H80325   4.062   1.480   7.672  4.3543 -3.5437  1.2860
  596MOL0     O80326   9.804   6.566   5.784  0.0201  0.2273  0.6134
  596MOL0     C80327   9.730   6.474   5.827 -0.5241 -0.3146  1.4231
  596MOL0     O80328   9.616   6.490   5.904  0.0823 -0.0356  0.2870
  596MOL0     C80329   9.601   6.613   5.952  0.2176 -1.0047 -0.3273
  596MOL0     C80330   9.524   6.700   5.875 -0.8262 -0.6382  0.0001
  596MOL0     C80331   9.526   6.839   5.907  0.3349  0.1672  0.2463
  596MOL0     C80332   9.594   6.884   6.019  1.2012  0.5534 -0.1079
  596MOL0     O80333   9.581   7.007   6.064  0.2098  0.1015 -0.6568
  596MOL0     C80334   9.594   7.107   5.972  0.7297 -0.6100  0.0806
  596MOL0     C80335   9.568   7.245   6.028 -0.3768 -0.0094 -0.1306
  596MOL0     C80336   9.434   7.311   5.987 -0.2685  1.2063 -0.2313
  596MOL0     C80337   9.437   7.369   5.847 -0.1444 -0.0613  0.6910
  596MOL0     C80338   9.307   7.449   5.814 -0.5486 -0.2900 -1.0420
  596MOL0     C80339   9.300   7.514   5.673  0.0606  0.1069 -0.5248
  596MOL0     C80340   9.173   7.587   5.658 -0.6110  0.1423  0.8459
  596MOL0     C80341   9.155   7.645   5.515 -0.2664 -0.0323 -0.0134
  596MOL0     N80342   9.024   7.719   5.500 -0.4949 -0.0174  0.6352
  596MOL0     C80343   8.999   7.849   5.512  1.1558 -0.3955 -1.2287
  596MOL0     C80344   8.865   7.867   5.502  0.2196 -0.2831 -0.9318
  596MOL0     C80345   8.790   7.996   5.515  0.6612 -0.3869 -0.1455
  596MOL0     C80346   8.750   8.043   5.370 -0.6880 -0.3393 -0.5546
  596MOL0     C80347   8.710   8.192   5.378  0.2884  0.5013  0.6522
  596MOL0     C80348   8.646   8.240   5.247  0.3191  0.3873 -0.1869
  596MOL0     O80349   8.616   8.379   5.257  0.2820 -0.0749  0.8656
  596MOL0     C80350   8.552   8.442   5.152 -0.7857  0.4739  0.8328
  596MOL0     C80351   8.483   8.564   5.182  0.1196 -1.0264  0.4422
  596MOL0     C80352   8.413   8.635   5.079  0.2762  0.3777  0.8689
  596MOL0     C80353   8.339   8.762   5.126 -0.7293 -0.3018 -0.5819
  596MOL0     C80354   8.413   8.583   4.946  0.2882 -0.3147 -0.9333
  596MOL0     C80355   8.351   8.658   4.836 -0.2721 -0.8266  0.8860
  596MOL0     O80356   8.359   8.601   4.719 -0.4234  0.2786 -0.1352
  596MOL0     C80357   8.300   8.651   4.604 -0.2172 -0.4269 -0.0671
  596MOL0     C80358   8.194   8.583   4.549 -0.2035 -0.0894  1.7742
  596MOL0     C80359   8.133   8.640   4.432 -0.1034 -0.1440  0.5006
  596MOL0     C80360   8.186   8.756   4.368  0.4514  1.2329 -0.1144
  596MOL0     O80361   8.118   8.790   4.257 -0.8028 -0.1325  0.8459
  596MOL0     C80362   8.197   8.858   4.152 -0.1026  0.8160 -0.8606
  596MOL0     C80363   8.115   8.875   4.027 -1.0767  0.4908  0.7402
  596MOL0     C80364   8.084   8.742   3.959 -1.1020 -0.2371 -0.7071
  596MOL0     C80365   8.063   8.756   3.812 -0.0856 -0.6833  0.6361
  596MOL0     C80366   7.940   8.843   3.775 -0.4936 -0.2338  0.4321
  596MOL0     C80367   7.921   8.833   3.626  0.1523  0.7376 -0.0630
  596MOL0     C80368   7.796   8.923   3.574  0.6029  0.6159 -0.3425
  596MOL0     C80369   7.781   8.950   3.422  0.2793  0.4952 -0.2473
  596MOL0    Cl80370   7.640   9.073   3.390 -0.2115 -0.1561 -0.0565
  596MOL0     C80371   8.294   8.810   4.426 -0.3670 -0.0764 -0.6424
  596MOL0     C80372   8.358   8.760   4.544 -0.0475 -0.3326  0.5026
  596MOL0     O80373   8.296   8.766   4.856  0.4391  0.1296 -0.4854
  596MOL0     C80374   8.480   8.464   4.917  0.4876 -0.5300 -0.5680
  596MOL0     C80375   8.541   8.397   5.019  0.7259 -0.6945 -0.0248
  596MOL0     N80376   8.810   7.743   5.469  0.1115 -0.7617 -0.8582
  596MOL0     N80377   8.910   7.661   5.462 -0.6848 -0.4860 -0.1893
  596MOL0     C80378   9.646   6.794   6.108 -0.1821 -0.3524 -0.3866
  596MOL0     C80379   9.662   6.662   6.071 -0.8447 -0.0806  0.8131
  596MOL0     C80380   9.770   6.337   5.788  1.5834 -0.1867  0.7095
  596MOL0     C80381   9.714   6.226   5.842  0.4283 -0.0691  0.2716
  596MOL0     C80382   9.729   6.096   5.792  0.2118  0.1836  0.1706
  596MOL0     C80383   9.804   6.072   5.679 -0.4796 -1.3754  0.1233
  596MOL0     O80384   9.835   5.943   5.638  0.3390 -0.1216 -0.3075
  596MOL0     C80385   9.748   5.831   5.692 -0.7202  0.0835  1.1112
  596MOL0     C80386   9.732   5.710   5.593  0.0396 -1.1949  0.3811
  596MOL0     C80387   9.747   5.581   5.674 -0.2654  0.1949 -0.0551
  596MOL0     C80388   9.723   5.472   5.570 -1.1096  0.4887 -0.3758
  596MOL0     C80389   9.717   5.341   5.638 -0.4567 -0.9716 -0.8990
  596MOL0     C80390   9.705   5.246   5.705 -0.0204  0.2092  0.1025
  596MOL0     C80391   9.873   6.182   5.623 -0.3022 -0.1607  0.6623
  596MOL0     C80392   9.861   6.305   5.684 -0.0961 -0.4386  0.0185
  596MOL0     H80393   9.482   6.676   5.778  2.8100 -0.6309 -1.7254
  596MOL0     H80394   9.464   6.897   5.839 -0.1988 -0.6596  0.0025
  596MOL0     H80395   9.690   7.114   5.919 -1.1206  2.8773 -3.3184
  596MOL0     H80396   9.514   7.097   5.898 -1.8152 -0.4552  2.6757
  596MOL0     H80397   9.583   7.244   6.136 -1.6385 -0.5397  0.0567
  596MOL0     H80398   9.646   7.314   5.996  2.2813 -2.9381 -0.4031
  596MOL0     H80399   9.352   7.239   5.999  0.5591  0.1079 -0.9373
  596MOL0     H80400   9.411   7.392   6.056 -0.2215  3.3745 -2.6205
  596MOL0     H80401   9.518   7.440   5.828  0.1097 -0.4445  0.3320
  596MOL0     H80402   9.457   7.287   5.778  1.5827  0.4549  0.5433
  596MOL0     H80403   9.221   7.388   5.841  0.8962 -1.7228  0.6082
  596MOL0     H80404   9.321   7.530   5.886  4.9479 -3.2316  1.9018
  596MOL0     H80405   9.389   7.577   5.676  2.1831 -2.7280  0.0930
  596MOL0     H80406   9.318   7.435   5.600  2.0176  0.0081  0.0169
  596MOL0     H80407   9.104   7.503   5.673  0.9670 -1.1241  1.2092
  596MOL0     H80408   9.160   7.676   5.720 -1.3421 -0.1044  1.0583
  596MOL0     H80409   9.168   7.564   5.442 -2.6030 -0.7401  0.2740
  596MOL0     H80410   9.240   7.714   5.508  0.0784 -0.4584 -0.0891
  596MOL0     H80411   9.076   7.922   5.535  1.5472 -1.0263 -0.4920
  596MOL0     H80412   8.703   7.990   5.581  1.0547  2.2303  0.7010
  596MOL0     H80413   8.849   8.078   5.558 -1.1434  2.1874 -2.2523
  596MOL0     H80414   8.672   7.971   5.343 -3.4638  0.9257  3.1840
  596MOL0     H80415   8.842   8.042   5.311 -0.8965  0.2002 -0.8984
  596MOL0     H80416   8.807   8.239   5.394  2.4598 -3.1272 -0.5932
  596MOL0     H80417   8.635   8.210   5.455 -0.6036 -2.6929  0.6599
  596MOL0     H80418   8.563   8.171   5.226  0.0824  0.8861 -0.9722
  596MOL0     H80419   8.727   8.247   5.174  0.6233  1.9785  0.2587
  596MOL0     H80420   8.485   8.611   5.279 -3.6737  1.3950 -0.4345
  596MOL0     H80421   8.241   8.775   5.080 -1.3545 -3.3237 -0.3470
  596MOL0     H80422   8.318   8.757   5.233 -1.2820  1.5489 -0.5834
  596MOL0     H80423   8.416   8.838   5.111 -0.3017 -0.4736  0.6126
  596MOL0     H80424   8.146   8.492   4.586 -4.7325  1.5464  0.5572
  596MOL0     H80425   8.042   8.602   4.386  0.0189  0.2350 -0.0602
  596MOL0     H80426   8.229   8.958   4.182 -0.5498  0.3055  1.5267
  596MOL0     H80427   8.289   8.799   4.138 -0.0109  0.7711 -0.1237
  596MOL0     H80428   8.027   8.936   4.044 -0.3488  2.1149 -0.9840
  596MOL0     H80429   8.173   8.926   3.949 -0.5995 -1.7109 -0.4487
  596MOL0     H80430   7.982   8.725   3.994 -0.8140  0.9305  0.8059
  596MOL0     H80431   8.151   8.656   3.971 -3.5293 -2.6518 -3.1947
  596MOL0     H80432   8.143   8.791   3.746 -3.8481 -1.6532 -5.2436
  596MOL0     H80433   8.043   8.656   3.773  3.7881 -1.5745  0.6157
  596MOL0     H80434   7.951   8.947   3.807 -0.2357 -0.3848  0.8501
  596MOL0     H80435   7.852   8.797   3.820 -0.3147 -2.7079 -1.5343
  596MOL0     H80436   8.009   8.871   3.572 -0.4304  0.1286 -1.4946
  596MOL0     H80437   7.910   8.726   3.611 -1.4188  1.0502 -1.4739
  596MOL0     H80438   7.803   9.018   3.628 -3.1411  0.1326  1.2953
  596MOL0     H80439   7.702   8.886   3.615 -1.1248  0.7832 -3.7486
  596MOL0     H80440   7.737   8.865   3.370 -1.0102  2.8573 -3.2776
  596MOL0     H80441   7.875   8.981   3.376  1.3243 -0.0003  1.4508
  596MOL0     H80442   8.337   8.905   4.397  1.0384 -0.6691 -0.6136
  596MOL0     H80443   8.434   8.821   4.591 -0.4887  2.6618 -2.3330
  596MOL0     H80444   8.484   8.417   4.819  2.0301 -0.4606 -0.5688
  596MOL0     H80445   8.603   8.318   4.977 -0.5178 -2.6286  1.5868
  596MOL0     H80446   9.696   6.838   6.194  2.0210 -1.1361 -1.1853
  596MOL0     H80447   9.711   6.605   6.150 -0.0627  1.8355  1.7901
  596MOL0     H80448   9.642   6.240   5.922  0.2521  0.8253 -0.0277
  596MOL0     H80449   9.688   6.011   5.844 -2.5626 -0.2110 -2.3903
  596MOL0     H80450   9.788   5.799   5.788  1.1948  2.5515  1.2468
  596MOL0     H80451   9.643   5.861   5.694 -1.4003 -1.6731 -1.7404
  596MOL0     H80452   9.796   5.715   5.504 -1.2518 -2.4799 -0.6803
  596MOL0     H80453   9.631   5.727   5.556 -0.2259 -0.2661  1.5136
  596MOL0     H80454   9.662   5.573   5.742 -1.2576 -0.2264 -1.3112
  596MOL0     H80455   9.842   5.587   5.728 -1.2286  1.3349  1.6033
  596MOL0     H80456   9.807   5.462   5.501 -2.3199  1.7492 -2.1059
  596MOL0     H80457   9.631   5.483   5.511 -0.5045  1.2528 -1.2036
  596MOL0     H80458   9.703   5.157   5.764  0.4185 -0.1953 -0.4910
  596MOL0     H80459   9.947   6.172   5.544 -0.6380  0.4681  0.2635
  596MOL0     H80460   9.909   6.383   5.626 -0.2965 -0.6476 -0.4377
  597MOL0     O80461   5.607   5.661   8.435  0.2199  0.0461  0.1784
  597MOL0     C80462   5.528   5.693   8.531 -0.3153  0.2186  0.6844
  597MOL0     O80463   5.387   5.697   8.519  0.4739 -0.4399  0.4871
  597MOL0     C80464   5.325   5.643   8.412 -0.5300  0.1904  1.2346
  597MOL0     C80465   5.337   5.674   8.273  0.6307  0.0542 -0.0622
  597MOL0     C80466   5.281   5.598   8.176 -1.1417 -1.1732  0.5296
  597MOL0     C80467   5.204   5.486   8.202 -0.7056  0.1267  0.7370
  597MOL0     O80468   5.150   5.398   8.112  0.7105  0.5281  0.3946
  597MOL0     C80469   5.228   5.371   7.991  0.1723 -0.8387 -1.1770
  597MOL0     C80470   5.174   5.250   7.916 -0.0590 -0.4538  0.0885
  597MOL0     C80471   5.017   5.250   7.913  0.1803 -0.1802  0.2102
  597MOL0     C80472   4.970   5.149   7.801 -0.3769  0.0865 -0.0468
  597MOL0     C80473   4.825   5.115   7.811  0.7458  0.2413 -0.2701
  597MOL0     C80474   4.805   5.017   7.938 -0.5853  0.3658  0.7715
  597MOL0     C80475   4.662   4.998   7.981  0.0040  0.3449 -0.2565
  597MOL0     C80476   4.641   4.957   8.129 -0.6545  0.2186 -0.0414
  597MOL0     N80477   4.679   5.058   8.226  0.7456  0.1348  0.5385
  597MOL0     C80478   4.622   5.181   8.233  0.1473 -1.6162 -0.3953
  597MOL0     C80479   4.703   5.266   8.305 -0.7264  0.7232  0.5312
  597MOL0     C80480   4.692   5.411   8.285  0.1373 -0.7954 -0.6976
  597MOL0     C80481   4.772   5.447   8.165  0.9640  1.0683  0.2921
  597MOL0     C80482   4.782   5.601   8.141 -0.9595  0.3402 -0.4435
  597MOL0     C80483   4.890   5.646   8.049 -0.1691 -0.0847  0.4773
  597MOL0     O80484   4.842   5.603   7.924  0.4463  0.1638 -0.0787
  597MOL0     C80485   4.904   5.641   7.808  0.1261 -0.7563 -0.3282
  597MOL0     C80486   5.034   5.691   7.799  0.0626  0.5177 -0.2066
  597MOL0     C80487   5.096   5.725   7.678 -0.4686 -1.1469 -0.7315
  597MOL0     C80488   5.235   5.778   7.692  0.2898  0.0325  0.7164
  597MOL0     C80489   5.015   5.708   7.563  0.2932  0.0844  0.0357
  597MOL0     C80490   5.069   5.737   7.431  0.8476 -0.4408 -0.9667
  597MOL0     O80491   5.055   5.635   7.342  0.4986  0.1727 -1.3272
  597MOL0     C80492   5.096   5.664   7.212  0.1328 -0.6608  1.0775
  597MOL0     C80493   5.185   5.578   7.150 -0.6061 -0.7486  0.8927
  597MOL0     C80494   5.236   5.607   7.020  0.7494 -0.3615  0.2937
  597MOL0     C80495   5.198   5.727   6.949  0.8149 -0.6575  0.4859
  597MOL0     O80496   5.262   5.773   6.832  0.6248 -0.9101  0.7158
  597MOL0     C80497   5.351   5.693   6.754  0.3434 -0.5887  0.0834
  597MOL0     C80498   5.418   5.780   6.644  0.7645  0.6698 -0.5769
  597MOL0     C80499   5.321   5.868   6.573  0.8206  1.1189 -0.5640
  597MOL0     C80500   5.399   5.964   6.481  0.4808 -0.1918  0.9865
  597MOL0     C80501   5.300   5.999   6.366  0.2199  0.0079  0.5683
  597MOL0     C80502   5.379   6.084   6.265 -0.5659  0.7403 -0.7849
  597MOL0     C80503   5.316   6.091   6.125  0.3648  0.0096 -0.7785
  597MOL0     C80504   5.399   6.149   6.012 -0.0736 -0.1128 -0.2332
  597MOL0    Cl80505   5.308   6.104   5.852  0.1105  0.4113 -0.0155
  597MOL0     C80506   5.105   5.810   7.016  1.0250 -0.4561  0.3006
  597MOL0     C80507   5.046   5.782   7.137 -0.3128 -0.1243  0.0864
  597MOL0     O80508   5.123   5.847   7.409  0.3195  0.1067 -0.7500
  597MOL0     C80509   4.876   5.672   7.576 -0.6367  0.2730  1.3073
  597MOL0     C80510   4.821   5.644   7.699  0.9625 -0.2113  0.5411
  597MOL0     N80511   4.801   5.186   8.361  0.2492  0.6819  0.2957
  597MOL0     N80512   4.791   5.063   8.308 -0.5357  0.5752  0.1374
  597MOL0     C80513   5.186   5.455   8.335  0.5414  0.4916 -1.1282
  597MOL0     C80514   5.247   5.530   8.438  0.0667  0.3043  0.2581
  597MOL0     C80515   5.589   5.735   8.651 -0.4200  1.6008 -0.3206
  597MOL0     C80516   5.716   5.677   8.696 -0.5161 -0.6341  0.0452
  597MOL0     C80517   5.764   5.712   8.824 -1.0578 -0.1621 -0.5744
  597MOL0     C80518   5.693   5.798   8.904 -0.0208 -0.2659 -1.0309
  597MOL0     O80519   5.707   5.822   9.036  0.2288 -0.1956  0.4097
  597MOL0     C80520   5.804   5.747   9.109 -0.9240  0.0498 -0.6051
  597MOL0     C80521   5.951   5.784   9.067 -0.5573  0.1878  0.8278
  597MOL0     C80522   6.034   5.838   9.185 -0.7771  0.5901  0.1388
  597MOL0     C80523   5.991   5.978   9.228  0.7184  1.0791 -1.8220
  597MOL0     C80524   6.085   6.050   9.304  0.9105 -0.3110 -0.4921
  597MOL0     C80525   6.173   6.114   9.357  0.0532  0.3867 -1.3569
  597MOL0     C80526   5.570   5.851   8.858  0.9125  0.7366 -0.1970
  597MOL0     C80527   5.516   5.816   8.732  1.1369  0.2828  0.6755
  597MOL0     H80528   5.407   5.753   8.249 -0.8068  0.7326 -2.4787
  597MOL0     H80529   5.297   5.615   8.070 -2.4685 -1.4517  0.2664
  597MOL0     H80530   5.220   5.460   7.929  2.8770  0.8080  0.5988
  597MOL0     H80531   5.332   5.355   8.020  0.2986  0.5034 -0.8368
  597MOL0     H80532   5.222   5.254   7.818 -0.3711 -0.9373 -0.0860
  597MOL0     H80533   5.202   5.159   7.970  0.1292  1.2493  3.0861
  597MOL0     H80534   4.975   5.220   8.009 -0.3161  0.0819  0.0777
  597MOL0     H80535   4.976   5.350   7.895  1.5289  0.1853 -1.0343
  597MOL0     H80536   4.987   5.202   7.706 -0.4262  1.2682  0.5775
  597MOL0     H80537   5.025   5.055   7.794  0.3505  0.5226 -0.2664
  597MOL0     H80538   4.763   5.201   7.836  1.3613  0.3955  0.7915
  597MOL0     H80539   4.797   5.073   7.714 -1.1781  1.5444 -0.3428
  597MOL0     H80540   4.847   4.917   7.920  3.2434  1.5072  2.4175
  597MOL0     H80541   4.861   5.063   8.019  0.2517  0.6497  0.0485
  597MOL0     H80542   4.615   5.096   7.971 -0.3159  0.1869 -0.2958
  597MOL0     H80543   4.618   4.917   7.922  0.7685  1.3173 -2.2474
  597MOL0     H80544   4.703   4.869   8.147  1.6352  1.9833  1.3275
  597MOL0     H80545   4.537   4.924   8.137 -0.9524  1.1358  0.0097
  597MOL0     H80546   4.540   5.211   8.168  2.6333  0.1313 -2.9915
  597MOL0     H80547   4.594   5.455   8.270  0.3347  0.4310  1.3260
  597MOL0     H80548   4.743   5.466   8.364 -0.0688 -0.5085 -0.7635
  597MOL0     H80549   4.728   5.389   8.083  1.1030 -1.9391  2.1997
  597MOL0     H80550   4.871   5.400   8.169  0.5346 -0.3339 -2.7736
  597MOL0     H80551   4.813   5.646   8.236 -0.1954  0.7955 -0.8984
  597MOL0     H80552   4.688   5.644   8.104 -0.8529 -0.6195 -1.8889
  597MOL0     H80553   4.991   5.612   8.074  0.8703  1.5109 -1.2794
  597MOL0     H80554   4.894   5.755   8.046  2.0175 -0.0979  0.9232
  597MOL0     H80555   5.073   5.710   7.898 -1.7607  1.2249  0.4187
  597MOL0     H80556   5.257   5.814   7.792  1.5870 -0.1193  0.5142
  597MOL0     H80557   5.317   5.710   7.664 -1.1388 -2.1485  1.5449
  597MOL0     H80558   5.242   5.870   7.634 -1.9329 -0.6915 -0.8688
  597MOL0     H80559   5.216   5.495   7.213  0.7616  0.8148  2.4191
  597MOL0     H80560   5.308   5.544   6.968  0.5563  0.3721 -0.8944
  597MOL0     H80561   5.434   5.659   6.818  2.0917  1.7384 -0.8421
  597MOL0     H80562   5.299   5.610   6.705 -0.8378 -0.9253  1.7843
  597MOL0     H80563   5.491   5.846   6.692  0.4527 -0.0959  1.0081
  597MOL0     H80564   5.465   5.717   6.568  0.1944  2.3432 -2.3815
  597MOL0     H80565   5.265   5.929   6.644 -0.7312  2.5175 -2.8349
  597MOL0     H80566   5.249   5.808   6.517  0.2849 -0.2983  1.5492
  597MOL0     H80567   5.439   6.050   6.535  2.6354 -0.1037 -0.6095
  597MOL0     H80568   5.483   5.917   6.430  0.1229  1.4489 -1.2636
  597MOL0     H80569   5.217   6.059   6.403  0.0756 -1.1920  2.2800
  597MOL0     H80570   5.263   5.909   6.316  0.7946 -0.5311  1.0956
  597MOL0     H80571   5.398   6.186   6.300 -2.9147  0.5031  1.5156
  597MOL0     H80572   5.476   6.035   6.254 -0.0649  1.8440 -1.3425
  597MOL0     H80573   5.225   6.151   6.115 -1.1319 -1.5899  2.1218
  597MOL0     H80574   5.289   5.987   6.104 -1.1672  0.3497 -0.5517
  597MOL0     H80575   5.494   6.096   6.022  0.6138  0.9780 -0.7869
  597MOL0     H80576   5.415   6.257   6.014 -1.0036  0.1264 -2.3061
  597MOL0     H80577   5.089   5.903   6.962  2.8656 -1.5970 -2.4509
  597MOL0     H80578   4.966   5.847   7.172  0.1350  0.5394 -0.1097
  597MOL0     H80579   4.819   5.671   7.484 -1.1222  1.8477  1.5441
  597MOL0     H80580   4.719   5.614   7.721  0.6331  2.4718  3.3770
  597MOL0     H80581   5.128   5.368   8.364  0.6541  0.9516  0.6163
  597MOL0     H80582   5.219   5.511   8.542 -0.9263  2.2099  0.3862
  597MOL0     H80583   5.766   5.596   8.643 -0.3127  0.2070 -1.0952
  597MOL0     H80584   5.857   5.663   8.851  0.9889  2.1224 -2.9080
  597MOL0     H80585   5.801   5.770   9.216  3.3261 -1.2611 -0.0239
  597MOL0     H80586   5.781   5.642   9.090 -1.7370 -0.2835  1.7829
  597MOL0     H80587   5.951   5.841   8.974  1.0755 -2.8568 -1.2003
  597MOL0     H80588   6.002   5.689   9.053 -1.2752 -0.0305 -0.4316
  597MOL0     H80589   6.141   5.838   9.163 -0.2818 -2.0164  2.1208
  597MOL0     H80590   6.021   5.770   9.269 -0.6831 -1.4536 -1.4044
  597MOL0     H80591   5.896   5.971   9.282  2.0237  0.7879  0.5351
  597MOL0     H80592   5.972   6.039   9.139  0.9734  0.6853 -2.1511
  597MOL0     H80593   6.259   6.163   9.396  0.2960 -1.5333  0.6957
  597MOL0     H80594   5.513   5.915   8.925 -0.7697  0.5027 -1.3482
  597MOL0     H80595   5.418   5.855   8.707  1.6633  2.0308  1.2056
  598MOL0     O80596   8.811  10.273   8.955 -0.7196  0.2444  0.3561
  598MOL0     C80597   8.721  10.217   8.889  1.5273 -0.0789 -0.2275
  598MOL0     O80598   8.586  10.222   8.934 -0.1024  1.0945 -0.5372
  598MOL0     C80599   8.541  10.331   9.005  1.5728  0.2121 -0.6892
  598MOL0     C80600   8.586  10.462   8.978 -1.5994 -1.1145 -0.1298
  598MOL0     C80601   8.565  10.567   9.063 -0.3514 -0.7043 -0.4958
  598MOL0     C80602   8.479  10.552   9.172  0.4817  0.8295 -0.6952
  598MOL0     O80603   8.460  10.672   9.244 -0.2724 -0.6085  0.0524
  598MOL0     C80604   8.398  10.666   9.368 -0.8619 -0.2868  0.4695
  598MOL0     C80605   8.246  10.690   9.359  0.2347 -0.3243 -0.0234
  598MOL0     C80606   8.183  10.653   9.499 -0.8808 -0.3518  0.6488
  598MOL0     C80607   8.129  10.782   9.579 -0.3561 -0.0094 -0.8332
  598MOL0     C80608   8.081  10.737   9.714  0.5184  0.5795  0.1949
  598MOL0     C80609   8.014  10.838   9.800 -0.2484  0.0226  0.8009
  598MOL0     C80610   8.106  10.959   9.831  0.0438 -0.1385  0.4741
  598MOL0     C80611   8.041  11.071   9.904 -0.4695 -0.0885 -0.4487
  598MOL0     N80612   7.948  11.140   9.810 -0.3114  0.5630 -0.0960
  598MOL0     C80613   7.981  11.194   9.687  0.6731  0.4783  0.2903
  598MOL0     C80614   7.862  11.241   9.633 -0.3351 -0.3874 -0.2007
  598MOL0     C80615   7.848  11.315   9.505  0.2062 -0.4691  0.1755
  598MOL0     C80616   7.716  11.318   9.435  0.0306 -0.3724 -1.4462
  598MOL0     C80617   7.708  11.438   9.328  0.2915  0.2516 -0.0151
  598MOL0     C80618   7.570  11.442   9.270  0.4113  0.6298 -0.5879
  598MOL0     O80619   7.553  11.580   9.223 -0.1019 -0.2197  1.2108
  598MOL0     C80620   7.581  11.592   9.079  0.5458  0.4518 -0.3112
  598MOL0     C80621   7.504  11.536   8.978 -0.0297 -0.9212  0.3229
  598MOL0     C80622   7.524  11.570   8.837 -0.8285  0.2742  0.1758
  598MOL0     C80623   7.425  11.511   8.735 -0.0803  0.3589  0.4754
  598MOL0     C80624   7.645  11.643   8.801 -0.2383  0.6084 -0.3788
  598MOL0     C80625   7.669  11.670   8.656  0.1401  0.6584  0.3629
  598MOL0     O80626   7.569  11.712   8.578  0.7048 -0.8082  0.6531
  598MOL0     C80627   7.615  11.730   8.446 -0.5084 -0.3790 -0.7648
  598MOL0     C80628   7.635  11.856   8.413 -0.0262 -0.5903  0.0777
  598MOL0     C80629   7.688  11.888   8.287  0.4821 -0.2320 -0.4512
  598MOL0     C80630   7.708  11.787   8.187  0.2367 -0.7003 -0.0662
  598MOL0     O80631   7.770  11.807   8.068  0.4241  0.0433  0.4764
  598MOL0     C80632   7.806  11.940   8.019  0.1081  0.1468  0.0838
  598MOL0     C80633   7.897  11.940   7.893 -0.3748 -0.3747  0.4417
  598MOL0     C80634   7.841  11.893   7.756  0.3238  0.2689  0.6989
  598MOL0     C80635   7.729  11.995   7.706  0.7155 -0.4627  0.2442
  598MOL0     C80636   7.651  11.940   7.584 -0.2526 -0.7293 -0.4007
  598MOL0     C80637   7.739  11.881   7.478  0.8964  1.0061  0.2236
  598MOL0     C80638   7.654  11.823   7.366  0.1211  0.5401 -0.4565
  598MOL0     C80639   7.742  11.757   7.258 -0.0250  0.2659 -0.3269
  598MOL0    Cl80640   7.633  11.677   7.142 -0.2239  0.0301  0.1642
  598MOL0     C80641   7.685  11.656   8.227  0.5321  0.6790  0.2857
  598MOL0     C80642   7.635  11.628   8.354 -0.0136  0.1839 -0.0582
  598MOL0     O80643   7.786  11.655   8.624 -0.4034 -0.4109 -0.0585
  598MOL0     C80644   7.737  11.683   8.901  0.1477 -0.3452  0.2779
  598MOL0     C80645   7.697  11.671   9.036  0.1317 -0.0387 -0.0052
  598MOL0     N80646   7.766  11.219   9.726  0.1704 -0.9021 -0.3929
  598MOL0     N80647   7.814  11.143   9.822  0.5969  0.0039  0.6002
  598MOL0     C80648   8.428  10.421   9.200 -0.8234  0.5286 -0.0451
  598MOL0     C80649   8.460  10.314   9.124 -0.1070  0.7505  0.2662
  598MOL0     C80650   8.744  10.144   8.756  0.0647  0.4000  0.1090
  598MOL0     C80651   8.637  10.100   8.679 -0.5283 -0.1914 -0.2343
  598MOL0     C80652   8.652  10.051   8.549  0.0477  0.4241  0.3117
  598MOL0     C80653   8.786  10.038   8.492 -0.1069  0.6905  0.4674
  598MOL0     O80654   8.826   9.988   8.372 -0.6109  0.1990 -0.2205
  598MOL0     C80655   8.728   9.996   8.264  0.7588  1.6791 -0.1424
  598MOL0     C80656   8.758  10.113   8.178  0.1851 -0.0994  0.3696
  598MOL0     C80657   8.644  10.141   8.085 -1.0270 -0.3004  0.2174
  598MOL0     C80658   8.624  10.036   7.973 -0.2973  0.1555  0.2887
  598MOL0     C80659   8.521  10.057   7.874 -0.0718  0.0069 -1.4215
  598MOL0     C80660   8.418  10.083   7.815  0.6677  0.1325 -0.8592
  598MOL0     C80661   8.891  10.067   8.570  0.0682  0.2572  0.9306
  598MOL0     C80662   8.875  10.137   8.690  0.0428 -0.4186  0.6918
  598MOL0     H80663   8.650  10.480   8.893 -0.1024 -0.9417  0.9866
  598MOL0     H80664   8.620  10.659   9.048  2.1951 -2.2394 -1.1677
  598MOL0     H80665   8.428  10.579   9.428  4.3510  0.6058 -0.3540
  598MOL0     H80666   8.443  10.752   9.419 -1.4992  0.9117 -0.9098
  598MOL0     H80667   8.219  10.793   9.335  5.3639  1.1193 -0.5977
  598MOL0     H80668   8.199  10.613   9.297  1.3524  2.3893 -4.6937
  598MOL0     H80669   8.106  10.578   9.479 -2.1756  1.5119 -1.8620
  598MOL0     H80670   8.248  10.610   9.576 -4.2432 -1.9833  2.8063
  598MOL0     H80671   8.207  10.858   9.584  0.8231 -1.2233  2.8753
  598MOL0     H80672   8.042  10.820   9.525  0.0616 -0.1854 -1.6369
  598MOL0     H80673   7.997  10.675   9.684 -0.7656  1.7914  1.1511
  598MOL0     H80674   8.150  10.675   9.773  0.8983  1.3734  0.6051
  598MOL0     H80675   7.925  10.870   9.746  1.6116  0.4398 -2.2554
  598MOL0     H80676   7.980  10.790   9.892  0.7303 -1.5473  0.3833
  598MOL0     H80677   8.187  10.921   9.892  0.2324  0.0994  0.3717
  598MOL0     H80678   8.136  11.002   9.734 -2.7089 -0.2638 -0.5437
  598MOL0     H80679   8.120  11.139   9.938 -0.0216 -1.2291  0.9014
  598MOL0     H80680   7.988  11.031   9.991  1.9557 -1.0962  0.6749
  598MOL0     H80681   8.081  11.196   9.644 -0.1397 -0.7737 -1.8690
  598MOL0     H80682   7.876  11.416   9.536 -1.7590 -0.4945  2.3327
  598MOL0     H80683   7.918  11.290   9.424 -1.6510  0.1220 -1.7145
  598MOL0     H80684   7.641  11.354   9.506  1.7917  2.0078 -0.6475
  598MOL0     H80685   7.682  11.224   9.392 -2.7324 -1.1132  1.9286
  598MOL0     H80686   7.774  11.410   9.245  2.0879  0.6124  1.2400
  598MOL0     H80687   7.742  11.527   9.381  1.6799  1.4540 -2.7087
  598MOL0     H80688   7.504  11.422   9.354  0.8757 -2.0119 -0.7529
  598MOL0     H80689   7.569  11.358   9.200  0.0487 -0.7394  1.0149
  598MOL0     H80690   7.415  11.488   9.018  0.3362  0.6713  3.3335
  598MOL0     H80691   7.473  11.490   8.639 -2.1308 -1.3455 -0.2436
  598MOL0     H80692   7.390  11.418   8.780 -0.4783  0.7769  1.0566
  598MOL0     H80693   7.333  11.570   8.724  0.2645  1.0910  1.3380
  598MOL0     H80694   7.627  11.940   8.482 -2.0480 -0.4419 -0.2820
  598MOL0     H80695   7.716  11.988   8.254 -0.5884  0.6235  1.1236
  598MOL0     H80696   7.714  11.995   7.997  0.0550  0.7132  1.6076
  598MOL0     H80697   7.845  12.001   8.101 -0.7298  1.7435 -0.6708
  598MOL0     H80698   7.934  12.043   7.881 -2.2881  0.4345  1.0962
  598MOL0     H80699   7.977  11.877   7.933 -0.4223 -1.2636 -0.8006
  598MOL0     H80700   7.796  11.795   7.773  2.9708 -0.6543  3.1556
  598MOL0     H80701   7.926  11.898   7.687  1.6478  1.3581  2.3346
  598MOL0     H80702   7.658  12.008   7.788  2.0917  3.0364  1.0886
  598MOL0     H80703   7.776  12.089   7.676  0.9433 -0.4545  0.6237
  598MOL0     H80704   7.577  12.011   7.546 -2.9405 -1.9987  2.0817
  598MOL0     H80705   7.601  11.848   7.617 -1.2550 -1.9200 -4.5802
  598MOL0     H80706   7.808  11.953   7.434  2.1983  0.8174  1.8547
  598MOL0     H80707   7.806  11.798   7.507  0.3254 -0.0514 -1.3671
  598MOL0     H80708   7.600  11.896   7.306 -4.8629 -0.7899  1.9095
  598MOL0     H80709   7.572  11.766   7.409 -1.4394  2.0636 -1.3009
  598MOL0     H80710   7.805  11.683   7.308  3.5802  2.6370 -0.9526
  598MOL0     H80711   7.803  11.821   7.193 -0.6589  0.1591 -1.0362
  598MOL0     H80712   7.705  11.575   8.157 -0.7760 -0.4593  1.1748
  598MOL0     H80713   7.615  11.524   8.380  2.5565 -0.1319  1.0048
  598MOL0     H80714   7.827  11.731   8.864  0.7388 -3.2225 -2.4569
  598MOL0     H80715   7.761  11.702   9.118  0.8303 -2.4384  0.4612
  598MOL0     H80716   8.368  10.404   9.289 -0.5894 -0.6230 -0.0963
  598MOL0     H80717   8.431  10.210   9.141  1.3728  0.7092  3.1572
  598MOL0     H80718   8.540  10.088   8.725 -0.0278  0.4229  1.0447
  598MOL0     H80719   8.561  10.012   8.505 -0.9680 -1.2400  3.5875
  598MOL0     H80720   8.768   9.915   8.204  0.1527  0.0560  1.5577
  598MOL0     H80721   8.625   9.979   8.299  1.1213  1.9142  1.0960
  598MOL0     H80722   8.849  10.095   8.119 -1.0889 -0.0359 -1.7168
  598MOL0     H80723   8.774  10.204   8.236 -1.5211  1.3735 -1.3465
  598MOL0     H80724   8.661  10.236   8.032  1.7245 -1.3021 -0.8850
  598MOL0     H80725   8.557  10.162   8.148 -2.2606  0.3930 -1.6134
  598MOL0     H80726   8.596   9.939   8.015 -0.1301  0.2407  0.6008
  598MOL0     H80727   8.718  10.009   7.924  0.2243 -0.9149  1.7971
  598MOL0     H80728   8.328  10.111   7.764 -1.1500  2.9275  3.3143
  598MOL0     H80729   8.988  10.058   8.522  0.2059  3.6795  0.2537
  598MOL0     H80730   8.963  10.177   8.739  0.7223  2.0953 -2.2477
  599MOL0     O80731   8.595   0.844   1.768  0.3562  0.2620  0.2688
  599MOL0     C80732   8.474   0.842   1.776 -0.3958  0.0417 -0.2570
  599MOL0     O80733   8.396   0.908   1.690 -0.6345 -0.3021  0.6200
  599MOL0     C80734   8.447   1.006   1.609 -0.6145 -0.2178  0.1617
  599MOL0     C80735   8.472   0.990   1.462 -0.2035  0.3785  0.5701
  599MOL0     C80736   8.533   1.096   1.391 -0.4691  1.1098  0.1337
  599MOL0     C80737   8.581   1.207   1.462  1.1581  0.2819  0.3915
  599MOL0     O80738   8.631   1.312   1.395  0.5742  0.3163 -0.1219
  599MOL0     C80739   8.595   1.337   1.260  0.5745 -0.0340  0.2338
  599MOL0     C80740   8.445   1.383   1.224  0.2050 -0.6055 -0.3094
  599MOL0     C80741   8.432   1.447   1.082  0.1525  0.2392 -0.9514
  599MOL0     C80742   8.293   1.467   1.052 -0.1536  0.7497  0.2789
  599MOL0     C80743   8.286   1.496   0.902  0.1684 -1.5525 -0.6674
  599MOL0     C80744   8.154   1.573   0.868  0.4965 -0.3784  0.3753
  599MOL0     C80745   8.167   1.622   0.714 -0.8300 -0.2738 -0.3903
  599MOL0     C80746   8.047   1.715   0.668  0.4238  0.1011 -0.1465
  599MOL0     N80747   8.057   1.730   0.516  0.3894  0.5005 -1.4816
  599MOL0     C80748   8.032   1.624   0.427  0.3257  0.3821 -0.4666
  599MOL0     C80749   8.016   1.684   0.307  0.2763  0.8581  0.1829
  599MOL0     C80750   7.981   1.621   0.171  0.0108  0.5309 -0.4845
  599MOL0     C80751   8.105   1.570   0.089 -1.0326  0.6635 -0.5074
  599MOL0     C80752   8.079   1.438   0.017  0.6433 -1.4222 -0.1116
  599MOL0     C80753   7.953   1.425  -0.064 -0.6611 -0.5053 -0.1329
  599MOL0     O80754   7.916   1.543  -0.139 -0.3527 -0.3554  0.2097
  599MOL0     C80755   7.949   1.546  -0.277 -0.7052 -0.6167 -0.9167
  599MOL0     C80756   8.037   1.458  -0.343  0.7146  0.0535 -0.3858
  599MOL0     C80757   8.048   1.462  -0.485 -0.3703 -0.3397 -0.4529
  599MOL0     C80758   8.127   1.344  -0.538 -0.5239  0.3161 -0.0514
  599MOL0     C80759   7.985   1.565  -0.559 -0.1302  0.1266 -1.3966
  599MOL0     C80760   7.988   1.587  -0.705 -0.0584  0.7642  0.6557
  599MOL0     O80761   7.886   1.659  -0.763 -0.0214  0.9234  0.1106
  599MOL0     C80762   7.914   1.699  -0.896  1.4012  0.3122  0.4662
  599MOL0     C80763   7.853   1.635  -1.007 -0.0729  0.1998  0.4897
  599MOL0     C80764   7.875   1.686  -1.135  0.1595 -0.5620 -0.0229
  599MOL0     C80765   7.960   1.793  -1.162  0.3646  0.6230 -0.2062
  599MOL0     O80766   7.982   1.842  -1.289  0.6479  1.2133  0.4801
  599MOL0     C80767   8.012   1.982  -1.306  0.5048  0.0991  0.5389
  599MOL0     C80768   7.987   2.033  -1.457  0.6122 -0.5452  0.3387
  599MOL0     C80769   7.840   2.018  -1.500 -0.0739 -0.2333  0.5404
  599MOL0     C80770   7.815   2.028  -1.653 -0.1499 -0.4455 -0.0972
  599MOL0     C80771   7.663   2.040  -1.690  0.7358  0.1050 -0.5138
  599MOL0     C80772   7.642   2.014  -1.838 -0.3118 -0.3462  0.3890
  599MOL0     C80773   7.497   2.041  -1.885 -0.1660  0.3810 -0.6741
  599MOL0     C80774   7.490   2.033  -2.037 -0.1226  0.6785  0.3144
  599MOL0    Cl80775   7.571   2.188  -2.080 -0.0515  0.4113  0.1113
  599MOL0     C80776   8.015   1.861  -1.051 -0.4403 -0.1969 -0.7758
  599MOL0     C80777   7.991   1.815  -0.919  0.3979  0.2830 -0.5574
  599MOL0     O80778   8.080   1.535  -0.765  0.3050 -0.1022 -0.0015
  599MOL0     C80779   7.911   1.657  -0.480 -0.4540 -0.7213 -0.3054
  599MOL0     C80780   7.902   1.649  -0.345  0.4646  0.1118 -0.7641
  599MOL0     N80781   8.020   1.828   0.323 -0.2316  0.5235  0.5656
  599MOL0     N80782   8.050   1.851   0.450  0.6877  0.4736 -0.5237
  599MOL0     C80783   8.554   1.217   1.593 -0.6946 -0.3387 -0.5607
  599MOL0     C80784   8.490   1.123   1.669 -0.4162  0.0288 -0.9216
  599MOL0     C80785   8.409   0.773   1.889  0.4684  0.5967 -0.0792
  599MOL0     C80786   8.473   0.664   1.952 -0.2053  0.1667 -0.6051
  599MOL0     C80787   8.409   0.593   2.050 -0.2358  1.1192  0.8701
  599MOL0     C80788   8.276   0.619   2.099  1.1750 -0.3624  0.2561
  599MOL0     O80789   8.185   0.551   2.177  0.6078 -0.5923 -0.0310
  599MOL0     C80790   8.242   0.420   2.226 -0.1336 -0.8283  0.9399
  599MOL0     C80791   8.142   0.359   2.328 -0.2627 -1.3003  0.8831
  599MOL0     C80792   8.008   0.344   2.264  1.4292 -0.1472  0.3459
  599MOL0     C80793   7.933   0.205   2.298 -0.4906  0.0164  0.4775
  599MOL0     C80794   7.908   0.190   2.433 -0.3792 -0.4177 -0.5655
  599MOL0     C80795   7.910   0.195   2.555 -0.1061 -1.5094 -0.2434
  599MOL0     C80796   8.220   0.729   2.026  0.1349 -0.3458 -0.0299
  599MOL0     C80797   8.286   0.804   1.934  0.1966  0.3255  0.7438
  599MOL0     H80798   8.438   0.901   1.410 -2.2428 -0.4967  3.1611
  599MOL0     H80799   8.555   1.061   1.291 -2.2725 -0.4420  0.2161
  599MOL0     H80800   8.675   1.396   1.213 -0.7239  1.7324  0.1573
  599MOL0     H80801   8.605   1.246   1.200  1.1354  0.5114 -0.5214
  599MOL0     H80802   8.378   1.299   1.241  0.1834 -0.4916  0.1879
  599MOL0     H80803   8.401   1.453   1.296 -0.5550 -3.0005  1.6595
  599MOL0     H80804   8.490   1.539   1.071 -0.1062  0.1806 -3.0991
  599MOL0     H80805   8.467   1.369   1.015  1.6531  0.1704 -0.1410
  599MOL0     H80806   8.246   1.375   1.086  2.8521 -1.0290  0.0090
  599MOL0     H80807   8.238   1.546   1.104  2.3898  1.8903  1.4228
  599MOL0     H80808   8.362   1.569   0.871 -0.9008 -0.0867  0.0279
  599MOL0     H80809   8.293   1.407   0.839  0.0768 -1.4619 -0.8084
  599MOL0     H80810   8.068   1.505   0.872  0.1185 -0.2180 -2.5658
  599MOL0     H80811   8.138   1.655   0.938  1.1557  3.3172 -3.3585
  599MOL0     H80812   8.257   1.679   0.690 -2.2436  0.7445 -3.9241
  599MOL0     H80813   8.158   1.533   0.650 -1.5178 -2.1144  2.0767
  599MOL0     H80814   8.048   1.812   0.719 -0.1543  1.1638 -2.0501
  599MOL0     H80815   7.953   1.669   0.701 -0.3846  1.0050 -1.0958
  599MOL0     H80816   8.061   1.520   0.428  0.7416  0.4808 -1.1818
  599MOL0     H80817   7.907   1.542   0.182  0.9414 -0.5526 -1.7547
  599MOL0     H80818   7.932   1.692   0.104  0.3786 -1.4322 -2.9849
  599MOL0     H80819   8.187   1.561   0.161 -1.2853  0.2536 -0.2654
  599MOL0     H80820   8.142   1.649   0.022  2.2229 -0.9672 -0.7927
  599MOL0     H80821   8.061   1.361   0.093 -0.4959  0.2919  1.4290
  599MOL0     H80822   8.160   1.399  -0.046 -3.5119 -1.6684 -6.1834
  599MOL0     H80823   7.868   1.403   0.002 -1.7261  0.5217 -1.1105
  599MOL0     H80824   7.964   1.334  -0.123  0.2029  0.3809 -1.3844
  599MOL0     H80825   8.069   1.368  -0.291 -4.1177 -0.4538  2.2864
  599MOL0     H80826   8.198   1.326  -0.456  0.2211  1.2293 -0.4735
  599MOL0     H80827   8.061   1.257  -0.544 -1.3022  0.9825 -1.7708
  599MOL0     H80828   8.182   1.355  -0.632 -1.7522  2.2033 -0.6208
  599MOL0     H80829   7.802   1.540  -1.005  3.3449 -1.8471 -0.8490
  599MOL0     H80830   7.819   1.631  -1.209  1.8908  0.4083 -2.1700
  599MOL0     H80831   7.954   2.044  -1.238  1.9278  1.0955  0.8880
  599MOL0     H80832   8.115   2.007  -1.282 -0.1564  4.0297 -0.0212
  599MOL0     H80833   8.022   2.136  -1.453 -1.6055  0.2023  2.5767
  599MOL0     H80834   8.051   1.979  -1.528  1.4849  0.4100  0.3829
  599MOL0     H80835   7.790   2.108  -1.463 -3.5414 -1.1491 -1.4985
  599MOL0     H80836   7.795   1.929  -1.456  2.4532 -1.9626 -0.1536
  599MOL0     H80837   7.872   2.113  -1.692  0.6153 -0.5606  0.7159
  599MOL0     H80838   7.849   1.939  -1.706  0.3916  0.1558 -0.7692
  599MOL0     H80839   7.639   2.144  -1.666  2.0074  0.2803  0.0630
  599MOL0     H80840   7.605   1.968  -1.632  1.6386  1.1212  1.7677
  599MOL0     H80841   7.727   2.066  -1.883 -0.5872  1.3162  1.7010
  599MOL0     H80842   7.676   1.912  -1.857  3.6773  0.9506 -0.4199
  599MOL0     H80843   7.480   2.144  -1.852  1.1250  0.8367 -1.3756
  599MOL0     H80844   7.426   1.975  -1.834  1.4321 -0.9858 -0.1290
  599MOL0     H80845   7.387   2.031  -2.074 -0.6524 -0.2301  1.7724
  599MOL0     H80846   7.546   1.950  -2.083 -0.9398 -0.1546  0.7998
  599MOL0     H80847   8.092   1.936  -1.063  2.8443 -2.2222  4.2413
  599MOL0     H80848   8.046   1.858  -0.836 -1.7589  0.9824  0.5877
  599MOL0     H80849   7.866   1.739  -0.534  1.9228  1.9090  1.4225
  599MOL0     H80850   7.826   1.699  -0.286 -2.1111 -0.7476 -3.1089
  599MOL0     H80851   8.594   1.304   1.644  2.7903 -2.0338 -0.1398
  599MOL0     H80852   8.494   1.115   1.778 -1.9001 -1.2909 -0.9288
  599MOL0     H80853   8.567   0.623   1.917 -0.7497 -0.0943 -1.8127
  599MOL0     H80854   8.459   0.503   2.082  3.3763  2.2512 -1.0757
  599MOL0     H80855   8.259   0.360   2.136  0.5382 -0.0762  0.5583
  599MOL0     H80856   8.345   0.433   2.260  0.5612  1.5606 -1.7071
  599MOL0     H80857   8.137   0.426   2.414 -2.1245 -2.4532  1.7399
  599MOL0     H80858   8.179   0.259   2.353  1.8226 -0.8907 -0.3459
  599MOL0     H80859   8.005   0.354   2.155  1.3542  2.3343  0.5103
  599MOL0     H80860   7.937   0.418   2.302 -0.0783 -0.5665 -1.4575
  599MOL0     H80861   7.987   0.112   2.277  0.2362  1.0322 -2.6283
  599MOL0     H80862   7.840   0.199   2.241  0.8086 -1.9747 -1.6010
  599MOL0     H80863   7.905   0.190   2.662 -1.6171 -3.5225 -0.3486
  599MOL0     H80864   8.116   0.753   2.046  0.3554  0.1794  0.5064
  599MOL0     H80865   8.237   0.886   1.882 -2.9893 -1.1762  1.1357
  600MOL0     O80866   1.399   1.955   0.547 -0.3598 -0.5858 -0.7465
  600MOL0     C80867   1.315   1.869   0.519  0.5046 -0.4874  0.3292
  600MOL0     O80868   1.243   1.867   0.400 -0.0933  0.3849 -0.0142
  600MOL0     C80869   1.247   1.964   0.294  0.2670  0.2247 -0.2858
  600MOL0     C80870   1.359   2.052   0.270  0.3278 -0.2301 -0.8717
  600MOL0     C80871   1.345   2.152   0.181  0.0491  0.0730  0.0329
  600MOL0     C80872   1.231   2.179   0.112  0.6014 -0.3822  0.9465
  600MOL0     O80873   1.202   2.282   0.024  0.2964 -0.3076 -0.2333
  600MOL0     C80874   1.302   2.339  -0.061  0.8147  0.3233 -0.8044
  600MOL0     C80875   1.242   2.393  -0.195  0.1242  0.3192  0.0176
  600MOL0     C80876   1.357   2.392  -0.297 -0.9829 -0.9352 -0.2555
  600MOL0     C80877   1.312   2.465  -0.420 -0.6948 -0.3874  0.4723
  600MOL0     C80878   1.433   2.521  -0.500 -0.4560  0.6892 -0.8682
  600MOL0     C80879   1.391   2.620  -0.610 -0.3775 -0.5859  0.4353
  600MOL0     C80880   1.335   2.571  -0.747  0.1380  0.2474 -0.9159
  600MOL0     C80881   1.187   2.521  -0.741  0.3832 -0.8173  0.2631
  600MOL0     N80882   1.131   2.549  -0.875 -0.5694  0.5411 -0.1214
  600MOL0     C80883   1.019   2.623  -0.905  0.4154  0.0389 -0.8219
  600MOL0     C80884   0.989   2.597  -1.033 -0.1149 -0.0764 -0.5088
  600MOL0     C80885   0.867   2.627  -1.113 -0.6725 -0.0231 -0.3827
  600MOL0     C80886   0.744   2.549  -1.060 -0.4552  0.5317  0.1028
  600MOL0     C80887   0.762   2.397  -1.044 -0.5164  0.3781  0.1749
  600MOL0     C80888   0.628   2.322  -1.034  0.0337 -0.5775  0.0144
  600MOL0     O80889   0.664   2.186  -1.002 -0.4602 -0.5195  0.2229
  600MOL0     C80890   0.566   2.100  -0.979  0.9495  0.7697 -0.0217
  600MOL0     C80891   0.590   1.966  -0.960  0.0014 -0.3994 -0.3794
  600MOL0     C80892   0.493   1.866  -0.942 -0.2894 -1.0472 -0.1175
  600MOL0     C80893   0.541   1.724  -0.934 -0.2082  0.3319 -0.8988
  600MOL0     C80894   0.353   1.904  -0.937  0.4058  0.6055 -0.3011
  600MOL0     C80895   0.240   1.808  -0.945 -0.0694  0.1834  0.4147
  600MOL0     O80896   0.259   1.677  -0.930  0.2786  0.8629 -0.0095
  600MOL0     C80897   0.152   1.595  -0.944  1.1265 -1.2056  0.4002
  600MOL0     C80898   0.149   1.503  -1.056  0.3727  0.1301  0.0877
  600MOL0     C80899   0.038   1.420  -1.080  0.3462  0.1772 -0.5974
  600MOL0     C80900  -0.067   1.422  -0.984  0.6941 -0.2527  0.4042
  600MOL0     O80901  -0.177   1.347  -1.006 -0.7879 -0.4754  0.0292
  600MOL0     C80902  -0.271   1.316  -0.902  0.2195  0.1108 -0.4210
  600MOL0     C80903  -0.370   1.208  -0.949 -0.0053  0.9192 -0.5164
  600MOL0     C80904  -0.304   1.074  -0.980  0.4798 -0.3241 -0.0590
  600MOL0     C80905  -0.308   1.056  -1.140 -0.4878  0.7209  0.4368
  600MOL0     C80906  -0.279   0.922  -1.201  0.0136  0.5192 -0.1676
  600MOL0     C80907  -0.276   0.922  -1.354 -0.5566  0.7734 -0.4944
  600MOL0     C80908  -0.232   0.790  -1.421  0.1459  0.1843 -0.0336
  600MOL0     C80909  -0.342   0.693  -1.454  0.9819  0.1692  0.0972
  600MOL0    Cl80910  -0.416   0.633  -1.295 -0.6590  0.0906  0.4450
  600MOL0     C80911  -0.066   1.517  -0.878 -0.4143 -0.5895  0.5514
  600MOL0     C80912   0.049   1.597  -0.851  0.0790  0.3786 -0.2018
  600MOL0     O80913   0.132   1.862  -0.966 -0.3237 -0.1010 -0.2671
  600MOL0     C80914   0.325   2.043  -0.957 -0.7299  0.6218 -0.7277
  600MOL0     C80915   0.425   2.135  -0.986 -0.3895 -0.2162  0.3935
  600MOL0     N80916   1.085   2.515  -1.083  0.1251  0.2428 -0.3142
  600MOL0     N80917   1.168   2.477  -0.980 -0.2442  0.1518 -0.0778
  600MOL0     C80918   1.129   2.083   0.126  1.1716 -0.3763  0.3593
  600MOL0     C80919   1.134   1.975   0.216  0.3745  0.7340  0.2575
  600MOL0     C80920   1.289   1.756   0.614  0.0760  0.5182 -0.5292
  600MOL0     C80921   1.168   1.686   0.613  0.2487 -0.4094 -0.6053
  600MOL0     C80922   1.141   1.574   0.687 -0.5284 -0.3576  0.5225
  600MOL0     C80923   1.244   1.515   0.771  1.4639 -1.6554  0.1863
  600MOL0     O80924   1.219   1.396   0.834  0.0538  0.6128 -0.2698
  600MOL0     C80925   1.329   1.351   0.920  0.0904  0.4754 -0.5479
  600MOL0     C80926   1.294   1.220   0.991 -0.1318  0.2501  0.1034
  600MOL0     C80927   1.165   1.217   1.077  0.3735 -0.4322 -0.3318
  600MOL0     C80928   1.160   1.333   1.181 -0.2299  0.2650 -0.6053
  600MOL0     C80929   1.106   1.275   1.305 -0.3833  1.2769  0.6808
  600MOL0     C80930   1.061   1.219   1.403  0.2395 -0.3452 -1.1672
  600MOL0     C80931   1.367   1.582   0.783 -0.0074 -1.4179  0.5144
  600MOL0     C80932   1.384   1.699   0.706  0.6510  0.9579 -0.3242
  600MOL0     H80933   1.456   2.030   0.315  1.5293  1.1699 -2.6622
  600MOL0     H80934   1.415   2.234   0.174 -0.2289  0.3775  0.7300
  600MOL0     H80935   1.349   2.421  -0.006 -1.5457 -0.8332  3.3513
  600MOL0     H80936   1.377   2.263  -0.087  2.5433  1.4841  0.5722
  600MOL0     H80937   1.164   2.331  -0.238  1.4730 -2.2775  1.0909
  600MOL0     H80938   1.195   2.491  -0.185 -3.6560 -1.5028  2.8299
  600MOL0     H80939   1.432   2.451  -0.244 -5.5465  3.3685  2.2196
  600MOL0     H80940   1.392   2.291  -0.319  2.0075 -0.5447  2.0809
  600MOL0     H80941   1.255   2.394  -0.482 -0.0775 -1.8907  1.5783
  600MOL0     H80942   1.247   2.550  -0.398 -3.5345 -2.5139  0.9219
  600MOL0     H80943   1.504   2.577  -0.439  0.9506  0.2501 -2.0436
  600MOL0     H80944   1.478   2.439  -0.557 -1.2706  0.4497 -1.1896
  600MOL0     H80945   1.316   2.693  -0.578 -2.1828 -1.5290 -1.3943
  600MOL0     H80946   1.489   2.660  -0.638  0.2341 -2.2469  0.1138
  600MOL0     H80947   1.348   2.662  -0.808 -0.2086  2.2118  1.7724
  600MOL0     H80948   1.400   2.493  -0.786 -0.2014 -0.5247  0.0281
  600MOL0     H80949   1.130   2.574  -0.664 -0.0077 -0.9022  0.0312
  600MOL0     H80950   1.185   2.413  -0.721  0.3181 -0.4228  2.7791
  600MOL0     H80951   0.965   2.685  -0.835 -0.4283 -2.5070  0.9146
  600MOL0     H80952   0.843   2.734  -1.113  0.9165  0.3816  1.5328
  600MOL0     H80953   0.888   2.603  -1.218  6.6493  2.3205 -0.0080
  600MOL0     H80954   0.674   2.563  -1.142  0.3190 -0.5592 -0.7872
  600MOL0     H80955   0.702   2.592  -0.969 -1.5386 -0.6553  0.1908
  600MOL0     H80956   0.828   2.366  -0.962  0.7457  4.5843  0.9815
  600MOL0     H80957   0.804   2.356  -1.137 -2.0894  1.3177 -0.9912
  600MOL0     H80958   0.575   2.334  -1.129 -0.4712  2.6048  0.5993
  600MOL0     H80959   0.570   2.369  -0.954  1.4061  1.1343  0.0450
  600MOL0     H80960   0.692   1.932  -0.950  0.9286  2.2980  0.1866
  600MOL0     H80961   0.645   1.712  -0.965  0.1925  0.1034  0.4536
  600MOL0     H80962   0.537   1.698  -0.828 -2.2053  3.4500 -0.0733
  600MOL0     H80963   0.480   1.652  -0.989  4.0932 -5.2721  0.7321
  600MOL0     H80964   0.235   1.511  -1.121  0.1480 -0.3347 -0.2758
  600MOL0     H80965   0.045   1.352  -1.165 -1.1785 -0.4775 -0.2309
  600MOL0     H80966  -0.220   1.279  -0.812  0.9696  1.2705 -0.3457
  600MOL0     H80967  -0.331   1.406  -0.885 -0.6322 -0.6545  0.7541
  600MOL0     H80968  -0.435   1.195  -0.862 -0.0687 -1.4406 -0.8620
  600MOL0     H80969  -0.438   1.245  -1.026 -1.9243  0.3628  0.8309
  600MOL0     H80970  -0.354   0.991  -0.929 -1.8743  0.7537 -0.4927
  600MOL0     H80971  -0.197   1.064  -0.956 -0.1407 -0.8293  2.8027
  600MOL0     H80972  -0.408   1.080  -1.179 -1.3314 -3.6333 -0.6635
  600MOL0     H80973  -0.233   1.120  -1.187  1.6401 -0.0700  2.5452
  600MOL0     H80974  -0.357   0.853  -1.169 -0.1253  1.4792  1.7300
  600MOL0     H80975  -0.184   0.882  -1.164  0.4917  0.5629 -1.3044
  600MOL0     H80976  -0.367   0.956  -1.404 -1.4250 -0.9484 -0.1539
  600MOL0     H80977  -0.210   1.002  -1.388 -0.9298  0.6808 -1.4586
  600MOL0     H80978  -0.156   0.743  -1.358 -1.5626  0.9262  2.7397
  600MOL0     H80979  -0.166   0.821  -1.503  2.2772  0.0405  1.5325
  600MOL0     H80980  -0.314   0.612  -1.522  1.2446 -1.0311  1.5854
  600MOL0     H80981  -0.418   0.749  -1.510 -0.0073 -0.4073  0.8200
  600MOL0     H80982  -0.146   1.518  -0.805 -0.3184 -0.0730  0.6515
  600MOL0     H80983   0.044   1.671  -0.772 -2.1657  0.0127  0.0507
  600MOL0     H80984   0.221   2.073  -0.959 -0.9654  0.0738  1.0996
  600MOL0     H80985   0.396   2.239  -0.994  0.2706 -0.0977 -0.6908
  600MOL0     H80986   1.041   2.105   0.065  3.9310  2.9899 -2.8957
  600MOL0     H80987   1.051   1.912   0.244 -0.0584  1.4194  0.5636
  600MOL0     H80988   1.091   1.727   0.547  0.3468 -0.8839 -1.0250
  600MOL0     H80989   1.043   1.529   0.675 -1.3023  1.4055 -0.2119
  600MOL0     H80990   1.414   1.330   0.853  1.5154  0.1153  1.3027
  600MOL0     H80991   1.352   1.424   0.997 -3.2361 -0.0968  1.1446
  600MOL0     H80992   1.364   1.201   1.073 -0.5317 -0.7013  0.2374
  600MOL0     H80993   1.297   1.135   0.922 -0.4082  1.0857 -0.9659
  600MOL0     H80994   1.170   1.124   1.135  0.0562 -0.6101 -0.5837
  600MOL0     H80995   1.073   1.226   1.018 -0.8619 -0.3916  1.5097
  600MOL0     H80996   1.114   1.425   1.141  1.0848  1.4911  0.5728
  600MOL0     H80997   1.262   1.364   1.208  0.1391 -1.4089 -0.0147
  600MOL0     H80998   1.024   1.172   1.492  2.2322 -0.3979 -0.3173
  600MOL0     H80999   1.453   1.541   0.835 -0.2770 -1.9451  0.5522
  600MOL0     H81000   1.475   1.756   0.726  0.1309  2.3922 -1.8407
  601MOL0     O81001   9.536   2.823   2.502  0.3429 -0.4586 -0.1568
  601MOL0     C81002   9.526   2.726   2.572  0.2016  0.6079 -0.2799
  601MOL0     O81003   9.489   2.732   2.712 -0.5682 -0.1250  0.1171
  601MOL0     C81004   9.482   2.849   2.777  0.3730 -0.0234  0.1510
  601MOL0     C81005   9.377   2.938   2.749 -0.5529 -0.6515  0.2057
  601MOL0     C81006   9.363   3.054   2.815  1.2585  0.0739  0.3880
  601MOL0     C81007   9.438   3.077   2.927 -0.1291 -0.7464 -0.5791
  601MOL0     O81008   9.427   3.199   3.001 -0.2338  0.2803 -0.0884
  601MOL0     C81009   9.317   3.292   2.985  0.5260 -0.0933  0.8153
  601MOL0     C81010   9.289   3.394   3.101 -0.2726  0.5419 -0.1702
  601MOL0     C81011   9.263   3.337   3.249 -0.9253 -0.8704 -1.1417
  601MOL0     C81012   9.117   3.338   3.302 -0.1521 -1.3835  0.4121
  601MOL0     C81013   9.024   3.236   3.223 -0.8701 -0.4790 -1.0902
  601MOL0     C81014   8.891   3.291   3.197 -0.1099 -0.0112 -0.0813
  601MOL0     C81015   8.818   3.220   3.080  0.0314 -0.5997 -0.9011
  601MOL0     C81016   8.875   3.244   2.941 -0.3924 -0.0702  0.6009
  601MOL0     N81017   8.921   3.374   2.909 -0.1828 -0.5928 -0.4539
  601MOL0     C81018   8.858   3.495   2.934  0.0699 -1.3477  0.4498
  601MOL0     C81019   8.911   3.582   2.843 -0.3655  0.6866  0.5186
  601MOL0     C81020   8.897   3.733   2.822  1.4982  0.4625  0.2698
  601MOL0     C81021   8.834   3.778   2.685  0.2607  0.1919  0.3225
  601MOL0     C81022   8.693   3.713   2.662  0.7963  0.1708  0.0136
  601MOL0     C81023   8.576   3.746   2.763  0.1957  0.6593 -0.5745
  601MOL0     O81024   8.459   3.689   2.714 -0.2400 -0.2756  0.3340
  601MOL0     C81025   8.367   3.667   2.806 -0.1716 -0.3563  0.3961
  601MOL0     C81026   8.297   3.546   2.807 -0.7697 -0.5969 -0.6755
  601MOL0     C81027   8.213   3.509   2.905  1.1208 -0.5166  0.4520
  601MOL0     C81028   8.177   3.362   2.923 -0.1559  0.7688 -0.8470
  601MOL0     C81029   8.169   3.605   3.006 -0.9589  1.3594 -0.3178
  601MOL0     C81030   8.062   3.571   3.103 -0.9863  0.3522  0.2574
  601MOL0     O81031   8.084   3.636   3.214 -0.3110 -1.0764 -0.5807
  601MOL0     C81032   8.010   3.608   3.331  0.3615  0.2070  0.1920
  601MOL0     C81033   8.071   3.560   3.454  0.7095  0.3172  0.5386
  601MOL0     C81034   7.993   3.552   3.576  0.1418 -0.3118  0.4233
  601MOL0     C81035   7.860   3.581   3.576 -0.3640 -1.1357 -0.0646
  601MOL0     O81036   7.789   3.587   3.692  0.5639 -0.7186 -0.6718
  601MOL0     C81037   7.820   3.508   3.807  0.6333 -0.1757  0.9585
  601MOL0     C81038   7.836   3.361   3.776  0.8235  0.3055  0.3904
  601MOL0     C81039   7.695   3.292   3.766 -1.3261 -0.4670  0.3584
  601MOL0     C81040   7.628   3.325   3.632 -0.1021 -0.0291  0.2917
  601MOL0     C81041   7.478   3.278   3.613 -0.1863 -0.3553 -0.0435
  601MOL0     C81042   7.464   3.127   3.597  0.2782 -0.0591 -0.5626
  601MOL0     C81043   7.327   3.082   3.657 -0.1342 -0.4197  1.0535
  601MOL0     C81044   7.212   3.163   3.583 -0.4079  0.2548 -0.9536
  601MOL0    Cl81045   7.197   3.098   3.419 -0.1146  0.0203  0.2453
  601MOL0     C81046   7.798   3.630   3.466 -0.0768 -0.1498 -0.3192
  601MOL0     C81047   7.867   3.630   3.345 -1.0066  0.3649 -0.0683
  601MOL0     O81048   7.974   3.482   3.083 -0.7106  0.2837  0.0164
  601MOL0     C81049   8.224   3.731   2.990  0.9046 -0.2186 -0.0660
  601MOL0     C81050   8.326   3.765   2.902  0.4714 -0.2721  0.3048
  601MOL0     N81051   9.021   3.516   2.785 -0.6533 -0.0288 -0.3370
  601MOL0     N81052   9.016   3.395   2.817  0.2388  0.3754  0.9974
  601MOL0     C81053   9.537   2.983   2.971  0.1011 -0.5694  0.8106
  601MOL0     C81054   9.553   2.861   2.892 -0.6435 -0.8026 -0.0739
  601MOL0     C81055   9.507   2.599   2.515  0.3978 -1.3507  0.9565
  601MOL0     C81056   9.519   2.585   2.372  0.0905 -0.3203 -0.5643
  601MOL0     C81057   9.492   2.456   2.316 -0.8837  0.6548  0.5862
  601MOL0     C81058   9.424   2.359   2.387  0.3219  1.0254  0.4583
  601MOL0     O81059   9.392   2.232   2.356 -0.6349 -0.1187 -0.0224
  601MOL0     C81060   9.402   2.202   2.209 -0.0833 -0.1325 -0.0734
  601MOL0     C81061   9.374   2.062   2.182 -0.1009 -0.1627  0.3924
  601MOL0     C81062   9.393   2.021   2.038 -0.2632 -0.2852 -0.7227
  601MOL0     C81063   9.373   1.872   2.002 -0.6106  0.7930  0.1323
  601MOL0     C81064   9.420   1.856   1.863 -0.4706  0.3576  0.0194
  601MOL0     C81065   9.458   1.843   1.745 -0.2829 -0.1770 -0.8901
  601MOL0     C81066   9.406   2.379   2.523 -0.5178 -0.5171  0.4013
  601MOL0     C81067   9.445   2.492   2.588  0.1718  0.7015 -0.1806
  601MOL0     H81068   9.314   2.911   2.664  2.4902 -3.1366 -1.4806
  601MOL0     H81069   9.293   3.125   2.773 -1.7054 -2.8723 -0.0328
  601MOL0     H81070   9.341   3.356   2.900 -2.4869 -1.0131 -0.8522
  601MOL0     H81071   9.227   3.233   2.965 -0.4339  1.3825  0.6647
  601MOL0     H81072   9.389   3.437   3.106  0.6544 -1.4428 -0.4456
  601MOL0     H81073   9.216   3.466   3.063 -0.4758 -1.2326 -3.5998
  601MOL0     H81074   9.311   3.240   3.266  4.3586  1.7362  0.9643
  601MOL0     H81075   9.320   3.389   3.326 -3.5533 -1.8686  1.7109
  601MOL0     H81076   9.112   3.325   3.410  0.3301 -0.9873  0.4887
  601MOL0     H81077   9.084   3.439   3.275  4.0253 -0.4030 -1.9349
  601MOL0     H81078   9.073   3.208   3.130  0.4674 -5.0556  0.7409
  601MOL0     H81079   9.031   3.150   3.290 -0.9406  0.1518 -0.2560
  601MOL0     H81080   8.830   3.290   3.288 -0.5194  3.6020 -0.1640
  601MOL0     H81081   8.913   3.395   3.171  0.4368 -0.5518 -1.9408
  601MOL0     H81082   8.812   3.113   3.099  0.1156 -0.5481 -0.5704
  601MOL0     H81083   8.717   3.262   3.075 -0.3823 -1.5328 -0.6220
  601MOL0     H81084   8.798   3.220   2.867 -1.1215  0.0279  1.3190
  601MOL0     H81085   8.964   3.183   2.921  0.2616  1.5436 -1.7675
  601MOL0     H81086   8.777   3.525   3.000 -0.3092  0.1828 -0.6675
  601MOL0     H81087   8.844   3.788   2.900 -0.9462  1.3453 -1.8567
  601MOL0     H81088   9.004   3.755   2.823  1.3992  0.9701  1.6107
  601MOL0     H81089   8.899   3.753   2.600 -0.7730 -1.3899 -0.0438
  601MOL0     H81090   8.813   3.885   2.685 -0.1086  0.1406  1.9284
  601MOL0     H81091   8.709   3.605   2.667  4.1568  0.6089  1.0714
  601MOL0     H81092   8.666   3.744   2.561 -0.5125  3.4436  1.2039
  601MOL0     H81093   8.560   3.854   2.769  0.7142  0.9440 -3.0542
  601MOL0     H81094   8.602   3.701   2.858 -3.7760 -4.6508 -1.5813
  601MOL0     H81095   8.337   3.477   2.732 -2.7336 -1.1919 -1.2251
  601MOL0     H81096   8.069   3.346   2.924 -0.0362 -0.3882  1.8339
  601MOL0     H81097   8.222   3.299   2.846  0.1109  0.2594 -0.2839
  601MOL0     H81098   8.226   3.332   3.017  0.2853 -1.8440 -1.8153
  601MOL0     H81099   8.177   3.539   3.460  1.0000  1.0884 -1.3173
  601MOL0     H81100   8.043   3.530   3.670  0.1021  3.1034  1.3414
  601MOL0     H81101   7.917   3.537   3.850  2.3687  2.9886 -4.1907
  601MOL0     H81102   7.745   3.518   3.885 -0.0146 -0.6144  0.4010
  601MOL0     H81103   7.898   3.336   3.690  1.2046  1.3846  0.3337
  601MOL0     H81104   7.878   3.300   3.856  2.1958 -0.8259 -1.1493
  601MOL0     H81105   7.633   3.329   3.848 -1.5387  2.1841 -0.9018
  601MOL0     H81106   7.708   3.183   3.768  1.8987 -0.3499 -2.8520
  601MOL0     H81107   7.623   3.434   3.623  2.0939  0.0484 -0.6340
  601MOL0     H81108   7.676   3.283   3.544 -4.0277 -0.5312 -1.8236
  601MOL0     H81109   7.426   3.324   3.528 -0.5061 -3.5868 -1.7738
  601MOL0     H81110   7.426   3.312   3.703  2.8898  3.5846  0.5525
  601MOL0     H81111   7.470   3.102   3.491  0.0909  0.8682 -0.7968
  601MOL0     H81112   7.544   3.073   3.648  0.4078 -1.8674 -2.5484
  601MOL0     H81113   7.323   3.108   3.763  0.9305 -0.9561  1.2410
  601MOL0     H81114   7.315   2.973   3.660 -4.3329 -0.1443  0.2162
  601MOL0     H81115   7.223   3.272   3.580 -1.6405  0.4432  0.2069
  601MOL0     H81116   7.129   3.140   3.651  2.3230  0.5433  2.8023
  601MOL0     H81117   7.697   3.667   3.467  0.3150  0.9514 -0.5020
  601MOL0     H81118   7.805   3.626   3.256 -1.4958 -0.5544  0.3050
  601MOL0     H81119   8.191   3.815   3.050 -0.4666  1.4475 -2.9721
  601MOL0     H81120   8.372   3.862   2.914  1.0872 -0.3997 -0.9236
  601MOL0     H81121   9.611   3.006   3.047  1.2213  0.5561 -0.5702
  601MOL0     H81122   9.620   2.788   2.936  1.4911  2.3034  2.2371
  601MOL0     H81123   9.543   2.667   2.304 -2.6355  0.3889 -0.7598
  601MOL0     H81124   9.525   2.440   2.214 -0.8884 -2.6502  0.9909
  601MOL0     H81125   9.329   2.259   2.151  0.0592 -0.7077 -0.8364
  601MOL0     H81126   9.503   2.217   2.171 -0.3853 -0.9764 -1.2609
  601MOL0     H81127   9.270   2.038   2.207 -0.9126  1.5232 -1.1469
  601MOL0     H81128   9.434   2.001   2.251 -1.1761 -2.4802 -0.6109
  601MOL0     H81129   9.495   2.051   2.013  0.8960  1.1096  4.3835
  601MOL0     H81130   9.325   2.087   1.985 -1.5419 -1.6931 -0.8954
  601MOL0     H81131   9.265   1.852   2.009 -0.3929 -0.4548  0.1822
  601MOL0     H81132   9.437   1.816   2.071 -1.4908  0.5562  0.7793
  601MOL0     H81133   9.499   1.832   1.647  0.4071 -0.6201 -0.5616
  601MOL0     H81134   9.352   2.296   2.569  0.3190 -2.0317 -1.2438
  601MOL0     H81135   9.422   2.493   2.694 -0.2719  1.5549 -0.2805
  602MOL0     O81136   4.808   5.662   9.654  0.9817 -0.0075  0.3886
  602MOL0     C81137   4.831   5.621   9.539 -0.9781  0.2689  0.0218
  602MOL0     O81138   4.931   5.528   9.501 -0.2652 -0.3678  0.6502
  602MOL0     C81139   4.967   5.417   9.569 -0.2464  0.9606 -0.9929
  602MOL0     C81140   4.913   5.380   9.692  0.7941  0.5595 -0.3808
  602MOL0     C81141   4.953   5.258   9.757 -0.1423 -0.5880  0.2495
  602MOL0     C81142   5.054   5.181   9.693 -0.6528  0.0196  0.2741
  602MOL0     O81143   5.115   5.064   9.752 -0.4757 -0.6437  1.4198
  602MOL0     C81144   5.064   5.012   9.874 -0.3053  0.2056  1.1042
  602MOL0     C81145   5.180   4.939   9.944 -0.0812  0.3338  0.1232
  602MOL0     C81146   5.275   4.825   9.862  1.0388 -0.1003 -0.1757
  602MOL0     C81147   5.370   4.762   9.951 -0.3744  0.0808 -0.6497
  602MOL0     C81148   5.485   4.700   9.877  0.0880 -0.3155 -0.1793
  602MOL0     C81149   5.607   4.682   9.970  0.6078  0.1628 -0.1153
  602MOL0     C81150   5.718   4.586   9.924 -0.6706 -0.5076 -0.3116
  602MOL0     C81151   5.790   4.640   9.803  0.2642  0.1689  0.2493
  602MOL0     N81152   5.912   4.565   9.761  0.0718  0.2305  0.6288
  602MOL0     C81153   5.940   4.430   9.760 -0.1597 -0.4105  0.1468
  602MOL0     C81154   6.075   4.426   9.725  0.4365  0.3522  0.5384
  602MOL0     C81155   6.165   4.309   9.684  0.0581 -0.1005  0.6018
  602MOL0     C81156   6.230   4.241   9.807  0.2926 -0.4197 -0.1781
  602MOL0     C81157   6.129   4.176   9.905  0.4260  0.2331 -0.7002
  602MOL0     C81158   6.198   4.105  10.026  0.2530  0.2019 -0.5608
  602MOL0     O81159   6.254   3.987   9.972  0.1477 -0.6802  0.3389
  602MOL0     C81160   6.329   3.911  10.056  0.3488 -0.2086 -0.4871
  602MOL0     C81161   6.410   3.804  10.002 -1.0128 -1.0662 -0.4604
  602MOL0     C81162   6.486   3.713  10.077 -0.5270 -0.1654  0.3983
  602MOL0     C81163   6.562   3.611   9.998  0.1821  0.1029  0.0977
  602MOL0     C81164   6.479   3.724  10.217  0.5823 -0.3059  0.4064
  602MOL0     C81165   6.534   3.625  10.323  0.1171 -0.8476 -0.1258
  602MOL0     O81166   6.535   3.657  10.455  0.0050 -0.8209  0.8144
  602MOL0     C81167   6.568   3.560  10.547  0.4812  0.4234  0.5875
  602MOL0     C81168   6.461   3.472  10.594  0.2003  0.6936 -0.3855
  602MOL0     C81169   6.491   3.372  10.695  0.0642 -1.1071 -0.8488
  602MOL0     C81170   6.618   3.347  10.726 -0.5612 -0.2980  0.5747
  602MOL0     O81171   6.642   3.242  10.808 -0.6593 -0.1190  0.4378
  602MOL0     C81172   6.715   3.278  10.932  1.2530 -0.3055  0.5986
  602MOL0     C81173   6.863   3.260  10.927  0.1201 -1.1083  0.3918
  602MOL0     C81174   6.909   3.128  10.880 -0.3666  0.2335  0.4405
  602MOL0     C81175   7.058   3.085  10.893 -0.4049 -0.2487  1.0957
  602MOL0     C81176   7.153   3.198  10.861  0.2963 -0.7339 -0.7334
  602MOL0     C81177   7.305   3.154  10.867  2.0773  0.4881 -0.1778
  602MOL0     C81178   7.344   3.095  11.002 -1.0945  0.3527  0.1027
  602MOL0     C81179   7.496   3.078  11.007 -0.3044 -0.8675 -0.4758
  602MOL0    Cl81180   7.544   3.020  11.176 -0.1620 -0.2977 -0.0437
  602MOL0     C81181   6.729   3.420  10.668  0.0427 -0.3447 -0.2276
  602MOL0     C81182   6.692   3.534  10.595  1.2669  0.1306 -0.0230
  602MOL0     O81183   6.590   3.527  10.271  0.0390 -0.1362  0.5058
  602MOL0     C81184   6.405   3.832  10.274  0.9691 -0.3991  0.2350
  602MOL0     C81185   6.327   3.920  10.198 -0.5116 -0.3456  0.8198
  602MOL0     N81186   6.129   4.553   9.706  0.9354 -0.1483 -0.5094
  602MOL0     N81187   6.022   4.632   9.724 -0.9670  0.1608 -0.3073
  602MOL0     C81188   5.116   5.224   9.570 -0.4470 -0.1139 -0.2483
  602MOL0     C81189   5.065   5.336   9.500 -0.0604 -0.9821 -0.4764
  602MOL0     C81190   4.755   5.691   9.432 -0.4686  1.0266 -1.1759
  602MOL0     C81191   4.773   5.648   9.303  0.9934  0.2204  0.1694
  602MOL0     C81192   4.704   5.720   9.202 -0.0091  0.0961  0.2077
  602MOL0     C81193   4.618   5.829   9.234 -0.0598  0.7538  0.2316
  602MOL0     O81194   4.553   5.909   9.145 -0.8720 -0.1229  0.2063
  602MOL0     C81195   4.611   5.930   9.016  0.4660  0.2598 -0.3166
  602MOL0     C81196   4.530   5.822   8.926  0.1004  0.1124  0.0953
  602MOL0     C81197   4.560   5.838   8.778  0.0405  0.0043  0.0005
  602MOL0     C81198   4.447   5.776   8.690  0.4659  0.1142 -0.5373
  602MOL0     C81199   4.335   5.871   8.682 -0.4526 -1.4891  0.5307
  602MOL0     C81200   4.243   5.948   8.679 -0.8677  0.4562  0.3963
  602MOL0     C81201   4.596   5.860   9.364 -0.2562 -0.6420  0.1146
  602MOL0     C81202   4.672   5.806   9.462  0.6946  1.0944 -0.1273
  602MOL0     H81203   4.841   5.436   9.751  1.8774 -1.2435  2.9181
  602MOL0     H81204   4.897   5.228   9.845 -1.7842 -2.9998 -1.4917
  602MOL0     H81205   5.012   5.086   9.935 -1.6486  0.4880 -0.3122
  602MOL0     H81206   4.985   4.939   9.849  1.1467 -1.1432  0.2584
  602MOL0     H81207   5.244   5.012   9.994 -2.2773  3.1086 -0.8614
  602MOL0     H81208   5.131   4.890  10.029 -1.6058 -1.1916 -1.5443
  602MOL0     H81209   5.218   4.745   9.815 -0.4166  1.2061 -0.7317
  602MOL0     H81210   5.317   4.892   9.786 -1.5918 -1.1045 -2.6506
  602MOL0     H81211   5.413   4.827  10.027  2.6531 -5.5958  3.1835
  602MOL0     H81212   5.319   4.683  10.007  1.9560 -0.1458  1.3088
  602MOL0     H81213   5.454   4.600   9.846  1.2283 -1.0891  1.0598
  602MOL0     H81214   5.513   4.759   9.789 -1.9607 -0.2509 -0.8299
  602MOL0     H81215   5.647   4.778  10.002 -1.6306  1.1255  0.0307
  602MOL0     H81216   5.564   4.625  10.053  2.2323 -1.4821 -0.3331
  602MOL0     H81217   5.798   4.578   9.998  2.4130  0.6624 -3.2438
  602MOL0     H81218   5.679   4.484   9.910  1.1690 -0.9755 -2.6494
  602MOL0     H81219   5.829   4.742   9.814  1.4872 -0.1425 -1.0119
  602MOL0     H81220   5.724   4.633   9.716  1.3839  0.9099 -0.6777
  602MOL0     H81221   5.875   4.346   9.781  3.1487 -2.8289  1.6034
  602MOL0     H81222   6.117   4.232   9.623 -3.8898  1.5833  1.2850
  602MOL0     H81223   6.249   4.350   9.628 -1.9414  1.0063 -1.7490
  602MOL0     H81224   6.267   4.314   9.879  0.3026 -3.0439  2.7145
  602MOL0     H81225   6.305   4.170   9.770  0.0448 -1.5360  1.3428
  602MOL0     H81226   6.068   4.102   9.851 -2.2869  1.4293  0.5539
  602MOL0     H81227   6.064   4.257   9.938 -0.6241 -0.0948 -1.8494
  602MOL0     H81228   6.132   4.073  10.108 -2.3241  3.4521 -1.1834
  602MOL0     H81229   6.270   4.175  10.070 -0.1883  0.1851  0.2195
  602MOL0     H81230   6.414   3.803   9.893 -0.6414 -2.0566 -0.4436
  602MOL0     H81231   6.664   3.600  10.036  0.4342 -0.0774 -0.6140
  602MOL0     H81232   6.507   3.517  10.007  0.5768  0.0800  3.4079
  602MOL0     H81233   6.567   3.630   9.890 -0.7703  3.6804  0.5853
  602MOL0     H81234   6.366   3.508  10.557  1.1858  3.3681 -0.6173
  602MOL0     H81235   6.419   3.311  10.748 -0.9953  0.6355 -0.1593
  602MOL0     H81236   6.697   3.381  10.963  0.8341  0.3496 -1.6113
  602MOL0     H81237   6.679   3.218  11.016 -1.5104  0.3314 -0.0436
  602MOL0     H81238   6.913   3.342  10.873  1.0455 -0.5742  1.9894
  602MOL0     H81239   6.901   3.291  11.025  0.6181 -0.9477  0.1573
  602MOL0     H81240   6.879   3.122  10.775 -0.3793  0.4945  0.4277
  602MOL0     H81241   6.842   3.056  10.928 -3.1480  0.5696 -2.5758
  602MOL0     H81242   7.089   3.043  10.989 -0.5057 -1.2403  0.7123
  602MOL0     H81243   7.072   3.000  10.824  0.4088  1.3533 -0.8255
  602MOL0     H81244   7.125   3.284  10.922  0.5617 -2.3959  1.9090
  602MOL0     H81245   7.133   3.225  10.757 -0.8539 -5.1312 -1.8893
  602MOL0     H81246   7.305   3.069  10.798  1.4523 -0.2164  0.6657
  602MOL0     H81247   7.379   3.225  10.830  3.2709 -0.3090  0.6452
  602MOL0     H81248   7.311   2.992  11.020  3.3696 -1.6996 -2.0082
  602MOL0     H81249   7.308   3.170  11.074  1.0138  2.3841 -0.8380
  602MOL0     H81250   7.549   3.174  11.003  1.6823 -1.7912  1.2515
  602MOL0     H81251   7.533   3.008  10.932  0.7232  2.3999 -3.3137
  602MOL0     H81252   6.831   3.393  10.694 -0.1257  0.4121  1.3642
  602MOL0     H81253   6.774   3.599  10.567 -1.7245  3.5445 -1.6689
  602MOL0     H81254   6.400   3.825  10.383 -0.0234 -0.6473  0.1844
  602MOL0     H81255   6.275   3.997  10.255  0.8343  0.8818  0.4662
  602MOL0     H81256   5.195   5.173   9.516 -0.0059  0.4676 -0.1643
  602MOL0     H81257   5.106   5.377   9.407 -1.1706  2.6769  0.4694
  602MOL0     H81258   4.843   5.571   9.272  0.2390 -0.3786 -0.0805
  602MOL0     H81259   4.719   5.676   9.104 -0.0888 -1.3236  0.8057
  602MOL0     H81260   4.602   6.031   8.975  1.3895  0.4743 -0.0068
  602MOL0     H81261   4.718   5.906   9.022  0.3551 -1.0924 -2.5691
  602MOL0     H81262   4.423   5.830   8.951  0.4528  1.4172  1.3472
  602MOL0     H81263   4.548   5.722   8.966  0.2442  0.1103  0.0225
  602MOL0     H81264   4.650   5.783   8.753  0.9193  0.6991  1.4760
  602MOL0     H81265   4.565   5.945   8.756  3.9386 -0.3445 -1.5073
  602MOL0     H81266   4.409   5.677   8.719 -3.0277  1.3387 -0.3708
  602MOL0     H81267   4.483   5.762   8.588 -0.2354 -1.0460 -0.6429
  602MOL0     H81268   4.175   6.030   8.687 -0.4457  0.8300  0.1817
  602MOL0     H81269   4.531   5.946   9.383 -3.2842 -2.9820  1.2482
  602MOL0     H81270   4.671   5.847   9.563 -2.0880 -2.2883  1.4101
  603MOL0     O81271   1.597   2.996   1.919 -0.4197 -0.2279  0.0465
  603MOL0     C81272   1.525   3.095   1.887  0.5966  0.7649  0.0743
  603MOL0     O81273   1.555   3.192   1.794 -0.4867 -0.1665 -0.7674
  603MOL0     C81274   1.689   3.223   1.778 -0.1477  0.1085 -0.9440
  603MOL0     C81275   1.736   3.226   1.647 -0.4309 -0.0094  0.2704
  603MOL0     C81276   1.880   3.235   1.615  0.8378 -1.0117 -0.6162
  603MOL0     C81277   1.971   3.230   1.727 -0.3659  0.3735  0.1508
  603MOL0     O81278   2.108   3.226   1.695  0.3752 -0.2304  0.0825
  603MOL0     C81279   2.162   3.123   1.605  0.4810  1.2756 -1.0267
  603MOL0     C81280   2.316   3.150   1.592 -0.3341  0.5908 -0.9941
  603MOL0     C81281   2.336   3.297   1.574 -0.4671 -0.4547 -0.6042
  603MOL0     C81282   2.486   3.331   1.560  0.1869  0.9738 -0.6678
  603MOL0     C81283   2.513   3.486   1.553 -1.0045  0.5679 -0.1012
  603MOL0     C81284   2.654   3.528   1.525 -0.2350  0.4848 -0.4333
  603MOL0     C81285   2.692   3.670   1.532 -0.9231 -0.1277  1.0629
  603MOL0     C81286   2.678   3.727   1.672 -0.6108  0.3868 -0.0710
  603MOL0     N81287   2.744   3.860   1.695  0.4695  0.6249 -0.0168
  603MOL0     C81288   2.877   3.875   1.709 -0.5529 -0.5615  1.0276
  603MOL0     C81289   2.899   3.999   1.761 -0.8486  0.5414  0.5251
  603MOL0     C81290   3.024   4.039   1.837 -0.3395 -0.2963 -0.2038
  603MOL0     C81291   3.121   4.119   1.760 -0.5373 -0.5895  0.2678
  603MOL0     C81292   3.276   4.095   1.788  0.3102  0.8472 -0.0506
  603MOL0     C81293   3.348   4.171   1.676 -0.1188 -0.3598  1.5606
  603MOL0     O81294   3.482   4.131   1.695  0.0657  1.0095  0.3112
  603MOL0     C81295   3.588   4.151   1.606  0.7439  0.0003 -0.3169
  603MOL0     C81296   3.720   4.114   1.644 -0.6194 -0.3509  0.0115
  603MOL0     C81297   3.828   4.130   1.569 -0.3639 -0.0226 -0.0161
  603MOL0     C81298   3.963   4.070   1.606 -0.3311  0.0159  0.0446
  603MOL0     C81299   3.812   4.213   1.452 -0.1739 -0.5509  0.2080
  603MOL0     C81300   3.929   4.242   1.360  0.2477 -0.3991  0.0610
  603MOL0     O81301   4.043   4.166   1.349 -0.0383  0.3469  0.2619
  603MOL0     C81302   4.128   4.167   1.239  0.4418 -0.2852 -0.3681
  603MOL0     C81303   4.108   4.236   1.117 -0.4433  0.9855  0.6156
  603MOL0     C81304   4.215   4.242   1.023 -0.4313 -0.4540  1.2425
  603MOL0     C81305   4.336   4.170   1.047  0.2010  0.6542  0.4593
  603MOL0     O81306   4.449   4.178   0.976 -0.9629  0.1339  0.3305
  603MOL0     C81307   4.467   4.239   0.844  0.3109 -0.6017 -0.0636
  603MOL0     C81308   4.579   4.161   0.758  0.7846  0.4771 -1.2806
  603MOL0     C81309   4.580   4.212   0.622  0.2463 -0.1065  0.3019
  603MOL0     C81310   4.645   4.121   0.518 -0.1971  0.2573 -0.4361
  603MOL0     C81311   4.612   4.181   0.377 -0.6416  0.6305  0.7628
  603MOL0     C81312   4.658   4.320   0.355  0.0208 -0.7392  0.0592
  603MOL0     C81313   4.674   4.360   0.204  0.4614  0.1838  0.0635
  603MOL0     C81314   4.783   4.278   0.134 -0.0667  0.2843  0.0496
  603MOL0    Cl81315   4.775   4.337  -0.032 -0.4243 -0.8721 -0.0654
  603MOL0     C81316   4.344   4.094   1.170  0.2460  0.7489  0.2334
  603MOL0     C81317   4.243   4.102   1.263 -1.0665 -0.8494 -0.6186
  603MOL0     O81318   3.912   4.346   1.298 -0.4230  0.1666 -0.7593
  603MOL0     C81319   3.685   4.267   1.418 -0.3783 -0.0146  0.4555
  603MOL0     C81320   3.568   4.229   1.492  0.0777  0.1385  0.8953
  603MOL0     N81321   2.773   4.070   1.756 -0.2430 -0.0443 -0.4782
  603MOL0     N81322   2.690   3.983   1.716  0.6847 -0.2308 -0.1815
  603MOL0     C81323   1.915   3.229   1.854 -0.3505  0.2192 -0.3307
  603MOL0     C81324   1.784   3.221   1.880 -0.5499  0.9082 -0.4674
  603MOL0     C81325   1.394   3.121   1.955 -0.0350  0.3382 -0.6154
  603MOL0     C81326   1.291   3.172   1.880 -0.8336  0.4195 -0.8071
  603MOL0     C81327   1.165   3.178   1.930  0.5524 -0.3049 -0.1716
  603MOL0     C81328   1.133   3.137   2.059 -0.3164  0.3625  0.3450
  603MOL0     O81329   1.000   3.132   2.090  0.4206 -0.6336 -0.4570
  603MOL0     C81330   0.960   3.101   2.224  0.0973 -0.0790  0.0515
  603MOL0     C81331   1.001   3.205   2.328 -1.3069  0.0052  0.1356
  603MOL0     C81332   0.925   3.191   2.459 -0.1535 -0.2018 -0.5124
  603MOL0     C81333   0.962   3.073   2.553 -0.1559  0.2537  0.0073
  603MOL0     C81334   1.111   3.039   2.550  0.3939  0.0587  0.4585
  603MOL0     C81335   1.227   3.026   2.544 -0.1151 -0.4064 -0.4595
  603MOL0     C81336   1.240   3.088   2.138 -0.2501 -0.2834 -0.6625
  603MOL0     C81337   1.369   3.083   2.088  0.2183 -0.5480 -0.0314
  603MOL0     H81338   1.670   3.229   1.560 -1.4521  1.6750  1.0639
  603MOL0     H81339   1.908   3.237   1.511  2.5025  2.6067 -0.2771
  603MOL0     H81340   2.146   3.020   1.640  0.3821  0.2687 -3.7619
  603MOL0     H81341   2.097   3.117   1.516 -1.8764  0.4981  0.6424
  603MOL0     H81342   2.361   3.127   1.689 -0.8668  0.3205 -0.8112
  603MOL0     H81343   2.358   3.078   1.521 -2.3958 -1.3069 -0.4021
  603MOL0     H81344   2.277   3.336   1.490 -1.5115  0.5380  0.5534
  603MOL0     H81345   2.312   3.350   1.667  1.0537 -2.5350  1.0646
  603MOL0     H81346   2.536   3.291   1.649  1.7833  0.1344 -1.8949
  603MOL0     H81347   2.533   3.285   1.474 -0.6278  0.4387 -0.8369
  603MOL0     H81348   2.457   3.518   1.465  0.9367 -0.2187 -1.6838
  603MOL0     H81349   2.478   3.531   1.646 -1.9685  0.6230 -0.4772
  603MOL0     H81350   2.714   3.471   1.597 -0.5113  1.3040  0.4658
  603MOL0     H81351   2.674   3.500   1.421 -0.2031  3.1510 -1.2152
  603MOL0     H81352   2.797   3.666   1.503 -1.0835 -2.6186  0.5975
  603MOL0     H81353   2.641   3.743   1.468  2.6805  4.6086  2.9441
  603MOL0     H81354   2.725   3.663   1.747 -0.8649  0.8907  0.5265
  603MOL0     H81355   2.569   3.725   1.678 -0.6536 -3.2146  0.0974
  603MOL0     H81356   2.957   3.803   1.693  2.7526  2.0000  4.2644
  603MOL0     H81357   2.991   4.101   1.921 -1.0780  1.1553 -1.5280
  603MOL0     H81358   3.073   3.948   1.873  2.3577 -0.0863 -2.9823
  603MOL0     H81359   3.105   4.226   1.778  1.3189  0.3752 -2.9770
  603MOL0     H81360   3.109   4.108   1.652  1.2147 -0.9570  0.0822
  603MOL0     H81361   3.299   3.989   1.777  0.2859  0.8031  0.3241
  603MOL0     H81362   3.295   4.124   1.892  2.3955  0.6457 -0.3270
  603MOL0     H81363   3.335   4.279   1.688  1.6970  0.4491 -2.3801
  603MOL0     H81364   3.307   4.148   1.577 -1.1952 -0.7392  2.0710
  603MOL0     H81365   3.732   4.067   1.741  3.9824  0.9557  0.2879
  603MOL0     H81366   3.957   4.027   1.707  0.2554  1.7493  0.8548
  603MOL0     H81367   3.997   3.995   1.534  2.9685  1.2780  0.1400
  603MOL0     H81368   4.034   4.153   1.609  2.7053 -2.4316  0.7023
  603MOL0     H81369   4.010   4.274   1.090 -0.1480  0.7571 -0.8484
  603MOL0     H81370   4.199   4.282   0.924  2.0893 -2.0738  0.0914
  603MOL0     H81371   4.372   4.236   0.790  0.0572 -0.0631  0.3459
  603MOL0     H81372   4.500   4.343   0.852  2.6682 -1.3363  0.9420
  603MOL0     H81373   4.677   4.170   0.806  1.1312 -0.5864 -1.7429
  603MOL0     H81374   4.549   4.056   0.764 -1.6400  1.1500 -0.5959
  603MOL0     H81375   4.632   4.308   0.627  1.4534 -0.7893  4.3767
  603MOL0     H81376   4.479   4.222   0.582  0.3016 -0.0898  0.1614
  603MOL0     H81377   4.750   4.124   0.550  0.3075  3.1012 -2.0222
  603MOL0     H81378   4.622   4.014   0.525 -2.4116  0.7698  1.8354
  603MOL0     H81379   4.509   4.170   0.342  0.0449 -1.1506 -0.8350
  603MOL0     H81380   4.680   4.114   0.323  0.7062  1.4146  1.4324
  603MOL0     H81381   4.596   4.394   0.407 -1.0992 -0.8803 -1.0330
  603MOL0     H81382   4.759   4.327   0.395 -0.6413  1.2884  1.5509
  603MOL0     H81383   4.700   4.466   0.201 -0.6608  0.6070  2.6258
  603MOL0     H81384   4.579   4.346   0.152 -1.0993 -1.1677  3.0260
  603MOL0     H81385   4.765   4.170   0.131 -0.8028  0.4209 -0.7898
  603MOL0     H81386   4.881   4.300   0.178 -0.2966  0.4361  0.4862
  603MOL0     H81387   4.435   4.041   1.197  0.2018 -0.4525 -1.8026
  603MOL0     H81388   4.261   4.063   1.362 -0.4797  0.2671 -0.2689
  603MOL0     H81389   3.672   4.324   1.327  2.5903 -0.0320 -0.0663
  603MOL0     H81390   3.466   4.249   1.463 -1.2657 -1.3599  4.1503
  603MOL0     H81391   1.986   3.236   1.936  1.0770 -2.5842 -1.1804
  603MOL0     H81392   1.745   3.223   1.981  2.6148  1.7861  0.8529
  603MOL0     H81393   1.320   3.197   1.778  2.4152 -0.9624 -0.3699
  603MOL0     H81394   1.098   3.211   1.852  0.9975 -1.0427 -0.8821
  603MOL0     H81395   0.852   3.096   2.213 -0.2048  4.9729 -1.6489
  603MOL0     H81396   0.993   3.003   2.261 -1.5890 -0.6702  0.0531
  603MOL0     H81397   0.981   3.301   2.280  0.1772 -1.2279 -3.2630
  603MOL0     H81398   1.108   3.195   2.351 -0.8907  1.3548 -1.0304
  603MOL0     H81399   0.820   3.193   2.430 -1.4603  3.3959  3.4318
  603MOL0     H81400   0.930   3.291   2.504 -0.7769 -0.9033  1.1658
  603MOL0     H81401   0.908   2.986   2.516 -1.9091  1.9526 -1.6692
  603MOL0     H81402   0.939   3.074   2.660  2.5504 -1.5583  0.7229
  603MOL0     H81403   1.332   3.004   2.538  0.1975  1.1805 -1.7180
  603MOL0     H81404   1.201   3.042   2.229  0.5503 -1.3101 -0.8163
  603MOL0     H81405   1.442   3.035   2.152 -0.1016  1.0000  1.5793
  604MOL0     O81406   9.233   2.765  10.451  0.0082 -0.4945  0.1482
  604MOL0     C81407   9.297   2.845  10.526 -0.3406 -0.0272  0.2206
  604MOL0     O81408   9.290   2.984  10.518  0.2083 -0.5388 -0.7450
  604MOL0     C81409   9.186   3.037  10.449 -0.1686 -0.3370  0.3819
  604MOL0     C81410   9.216   3.135  10.364  0.2678  0.1004  0.5759
  604MOL0     C81411   9.110   3.182  10.283 -0.1277 -0.2428 -1.0403
  604MOL0     C81412   8.974   3.150  10.297  0.1602 -0.1612 -0.6393
  604MOL0     O81413   8.864   3.200  10.233 -0.3004 -0.6748 -0.4758
  604MOL0     C81414   8.890   3.237  10.095  0.5837  0.6786  0.4439
  604MOL0     C81415   8.879   3.384  10.075  0.2468 -0.0811  0.5918
  604MOL0     C81416   8.880   3.420   9.930  0.1941  0.8715 -0.4855
  604MOL0     C81417   8.859   3.566   9.901  0.1699  0.1964 -0.6011
  604MOL0     C81418   8.977   3.643   9.949  0.1257 -0.6774 -0.6593
  604MOL0     C81419   8.967   3.801   9.914 -0.4990 -0.1337  0.1413
  604MOL0     C81420   9.085   3.883   9.981 -0.6716 -0.6969 -0.7665
  604MOL0     C81421   9.052   4.035  10.004 -0.0089  0.5376 -0.3038
  604MOL0     N81422   9.002   4.110   9.885  0.4136 -0.1856 -0.0788
  604MOL0     C81423   8.875   4.100   9.828  0.2716  0.2138 -0.1786
  604MOL0     C81424   8.863   4.194   9.734 -0.2261 -0.3171  0.2068
  604MOL0     C81425   8.739   4.224   9.649 -0.3057 -0.4343 -0.5674
  604MOL0     C81426   8.633   4.305   9.731  0.4403  0.1547 -0.0503
  604MOL0     C81427   8.649   4.457   9.702 -0.3957 -0.8635 -0.0938
  604MOL0     C81428   8.574   4.547   9.794 -0.1617 -0.3205 -0.7760
  604MOL0     O81429   8.436   4.521   9.764  0.2121  0.9995 -1.1347
  604MOL0     C81430   8.347   4.624   9.748  0.5700 -0.0114  0.7498
  604MOL0     C81431   8.356   4.737   9.832  0.3863  0.6670 -0.5904
  604MOL0     C81432   8.291   4.855   9.804  1.0578 -0.3989  0.0476
  604MOL0     C81433   8.325   4.968   9.889  0.1058 -1.1690  0.2085
  604MOL0     C81434   8.186   4.858   9.710 -0.8458 -0.3534  0.3567
  604MOL0     C81435   8.086   4.973   9.703 -0.7046  0.2587  0.4296
  604MOL0     O81436   8.084   5.084   9.781 -0.6946  0.5048  0.6999
  604MOL0     C81437   8.016   5.194   9.735  1.6404 -0.1841  0.5210
  604MOL0     C81438   8.075   5.268   9.637 -0.2553 -0.0315 -0.2359
  604MOL0     C81439   8.017   5.377   9.582 -0.4830 -0.0386 -0.0104
  604MOL0     C81440   7.891   5.417   9.633  0.6939 -0.0932  0.1057
  604MOL0     O81441   7.835   5.533   9.589 -0.9034  0.2356 -0.5104
  604MOL0     C81442   7.749   5.586   9.688  0.9721 -0.4614 -0.1974
  604MOL0     C81443   7.736   5.734   9.681  0.1422  0.5888  0.0482
  604MOL0     C81444   7.634   5.782   9.575  0.9435  0.4646 -0.1060
  604MOL0     C81445   7.642   5.932   9.559 -0.1498 -0.6433  0.1638
  604MOL0     C81446   7.538   5.982   9.456  0.2933 -0.0985  0.3859
  604MOL0     C81447   7.563   6.134   9.428  0.0032  0.6278 -0.7652
  604MOL0     C81448   7.435   6.172   9.353  0.5310 -0.0849 -0.0282
  604MOL0     C81449   7.450   6.299   9.267  0.1720 -0.3095  0.5779
  604MOL0    Cl81450   7.578   6.289   9.136  0.5056 -0.0045 -0.0622
  604MOL0     C81451   7.812   5.318   9.704  0.2921 -0.4333 -0.5284
  604MOL0     C81452   7.877   5.212   9.769 -0.3851  0.0261  0.4534
  604MOL0     O81453   7.995   4.949   9.630 -0.0205  0.1580 -0.1676
  604MOL0     C81454   8.179   4.739   9.630 -0.5864 -0.5870 -0.0010
  604MOL0     C81455   8.253   4.620   9.645 -0.2761 -0.5608  0.0707
  604MOL0     N81456   8.983   4.255   9.721  0.1145  0.6335 -0.4677
  604MOL0     N81457   9.060   4.217   9.824  0.5458  0.6281  0.4090
  604MOL0     C81458   8.951   3.056  10.397 -0.3011 -0.3189  0.0198
  604MOL0     C81459   9.059   2.992  10.468  0.2445 -0.1527 -0.2527
  604MOL0     C81460   9.398   2.780  10.613  0.2858 -0.3014 -0.6500
  604MOL0     C81461   9.435   2.657  10.596  0.2796  0.4529 -0.8817
  604MOL0     C81462   9.536   2.597  10.674 -0.2055  0.2419  0.7545
  604MOL0     C81463   9.593   2.671  10.779  0.8597  1.0288  0.6720
  604MOL0     O81464   9.684   2.613  10.869  0.2006 -0.8149 -0.0984
  604MOL0     C81465   9.730   2.475  10.846 -1.3306 -0.5216 -0.2723
  604MOL0     C81466   9.628   2.371  10.885  0.0300 -0.5865  0.4326
  604MOL0     C81467   9.672   2.234  10.838  0.1633  0.6860 -0.2982
  604MOL0     C81468   9.562   2.125  10.842 -0.4394 -1.2124  0.2913
  604MOL0     C81469   9.573   2.043  10.719  0.3598  0.6179  0.1754
  604MOL0     C81470   9.579   1.964  10.620 -0.7688  0.0790 -0.3142
  604MOL0     C81471   9.546   2.797  10.797  0.6397 -0.1479 -0.3283
  604MOL0     C81472   9.455   2.853  10.717 -0.1084 -0.2991 -0.6551
  604MOL0     H81473   9.317   3.171  10.349 -1.1077  4.4050  0.5727
  604MOL0     H81474   9.149   3.254  10.211  0.5095 -1.3390 -1.8308
  604MOL0     H81475   8.990   3.204  10.066  0.9818  1.7067  0.5852
  604MOL0     H81476   8.819   3.182  10.032 -0.2311  2.5851 -0.3772
  604MOL0     H81477   8.781   3.420  10.110  1.1299  1.2674  1.8000
  604MOL0     H81478   8.952   3.436  10.138  0.2606 -2.6612  2.8551
  604MOL0     H81479   8.976   3.385   9.890 -1.3226 -2.1630 -1.7428
  604MOL0     H81480   8.810   3.358   9.874 -0.5882  1.2646  0.0351
  604MOL0     H81481   8.855   3.571   9.792  2.0347  0.1745 -0.7025
  604MOL0     H81482   8.772   3.605   9.954  2.3333 -0.6891  4.1641
  604MOL0     H81483   8.977   3.635  10.058  2.5722  2.1453 -0.3296
  604MOL0     H81484   9.073   3.614   9.906 -0.2673 -0.2216 -1.9260
  604MOL0     H81485   8.980   3.818   9.807  1.4526  0.0894  0.3739
  604MOL0     H81486   8.870   3.841   9.944 -2.5244 -3.0831 -1.8245
  604MOL0     H81487   9.112   3.834  10.075  0.3958 -2.7478 -2.0731
  604MOL0     H81488   9.171   3.870   9.915  1.9411  3.7859  1.2622
  604MOL0     H81489   9.141   4.080  10.050  0.5296 -1.7217  1.0682
  604MOL0     H81490   8.976   4.039  10.082  0.8174  2.4762  0.4767
  604MOL0     H81491   8.797   4.026   9.844  0.3639 -0.3567 -2.1151
  604MOL0     H81492   8.775   4.291   9.571 -0.9329 -1.1626 -1.5007
  604MOL0     H81493   8.704   4.126   9.615  2.4934 -1.9951  0.6392
  604MOL0     H81494   8.643   4.285   9.838  0.6720  1.0900  0.1086
  604MOL0     H81495   8.532   4.274   9.703 -0.0982  1.8797 -0.1707
  604MOL0     H81496   8.620   4.481   9.599 -0.7266 -1.9844 -0.2805
  604MOL0     H81497   8.757   4.473   9.705 -0.7719  2.0528 -0.1075
  604MOL0     H81498   8.619   4.645   9.778  0.1028 -0.6363 -2.1133
  604MOL0     H81499   8.597   4.520   9.898 -0.7293  1.6582 -0.0983
  604MOL0     H81500   8.429   4.735   9.912 -0.3942 -0.3309  0.1247
  604MOL0     H81501   8.419   4.939   9.936  1.3214  0.9478 -0.8037
  604MOL0     H81502   8.330   5.062   9.835 -3.7085 -2.2021 -2.3592
  604MOL0     H81503   8.247   4.980   9.965  1.9836 -0.3429  2.0756
  604MOL0     H81504   8.178   5.241   9.617  0.6631  2.7351  0.2922
  604MOL0     H81505   8.073   5.422   9.500 -2.2014 -3.3940 -3.2928
  604MOL0     H81506   7.650   5.540   9.686  0.5256  0.3001  1.8607
  604MOL0     H81507   7.787   5.562   9.787  0.1024  1.9509  0.7936
  604MOL0     H81508   7.714   5.773   9.781  0.5179 -1.9727  1.2252
  604MOL0     H81509   7.835   5.777   9.666  0.5042  0.1807  1.1115
  604MOL0     H81510   7.538   5.740   9.605  1.1423  0.6113  0.7513
  604MOL0     H81511   7.653   5.738   9.477 -0.0331  0.1820 -0.1822
  604MOL0     H81512   7.619   5.975   9.657  1.8018  0.0725  0.3460
  604MOL0     H81513   7.744   5.952   9.526 -0.2170 -2.1222 -1.0180
  604MOL0     H81514   7.441   5.956   9.500 -0.9028  2.9953 -0.1105
  604MOL0     H81515   7.559   5.923   9.367 -2.2517 -0.6201  0.0710
  604MOL0     H81516   7.571   6.203   9.513 -2.1733 -0.7395  0.6608
  604MOL0     H81517   7.642   6.152   9.354  1.2485  1.4476  0.7045
  604MOL0     H81518   7.358   6.189   9.429 -0.8145 -1.2143 -1.0757
  604MOL0     H81519   7.404   6.090   9.287 -1.3645  0.9269 -0.4973
  604MOL0     H81520   7.476   6.389   9.323  1.1636 -0.1664 -0.0855
  604MOL0     H81521   7.353   6.311   9.218  0.2634 -1.1822  0.1528
  604MOL0     H81522   7.706   5.336   9.714  0.5900  0.7086  0.9976
  604MOL0     H81523   7.824   5.138   9.828  2.4558  0.2529  3.6086
  604MOL0     H81524   8.104   4.741   9.551  1.8242  0.9008 -2.4127
  604MOL0     H81525   8.234   4.532   9.584 -1.8638  0.0100 -0.3026
  604MOL0     H81526   8.849   3.019  10.403 -0.1069 -1.3275 -1.9705
  604MOL0     H81527   9.030   2.911  10.534  2.3984  1.7382  3.3262
  604MOL0     H81528   9.403   2.603  10.507  2.6972 -3.2897  0.2723
  604MOL0     H81529   9.565   2.495  10.651  1.0816 -0.7338  5.6079
  604MOL0     H81530   9.766   2.465  10.744  4.1594  0.5252  1.2247
  604MOL0     H81531   9.820   2.461  10.907 -2.2121 -0.0471  1.2073
  604MOL0     H81532   9.533   2.407  10.842  1.2127  1.8707 -0.3543
  604MOL0     H81533   9.614   2.370  10.993 -0.7326  0.7204  0.3785
  604MOL0     H81534   9.748   2.203  10.910 -1.0523 -1.7414  0.0584
  604MOL0     H81535   9.714   2.227  10.737 -0.7627 -1.7350 -0.6057
  604MOL0     H81536   9.460   2.165  10.848 -0.7817 -2.0075 -0.0523
  604MOL0     H81537   9.580   2.057  10.926  0.1191  1.5446  2.5454
  604MOL0     H81538   9.594   1.916  10.525  1.0831  0.0354 -0.0187
  604MOL0     H81539   9.583   2.858  10.878  0.4558  2.6565 -2.2283
  604MOL0     H81540   9.429   2.957  10.736  1.4822  0.1507 -0.7522
  605MOL0     O81541   3.965   3.589   9.397 -0.3777  0.8149  0.1645
  605MOL0     C81542   3.892   3.486   9.386 -0.1817  0.2700 -0.4903
  605MOL0     O81543   3.817   3.456   9.275  0.8642  0.1352 -0.4497
  605MOL0     C81544   3.801   3.532   9.167 -0.5653  0.1764  0.7030
  605MOL0     C81545   3.842   3.667   9.138  0.2591 -0.0583  0.8096
  605MOL0     C81546   3.827   3.731   9.014  0.6609  0.3712  0.3836
  605MOL0     C81547   3.792   3.648   8.901 -0.4275 -0.2336 -0.6648
  605MOL0     O81548   3.814   3.700   8.781 -0.1307  0.1526  0.3104
  605MOL0     C81549   3.755   3.640   8.664  0.1855  0.6732  0.6170
  605MOL0     C81550   3.743   3.724   8.535 -0.0998 -0.5898 -0.5530
  605MOL0     C81551   3.665   3.856   8.555 -0.1073 -0.2498  0.9209
  605MOL0     C81552   3.722   3.971   8.469 -0.1130 -0.3564 -0.0673
  605MOL0     C81553   3.858   4.028   8.519 -0.8548 -0.0398  0.7490
  605MOL0     C81554   3.886   4.169   8.452 -0.7412 -0.1983  0.6418
  605MOL0     C81555   4.021   4.229   8.500 -0.6841  0.0416  0.0286
  605MOL0     C81556   3.995   4.332   8.612 -0.0620  0.0700  0.4046
  605MOL0     N81557   3.943   4.454   8.540 -0.4964 -0.1132 -0.3974
  605MOL0     C81558   4.017   4.522   8.445  0.5885 -0.5945  0.0956
  605MOL0     C81559   3.940   4.626   8.410  0.5071  0.1300 -0.4470
  605MOL0     C81560   3.965   4.747   8.319 -0.1895  0.8273 -0.7886
  605MOL0     C81561   4.114   4.799   8.337  0.7654 -0.1990  0.1965
  605MOL0     C81562   4.131   4.878   8.469  0.2331  0.4101  0.0137
  605MOL0     C81563   4.270   4.933   8.487 -0.1750  1.0491 -0.7277
  605MOL0     O81564   4.286   5.072   8.453  0.0723  0.0834 -0.0242
  605MOL0     C81565   4.395   5.131   8.515  0.1954  0.1522 -0.1713
  605MOL0     C81566   4.492   5.077   8.593 -0.0278  0.2369 -0.6130
  605MOL0     C81567   4.587   5.165   8.658  0.1508 -0.4556 -0.5952
  605MOL0     C81568   4.684   5.110   8.751  0.0605  0.7581 -0.7328
  605MOL0     C81569   4.581   5.310   8.640 -0.0537  0.5866 -0.3424
  605MOL0     C81570   4.670   5.397   8.708 -0.5157 -0.1023 -0.3032
  605MOL0     O81571   4.798   5.367   8.703  0.0048 -0.1774  0.3535
  605MOL0     C81572   4.882   5.457   8.746 -0.5892 -0.4547 -0.5958
  605MOL0     C81573   4.916   5.457   8.880  0.1331 -0.1909 -0.0166
  605MOL0     C81574   5.009   5.536   8.941 -0.5878 -0.8087 -0.9367
  605MOL0     C81575   5.083   5.625   8.857  0.6159  1.4771 -0.3304
  605MOL0     O81576   5.179   5.704   8.908  0.1384 -0.5738  0.8244
  605MOL0     C81577   5.139   5.794   9.014 -0.1863  0.1266 -0.3958
  605MOL0     C81578   5.256   5.893   9.063  0.5065  0.5892  0.9450
  605MOL0     C81579   5.215   6.001   9.162  0.0639 -0.3405  0.0264
  605MOL0     C81580   5.337   6.089   9.201 -0.2906  0.4280  0.5278
  605MOL0     C81581   5.292   6.175   9.322 -0.4380  0.5973 -0.2076
  605MOL0     C81582   5.278   6.097   9.454 -0.1139 -0.3299 -0.6189
  605MOL0     C81583   5.257   6.189   9.576 -0.1082  0.2293  0.0343
  605MOL0     C81584   5.169   6.119   9.685  0.1233 -0.4537  0.9927
  605MOL0    Cl81585   5.011   6.074   9.607  0.0065  0.4789 -0.2214
  605MOL0     C81586   5.064   5.635   8.714 -0.2961  0.1367 -0.7425
  605MOL0     C81587   4.961   5.544   8.664  0.5171  0.5845  0.1067
  605MOL0     O81588   4.620   5.492   8.762  0.0139 -0.3148 -0.2488
  605MOL0     C81589   4.477   5.362   8.563  0.5223  0.2593 -0.0038
  605MOL0     C81590   4.381   5.269   8.506 -0.6242 -0.0857 -0.2401
  605MOL0     N81591   3.816   4.622   8.478  0.2557 -0.6855  0.1936
  605MOL0     N81592   3.823   4.517   8.551  0.3097  0.9355 -0.2080
  605MOL0     C81593   3.739   3.522   8.931  0.0311 -0.0961 -0.8928
  605MOL0     C81594   3.750   3.464   9.061 -0.7962  1.1082  0.1044
  605MOL0     C81595   3.927   3.376   9.478 -0.0990  0.4968 -0.0530
  605MOL0     C81596   3.925   3.251   9.422 -0.4531 -0.4499 -0.0090
  605MOL0     C81597   3.953   3.135   9.504  0.5764 -0.5156  0.3840
  605MOL0     C81598   3.978   3.150   9.634 -0.1017  0.5646  0.3913
  605MOL0     O81599   4.003   3.034   9.700 -0.1513  0.7215 -1.0098
  605MOL0     C81600   4.075   3.046   9.825  0.7018 -0.2331  0.0887
  605MOL0     C81601   4.125   2.906   9.868 -0.4647 -0.4479 -0.6041
  605MOL0     C81602   4.000   2.820   9.924  0.0798 -0.0805 -0.2240
  605MOL0     C81603   4.022   2.674   9.974  0.2698 -0.2612 -0.0255
  605MOL0     C81604   4.133   2.662  10.065 -0.3036 -0.1661 -0.5066
  605MOL0     C81605   4.240   2.658  10.125  0.0530  0.7563  1.1158
  605MOL0     C81606   3.975   3.275   9.698 -0.4306 -0.3194  0.6810
  605MOL0     C81607   3.950   3.388   9.616 -1.0668 -0.5725 -1.0337
  605MOL0     H81608   3.875   3.726   9.223 -1.7073 -0.6630  2.0548
  605MOL0     H81609   3.854   3.831   8.981 -1.8358  0.3155 -2.3214
  605MOL0     H81610   3.805   3.543   8.647  0.0599  0.5159  1.1224
  605MOL0     H81611   3.651   3.617   8.688 -0.8657 -1.4164 -4.5457
  605MOL0     H81612   3.840   3.748   8.491 -0.1365 -2.0765 -1.5175
  605MOL0     H81613   3.688   3.671   8.456  0.0155  1.4385 -2.0902
  605MOL0     H81614   3.561   3.838   8.527 -0.2950  0.4193  1.1744
  605MOL0     H81615   3.663   3.884   8.660 -1.0187  0.2627  0.7761
  605MOL0     H81616   3.718   3.943   8.364 -3.4341  0.2103 -0.2087
  605MOL0     H81617   3.662   4.062   8.478  1.5026  0.5522  3.4259
  605MOL0     H81618   3.848   4.048   8.626  0.4382  1.2740  0.6500
  605MOL0     H81619   3.939   3.957   8.497 -1.8362 -1.6137  1.9927
  605MOL0     H81620   3.872   4.160   8.344 -2.4120 -2.5696  0.9681
  605MOL0     H81621   3.809   4.241   8.481 -0.5871  1.5238 -2.7791
  605MOL0     H81622   4.081   4.149   8.545 -0.9428 -0.9158 -1.2914
  605MOL0     H81623   4.082   4.276   8.422 -2.1510  2.0676  0.0290
  605MOL0     H81624   4.084   4.349   8.673 -1.5895 -0.1421  2.8449
  605MOL0     H81625   3.917   4.295   8.680  0.3339 -3.1273 -0.7348
  605MOL0     H81626   4.119   4.508   8.410  0.5887  0.1382 -0.2115
  605MOL0     H81627   3.937   4.726   8.216 -2.8802 -0.2781  0.0641
  605MOL0     H81628   3.893   4.824   8.347  0.1399  2.1370 -3.3016
  605MOL0     H81629   4.138   4.860   8.249 -0.3312 -0.3063 -0.1866
  605MOL0     H81630   4.181   4.714   8.320  2.2258  1.1506 -1.1598
  605MOL0     H81631   4.115   4.811   8.554 -0.0685 -0.3708 -0.6453
  605MOL0     H81632   4.064   4.965   8.474  1.8403  1.6372  1.3994
  605MOL0     H81633   4.344   4.868   8.439 -0.6535 -1.0053  1.1227
  605MOL0     H81634   4.277   4.930   8.596 -1.3194 -2.7447 -0.5923
  605MOL0     H81635   4.517   4.973   8.610  1.2951  0.3292 -1.8288
  605MOL0     H81636   4.689   5.166   8.845  1.2212 -0.4080 -0.0618
  605MOL0     H81637   4.640   5.012   8.770 -1.2378  1.8976  2.8487
  605MOL0     H81638   4.786   5.092   8.713  0.7347  0.5139  1.1063
  605MOL0     H81639   4.854   5.401   8.949 -0.2624 -2.0454 -1.7603
  605MOL0     H81640   5.016   5.539   9.049 -1.0285  1.0820 -0.9299
  605MOL0     H81641   5.049   5.847   8.982 -0.7058  0.0102  0.8054
  605MOL0     H81642   5.120   5.738   9.107 -0.1849  1.5522  0.4925
  605MOL0     H81643   5.328   5.832   9.117  1.4121  2.5826  2.0995
  605MOL0     H81644   5.299   5.948   8.979  0.4734  1.0984  1.2588
  605MOL0     H81645   5.174   5.956   9.253 -0.7584  1.9376  0.8655
  605MOL0     H81646   5.139   6.067   9.118  3.5114  3.2254 -1.1927
  605MOL0     H81647   5.419   6.018   9.208  0.2655  1.0556  0.4739
  605MOL0     H81648   5.358   6.150   9.113  0.1868  0.0019  0.3452
  605MOL0     H81649   5.199   6.232   9.310 -0.7391  0.0153 -0.6999
  605MOL0     H81650   5.379   6.235   9.350  2.1836 -4.4329  4.2040
  605MOL0     H81651   5.194   6.029   9.440 -1.0119  1.1647 -2.9732
  605MOL0     H81652   5.368   6.037   9.469 -0.8238 -1.3669 -0.3895
  605MOL0     H81653   5.197   6.275   9.544 -0.4474  0.8517  2.1912
  605MOL0     H81654   5.353   6.221   9.618 -0.7212  1.2447  0.7013
  605MOL0     H81655   5.158   6.188   9.769 -0.3944 -0.3655  0.8555
  605MOL0     H81656   5.210   6.025   9.721  1.4178  1.1954  4.3249
  605MOL0     H81657   5.120   5.699   8.647  1.6901 -1.0866 -0.3166
  605MOL0     H81658   4.944   5.546   8.556  3.1438  4.3488 -0.4597
  605MOL0     H81659   4.450   5.468   8.562  2.1409  0.7424  1.8578
  605MOL0     H81660   4.298   5.309   8.449  0.0095  2.8223  0.6989
  605MOL0     H81661   3.702   3.465   8.846 -0.7303 -2.9888  1.2236
  605MOL0     H81662   3.735   3.358   9.077  0.8201  0.7374 -0.6336
  605MOL0     H81663   3.921   3.235   9.315  3.0069 -0.6937 -0.2339
  605MOL0     H81664   3.958   3.035   9.462  0.5381 -0.5071  0.3593
  605MOL0     H81665   4.152   3.123   9.817 -1.5230  2.0235 -0.7586
  605MOL0     H81666   3.999   3.080   9.897  2.5747  0.2047  1.9469
  605MOL0     H81667   4.208   2.921   9.938 -0.0249 -0.8843 -1.0207
  605MOL0     H81668   4.170   2.855   9.783 -1.5325  1.5716 -2.4860
  605MOL0     H81669   3.938   2.820   9.834  1.6655 -0.6204 -1.3673
  605MOL0     H81670   3.955   2.879  10.004  0.5684  0.3276 -0.2432
  605MOL0     H81671   4.049   2.609   9.890  0.1576  0.1810 -0.4086
  605MOL0     H81672   3.931   2.633  10.019  1.9809 -1.3807  2.6500
  605MOL0     H81673   4.331   2.648  10.180  0.9776 -2.1477 -0.6851
  605MOL0     H81674   3.984   3.280   9.806  1.1221 -4.1065  0.8840
  605MOL0     H81675   3.950   3.493   9.644  2.1706 -0.6462 -0.3174
  606MOL0     O81676   8.401   6.828   5.170 -0.1520  0.2408  0.6701
  606MOL0     C81677   8.408   6.887   5.065 -0.1535  0.3835 -0.1422
  606MOL0     O81678   8.445   6.843   4.938 -0.7002  0.5020 -0.3854
  606MOL0     C81679   8.499   6.713   4.929 -1.4330  0.0371  0.3403
  606MOL0     C81680   8.432   6.598   4.949  0.4991  0.1266  0.8200
  606MOL0     C81681   8.496   6.480   4.935 -0.1254 -0.0374 -0.4836
  606MOL0     C81682   8.624   6.465   4.894  0.4082  0.2390 -0.9137
  606MOL0     O81683   8.676   6.337   4.902  0.5828 -0.1596 -0.5766
  606MOL0     C81684   8.816   6.317   4.897  0.1316 -0.0783 -0.3132
  606MOL0     C81685   8.872   6.321   4.753 -0.7124 -0.0830  0.4737
  606MOL0     C81686   8.873   6.190   4.676 -0.9209 -0.5454  0.2655
  606MOL0     C81687   8.749   6.107   4.692 -0.1550 -0.5732 -0.7098
  606MOL0     C81688   8.753   5.975   4.595  0.3385  0.0645 -0.2475
  606MOL0     C81689   8.616   5.919   4.564  0.0178  0.4514  0.5126
  606MOL0     C81690   8.622   5.842   4.433 -0.1698  0.2870  0.5055
  606MOL0     C81691   8.501   5.762   4.404 -0.6362 -0.4502  0.5096
  606MOL0     N81692   8.472   5.782   4.260 -0.0963 -0.6129  1.3446
  606MOL0     C81693   8.537   5.714   4.162 -0.0046 -0.7547  0.1651
  606MOL0     C81694   8.492   5.778   4.050 -0.3497  0.5598  0.2076
  606MOL0     C81695   8.528   5.753   3.902  0.4177  0.2972  0.3970
  606MOL0     C81696   8.478   5.611   3.862  0.5379 -0.1637 -0.1891
  606MOL0     C81697   8.496   5.564   3.723 -0.3547  0.1465  1.1676
  606MOL0     C81698   8.409   5.617   3.600  0.0850  0.9014  0.1269
  606MOL0     O81699   8.477   5.633   3.474 -0.2945  0.0635 -0.2740
  606MOL0     C81700   8.552   5.747   3.450 -0.3197 -0.5890 -0.8837
  606MOL0     C81701   8.644   5.751   3.346 -0.7972 -0.1880  0.6031
  606MOL0     C81702   8.719   5.865   3.315 -0.2895 -0.1546  0.3510
  606MOL0     C81703   8.815   5.861   3.199 -0.1390 -0.1903  0.5649
  606MOL0     C81704   8.692   5.983   3.399 -0.2043 -0.5927  0.7589
  606MOL0     C81705   8.765   6.115   3.366 -0.1583 -0.2273  0.2152
  606MOL0     O81706   8.707   6.227   3.423 -0.5037 -0.3357  0.7356
  606MOL0     C81707   8.754   6.356   3.422 -0.2611 -0.2769 -0.3770
  606MOL0     C81708   8.706   6.428   3.531 -0.0659 -0.1132  0.1824
  606MOL0     C81709   8.755   6.558   3.550  0.4777 -0.7373 -0.3213
  606MOL0     C81710   8.852   6.611   3.463  1.0332  0.6444  0.4083
  606MOL0     O81711   8.913   6.732   3.477 -0.0848 -0.2326 -0.7834
  606MOL0     C81712   8.847   6.833   3.565 -0.3415 -0.7285  0.7901
  606MOL0     C81713   8.908   6.961   3.514 -0.3885 -0.5260  0.4860
  606MOL0     C81714   9.054   6.964   3.547 -0.7303 -0.2826 -0.1792
  606MOL0     C81715   9.122   7.089   3.498 -0.6460 -0.2312  0.1171
  606MOL0     C81716   9.274   7.073   3.487  0.1125 -0.8163 -0.6839
  606MOL0     C81717   9.352   7.201   3.493  0.9077  0.1371 -0.5340
  606MOL0     C81718   9.505   7.193   3.522 -0.0597 -0.6169  0.5328
  606MOL0     C81719   9.583   7.320   3.541 -0.3142 -0.4415  0.4481
  606MOL0    Cl81720   9.635   7.399   3.388  0.2244 -0.5161  0.1059
  606MOL0     C81721   8.892   6.539   3.354 -0.2010 -0.7824 -1.0642
  606MOL0     C81722   8.843   6.414   3.333 -0.0841 -0.2367  0.4998
  606MOL0     O81723   8.880   6.112   3.305  0.7922  0.0923 -0.1729
  606MOL0     C81724   8.612   5.974   3.512  0.0720  0.4178  0.0984
  606MOL0     C81725   8.545   5.858   3.536  0.1370 -0.6732 -0.0493
  606MOL0     N81726   8.413   5.886   4.079 -1.2628 -0.0604  0.2919
  606MOL0     N81727   8.401   5.884   4.208 -0.7299 -0.5217  0.3949
  606MOL0     C81728   8.683   6.591   4.866  0.4642  0.8744  0.1983
  606MOL0     C81729   8.638   6.717   4.897  0.5275 -0.3867 -1.6899
  606MOL0     C81730   8.352   7.019   5.068  0.5804  1.0704  0.0105
  606MOL0     C81731   8.322   7.079   5.189  0.0699 -0.0484  0.2580
  606MOL0     C81732   8.263   7.208   5.188  0.2534 -0.8600  0.5732
  606MOL0     C81733   8.230   7.277   5.069  0.8739  0.7857 -1.0730
  606MOL0     O81734   8.176   7.404   5.058 -0.0193  0.3832 -0.2454
  606MOL0     C81735   8.109   7.461   5.180  0.4573  0.3300  0.3491
  606MOL0     C81736   8.049   7.590   5.147  0.6685 -0.8366  0.6313
  606MOL0     C81737   7.901   7.612   5.206 -1.1442  0.7237  0.3567
  606MOL0     C81738   7.857   7.759   5.165 -0.0773 -0.4746 -0.3504
  606MOL0     C81739   7.937   7.860   5.222  0.5694  0.6656 -1.1535
  606MOL0     C81740   7.989   7.962   5.267  1.2589  0.7377 -0.0842
  606MOL0     C81741   8.261   7.214   4.954  0.0360  0.4091  1.3728
  606MOL0     C81742   8.318   7.084   4.957  0.7076 -0.8362  0.4656
  606MOL0     H81743   8.333   6.598   4.995  0.6135  2.6351  1.1675
  606MOL0     H81744   8.450   6.387   4.969 -0.5010 -1.0810 -3.5130
  606MOL0     H81745   8.875   6.387   4.957 -0.0657  0.3638 -0.6259
  606MOL0     H81746   8.826   6.216   4.938 -4.4209 -1.4204 -1.8694
  606MOL0     H81747   8.824   6.396   4.689 -2.2457  0.9302  2.6601
  606MOL0     H81748   8.976   6.345   4.777 -1.0401  0.4631  1.4205
  606MOL0     H81749   8.895   6.199   4.569 -1.9819  5.0062  0.2525
  606MOL0     H81750   8.955   6.127   4.711  2.6409  2.0095 -2.7404
  606MOL0     H81751   8.730   6.070   4.793 -0.7525  1.0361 -0.2057
  606MOL0     H81752   8.666   6.173   4.665  1.9316  1.4630 -2.4900
  606MOL0     H81753   8.796   6.004   4.499  4.5087 -0.4298  1.2367
  606MOL0     H81754   8.834   5.910   4.631  1.6930  3.5900  3.9934
  606MOL0     H81755   8.582   5.855   4.646  0.1396  0.9814  0.9850
  606MOL0     H81756   8.540   5.998   4.563  0.7252  1.1915  1.9973
  606MOL0     H81757   8.638   5.908   4.347  2.9463 -0.5911  0.2679
  606MOL0     H81758   8.710   5.777   4.438 -0.3375 -0.0091 -0.1793
  606MOL0     H81759   8.412   5.811   4.446  1.8066  2.2391  2.9748
  606MOL0     H81760   8.495   5.657   4.434 -1.8786 -1.7254 -3.4628
  606MOL0     H81761   8.614   5.638   4.166 -0.9545 -2.2742 -4.2895
  606MOL0     H81762   8.498   5.848   3.858  0.0053  0.4651  1.0238
  606MOL0     H81763   8.636   5.758   3.882  0.5902  2.2295  1.5599
  606MOL0     H81764   8.372   5.599   3.885  0.0620  4.5727  1.0584
  606MOL0     H81765   8.538   5.551   3.932 -0.1802  1.2682  1.7274
  606MOL0     H81766   8.497   5.455   3.724 -0.4608  0.1295  0.2652
  606MOL0     H81767   8.594   5.602   3.690 -2.0223  5.5924  1.5521
  606MOL0     H81768   8.360   5.712   3.623 -2.3072  0.0546 -1.0559
  606MOL0     H81769   8.334   5.540   3.580  0.3472  0.0853  2.0913
  606MOL0     H81770   8.661   5.662   3.287  0.2666  0.0436  0.5422
  606MOL0     H81771   8.784   5.783   3.128 -2.0988  1.1222 -0.1151
  606MOL0     H81772   8.819   5.955   3.143 -1.7015 -0.7761 -0.6209
  606MOL0     H81773   8.919   5.846   3.229  1.3184 -0.3958 -3.7983
  606MOL0     H81774   8.638   6.377   3.599 -1.7704  2.2499  0.3567
  606MOL0     H81775   8.722   6.617   3.635 -0.1049 -1.8316  0.2340
  606MOL0     H81776   8.740   6.829   3.541 -0.4382 -4.8135  1.1115
  606MOL0     H81777   8.854   6.806   3.671 -0.4005 -3.3214  0.2012
  606MOL0     H81778   8.905   6.958   3.405  0.8402 -1.8922  0.4574
  606MOL0     H81779   8.862   7.055   3.548  0.9930 -0.2865  1.8385
  606MOL0     H81780   9.107   6.884   3.495 -0.5241  1.5194 -2.9072
  606MOL0     H81781   9.069   6.946   3.654  1.3036 -2.5919 -0.7725
  606MOL0     H81782   9.077   7.115   3.401 -3.4686 -0.1609  1.3475
  606MOL0     H81783   9.099   7.166   3.572 -2.7794  0.8256 -1.5036
  606MOL0     H81784   9.307   7.017   3.399  2.8760  0.3558 -0.5033
  606MOL0     H81785   9.303   7.004   3.567  0.7577 -3.8061 -3.2908
  606MOL0     H81786   9.332   7.250   3.397  0.1268 -3.5546 -2.4371
  606MOL0     H81787   9.305   7.273   3.561 -5.3113 -3.3487 -0.4235
  606MOL0     H81788   9.541   7.142   3.432  1.1540  3.1449 -1.3242
  606MOL0     H81789   9.509   7.131   3.613  1.6244  0.5226  1.2962
  606MOL0     H81790   9.674   7.295   3.596  0.9697  0.9982 -0.9078
  606MOL0     H81791   9.531   7.394   3.602 -0.6982  0.2697 -0.6925
  606MOL0     H81792   8.958   6.588   3.282 -0.6217  0.5090 -0.6061
  606MOL0     H81793   8.844   6.376   3.232  0.2934  0.3095  0.2895
  606MOL0     H81794   8.608   6.059   3.579  3.0252 -0.8715  2.1209
  606MOL0     H81795   8.501   5.854   3.635  2.5327 -1.5032  1.0411
  606MOL0     H81796   8.785   6.593   4.828  0.6046 -1.6780  0.2323
  606MOL0     H81797   8.693   6.811   4.886  0.1029  0.3468  1.4539
  606MOL0     H81798   8.334   7.037   5.288  1.9692  2.7125  1.2908
  606MOL0     H81799   8.247   7.256   5.284 -0.8885  0.2816 -0.1536
  606MOL0     H81800   8.034   7.389   5.211 -0.0075  1.1325  1.1026
  606MOL0     H81801   8.189   7.473   5.253  0.2813  1.0500  0.4266
  606MOL0     H81802   8.031   7.592   5.039 -3.4067 -0.8664  1.1297
  606MOL0     H81803   8.118   7.666   5.182  0.7830 -0.9210  0.5902
  606MOL0     H81804   7.902   7.595   5.314 -0.8226 -1.5826  0.0403
  606MOL0     H81805   7.835   7.533   5.168 -1.1093  0.8379  0.0604
  606MOL0     H81806   7.755   7.777   5.202  0.0690 -2.2422  1.0788
  606MOL0     H81807   7.839   7.771   5.057  2.1577  1.5964 -0.5579
  606MOL0     H81808   8.031   8.054   5.302  1.5383  0.7730 -0.5002
  606MOL0     H81809   8.234   7.261   4.860 -0.4442  0.9325  1.7635
  606MOL0     H81810   8.335   7.025   4.867 -2.2922 -1.1040 -0.0443
  607MOL0     O81811   1.550   6.759   3.043 -0.0811  0.2010 -0.3984
  607MOL0     C81812   1.645   6.779   3.118 -0.6006  1.1867  0.2689
  607MOL0     O81813   1.647   6.785   3.253 -0.3735 -0.2195  1.2519
  607MOL0     C81814   1.532   6.754   3.316 -0.7736 -0.8109 -0.6746
  607MOL0     C81815   1.433   6.849   3.347 -0.1736 -0.2635 -1.0208
  607MOL0     C81816   1.309   6.808   3.391  0.5632 -0.9072 -0.1649
  607MOL0     C81817   1.283   6.671   3.415  0.0088 -0.0081 -0.0080
  607MOL0     O81818   1.172   6.616   3.462 -1.1063  0.3704 -0.6040
  607MOL0     C81819   1.055   6.696   3.485  0.4001 -0.2238  0.0981
  607MOL0     C81820   1.075   6.774   3.619 -0.2540 -0.5438  0.5346
  607MOL0     C81821   1.124   6.697   3.735 -0.5729  0.1169  0.6738
  607MOL0     C81822   1.022   6.591   3.779 -0.3443  0.3804 -0.0989
  607MOL0     C81823   1.054   6.561   3.928  0.7040  0.1655 -0.1526
  607MOL0     C81824   1.186   6.481   3.942  0.7676 -0.1197  0.5920
  607MOL0     C81825   1.209   6.425   4.081  0.0648  0.4657 -0.0177
  607MOL0     C81826   1.351   6.354   4.091 -0.5596 -0.7437 -0.3258
  607MOL0     N81827   1.335   6.312   4.228  0.8328  0.9450 -0.1967
  607MOL0     C81828   1.363   6.185   4.268 -0.6245 -0.3814 -0.5449
  607MOL0     C81829   1.400   6.202   4.401  0.1116  0.0293  0.1727
  607MOL0     C81830   1.444   6.098   4.508 -0.0686 -1.5620 -0.2020
  607MOL0     C81831   1.417   5.956   4.459  0.6905 -0.9145 -0.6140
  607MOL0     C81832   1.452   5.853   4.564 -0.6872 -0.5966  0.7531
  607MOL0     C81833   1.611   5.847   4.591 -1.2048  0.4657  0.8705
  607MOL0     O81834   1.663   5.777   4.478  0.4343  0.4124 -0.3779
  607MOL0     C81835   1.687   5.645   4.489  0.7153 -0.0890 -1.6964
  607MOL0     C81836   1.741   5.595   4.372 -0.4861 -0.5825 -0.6394
  607MOL0     C81837   1.754   5.458   4.369  0.0022 -0.1932 -0.0294
  607MOL0     C81838   1.775   5.402   4.226  0.2227 -0.0480 -0.2037
  607MOL0     C81839   1.726   5.369   4.476  0.4614 -0.0150  0.7831
  607MOL0     C81840   1.756   5.215   4.465  0.8352 -0.5937  0.6170
  607MOL0     O81841   1.819   5.161   4.357 -0.0443  0.2831 -0.8007
  607MOL0     C81842   1.814   5.027   4.319  0.4632  0.1997 -0.8450
  607MOL0     C81843   1.915   4.985   4.244 -1.2863 -1.3591  0.0444
  607MOL0     C81844   1.926   4.856   4.203 -0.5004  0.0687  0.9931
  607MOL0     C81845   1.826   4.765   4.237 -0.2913 -0.0203 -0.7134
  607MOL0     O81846   1.816   4.631   4.191  0.4278  0.3044 -0.2296
  607MOL0     C81847   1.929   4.549   4.214 -0.5020  0.5919  0.1482
  607MOL0     C81848   1.895   4.473   4.339 -0.1720 -0.7840  0.6570
  607MOL0     C81849   2.017   4.372   4.366  0.7878 -0.8394 -0.2139
  607MOL0     C81850   2.028   4.335   4.516  0.0267 -0.5132  0.8433
  607MOL0     C81851   2.111   4.207   4.555  0.4766 -0.9260 -0.8068
  607MOL0     C81852   2.112   4.186   4.702 -0.5092 -0.3136  0.0701
  607MOL0     C81853   2.237   4.091   4.727  0.5914 -0.0703  0.3693
  607MOL0     C81854   2.270   4.048   4.866 -0.6777  0.3479 -0.3948
  607MOL0    Cl81855   2.121   4.024   4.954  0.1115  0.3380  0.0748
  607MOL0     C81856   1.715   4.802   4.302 -0.0643 -0.4050 -1.1571
  607MOL0     C81857   1.709   4.934   4.350 -0.2899 -0.0801  0.0144
  607MOL0     O81858   1.735   5.151   4.569  0.5227 -0.3846  0.1150
  607MOL0     C81859   1.671   5.429   4.590  0.7257 -0.4136 -0.3915
  607MOL0     C81860   1.641   5.567   4.597  0.9431 -0.0053 -0.2198
  607MOL0     N81861   1.404   6.339   4.434  0.4620  0.3054  0.0375
  607MOL0     N81862   1.365   6.398   4.320  0.5442  0.6383 -0.1456
  607MOL0     C81863   1.376   6.577   3.394 -0.1694  0.2754  0.0694
  607MOL0     C81864   1.499   6.612   3.339 -0.1210 -0.9670 -0.0473
  607MOL0     C81865   1.780   6.784   3.052 -0.6682  1.6392 -0.2820
  607MOL0     C81866   1.898   6.776   3.135  1.2280  0.3128 -0.1889
  607MOL0     C81867   2.024   6.780   3.074 -0.7180 -0.9942  0.5909
  607MOL0     C81868   2.033   6.792   2.931 -0.5079 -0.2596 -0.4942
  607MOL0     O81869   2.151   6.803   2.869  0.0840  0.0617 -0.7214
  607MOL0     C81870   2.153   6.897   2.760 -0.0957 -0.4756 -0.9288
  607MOL0     C81871   2.296   6.889   2.710  0.1246 -0.0510  1.1233
  607MOL0     C81872   2.382   6.959   2.810 -0.4470  0.1104 -0.9862
  607MOL0     C81873   2.526   6.952   2.760  0.8897  0.1643  0.2234
  607MOL0     C81874   2.627   7.037   2.830  0.9970 -0.0679  0.2301
  607MOL0     C81875   2.718   7.098   2.879  0.1427  0.1984 -0.8634
  607MOL0     C81876   1.911   6.792   2.857  0.7971 -1.1863 -0.7285
  607MOL0     C81877   1.787   6.794   2.918 -0.5475 -0.9139  0.5203
  607MOL0     H81878   1.444   6.955   3.331 -3.7922  0.7919  1.9695
  607MOL0     H81879   1.243   6.889   3.416  1.3805 -0.1619 -0.3586
  607MOL0     H81880   1.029   6.762   3.402 -0.6669 -1.4130 -0.5558
  607MOL0     H81881   0.967   6.631   3.494 -0.5171  0.8651 -0.6615
  607MOL0     H81882   1.150   6.853   3.609 -1.3117  0.3607 -0.5475
  607MOL0     H81883   0.982   6.829   3.638  0.4952  1.0388 -0.1988
  607MOL0     H81884   1.224   6.658   3.714 -0.1610  1.3249  0.3217
  607MOL0     H81885   1.140   6.768   3.817 -0.8164  0.5476  0.3471
  607MOL0     H81886   0.924   6.637   3.768 -0.9966 -0.8170  0.4364
  607MOL0     H81887   1.038   6.501   3.719 -1.6723  1.4269 -2.1041
  607MOL0     H81888   1.054   6.655   3.983 -2.3087  0.7780 -1.0142
  607MOL0     H81889   0.971   6.499   3.962 -0.2603  1.2911 -0.4022
  607MOL0     H81890   1.192   6.397   3.872  0.4389 -0.5404  1.0632
  607MOL0     H81891   1.269   6.549   3.921  1.4489 -1.1897 -0.3100
  607MOL0     H81892   1.216   6.502   4.159  0.0097 -3.0969  3.9032
  607MOL0     H81893   1.126   6.358   4.102  1.4685 -1.3676 -0.0985
  607MOL0     H81894   1.433   6.425   4.073 -0.0068 -1.4592 -0.6753
  607MOL0     H81895   1.374   6.264   4.033 -1.2003  1.9635 -5.3227
  607MOL0     H81896   1.370   6.097   4.203  1.1782 -1.0642  0.4949
  607MOL0     H81897   1.550   6.113   4.530 -0.2619  3.2541 -1.5461
  607MOL0     H81898   1.398   6.126   4.603  2.3142 -0.4446  0.6991
  607MOL0     H81899   1.473   5.928   4.369  0.3927  1.1253 -1.4638
  607MOL0     H81900   1.311   5.953   4.433  0.8675  0.8059 -1.6479
  607MOL0     H81901   1.397   5.762   4.537  1.0540 -1.3277 -0.4714
  607MOL0     H81902   1.405   5.874   4.660 -0.4260 -1.0081  0.9729
  607MOL0     H81903   1.634   5.815   4.694 -0.7936  0.6958  0.8557
  607MOL0     H81904   1.662   5.944   4.583 -0.6464  0.0495 -0.9288
  607MOL0     H81905   1.775   5.654   4.288  1.2684  3.1724  2.3802
  607MOL0     H81906   1.880   5.375   4.211 -0.2946 -2.2013 -0.1912
  607MOL0     H81907   1.725   5.306   4.211  2.1979 -1.4204  1.4074
  607MOL0     H81908   1.740   5.466   4.145  1.4998  2.6928  1.2529
  607MOL0     H81909   1.995   5.056   4.229 -0.0943 -1.7407  3.6050
  607MOL0     H81910   2.015   4.815   4.157  0.3930  2.6200  0.3269
  607MOL0     H81911   1.940   4.494   4.120  0.3415 -0.4914  0.8524
  607MOL0     H81912   2.017   4.614   4.221  1.0599 -1.1650 -1.8135
  607MOL0     H81913   1.870   4.547   4.416 -1.6043  0.8765 -1.2690
  607MOL0     H81914   1.803   4.416   4.323  1.1815 -2.5217 -1.5377
  607MOL0     H81915   2.110   4.414   4.328 -0.6806  1.0457 -1.9634
  607MOL0     H81916   2.011   4.279   4.308  0.1392 -1.1517  0.3386
  607MOL0     H81917   2.075   4.425   4.555  4.2523 -2.0007 -0.3166
  607MOL0     H81918   1.926   4.313   4.551 -0.7336 -0.4164 -1.1938
  607MOL0     H81919   2.212   4.227   4.518  0.5758  2.2144  0.8423
  607MOL0     H81920   2.080   4.118   4.500  2.1735 -1.5463 -0.8415
  607MOL0     H81921   2.138   4.275   4.759 -0.1669 -1.9474  2.6125
  607MOL0     H81922   2.016   4.148   4.738  0.1944 -1.9203  0.3491
  607MOL0     H81923   2.335   4.120   4.687  1.7179 -1.8745  1.6783
  607MOL0     H81924   2.214   3.999   4.672 -2.1147  1.0820 -0.5656
  607MOL0     H81925   2.337   4.121   4.911 -0.8126 -1.6063  3.3663
  607MOL0     H81926   2.334   3.962   4.847  1.8505  2.2701 -0.9843
  607MOL0     H81927   1.639   4.728   4.326  3.2038 -2.9621  2.6030
  607MOL0     H81928   1.619   4.974   4.394  0.1620  0.3287  0.5891
  607MOL0     H81929   1.643   5.360   4.669 -2.8005  1.0250 -0.1803
  607MOL0     H81930   1.600   5.606   4.689  0.4706  0.7835 -0.7546
  607MOL0     H81931   1.359   6.480   3.440 -1.1962  0.9205  1.0834
  607MOL0     H81932   1.575   6.539   3.314  0.9137 -0.1004  0.5119
  607MOL0     H81933   1.887   6.771   3.242  0.6056 -2.8944 -0.3163
  607MOL0     H81934   2.116   6.767   3.130 -0.8135 -0.5696  0.8546
  607MOL0     H81935   2.098   6.858   2.674 -0.3600  0.3435 -1.1352
  607MOL0     H81936   2.127   7.000   2.783  3.0809  0.1136  0.6000
  607MOL0     H81937   2.299   6.940   2.613 -0.2618 -1.0876  0.5550
  607MOL0     H81938   2.326   6.784   2.712 -0.9020 -0.3833  0.3157
  607MOL0     H81939   2.376   6.919   2.912 -1.2860  2.7574  0.1146
  607MOL0     H81940   2.348   7.062   2.829  0.8106  0.3107  0.3410
  607MOL0     H81941   2.527   6.999   2.661 -1.5805  0.3413  0.2236
  607MOL0     H81942   2.561   6.849   2.750  1.8253  0.5993 -1.4029
  607MOL0     H81943   2.799   7.156   2.917 -0.8276  2.5971 -2.1700
  607MOL0     H81944   1.922   6.783   2.750  1.1714 -1.6808 -0.6508
  607MOL0     H81945   1.701   6.797   2.853 -1.5061  1.1728  1.8143
  608MOL0     O81946   9.308   5.890   8.852  0.4815 -0.1581 -0.5087
  608MOL0     C81947   9.402   5.944   8.907 -0.6738  1.0133  0.0663
  608MOL0     O81948   9.433   5.930   9.034  0.0175  0.3741 -1.3640
  608MOL0     C81949   9.344   5.873   9.125  0.2518  0.6693 -0.5096
  608MOL0     C81950   9.256   5.757   9.107  0.9646 -0.0435  0.3681
  608MOL0     C81951   9.168   5.719   9.209 -0.0279  0.3493  0.2605
  608MOL0     C81952   9.164   5.789   9.335 -0.5623 -0.1861  1.0924
  608MOL0     O81953   9.072   5.753   9.432 -1.2508 -0.9689 -0.4347
  608MOL0     C81954   8.988   5.642   9.415  0.2937 -0.2185  0.2474
  608MOL0     C81955   8.907   5.609   9.541  0.0185  0.1205  0.2280
  608MOL0     C81956   9.002   5.548   9.647 -0.0683  0.1743 -0.2033
  608MOL0     C81957   8.933   5.494   9.768  0.8868  0.7486 -0.7043
  608MOL0     C81958   8.879   5.597   9.863 -0.0146  1.5047 -0.1092
  608MOL0     C81959   8.733   5.614   9.858 -0.0083  0.2919  0.8672
  608MOL0     C81960   8.684   5.680   9.976 -0.7491  0.8627 -0.3288
  608MOL0     C81961   8.545   5.735   9.958  0.4159 -0.8521  0.7792
  608MOL0     N81962   8.477   5.789  10.074  0.3025  0.4449  0.1235
  608MOL0     C81963   8.400   5.735  10.173  0.6067 -0.0051  0.0718
  608MOL0     C81964   8.378   5.832  10.262 -0.2643  1.0165  0.1065
  608MOL0     C81965   8.300   5.809  10.388  0.2856 -0.4010 -0.8710
  608MOL0     C81966   8.401   5.786  10.513  0.3728 -0.0915 -0.0712
  608MOL0     C81967   8.483   5.662  10.491 -0.9437  0.1397  0.3455
  608MOL0     C81968   8.548   5.619  10.631  0.1881 -0.7061  0.2725
  608MOL0     O81969   8.607   5.491  10.635  0.3884  0.2496  0.3108
  608MOL0     C81970   8.533   5.385  10.592 -0.0700 -0.4949 -0.8805
  608MOL0     C81971   8.607   5.282  10.540 -0.0077 -0.4385 -0.2473
  608MOL0     C81972   8.542   5.162  10.497 -0.4196  0.9763 -0.1103
  608MOL0     C81973   8.620   5.061  10.422  0.0061  0.0783  0.0824
  608MOL0     C81974   8.401   5.154  10.517 -0.8282  0.7729  0.1345
  608MOL0     C81975   8.310   5.039  10.471 -0.4562  0.6327 -0.7308
  608MOL0     O81976   8.368   4.919  10.436  0.2637  1.3428  0.3899
  608MOL0     C81977   8.297   4.798  10.432  0.3481 -0.1018 -0.5480
  608MOL0     C81978   8.313   4.712  10.317  0.7716 -0.4049 -0.1217
  608MOL0     C81979   8.250   4.594  10.316 -0.4035  0.1591 -0.2674
  608MOL0     C81980   8.169   4.542  10.418 -1.0979 -0.2932 -0.1674
  608MOL0     O81981   8.112   4.412  10.418  1.3500  0.6855 -0.8868
  608MOL0     C81982   8.192   4.293  10.395  0.4603  0.1081 -0.0586
  608MOL0     C81983   8.093   4.165  10.390 -0.2780  0.1526  0.2352
  608MOL0     C81984   8.161   4.032  10.381 -0.5760  0.8470  0.0688
  608MOL0     C81985   8.166   3.948  10.519 -0.0078 -0.3804 -0.2073
  608MOL0     C81986   8.312   3.930  10.559  0.5087  0.6529  0.1788
  608MOL0     C81987   8.391   4.050  10.599  0.0844  0.8679 -0.4562
  608MOL0     C81988   8.536   4.020  10.633 -1.3652 -0.8536 -0.4765
  608MOL0     C81989   8.624   4.150  10.625 -0.4708  0.4150 -0.6096
  608MOL0    Cl81990   8.798   4.101  10.678  0.3431  0.3123 -0.1506
  608MOL0     C81991   8.152   4.628  10.529 -0.4133  0.1441 -0.5263
  608MOL0     C81992   8.222   4.755  10.543  1.0380 -0.1512  0.1185
  608MOL0     O81993   8.183   5.061  10.464  0.0014 -0.7027  0.2457
  608MOL0     C81994   8.332   5.261  10.578  0.0044 -0.3003 -0.6383
  608MOL0     C81995   8.400   5.372  10.619 -0.6996  0.3845 -0.7070
  608MOL0     N81996   8.427   5.950  10.209  0.3442  0.5418 -0.1138
  608MOL0     N81997   8.493   5.921  10.099 -0.5279  0.3135 -0.4023
  608MOL0     C81998   9.247   5.903   9.354  0.1168 -0.0795 -0.5073
  608MOL0     C81999   9.334   5.935   9.250  0.0834 -0.0222  0.4911
  608MOL0     C82000   9.499   6.009   8.827  0.2435 -0.4336  0.6862
  608MOL0     C82001   9.523   5.958   8.695 -0.1508  0.5662  0.0671
  608MOL0     C82002   9.617   6.024   8.614  0.4195 -0.3187  0.9246
  608MOL0     C82003   9.690   6.136   8.659 -0.1884 -0.7814  0.1928
  608MOL0     O82004   9.776   6.182   8.566 -0.5910 -0.8411 -0.2755
  608MOL0     C82005   9.829   6.315   8.594 -0.5033 -0.4341 -0.1319
  608MOL0     C82006   9.975   6.306   8.616  0.8432 -0.6626 -0.1787
  608MOL0     C82007  10.049   6.437   8.636  0.4650 -0.2530  0.2832
  608MOL0     C82008   9.981   6.545   8.718  0.0199  0.2173 -0.5226
  608MOL0     C82009   9.983   6.500   8.856 -0.2989 -0.1442  0.1616
  608MOL0     C82010   9.994   6.470   8.974  1.0888  0.5479 -0.5260
  608MOL0     C82011   9.663   6.175   8.787 -0.1386  0.0167 -0.6026
  608MOL0     C82012   9.574   6.116   8.874 -0.0728  0.4131 -0.4232
  608MOL0     H82013   9.259   5.701   9.014  3.3024 -2.3906  1.7138
  608MOL0     H82014   9.117   5.626   9.184  0.7631  0.1643 -0.7513
  608MOL0     H82015   8.910   5.655   9.340  1.3051 -0.6072 -0.8936
  608MOL0     H82016   9.053   5.557   9.388 -1.7683 -0.7058 -3.9899
  608MOL0     H82017   8.855   5.702   9.566  0.8127  1.2110 -1.8900
  608MOL0     H82018   8.827   5.540   9.513 -1.5471  2.9745 -3.1819
  608MOL0     H82019   9.070   5.485   9.590 -1.1438  0.2937 -1.6694
  608MOL0     H82020   9.060   5.633   9.685  1.1388  0.4448 -2.5178
  608MOL0     H82021   8.846   5.433   9.741 -1.1064  0.8840  4.4033
  608MOL0     H82022   9.009   5.442   9.827 -0.9238 -0.5174  0.5994
  608MOL0     H82023   8.900   5.554   9.962 -0.3275 -1.8623 -1.3950
  608MOL0     H82024   8.927   5.695   9.875 -0.3625  1.6633  0.0242
  608MOL0     H82025   8.702   5.658   9.763  1.6890 -2.6758 -1.2429
  608MOL0     H82026   8.674   5.522   9.858  0.5025 -0.0419  0.6017
  608MOL0     H82027   8.675   5.604  10.054 -0.0280  0.9931 -0.1082
  608MOL0     H82028   8.757   5.759   9.999  0.9803 -1.1019  1.4565
  608MOL0     H82029   8.479   5.664   9.907  1.6158  1.0174 -3.9081
  608MOL0     H82030   8.548   5.817   9.885  0.6875  0.3537  2.0997
  608MOL0     H82031   8.366   5.633  10.180 -3.0383  0.8910 -1.9254
  608MOL0     H82032   8.245   5.903  10.402 -0.0906 -0.4606 -1.8322
  608MOL0     H82033   8.228   5.727  10.391  0.3115 -0.4361  2.0938
  608MOL0     H82034   8.355   5.789  10.613 -1.5098  1.7204 -0.9003
  608MOL0     H82035   8.462   5.876  10.502  2.2236 -1.3703 -0.6106
  608MOL0     H82036   8.561   5.676  10.416  0.8722 -1.7730  1.7453
  608MOL0     H82037   8.412   5.586  10.458 -1.1436  1.6740 -3.2225
  608MOL0     H82038   8.474   5.632  10.711  0.5620 -3.3393  1.1217
  608MOL0     H82039   8.630   5.689  10.651 -0.4260  1.0863 -2.7856
  608MOL0     H82040   8.715   5.293  10.536  0.2714 -2.8219 -0.6919
  608MOL0     H82041   8.608   5.045  10.315 -0.5667 -0.2162  0.1850
  608MOL0     H82042   8.727   5.085  10.426  0.5395 -1.8145 -1.2194
  608MOL0     H82043   8.619   4.964  10.474 -0.5225  0.4706  0.8209
  608MOL0     H82044   8.351   4.753  10.224 -0.5809 -0.7373 -0.8506
  608MOL0     H82045   8.253   4.541  10.221 -1.4080  4.8615 -3.2195
  608MOL0     H82046   8.243   4.296  10.298  1.6035  0.0599  0.5400
  608MOL0     H82047   8.267   4.279  10.472  0.8919 -2.6816 -0.8671
  608MOL0     H82048   8.034   4.163  10.482  0.7653  0.3085  0.9233
  608MOL0     H82049   8.014   4.173  10.315 -2.8175 -1.6755  2.5228
  608MOL0     H82050   8.258   4.040  10.331 -1.0816 -2.4010 -1.7226
  608MOL0     H82051   8.102   3.970  10.311 -1.5023  2.9390 -1.0926
  608MOL0     H82052   8.104   4.003  10.591  1.8924  0.4968  0.8398
  608MOL0     H82053   8.125   3.847  10.503 -0.9491  0.1797 -1.4712
  608MOL0     H82054   8.355   3.882  10.471 -1.6212 -1.1238  0.0136
  608MOL0     H82055   8.307   3.861  10.643 -2.9769 -0.2489 -0.6093
  608MOL0     H82056   8.389   4.133  10.528 -1.6436  1.2036 -0.0719
  608MOL0     H82057   8.339   4.087  10.688 -2.9052  1.7574 -2.4239
  608MOL0     H82058   8.586   3.950  10.565 -0.9176  2.4402 -3.8785
  608MOL0     H82059   8.552   3.992  10.737  2.2674  1.2236 -0.3046
  608MOL0     H82060   8.584   4.215  10.704 -1.8677  0.8266 -1.6163
  608MOL0     H82061   8.622   4.204  10.530 -0.1159  0.9659 -0.3080
  608MOL0     H82062   8.096   4.593  10.615 -0.8750  2.7981  0.3443
  608MOL0     H82063   8.211   4.825  10.625 -1.0714 -0.7980  0.4342
  608MOL0     H82064   8.225   5.259  10.597  0.5465 -2.1688  3.1484
  608MOL0     H82065   8.346   5.455  10.665 -0.1466  2.9549 -4.2985
  608MOL0     H82066   9.239   5.961   9.446  0.8477  1.9122 -1.6422
  608MOL0     H82067   9.405   6.017   9.250  2.9493 -2.3325  1.1565
  608MOL0     H82068   9.446   5.899   8.648 -1.7560  2.4010  0.2692
  608MOL0     H82069   9.623   5.981   8.514  2.0947  0.5803  0.6049
  608MOL0     H82070   9.809   6.372   8.503  0.6664  1.7153  0.8818
  608MOL0     H82071   9.789   6.369   8.681  0.5668 -0.9304  0.6845
  608MOL0     H82072  10.029   6.267   8.530  0.5588 -1.2199 -0.1039
  608MOL0     H82073   9.995   6.241   8.702  1.8230  1.9724  1.7556
  608MOL0     H82074  10.071   6.471   8.534  1.6053 -3.2100 -0.5569
  608MOL0     H82075  10.146   6.417   8.682  0.9834 -0.0211 -0.6831
  608MOL0     H82076   9.881   6.561   8.676 -0.7525  0.6892  1.3736
  608MOL0     H82077  10.039   6.636   8.700  1.7778 -0.3476  1.7062
  608MOL0     H82078   9.992   6.456   9.080 -0.1960  2.0530 -0.3103
  608MOL0     H82079   9.709   6.262   8.833  3.9641 -0.8201 -2.7197
  608MOL0     H82080   9.543   6.160   8.968  1.1540 -0.3591  0.3827
  609MOL0     O82081   9.237   9.682   3.847  0.1689 -0.9069  0.3773
  609MOL0     C82082   9.243   9.805   3.861  0.2485 -0.6113  0.2154
  609MOL0     O82083   9.171   9.906   3.787 -0.8623  0.2404 -0.5973
  609MOL0     C82084   9.083   9.877   3.692 -0.4076 -0.6130 -0.4128
  609MOL0     C82085   9.098   9.953   3.573 -0.1900  0.6993 -0.8000
  609MOL0     C82086   9.003   9.934   3.476  0.0938  0.0200 -0.7998
  609MOL0     C82087   8.894   9.850   3.495  0.4881 -0.5313 -0.5142
  609MOL0     O82088   8.804   9.850   3.391 -0.6411  0.6434  1.1246
  609MOL0     C82089   8.672   9.894   3.426  0.1806 -0.5481  1.6447
  609MOL0     C82090   8.579   9.848   3.308  0.4390 -0.4610  0.2778
  609MOL0     C82091   8.519   9.700   3.324  0.9374  0.2348 -0.5526
  609MOL0     C82092   8.454   9.650   3.199 -0.2268 -0.3395  0.8494
  609MOL0     C82093   8.552   9.580   3.109 -0.3743 -0.0043 -0.5339
  609MOL0     C82094   8.477   9.521   2.987  0.3553 -0.9423 -0.4051
  609MOL0     C82095   8.390   9.626   2.914 -0.5322  0.2097  0.1081
  609MOL0     C82096   8.460   9.736   2.844  0.0970  0.4397 -0.8152
  609MOL0     N82097   8.558   9.704   2.739  0.2618 -0.7046  0.6970
  609MOL0     C82098   8.557   9.596   2.649 -0.4224 -0.1784 -0.7819
  609MOL0     C82099   8.645   9.623   2.555 -0.3923  0.3840 -0.6586
  609MOL0     C82100   8.669   9.519   2.432 -0.0950 -0.4689 -0.6586
  609MOL0     C82101   8.809   9.475   2.412 -1.0850  0.1041  0.4363
  609MOL0     C82102   8.826   9.416   2.277  0.2039  1.1010  0.0367
  609MOL0     C82103   8.900   9.504   2.167  0.1240  0.6950 -0.0266
  609MOL0     O82104   8.830   9.621   2.138 -0.1632 -0.7187  0.1808
  609MOL0     C82105   8.747   9.608   2.026  0.3896 -0.7022 -0.4683
  609MOL0     C82106   8.696   9.489   1.977  0.2964 -1.1691 -0.0106
  609MOL0     C82107   8.605   9.493   1.867  0.0057 -0.1212  0.2923
  609MOL0     C82108   8.541   9.360   1.829 -0.2089 -0.3205  0.0182
  609MOL0     C82109   8.576   9.615   1.809  0.2867  1.4477  0.0096
  609MOL0     C82110   8.480   9.630   1.692 -0.3167 -0.2827 -0.3060
  609MOL0     O82111   8.446   9.765   1.658  0.1669  0.6351 -0.5480
  609MOL0     C82112   8.350   9.814   1.566 -1.1725  0.5091 -0.7321
  609MOL0     C82113   8.311   9.755   1.451 -0.3519  0.2176 -0.6500
  609MOL0     C82114   8.218   9.803   1.364 -0.1529 -0.2228  0.2589
  609MOL0     C82115   8.138   9.918   1.404  1.0555  0.3477 -0.2645
  609MOL0     O82116   8.031   9.969   1.329 -0.4636 -1.0792 -0.0881
  609MOL0     C82117   8.072  10.045   1.205 -0.9013  0.4631  0.0372
  609MOL0     C82118   8.158  10.165   1.232 -0.3331  0.5465 -0.8024
  609MOL0     C82119   8.063  10.275   1.303 -0.3623 -0.0808 -0.6776
  609MOL0     C82120   8.136  10.402   1.316 -0.8372 -0.3641 -0.2246
  609MOL0     C82121   8.081  10.493   1.421  0.5626 -0.0763 -0.4329
  609MOL0     C82122   7.938  10.524   1.429 -0.0016  0.1294  0.0451
  609MOL0     C82123   7.909  10.613   1.555 -0.7079  0.1458 -0.5113
  609MOL0     C82124   7.916  10.763   1.523  0.7039  0.9103 -0.6231
  609MOL0    Cl82125   7.859  10.856   1.669 -0.6401  0.1372  0.4408
  609MOL0     C82126   8.163   9.973   1.528 -0.2328 -0.4637  0.0000
  609MOL0     C82127   8.281   9.926   1.605  1.3354 -0.6759  0.3855
  609MOL0     O82128   8.426   9.537   1.637 -0.0341 -0.1270  0.2495
  609MOL0     C82129   8.637   9.727   1.851  0.1449 -0.6622  0.0153
  609MOL0     C82130   8.723   9.726   1.960  0.2458 -0.0119  0.3882
  609MOL0     N82131   8.703   9.742   2.589  0.4143 -1.1744  0.0935
  609MOL0     N82132   8.644   9.791   2.687 -1.1016 -0.6622 -1.0674
  609MOL0     C82133   8.878   9.781   3.613  0.2013  0.8107  0.5522
  609MOL0     C82134   8.969   9.801   3.712  0.5966  0.4308  1.5734
  609MOL0     C82135   9.347   9.851   3.954 -0.3483  0.1847  0.5905
  609MOL0     C82136   9.442   9.760   4.003 -0.1041 -0.2982  0.1090
  609MOL0     C82137   9.558   9.807   4.066  0.4183  0.3131  0.4086
  609MOL0     C82138   9.574   9.939   4.091  1.0425 -0.4164  0.3603
  609MOL0     O82139   9.692   9.972   4.157  0.8583 -0.0562  0.8183
  609MOL0     C82140   9.682  10.056   4.274 -0.4814  0.3061  0.2125
  609MOL0     C82141   9.796  10.045   4.373 -0.0107  0.1451 -0.8905
  609MOL0     C82142   9.793   9.903   4.453  0.5310 -0.5968  0.2793
  609MOL0     C82143   9.896   9.898   4.560 -0.0708 -0.0605  0.1103
  609MOL0     C82144  10.020   9.875   4.486  0.7486 -0.2574 -0.8996
  609MOL0     C82145  10.123   9.856   4.431  0.8421 -0.6958  0.0152
  609MOL0     C82146   9.485  10.040   4.035 -0.1559  0.6386  1.2563
  609MOL0     C82147   9.378   9.990   3.968  0.3095 -0.6250  0.2496
  609MOL0     H82148   9.172  10.031   3.564  2.1641 -1.2205  0.6115
  609MOL0     H82149   9.020   9.983   3.381  1.5150 -0.6784 -0.9274
  609MOL0     H82150   8.643   9.846   3.520  0.4747 -2.7923  0.6618
  609MOL0     H82151   8.679  10.003   3.436  0.9106 -0.5532  1.2841
  609MOL0     H82152   8.497   9.920   3.298 -1.7188 -2.9964 -1.9023
  609MOL0     H82153   8.632   9.841   3.213 -0.5573 -1.9878 -0.2116
  609MOL0     H82154   8.596   9.630   3.357  0.7823 -0.5718 -1.8238
  609MOL0     H82155   8.436   9.710   3.395 -0.1370 -0.7041 -1.6260
  609MOL0     H82156   8.373   9.579   3.219  0.8107 -1.4574  1.2308
  609MOL0     H82157   8.416   9.739   3.148 -2.4354 -0.9463  1.3347
  609MOL0     H82158   8.622   9.656   3.072  0.2184 -1.1070 -1.7437
  609MOL0     H82159   8.608   9.503   3.163 -4.4770 -3.3459 -0.5512
  609MOL0     H82160   8.547   9.461   2.928 -0.2841 -2.1288  0.0142
  609MOL0     H82161   8.409   9.444   3.025 -3.3718  0.9064 -2.6993
  609MOL0     H82162   8.335   9.574   2.835 -0.2821  1.9560 -1.2991
  609MOL0     H82163   8.314   9.674   2.975 -0.5951  1.6361 -1.0234
  609MOL0     H82164   8.502   9.803   2.919 -3.1176  3.7545 -1.6662
  609MOL0     H82165   8.381   9.795   2.796  2.6042  2.0681 -3.2415
  609MOL0     H82166   8.509   9.500   2.661  2.4876 -1.6808 -0.2482
  609MOL0     H82167   8.604   9.433   2.452  0.6817 -0.9002  0.0650
  609MOL0     H82168   8.637   9.575   2.344 -0.4812  0.3783  0.0017
  609MOL0     H82169   8.817   9.395   2.486  0.7352  0.9642  1.2250
  609MOL0     H82170   8.881   9.555   2.430 -1.5121  1.8105 -4.0891
  609MOL0     H82171   8.725   9.382   2.253  1.2685 -3.5265  1.1734
  609MOL0     H82172   8.887   9.326   2.289 -1.7096 -0.0906  1.3344
  609MOL0     H82173   8.933   9.442   2.083 -0.8514  0.3799 -0.1888
  609MOL0     H82174   8.993   9.542   2.212  0.4320 -1.4565  1.2772
  609MOL0     H82175   8.727   9.392   2.017  2.0873 -0.6146  0.0476
  609MOL0     H82176   8.533   9.305   1.923 -4.6812  1.8260  1.1578
  609MOL0     H82177   8.436   9.374   1.801 -0.0320 -0.2552 -0.6196
  609MOL0     H82178   8.596   9.316   1.745 -0.6069 -1.2753  0.2398
  609MOL0     H82179   8.372   9.667   1.432 -0.7937 -0.1605 -0.3272
  609MOL0     H82180   8.212   9.759   1.265  3.9645  0.2983 -0.3804
  609MOL0     H82181   8.112   9.967   1.139 -2.6086 -0.1275 -0.3328
  609MOL0     H82182   7.988  10.088   1.150  0.9144 -0.3666 -3.7409
  609MOL0     H82183   8.248  10.149   1.292 -0.5219  1.6769 -0.2071
  609MOL0     H82184   8.189  10.221   1.143  0.4689  0.3744 -0.6409
  609MOL0     H82185   8.039  10.230   1.400 -1.1213  0.4097 -0.6243
  609MOL0     H82186   7.971  10.287   1.245 -0.0951 -1.8073 -1.5208
  609MOL0     H82187   8.237  10.370   1.339 -1.1509 -0.9421  0.3762
  609MOL0     H82188   8.140  10.446   1.216  1.4619 -1.0141 -0.4568
  609MOL0     H82189   8.126  10.591   1.406  0.8732  0.0496  1.1836
  609MOL0     H82190   8.111  10.436   1.510 -1.8674  0.0088  0.5114
  609MOL0     H82191   7.901  10.583   1.345  1.0832  0.6448 -0.0879
  609MOL0     H82192   7.879  10.433   1.443  0.2119  0.1626  1.2869
  609MOL0     H82193   7.974  10.592   1.640 -1.8376  1.4459  0.7374
  609MOL0     H82194   7.807  10.591   1.590 -0.6513 -1.9120 -1.4794
  609MOL0     H82195   7.846  10.790   1.444  1.7104 -1.0143 -2.2683
  609MOL0     H82196   8.019  10.789   1.494  0.8309  0.2512 -0.7739
  609MOL0     H82197   8.094  10.052   1.557 -1.0499 -0.6887 -1.2617
  609MOL0     H82198   8.315   9.977   1.695 -0.4229 -0.4470  0.9700
  609MOL0     H82199   8.619   9.819   1.796 -1.6231 -1.3382 -0.6186
  609MOL0     H82200   8.759   9.823   1.994 -0.3055 -0.3512  2.0240
  609MOL0     H82201   8.788   9.724   3.635 -0.1979  0.9512 -0.6115
  609MOL0     H82202   8.936   9.749   3.801 -3.0835 -2.1514 -1.0268
  609MOL0     H82203   9.438   9.651   3.995  0.3309 -0.1507 -3.9814
  609MOL0     H82204   9.642   9.745   4.097  0.8713 -0.0305 -1.3609
  609MOL0     H82205   9.675  10.164   4.256  3.0979  0.7347  0.5624
  609MOL0     H82206   9.593  10.035   4.333  0.7443 -0.9027  1.7221
  609MOL0     H82207   9.788  10.127   4.445  1.2099 -1.0575  0.6886
  609MOL0     H82208   9.893  10.052   4.323  0.0959  0.7722 -0.6088
  609MOL0     H82209   9.809   9.820   4.384  0.1145 -1.1768  0.8674
  609MOL0     H82210   9.699   9.885   4.506  0.8343 -0.6241  0.8137
  609MOL0     H82211   9.887   9.813   4.627 -0.8870  0.6386  0.9059
  609MOL0     H82212   9.893   9.993   4.614  1.9676  0.3920 -0.4526
  609MOL0     H82213  10.215   9.836   4.379  2.0533 -0.0547  1.8167
  609MOL0     H82214   9.528  10.138   4.047  1.5870  0.3859 -1.9361
  609MOL0     H82215   9.314  10.069   3.928  1.2807 -0.1677 -0.4624
  610MOL0     O82216   3.915   2.897   4.054  0.2341 -0.6294 -0.7018
  610MOL0     C82217   3.810   2.962   4.066 -0.0892  0.0695  0.1193
  610MOL0     O82218   3.770   3.074   3.988  0.3614  0.2774 -0.8425
  610MOL0     C82219   3.851   3.112   3.886  0.1911 -0.3865 -0.2108
  610MOL0     C82220   3.886   3.025   3.785 -0.2836 -0.7398 -0.2443
  610MOL0     C82221   3.976   3.067   3.689 -0.6461 -0.1120 -1.0949
  610MOL0     C82222   4.041   3.194   3.706  0.6880  0.2322  0.4176
  610MOL0     O82223   4.160   3.225   3.634 -0.2909 -0.1764  0.2642
  610MOL0     C82224   4.269   3.295   3.710 -0.5619  0.3385 -0.2053
  610MOL0     C82225   4.389   3.295   3.615 -0.1117 -0.7554 -0.1197
  610MOL0     C82226   4.504   3.367   3.672 -0.2066 -0.2895 -0.4627
  610MOL0     C82227   4.621   3.353   3.571  0.4770 -0.0231  0.4926
  610MOL0     C82228   4.737   3.452   3.614 -1.0891  0.1707  0.7894
  610MOL0     C82229   4.864   3.422   3.535 -0.8671 -0.6661 -0.2230
  610MOL0     C82230   4.917   3.283   3.580 -0.8350 -0.3994 -0.8175
  610MOL0     C82231   5.055   3.247   3.518  0.4108 -0.2753 -0.0677
  610MOL0     N82232   5.112   3.138   3.594  0.2617  0.9527  0.4774
  610MOL0     C82233   5.180   3.149   3.715 -0.3093 -0.4357 -0.6614
  610MOL0     C82234   5.241   3.028   3.733  0.1383  0.3121  0.0132
  610MOL0     C82235   5.326   2.994   3.858 -0.0193  0.7471 -0.2974
  610MOL0     C82236   5.466   3.052   3.861 -0.8204  0.6585  0.7711
  610MOL0     C82237   5.553   3.016   3.979  1.1897  0.1714  0.0156
  610MOL0     C82238   5.516   3.088   4.107  0.1295 -1.2865 -0.5311
  610MOL0     O82239   5.432   3.015   4.201 -0.0817  0.2592  0.0684
  610MOL0     C82240   5.492   3.006   4.326 -0.0774 -0.0882 -0.4405
  610MOL0     C82241   5.633   2.991   4.339 -0.6280 -0.6243  0.1687
  610MOL0     C82242   5.691   2.990   4.468  0.7411  0.4479 -0.9037
  610MOL0     C82243   5.833   2.936   4.469  0.9593 -0.8321  0.1442
  610MOL0     C82244   5.608   3.025   4.583 -0.4184  1.1155 -0.3529
  610MOL0     C82245   5.665   3.008   4.724  0.3748  0.7273  0.5645
  610MOL0     O82246   5.578   3.057   4.820 -0.0395 -0.3575  0.0585
  610MOL0     C82247   5.569   3.019   4.951  0.3237  0.7145 -1.6576
  610MOL0     C82248   5.461   3.081   5.025 -1.1757 -0.1268  0.5772
  610MOL0     C82249   5.445   3.056   5.163 -0.2239 -0.5230 -0.3505
  610MOL0     C82250   5.521   2.961   5.234  0.5538  1.1116 -0.5149
  610MOL0     O82251   5.486   2.914   5.366 -0.8173  0.7039  0.3344
  610MOL0     C82252   5.363   2.859   5.384  0.7362 -0.2842  0.8777
  610MOL0     C82253   5.328   2.899   5.528  0.8982 -0.3136 -0.8346
  610MOL0     C82254   5.356   3.046   5.571  0.1402  0.7565  0.6826
  610MOL0     C82255   5.310   3.060   5.726  0.5628 -0.9338  0.3361
  610MOL0     C82256   5.382   3.193   5.775  0.0086 -0.2696 -0.1398
  610MOL0     C82257   5.306   3.319   5.746  0.0277  0.2054  0.4236
  610MOL0     C82258   5.379   3.441   5.807  1.2237  0.1625 -0.3116
  610MOL0     C82259   5.276   3.554   5.839  0.0750 -0.0720 -0.1830
  610MOL0    Cl82260   5.361   3.696   5.869  0.3493 -0.2167  0.2887
  610MOL0     C82261   5.618   2.895   5.151 -0.0560 -0.5017 -0.4542
  610MOL0     C82262   5.648   2.927   5.018  0.0002 -0.8548 -0.1532
  610MOL0     O82263   5.771   2.945   4.739  0.1237 -0.9986 -0.1148
  610MOL0     C82264   5.473   3.044   4.563  0.0795 -0.1245 -0.6479
  610MOL0     C82265   5.416   3.025   4.437 -0.7778  0.1532  0.0568
  610MOL0     N82266   5.218   2.945   3.615 -0.5233 -0.3089 -0.5705
  610MOL0     N82267   5.134   3.012   3.534 -0.3248 -0.0318  0.3501
  610MOL0     C82268   3.984   3.287   3.788  0.7540  0.8461 -0.4624
  610MOL0     C82269   3.894   3.244   3.886  0.6954  1.3819  0.9771
  610MOL0     C82270   3.720   2.915   4.181 -0.5283  0.1987  0.0040
  610MOL0     C82271   3.598   2.978   4.205  0.0539 -0.6561  0.0755
  610MOL0     C82272   3.514   2.933   4.306 -0.3319 -0.5009 -0.4203
  610MOL0     C82273   3.556   2.836   4.395  1.0534 -1.0970 -0.7990
  610MOL0     O82274   3.455   2.811   4.491  0.0918 -0.4815 -0.8723
  610MOL0     C82275   3.469   2.706   4.591 -0.1795  0.1018 -0.0108
  610MOL0     C82276   3.458   2.759   4.724 -0.8838 -0.6992 -0.8370
  610MOL0     C82277   3.570   2.858   4.743 -0.0799 -0.9035  0.5402
  610MOL0     C82278   3.572   2.904   4.888  0.0394  0.1343 -0.8429
  610MOL0     C82279   3.651   3.033   4.885 -0.3924 -0.3031 -0.0081
  610MOL0     C82280   3.716   3.126   4.865 -1.1769  0.6042  0.4597
  610MOL0     C82281   3.684   2.777   4.387  0.0142  0.5939  0.1419
  610MOL0     C82282   3.762   2.822   4.279  0.5163  0.0066 -0.1948
  610MOL0     H82283   3.855   2.923   3.768 -1.1349 -0.7903  1.3946
  610MOL0     H82284   4.005   3.002   3.607  0.9983  0.5094 -1.0472
  610MOL0     H82285   4.240   3.396   3.738  0.5177  0.5658  0.1206
  610MOL0     H82286   4.295   3.229   3.793  0.8828 -0.5436 -1.3008
  610MOL0     H82287   4.423   3.192   3.608  1.0458 -0.2841 -2.6003
  610MOL0     H82288   4.360   3.343   3.521  1.1648  1.5550  0.5689
  610MOL0     H82289   4.484   3.470   3.703 -0.6352 -0.0195 -1.5986
  610MOL0     H82290   4.540   3.324   3.766 -4.9061  0.2999  1.9161
  610MOL0     H82291   4.669   3.255   3.578 -1.4572 -0.9106  3.6411
  610MOL0     H82292   4.586   3.366   3.468 -0.9882 -0.4423  0.9172
  610MOL0     H82293   4.703   3.556   3.603 -0.5132  0.2432 -0.5375
  610MOL0     H82294   4.751   3.440   3.721 -1.1107 -1.6046  0.6269
  610MOL0     H82295   4.856   3.449   3.429  0.5416  4.3607  0.6924
  610MOL0     H82296   4.939   3.498   3.558  1.6341 -2.3169 -2.3172
  610MOL0     H82297   4.934   3.292   3.688 -0.9341 -0.2619 -0.8144
  610MOL0     H82298   4.847   3.206   3.547 -3.9380  2.1483 -0.6529
  610MOL0     H82299   5.126   3.330   3.523  0.2546 -0.2115  1.7727
  610MOL0     H82300   5.036   3.225   3.412 -1.1063 -0.0271  0.1378
  610MOL0     H82301   5.207   3.232   3.779  3.1128 -2.9112  1.4753
  610MOL0     H82302   5.279   3.023   3.952 -0.2240  0.7469 -0.4000
  610MOL0     H82303   5.339   2.885   3.855 -0.2752  0.7179 -0.3387
  610MOL0     H82304   5.463   3.161   3.872  0.3321  0.6080  1.8602
  610MOL0     H82305   5.516   3.026   3.768 -2.0333 -0.3010  0.3613
  610MOL0     H82306   5.652   3.060   3.963  2.5807 -1.9930  1.9660
  610MOL0     H82307   5.562   2.907   3.992 -0.2807 -0.1352 -1.2301
  610MOL0     H82308   5.442   3.162   4.076  2.7054  0.7304 -2.2848
  610MOL0     H82309   5.599   3.143   4.153  0.4881 -2.8862  0.8565
  610MOL0     H82310   5.680   2.963   4.245 -1.0535  1.7224 -0.8462
  610MOL0     H82311   5.905   2.994   4.527 -0.0677 -1.2097  1.8622
  610MOL0     H82312   5.821   2.840   4.520 -2.4089  1.0468  3.4357
  610MOL0     H82313   5.870   2.929   4.366 -1.0505 -0.7986 -0.6421
  610MOL0     H82314   5.399   3.145   4.963 -1.3395 -0.5470  0.3017
  610MOL0     H82315   5.366   3.113   5.212  1.4183  1.6315 -0.0536
  610MOL0     H82316   5.291   2.917   5.326 -0.9938  1.6484  4.5891
  610MOL0     H82317   5.368   2.755   5.350  0.6737  0.5534 -1.9126
  610MOL0     H82318   5.224   2.868   5.543 -0.0516  0.7818 -4.1166
  610MOL0     H82319   5.388   2.837   5.596  0.1344 -0.1790 -0.0268
  610MOL0     H82320   5.304   3.106   5.495 -0.3159 -0.6297 -0.1413
  610MOL0     H82321   5.463   3.060   5.555 -0.0015 -0.5693 -1.9027
  610MOL0     H82322   5.203   3.076   5.743 -0.2890 -4.6135 -0.6515
  610MOL0     H82323   5.348   2.975   5.784  3.7598 -0.4152 -0.7473
  610MOL0     H82324   5.484   3.208   5.737 -1.1646  1.4196 -2.8766
  610MOL0     H82325   5.394   3.179   5.883  2.5191 -0.3144 -0.3660
  610MOL0     H82326   5.292   3.319   5.637 -1.2779 -2.1467  0.5109
  610MOL0     H82327   5.211   3.309   5.798  1.3749 -2.2003  2.6796
  610MOL0     H82328   5.452   3.473   5.732 -0.3041  1.3307 -1.3576
  610MOL0     H82329   5.429   3.414   5.901  0.9424  1.9212  0.3880
  610MOL0     H82330   5.224   3.524   5.931 -2.8245  2.3852 -0.8593
  610MOL0     H82331   5.200   3.573   5.763 -1.0911  0.9367  1.1959
  610MOL0     H82332   5.684   2.823   5.199  0.0732  1.1200  1.9474
  610MOL0     H82333   5.731   2.885   4.961 -1.7666  0.4198 -4.0096
  610MOL0     H82334   5.407   3.052   4.649  1.2077  1.1049  0.1437
  610MOL0     H82335   5.309   3.039   4.427 -0.7155  1.7796  1.3201
  610MOL0     H82336   4.035   3.381   3.772  3.5620 -0.5394 -0.3384
  610MOL0     H82337   3.863   3.301   3.973  2.0193  0.0536  2.3685
  610MOL0     H82338   3.565   3.060   4.142 -1.6088 -0.3461  1.2915
  610MOL0     H82339   3.417   2.976   4.331 -0.6628 -1.3280 -0.2581
  610MOL0     H82340   3.388   2.633   4.587  1.0271 -1.3015  0.0483
  610MOL0     H82341   3.562   2.649   4.586 -0.3168 -0.4903  2.7034
  610MOL0     H82342   3.473   2.674   4.792  0.2215  0.1344  0.0025
  610MOL0     H82343   3.360   2.804   4.740 -1.1121 -1.6867  0.7692
  610MOL0     H82344   3.537   2.946   4.687  0.1916 -0.2997  1.3058
  610MOL0     H82345   3.664   2.813   4.710 -0.4380 -0.3148 -1.4326
  610MOL0     H82346   3.631   2.836   4.951  2.0518 -0.7526 -3.5240
  610MOL0     H82347   3.474   2.908   4.936  0.2178  0.1763 -0.4734
  610MOL0     H82348   3.785   3.204   4.840 -0.4635 -0.4638 -1.0856
  610MOL0     H82349   3.736   2.715   4.459 -0.2231 -0.0877 -0.2655
  610MOL0     H82350   3.849   2.764   4.250  0.4049  0.2473 -1.0248
  611MOL0     O82351  10.024   4.802   3.193 -0.6561 -0.6907  0.2126
  611MOL0     C82352   9.927   4.777   3.113  0.0273 -0.2975 -0.9004
  611MOL0     O82353   9.932   4.708   2.993 -0.1221 -0.3879 -0.1683
  611MOL0     C82354   9.821   4.661   2.929 -0.3992  0.2136 -0.2494
  611MOL0     C82355   9.697   4.633   2.993 -0.7037  0.4964  1.0881
  611MOL0     C82356   9.592   4.607   2.908  0.1026 -0.2482  0.9193
  611MOL0     C82357   9.593   4.616   2.765  0.1319 -1.0220  0.1421
  611MOL0     O82358   9.468   4.619   2.711  0.1088 -0.7201  0.5588
  611MOL0     C82359   9.446   4.664   2.577  0.3907  0.5971  0.4656
  611MOL0     C82360   9.490   4.819   2.569  0.6622 -1.4183 -0.3572
  611MOL0     C82361   9.408   4.898   2.681  0.4226 -0.1331  0.3185
  611MOL0     C82362   9.425   5.047   2.661 -0.0019 -0.6048 -0.2477
  611MOL0     C82363   9.349   5.126   2.776  0.1936  0.4937  0.0711
  611MOL0     C82364   9.398   5.268   2.783  0.0556  0.7477  0.7371
  611MOL0     C82365   9.312   5.351   2.877 -0.2355  0.4340 -0.9889
  611MOL0     C82366   9.336   5.321   3.034  0.5747 -0.4913  0.0663
  611MOL0     N82367   9.276   5.429   3.122  0.5825  0.1304 -0.5152
  611MOL0     C82368   9.355   5.516   3.192 -0.7465 -0.2691 -0.5372
  611MOL0     C82369   9.261   5.596   3.243  0.3986 -0.7529 -0.5871
  611MOL0     C82370   9.291   5.680   3.363  0.0212  0.9410  0.6885
  611MOL0     C82371   9.255   5.826   3.354 -0.1260  0.5975 -0.2393
  611MOL0     C82372   9.298   5.922   3.457  0.8600  0.0074 -0.3500
  611MOL0     C82373   9.281   5.887   3.608  0.7026 -0.7334  0.0997
  611MOL0     O82374   9.323   6.006   3.679  0.3721  0.6301  0.5225
  611MOL0     C82375   9.280   6.009   3.811 -0.2892 -0.3646 -0.8420
  611MOL0     C82376   9.300   6.134   3.872  0.7931  1.1013  0.7585
  611MOL0     C82377   9.272   6.151   4.006 -0.0966  0.3074  0.0298
  611MOL0     C82378   9.300   6.288   4.067  0.6278 -1.2408  1.0451
  611MOL0     C82379   9.212   6.054   4.086 -0.2679  0.4075 -0.0330
  611MOL0     C82380   9.181   6.062   4.232 -0.2698  0.0136  0.5423
  611MOL0     O82381   9.224   5.952   4.303 -0.1170  0.4702  0.6998
  611MOL0     C82382   9.217   5.954   4.442 -0.3843  0.1110  0.4065
  611MOL0     C82383   9.261   6.071   4.511 -0.6180 -0.3621 -0.0224
  611MOL0     C82384   9.271   6.069   4.655  0.0505  0.1114  0.6475
  611MOL0     C82385   9.231   5.958   4.728  0.2424 -0.2362  0.0987
  611MOL0     O82386   9.224   5.939   4.868  0.9268  0.1099 -0.2838
  611MOL0     C82387   9.232   6.050   4.956 -0.3884  0.6403 -0.1432
  611MOL0     C82388   9.214   6.012   5.100 -0.1745  0.7106  0.1562
  611MOL0     C82389   9.093   5.931   5.127 -0.1026 -0.0021 -0.1970
  611MOL0     C82390   8.962   6.013   5.099  0.8338 -0.9507 -0.0701
  611MOL0     C82391   8.846   5.962   5.175  0.5762  0.7701 -0.7910
  611MOL0     C82392   8.706   6.028   5.148  0.3058 -0.4560  0.4629
  611MOL0     C82393   8.593   5.941   5.185 -0.5682 -1.2663  1.0613
  611MOL0     C82394   8.469   6.014   5.154  0.3636 -0.5254 -0.3817
  611MOL0    Cl82395   8.431   6.014   4.976  0.6975 -0.1019  0.1609
  611MOL0     C82396   9.203   5.837   4.655 -0.4398  0.9606  0.3566
  611MOL0     C82397   9.189   5.839   4.514 -0.3932  0.0440 -0.6066
  611MOL0     O82398   9.108   6.152   4.281 -0.2564  0.0885 -0.0862
  611MOL0     C82399   9.195   5.922   4.014 -0.6549 -0.2322  0.2883
  611MOL0     C82400   9.227   5.901   3.879  0.1729 -0.0142  0.5686
  611MOL0     N82401   9.127   5.554   3.221 -0.3543 -0.5825  0.8357
  611MOL0     N82402   9.142   5.457   3.132  0.3268  0.4090 -0.2162
  611MOL0     C82403   9.723   4.628   2.701  0.8098 -1.1012  0.0872
  611MOL0     C82404   9.831   4.642   2.789 -1.6084 -0.2542 -0.5465
  611MOL0     C82405   9.815   4.863   3.135  0.6268  0.1315 -0.4291
  611MOL0     C82406   9.768   4.893   3.265 -0.8662  0.0512 -0.0064
  611MOL0     C82407   9.661   4.977   3.289  1.1824 -0.0775  0.4058
  611MOL0     C82408   9.583   5.032   3.184 -0.2439  0.6151 -0.5366
  611MOL0     O82409   9.478   5.114   3.188  0.0699  0.2877 -0.6068
  611MOL0     C82410   9.408   5.133   3.314 -0.0626 -0.1037 -0.3014
  611MOL0     C82411   9.295   5.030   3.331 -0.5248  0.7899  0.1159
  611MOL0     C82412   9.176   5.051   3.228 -1.3779  0.9632  0.1124
  611MOL0     C82413   9.066   4.944   3.233 -0.3845  0.9235 -0.2632
  611MOL0     C82414   9.006   4.946   3.367  1.1939 -0.5595  0.0580
  611MOL0     C82415   8.943   4.955   3.471  0.1180  0.6016 -0.0634
  611MOL0     C82416   9.624   5.000   3.052 -0.0706 -0.4600  0.2583
  611MOL0     C82417   9.738   4.929   3.027  0.2418 -0.0248 -0.2662
  611MOL0     H82418   9.676   4.622   3.099  1.5571 -2.2038  1.3897
  611MOL0     H82419   9.496   4.580   2.952  0.0341  0.1951  1.0454
  611MOL0     H82420   9.498   4.606   2.501  2.7764  1.8598  1.0331
  611MOL0     H82421   9.340   4.656   2.554  0.8055  2.2813 -2.4858
  611MOL0     H82422   9.594   4.834   2.602  1.1687 -2.4223 -1.4348
  611MOL0     H82423   9.471   4.856   2.468  2.5450 -1.1523 -0.6567
  611MOL0     H82424   9.302   4.888   2.657  0.2889  1.9794 -0.1491
  611MOL0     H82425   9.426   4.861   2.782  2.6738  2.9366  1.2239
  611MOL0     H82426   9.533   5.068   2.666  0.0598 -0.9334 -0.2065
  611MOL0     H82427   9.385   5.081   2.565 -2.3930 -1.3208  0.4279
  611MOL0     H82428   9.244   5.129   2.742  0.7300 -0.1420 -1.8020
  611MOL0     H82429   9.367   5.069   2.867 -1.4030 -1.5067 -0.7902
  611MOL0     H82430   9.498   5.281   2.825  0.1143  0.7196  0.6022
  611MOL0     H82431   9.400   5.314   2.684 -2.7386  0.4955  0.4857
  611MOL0     H82432   9.319   5.455   2.847  2.7711  0.8583  0.6844
  611MOL0     H82433   9.211   5.314   2.856  1.5633 -3.9940 -3.3391
  611MOL0     H82434   9.443   5.315   3.058 -0.1011 -2.2144  3.2860
  611MOL0     H82435   9.287   5.226   3.058 -0.6986  0.0252 -0.3796
  611MOL0     H82436   9.462   5.535   3.199 -0.8060  0.3591 -1.2266
  611MOL0     H82437   9.231   5.626   3.437  2.0908  0.4316  2.0608
  611MOL0     H82438   9.397   5.664   3.384 -0.4887 -1.0042  2.1010
  611MOL0     H82439   9.148   5.845   3.350 -0.0093  1.1002 -1.2379
  611MOL0     H82440   9.282   5.856   3.253 -1.4911 -1.7055 -1.3741
  611MOL0     H82441   9.249   6.019   3.440  1.8301  0.2652 -1.8381
  611MOL0     H82442   9.406   5.932   3.442  1.8023 -3.4689  2.6534
  611MOL0     H82443   9.337   5.798   3.637  1.3479 -0.1565  0.6540
  611MOL0     H82444   9.178   5.868   3.640  0.7909  1.3126  1.7848
  611MOL0     H82445   9.339   6.215   3.812  1.6871 -1.4776 -2.4685
  611MOL0     H82446   9.393   6.318   4.017  0.0695 -3.3660 -1.5261
  611MOL0     H82447   9.225   6.362   4.038 -1.3775 -3.2720  0.8453
  611MOL0     H82448   9.328   6.267   4.171 -0.4647 -1.3149  1.3278
  611MOL0     H82449   9.279   6.162   4.455 -0.4053 -1.6881 -2.2285
  611MOL0     H82450   9.306   6.151   4.717  0.2040 -0.3472  1.1818
  611MOL0     H82451   9.334   6.091   4.956  0.1077 -0.4805  1.5514
  611MOL0     H82452   9.147   6.113   4.930  0.1649  1.6002  0.3229
  611MOL0     H82453   9.298   5.949   5.132 -0.7819 -1.5598 -2.3140
  611MOL0     H82454   9.198   6.108   5.149  0.4215  0.9465 -0.0976
  611MOL0     H82455   9.093   5.891   5.228  1.7034  1.5928  0.5000
  611MOL0     H82456   9.083   5.847   5.056 -1.5025  1.0308 -1.2753
  611MOL0     H82457   8.974   6.120   5.113 -1.3897 -0.3426 -2.1350
  611MOL0     H82458   8.934   6.006   4.993  0.9378  2.1680 -0.3933
  611MOL0     H82459   8.873   5.980   5.280  6.5100 -2.3082 -1.3229
  611MOL0     H82460   8.838   5.853   5.176  1.4682  0.6820  0.7134
  611MOL0     H82461   8.704   6.127   5.195  1.0219 -0.2429  0.0647
  611MOL0     H82462   8.701   6.046   5.040  0.1192  1.0044  0.6929
  611MOL0     H82463   8.581   5.906   5.288 -0.1519 -0.5102  1.3692
  611MOL0     H82464   8.599   5.856   5.116  1.3005 -2.1947  2.2791
  611MOL0     H82465   8.473   6.122   5.174  3.2980 -0.6479  0.2114
  611MOL0     H82466   8.381   5.973   5.203 -2.1930 -0.5293 -4.4861
  611MOL0     H82467   9.197   5.748   4.717 -2.4316  0.6932 -0.1437
  611MOL0     H82468   9.188   5.745   4.459  1.9252  0.4119 -1.4017
  611MOL0     H82469   9.163   5.835   4.071 -1.7510  2.0647  3.4338
  611MOL0     H82470   9.186   5.812   3.833 -1.2203  0.2900  1.1789
  611MOL0     H82471   9.737   4.626   2.593 -0.2292  1.0030 -0.1484
  611MOL0     H82472   9.925   4.654   2.736  1.3796  0.3769  4.2464
  611MOL0     H82473   9.797   4.824   3.344 -0.1649  2.7086  2.2259
  611MOL0     H82474   9.616   4.967   3.388  0.1344  0.0967 -0.0434
  611MOL0     H82475   9.477   5.121   3.398 -0.6492  2.3262  0.5961
  611MOL0     H82476   9.363   5.232   3.323  0.1098 -0.2356  3.1947
  611MOL0     H82477   9.265   5.040   3.436  0.6302  0.7044  0.4699
  611MOL0     H82478   9.326   4.927   3.312 -2.5095  0.3830 -1.2555
  611MOL0     H82479   9.209   5.053   3.124 -4.0617 -0.8440 -0.8784
  611MOL0     H82480   9.121   5.143   3.251 -1.4508  0.2065  3.4809
  611MOL0     H82481   9.116   4.851   3.204  3.3765  3.5119 -3.1001
  611MOL0     H82482   8.993   4.968   3.155  0.1499 -0.0731 -1.0959
  611MOL0     H82483   8.889   4.957   3.563  0.2505 -2.1996  0.1623
  611MOL0     H82484   9.564   5.056   2.981  0.4842  3.4064  2.5697
  611MOL0     H82485   9.771   4.923   2.924  1.4302  2.9379 -0.1582
  612MOL0     O82486   9.725   4.564   9.404  0.5530  0.6675 -0.8481
  612MOL0     C82487   9.843   4.548   9.375 -0.6247  0.1540 -0.1427
  612MOL0     O82488   9.956   4.598   9.441  0.6464 -0.4510 -0.4465
  612MOL0     C82489   9.945   4.667   9.558  0.2437 -0.4200  0.0978
  612MOL0     C82490   9.837   4.740   9.598  0.2042 -0.4992  0.7765
  612MOL0     C82491   9.833   4.818   9.713 -0.0659 -0.4900  0.4051
  612MOL0     C82492   9.943   4.820   9.799  0.2541 -0.6217  0.3031
  612MOL0     O82493   9.926   4.886   9.919 -0.4091  0.6291  0.0091
  612MOL0     C82494  10.046   4.929   9.978  0.2234  0.2667  0.4553
  612MOL0     C82495  10.023   5.027  10.096  0.9030  0.0014 -1.3137
  612MOL0     C82496   9.922   5.135  10.054  0.4168 -0.4867  0.3722
  612MOL0     C82497   9.941   5.264  10.133  0.3772  0.7347 -0.0978
  612MOL0     C82498   9.848   5.382  10.093  0.1060 -0.6459 -0.3330
  612MOL0     C82499   9.885   5.503  10.179  0.2867  0.2132  0.2292
  612MOL0     C82500   9.822   5.639  10.130 -0.0588  0.4225 -0.1956
  612MOL0     C82501   9.675   5.638  10.162  0.2427 -0.2073 -0.4170
  612MOL0     N82502   9.577   5.728  10.088  0.2023 -0.2675 -0.1584
  612MOL0     C82503   9.616   5.830   9.999 -1.0925 -0.3831 -1.0383
  612MOL0     C82504   9.508   5.907   9.990 -0.2015 -0.1750 -0.1694
  612MOL0     C82505   9.514   6.037   9.917  0.4212  0.0305  1.8940
  612MOL0     C82506   9.401   6.135   9.930  0.2921  0.7334  0.5829
  612MOL0     C82507   9.417   6.219  10.049  0.2602 -0.9053  0.1655
  612MOL0     C82508   9.295   6.319  10.053  1.2819 -0.5420 -0.3644
  612MOL0     O82509   9.170   6.245  10.070  0.3839 -0.2459  0.3673
  612MOL0     C82510   9.147   6.210  10.197  0.2005 -0.6775 -0.2744
  612MOL0     C82511   9.131   6.294  10.303 -0.2938  0.1615  0.6223
  612MOL0     C82512   9.120   6.252  10.440 -0.6022  0.9024  0.0224
  612MOL0     C82513   9.102   6.365  10.536  0.1421  0.6958  0.7100
  612MOL0     C82514   9.142   6.113  10.469  0.4735  0.5402 -0.1199
  612MOL0     C82515   9.133   6.064  10.610 -1.1057  0.2148  0.6048
  612MOL0     O82516   9.127   5.930  10.629 -0.0371 -0.2186  0.2164
  612MOL0     C82517   9.157   5.878  10.750 -0.0988  0.0809 -0.1495
  612MOL0     C82518   9.079   5.767  10.786 -0.5727 -0.0439  0.3099
  612MOL0     C82519   9.115   5.695  10.901  0.0651 -0.3591  0.0597
  612MOL0     C82520   9.233   5.733  10.971  0.9428 -0.3856 -0.2460
  612MOL0     O82521   9.264   5.656  11.080  0.6736 -0.0299 -0.0719
  612MOL0     C82522   9.208   5.713  11.201 -0.5281 -0.0478 -0.1124
  612MOL0     C82523   9.245   5.646  11.326 -0.5181 -0.0395  0.1501
  612MOL0     C82524   9.360   5.711  11.407 -0.4899  0.2125 -0.2657
  612MOL0     C82525   9.439   5.615  11.491 -0.1262 -0.4580  0.4000
  612MOL0     C82526   9.364   5.588  11.625  0.3283 -0.1522 -1.3557
  612MOL0     C82527   9.437   5.474  11.701 -0.1292  0.0477 -0.6172
  612MOL0     C82528   9.368   5.424  11.834  0.4924  0.5519  0.6166
  612MOL0     C82529   9.415   5.516  11.950 -0.0320 -0.7238 -0.1406
  612MOL0    Cl82530   9.338   5.681  11.945  0.3835 -0.0793 -0.2020
  612MOL0     C82531   9.304   5.843  10.941  0.2431 -0.6513  0.2497
  612MOL0     C82532   9.274   5.917  10.827  0.5439  0.6988  0.1345
  612MOL0     O82533   9.141   6.144  10.702  0.6385 -0.3475  0.1134
  612MOL0     C82534   9.154   6.030  10.354 -0.6280 -0.2555 -0.3793
  612MOL0     C82535   9.158   6.078  10.223  0.5323  0.0071 -0.0058
  612MOL0     N82536   9.400   5.851  10.061  0.4021 -0.1520 -0.2329
  612MOL0     N82537   9.448   5.750  10.124  0.0832  0.2318 -0.0880
  612MOL0     C82538  10.058   4.746   9.761  0.1587 -0.3918  0.5298
  612MOL0     C82539  10.049   4.664   9.649  0.5864 -0.5365 -0.8098
  612MOL0     C82540   9.876   4.466   9.257  1.2239  0.1227 -0.2437
  612MOL0     C82541   9.789   4.356   9.235  0.1834  0.7646  0.7279
  612MOL0     C82542   9.814   4.267   9.125  0.2755 -0.0093 -0.4030
  612MOL0     C82543   9.947   4.271   9.063 -0.2887 -0.6121 -0.0916
  612MOL0     O82544   9.990   4.184   8.963  0.1929 -0.8251 -0.1100
  612MOL0     C82545   9.899   4.076   8.926 -0.6780 -0.2624 -0.4140
  612MOL0     C82546   9.961   3.976   8.830 -0.0971  0.2295  0.0667
  612MOL0     C82547   9.861   3.863   8.812  0.8841  0.1279  0.6554
  612MOL0     C82548   9.909   3.750   8.727  0.7069  0.2038 -0.6100
  612MOL0     C82549   9.929   3.791   8.589  0.0194 -0.5368  0.8264
  612MOL0     C82550   9.945   3.837   8.477 -0.0027  0.9338  0.1432
  612MOL0     C82551  10.029   4.376   9.090 -0.6043 -0.9428 -0.2868
  612MOL0     C82552   9.999   4.472   9.185  0.2903  0.0767  0.5889
  612MOL0     H82553   9.751   4.755   9.534  2.0191 -2.2520 -2.3376
  612MOL0     H82554   9.737   4.866   9.730 -0.7175 -0.0476 -3.4839
  612MOL0     H82555  10.113   4.850  10.014 -1.1479 -1.0654  0.1775
  612MOL0     H82556  10.100   4.985   9.901  1.5365  0.6916  1.6430
  612MOL0     H82557   9.999   4.970  10.186  1.6657  0.2743 -0.9304
  612MOL0     H82558  10.125   5.067  10.104  0.5339  0.6049  0.9990
  612MOL0     H82559   9.940   5.159   9.949  2.3554  1.3985  1.0529
  612MOL0     H82560   9.816   5.107  10.060 -0.4502  2.4634  0.3012
  612MOL0     H82561   9.941   5.238  10.239  2.5228  1.0163  0.0130
  612MOL0     H82562  10.043   5.300  10.121  0.8053 -0.7224 -1.1844
  612MOL0     H82563   9.862   5.397   9.986 -0.1628 -2.9186 -0.7276
  612MOL0     H82564   9.744   5.355  10.114 -0.0709  2.5317  4.7561
  612MOL0     H82565   9.865   5.480  10.285 -0.8019 -0.0398 -0.0106
  612MOL0     H82566   9.993   5.515  10.177  0.2536  0.7742  1.0431
  612MOL0     H82567   9.874   5.726  10.171 -1.2956  1.2391 -0.3280
  612MOL0     H82568   9.823   5.650  10.021  1.0494 -2.7288 -0.6018
  612MOL0     H82569   9.663   5.665  10.268  2.1950  0.6146 -0.3667
  612MOL0     H82570   9.630   5.538  10.153  2.2065 -1.1831  0.0889
  612MOL0     H82571   9.717   5.847   9.962 -0.5732 -1.8364 -0.3771
  612MOL0     H82572   9.608   6.088   9.940  1.2469 -0.5130 -0.0625
  612MOL0     H82573   9.509   6.010   9.811 -0.3019 -3.9287  2.7721
  612MOL0     H82574   9.303   6.086   9.927 -0.3260  1.8134  2.0167
  612MOL0     H82575   9.400   6.198   9.840  2.3030 -0.8949 -0.6653
  612MOL0     H82576   9.511   6.274  10.038  0.1590 -0.6176  0.6898
  612MOL0     H82577   9.424   6.164  10.143 -0.5145 -1.1501  0.0842
  612MOL0     H82578   9.308   6.376   9.961  1.7971 -0.4503 -0.2398
  612MOL0     H82579   9.300   6.386  10.140  1.6300 -0.9987 -0.0291
  612MOL0     H82580   9.133   6.401  10.285 -2.1615  0.1048 -0.1886
  612MOL0     H82581   9.098   6.464  10.491  2.5145  1.2084  1.5368
  612MOL0     H82582   9.007   6.343  10.587 -0.3998  1.4154  0.0193
  612MOL0     H82583   9.188   6.368  10.604 -0.5870  2.9844  1.6047
  612MOL0     H82584   8.996   5.735  10.723  1.1865  2.9510 -3.9978
  612MOL0     H82585   9.049   5.617  10.938 -0.1909 -1.3130 -2.2257
  612MOL0     H82586   9.246   5.815  11.213 -2.6626  1.6221 -5.1166
  612MOL0     H82587   9.098   5.711  11.203 -0.5416 -1.9176  2.6823
  612MOL0     H82588   9.160   5.642  11.395 -1.7613  0.6100 -1.2830
  612MOL0     H82589   9.274   5.545  11.294 -1.8309 -0.1859 -0.6778
  612MOL0     H82590   9.344   5.808  11.456 -2.9473  0.7054 -1.8417
  612MOL0     H82591   9.427   5.724  11.322  0.8076 -1.3134  0.4766
  612MOL0     H82592   9.447   5.518  11.442 -1.6510 -0.2639 -0.2959
  612MOL0     H82593   9.540   5.649  11.514  0.0926 -0.8208 -0.0227
  612MOL0     H82594   9.260   5.560  11.603 -0.5280  2.6683 -1.2930
  612MOL0     H82595   9.364   5.684  11.677 -3.8090  0.5641 -2.3587
  612MOL0     H82596   9.477   5.396  11.636  1.1780  1.0664 -1.0817
  612MOL0     H82597   9.527   5.525  11.737 -0.3325  1.1174 -1.5628
  612MOL0     H82598   9.386   5.316  11.843 -0.6024  0.1502 -1.5513
  612MOL0     H82599   9.263   5.455  11.839  0.7827  2.7126 -3.0086
  612MOL0     H82600   9.523   5.527  11.950 -0.1516  0.7991  0.8501
  612MOL0     H82601   9.384   5.479  12.049  1.6861  1.5563  1.3602
  612MOL0     H82602   9.387   5.861  11.008 -1.1212 -0.1406  1.8613
  612MOL0     H82603   9.334   6.003  10.801 -0.1189  0.3697 -2.8685
  612MOL0     H82604   9.169   5.923  10.367  0.1129 -0.4806 -2.6136
  612MOL0     H82605   9.170   6.003  10.145  1.0602  0.5155 -0.4272
  612MOL0     H82606  10.147   4.750   9.823 -0.4565  2.8263  1.3487
  612MOL0     H82607  10.139   4.604   9.637 -0.5349 -2.6800  0.6778
  612MOL0     H82608   9.694   4.338   9.284  0.6880  0.1228  1.4842
  612MOL0     H82609   9.753   4.181   9.101 -0.5141  0.3712  0.1896
  612MOL0     H82610   9.858   4.025   9.014 -1.3156  3.2233  1.4666
  612MOL0     H82611   9.811   4.113   8.872 -2.5673  0.2248  2.7374
  612MOL0     H82612  10.043   3.924   8.880 -1.2597 -2.5858 -0.7535
  612MOL0     H82613   9.988   4.027   8.737  0.9655 -0.0454  0.2120
  612MOL0     H82614   9.780   3.915   8.759  0.5035 -0.1312  0.9800
  612MOL0     H82615   9.826   3.830   8.910 -2.8895 -0.5242 -0.7321
  612MOL0     H82616   9.843   3.664   8.742  2.2666 -0.6347  2.2168
  612MOL0     H82617  10.006   3.717   8.764 -0.4278 -0.4366  2.0758
  612MOL0     H82618   9.969   3.889   8.387  2.8025 -0.4588 -0.0151
  612MOL0     H82619  10.129   4.388   9.051  0.9084  2.9356  3.9630
  612MOL0     H82620  10.078   4.546   9.191  0.4712 -0.0843  0.2130
  613MOL0     O82621   4.871   2.604   8.380  0.4232 -0.1108 -0.2824
  613MOL0     C82622   4.767   2.674   8.366  0.8233 -0.2256 -1.2057
  613MOL0     O82623   4.743   2.761   8.268  0.3747  0.5696 -0.1191
  613MOL0     C82624   4.818   2.761   8.158 -0.4606  0.1647 -0.5375
  613MOL0     C82625   4.936   2.827   8.147 -0.3939 -0.1106  0.4424
  613MOL0     C82626   5.005   2.811   8.021  0.5543 -0.9725 -0.4956
  613MOL0     C82627   4.948   2.742   7.913 -0.2053  0.5949 -0.0839
  613MOL0     O82628   5.025   2.748   7.805 -1.1153 -0.5378  0.9482
  613MOL0     C82629   4.978   2.695   7.680 -0.5426  0.0694  0.2732
  613MOL0     C82630   5.062   2.756   7.563  0.4292 -0.5837  0.7364
  613MOL0     C82631   5.021   2.894   7.505  0.0944  0.3286  0.9111
  613MOL0     C82632   4.896   2.884   7.420  1.0007  0.4679 -0.1846
  613MOL0     C82633   4.894   2.989   7.313  0.5147  0.1990 -0.0486
  613MOL0     C82634   4.753   2.996   7.237 -0.3310 -0.8637  0.5399
  613MOL0     C82635   4.761   3.088   7.118  0.0324 -0.2630 -0.2197
  613MOL0     C82636   4.635   3.087   7.023 -0.3277 -0.1110  0.0553
  613MOL0     N82637   4.626   3.209   6.954  0.1340 -1.4997  0.0586
  613MOL0     C82638   4.681   3.243   6.831  0.0907 -0.1652 -0.0951
  613MOL0     C82639   4.656   3.378   6.818 -1.1957  0.4360  0.1169
  613MOL0     C82640   4.717   3.457   6.699  1.0411 -0.1837 -0.5365
  613MOL0     C82641   4.655   3.411   6.570  1.2212  0.0402  0.0105
  613MOL0     C82642   4.764   3.434   6.459 -0.0181 -0.0191 -0.4120
  613MOL0     C82643   4.710   3.387   6.328 -0.8094  0.2457 -0.2126
  613MOL0     O82644   4.617   3.489   6.273 -0.2494  0.6095 -0.3645
  613MOL0     C82645   4.658   3.572   6.172 -1.1902 -0.0771  0.5765
  613MOL0     C82646   4.794   3.609   6.135  0.6304  0.7994  1.1405
  613MOL0     C82647   4.816   3.706   6.030 -0.6391  0.5332  1.2879
  613MOL0     C82648   4.970   3.741   6.009 -0.1463 -0.4943 -0.1745
  613MOL0     C82649   4.706   3.758   5.954 -0.1868 -0.7295 -1.3529
  613MOL0     C82650   4.721   3.859   5.849 -0.5280  1.5407 -0.2253
  613MOL0     O82651   4.611   3.927   5.820 -0.4736 -0.7304  0.6967
  613MOL0     C82652   4.591   3.987   5.700  0.1366  1.3132 -0.3913
  613MOL0     C82653   4.542   3.906   5.594  0.6722  0.3434  0.2104
  613MOL0     C82654   4.517   3.951   5.466 -0.4710  0.7401 -0.5501
  613MOL0     C82655   4.542   4.091   5.447 -0.1507 -1.1640  0.6639
  613MOL0     O82656   4.508   4.162   5.333 -0.4930 -0.0216 -1.1803
  613MOL0     C82657   4.501   4.091   5.207  0.3939 -0.7863 -0.6724
  613MOL0     C82658   4.649   4.067   5.163 -0.0256 -0.0511 -0.4590
  613MOL0     C82659   4.636   3.986   5.039 -0.9398 -0.2152 -0.1902
  613MOL0     C82660   4.765   3.972   4.971 -0.7374  0.1972  0.1166
  613MOL0     C82661   4.742   3.901   4.832 -0.0924 -0.3514 -0.4906
  613MOL0     C82662   4.870   3.891   4.756 -0.8038 -0.5639 -0.2181
  613MOL0     C82663   4.855   3.813   4.627  0.8879 -0.0516  0.0106
  613MOL0     C82664   4.757   3.867   4.523 -0.0516 -0.1958 -0.3035
  613MOL0    Cl82665   4.797   3.785   4.365 -0.2567 -0.1279 -0.4308
  613MOL0     C82666   4.575   4.172   5.559  0.3878  0.2102  0.7174
  613MOL0     C82667   4.610   4.118   5.683 -0.0470  0.0737  0.0892
  613MOL0     O82668   4.827   3.852   5.783 -0.2985 -0.1284 -0.4329
  613MOL0     C82669   4.579   3.722   5.984  0.7115  0.3498  0.2253
  613MOL0     C82670   4.557   3.632   6.094 -0.7151 -0.1166  1.0082
  613MOL0     N82671   4.585   3.424   6.929  0.4792  0.6551  0.3201
  613MOL0     N82672   4.574   3.322   7.014 -0.3995 -0.4770  0.0065
  613MOL0     C82673   4.828   2.668   7.924 -0.0730 -0.8500  0.4401
  613MOL0     C82674   4.760   2.688   8.046 -0.5191  0.5482  0.2857
  613MOL0     C82675   4.679   2.668   8.476  0.4803  1.2963  0.8188
  613MOL0     C82676   4.688   2.559   8.571 -0.0929 -0.8528 -1.5252
  613MOL0     C82677   4.589   2.543   8.667 -0.9193  0.8075 -0.3920
  613MOL0     C82678   4.478   2.626   8.678 -0.0772  0.0076 -0.0648
  613MOL0     O82679   4.383   2.608   8.779  0.7121  0.2659  0.0130
  613MOL0     C82680   4.363   2.708   8.866  0.9536 -1.0219  0.3676
  613MOL0     C82681   4.276   2.646   8.970 -0.3273  0.2739 -0.5632
  613MOL0     C82682   4.348   2.514   9.035 -0.6458 -0.8551  1.0579
  613MOL0     C82683   4.267   2.455   9.161 -0.2224 -0.6853 -0.6312
  613MOL0     C82684   4.259   2.548   9.274  0.9060  0.4222  0.3992
  613MOL0     C82685   4.263   2.618   9.369  0.8044  0.5756  0.7524
  613MOL0     C82686   4.478   2.738   8.593 -0.7497 -0.1534  0.5253
  613MOL0     C82687   4.568   2.758   8.485 -0.3338 -0.2031 -0.8295
  613MOL0     H82688   4.971   2.873   8.239 -4.8246  0.3373  2.1483
  613MOL0     H82689   5.102   2.855   8.000  1.7738 -3.5033 -0.4235
  613MOL0     H82690   4.984   2.587   7.690 -3.9431 -0.1563  1.2617
  613MOL0     H82691   4.870   2.712   7.671 -0.2762  2.5914  0.8952
  613MOL0     H82692   5.171   2.763   7.572  0.4356  0.2505  0.1377
  613MOL0     H82693   5.055   2.685   7.480 -0.3647 -1.6868  1.7150
  613MOL0     H82694   5.022   2.975   7.579 -0.9381  0.7575  0.4835
  613MOL0     H82695   5.096   2.926   7.431 -0.4969 -2.2385 -0.9326
  613MOL0     H82696   4.900   2.791   7.362  0.6984  1.3640 -1.6944
  613MOL0     H82697   4.806   2.886   7.481 -0.3359 -0.6289 -2.0240
  613MOL0     H82698   4.926   3.088   7.345  2.4517  0.5309 -2.6656
  613MOL0     H82699   4.968   2.973   7.234  1.1937  1.5630  0.2795
  613MOL0     H82700   4.758   2.899   7.187  0.5121 -1.7636  2.3003
  613MOL0     H82701   4.669   3.018   7.303  0.3928  0.0351  1.1854
  613MOL0     H82702   4.784   3.184   7.164 -0.0358 -0.4413  0.1868
  613MOL0     H82703   4.846   3.062   7.053 -0.1337  0.2644 -0.6553
  613MOL0     H82704   4.548   3.065   7.085 -1.0489  0.8090 -0.6165
  613MOL0     H82705   4.648   3.016   6.940  3.0423  1.5872 -1.0745
  613MOL0     H82706   4.743   3.188   6.761  0.3565  1.0553 -0.8664
  613MOL0     H82707   4.693   3.562   6.719 -3.0250 -0.9784 -0.4478
  613MOL0     H82708   4.825   3.436   6.698  0.6073 -3.5590  2.0143
  613MOL0     H82709   4.563   3.462   6.538  1.0267 -0.6794 -0.6224
  613MOL0     H82710   4.631   3.304   6.575  0.4176  0.2324  0.3976
  613MOL0     H82711   4.854   3.379   6.486 -0.1621  0.2253  0.6138
  613MOL0     H82712   4.783   3.542   6.450 -0.8746  0.4799  2.4868
  613MOL0     H82713   4.666   3.288   6.348  0.4697 -0.5186 -1.0925
  613MOL0     H82714   4.799   3.365   6.268 -0.9146 -4.6593  0.9662
  613MOL0     H82715   4.878   3.566   6.188  2.3697  0.0411 -1.9780
  613MOL0     H82716   4.987   3.848   6.025  1.2905 -0.2597 -2.6688
  613MOL0     H82717   5.024   3.682   6.083 -0.7522  2.1008  2.5169
  613MOL0     H82718   5.014   3.711   5.913  2.7848 -2.0781  1.5398
  613MOL0     H82719   4.498   3.808   5.613 -1.1067  0.9232 -0.7656
  613MOL0     H82720   4.467   3.880   5.401 -1.4261 -1.2316  2.1544
  613MOL0     H82721   4.437   4.004   5.228 -0.2335 -1.4395 -4.5636
  613MOL0     H82722   4.463   4.149   5.122  0.4192 -1.8633 -1.4439
  613MOL0     H82723   4.682   4.167   5.132 -1.2125  0.5369  0.1039
  613MOL0     H82724   4.717   4.039   5.245 -0.0735  0.5909 -0.1933
  613MOL0     H82725   4.575   4.045   4.971  2.2738  2.3827 -1.1028
  613MOL0     H82726   4.584   3.891   5.057 -0.6340  0.0147  2.2704
  613MOL0     H82727   4.818   4.062   4.937  1.7490 -1.7439 -1.5459
  613MOL0     H82728   4.828   3.917   5.041 -0.2306  1.7407  0.9185
  613MOL0     H82729   4.663   3.954   4.778 -1.7833 -3.1797 -1.0175
  613MOL0     H82730   4.706   3.799   4.844 -0.1747 -0.4909 -1.8444
  613MOL0     H82731   4.924   3.985   4.740 -0.1786 -0.0285  3.9046
  613MOL0     H82732   4.947   3.842   4.816  1.5691  3.6348  0.5854
  613MOL0     H82733   4.829   3.710   4.654 -2.6440  1.0920  1.6088
  613MOL0     H82734   4.958   3.816   4.590  1.7441 -1.5735  2.0903
  613MOL0     H82735   4.763   3.976   4.514  0.0561 -0.1011  0.8432
  613MOL0     H82736   4.653   3.836   4.531 -0.2554  0.7406  0.9565
  613MOL0     H82737   4.587   4.279   5.543  0.7819  0.6637  3.6023
  613MOL0     H82738   4.652   4.189   5.754  2.0278 -2.2475  1.3646
  613MOL0     H82739   4.489   3.759   5.936 -1.9037 -0.4991  3.9738
  613MOL0     H82740   4.458   3.602   6.126 -1.9222  0.7419 -1.5899
  613MOL0     H82741   4.784   2.604   7.848  0.6948 -3.4968  2.0928
  613MOL0     H82742   4.668   2.634   8.065 -0.3205  0.6562  1.6851
  613MOL0     H82743   4.775   2.495   8.580  0.0579 -0.7699 -2.2724
  613MOL0     H82744   4.595   2.461   8.737  1.5452  1.5924  0.4103
  613MOL0     H82745   4.460   2.736   8.908  0.9801 -2.3311  1.2481
  613MOL0     H82746   4.326   2.800   8.819 -0.2990 -1.7901 -0.1940
  613MOL0     H82747   4.175   2.626   8.933  0.2865 -2.0182 -1.1427
  613MOL0     H82748   4.259   2.712   9.055  1.6103 -1.6031  1.3874
  613MOL0     H82749   4.451   2.537   9.063 -0.6923 -1.8875  2.1905
  613MOL0     H82750   4.351   2.438   8.956  2.1988 -1.4573  1.6420
  613MOL0     H82751   4.322   2.372   9.204  0.9018  2.6000  5.3626
  613MOL0     H82752   4.164   2.430   9.132 -0.3258  0.6938 -1.5744
  613MOL0     H82753   4.246   2.695   9.442 -0.2020  3.2454 -2.0916
  613MOL0     H82754   4.404   2.815   8.610  0.9626  1.6158  0.3550
  613MOL0     H82755   4.555   2.844   8.420 -0.4899  0.8381  0.5458
  614MOL0     O82756   9.917   1.242   6.192 -0.0078  0.1048  0.2593
  614MOL0     C82757   9.857   1.151   6.249 -0.1634 -0.3241 -0.1975
  614MOL0     O82758   9.889   1.095   6.362  0.2591  0.0274 -0.0421
  614MOL0     C82759  10.012   1.123   6.429 -0.1925 -0.1528 -0.2842
  614MOL0     C82760  10.041   1.051   6.547 -0.0455  0.2055 -0.3898
  614MOL0     C82761  10.163   1.064   6.613  0.1334  0.0551  0.3727
  614MOL0     C82762  10.246   1.161   6.575 -1.2027 -0.3855 -0.1701
  614MOL0     O82763  10.350   1.168   6.668  0.0337  0.1079  0.3625
  614MOL0     C82764  10.414   1.295   6.677 -0.6376 -0.2753  0.2244
  614MOL0     C82765  10.489   1.286   6.802  0.2992 -0.5690 -0.3542
  614MOL0     C82766  10.626   1.358   6.785 -0.3818 -0.1247  0.8922
  614MOL0     C82767  10.731   1.282   6.695  0.2696  1.2704  0.4310
  614MOL0     C82768  10.856   1.367   6.691  0.2050  0.9213  0.0465
  614MOL0     C82769  10.921   1.379   6.552  1.0634  0.1142  1.2357
  614MOL0     C82770  11.053   1.462   6.553 -0.7839 -0.6617  0.7382
  614MOL0     C82771  11.131   1.455   6.422 -0.6020 -0.6141  0.0257
  614MOL0     N82772  11.189   1.331   6.389  0.5398  0.0756 -0.5017
  614MOL0     C82773  11.305   1.289   6.453  0.8234 -0.0951  0.1361
  614MOL0     C82774  11.370   1.210   6.368  0.1949  0.3220 -0.2637
  614MOL0     C82775  11.490   1.132   6.389 -0.5175  0.7041  0.9056
  614MOL0     C82776  11.600   1.139   6.283 -0.6984 -0.3481 -0.3245
  614MOL0     C82777  11.565   1.033   6.166 -0.1709 -0.4349  0.4375
  614MOL0     C82778  11.661   1.068   6.052 -0.2673 -0.6900 -0.1491
  614MOL0     O82779  11.782   1.013   6.099  0.1455  0.2241 -0.1093
  614MOL0     C82780  11.895   1.038   6.033  0.0617  0.2319 -0.0604
  614MOL0     C82781  11.899   1.086   5.904  0.4112 -0.6824  0.2216
  614MOL0     C82782  12.024   1.116   5.849 -0.3083  0.3203  0.0871
  614MOL0     C82783  12.024   1.177   5.710  0.7892 -0.8230  0.9715
  614MOL0     C82784  12.144   1.080   5.918 -0.4652 -0.7786 -0.4723
  614MOL0     C82785  12.268   1.086   5.843 -0.2304  0.0649  1.1966
  614MOL0     O82786  12.316   1.213   5.824  0.0713  0.2876 -0.5316
  614MOL0     C82787  12.426   1.243   5.747 -0.3493 -0.3904  0.1727
  614MOL0     C82788  12.421   1.337   5.635  0.2145  0.8807 -0.2769
  614MOL0     C82789  12.529   1.364   5.555 -0.0157  0.1489  0.4797
  614MOL0     C82790  12.644   1.283   5.570  0.4599  0.6058 -0.2737
  614MOL0     O82791  12.757   1.280   5.486  0.3164  0.0965  0.1943
  614MOL0     C82792  12.795   1.396   5.418 -0.7863 -0.2572  0.8759
  614MOL0     C82793  12.778   1.360   5.267  0.5190 -0.3445  0.2395
  614MOL0     C82794  12.840   1.470   5.179  1.1275  0.2111 -1.0374
  614MOL0     C82795  12.831   1.447   5.030 -0.0868  1.1876 -0.3148
  614MOL0     C82796  12.905   1.548   4.952  0.3029  0.0818  0.1518
  614MOL0     C82797  12.829   1.677   4.908 -0.0372 -0.5072 -0.3158
  614MOL0     C82798  12.740   1.758   5.011  1.0470  0.7351 -0.3811
  614MOL0     C82799  12.713   1.907   4.978 -0.6392  0.1141  0.7374
  614MOL0    Cl82800  12.543   1.930   4.977  0.0000  0.1317  0.1729
  614MOL0     C82801  12.654   1.185   5.679 -0.3543 -0.4246  0.4305
  614MOL0     C82802  12.550   1.179   5.766  0.6382 -1.1620 -0.7948
  614MOL0     O82803  12.315   0.989   5.790  0.6755  0.0386  0.6817
  614MOL0     C82804  12.134   1.019   6.044  0.4193  0.0433  0.0227
  614MOL0     C82805  12.009   1.010   6.105 -0.4059 -0.4665  0.4354
  614MOL0     N82806  11.301   1.207   6.254  0.2749 -0.3158 -0.1664
  614MOL0     N82807  11.190   1.280   6.265 -1.2476  0.5153 -0.1331
  614MOL0     C82808  10.226   1.240   6.458 -0.4581 -0.0211 -0.8666
  614MOL0     C82809  10.111   1.216   6.384  0.0644 -0.5221  0.8411
  614MOL0     C82810   9.727   1.106   6.206 -0.0922  0.1838 -0.8909
  614MOL0     C82811   9.632   1.036   6.297 -0.0242 -0.2349 -0.1595
  614MOL0     C82812   9.514   0.993   6.242  0.3151  1.2158  1.2113
  614MOL0     C82813   9.473   1.023   6.108  0.8515  0.1602 -0.7717
  614MOL0     O82814   9.339   0.997   6.059 -0.6611  0.4605 -0.8634
  614MOL0     C82815   9.272   0.879   6.108  0.8452 -0.5391 -0.1073
  614MOL0     C82816   9.202   0.805   5.995  0.5314 -0.2307 -0.0958
  614MOL0     C82817   9.145   0.682   6.044  0.0156  0.0005 -0.6674
  614MOL0     C82818   9.102   0.599   5.924 -0.0107  0.5748  0.2383
  614MOL0     C82819   9.077   0.457   5.955 -0.0568 -0.2831 -0.4594
  614MOL0     C82820   9.042   0.347   6.000  0.1868  0.3478 -0.5867
  614MOL0     C82821   9.564   1.096   6.027 -0.2383  0.4855  0.8319
  614MOL0     C82822   9.684   1.136   6.077 -0.2966 -0.2259  0.1711
  614MOL0     H82823   9.972   0.976   6.585  0.1277  0.2440  0.0034
  614MOL0     H82824  10.180   1.009   6.704  2.1935  1.1292  0.7226
  614MOL0     H82825  10.476   1.302   6.587 -2.2118 -0.5692 -0.9161
  614MOL0     H82826  10.351   1.384   6.688  0.3390  0.1787  2.7835
  614MOL0     H82827  10.438   1.344   6.879 -2.6258  0.1834 -2.6710
  614MOL0     H82828  10.510   1.186   6.840 -0.4667  0.0745  1.8697
  614MOL0     H82829  10.612   1.455   6.738 -0.5296  0.2520  1.6992
  614MOL0     H82830  10.669   1.371   6.885  0.1016  0.5354  0.6023
  614MOL0     H82831  10.753   1.183   6.735 -1.0934  1.1514  0.9488
  614MOL0     H82832  10.693   1.272   6.593 -1.7524  0.0974  1.2327
  614MOL0     H82833  10.839   1.469   6.729  1.4143  1.1778 -0.0510
  614MOL0     H82834  10.925   1.318   6.761  0.5525  0.1405 -0.8312
  614MOL0     H82835  10.951   1.284   6.508  1.4452  1.0684 -0.6605
  614MOL0     H82836  10.844   1.428   6.492  0.4346 -1.3147  0.8285
  614MOL0     H82837  11.038   1.567   6.576  0.6984 -0.8726  2.8551
  614MOL0     H82838  11.121   1.436   6.634 -0.6917  3.7167  2.2771
  614MOL0     H82839  11.217   1.522   6.419 -0.9052 -0.2661 -2.2333
  614MOL0     H82840  11.067   1.494   6.343  0.3079  1.7045  0.3475
  614MOL0     H82841  11.333   1.308   6.557 -1.9477 -1.6660  1.2961
  614MOL0     H82842  11.528   1.169   6.485 -0.7918  2.4619  0.3669
  614MOL0     H82843  11.468   1.027   6.412  1.8314 -0.0250  0.0858
  614MOL0     H82844  11.692   1.122   6.339 -1.2110  1.8849  1.3519
  614MOL0     H82845  11.603   1.243   6.249  2.2280 -0.3029 -0.1414
  614MOL0     H82846  11.468   1.053   6.119  0.4117 -0.0159 -0.6149
  614MOL0     H82847  11.574   0.931   6.205  2.5879 -0.6130 -0.4447
  614MOL0     H82848  11.661   1.177   6.043  0.4065 -0.7838 -1.3783
  614MOL0     H82849  11.627   1.032   5.955  1.9109 -1.5294 -0.6605
  614MOL0     H82850  11.809   1.108   5.849  0.2050  0.9802  1.1444
  614MOL0     H82851  11.923   1.187   5.669  2.2859  0.6531 -2.7848
  614MOL0     H82852  12.060   1.281   5.717 -0.1358 -0.3727 -0.5068
  614MOL0     H82853  12.079   1.118   5.637  0.0144  0.0941 -0.3874
  614MOL0     H82854  12.317   1.370   5.634 -0.7311 -1.7648  0.5346
  614MOL0     H82855  12.522   1.445   5.482  0.9690  1.1200  1.4222
  614MOL0     H82856  12.723   1.475   5.444 -2.9277 -1.6755 -0.3921
  614MOL0     H82857  12.900   1.418   5.438 -0.4534 -0.8080 -0.2043
  614MOL0     H82858  12.840   1.272   5.246  2.5052  0.6546  1.5674
  614MOL0     H82859  12.678   1.326   5.241  0.4533 -1.0102  1.2806
  614MOL0     H82860  12.946   1.471   5.208  0.2814 -1.8712  2.8172
  614MOL0     H82861  12.783   1.562   5.200 -1.9985 -2.4218  4.0783
  614MOL0     H82862  12.865   1.348   4.998  0.4792  0.3727  2.4881
  614MOL0     H82863  12.724   1.449   5.010 -0.9850  2.2302  3.7132
  614MOL0     H82864  12.921   1.491   4.860 -0.4335  2.6259 -1.6835
  614MOL0     H82865  12.998   1.574   5.004 -0.7518  0.3791  1.9569
  614MOL0     H82866  12.901   1.739   4.854  1.3131  0.7645  2.7548
  614MOL0     H82867  12.759   1.640   4.832  1.1762 -0.9019 -1.2768
  614MOL0     H82868  12.778   1.736   5.111  0.7998  2.4773  0.1350
  614MOL0     H82869  12.640   1.716   5.008  1.3858 -0.1038 -0.0877
  614MOL0     H82870  12.753   1.928   4.879 -4.0918 -0.7610 -0.9855
  614MOL0     H82871  12.755   1.977   5.050  4.0729  2.0142 -3.3252
  614MOL0     H82872  12.736   1.115   5.685 -0.5167 -0.4534  3.5353
  614MOL0     H82873  12.555   1.126   5.861  2.0414  0.4615  0.0935
  614MOL0     H82874  12.219   0.980   6.098  2.9008  2.7627 -1.6077
  614MOL0     H82875  12.003   0.982   6.210 -2.8824  1.2596  0.8444
  614MOL0     H82876  10.303   1.308   6.424  0.7534 -2.6611 -3.9708
  614MOL0     H82877  10.114   1.279   6.296  3.2529 -2.1697 -0.3777
  614MOL0     H82878   9.650   1.009   6.401 -0.2240 -5.1681 -1.1404
  614MOL0     H82879   9.444   0.944   6.309  1.9544  1.5594  3.2781
  614MOL0     H82880   9.344   0.810   6.154  0.4434 -0.6667  0.3252
  614MOL0     H82881   9.197   0.920   6.176  0.0161 -3.0962  0.6234
  614MOL0     H82882   9.281   0.779   5.924  0.5031 -3.8319  0.9632
  614MOL0     H82883   9.127   0.868   5.946  2.6302 -1.3071 -5.3980
  614MOL0     H82884   9.059   0.714   6.104  1.2082  1.1145  0.5252
  614MOL0     H82885   9.217   0.622   6.100  1.8078  0.3836 -2.4619
  614MOL0     H82886   9.183   0.602   5.851 -0.2168  1.6762  0.0323
  614MOL0     H82887   9.016   0.649   5.878  0.3115 -0.7361 -1.9116
  614MOL0     H82888   9.024   0.254   6.050 -0.7586  1.5362  1.4464
  614MOL0     H82889   9.534   1.117   5.925  0.0242 -0.0663  0.6378
  614MOL0     H82890   9.748   1.180   6.001  0.9219  1.8370  2.2857
  615MOL0     O82891  10.765   6.474   4.147  0.6408  0.6709 -0.0206
  615MOL0     C82892  10.686   6.529   4.224  0.1478  0.3346 -0.2499
  615MOL0     O82893  10.575   6.593   4.190 -0.1399 -0.7708 -0.4202
  615MOL0     C82894  10.518   6.601   4.069  0.1948  0.4719  0.4118
  615MOL0     C82895  10.459   6.481   4.003  0.2400  0.2706  0.7340
  615MOL0     C82896  10.387   6.499   3.879 -0.5466 -0.0645 -0.4703
  615MOL0     C82897  10.387   6.625   3.821  0.4474  0.0210 -0.1805
  615MOL0     O82898  10.307   6.650   3.714 -0.2776  0.5090 -0.1098
  615MOL0     C82899  10.225   6.548   3.664  0.0700 -0.0003 -0.5043
  615MOL0     C82900  10.114   6.605   3.575  0.7304 -0.4205  0.3767
  615MOL0     C82901  10.035   6.481   3.525 -0.0975  0.3873 -0.2744
  615MOL0     C82902   9.890   6.517   3.495  0.3442  0.9679  0.2301
  615MOL0     C82903   9.847   6.615   3.385  0.6311 -0.0103  0.3938
  615MOL0     C82904   9.851   6.565   3.231 -0.8041  0.5735  0.1916
  615MOL0     C82905   9.999   6.575   3.189 -0.2200 -0.0084  0.0839
  615MOL0     C82906  10.040   6.456   3.104 -0.2178 -0.8543  0.4305
  615MOL0     N82907   9.940   6.429   2.997  0.6593  0.2465 -1.1495
  615MOL0     C82908   9.906   6.514   2.894  0.1271  0.4606 -0.0673
  615MOL0     C82909   9.823   6.436   2.818  0.5581  0.1834  0.3032
  615MOL0     C82910   9.748   6.493   2.703  0.1785 -0.1033  0.0396
  615MOL0     C82911   9.603   6.506   2.751  0.0751 -0.4551 -0.9003
  615MOL0     C82912   9.502   6.460   2.649  1.0282  1.2407  0.5746
  615MOL0     C82913   9.364   6.531   2.676 -0.9029  0.9396  0.2782
  615MOL0     O82914   9.285   6.468   2.779  0.0363  0.2018 -0.1739
  615MOL0     C82915   9.245   6.339   2.779 -0.2317  0.4161 -0.1311
  615MOL0     C82916   9.197   6.293   2.898 -0.6353 -0.4218 -0.8663
  615MOL0     C82917   9.142   6.166   2.911 -0.6794  0.4688  0.1861
  615MOL0     C82918   9.093   6.132   3.053 -0.0345  0.2266  0.7259
  615MOL0     C82919   9.126   6.083   2.803  0.6273 -0.6289  1.1601
  615MOL0     C82920   9.068   5.944   2.804  0.4243  0.6190  0.5957
  615MOL0     O82921   9.080   5.878   2.687  0.7342  0.4629  0.1957
  615MOL0     C82922   9.024   5.754   2.686  0.7083  0.1036  0.1806
  615MOL0     C82923   8.959   5.715   2.569  0.0537  1.5056  0.2961
  615MOL0     C82924   8.922   5.584   2.543 -0.4006  0.0753 -0.6322
  615MOL0     C82925   8.935   5.487   2.647  0.3720  0.2216 -0.0369
  615MOL0     O82926   8.878   5.361   2.628  0.4222 -0.3062  0.0471
  615MOL0     C82927   8.937   5.257   2.709 -0.7218  0.2446  0.1215
  615MOL0     C82928   8.865   5.135   2.672 -0.3379 -0.7432  0.3231
  615MOL0     C82929   8.898   5.019   2.775 -0.8653 -0.0698  0.0306
  615MOL0     C82930   8.849   4.887   2.728  1.1774  0.6898  0.7929
  615MOL0     C82931   8.898   4.776   2.825  0.6709 -0.0316  0.2113
  615MOL0     C82932   9.047   4.738   2.840 -1.3017 -0.3808 -0.1313
  615MOL0     C82933   9.081   4.612   2.928 -0.1596 -0.3052 -0.4600
  615MOL0     C82934   9.223   4.609   2.958 -0.7954  0.2240 -0.3130
  615MOL0    Cl82935   9.295   4.751   3.049  0.2860  0.1777  0.0983
  615MOL0     C82936   8.999   5.525   2.767  0.6929  0.9655 -0.0754
  615MOL0     C82937   9.047   5.656   2.777 -0.6109  0.1451 -0.1966
  615MOL0     O82938   8.993   5.910   2.890  0.0513 -0.2956  0.0004
  615MOL0     C82939   9.180   6.136   2.679  0.5880  0.1993  0.4658
  615MOL0     C82940   9.235   6.266   2.669 -0.1952  1.3284  0.9512
  615MOL0     N82941   9.810   6.308   2.869 -1.0603 -0.0267  0.9914
  615MOL0     N82942   9.890   6.305   2.972  0.0789 -1.1010 -0.6382
  615MOL0     C82943  10.468   6.735   3.867  0.3361 -0.1294  1.2550
  615MOL0     C82944  10.524   6.722   3.995 -1.1210 -0.3604  0.1600
  615MOL0     C82945  10.715   6.520   4.369  0.9377  0.8232 -0.0278
  615MOL0     C82946  10.622   6.551   4.468  0.0087  0.2067 -1.1320
  615MOL0     C82947  10.650   6.540   4.607 -0.3140 -0.0657  1.5008
  615MOL0     C82948  10.783   6.506   4.643 -0.1692 -0.8877  0.6014
  615MOL0     O82949  10.821   6.501   4.775  0.7399 -0.2683 -0.3087
  615MOL0     C82950  10.724   6.536   4.872  0.4912 -0.9625  1.0292
  615MOL0     C82951  10.784   6.533   5.012 -0.1888 -0.0274  0.1120
  615MOL0     C82952  10.883   6.643   5.054  0.7366  0.2389 -0.4866
  615MOL0     C82953  10.932   6.640   5.192  0.4978  0.2439 -0.3721
  615MOL0     C82954  10.821   6.658   5.280 -0.8927  0.0081 -0.5283
  615MOL0     C82955  10.749   6.672   5.379 -0.5784  0.2694 -0.8572
  615MOL0     C82956  10.875   6.481   4.534 -0.4545 -0.1955 -0.5354
  615MOL0     C82957  10.837   6.473   4.402  0.0772  0.1209 -0.7790
  615MOL0     H82958  10.467   6.381   4.044  1.2629  0.3415  0.7258
  615MOL0     H82959  10.351   6.406   3.838  1.8262 -1.6565  0.7787
  615MOL0     H82960  10.296   6.482   3.614 -0.9469 -1.2961 -0.2912
  615MOL0     H82961  10.175   6.498   3.748 -0.0766  0.8777 -0.0554
  615MOL0     H82962  10.045   6.672   3.628  1.3651 -0.2649  1.0224
  615MOL0     H82963  10.164   6.665   3.499  0.5351  0.1157  0.6646
  615MOL0     H82964  10.079   6.436   3.435  2.0402  0.4786  0.6598
  615MOL0     H82965  10.043   6.398   3.596 -2.8019  1.7532  1.8158
  615MOL0     H82966   9.830   6.426   3.485  0.6455  0.5993  1.5303
  615MOL0     H82967   9.866   6.564   3.590  0.0126 -0.4257  0.8682
  615MOL0     H82968   9.743   6.648   3.392  0.0280 -1.9154  0.9843
  615MOL0     H82969   9.910   6.703   3.406  1.4486  0.9884 -4.8644
  615MOL0     H82970   9.818   6.461   3.219 -1.0235  0.2271  3.1134
  615MOL0     H82971   9.788   6.632   3.173 -2.5056 -1.1846 -0.0889
  615MOL0     H82972  10.007   6.664   3.125  1.3701 -0.6971 -0.7422
  615MOL0     H82973  10.073   6.583   3.269 -1.2714  2.0588  0.9229
  615MOL0     H82974  10.055   6.369   3.169 -0.0259 -0.6772  0.6288
  615MOL0     H82975  10.133   6.482   3.053 -1.8135 -2.6279 -3.8361
  615MOL0     H82976   9.936   6.617   2.884  0.5913  0.2714 -0.6931
  615MOL0     H82977   9.771   6.595   2.671 -0.9636 -0.4095 -1.9457
  615MOL0     H82978   9.742   6.415   2.627 -1.6267 -1.9601  1.9555
  615MOL0     H82979   9.593   6.612   2.779  0.9193 -0.4464 -0.6178
  615MOL0     H82980   9.588   6.449   2.843 -1.5998 -0.7791 -1.3346
  615MOL0     H82981   9.502   6.352   2.664 -0.1368  1.0718 -0.5151
  615MOL0     H82982   9.541   6.480   2.549  1.0536  1.1171  0.5592
  615MOL0     H82983   9.301   6.542   2.587 -1.2019 -1.0840  0.1800
  615MOL0     H82984   9.380   6.630   2.718  1.3725 -0.5910  3.4380
  615MOL0     H82985   9.193   6.368   2.976 -1.3953  0.6263 -1.8726
  615MOL0     H82986   9.146   6.175   3.138  0.1141  2.7723 -0.5639
  615MOL0     H82987   8.986   6.155   3.065 -0.2048  1.3837 -2.0664
  615MOL0     H82988   9.104   6.026   3.078  0.5242 -0.3390 -1.6522
  615MOL0     H82989   8.940   5.787   2.490 -1.9630 -0.4534 -1.1106
  615MOL0     H82990   8.879   5.562   2.446 -0.8656 -1.1183 -0.1747
  615MOL0     H82991   9.046   5.248   2.707 -0.7867 -0.4447 -0.5527
  615MOL0     H82992   8.920   5.277   2.816  0.1430 -0.4686  0.4027
  615MOL0     H82993   8.757   5.153   2.674 -0.1179  0.6640  0.6705
  615MOL0     H82994   8.894   5.116   2.568  1.7847 -0.7061  0.8577
  615MOL0     H82995   8.854   5.033   2.874 -0.6429 -0.7256  0.2321
  615MOL0     H82996   9.005   5.001   2.785 -1.2952 -5.1251 -1.6307
  615MOL0     H82997   8.740   4.897   2.727  1.2375  2.6681  2.9459
  615MOL0     H82998   8.897   4.868   2.632  1.0836  2.9433  0.2605
  615MOL0     H82999   8.847   4.688   2.785 -1.2806  1.8067 -1.5725
  615MOL0     H83000   8.865   4.790   2.928  2.2600 -1.9537  1.0618
  615MOL0     H83001   9.097   4.709   2.747  2.3259 -1.4435  1.9513
  615MOL0     H83002   9.094   4.828   2.882 -0.2011 -1.4203  0.9624
  615MOL0     H83003   9.063   4.525   2.865  0.9300 -2.8688  2.5322
  615MOL0     H83004   9.014   4.602   3.014  2.0196 -0.7150  1.2745
  615MOL0     H83005   9.279   4.599   2.864  1.4365 -2.4799  1.1524
  615MOL0     H83006   9.252   4.512   2.999 -0.0310  0.9729  0.9960
  615MOL0     H83007   9.032   5.460   2.848 -0.3263  3.2873  2.3550
  615MOL0     H83008   9.114   5.668   2.862 -0.0127 -1.0267 -0.4820
  615MOL0     H83009   9.166   6.096   2.579  0.7649  0.2260  0.4296
  615MOL0     H83010   9.262   6.302   2.570  1.5241  0.0797  0.9107
  615MOL0     H83011  10.472   6.822   3.802  0.2875  0.6836  2.3125
  615MOL0     H83012  10.595   6.798   4.028  0.7164 -0.8642 -2.3564
  615MOL0     H83013  10.520   6.580   4.444 -0.1030 -0.7455 -1.8667
  615MOL0     H83014  10.566   6.562   4.672 -0.1937  2.2612  0.9594
  615MOL0     H83015  10.672   6.630   4.849  0.8125 -0.7932  0.9995
  615MOL0     H83016  10.649   6.456   4.869 -0.9869  0.3793 -0.0479
  615MOL0     H83017  10.841   6.440   5.021  1.4381  1.0177  0.7888
  615MOL0     H83018  10.709   6.513   5.089  2.3292  0.8223  2.9579
  615MOL0     H83019  10.839   6.743   5.045  1.4427  0.3816 -3.0263
  615MOL0     H83020  10.968   6.638   4.985  1.2211 -0.4073  0.1349
  615MOL0     H83021  11.007   6.714   5.220 -0.3306  1.3223 -0.9460
  615MOL0     H83022  10.980   6.544   5.214  0.7634  0.6010  0.6669
  615MOL0     H83023  10.684   6.682   5.463  2.8689 -2.1335  2.4251
  615MOL0     H83024  10.972   6.439   4.560 -1.2691 -0.5959  2.1402
  615MOL0     H83025  10.917   6.448   4.332  1.5465 -1.4801  1.3374
  616MOL0     O83026   3.187  10.993   1.784 -0.4743  0.0387 -0.0353
  616MOL0     C83027   3.273  10.977   1.694  0.0881  0.1589 -0.6819
  616MOL0     O83028   3.276  10.871   1.611 -0.3698  0.3732  0.2329
  616MOL0     C83029   3.185  10.770   1.619 -0.0940  0.2431 -0.5568
  616MOL0     C83030   3.122  10.730   1.502 -0.0776 -0.0218  0.5464
  616MOL0     C83031   3.040  10.616   1.506 -0.8128 -0.6621  0.3209
  616MOL0     C83032   2.998  10.566   1.632 -0.9264  0.1951 -0.6199
  616MOL0     O83033   2.909  10.462   1.649  0.3887  0.1451  0.5030
  616MOL0     C83034   2.945  10.342   1.717  0.1530  0.0388  0.3773
  616MOL0     C83035   2.870  10.218   1.659 -0.4515  0.1151 -0.0726
  616MOL0     C83036   2.938  10.091   1.714  0.4617  0.9487 -1.5250
  616MOL0     C83037   2.988  10.096   1.866  0.1424  0.3148  0.5585
  616MOL0     C83038   3.029   9.957   1.917  0.4128 -0.5731 -0.7011
  616MOL0     C83039   3.163   9.914   1.857  1.0598 -0.5633 -0.0210
  616MOL0     C83040   3.238   9.810   1.936 -0.2673  0.4163  0.6796
  616MOL0     C83041   3.155   9.674   1.941  0.1939  0.0146 -0.7197
  616MOL0     N83042   3.222   9.579   2.038  0.1066 -0.1044  0.0710
  616MOL0     C83043   3.355   9.531   2.036  0.0633 -0.4482 -0.2046
  616MOL0     C83044   3.354   9.434   2.118 -1.2378  0.2521 -0.3336
  616MOL0     C83045   3.477   9.345   2.155  0.1981 -0.0503  0.8071
  616MOL0     C83046   3.463   9.185   2.135 -0.3063  0.5706  0.4488
  616MOL0     C83047   3.457   9.125   1.988 -0.6449 -0.2206  0.5145
  616MOL0     C83048   3.517   8.977   1.970  0.0192 -0.4200 -0.3798
  616MOL0     O83049   3.422   8.879   2.021 -0.2030 -0.6496 -0.3856
  616MOL0     C83050   3.413   8.752   1.966 -0.6630 -0.1221 -0.4104
  616MOL0     C83051   3.522   8.688   1.903  0.2877  0.3541  0.4175
  616MOL0     C83052   3.507   8.553   1.863 -0.5361 -1.1841  0.6578
  616MOL0     C83053   3.633   8.483   1.823  0.4600 -0.1763 -0.4143
  616MOL0     C83054   3.389   8.493   1.865  0.8077 -0.5386 -0.6991
  616MOL0     C83055   3.375   8.352   1.835 -0.6596 -0.3879  0.4428
  616MOL0     O83056   3.435   8.283   1.730 -0.7832 -0.3221 -0.4881
  616MOL0     C83057   3.426   8.138   1.748  0.0850  0.1893  1.2484
  616MOL0     C83058   3.482   8.078   1.862  0.0404 -0.2197  0.5955
  616MOL0     C83059   3.467   7.946   1.876 -0.6278  0.1441  0.2221
  616MOL0     C83060   3.414   7.856   1.778 -0.3650 -0.6847 -0.0539
  616MOL0     O83061   3.395   7.720   1.793 -0.0467 -0.1826  0.2377
  616MOL0     C83062   3.471   7.655   1.895  0.1565  0.1740 -0.0984
  616MOL0     C83063   3.450   7.509   1.931  0.5678 -0.1975  1.1463
  616MOL0     C83064   3.302   7.477   1.952  0.1534  1.8589  1.1569
  616MOL0     C83065   3.246   7.569   2.063  0.6085  0.1986  1.3571
  616MOL0     C83066   3.105   7.541   2.115 -0.0334 -0.1423 -0.5703
  616MOL0     C83067   3.043   7.661   2.192  0.2633 -0.1876  0.2459
  616MOL0     C83068   2.903   7.614   2.262  0.6523  0.2749  0.1690
  616MOL0     C83069   2.809   7.550   2.155  0.5011  0.3537  0.9349
  616MOL0    Cl83070   2.658   7.498   2.227 -0.5760 -0.7204 -0.1181
  616MOL0     C83071   3.367   7.917   1.660  0.2117  0.4191 -0.9862
  616MOL0     C83072   3.368   8.059   1.647  0.3701 -0.7831  0.4841
  616MOL0     O83073   3.299   8.297   1.912  0.4293  0.4853 -0.1398
  616MOL0     C83074   3.275   8.565   1.924  0.1904  0.8215 -0.0050
  616MOL0     C83075   3.293   8.688   1.977 -0.0700  1.0227 -0.4309
  616MOL0     N83076   3.227   9.424   2.170 -0.4701  0.3522 -0.5396
  616MOL0     N83077   3.152   9.510   2.129  0.2090 -0.0131  0.2761
  616MOL0     C83078   3.055  10.606   1.761  1.1485  0.1316  0.4769
  616MOL0     C83079   3.148  10.705   1.746 -0.1846 -0.0961 -0.3106
  616MOL0     C83080   3.384  11.077   1.675  0.1715 -0.0684 -1.0990
  616MOL0     C83081   3.475  11.067   1.571 -0.5575 -0.3568 -0.2400
  616MOL0     C83082   3.551  11.173   1.533 -0.0109 -0.6879  0.0512
  616MOL0     C83083   3.552  11.301   1.606  0.2755  0.3708 -0.2635
  616MOL0     O83084   3.618  11.413   1.573  0.6438  0.7277  0.1340
  616MOL0     C83085   3.737  11.408   1.489  0.6477 -0.6185  0.4514
  616MOL0     C83086   3.830  11.522   1.536 -0.0209  0.7120  0.6056
  616MOL0     C83087   3.767  11.657   1.579  0.6149  0.5475 -0.7090
  616MOL0     C83088   3.854  11.783   1.571  0.8248 -0.2527  0.4050
  616MOL0     C83089   3.883  11.849   1.447 -0.9541  0.0391 -0.4532
  616MOL0     C83090   3.904  11.894   1.336  0.1351  0.5755 -0.6164
  616MOL0     C83091   3.465  11.307   1.711  0.3336 -0.1543 -0.5764
  616MOL0     C83092   3.382  11.197   1.746 -0.2067  0.5609 -0.1409
  616MOL0     H83093   3.155  10.780   1.411 -5.1148 -0.9363 -2.1540
  616MOL0     H83094   2.986  10.562   1.429 -4.6394 -0.1299  2.3589
  616MOL0     H83095   3.053  10.331   1.701  0.0199 -2.3396  0.6251
  616MOL0     H83096   2.925  10.345   1.824  0.9667  0.3762  0.5264
  616MOL0     H83097   2.764  10.229   1.685 -0.6742 -1.8444 -0.0164
  616MOL0     H83098   2.883  10.222   1.551  1.3609 -2.1485 -0.0071
  616MOL0     H83099   2.860  10.015   1.717  1.6294 -0.2901 -1.2205
  616MOL0     H83100   3.019  10.053   1.650  1.1941  0.1046 -0.1577
  616MOL0     H83101   3.070  10.167   1.882  0.1607  0.1290  1.3792
  616MOL0     H83102   2.898  10.122   1.923 -0.1263 -0.4048  0.4791
  616MOL0     H83103   3.031   9.956   2.026 -5.9501 -1.4028 -0.1821
  616MOL0     H83104   2.948   9.889   1.889  0.4271 -0.9236  0.0803
  616MOL0     H83105   3.153   9.886   1.752  1.0428  1.0186 -0.4627
  616MOL0     H83106   3.242   9.990   1.853  1.3519 -0.9013 -0.8070
  616MOL0     H83107   3.332   9.803   1.880 -3.2942 -1.4055 -4.8847
  616MOL0     H83108   3.261   9.841   2.039  0.1956  0.4511  0.5680
  616MOL0     H83109   3.152   9.642   1.836 -2.2634 -1.6605 -0.2276
  616MOL0     H83110   3.053   9.686   1.979  0.1411 -3.9266  0.8933
  616MOL0     H83111   3.430   9.580   1.976  0.6853  1.2318  1.8052
  616MOL0     H83112   3.557   9.384   2.091 -0.2517  0.5072  0.5750
  616MOL0     H83113   3.498   9.355   2.262 -0.8646  2.1527  0.8722
  616MOL0     H83114   3.381   9.147   2.196 -1.0129 -1.4408 -1.6402
  616MOL0     H83115   3.556   9.155   2.184  0.5376  4.7632  1.8508
  616MOL0     H83116   3.510   9.192   1.920 -3.8482  1.6433 -0.3314
  616MOL0     H83117   3.351   9.125   1.962 -0.8575 -1.8391  1.2519
  616MOL0     H83118   3.612   8.968   2.022 -0.6692  0.4990  1.1107
  616MOL0     H83119   3.542   8.956   1.865 -2.1752 -0.6844 -0.9036
  616MOL0     H83120   3.623   8.727   1.894  1.1742 -0.6994  4.1054
  616MOL0     H83121   3.618   8.430   1.729  3.4244 -1.4261 -0.2892
  616MOL0     H83122   3.707   8.560   1.801 -2.6026  2.0566 -4.2612
  616MOL0     H83123   3.670   8.412   1.897 -0.3035 -1.8164 -1.5482
  616MOL0     H83124   3.539   8.131   1.938 -0.0809  3.3291 -1.5700
  616MOL0     H83125   3.527   7.907   1.957  0.0081 -1.2683 -0.8700
  616MOL0     H83126   3.576   7.668   1.866  0.2227  1.5218  0.6745
  616MOL0     H83127   3.456   7.705   1.991 -3.0744 -0.1681 -0.3211
  616MOL0     H83128   3.500   7.442   1.859 -0.9363 -2.0069  1.7085
  616MOL0     H83129   3.510   7.484   2.018  1.0228  1.1047  1.2340
  616MOL0     H83130   3.295   7.371   1.979  0.9015  1.1423 -1.2195
  616MOL0     H83131   3.238   7.483   1.864 -0.3325  1.8188  1.5024
  616MOL0     H83132   3.320   7.569   2.144  0.7774  0.7200  1.2098
  616MOL0     H83133   3.240   7.670   2.020  2.4963  0.4231  1.5349
  616MOL0     H83134   3.108   7.458   2.186 -1.6496  0.9778  0.9179
  616MOL0     H83135   3.051   7.520   2.022  0.7741 -0.8969 -0.8783
  616MOL0     H83136   3.107   7.691   2.276  0.4905  1.0445 -0.3504
  616MOL0     H83137   3.024   7.755   2.139 -1.2299 -1.5623 -1.7647
  616MOL0     H83138   2.863   7.694   2.325  3.6245 -0.1349  2.7829
  616MOL0     H83139   2.922   7.531   2.330  1.6527  0.0083 -0.4167
  616MOL0     H83140   2.837   7.462   2.098 -0.6879 -1.6258  3.2208
  616MOL0     H83141   2.775   7.623   2.080  3.8742 -0.8297 -2.0004
  616MOL0     H83142   3.307   7.857   1.592 -3.6032  0.1771  2.2342
  616MOL0     H83143   3.319   8.106   1.562 -1.0990  0.2205  1.8348
  616MOL0     H83144   3.180   8.522   1.954  2.0661 -1.3729  3.4877
  616MOL0     H83145   3.222   8.730   2.048  1.5453  0.7227  1.4253
  616MOL0     H83146   3.018  10.560   1.852 -3.8379 -1.5734 -2.0590
  616MOL0     H83147   3.184  10.747   1.839 -2.2967 -0.3025  0.6377
  616MOL0     H83148   3.487  10.970   1.524  2.2617  0.1448 -0.7616
  616MOL0     H83149   3.612  11.167   1.442  1.7962 -0.9364  1.2214
  616MOL0     H83150   3.784  11.310   1.498 -0.7196 -1.4479 -0.8485
  616MOL0     H83151   3.705  11.410   1.384  2.0494 -0.7145  0.0094
  616MOL0     H83152   3.906  11.536   1.459  0.2779  0.1485  0.7994
  616MOL0     H83153   3.889  11.487   1.621 -0.4756  0.5244  0.8485
  616MOL0     H83154   3.744  11.640   1.685 -1.9934 -2.8466 -1.6351
  616MOL0     H83155   3.672  11.665   1.525 -0.9692 -0.5867  1.6918
  616MOL0     H83156   3.948  11.746   1.613  1.3735 -1.1041 -1.4404
  616MOL0     H83157   3.811  11.866   1.627  2.1871 -0.3589  1.6630
  616MOL0     H83158   3.908  11.936   1.238  2.5434  1.7169 -0.0970
  616MOL0     H83159   3.459  11.401   1.763  0.7942  0.2555 -1.2403
  616MOL0     H83160   3.323  11.188   1.837  2.3335 -0.9446  1.4609
  617MOL0     O83161   6.006   2.388   4.215 -0.1002  0.3458 -0.3916
  617MOL0     C83162   6.118   2.438   4.202  0.1722 -0.7975  0.1359
  617MOL0     O83163   6.148   2.554   4.131 -0.1774 -0.3181 -0.2926
  617MOL0     C83164   6.040   2.609   4.056  0.2415 -0.5607  0.6074
  617MOL0     C83165   5.916   2.639   4.097  1.0449  0.3839  0.5986
  617MOL0     C83166   5.828   2.731   4.025  0.2067  0.0197 -0.0605
  617MOL0     C83167   5.870   2.776   3.900  0.2685  0.0288 -0.3094
  617MOL0     O83168   5.774   2.837   3.822  0.3890 -0.8373  0.0893
  617MOL0     C83169   5.784   2.832   3.670  0.0821  0.0955  0.1274
  617MOL0     C83170   5.724   2.691   3.622 -0.5616  0.3166 -0.2362
  617MOL0     C83171   5.571   2.709   3.609 -0.9680 -1.2732  0.2305
  617MOL0     C83172   5.507   2.584   3.535  0.3665 -0.9260  0.5899
  617MOL0     C83173   5.351   2.559   3.535 -0.9076  0.6067 -1.2761
  617MOL0     C83174   5.309   2.429   3.482  0.5513  0.2376 -0.3595
  617MOL0     C83175   5.154   2.413   3.476  1.0265 -0.7652 -0.2578
  617MOL0     C83176   5.131   2.269   3.428  0.3841  0.7158 -0.1446
  617MOL0     N83177   4.993   2.230   3.447  0.1979  0.0532  0.5843
  617MOL0     C83178   4.919   2.270   3.558 -1.4282  0.8690  0.0851
  617MOL0     C83179   4.795   2.263   3.514 -0.9828 -0.3846 -0.7363
  617MOL0     C83180   4.672   2.305   3.602  0.4902  0.4652 -0.1047
  617MOL0     C83181   4.623   2.446   3.551  1.1968  0.5554 -0.0423
  617MOL0     C83182   4.544   2.426   3.421 -0.0203  0.2363 -0.1663
  617MOL0     C83183   4.559   2.552   3.335  0.6990  0.2260  0.3190
  617MOL0     O83184   4.528   2.536   3.193  0.5038 -0.2855  0.3322
  617MOL0     C83185   4.639   2.496   3.119 -0.0588  0.6683  0.3926
  617MOL0     C83186   4.607   2.490   2.986  0.1893  0.0925 -0.2816
  617MOL0     C83187   4.689   2.446   2.879  0.1122  0.3780 -0.1845
  617MOL0     C83188   4.629   2.423   2.737 -0.1501  0.2028 -0.1034
  617MOL0     C83189   4.813   2.398   2.915 -0.3163  0.2396 -0.1364
  617MOL0     C83190   4.919   2.357   2.815 -0.5692 -0.9658  0.4842
  617MOL0     O83191   4.873   2.278   2.711  0.0710 -0.4325  0.1486
  617MOL0     C83192   4.959   2.258   2.606  0.3476  0.3121 -0.6034
  617MOL0     C83193   4.994   2.358   2.524 -1.0797 -1.0527 -0.3763
  617MOL0     C83194   5.041   2.319   2.393  0.2749 -0.3693 -0.6468
  617MOL0     C83195   5.080   2.190   2.362 -0.2455  0.1207  0.0142
  617MOL0     O83196   5.134   2.157   2.241  0.2429  0.3004 -0.4864
  617MOL0     C83197   5.175   2.256   2.155  0.3705  0.4335 -1.2361
  617MOL0     C83198   5.190   2.184   2.031 -0.0309  0.8114 -0.4707
  617MOL0     C83199   5.261   2.271   1.926 -1.3008 -0.9432  0.2243
  617MOL0     C83200   5.162   2.370   1.846 -0.6148  0.3174 -0.1252
  617MOL0     C83201   5.228   2.497   1.787 -0.4720  0.3397  0.0172
  617MOL0     C83202   5.341   2.457   1.688 -0.6667 -0.4175 -0.5565
  617MOL0     C83203   5.299   2.352   1.578 -0.2166 -0.4430 -0.2329
  617MOL0     C83204   5.378   2.363   1.448 -0.1697 -0.5635 -0.0690
  617MOL0    Cl83205   5.304   2.508   1.350  0.1758 -0.4049 -0.0066
  617MOL0     C83206   5.055   2.088   2.453 -0.0139  0.3085  0.2141
  617MOL0     C83207   4.991   2.118   2.576  0.6672  0.0026  0.3536
  617MOL0     O83208   5.028   2.404   2.837  0.7440 -0.0584 -0.4326
  617MOL0     C83209   4.847   2.392   3.058 -0.6706  0.4398 -0.3037
  617MOL0     C83210   4.760   2.445   3.161 -0.2380 -0.5724  0.4273
  617MOL0     N83211   4.791   2.201   3.391  0.5705  0.3542 -0.3212
  617MOL0     N83212   4.911   2.181   3.350  0.3840 -0.3683  0.8940
  617MOL0     C83213   6.003   2.744   3.861 -0.0045 -0.1331 -0.4252
  617MOL0     C83214   6.088   2.667   3.936  0.1890 -0.0251  0.7468
  617MOL0     C83215   6.229   2.376   4.268 -0.4398  0.2496 -0.6729
  617MOL0     C83216   6.353   2.440   4.282  0.1501  0.0510 -0.4264
  617MOL0     C83217   6.457   2.381   4.363  0.3831  0.2807 -1.3844
  617MOL0     C83218   6.438   2.265   4.441  0.7039  0.4414  0.6324
  617MOL0     O83219   6.548   2.231   4.521 -0.3761  0.0621 -0.4754
  617MOL0     C83220   6.564   2.093   4.546 -0.0011 -0.2604 -0.9362
  617MOL0     C83221   6.694   2.073   4.618  0.9014 -0.5470 -0.4667
  617MOL0     C83222   6.822   2.115   4.529  0.4182 -0.3078  0.9096
  617MOL0     C83223   6.898   1.996   4.479 -0.3835 -0.0212 -0.6555
  617MOL0     C83224   6.835   1.913   4.375  1.2224  0.0296  0.4432
  617MOL0     C83225   6.772   1.861   4.285  0.3782 -0.1320  0.1097
  617MOL0     C83226   6.314   2.209   4.429  1.2956  0.5919 -0.0067
  617MOL0     C83227   6.213   2.255   4.341 -0.5584  0.3005  1.1189
  617MOL0     H83228   5.874   2.594   4.186  2.7032  2.4954  2.5425
  617MOL0     H83229   5.729   2.740   4.069 -1.7849  0.9023 -4.2187
  617MOL0     H83230   5.718   2.917   3.654 -0.3103 -0.3821 -0.8544
  617MOL0     H83231   5.877   2.865   3.623  0.4269 -0.8656  0.1195
  617MOL0     H83232   5.762   2.642   3.532  0.8367  1.0470 -0.0685
  617MOL0     H83233   5.736   2.615   3.700 -2.3869  1.4370  1.2028
  617MOL0     H83234   5.531   2.711   3.710 -2.2254 -0.0624 -0.2532
  617MOL0     H83235   5.553   2.810   3.571  2.6802 -1.1710 -1.6712
  617MOL0     H83236   5.537   2.586   3.430  2.4345 -1.5575  1.1281
  617MOL0     H83237   5.552   2.495   3.581  1.0906 -0.1733  1.3731
  617MOL0     H83238   5.326   2.565   3.642 -2.7285 -1.5442 -1.4956
  617MOL0     H83239   5.288   2.634   3.486 -1.7145  2.6263  2.4660
  617MOL0     H83240   5.361   2.411   3.387  2.2447 -0.9742  0.7270
  617MOL0     H83241   5.347   2.360   3.558  2.3501  0.8660 -0.6353
  617MOL0     H83242   5.121   2.419   3.580  0.4293 -2.7865 -0.2867
  617MOL0     H83243   5.097   2.495   3.431 -1.3917 -2.2686 -0.1305
  617MOL0     H83244   5.179   2.191   3.487  2.0394  2.7206  1.2859
  617MOL0     H83245   5.148   2.266   3.320 -0.5502  0.6564 -0.3017
  617MOL0     H83246   4.954   2.304   3.655  0.0460 -0.5695  0.1013
  617MOL0     H83247   4.594   2.232   3.578 -2.3516  3.1507  0.1846
  617MOL0     H83248   4.697   2.301   3.709  0.9112  1.5701 -0.1387
  617MOL0     H83249   4.712   2.505   3.529 -0.0996  2.9916  0.8699
  617MOL0     H83250   4.566   2.504   3.624  2.2849 -0.5692  1.7870
  617MOL0     H83251   4.440   2.404   3.447  0.0432 -1.7618 -1.3157
  617MOL0     H83252   4.570   2.337   3.362  1.8873  2.2618 -2.6269
  617MOL0     H83253   4.664   2.584   3.335  0.7547  0.1146 -1.2796
  617MOL0     H83254   4.501   2.633   3.380  0.0766 -0.0848  0.0879
  617MOL0     H83255   4.511   2.531   2.955  0.6658  1.8427  0.4021
  617MOL0     H83256   4.710   2.441   2.666  1.2776  1.4146  1.7400
  617MOL0     H83257   4.600   2.320   2.715  1.2762 -0.7051  1.9710
  617MOL0     H83258   4.540   2.486   2.728  1.7720  3.3028  0.7477
  617MOL0     H83259   4.983   2.460   2.559 -0.8198  0.1063 -3.3736
  617MOL0     H83260   5.037   2.394   2.315 -1.3452  2.1920  1.6816
  617MOL0     H83261   5.117   2.348   2.141  3.7108  3.2967  1.7554
  617MOL0     H83262   5.267   2.296   2.200  1.1804 -1.2735 -1.2984
  617MOL0     H83263   5.241   2.090   2.055 -1.5467 -0.0986 -0.7042
  617MOL0     H83264   5.095   2.152   1.986  0.7170  1.1503 -2.3610
  617MOL0     H83265   5.303   2.198   1.856  0.0650 -1.0391  1.0958
  617MOL0     H83266   5.343   2.322   1.978  0.6073 -0.8499 -2.6644
  617MOL0     H83267   5.099   2.316   1.774 -1.2978 -1.1473  1.4963
  617MOL0     H83268   5.087   2.398   1.921  0.9593 -1.9657  2.4712
  617MOL0     H83269   5.272   2.560   1.864  1.1095 -0.5700 -0.0887
  617MOL0     H83270   5.147   2.550   1.736  0.0981  3.1649  1.8218
  617MOL0     H83271   5.362   2.549   1.633 -1.3997 -1.7293 -3.2022
  617MOL0     H83272   5.425   2.432   1.754 -1.5595  2.0601  1.6829
  617MOL0     H83273   5.193   2.374   1.568 -0.6283 -0.2759  3.1810
  617MOL0     H83274   5.317   2.247   1.603  2.8911 -0.2159 -1.0030
  617MOL0     H83275   5.356   2.278   1.383 -4.3716  0.3592 -0.1573
  617MOL0     H83276   5.486   2.376   1.457 -0.1733 -1.1654  0.9636
  617MOL0     H83277   5.088   1.990   2.421  0.3573  0.9019 -1.2756
  617MOL0     H83278   4.954   2.046   2.649 -1.4529  0.1760 -0.4749
  617MOL0     H83279   4.945   2.359   3.091 -0.2920  1.2998 -0.5358
  617MOL0     H83280   4.789   2.444   3.265 -0.1996  1.7616  0.4948
  617MOL0     H83281   6.037   2.780   3.765 -0.4662 -0.3174 -0.6605
  617MOL0     H83282   6.186   2.642   3.896  0.3085 -1.1442  1.6761
  617MOL0     H83283   6.374   2.517   4.208 -0.5247  2.4875  1.7710
  617MOL0     H83284   6.561   2.411   4.363  1.1366 -2.1280 -2.7377
  617MOL0     H83285   6.479   2.066   4.609  0.6764 -0.1390  0.0503
  617MOL0     H83286   6.569   2.030   4.457  1.7047 -0.8349 -0.4683
  617MOL0     H83287   6.696   1.966   4.641  3.3638 -0.3857  0.4609
  617MOL0     H83288   6.679   2.137   4.706 -0.1830  0.2475 -1.2160
  617MOL0     H83289   6.889   2.169   4.596 -0.2971  2.1542 -0.2134
  617MOL0     H83290   6.804   2.176   4.440  2.5419 -2.7559 -1.3776
  617MOL0     H83291   6.919   1.932   4.565  1.7791  2.7483  1.0727
  617MOL0     H83292   6.995   2.040   4.457 -1.2191  3.8661  2.2674
  617MOL0     H83293   6.710   1.803   4.219 -1.0844  2.5342 -1.0312
  617MOL0     H83294   6.296   2.122   4.492  1.3515  0.0445 -0.7405
  617MOL0     H83295   6.116   2.207   4.349 -0.1528 -0.8995 -0.6039
  618MOL0     O83296   9.643  10.623   1.084 -1.0312 -0.4390 -0.1251
  618MOL0     C83297   9.672  10.723   1.008 -0.5186 -0.3652 -0.2444
  618MOL0     O83298   9.664  10.851   1.052  0.0578  0.0253  0.0694
  618MOL0     C83299   9.590  10.883   1.156 -0.0372  0.5548  0.5465
  618MOL0     C83300   9.631  10.991   1.238 -0.0917  0.4247 -0.2238
  618MOL0     C83301   9.560  11.019   1.355  0.5007  0.4362  0.2855
  618MOL0     C83302   9.430  10.964   1.381  0.0507  0.5212  0.2521
  618MOL0     O83303   9.352  11.005   1.480  0.5550 -0.9138 -0.4729
  618MOL0     C83304   9.367  11.146   1.521  1.1846 -0.1465  0.3249
  618MOL0     C83305   9.223  11.203   1.526 -0.0815 -0.1365 -0.2348
  618MOL0     C83306   9.239  11.342   1.595 -0.5081 -0.1213 -0.0389
  618MOL0     C83307   9.261  11.341   1.744  0.7974  0.6645 -0.0854
  618MOL0     C83308   9.324  11.465   1.796  0.0604 -0.6640 -0.0229
  618MOL0     C83309   9.227  11.591   1.788  0.2769 -0.3667 -0.3076
  618MOL0     C83310   9.306  11.717   1.806  0.4982 -0.7093  0.2029
  618MOL0     C83311   9.383  11.741   1.931 -0.3272  0.5302 -0.5142
  618MOL0     N83312   9.287  11.754   2.046 -0.0834 -0.7617 -0.4135
  618MOL0     C83313   9.254  11.649   2.129  0.2712 -0.5206 -0.2659
  618MOL0     C83314   9.191  11.706   2.232  0.6081  0.6600 -0.4933
  618MOL0     C83315   9.135  11.627   2.351  0.2098 -0.5036  0.9370
  618MOL0     C83316   9.062  11.497   2.302  0.6852 -0.0608  0.3870
  618MOL0     C83317   8.921  11.529   2.246  0.6396 -0.1576  0.0204
  618MOL0     C83318   8.863  11.417   2.171 -0.0228  0.4580  0.2012
  618MOL0     O83319   8.956  11.384   2.067 -1.1342 -0.6324  0.3088
  618MOL0     C83320   8.907  11.353   1.950 -1.0999  0.1639 -0.0227
  618MOL0     C83321   8.844  11.232   1.927  0.7377 -0.0664 -0.1688
  618MOL0     C83322   8.780  11.204   1.803 -0.1596  0.2963 -0.6663
  618MOL0     C83323   8.695  11.080   1.789 -0.1701  0.6100  0.3279
  618MOL0     C83324   8.784  11.300   1.697 -0.0656  0.7726 -0.0568
  618MOL0     C83325   8.735  11.283   1.553 -0.2210  0.8478 -0.5758
  618MOL0     O83326   8.761  11.375   1.463 -0.8081  0.1536  0.1762
  618MOL0     C83327   8.688  11.378   1.349  0.5771  0.0903 -0.3220
  618MOL0     C83328   8.558  11.436   1.331 -0.5185  0.9626 -0.5634
  618MOL0     C83329   8.509  11.460   1.206 -0.5157 -0.0867  0.1568
  618MOL0     C83330   8.577  11.402   1.093 -0.0190 -0.2920 -0.0147
  618MOL0     O83331   8.520  11.390   0.964  0.1551  0.6241  0.3006
  618MOL0     C83332   8.376  11.415   0.963 -0.7963  0.5320  1.3464
  618MOL0     C83333   8.320  11.428   0.824  0.8735 -0.5090 -0.5521
  618MOL0     C83334   8.328  11.295   0.749  0.5337  0.5628 -0.0519
  618MOL0     C83335   8.217  11.200   0.807 -0.3645  0.7374  0.4293
  618MOL0     C83336   8.236  11.060   0.742 -0.6848 -0.5039 -0.1891
  618MOL0     C83337   8.189  10.947   0.835  1.1951  0.7044 -0.8168
  618MOL0     C83338   8.227  10.812   0.782 -1.1461  0.8166 -0.4802
  618MOL0     C83339   8.377  10.790   0.780 -0.2487 -0.2160  0.0859
  618MOL0    Cl83340   8.385  10.620   0.732 -0.0610 -0.2637  0.4449
  618MOL0     C83341   8.706  11.344   1.105 -0.4211 -1.0067  0.1695
  618MOL0     C83342   8.759  11.335   1.238 -0.9407 -0.3245 -0.2215
  618MOL0     O83343   8.642  11.200   1.547  0.4790 -0.0514 -0.0150
  618MOL0     C83344   8.834  11.422   1.725  0.1155 -0.6773 -0.2765
  618MOL0     C83345   8.889  11.455   1.850 -0.6447  0.1438 -0.1289
  618MOL0     N83346   9.205  11.841   2.230  0.7904 -0.2646 -0.7718
  618MOL0     N83347   9.255  11.869   2.116 -0.9240 -0.3890  0.0050
  618MOL0     C83348   9.382  10.868   1.289 -0.8709 -0.5509 -0.4588
  618MOL0     C83349   9.464  10.825   1.180 -0.2729  0.0644 -0.3137
  618MOL0     C83350   9.751  10.693   0.881  0.0693  0.3054  0.3454
  618MOL0     C83351   9.795  10.790   0.793 -0.1018 -0.5518  0.8129
  618MOL0     C83352   9.835  10.768   0.663  1.5196  0.2722 -0.1766
  618MOL0     C83353   9.870  10.640   0.623 -0.4277 -0.5864  0.8148
  618MOL0     O83354   9.933  10.630   0.499 -0.9641  0.0993  0.6867
  618MOL0     C83355  10.010  10.514   0.462  0.3183 -0.7806 -0.2796
  618MOL0     C83356   9.922  10.420   0.371 -0.4664  0.3728  0.8318
  618MOL0     C83357   9.996  10.293   0.328  0.4411  0.8501  0.3651
  618MOL0     C83358  10.125  10.299   0.235  1.1564  1.2097  0.9429
  618MOL0     C83359  10.085  10.360   0.103  0.5556  1.4426 -0.5371
  618MOL0     C83360  10.041  10.419   0.003  0.6202  0.2678  1.1117
  618MOL0     C83361   9.830  10.537   0.709 -0.5521 -0.0844 -1.1433
  618MOL0     C83362   9.772  10.565   0.836 -0.1960  0.8022 -0.1735
  618MOL0     H83363   9.714  11.054   1.209 -0.6795  0.8362 -1.0788
  618MOL0     H83364   9.599  11.105   1.410 -0.4840  1.1691 -0.1344
  618MOL0     H83365   9.415  11.138   1.619 -1.5681 -4.3013  1.6002
  618MOL0     H83366   9.421  11.204   1.446  1.7024  2.0661  2.2816
  618MOL0     H83367   9.186  11.221   1.425 -0.3620 -0.1982 -0.1436
  618MOL0     H83368   9.156  11.134   1.578  1.1088 -1.4193 -0.3277
  618MOL0     H83369   9.310  11.403   1.540  0.9609 -1.5760  0.1595
  618MOL0     H83370   9.151  11.403   1.570  0.3467  1.0621 -0.2367
  618MOL0     H83371   9.163  11.335   1.791  0.8327  0.8445  0.0114
  618MOL0     H83372   9.318  11.251   1.770 -0.2679 -1.3561 -3.9033
  618MOL0     H83373   9.353  11.453   1.901  3.0300 -1.2397 -0.7991
  618MOL0     H83374   9.417  11.500   1.751 -2.4070  4.4497 -1.9046
  618MOL0     H83375   9.176  11.589   1.691 -0.1727 -3.0030 -0.0944
  618MOL0     H83376   9.154  11.582   1.870 -0.3506 -1.6503 -0.9705
  618MOL0     H83377   9.371  11.736   1.721  0.0832 -0.0061  0.0305
  618MOL0     H83378   9.231  11.797   1.802  1.5758  0.3166  0.0457
  618MOL0     H83379   9.444  11.832   1.937 -2.0752  1.6739  2.9705
  618MOL0     H83380   9.447  11.657   1.958 -2.4930 -1.0229 -0.0233
  618MOL0     H83381   9.271  11.542   2.117  3.3140  0.1384 -3.4917
  618MOL0     H83382   9.215  11.603   2.421  0.8181  2.9848  1.6116
  618MOL0     H83383   9.071  11.686   2.417  1.0175 -0.7794  1.9881
  618MOL0     H83384   9.043  11.432   2.388  1.2116 -0.5982  0.1063
  618MOL0     H83385   9.115  11.443   2.223 -2.1903  0.9683 -2.4748
  618MOL0     H83386   8.935  11.619   2.186 -1.1764  2.5713  3.3580
  618MOL0     H83387   8.853  11.540   2.331 -0.8938 -3.8060 -0.5503
  618MOL0     H83388   8.761  11.422   2.132 -0.0485 -0.1282  0.1818
  618MOL0     H83389   8.865  11.333   2.241 -2.0953  1.0629  1.0519
  618MOL0     H83390   8.821  11.172   2.015  1.4846  4.1954  3.2532
  618MOL0     H83391   8.716  11.030   1.694  1.7191 -1.3452  1.6715
  618MOL0     H83392   8.725  11.003   1.860 -0.3208  2.4978  2.5498
  618MOL0     H83393   8.590  11.110   1.804  0.5918  2.3492  2.8544
  618MOL0     H83394   8.498  11.468   1.416 -2.0796  1.1601 -1.6905
  618MOL0     H83395   8.408  11.497   1.192  0.1928  1.8678 -0.1298
  618MOL0     H83396   8.320  11.328   0.999  0.7872 -0.8825  0.5518
  618MOL0     H83397   8.339  11.505   1.012 -2.7167 -0.4834  1.8652
  618MOL0     H83398   8.216  11.460   0.837  1.7540  2.1522  0.6827
  618MOL0     H83399   8.378  11.503   0.769 -0.7302  0.3071 -1.2278
  618MOL0     H83400   8.424  11.246   0.769  0.2288  0.6147  1.7097
  618MOL0     H83401   8.307  11.308   0.643  3.5317  0.2870 -0.7852
  618MOL0     H83402   8.226  11.192   0.916  3.1926  0.1645  0.2038
  618MOL0     H83403   8.114  11.235   0.791 -1.1486 -0.0140  3.2281
  618MOL0     H83404   8.342  11.042   0.721 -0.8473 -3.0233  0.7880
  618MOL0     H83405   8.178  11.054   0.649  2.5142 -0.1357 -2.3608
  618MOL0     H83406   8.230  10.961   0.935  2.6467  0.0894 -1.3065
  618MOL0     H83407   8.082  10.963   0.855  1.9199  0.9030  4.0868
  618MOL0     H83408   8.184  10.802   0.682 -0.0689 -0.2572 -0.8602
  618MOL0     H83409   8.180  10.730   0.835 -0.8073  0.5741 -0.5505
  618MOL0     H83410   8.412  10.803   0.883 -0.0958 -0.9140  0.1280
  618MOL0     H83411   8.416  10.861   0.707 -0.4218 -1.9948 -1.8530
  618MOL0     H83412   8.760  11.310   1.018 -1.7779 -0.9801 -0.7127
  618MOL0     H83413   8.858  11.290   1.247 -0.5216  0.8703  2.2896
  618MOL0     H83414   8.845  11.492   1.642 -0.7096 -1.5512 -1.1401
  618MOL0     H83415   8.923  11.556   1.868 -1.1629  0.2531  0.2631
  618MOL0     H83416   9.286  10.820   1.307  0.0654 -1.8920  1.2501
  618MOL0     H83417   9.439  10.745   1.111  1.7133 -1.2103  0.3616
  618MOL0     H83418   9.778  10.896   0.809 -2.7558 -0.2503 -2.7734
  618MOL0     H83419   9.850  10.859   0.607 -0.7366  2.0157  1.8482
  618MOL0     H83420  10.100  10.556   0.415 -0.5273  1.7284  0.2130
  618MOL0     H83421  10.055  10.449   0.538  1.9720 -0.0046 -0.5384
  618MOL0     H83422   9.881  10.474   0.285  1.4043 -1.7688 -1.5612
  618MOL0     H83423   9.840  10.384   0.433  0.0390 -2.0666  0.1786
  618MOL0     H83424   9.922  10.220   0.294 -0.3327  1.4347  0.7653
  618MOL0     H83425  10.030  10.259   0.426 -2.3618  1.2500  1.5645
  618MOL0     H83426  10.167  10.198   0.242 -0.1690  0.6619  1.3710
  618MOL0     H83427  10.192  10.367   0.286  2.1354  0.4087  0.7494
  618MOL0     H83428  10.015  10.471  -0.087 -1.6047 -1.7172  0.5213
  618MOL0     H83429   9.853  10.438   0.672  0.7289  0.0015 -0.6194
  618MOL0     H83430   9.740  10.480   0.895 -0.6675  1.7453  0.9658
  619MOL0     O83431   7.472   1.905   6.007  0.7880  0.3143  0.1352
  619MOL0     C83432   7.360   1.858   6.012 -0.0237 -0.3321 -0.6976
  619MOL0     O83433   7.245   1.934   6.015 -0.1147 -0.6501  0.8652
  619MOL0     C83434   7.237   2.060   5.965  0.5039 -0.5385  0.1877
  619MOL0     C83435   7.312   2.103   5.850  0.0425 -0.7298  0.0353
  619MOL0     C83436   7.276   2.225   5.791  0.1442  0.1130 -1.0212
  619MOL0     C83437   7.172   2.302   5.841 -0.0371  0.7200  0.4089
  619MOL0     O83438   7.136   2.413   5.781 -0.3887  0.7388  0.5048
  619MOL0     C83439   7.168   2.530   5.852 -0.0037  0.6136 -1.1021
  619MOL0     C83440   7.047   2.597   5.929  0.0652 -0.5042  0.9362
  619MOL0     C83441   6.955   2.681   5.838 -0.6024  0.5420 -0.6565
  619MOL0     C83442   6.873   2.778   5.917  1.0869 -0.5429 -0.8046
  619MOL0     C83443   6.956   2.908   5.935  0.0827  0.0666 -1.0952
  619MOL0     C83444   6.872   3.033   5.968  0.7010 -0.0697 -0.8807
  619MOL0     C83445   6.946   3.165   5.953  0.3940 -0.2249  1.2745
  619MOL0     C83446   6.854   3.283   6.008 -0.0671  0.3672 -0.9291
  619MOL0     N83447   6.899   3.420   5.963  0.2890 -0.6411 -1.2558
  619MOL0     C83448   6.994   3.484   6.030 -0.7960 -0.2281 -0.4823
  619MOL0     C83449   6.999   3.605   5.964 -1.0564 -0.3571  0.0785
  619MOL0     C83450   7.110   3.709   5.994 -0.6485 -0.1367  0.3332
  619MOL0     C83451   7.150   3.790   5.869 -0.9732  0.9599  1.4495
  619MOL0     C83452   7.241   3.711   5.768 -1.1069  0.3999  0.0956
  619MOL0     C83453   7.185   3.580   5.723  0.0618  0.4575  0.5143
  619MOL0     O83454   7.255   3.496   5.624  0.1999  0.0138 -0.8956
  619MOL0     C83455   7.271   3.555   5.500 -0.8877  0.4754 -0.0056
  619MOL0     C83456   7.164   3.616   5.423 -0.2867  1.0677  0.2959
  619MOL0     C83457   7.182   3.645   5.289  0.4580 -0.7352  0.3715
  619MOL0     C83458   7.086   3.740   5.229  0.3172 -0.1348  0.0795
  619MOL0     C83459   7.299   3.604   5.228 -0.4871 -0.6537 -0.2664
  619MOL0     C83460   7.329   3.622   5.088  0.0865 -0.3315 -1.0371
  619MOL0     O83461   7.219   3.645   5.010 -0.4720  0.2645 -0.1853
  619MOL0     C83462   7.253   3.692   4.887 -0.5448  0.3398  0.0142
  619MOL0     C83463   7.188   3.806   4.850 -1.1053  0.4581 -0.0998
  619MOL0     C83464   7.200   3.848   4.721 -0.6344  0.0253  0.0421
  619MOL0     C83465   7.263   3.773   4.621  0.8521 -0.1201  0.2242
  619MOL0     O83466   7.278   3.821   4.498  0.2837  0.6013  0.4265
  619MOL0     C83467   7.252   3.958   4.461  0.2438  0.2683 -0.2752
  619MOL0     C83468   7.305   3.996   4.310  0.4848  0.2132 -0.7277
  619MOL0     C83469   7.298   4.143   4.275 -0.1772 -0.0539 -0.4014
  619MOL0     C83470   7.411   4.226   4.343 -0.6974  1.8903  0.6433
  619MOL0     C83471   7.394   4.381   4.323  0.5446  0.5771  0.5760
  619MOL0     C83472   7.382   4.434   4.186 -0.9517  0.1605  0.2531
  619MOL0     C83473   7.407   4.576   4.172 -0.2229  0.7067 -0.2106
  619MOL0     C83474   7.416   4.619   4.033 -0.2929 -0.2280 -0.4910
  619MOL0    Cl83475   7.292   4.534   3.930 -0.0341 -0.1279 -0.0167
  619MOL0     C83476   7.310   3.659   4.657 -0.6124  1.0780 -0.4241
  619MOL0     C83477   7.306   3.607   4.784 -0.5090  0.0084  0.2026
  619MOL0     O83478   7.444   3.625   5.050 -0.1807 -0.0049  0.0620
  619MOL0     C83479   7.399   3.524   5.299 -0.2709 -0.8250  0.5526
  619MOL0     C83480   7.379   3.498   5.434 -0.1361  0.7818  0.2429
  619MOL0     N83481   6.874   3.629   5.895  0.5301  0.3569 -0.5704
  619MOL0     N83482   6.820   3.515   5.902  0.2088 -0.4641  0.3017
  619MOL0     C83483   7.098   2.258   5.946 -0.4700 -0.2857 -0.6765
  619MOL0     C83484   7.127   2.130   6.010  0.8694 -0.3385  0.2004
  619MOL0     C83485   7.349   1.719   5.978 -0.5557  0.9235  0.0748
  619MOL0     C83486   7.227   1.663   5.921  0.1214  0.1521 -0.5884
  619MOL0     C83487   7.212   1.528   5.890 -1.0106 -0.5702  0.6994
  619MOL0     C83488   7.319   1.443   5.919  0.1735  0.1210  0.0989
  619MOL0     O83489   7.325   1.305   5.901 -0.6099 -0.5216 -0.5428
  619MOL0     C83490   7.210   1.241   5.846  0.1257 -0.6802 -0.4637
  619MOL0     C83491   7.232   1.089   5.865  0.5432 -0.0659  0.5627
  619MOL0     C83492   7.348   1.045   5.774  0.2804 -1.6809 -0.0712
  619MOL0     C83493   7.354   0.900   5.756  0.0855 -0.4776  0.2835
  619MOL0     C83494   7.219   0.844   5.715 -1.5000 -0.3484  0.0456
  619MOL0     C83495   7.107   0.802   5.687  0.1231  1.0350  0.5058
  619MOL0     C83496   7.440   1.492   5.963  0.6559 -0.0699  0.2163
  619MOL0     C83497   7.459   1.629   6.001  0.7675  0.3288  0.6792
  619MOL0     H83498   7.385   2.038   5.803 -1.7643  0.3525 -4.9228
  619MOL0     H83499   7.329   2.271   5.709 -1.7047 -0.2681 -2.4878
  619MOL0     H83500   7.255   2.518   5.917 -0.0301  0.4949 -1.0883
  619MOL0     H83501   7.211   2.597   5.777 -0.7276  0.1759 -1.9253
  619MOL0     H83502   6.979   2.517   5.959 -0.6926 -0.4275 -0.5064
  619MOL0     H83503   7.074   2.664   6.011  4.3396 -0.6303 -0.1158
  619MOL0     H83504   7.007   2.746   5.767  0.7689  2.8734  2.2694
  619MOL0     H83505   6.893   2.611   5.781  1.8341 -4.6215  2.3943
  619MOL0     H83506   6.778   2.796   5.866 -2.1691 -0.8771  4.4123
  619MOL0     H83507   6.858   2.740   6.019  2.3798 -1.6296 -0.9971
  619MOL0     H83508   7.034   2.887   6.008 -1.4683  2.6183  1.4973
  619MOL0     H83509   7.004   2.923   5.838  1.3926  1.1202 -0.3132
  619MOL0     H83510   6.785   3.041   5.902 -1.1775  0.6101  1.5451
  619MOL0     H83511   6.839   3.013   6.070  0.7533 -0.4856 -0.9439
  619MOL0     H83512   7.052   3.168   5.980  1.3839 -0.7464 -2.1056
  619MOL0     H83513   6.950   3.196   5.848  1.4504  1.1912  1.6929
  619MOL0     H83514   6.843   3.279   6.117 -1.5345  2.5163 -0.9376
  619MOL0     H83515   6.754   3.262   5.970 -1.4568  0.6325  2.2816
  619MOL0     H83516   7.060   3.454   6.111 -1.9138 -0.0080  0.5517
  619MOL0     H83517   7.067   3.780   6.065 -2.0405 -0.6841  0.0711
  619MOL0     H83518   7.199   3.660   6.035  1.9538  2.3503 -1.8878
  619MOL0     H83519   7.200   3.885   5.891  1.9182  0.0356 -0.6101
  619MOL0     H83520   7.063   3.814   5.806  1.6023 -0.1465 -2.9947
  619MOL0     H83521   7.343   3.691   5.802 -0.3657  0.8212 -1.7794
  619MOL0     H83522   7.272   3.761   5.676  4.5183  1.0920  1.9331
  619MOL0     H83523   7.089   3.607   5.678 -0.4019 -0.5901  0.8307
  619MOL0     H83524   7.168   3.506   5.802 -1.1018 -0.2603 -0.3635
  619MOL0     H83525   7.068   3.637   5.469 -0.8564 -0.6702 -0.0406
  619MOL0     H83526   7.139   3.832   5.203 -2.5231  2.1149  1.6116
  619MOL0     H83527   7.031   3.707   5.141  0.5063 -0.5459  0.1119
  619MOL0     H83528   7.007   3.780   5.294 -0.1966  0.1830 -0.7207
  619MOL0     H83529   7.132   3.858   4.928 -0.7639  0.6263  0.0362
  619MOL0     H83530   7.149   3.944   4.715  1.3564  1.1158 -0.2763
  619MOL0     H83531   7.143   3.965   4.471  0.1218 -1.9050  0.4398
  619MOL0     H83532   7.289   4.032   4.531  1.8564 -0.7852  0.0374
  619MOL0     H83533   7.404   3.952   4.293 -1.0508 -3.7119 -0.4199
  619MOL0     H83534   7.238   3.935   4.249 -0.3141 -1.3738  1.6376
  619MOL0     H83535   7.201   4.187   4.300  0.5403  1.5682 -0.3428
  619MOL0     H83536   7.290   4.150   4.166 -2.4444  1.7138 -0.2039
  619MOL0     H83537   7.416   4.198   4.448  3.8923  2.2940  0.7409
  619MOL0     H83538   7.512   4.194   4.315 -1.7821 -0.8818 -0.4111
  619MOL0     H83539   7.483   4.432   4.360  0.8369 -0.3134  1.1419
  619MOL0     H83540   7.305   4.412   4.378  2.0289  1.8190  2.4118
  619MOL0     H83541   7.455   4.372   4.133  0.9268  1.5363  1.0979
  619MOL0     H83542   7.289   4.395   4.144 -0.5780  0.5437 -0.9601
  619MOL0     H83543   7.502   4.602   4.220  1.1057 -3.1665 -0.3906
  619MOL0     H83544   7.326   4.633   4.217 -2.5263 -1.4193 -1.4234
  619MOL0     H83545   7.519   4.597   4.001  1.1088  1.1738  2.6627
  619MOL0     H83546   7.398   4.727   4.035 -2.3640 -0.5504  0.0493
  619MOL0     H83547   7.358   3.599   4.580  0.5763  2.4747 -0.8162
  619MOL0     H83548   7.341   3.505   4.798  2.5970  0.9494  0.0793
  619MOL0     H83549   7.475   3.476   5.239 -2.8363 -2.6701 -1.4462
  619MOL0     H83550   7.448   3.432   5.485 -0.3966  0.0483 -0.3291
  619MOL0     H83551   7.031   2.319   6.005  0.7630 -0.0653  0.5687
  619MOL0     H83552   7.076   2.095   6.100  0.0568 -0.7841 -0.4200
  619MOL0     H83553   7.142   1.727   5.898 -0.8941 -1.5317 -1.7587
  619MOL0     H83554   7.128   1.489   5.833 -0.1822 -1.2420 -0.1008
  619MOL0     H83555   7.123   1.274   5.903  1.8923  0.1286  1.9442
  619MOL0     H83556   7.197   1.270   5.741 -1.4375  1.2244  0.1919
  619MOL0     H83557   7.134   1.053   5.834  0.2367  1.9265 -0.9999
  619MOL0     H83558   7.248   1.059   5.969  1.9657  2.3933  1.1331
  619MOL0     H83559   7.442   1.095   5.794 -1.3631  1.7109 -0.1796
  619MOL0     H83560   7.318   1.076   5.673  1.5646  0.9880  0.3083
  619MOL0     H83561   7.388   0.852   5.849  2.3358  3.7173  1.9111
  619MOL0     H83562   7.423   0.869   5.677 -1.0177  0.3185 -1.0084
  619MOL0     H83563   7.009   0.762   5.672  0.0228  1.5169 -0.2370
  619MOL0     H83564   7.522   1.423   5.976 -0.3592 -1.3992 -0.2113
  619MOL0     H83565   7.557   1.662   6.033  1.2785  0.8856 -1.3326
  620MOL0     O83566   5.220   1.205   5.049 -0.3019  0.1367 -0.3823
  620MOL0     C83567   5.318   1.269   5.080 -0.7966 -1.0006  0.2517
  620MOL0     O83568   5.429   1.286   4.997  0.7894 -0.8738 -0.3648
  620MOL0     C83569   5.460   1.198   4.900  0.0149 -0.2863  0.5221
  620MOL0     C83570   5.394   1.086   4.850  0.2557 -0.0706  0.4466
  620MOL0     C83571   5.445   1.015   4.742 -0.2272  0.3626  0.1950
  620MOL0     C83572   5.571   1.043   4.699 -0.3896 -0.1494 -0.2444
  620MOL0     O83573   5.634   0.958   4.612 -0.8434  0.6617  1.0870
  620MOL0     C83574   5.597   0.818   4.637 -0.4142 -0.5544  0.1251
  620MOL0     C83575   5.698   0.724   4.569 -0.4555  0.0819  1.2151
  620MOL0     C83576   5.644   0.582   4.556  0.3930 -0.6710 -0.0491
  620MOL0     C83577   5.755   0.507   4.478 -0.2523 -0.3775 -0.2984
  620MOL0     C83578   5.725   0.359   4.436 -0.5374 -0.1043  1.0961
  620MOL0     C83579   5.704   0.264   4.555 -0.6265 -0.2604  1.1608
  620MOL0     C83580   5.689   0.124   4.505  0.3985  0.2523 -0.3567
  620MOL0     C83581   5.664   0.011   4.614 -0.2802 -0.5679  0.6639
  620MOL0     N83582   5.776   0.015   4.706 -0.2790 -0.2277 -0.1139
  620MOL0     C83583   5.913   0.012   4.671  1.0382  0.0136 -0.0096
  620MOL0     C83584   5.977   0.034   4.787 -0.3105  0.3292  0.3230
  620MOL0     C83585   6.129   0.055   4.802  1.3648  0.5161 -0.2660
  620MOL0     C83586   6.163   0.085   4.945  0.1177  0.0158 -1.3344
  620MOL0     C83587   6.308   0.075   4.978  0.1000 -0.7946 -0.0125
  620MOL0     C83588   6.396  -0.014   4.897 -0.6823 -0.1345 -0.0132
  620MOL0     O83589   6.528   0.010   4.955  0.1288 -0.1894 -0.4771
  620MOL0     C83590   6.638  -0.056   4.898 -0.4769 -0.0673  0.2774
  620MOL0     C83591   6.643  -0.092   4.772 -0.5559  0.3284  0.1428
  620MOL0     C83592   6.756  -0.165   4.716  1.8187  0.2938  0.0138
  620MOL0     C83593   6.730  -0.201   4.574  0.0817 -0.2690  0.5373
  620MOL0     C83594   6.873  -0.175   4.792 -0.4705  0.4744 -1.1222
  620MOL0     C83595   6.998  -0.240   4.742  0.0188  1.2193  0.9334
  620MOL0     O83596   7.104  -0.258   4.833  0.3361 -0.1460  0.1834
  620MOL0     C83597   7.215  -0.331   4.796  0.7733 -0.2169 -0.3244
  620MOL0     C83598   7.199  -0.466   4.785  0.3351 -0.0121  0.2427
  620MOL0     C83599   7.309  -0.545   4.749  0.2912 -0.3227 -0.2770
  620MOL0     C83600   7.438  -0.496   4.732 -0.9058 -0.6266 -0.5561
  620MOL0     O83601   7.559  -0.560   4.709  0.1761  0.1654  0.4029
  620MOL0     C83602   7.556  -0.689   4.772 -0.8150 -1.2541  0.6308
  620MOL0     C83603   7.701  -0.739   4.785  0.1288  0.5349 -0.4080
  620MOL0     C83604   7.705  -0.883   4.843  0.2570  0.7292  0.2284
  620MOL0     C83605   7.653  -0.993   4.745 -0.0237  0.3023  0.1363
  620MOL0     C83606   7.706  -1.134   4.773 -0.4684 -0.4101  0.2140
  620MOL0     C83607   7.686  -1.221   4.652 -0.1319  0.1604  0.4778
  620MOL0     C83608   7.701  -1.376   4.685  0.9193  0.2086 -1.5767
  620MOL0     C83609   7.733  -1.454   4.561 -0.0014 -0.3251  0.4083
  620MOL0    Cl83610   7.617  -1.428   4.420  0.1207  0.2313 -0.4511
  620MOL0     C83611   7.456  -0.358   4.746  0.2284  0.9363  0.4420
  620MOL0     C83612   7.347  -0.278   4.765  1.0237 -1.1586  0.3924
  620MOL0     O83613   6.996  -0.284   4.627 -0.2343 -0.4825  0.9045
  620MOL0     C83614   6.869  -0.116   4.924  0.6146  0.3398  0.1127
  620MOL0     C83615   6.751  -0.063   4.979  0.5005 -1.2396  0.7759
  620MOL0     N83616   5.886   0.080   4.882  0.8328  0.5483  0.8285
  620MOL0     N83617   5.764   0.056   4.834 -0.2663  0.4913 -0.1904
  620MOL0     C83618   5.640   1.155   4.748  0.4014  0.1787  0.9021
  620MOL0     C83619   5.581   1.235   4.836  0.2607 -0.2795  0.4806
  620MOL0     C83620   5.325   1.357   5.202 -1.2075 -0.9493 -0.4521
  620MOL0     C83621   5.266   1.310   5.321  1.2410  0.1261  0.1933
  620MOL0     C83622   5.273   1.380   5.447  0.4747  0.1185  0.1824
  620MOL0     C83623   5.341   1.503   5.453 -0.1989 -0.6085  0.6527
  620MOL0     O83624   5.347   1.569   5.570 -0.0689 -0.0306 -0.2556
  620MOL0     C83625   5.255   1.680   5.587 -0.5952 -0.8124  0.4248
  620MOL0     C83626   5.265   1.742   5.727  0.5215  0.3082  0.3155
  620MOL0     C83627   5.393   1.820   5.758 -0.4118 -0.4151 -0.5166
  620MOL0     C83628   5.515   1.726   5.771 -0.3746 -0.0767  0.1020
  620MOL0     C83629   5.646   1.794   5.804 -0.2919  0.0923  0.0797
  620MOL0     C83630   5.744   1.862   5.825 -0.7615  0.4342 -0.4645
  620MOL0     C83631   5.401   1.557   5.334 -0.3771  1.2350 -0.0996
  620MOL0     C83632   5.395   1.477   5.220  0.3174  0.2318  0.3705
  620MOL0     H83633   5.292   1.065   4.882  0.9034 -1.0692  1.9105
  620MOL0     H83634   5.383   0.950   4.682  0.6840  0.4977 -0.9541
  620MOL0     H83635   5.582   0.794   4.743  1.7704  1.7025  1.0390
  620MOL0     H83636   5.498   0.795   4.595 -0.9523  0.3931  0.8274
  620MOL0     H83637   5.706   0.778   4.474 -0.7747  0.8078  1.5914
  620MOL0     H83638   5.791   0.737   4.625  0.0142  0.6291  0.3369
  620MOL0     H83639   5.633   0.548   4.659  0.5905  0.2993  0.3050
  620MOL0     H83640   5.548   0.574   4.504 -1.8149  0.0670  3.5302
  620MOL0     H83641   5.784   0.561   4.387  0.8253  1.1980  0.9088
  620MOL0     H83642   5.847   0.505   4.537 -0.6777  0.6657  0.4315
  620MOL0     H83643   5.628   0.352   4.387 -1.6027 -1.9233  3.3059
  620MOL0     H83644   5.799   0.314   4.370  1.7271  1.2379  2.5927
  620MOL0     H83645   5.789   0.265   4.624  1.5821 -2.0674 -1.3686
  620MOL0     H83646   5.610   0.291   4.606 -0.4747 -1.1180  1.9121
  620MOL0     H83647   5.604   0.125   4.437  0.7617 -3.3670 -1.0921
  620MOL0     H83648   5.774   0.089   4.445 -1.4658  0.0820 -3.0545
  620MOL0     H83649   5.658  -0.080   4.554 -3.2631  0.2945 -0.5412
  620MOL0     H83650   5.566   0.028   4.660 -0.3578  1.7295 -0.2008
  620MOL0     H83651   5.966  -0.017   4.581  1.8444 -3.3008  1.3950
  620MOL0     H83652   6.171  -0.037   4.761 -1.7610 -1.0028 -0.3180
  620MOL0     H83653   6.179   0.135   4.745 -0.6109 -0.2590 -3.2719
  620MOL0     H83654   6.123   0.008   5.013 -0.1080  0.6777 -0.7000
  620MOL0     H83655   6.113   0.175   4.983 -1.4411 -2.4478  3.2240
  620MOL0     H83656   6.317   0.055   5.085  3.2155 -0.6632 -0.1604
  620MOL0     H83657   6.349   0.174   4.954  1.4509 -0.8567  1.8406
  620MOL0     H83658   6.392   0.020   4.793  0.9058  3.7857  1.0011
  620MOL0     H83659   6.373  -0.120   4.906 -0.2983 -0.1842  0.4648
  620MOL0     H83660   6.564  -0.050   4.710  0.4615  1.4624 -0.4217
  620MOL0     H83661   6.626  -0.188   4.541  0.4359  0.0651 -0.4907
  620MOL0     H83662   6.785  -0.134   4.508 -2.3798  3.3870  1.8833
  620MOL0     H83663   6.755  -0.307   4.563 -0.2156 -0.1844 -1.5068
  620MOL0     H83664   7.098  -0.504   4.795 -0.0886  1.1951  0.7483
  620MOL0     H83665   7.292  -0.651   4.731 -1.7707 -0.0106 -0.4058
  620MOL0     H83666   7.504  -0.692   4.868 -0.9438  1.7960  0.7360
  620MOL0     H83667   7.509  -0.757   4.699  0.5903 -0.0809 -1.4728
  620MOL0     H83668   7.758  -0.725   4.692  1.2459 -1.5230 -0.0833
  620MOL0     H83669   7.739  -0.677   4.867 -1.6964  1.5200 -0.2484
  620MOL0     H83670   7.634  -0.880   4.927 -0.9191 -0.2687 -0.6861
  620MOL0     H83671   7.807  -0.906   4.876  0.4553  1.0368 -0.1641
  620MOL0     H83672   7.544  -1.001   4.750 -0.0214  0.5264  0.6397
  620MOL0     H83673   7.686  -0.953   4.649 -1.7601  2.6276  0.4107
  620MOL0     H83674   7.666  -1.183   4.862 -1.5054  0.2396  0.1235
  620MOL0     H83675   7.812  -1.128   4.800 -0.5506  0.6279  0.3795
  620MOL0     H83676   7.580  -1.221   4.627  0.1998  0.5244 -0.9961
  620MOL0     H83677   7.749  -1.190   4.568 -2.3565  2.4683 -0.4491
  620MOL0     H83678   7.609  -1.418   4.724  1.4693  2.1759  2.3003
  620MOL0     H83679   7.770  -1.406   4.764 -1.9725 -3.9931 -0.3353
  620MOL0     H83680   7.741  -1.560   4.585  0.8630 -0.4350 -0.3181
  620MOL0     H83681   7.830  -1.422   4.522 -0.3862 -0.9651 -1.1340
  620MOL0     H83682   7.559  -0.323   4.748 -0.3549  2.7571  1.9634
  620MOL0     H83683   7.364  -0.171   4.755 -1.3385 -0.8261 -0.9604
  620MOL0     H83684   6.954  -0.128   4.989 -2.3940 -3.1603  3.8954
  620MOL0     H83685   6.738  -0.027   5.081 -1.2264 -1.1544  0.5556
  620MOL0     H83686   5.740   1.182   4.713 -0.2779  1.9989  0.2128
  620MOL0     H83687   5.639   1.312   4.886 -1.6416 -0.5399  3.3358
  620MOL0     H83688   5.216   1.214   5.307 -0.5889  0.8888  1.1470
  620MOL0     H83689   5.230   1.335   5.536  1.7880  0.3804  0.9926
  620MOL0     H83690   5.269   1.757   5.510 -3.8363 -0.5301 -0.0359
  620MOL0     H83691   5.156   1.633   5.578 -0.8315 -0.2151 -0.2745
  620MOL0     H83692   5.250   1.659   5.796 -1.1266  1.8383  1.9045
  620MOL0     H83693   5.174   1.801   5.744 -1.5181 -2.4841 -0.1876
  620MOL0     H83694   5.378   1.864   5.857  0.8346  0.4183 -0.6743
  620MOL0     H83695   5.407   1.890   5.675  0.7670  1.4385  1.1469
  620MOL0     H83696   5.540   1.696   5.668  0.7198  2.1007 -0.3482
  620MOL0     H83697   5.501   1.645   5.843 -1.2286 -0.0010  0.0303
  620MOL0     H83698   5.827   1.929   5.837 -0.5430  0.2354 -0.8524
  620MOL0     H83699   5.452   1.652   5.341 -2.2197  2.4511 -2.1383
  620MOL0     H83700   5.434   1.515   5.126 -1.0684 -0.6725 -0.5948
  621MOL0     O83701   9.140  10.058   7.275  0.1633 -0.1293  0.4826
  621MOL0     C83702   9.263  10.043   7.280  0.6530 -0.2324  0.2016
  621MOL0     O83703   9.344  10.101   7.369 -0.4887 -0.0448  0.3253
  621MOL0     C83704   9.294  10.205   7.449  0.5446  1.0148 -0.6679
  621MOL0     C83705   9.243  10.160   7.570 -0.9019  0.2735 -0.0109
  621MOL0     C83706   9.197  10.259   7.661 -0.5660  0.2832 -0.2016
  621MOL0     C83707   9.200  10.388   7.631  0.5679 -1.2108 -0.2061
  621MOL0     O83708   9.143  10.479   7.724  0.3563 -0.5358  0.5205
  621MOL0     C83709   9.171  10.616   7.701 -0.3982  0.0771 -0.3324
  621MOL0     C83710   9.119  10.693   7.815 -0.2995  0.3633 -0.4496
  621MOL0     C83711   8.971  10.692   7.838  0.3067 -0.4704 -0.2982
  621MOL0     C83712   8.929  10.783   7.958  0.2747 -0.9270  0.0627
  621MOL0     C83713   8.782  10.739   8.008  0.2774  0.7415  1.0368
  621MOL0     C83714   8.755  10.787   8.156  0.7837  0.2683  0.4483
  621MOL0     C83715   8.747  10.939   8.148 -0.3837  0.3564 -0.0644
  621MOL0     C83716   8.667  11.010   8.258  0.1233 -0.2580 -0.1159
  621MOL0     N83717   8.652  11.152   8.236 -0.2780  0.0988  0.5054
  621MOL0     C83718   8.733  11.251   8.282 -0.8879 -1.0497 -0.4325
  621MOL0     C83719   8.657  11.370   8.257 -0.5569 -0.1887  0.0825
  621MOL0     C83720   8.708  11.515   8.263  0.2064  0.4514 -0.4852
  621MOL0     C83721   8.828  11.540   8.173 -0.0311 -0.9608 -1.4392
  621MOL0     C83722   8.783  11.557   8.026  0.4107 -0.3939  0.4910
  621MOL0     C83723   8.898  11.544   7.930  0.4271  0.1933  0.6538
  621MOL0     O83724   8.988  11.648   7.926 -0.2945 -0.1736  0.1882
  621MOL0     C83725   9.101  11.641   7.852  0.4802 -0.9021 -0.7099
  621MOL0     C83726   9.203  11.734   7.871 -0.1009 -0.5008 -0.2497
  621MOL0     C83727   9.317  11.740   7.795  0.3010 -0.1885  0.6403
  621MOL0     C83728   9.410  11.850   7.833 -0.4157  0.6308  0.6532
  621MOL0     C83729   9.333  11.641   7.698  0.0379  0.8168  0.2664
  621MOL0     C83730   9.452  11.618   7.610  0.4582 -0.1950  0.5943
  621MOL0     O83731   9.494  11.499   7.564  0.0732  1.1250  0.1149
  621MOL0     C83732   9.610  11.490   7.488  0.3211  0.3190 -0.8120
  621MOL0     C83733   9.600  11.506   7.353  0.8929  0.2123  0.7519
  621MOL0     C83734   9.711  11.498   7.269  0.3202  0.2012  0.1617
  621MOL0     C83735   9.841  11.479   7.320 -0.2016  0.2097  1.0016
  621MOL0     O83736   9.951  11.479   7.239 -0.6466 -0.1985 -0.2045
  621MOL0     C83737   9.939  11.451   7.097 -0.5473 -0.5199  0.8048
  621MOL0     C83738   9.915  11.588   7.031  0.3111  0.6879 -0.1028
  621MOL0     C83739  10.055  11.649   6.991  0.7366 -0.7555  0.5632
  621MOL0     C83740  10.029  11.776   6.912 -0.3261  0.2970  0.2817
  621MOL0     C83741   9.990  11.894   6.996  0.9077 -0.0975  0.2117
  621MOL0     C83742   9.974  12.030   6.917 -0.0742  0.0660 -0.3576
  621MOL0     C83743  10.102  12.081   6.852  0.3389 -0.6104 -0.3780
  621MOL0     C83744  10.200  12.155   6.951 -0.0402  0.2397  0.9062
  621MOL0    Cl83745  10.352  12.168   6.848  0.0585 -0.3826  0.2423
  621MOL0     C83746   9.850  11.457   7.457 -0.1911  0.6036  1.3284
  621MOL0     C83747   9.737  11.465   7.544  0.5762  0.1147  1.1417
  621MOL0     O83748   9.511  11.723   7.583 -0.9065 -0.3929  0.1958
  621MOL0     C83749   9.230  11.538   7.680 -0.1949 -0.5090  0.2235
  621MOL0     C83750   9.114  11.538   7.762  0.2439 -0.3661  0.4925
  621MOL0     N83751   8.523  11.340   8.213  0.4168 -0.0084 -0.8305
  621MOL0     N83752   8.529  11.211   8.207 -0.3255  0.5425 -0.0704
  621MOL0     C83753   9.248  10.426   7.507  0.0594  0.0850 -0.6778
  621MOL0     C83754   9.304  10.340   7.414  0.8211  0.8866  0.2898
  621MOL0     C83755   9.317   9.942   7.181  1.5007  0.0112 -0.9880
  621MOL0     C83756   9.457   9.951   7.154  0.2008 -1.1873 -0.0916
  621MOL0     C83757   9.521   9.866   7.065  0.0290  0.2618  0.1898
  621MOL0     C83758   9.436   9.776   6.989  0.2163 -0.0685 -0.0014
  621MOL0     O83759   9.500   9.693   6.906 -0.7073 -0.0472  0.2733
  621MOL0     C83760   9.430   9.570   6.889 -0.3618  0.7622  0.8731
  621MOL0     C83761   9.426   9.480   7.013 -0.5337 -0.6440  0.8567
  621MOL0     C83762   9.565   9.463   7.080  0.3752  0.9761 -0.0777
  621MOL0     C83763   9.587   9.365   7.208 -0.2417 -0.2446  0.2174
  621MOL0     C83764   9.525   9.235   7.182 -0.6441 -1.0532 -0.1148
  621MOL0     C83765   9.473   9.133   7.147  0.2867 -0.5695 -0.0756
  621MOL0     C83766   9.293   9.776   7.016  1.5126 -0.3688 -0.4053
  621MOL0     C83767   9.237   9.858   7.115  1.1327  0.9959 -0.3942
  621MOL0     H83768   9.231  10.053   7.589  1.0739 -0.1973 -1.1080
  621MOL0     H83769   9.156  10.206   7.746  2.4118 -2.9048 -0.5006
  621MOL0     H83770   9.278  10.637   7.704 -0.3651  0.6931 -3.2442
  621MOL0     H83771   9.124  10.652   7.609  0.6336  1.7834 -0.2473
  621MOL0     H83772   9.168  10.671   7.910 -0.9903 -0.3479 -0.2479
  621MOL0     H83773   9.146  10.798   7.797  0.9670  0.0673 -0.4106
  621MOL0     H83774   8.926  10.727   7.745 -2.0661  1.4148  1.4495
  621MOL0     H83775   8.926  10.595   7.861 -1.5101  0.5942  0.8998
  621MOL0     H83776   9.009  10.775   8.033  1.3136  0.9472 -0.7784
  621MOL0     H83777   8.928  10.888   7.928  1.9524 -1.0454 -0.5217
  621MOL0     H83778   8.701  10.773   7.942 -1.5373 -2.2603  1.5613
  621MOL0     H83779   8.769  10.631   8.007  1.6881  0.5154 -1.4855
  621MOL0     H83780   8.664  10.746   8.201 -0.0459  1.7337  0.1681
  621MOL0     H83781   8.836  10.747   8.219  0.8432 -0.3392 -0.0077
  621MOL0     H83782   8.847  10.983   8.142 -0.4412  0.4555 -0.3247
  621MOL0     H83783   8.704  10.971   8.053  1.5319  4.3374  0.2162
  621MOL0     H83784   8.714  10.991   8.355 -1.4389  1.2553  1.0122
  621MOL0     H83785   8.568  10.964   8.269  0.2116 -0.7007 -1.1100
  621MOL0     H83786   8.831  11.242   8.328 -1.0583 -1.2069 -0.0957
  621MOL0     H83787   8.629  11.590   8.253 -0.9182 -0.6989 -0.5663
  621MOL0     H83788   8.734  11.513   8.370 -0.7188  1.3574 -0.2212
  621MOL0     H83789   8.908  11.468   8.188 -2.1133 -2.8018  2.1720
  621MOL0     H83790   8.868  11.637   8.204  2.1688 -1.9160 -1.1163
  621MOL0     H83791   8.745  11.658   8.010  0.3812 -0.4450  0.2373
  621MOL0     H83792   8.710  11.477   8.008  2.5938 -2.6456  1.0828
  621MOL0     H83793   8.859  11.527   7.829  0.5288  0.9941  0.4735
  621MOL0     H83794   8.957  11.455   7.953 -0.4214 -0.5680 -0.0692
  621MOL0     H83795   9.188  11.798   7.958  2.6417 -0.2814  0.1487
  621MOL0     H83796   9.421  11.926   7.756 -2.5878 -0.4523 -0.8236
  621MOL0     H83797   9.377  11.886   7.931 -2.0722 -4.8912  2.5395
  621MOL0     H83798   9.511  11.816   7.860 -0.5166  0.2590  0.5666
  621MOL0     H83799   9.508  11.509   7.295  1.6145 -2.9428 -0.8127
  621MOL0     H83800   9.705  11.503   7.161 -1.3580  2.3158  0.2835
  621MOL0     H83801  10.032  11.417   7.049 -1.4118 -2.2926  0.2891
  621MOL0     H83802   9.854  11.386   7.076 -0.7798 -0.2074  0.7695
  621MOL0     H83803   9.854  11.574   6.941  0.1233 -1.2114  0.2683
  621MOL0     H83804   9.864  11.656   7.099 -1.9237  0.2957 -1.3128
  621MOL0     H83805  10.111  11.577   6.929 -1.4681 -3.0196  1.0132
  621MOL0     H83806  10.112  11.655   7.083 -0.6655  0.8312  1.3834
  621MOL0     H83807  10.107  11.788   6.836  0.5008 -0.0552  1.0529
  621MOL0     H83808   9.939  11.770   6.851 -0.7521  1.4105  0.7608
  621MOL0     H83809  10.065  11.918   7.072 -0.1950 -1.4735  1.8046
  621MOL0     H83810   9.897  11.870   7.048  0.5709 -4.9217 -2.0660
  621MOL0     H83811   9.891  12.016   6.847 -1.5126 -0.6229  1.4117
  621MOL0     H83812   9.935  12.114   6.975 -1.8380  0.1469 -1.5685
  621MOL0     H83813  10.078  12.156   6.776 -2.2741 -0.2661  0.6833
  621MOL0     H83814  10.154  12.000   6.802  0.8997 -0.6426  0.2467
  621MOL0     H83815  10.208  12.081   7.031 -1.2897  0.8866  1.6569
  621MOL0     H83816  10.164  12.248   6.994 -0.4565 -0.2766  1.6879
  621MOL0     H83817   9.946  11.429   7.499  0.6322  0.9439 -0.2444
  621MOL0     H83818   9.760  11.453   7.649  1.1065  2.3125  1.3330
  621MOL0     H83819   9.253  11.445   7.629  0.0154 -0.6217  0.5213
  621MOL0     H83820   9.048  11.458   7.731  0.1521  0.9995 -3.3455
  621MOL0     H83821   9.245  10.532   7.481 -2.3523  0.1020 -0.5044
  621MOL0     H83822   9.354  10.371   7.323  1.8884  4.8106  1.9800
  621MOL0     H83823   9.527  10.024   7.196 -2.3691  2.2455 -1.3361
  621MOL0     H83824   9.629   9.880   7.063  0.6288 -3.4610 -1.6132
  621MOL0     H83825   9.324   9.579   6.863 -0.5812  1.1258  1.8697
  621MOL0     H83826   9.476   9.503   6.815  1.3116  0.1669  2.3647
  621MOL0     H83827   9.382   9.380   7.010  1.8098 -1.7349 -0.7409
  621MOL0     H83828   9.347   9.528   7.071 -1.2719  0.2796 -0.8400
  621MOL0     H83829   9.574   9.569   7.109 -0.8001  1.7719 -2.3968
  621MOL0     H83830   9.638   9.435   7.004  0.6350  1.6748 -0.0934
  621MOL0     H83831   9.547   9.422   7.293  0.6646  1.5674 -0.5072
  621MOL0     H83832   9.694   9.350   7.226  0.1232 -2.3636 -3.0572
  621MOL0     H83833   9.433   9.040   7.113  0.1643 -0.0774 -1.3583
  621MOL0     H83834   9.230   9.718   6.950 -0.5393 -2.7140  3.3030
  621MOL0     H83835   9.131   9.858   7.135  1.0481 -0.1471 -0.7422
  622MOL0     O83836   3.866  11.448   5.211  0.1518  0.1466 -0.3011
  622MOL0     C83837   3.905  11.340   5.183 -0.2176 -0.3265 -0.0010
  622MOL0     O83838   3.906  11.282   5.060  0.2976 -0.4578 -0.1856
  622MOL0     C83839   3.861  11.366   4.957 -0.9661 -0.1390  0.5017
  622MOL0     C83840   3.948  11.445   4.877  0.0662 -0.1303  0.3741
  622MOL0     C83841   3.903  11.523   4.774 -1.1472  1.4104  1.0537
  622MOL0     C83842   3.770  11.539   4.745  0.3810  0.3958 -0.0383
  622MOL0     O83843   3.745  11.625   4.649  0.0702 -0.6217 -0.1596
  622MOL0     C83844   3.613  11.640   4.597 -0.4491  0.6369 -0.4322
  622MOL0     C83845   3.531  11.744   4.673  0.5557  0.3735  0.7286
  622MOL0     C83846   3.571  11.886   4.631 -0.7539  0.6901  0.0054
  622MOL0     C83847   3.523  11.909   4.491  0.2348  0.1886  0.5989
  622MOL0     C83848   3.510  12.059   4.468 -0.0545 -0.2376  0.5198
  622MOL0     C83849   3.469  12.090   4.325  0.2011 -1.1622  0.2037
  622MOL0     C83850   3.576  12.071   4.219 -0.4292  0.4705 -0.2705
  622MOL0     C83851   3.548  12.136   4.084 -0.2478 -0.5264 -0.3102
  622MOL0     N83852   3.439  12.068   4.006  0.3994 -1.1804  0.9216
  622MOL0     C83853   3.466  11.964   3.924  0.3777  0.4682 -0.3668
  622MOL0     C83854   3.349  11.936   3.861  0.4157  0.6232 -0.3026
  622MOL0     C83855   3.339  11.825   3.758  1.0883  0.5154 -0.4030
  622MOL0     C83856   3.216  11.860   3.654  0.4268 -0.3537 -0.4977
  622MOL0     C83857   3.216  11.780   3.521 -0.2266  0.4357 -0.2560
  622MOL0     C83858   3.070  11.787   3.468 -0.3051 -1.1042  0.0522
  622MOL0     O83859   3.026  11.925   3.451  0.0137  0.7098  0.2060
  622MOL0     C83860   2.910  11.940   3.379 -0.2958 -0.6998  0.4261
  622MOL0     C83861   2.879  12.073   3.338 -0.3998 -0.2581  0.6236
  622MOL0     C83862   2.754  12.104   3.275 -0.8944 -0.5456  0.3105
  622MOL0     C83863   2.719  12.248   3.252  1.0113  1.0447  0.0786
  622MOL0     C83864   2.666  11.997   3.239  0.6412  0.1663  0.4281
  622MOL0     C83865   2.546  12.011   3.161 -0.0939 -0.1510 -0.4994
  622MOL0     O83866   2.455  12.106   3.195 -0.3170  0.0403 -0.2406
  622MOL0     C83867   2.342  12.123   3.122 -0.7861 -0.5731  0.2523
  622MOL0     C83868   2.347  12.149   2.980  0.4294  0.2109 -0.2405
  622MOL0     C83869   2.231  12.132   2.902 -0.6821 -0.2118  0.1576
  622MOL0     C83870   2.110  12.091   2.953 -0.2779  0.4312  0.6233
  622MOL0     O83871   2.001  12.071   2.876  0.5246  0.0687  0.7926
  622MOL0     C83872   1.913  11.964   2.905 -0.0260  0.3139  0.1646
  622MOL0     C83873   1.811  11.967   2.797 -0.2027 -0.1001  0.3014
  622MOL0     C83874   1.889  11.953   2.662  0.6752 -0.1367 -0.1289
  622MOL0     C83875   1.905  11.808   2.614  0.0760 -0.0839 -0.0341
  622MOL0     C83876   1.992  11.787   2.491  0.0557 -0.8802  0.4225
  622MOL0     C83877   1.925  11.835   2.366 -0.3217 -0.4154  0.3783
  622MOL0     C83878   1.995  11.791   2.235 -0.6755  0.0426 -1.2374
  622MOL0     C83879   1.936  11.841   2.102  0.0391 -0.2334 -0.3145
  622MOL0    Cl83880   1.769  11.763   2.121  0.5307  0.0100 -0.0585
  622MOL0     C83881   2.098  12.070   3.094 -0.1684 -0.0380  0.8435
  622MOL0     C83882   2.217  12.080   3.175  0.1518  0.6668  1.0487
  622MOL0     O83883   2.527  11.924   3.075 -0.0397  0.6778 -0.5121
  622MOL0     C83884   2.709  11.867   3.267 -0.6564 -0.6021  0.4608
  622MOL0     C83885   2.834  11.837   3.331  0.3520 -0.9793  0.3232
  622MOL0     N83886   3.252  12.025   3.901  0.2362 -0.4285 -0.8448
  622MOL0     N83887   3.301  12.101   3.997  0.1457 -0.1709 -0.5506
  622MOL0     C83888   3.680  11.466   4.823 -0.6505 -0.3230  0.4559
  622MOL0     C83889   3.728  11.384   4.923 -0.3852  0.0211  0.1928
  622MOL0     C83890   3.966  11.255   5.296 -0.2697 -0.7962 -0.8431
  622MOL0     C83891   4.016  11.125   5.264  0.7151  0.6280 -0.0714
  622MOL0     C83892   4.083  11.043   5.365  0.4589  0.6293  0.0083
  622MOL0     C83893   4.072  11.090   5.501 -1.5703 -0.8071  1.1621
  622MOL0     O83894   4.147  11.037   5.603  0.5223  0.0729  0.4863
  622MOL0     C83895   4.131  10.896   5.626  0.0118 -0.2921  0.4837
  622MOL0     C83896   4.085  10.870   5.769  0.3520  0.3738 -0.3950
  622MOL0     C83897   3.934  10.860   5.788 -0.4673  0.4357  0.8000
  622MOL0     C83898   3.886  10.733   5.836  0.3452 -0.1651  0.7268
  622MOL0     C83899   3.906  10.710   5.974 -0.1200 -0.4788 -0.8820
  622MOL0     C83900   3.939  10.699   6.094  0.4425 -0.2694  0.6284
  622MOL0     C83901   4.023  11.214   5.525 -0.2370 -0.6130 -0.4449
  622MOL0     C83902   3.963  11.299   5.426 -0.0260  0.4906 -0.5484
  622MOL0     H83903   4.050  11.438   4.914  0.3815  0.2891 -0.3824
  622MOL0     H83904   3.973  11.575   4.710  0.8173 -1.3787  0.7450
  622MOL0     H83905   3.634  11.668   4.494  0.9981 -0.5112 -0.4858
  622MOL0     H83906   3.562  11.543   4.593  0.8815 -0.2064  1.4204
  622MOL0     H83907   3.423  11.730   4.657 -0.4271  3.6908  3.3124
  622MOL0     H83908   3.555  11.720   4.777  1.1428 -1.8082  0.1509
  622MOL0     H83909   3.528  11.962   4.697  0.2633  2.0382 -0.8053
  622MOL0     H83910   3.680  11.883   4.643 -0.6849 -1.6451 -0.6974
  622MOL0     H83911   3.605  11.871   4.430  2.2437  0.7836  2.7853
  622MOL0     H83912   3.424  11.863   4.483 -0.8406  2.6061 -1.8289
  622MOL0     H83913   3.465  12.118   4.548  1.2478 -0.1491  1.2168
  622MOL0     H83914   3.606  12.110   4.483 -1.3599  3.5808 -2.2989
  622MOL0     H83915   3.383  12.035   4.288  1.1197 -1.6106 -1.3607
  622MOL0     H83916   3.448  12.197   4.334 -0.2900 -1.3732  1.8644
  622MOL0     H83917   3.664  12.116   4.265 -0.7345 -1.1085  2.0345
  622MOL0     H83918   3.600  11.965   4.204 -0.5035  0.2478  1.0456
  622MOL0     H83919   3.644  12.143   4.031  0.6694  1.7897  1.4309
  622MOL0     H83920   3.519  12.236   4.118  0.3078 -0.3376 -0.3738
  622MOL0     H83921   3.567  11.928   3.905  0.4322 -0.1145  0.9436
  622MOL0     H83922   3.435  11.817   3.705  0.2124  3.9199 -2.8273
  622MOL0     H83923   3.316  11.726   3.799 -1.9905  0.1220 -2.7437
  622MOL0     H83924   3.220  11.965   3.624 -4.3236  0.6381  1.4895
  622MOL0     H83925   3.118  11.862   3.703 -0.1416 -0.0909 -1.6107
  622MOL0     H83926   3.246  11.677   3.541 -0.8448  0.3231  0.1165
  622MOL0     H83927   3.276  11.841   3.453 -3.0318  1.5269 -1.9264
  622MOL0     H83928   3.002  11.742   3.542  0.4284  2.9864  3.5521
  622MOL0     H83929   3.079  11.735   3.372  1.5560 -0.1110 -0.3550
  622MOL0     H83930   2.942  12.157   3.367 -0.2447 -0.9565  2.4109
  622MOL0     H83931   2.655  12.248   3.164  1.5254 -0.6454 -0.3239
  622MOL0     H83932   2.674  12.300   3.338  1.2608  1.0711  0.1946
  622MOL0     H83933   2.818  12.285   3.223  2.1365 -0.8787  1.2283
  622MOL0     H83934   2.435  12.187   2.930  0.1694  1.2512  0.0702
  622MOL0     H83935   2.222  12.148   2.795  1.8190 -2.6285 -0.5265
  622MOL0     H83936   1.958  11.865   2.914 -1.1607 -0.1275  1.4346
  622MOL0     H83937   1.860  11.994   2.996  1.1473 -0.5326  1.1665
  622MOL0     H83938   1.739  11.887   2.816 -0.2486 -0.2395 -0.4171
  622MOL0     H83939   1.771  12.070   2.796 -0.7108 -0.2732  1.5411
  622MOL0     H83940   1.985  12.003   2.652 -0.2780  1.9591  0.5225
  622MOL0     H83941   1.829  12.008   2.589  1.0463  0.0064 -0.3261
  622MOL0     H83942   1.955  11.751   2.693 -0.6632 -2.1486 -0.9841
  622MOL0     H83943   1.807  11.761   2.607 -0.3197  0.9199 -2.0596
  622MOL0     H83944   2.016  11.681   2.479 -1.5381 -1.0562 -1.6794
  622MOL0     H83945   2.086  11.842   2.500 -0.7911  0.9259 -1.1195
  622MOL0     H83946   1.824  11.792   2.362 -0.0287 -1.0962  0.1323
  622MOL0     H83947   1.911  11.943   2.367 -0.0971 -0.3894  0.9677
  622MOL0     H83948   1.986  11.682   2.231 -4.4724  0.1098  0.2398
  622MOL0     H83949   2.097  11.830   2.234 -1.1999  1.5495 -0.0478
  622MOL0     H83950   1.976  11.808   2.006  1.0606  0.0279  0.0108
  622MOL0     H83951   1.927  11.949   2.089 -2.1708 -0.1473  1.3432
  622MOL0     H83952   1.996  12.055   3.127 -1.6286  0.8294 -2.7948
  622MOL0     H83953   2.207  12.042   3.276 -0.9150 -1.4579  0.1949
  622MOL0     H83954   2.648  11.789   3.223  0.6552 -1.1920 -0.3889
  622MOL0     H83955   2.861  11.732   3.341 -2.4176 -2.1255 -2.5352
  622MOL0     H83956   3.573  11.479   4.807 -0.1755  3.1426 -0.9318
  622MOL0     H83957   3.663  11.313   4.973  2.0546 -1.7765  1.0432
  622MOL0     H83958   4.003  11.097   5.160 -0.7966  1.3693 -0.1064
  622MOL0     H83959   4.107  10.940   5.340 -0.3740 -0.3217  2.8475
  622MOL0     H83960   4.067  10.848   5.551 -2.4723  1.4271  1.3925
  622MOL0     H83961   4.238  10.874   5.618 -0.0732 -1.5872  2.2359
  622MOL0     H83962   4.120  10.956   5.826  2.3238  0.0850 -1.1183
  622MOL0     H83963   4.134  10.787   5.822  1.0921 -0.5067 -2.3778
  622MOL0     H83964   3.879  10.889   5.698 -0.3497 -3.1798 -0.6080
  622MOL0     H83965   3.888  10.934   5.854  0.0311 -0.0907  1.7549
  622MOL0     H83966   3.921  10.652   5.771 -1.0089 -0.1023 -0.1294
  622MOL0     H83967   3.781  10.755   5.811  0.5366  1.5164  1.2835
  622MOL0     H83968   3.977  10.688   6.193  1.3016 -0.8643  0.2384
  622MOL0     H83969   4.028  11.254   5.626 -6.0353 -1.0611  0.3917
  622MOL0     H83970   3.926  11.396   5.457  1.4690  1.0866 -0.5358
  623MOL0     O83971   3.618   6.799  10.532  0.1535  0.4995  0.0827
  623MOL0     C83972   3.703   6.767  10.617 -0.5083  0.7547  0.2058
  623MOL0     O83973   3.783   6.857  10.689 -0.2479 -0.1111 -0.5901
  623MOL0     C83974   3.773   6.983  10.641  0.5742 -0.4633  0.7890
  623MOL0     C83975   3.722   7.088  10.712 -0.8136  0.3491 -0.1866
  623MOL0     C83976   3.742   7.224  10.675  0.6332 -0.0251  0.1558
  623MOL0     C83977   3.791   7.248  10.547 -0.9277  1.2517  0.9475
  623MOL0     O83978   3.830   7.371  10.501  0.4141  0.4654 -0.4690
  623MOL0     C83979   3.925   7.432  10.586  0.9366  0.1088 -0.4099
  623MOL0     C83980   3.959   7.571  10.544 -0.0165  0.7617  0.6941
  623MOL0     C83981   4.031   7.650  10.648 -0.1039  0.5332 -0.5325
  623MOL0     C83982   4.148   7.740  10.592  0.6058  0.2848  0.4699
  623MOL0     C83983   4.221   7.814  10.696  0.2788 -0.2376 -0.6273
  623MOL0     C83984   4.314   7.922  10.638  0.4051  0.0105  0.2955
  623MOL0     C83985   4.254   8.021  10.538 -1.1890 -0.3100  1.0358
  623MOL0     C83986   4.331   8.149  10.499 -0.8923  0.4654  0.9679
  623MOL0     N83987   4.343   8.239  10.614 -0.1498  0.0593 -0.7455
  623MOL0     C83988   4.453   8.301  10.670 -0.3337 -0.6558 -0.2001
  623MOL0     C83989   4.415   8.363  10.785  0.3409 -0.1060 -0.0839
  623MOL0     C83990   4.505   8.429  10.887 -1.1910  0.7110  0.4051
  623MOL0     C83991   4.628   8.514  10.832  0.2484  0.0799 -0.4057
  623MOL0     C83992   4.585   8.623  10.729 -0.6275 -0.1998  0.6295
  623MOL0     C83993   4.676   8.746  10.746  1.0554 -1.1106 -0.7721
  623MOL0     O83994   4.644   8.853  10.658 -0.3498  1.0819 -0.9675
  623MOL0     C83995   4.714   8.973  10.692 -0.0324 -0.3648 -0.8103
  623MOL0     C83996   4.849   9.002  10.658 -0.0070  0.2071 -0.7100
  623MOL0     C83997   4.899   9.128  10.680 -0.8084  0.4267 -0.1126
  623MOL0     C83998   5.042   9.157  10.618  0.2651  0.4587 -0.3428
  623MOL0     C83999   4.821   9.235  10.741 -0.0350 -0.2395  0.3732
  623MOL0     C84000   4.867   9.377  10.775  0.2375 -0.3452  0.6314
  623MOL0     O84001   4.787   9.440  10.864 -0.3737  0.5347 -0.5836
  623MOL0     C84002   4.840   9.545  10.919 -0.7024  0.1374 -0.1620
  623MOL0     C84003   4.871   9.543  11.054 -0.7464  0.6077  0.2195
  623MOL0     C84004   4.916   9.653  11.113  0.5904 -0.3085  0.1116
  623MOL0     C84005   4.942   9.767  11.043 -0.6855 -0.4582  0.4568
  623MOL0     O84006   4.987   9.862  11.128  0.2734 -0.7910 -1.0185
  623MOL0     C84007   4.988   9.995  11.086  0.0743  0.0358 -0.1843
  623MOL0     C84008   5.048  10.091  11.194  0.7779  0.2409 -0.4051
  623MOL0     C84009   4.992  10.069  11.338 -0.4916  0.0409 -0.8366
  623MOL0     C84010   5.069  10.152  11.446 -0.0433 -0.2104  0.3895
  623MOL0     C84011   5.048  10.088  11.588  0.4278 -0.2290  0.2027
  623MOL0     C84012   5.056  10.186  11.703  0.4609  0.1650  0.8155
  623MOL0     C84013   5.196  10.239  11.716  0.1690 -0.4050 -1.7898
  623MOL0     C84014   5.284  10.137  11.777 -0.4852 -0.0922 -0.0061
  623MOL0    Cl84015   5.238  10.094  11.937 -0.3921 -0.6352  0.0462
  623MOL0     C84016   4.906   9.780  10.902  0.4570 -0.1480 -0.7014
  623MOL0     C84017   4.853   9.659  10.844 -1.4099 -0.2581 -1.0193
  623MOL0     O84018   4.959   9.437  10.716  0.3408  0.8266 -0.0854
  623MOL0     C84019   4.683   9.200  10.770 -0.3560  0.5774 -0.0601
  623MOL0     C84020   4.630   9.070  10.749  1.5196  0.2582  0.5369
  623MOL0     N84021   4.281   8.350  10.791 -0.1936  0.3320  0.3153
  623MOL0     N84022   4.233   8.282  10.690 -0.2727  0.2046 -0.1990
  623MOL0     C84023   3.818   7.139  10.458  1.2815 -0.8318  0.4778
  623MOL0     C84024   3.814   7.014  10.509 -0.0946  0.4234 -0.8858
  623MOL0     C84025   3.717   6.623  10.652  0.6306 -0.0012 -0.5665
  623MOL0     C84026   3.829   6.571  10.729  1.1333  0.3213 -0.1961
  623MOL0     C84027   3.846   6.430  10.745  0.3015  0.9697  0.4392
  623MOL0     C84028   3.746   6.336  10.694 -0.0107 -0.9061  0.4357
  623MOL0     O84029   3.748   6.207  10.698  0.4056  0.5615 -0.1130
  623MOL0     C84030   3.832   6.137  10.792 -0.0949 -0.1936 -0.6713
  623MOL0     C84031   3.748   6.062  10.879  0.9848  0.0024  0.3310
  623MOL0     C84032   3.659   6.160  10.971  0.0388  0.6012 -0.1831
  623MOL0     C84033   3.594   6.081  11.083 -0.4313  0.1865  0.7626
  623MOL0     C84034   3.509   6.157  11.170 -0.2974 -0.1837  0.0591
  623MOL0     C84035   3.443   6.226  11.247  0.7061  0.2913 -0.9829
  623MOL0     C84036   3.632   6.396  10.635  1.1348 -0.0924  0.3085
  623MOL0     C84037   3.619   6.533  10.604 -0.3610 -0.0452  0.3090
  623MOL0     H84038   3.678   7.068  10.809 -2.2186  3.2264 -0.1374
  623MOL0     H84039   3.720   7.305  10.744  0.5045  1.0061 -1.0555
  623MOL0     H84040   3.886   7.435  10.688 -1.5210 -0.2090 -1.2795
  623MOL0     H84041   4.019   7.376  10.578  1.7001  1.5360 -1.9091
  623MOL0     H84042   4.023   7.563  10.455  2.5186 -0.9329  2.5463
  623MOL0     H84043   3.865   7.622  10.522  0.5103  0.9429 -1.3846
  623MOL0     H84044   3.962   7.712  10.705 -0.0464 -1.1383  1.4385
  623MOL0     H84045   4.085   7.582  10.714  0.4839  0.1481 -1.3811
  623MOL0     H84046   4.218   7.685  10.528  1.5246 -1.2080  2.6330
  623MOL0     H84047   4.099   7.811  10.524  2.3966 -0.6739 -1.9467
  623MOL0     H84048   4.143   7.857  10.758  0.6592 -0.2007 -0.1641
  623MOL0     H84049   4.284   7.747  10.756 -1.8630 -2.8663 -1.1332
  623MOL0     H84050   4.358   7.982  10.719  2.6328  0.5199 -1.2029
  623MOL0     H84051   4.405   7.877  10.598  1.0680 -1.5011  3.1842
  623MOL0     H84052   4.241   7.957  10.450  0.4955  0.4481  0.1836
  623MOL0     H84053   4.156   8.058  10.569 -0.9995 -0.4380  1.7862
  623MOL0     H84054   4.271   8.200  10.423 -1.2916 -0.0327  0.9407
  623MOL0     H84055   4.433   8.126  10.469 -1.4777 -0.8103 -0.1547
  623MOL0     H84056   4.555   8.312  10.635  0.1603 -3.2732  0.2076
  623MOL0     H84057   4.439   8.481  10.957 -0.6935 -1.7203  2.8065
  623MOL0     H84058   4.554   8.355  10.950  0.2776  0.1255 -1.3293
  623MOL0     H84059   4.703   8.450  10.784 -1.7036 -1.2163 -1.9137
  623MOL0     H84060   4.675   8.555  10.921  0.4431 -0.2717 -0.3435
  623MOL0     H84061   4.477   8.637  10.738 -1.5813 -5.1122 -0.2603
  623MOL0     H84062   4.608   8.578  10.632  0.2326  0.9138  0.2829
  623MOL0     H84063   4.779   8.718  10.723  1.9032  1.1399 -0.0021
  623MOL0     H84064   4.659   8.786  10.846  0.7488 -0.6566 -0.9993
  623MOL0     H84065   4.906   8.920  10.616 -0.9997 -0.8232 -0.1084
  623MOL0     H84066   5.035   9.228  10.536 -1.3821 -0.2872 -0.8997
  623MOL0     H84067   5.114   9.199  10.689  0.8346 -0.1269 -0.5606
  623MOL0     H84068   5.091   9.064  10.587 -1.1572 -0.0430 -1.1497
  623MOL0     H84069   4.860   9.463  11.126  5.4044 -0.1840  0.8076
  623MOL0     H84070   4.951   9.637  11.215  1.3057  0.2319 -0.0388
  623MOL0     H84071   5.052  10.012  10.999 -1.2248  0.1833 -1.1423
  623MOL0     H84072   4.888  10.029  11.056  0.3145  0.9146 -0.0125
  623MOL0     H84073   5.157  10.099  11.200  0.6260  1.4048  3.0108
  623MOL0     H84074   5.011  10.190  11.164  0.9539  0.1639 -0.8815
  623MOL0     H84075   5.003   9.965  11.368 -0.6071  0.0733 -0.6843
  623MOL0     H84076   4.884  10.088  11.338 -0.9951 -2.4397 -1.2430
  623MOL0     H84077   5.176  10.150  11.421 -0.2374  2.2558 -0.9290
  623MOL0     H84078   5.028  10.253  11.443  0.3059 -0.0447  1.0910
  623MOL0     H84079   5.120  10.008  11.609 -1.3998 -1.0391  4.5648
  623MOL0     H84080   4.948  10.043  11.592 -0.5642  1.7709 -0.9139
  623MOL0     H84081   4.984  10.268  11.695  3.0421  2.6743  1.3157
  623MOL0     H84082   5.025  10.133  11.793 -1.2778 -1.8103 -0.8471
  623MOL0     H84083   5.194  10.328  11.780  1.1877 -0.3845 -1.7648
  623MOL0     H84084   5.221  10.261  11.612  0.3909 -1.4968 -1.9812
  623MOL0     H84085   5.385  10.180  11.777 -0.5214  0.1269  2.5464
  623MOL0     H84086   5.297  10.039  11.731  1.1295 -0.8063  1.8193
  623MOL0     H84087   4.935   9.863  10.839  3.2135  0.8467  1.6622
  623MOL0     H84088   4.833   9.666  10.737 -0.4636  1.7411 -1.1218
  623MOL0     H84089   4.607   9.268  10.806 -2.6353 -0.2963 -2.7965
  623MOL0     H84090   4.524   9.052  10.758  1.1887  0.8398 -1.4945
  623MOL0     H84091   3.870   7.155  10.364  0.4321  2.1426  0.4135
  623MOL0     H84092   3.856   6.935  10.448 -1.8146 -1.1564 -0.1505
  623MOL0     H84093   3.912   6.634  10.760 -1.9447  4.7557 -0.0882
  623MOL0     H84094   3.939   6.386  10.780  0.3196 -0.8437 -1.6329
  623MOL0     H84095   3.893   6.066  10.736  1.5382 -1.4327  2.4420
  623MOL0     H84096   3.906   6.186  10.854 -0.4995  0.4664 -0.6978
  623MOL0     H84097   3.795   5.988  10.945 -1.2946 -1.9665 -0.1224
  623MOL0     H84098   3.687   5.994  10.819  2.1732 -0.4145 -0.4458
  623MOL0     H84099   3.573   6.197  10.915  0.5794  1.3020 -0.5795
  623MOL0     H84100   3.706   6.252  11.007 -1.8709  1.8650 -0.7601
  623MOL0     H84101   3.683   6.047  11.137  0.6279 -1.3659 -1.7820
  623MOL0     H84102   3.534   5.995  11.050 -2.2048  0.6367  2.6164
  623MOL0     H84103   3.370   6.271  11.311  0.0358 -2.5714  0.4321
  623MOL0     H84104   3.555   6.335  10.590  3.2679 -1.5563 -1.5866
  623MOL0     H84105   3.532   6.561  10.545  2.1242 -0.7877 -4.1645
  624MOL0     O84106   5.740   1.292   8.483 -0.2748 -0.1965 -0.5444
  624MOL0     C84107   5.737   1.193   8.411  0.3762 -1.0427 -0.7259
  624MOL0     O84108   5.762   1.065   8.451 -0.1133 -0.2590 -0.3094
  624MOL0     C84109   5.844   1.038   8.554  0.2138  1.1581  0.2312
  624MOL0     C84110   5.954   1.113   8.592 -0.5771  0.3373 -0.6533
  624MOL0     C84111   6.036   1.081   8.704  0.1085  0.7096  0.7743
  624MOL0     C84112   6.014   0.972   8.781 -0.0243 -0.0280  0.1700
  624MOL0     O84113   6.083   0.927   8.896 -0.2496 -0.5484  0.4819
  624MOL0     C84114   6.146   1.028   8.981 -1.0144 -0.2046  0.1691
  624MOL0     C84115   6.040   1.113   9.060  0.1967 -0.7850  0.8053
  624MOL0     C84116   5.905   1.038   9.088 -0.5001  0.5270  0.6473
  624MOL0     C84117   5.831   1.104   9.203  0.2610 -0.1050  0.2664
  624MOL0     C84118   5.707   1.025   9.248 -0.5774  0.5360 -0.3806
  624MOL0     C84119   5.665   1.089   9.383  0.8638 -0.1734  0.4506
  624MOL0     C84120   5.529   1.039   9.439  1.1975 -0.3878  0.1230
  624MOL0     C84121   5.494   1.092   9.582 -0.3430  0.5268  0.9859
  624MOL0     N84122   5.374   1.029   9.640 -0.8299 -0.0622  0.0111
  624MOL0     C84123   5.254   1.006   9.590 -0.0862 -0.6956 -0.1201
  624MOL0     C84124   5.177   0.968   9.692  0.0035  0.5185 -0.4685
  624MOL0     C84125   5.036   0.931   9.692 -0.0565 -0.5651  0.0842
  624MOL0     C84126   4.961   1.029   9.780 -0.1514  0.0474 -0.5826
  624MOL0     C84127   4.814   0.983   9.804 -0.5234 -0.1422 -0.2363
  624MOL0     C84128   4.743   1.064   9.913  0.0892  0.5331 -0.4113
  624MOL0     O84129   4.694   0.987  10.026 -0.6015 -0.2953 -0.2775
  624MOL0     C84130   4.594   0.899  10.008  0.5378 -0.0587  0.3806
  624MOL0     C84131   4.568   0.818  10.114 -0.7015 -0.2756 -0.3370
  624MOL0     C84132   4.479   0.710  10.116  0.4304  0.0277  0.0589
  624MOL0     C84133   4.449   0.656  10.247  0.4685 -0.1776 -0.4366
  624MOL0     C84134   4.398   0.689  10.002  0.5913  0.5901  0.0983
  624MOL0     C84135   4.282   0.596   9.985  0.3101  0.1460 -0.2852
  624MOL0     O84136   4.226   0.544  10.094 -0.3172 -0.0094  0.4419
  624MOL0     C84137   4.113   0.469  10.075 -0.4794  0.0984 -0.2807
  624MOL0     C84138   3.991   0.530  10.105 -0.2130 -0.7297  0.0145
  624MOL0     C84139   3.869   0.459  10.098 -1.2869  0.2357 -0.3609
  624MOL0     C84140   3.880   0.324  10.047  1.0447  0.0110  0.2153
  624MOL0     O84141   3.776   0.241  10.027 -0.0291  0.0632 -0.1152
  624MOL0     C84142   3.668   0.247  10.116  0.1778 -0.2268  0.4743
  624MOL0     C84143   3.578   0.123  10.090  0.2093 -0.6389 -0.3936
  624MOL0     C84144   3.466   0.131  10.202  0.4388  0.5757 -0.0623
  624MOL0     C84145   3.327   0.085  10.158 -0.0143 -0.2073  0.5309
  624MOL0     C84146   3.222   0.132  10.259  0.2008 -1.2646  0.1996
  624MOL0     C84147   3.229   0.047  10.392  0.2490  0.3531 -0.2177
  624MOL0     C84148   3.098   0.033  10.470  0.2403  0.2280  0.0299
  624MOL0     C84149   3.032   0.161  10.517  0.0084  0.3246 -0.3136
  624MOL0    Cl84150   2.957   0.144  10.668  0.1179 -0.2445  0.2243
  624MOL0     C84151   4.000   0.261  10.019  0.1578  1.0665 -0.4852
  624MOL0     C84152   4.118   0.333  10.046 -0.7632  0.5192  0.2653
  624MOL0     O84153   4.253   0.558   9.873 -0.0386 -0.1074  0.1260
  624MOL0     C84154   4.418   0.777   9.896  0.2735 -0.0504 -0.6006
  624MOL0     C84155   4.517   0.878   9.894 -0.4652 -0.4049 -0.7690
  624MOL0     N84156   5.254   0.963   9.807 -0.7623 -1.0754  0.0170
  624MOL0     N84157   5.369   1.005   9.777  0.4254  0.3162  0.9045
  624MOL0     C84158   5.904   0.898   8.761 -0.2107  0.5731  0.7283
  624MOL0     C84159   5.825   0.922   8.639  0.2925 -0.3494 -0.3193
  624MOL0     C84160   5.703   1.227   8.268  0.4822 -0.0856 -0.8580
  624MOL0     C84161   5.669   1.126   8.180  0.6835 -0.1223  0.0965
  624MOL0     C84162   5.632   1.152   8.048  1.1161 -0.1621  0.6471
  624MOL0     C84163   5.638   1.283   7.998  0.1869 -0.1293  0.5160
  624MOL0     O84164   5.604   1.309   7.865  0.4240  0.8285 -0.5928
  624MOL0     C84165   5.688   1.256   7.762 -0.5863  1.4432  0.1707
  624MOL0     C84166   5.840   1.296   7.782 -0.3611 -1.0765 -0.3459
  624MOL0     C84167   5.844   1.444   7.739  0.3172  0.1549  0.7951
  624MOL0     C84168   5.980   1.504   7.709 -0.0056  0.7349 -0.5776
  624MOL0     C84169   5.966   1.630   7.629 -0.2438 -0.1208  0.5267
  624MOL0     C84170   5.937   1.727   7.564 -0.1632 -0.2359  0.6639
  624MOL0     C84171   5.674   1.390   8.072 -0.6758 -0.5805 -0.1493
  624MOL0     C84172   5.701   1.363   8.214 -0.4536 -0.0579 -0.3497
  624MOL0     H84173   5.981   1.201   8.534 -2.0429  0.7817 -0.7031
  624MOL0     H84174   6.137   1.118   8.721  0.1150  0.2133  1.9592
  624MOL0     H84175   6.215   0.971   9.044 -1.2120 -0.7111 -0.0722
  624MOL0     H84176   6.202   1.093   8.913 -2.1196 -0.0029 -0.5803
  624MOL0     H84177   6.086   1.151   9.152  0.4304  3.6187 -0.8460
  624MOL0     H84178   6.008   1.204   9.008  0.8433 -0.1274  1.5364
  624MOL0     H84179   5.838   1.026   9.003  0.7615  1.5098 -0.5435
  624MOL0     H84180   5.924   0.936   9.121 -4.3616 -0.5115  0.1450
  624MOL0     H84181   5.891   1.103   9.295  0.6134  2.2624  0.1154
  624MOL0     H84182   5.800   1.207   9.182 -0.4572 -0.4510 -0.4290
  624MOL0     H84183   5.629   1.040   9.173 -0.4344  1.5477 -0.3389
  624MOL0     H84184   5.733   0.919   9.253 -1.4738  0.3096 -0.4649
  624MOL0     H84185   5.734   1.069   9.466  0.4819 -2.9648  0.1955
  624MOL0     H84186   5.651   1.195   9.363  2.7033 -0.3718 -2.5445
  624MOL0     H84187   5.450   1.063   9.368  0.6157  2.3426  1.5310
  624MOL0     H84188   5.532   0.929   9.442  2.0970 -0.3718  2.6834
  624MOL0     H84189   5.489   1.201   9.576  0.5457  0.4877 -1.7035
  624MOL0     H84190   5.569   1.050   9.650 -0.5916 -0.0137  0.9333
  624MOL0     H84191   5.220   1.024   9.488 -4.3143  0.2021  1.2570
  624MOL0     H84192   5.010   0.944   9.587  3.8251 -0.1859 -0.9865
  624MOL0     H84193   5.014   0.838   9.746 -2.1169  0.5888  1.3863
  624MOL0     H84194   4.952   1.130   9.740 -1.5148 -0.4604 -1.6678
  624MOL0     H84195   5.020   1.031   9.872  0.7968  3.7022 -1.1449
  624MOL0     H84196   4.829   0.883   9.846  1.1961  0.5932  1.0370
  624MOL0     H84197   4.758   0.979   9.710 -1.2744  1.7086  0.0914
  624MOL0     H84198   4.668   1.130   9.869 -0.6564  0.9571  1.4085
  624MOL0     H84199   4.820   1.132   9.951 -0.3335  0.8855 -0.1721
  624MOL0     H84200   4.607   0.845  10.212 -1.2293  1.3743 -0.5462
  624MOL0     H84201   4.531   0.671  10.318  1.6922  0.6778 -1.9768
  624MOL0     H84202   4.351   0.693  10.278 -0.4081 -2.4998 -0.1967
  624MOL0     H84203   4.446   0.547  10.240  1.0285 -0.1271 -1.7041
  624MOL0     H84204   4.003   0.632  10.139  0.0084 -0.8105  0.1744
  624MOL0     H84205   3.773   0.505  10.118 -3.0249 -3.2436  0.0052
  624MOL0     H84206   3.708   0.263  10.216  1.9740  1.4734 -0.4361
  624MOL0     H84207   3.615   0.338  10.087 -0.7771 -0.9812 -0.2270
  624MOL0     H84208   3.536   0.129   9.990  0.2558 -0.2805 -0.3931
  624MOL0     H84209   3.638   0.032  10.106  0.7484  0.1340  2.6791
  624MOL0     H84210   3.458   0.236  10.233  2.0735  0.6529  0.1601
  624MOL0     H84211   3.496   0.074  10.291 -2.8092  0.4467  1.0899
  624MOL0     H84212   3.300   0.116  10.056 -2.1375 -0.1755  1.0529
  624MOL0     H84213   3.333  -0.024  10.157  3.0636 -0.2778 -3.9673
  624MOL0     H84214   3.124   0.104  10.217 -0.6875  0.6568  0.8292
  624MOL0     H84215   3.229   0.241  10.263 -1.9800 -1.0037 -1.0868
  624MOL0     H84216   3.268  -0.054  10.376 -0.0504  0.1596  0.2476
  624MOL0     H84217   3.302   0.087  10.463  0.4079 -2.2237  1.1755
  624MOL0     H84218   3.114  -0.028  10.559 -1.1512  0.0846  0.1971
  624MOL0     H84219   3.016  -0.008  10.410 -0.2534  2.6040 -1.0564
  624MOL0     H84220   2.954   0.183  10.444 -2.3085 -1.2758  1.5236
  624MOL0     H84221   3.103   0.243  10.532 -1.1180  1.0050  1.7323
  624MOL0     H84222   4.004   0.154  10.003  0.9438  1.0303 -0.0895
  624MOL0     H84223   4.212   0.280  10.039 -1.0966 -0.2596  1.3196
  624MOL0     H84224   4.353   0.770   9.810 -1.9672 -2.8952  1.1351
  624MOL0     H84225   4.525   0.944   9.809  1.5150 -2.8261 -2.6195
  624MOL0     H84226   5.878   0.817   8.828  0.3092 -1.6708 -1.6000
  624MOL0     H84227   5.744   0.850   8.629 -2.2414  2.3389 -0.2877
  624MOL0     H84228   5.657   1.022   8.210  0.2858 -0.7698 -2.1592
  624MOL0     H84229   5.610   1.067   7.986 -0.3476  1.2240 -0.8353
  624MOL0     H84230   5.688   1.147   7.754 -1.0554  1.4170  0.4465
  624MOL0     H84231   5.655   1.296   7.666  3.0250  1.5749 -1.1675
  624MOL0     H84232   5.904   1.241   7.713  0.2278  3.1380 -3.5392
  624MOL0     H84233   5.859   1.266   7.886  0.1401  1.2521  0.2942
  624MOL0     H84234   5.798   1.498   7.823  0.1369  0.1323  0.7114
  624MOL0     H84235   5.782   1.454   7.649 -2.1699 -2.6910  2.0045
  624MOL0     H84236   6.037   1.436   7.646 -3.5466 -2.6742 -0.4337
  624MOL0     H84237   6.035   1.521   7.803 -4.1444  0.7894  2.0766
  624MOL0     H84238   5.914   1.812   7.503 -1.0003 -1.1513 -0.3272
  624MOL0     H84239   5.667   1.490   8.031  2.4716 -0.4477 -0.5975
  624MOL0     H84240   5.730   1.437   8.288 -1.4311  0.8352 -0.8254
  625MOL0     O84241  11.367  10.523   6.369  1.5419 -0.9914 -0.9744
  625MOL0     C84242  11.326  10.638   6.389  0.8213 -0.2468 -0.1241
  625MOL0     O84243  11.189  10.680   6.390  0.1245 -0.3366  0.5188
  625MOL0     C84244  11.099  10.582   6.372 -0.1023  1.1020 -0.1396
  625MOL0     C84245  11.064  10.539   6.243  0.6365  0.4458  0.1546
  625MOL0     C84246  10.971  10.445   6.215  0.1496  0.6269  0.5586
  625MOL0     C84247  10.914  10.374   6.326  0.8065 -0.9172 -0.3837
  625MOL0     O84248  10.830  10.270   6.305 -0.6273  0.1641 -0.3516
  625MOL0     C84249  10.742  10.229   6.411  0.1967 -0.4915  0.8459
  625MOL0     C84250  10.636  10.140   6.353  0.1514 -0.4075  0.1560
  625MOL0     C84251  10.695  10.010   6.291  0.0200 -0.2364  0.1883
  625MOL0     C84252  10.693  10.005   6.125  0.6355  0.7316 -0.2228
  625MOL0     C84253  10.796   9.927   6.063 -0.1786  0.5122  0.6469
  625MOL0     C84254  10.935   9.988   6.060 -0.3766 -0.1204 -0.7048
  625MOL0     C84255  11.032   9.927   5.954  0.0875 -0.1856  0.5835
  625MOL0     C84256  11.063   9.779   5.978  0.2416  0.6381  0.1814
  625MOL0     N84257  11.170   9.763   6.080 -0.5381  0.1243  0.7062
  625MOL0     C84258  11.179   9.798   6.214 -0.3651 -0.3336  0.4555
  625MOL0     C84259  11.305   9.761   6.249 -0.6519  0.3917 -0.0344
  625MOL0     C84260  11.362   9.789   6.388  0.4553 -1.0638  0.6195
  625MOL0     C84261  11.346   9.676   6.491 -0.7219 -0.2545  0.6942
  625MOL0     C84262  11.329   9.734   6.626 -0.0903 -0.0350  0.0627
  625MOL0     C84263  11.421   9.847   6.659 -0.5628 -0.4723 -0.2530
  625MOL0     O84264  11.561   9.807   6.645 -0.4524  0.5545 -0.6863
  625MOL0     C84265  11.604   9.709   6.735 -0.1300 -0.1298  0.0088
  625MOL0     C84266  11.702   9.636   6.680  0.0700  0.3775  0.0997
  625MOL0     C84267  11.766   9.532   6.761  0.2918 -0.4702 -0.1973
  625MOL0     C84268  11.903   9.474   6.709  0.4579 -0.9370 -0.0202
  625MOL0     C84269  11.715   9.506   6.894  0.6462  0.7524 -1.1826
  625MOL0     C84270  11.767   9.399   6.988 -0.4574  0.4748  0.8096
  625MOL0     O84271  11.713   9.394   7.119 -0.2728  0.5305  0.3673
  625MOL0     C84272  11.743   9.285   7.197 -0.2008  0.4072  0.5375
  625MOL0     C84273  11.880   9.247   7.220 -0.6449  0.1709  0.1609
  625MOL0     C84274  11.916   9.129   7.285 -0.1333 -0.2668 -0.3186
  625MOL0     C84275  11.809   9.057   7.350  0.4246 -0.3973 -0.2084
  625MOL0     O84276  11.838   8.935   7.413 -0.8900 -0.0794  0.1343
  625MOL0     C84277  11.932   8.844   7.353  0.2087 -0.2994  0.2004
  625MOL0     C84278  11.920   8.705   7.410 -0.0303 -0.4872 -0.1491
  625MOL0     C84279  12.017   8.609   7.335 -0.2415  0.3280  0.3365
  625MOL0     C84280  11.996   8.461   7.350  0.2801  0.7164  0.3799
  625MOL0     C84281  12.069   8.384   7.239 -0.3012  0.1856  0.0576
  625MOL0     C84282  12.001   8.394   7.098 -0.1613 -0.5903 -0.5793
  625MOL0     C84283  12.080   8.295   7.004 -0.5555  0.4554 -0.0464
  625MOL0     C84284  12.031   8.290   6.858  0.6926 -0.4230  0.8234
  625MOL0    Cl84285  11.881   8.188   6.848  0.1959  0.2817  0.2752
  625MOL0     C84286  11.675   9.098   7.351 -0.0283 -0.4161 -0.0166
  625MOL0     C84287  11.643   9.207   7.274 -0.8025  0.6854  0.0080
  625MOL0     O84288  11.857   9.323   6.942  0.3570 -0.9571 -0.2126
  625MOL0     C84289  11.603   9.581   6.944  0.3873  0.1023 -0.1450
  625MOL0     C84290  11.554   9.683   6.860 -0.1560  0.8275  0.6524
  625MOL0     N84291  11.372   9.720   6.136  0.5215 -0.0173 -0.0759
  625MOL0     N84292  11.292   9.729   6.033 -0.3515 -0.6762  0.1044
  625MOL0     C84293  10.939  10.428   6.459  0.3063 -0.3046  0.4695
  625MOL0     C84294  11.031  10.531   6.478 -0.4944 -0.1851 -0.1876
  625MOL0     C84295  11.434  10.736   6.412 -0.3458 -0.6429 -0.8047
  625MOL0     C84296  11.399  10.872   6.439 -0.0294  0.1556  0.6276
  625MOL0     C84297  11.495  10.968   6.472  0.2119 -0.6321  1.1618
  625MOL0     C84298  11.632  10.927   6.453  0.3975  0.3923 -0.9120
  625MOL0     O84299  11.717  11.034   6.459 -0.3214 -0.0474  0.7337
  625MOL0     C84300  11.837  11.030   6.384 -0.4018  0.0818 -0.2679
  625MOL0     C84301  11.855  11.177   6.335 -0.2807  0.1586  0.6057
  625MOL0     C84302  11.868  11.286   6.448  0.0565 -0.4473 -0.8997
  625MOL0     C84303  11.996  11.273   6.536  0.3244  0.1290  0.7681
  625MOL0     C84304  12.111  11.312   6.446 -0.4732  0.9285  0.1409
  625MOL0     C84305  12.202  11.332   6.363  0.3737  0.1367 -0.1111
  625MOL0     C84306  11.665  10.791   6.425  0.5300 -0.2190 -0.2650
  625MOL0     C84307  11.566  10.698   6.408 -0.2907  0.5787  0.1186
  625MOL0     H84308  11.110  10.587   6.157  1.4554 -0.0174  0.3184
  625MOL0     H84309  10.967  10.415   6.110 -0.6672 -1.2769  1.0859
  625MOL0     H84310  10.797  10.176   6.490  0.4455  0.4486  1.3231
  625MOL0     H84311  10.692  10.313   6.461 -2.2231 -0.4356 -1.5041
  625MOL0     H84312  10.568  10.104   6.431  1.2021 -4.0305 -0.4130
  625MOL0     H84313  10.575  10.187   6.275  0.3160 -3.4750 -1.9832
  625MOL0     H84314  10.801  10.003   6.319  0.3336 -1.2073 -1.1326
  625MOL0     H84315  10.645   9.918   6.322  0.2125 -0.1996  0.6087
  625MOL0     H84316  10.599   9.956   6.095 -0.0798  1.9216  0.0004
  625MOL0     H84317  10.700  10.110   6.096  0.0290  1.9706  3.5621
  625MOL0     H84318  10.795   9.831   6.115 -0.7774 -0.9501 -1.8546
  625MOL0     H84319  10.764   9.900   5.962 -2.4400 -4.9400  2.4347
  625MOL0     H84320  10.926  10.095   6.040  1.0117  0.3598  1.0259
  625MOL0     H84321  10.966   9.981   6.165 -0.3357 -1.3792 -0.7799
  625MOL0     H84322  10.981   9.950   5.860  1.8642  0.5772 -0.2345
  625MOL0     H84323  11.124   9.986   5.959  1.9019 -2.9232  1.1862
  625MOL0     H84324  11.092   9.726   5.887  2.1564  1.1759  0.4294
  625MOL0     H84325  10.977   9.729   6.025  0.0671  0.5395 -0.2349
  625MOL0     H84326  11.098   9.842   6.272  1.5730  2.0973  1.4930
  625MOL0     H84327  11.469   9.808   6.374 -0.2826  3.0899 -0.8445
  625MOL0     H84328  11.302   9.875   6.420 -2.2652 -2.5561 -0.1191
  625MOL0     H84329  11.438   9.618   6.499  1.1088  2.7001  3.2787
  625MOL0     H84330  11.262   9.610   6.467 -1.0324  0.6216 -0.7680
  625MOL0     H84331  11.338   9.661   6.707 -3.5986 -0.6903  0.0186
  625MOL0     H84332  11.223   9.761   6.635  0.3301  2.2739 -1.1893
  625MOL0     H84333  11.393   9.867   6.763 -1.0337 -3.1495  0.2226
  625MOL0     H84334  11.390   9.938   6.607 -1.4182  1.9783  4.0462
  625MOL0     H84335  11.733   9.666   6.581 -0.8335 -1.3800 -0.7662
  625MOL0     H84336  11.887   9.372   6.673 -2.3027  0.1565 -2.3144
  625MOL0     H84337  11.918   9.526   6.614 -2.3888 -0.3798 -0.2573
  625MOL0     H84338  11.982   9.475   6.785  2.8530 -1.3861 -2.3742
  625MOL0     H84339  11.954   9.311   7.174 -0.2334 -0.0964  0.4504
  625MOL0     H84340  12.012   9.078   7.275  0.2122  0.3145 -0.0202
  625MOL0     H84341  11.929   8.839   7.244  0.7866  0.7409  0.1289
  625MOL0     H84342  12.033   8.871   7.385  0.7651 -0.0828 -1.6148
  625MOL0     H84343  11.938   8.712   7.518 -0.3619 -0.4049 -0.0988
  625MOL0     H84344  11.818   8.668   7.398 -0.1927  0.1450 -0.8132
  625MOL0     H84345  12.123   8.630   7.347  0.2668  0.0605 -2.7384
  625MOL0     H84346  12.004   8.630   7.228  0.7579  1.0451  0.3418
  625MOL0     H84347  12.045   8.436   7.444 -1.1371  0.0084  0.9466
  625MOL0     H84348  11.890   8.438   7.363  0.7504 -1.0414  1.3966
  625MOL0     H84349  12.067   8.277   7.261  0.5195  0.5520  2.1338
  625MOL0     H84350  12.174   8.414   7.232 -0.5886  1.1496 -0.4467
  625MOL0     H84351  11.896   8.365   7.099 -0.0538 -1.0003 -0.8358
  625MOL0     H84352  11.985   8.492   7.052 -3.5158 -0.2811  0.9497
  625MOL0     H84353  12.071   8.195   7.047 -2.7235  0.2201 -0.9408
  625MOL0     H84354  12.181   8.336   7.001 -0.8922  1.3359  0.3301
  625MOL0     H84355  12.092   8.240   6.782 -2.3007 -0.8647 -1.4654
  625MOL0     H84356  12.002   8.388   6.819  3.8181  0.1635 -0.3430
  625MOL0     H84357  11.602   9.037   7.401  0.7197 -1.8874 -0.6478
  625MOL0     H84358  11.540   9.237   7.290 -0.1768  2.2717  1.4910
  625MOL0     H84359  11.548   9.570   7.037  1.6925 -0.2248  0.6255
  625MOL0     H84360  11.482   9.753   6.900 -2.9951  0.5658 -3.4181
  625MOL0     H84361  10.895  10.390   6.551  0.0551  1.5200  1.1450
  625MOL0     H84362  11.044  10.587   6.570  2.4596  2.7202 -2.1467
  625MOL0     H84363  11.293  10.890   6.446 -0.2075 -0.4678 -0.2540
  625MOL0     H84364  11.468  11.064   6.512 -0.0106 -0.8851  1.6225
  625MOL0     H84365  11.910  11.001   6.461  0.7627  2.4401 -0.3791
  625MOL0     H84366  11.850  10.961   6.301  0.4199 -1.3869  1.0247
  625MOL0     H84367  11.780  11.212   6.264  0.5092  1.8454  0.5489
  625MOL0     H84368  11.938  11.198   6.266 -1.4739 -0.3490 -1.0449
  625MOL0     H84369  11.777  11.284   6.510 -0.2207  2.5644 -1.0746
  625MOL0     H84370  11.874  11.376   6.386  3.3734  0.7769  0.9478
  625MOL0     H84371  12.006  11.171   6.572 -2.3730 -0.7575 -0.7213
  625MOL0     H84372  11.993  11.347   6.617  3.8492  0.7425  0.5217
  625MOL0     H84373  12.279  11.350   6.291  1.8808 -1.4906  0.9990
  625MOL0     H84374  11.768  10.761   6.409  0.2560 -0.6267 -1.3723
  625MOL0     H84375  11.592  10.593   6.398 -4.2898 -1.1059  4.1821
  626MOL0     O84376   7.791   8.576   0.840 -0.4475 -0.2455  0.5515
  626MOL0     C84377   7.744   8.478   0.906 -0.2470  0.2645 -0.6228
  626MOL0     O84378   7.754   8.468   1.041  0.2278  0.0427  0.3221
  626MOL0     C84379   7.827   8.566   1.100  0.3962  0.2604 -0.2083
  626MOL0     C84380   7.961   8.542   1.116  0.6243  0.2118 -0.2169
  626MOL0     C84381   8.038   8.643   1.175  0.0710  0.9235 -0.0831
  626MOL0     C84382   7.978   8.752   1.241  0.0630  0.9769  0.7606
  626MOL0     O84383   8.052   8.844   1.302 -0.3435 -0.2665 -0.0714
  626MOL0     C84384   8.135   8.784   1.404 -1.0531  0.0254 -0.3757
  626MOL0     C84385   8.175   8.901   1.489 -0.0630 -0.1233 -0.6139
  626MOL0     C84386   8.062   8.929   1.590  0.0236  0.1605  0.0705
  626MOL0     C84387   8.122   9.021   1.698 -1.1329 -0.6545  0.6744
  626MOL0     C84388   8.193   8.932   1.804  1.2281 -0.4157  0.3417
  626MOL0     C84389   8.255   9.026   1.918  0.4706  0.0781 -0.4997
  626MOL0     C84390   8.356   8.940   2.001  0.4637 -0.9170  0.3955
  626MOL0     C84391   8.418   9.005   2.131  0.1016 -0.6323 -0.7738
  626MOL0     N84392   8.304   9.066   2.206 -0.1481 -0.2768 -0.3546
  626MOL0     C84393   8.215   9.008   2.289  0.7285 -0.0600 -0.1300
  626MOL0     C84394   8.127   9.110   2.319  0.0265 -0.4312 -0.2914
  626MOL0     C84395   7.989   9.085   2.398  0.1333  0.8590  0.4810
  626MOL0     C84396   7.949   9.190   2.495 -0.1566  0.5087 -0.2575
  626MOL0     C84397   7.930   9.153   2.645 -0.6917 -0.5582 -0.4165
  626MOL0     C84398   8.060   9.140   2.730  0.0465  0.2692  0.6790
  626MOL0     O84399   8.155   9.246   2.693  0.0354  0.2027 -0.3307
  626MOL0     C84400   8.286   9.209   2.716  0.1967 -0.5161 -0.5776
  626MOL0     C84401   8.370   9.164   2.604  0.3754  0.9389 -0.6466
  626MOL0     C84402   8.507   9.151   2.626  0.5619  0.6866  0.3101
  626MOL0     C84403   8.604   9.111   2.512 -0.6792  0.2950 -1.1312
  626MOL0     C84404   8.566   9.174   2.759 -0.3105 -0.2924 -0.8729
  626MOL0     C84405   8.713   9.190   2.777 -0.2512 -0.3073  1.0353
  626MOL0     O84406   8.789   9.273   2.698  1.1786 -0.4450  0.1704
  626MOL0     C84407   8.893   9.329   2.767 -0.5104  0.8195 -0.2435
  626MOL0     C84408   8.889   9.465   2.783  0.3077 -0.3262  0.1232
  626MOL0     C84409   8.994   9.529   2.850  0.5376 -0.5374 -0.3040
  626MOL0     C84410   9.103   9.457   2.902  0.4149  0.7010 -0.2000
  626MOL0     O84411   9.208   9.508   2.970 -0.4257 -0.4709 -0.7296
  626MOL0     C84412   9.174   9.554   3.101  0.5623 -0.1153 -0.1903
  626MOL0     C84413   9.264   9.672   3.136  0.6103 -0.0975  0.3435
  626MOL0     C84414   9.247   9.735   3.267  0.5885  0.2679  0.7634
  626MOL0     C84415   9.269   9.636   3.372  0.2130  0.1682 -0.0259
  626MOL0     C84416   9.342   9.689   3.495  0.0015 -0.3300 -0.0789
  626MOL0     C84417   9.490   9.712   3.460  0.6032  0.2093  0.7064
  626MOL0     C84418   9.561   9.772   3.590  0.9012 -0.6726  0.1367
  626MOL0     C84419   9.710   9.794   3.559  0.0688 -0.1882 -0.5669
  626MOL0    Cl84420   9.807   9.856   3.695 -0.6598 -0.3339 -0.3940
  626MOL0     C84421   9.100   9.328   2.884 -0.0682  0.4882  0.0594
  626MOL0     C84422   9.001   9.255   2.813  0.7663 -0.8732  0.3284
  626MOL0     O84423   8.757   9.117   2.867 -0.0380 -0.4753  0.2300
  626MOL0     C84424   8.476   9.183   2.872 -0.3504  0.9127  0.3497
  626MOL0     C84425   8.340   9.196   2.849  0.1793  0.1538  0.8015
  626MOL0     N84426   8.175   9.227   2.257 -0.1296 -0.2062 -1.0062
  626MOL0     N84427   8.285   9.198   2.199 -0.2564 -0.1689 -0.9994
  626MOL0     C84428   7.840   8.770   1.236  1.0449  0.2458  0.4056
  626MOL0     C84429   7.762   8.680   1.158  0.0280 -0.1503  0.0055
  626MOL0     C84430   7.652   8.386   0.828 -0.7025  0.3121  0.4381
  626MOL0     C84431   7.570   8.439   0.720 -0.2911 -0.6700 -0.2542
  626MOL0     C84432   7.485   8.346   0.647 -0.0054 -1.1793 -0.4401
  626MOL0     C84433   7.490   8.208   0.669  0.0845 -0.4189 -0.7957
  626MOL0     O84434   7.413   8.122   0.592  0.4217 -0.1929 -0.4981
  626MOL0     C84435   7.491   8.075   0.489  0.0329  0.0697 -0.0014
  626MOL0     C84436   7.539   7.930   0.520  0.2452 -0.0699  0.6813
  626MOL0     C84437   7.421   7.830   0.561  0.6141 -0.1703 -1.1765
  626MOL0     C84438   7.332   7.800   0.436  0.3515 -0.0475 -0.4181
  626MOL0     C84439   7.225   7.693   0.464 -0.2455 -0.0283  0.1636
  626MOL0     C84440   7.142   7.609   0.470  0.4261 -0.5054  0.3153
  626MOL0     C84441   7.557   8.167   0.785 -0.2964  0.0293 -0.1318
  626MOL0     C84442   7.633   8.251   0.861  0.4193 -0.1336  0.0782
  626MOL0     H84443   8.011   8.448   1.097  0.4537  0.2904 -1.1043
  626MOL0     H84444   8.146   8.631   1.178  0.1441  1.5145 -0.1728
  626MOL0     H84445   8.078   8.710   1.463 -0.1036 -1.4210 -1.2207
  626MOL0     H84446   8.229   8.738   1.372  0.1447 -0.0610  2.8811
  626MOL0     H84447   8.266   8.880   1.546 -1.3230  1.5500  2.2110
  626MOL0     H84448   8.193   8.992   1.432 -2.6991  1.3129  0.6733
  626MOL0     H84449   7.974   8.983   1.554  0.5094 -0.0174 -1.4431
  626MOL0     H84450   8.023   8.836   1.632  0.8809 -0.2709 -0.0803
  626MOL0     H84451   8.195   9.084   1.646 -0.7314 -2.3179 -0.8685
  626MOL0     H84452   8.044   9.081   1.745 -2.4969  0.3447 -2.6168
  626MOL0     H84453   8.121   8.857   1.836  1.1726 -0.2670  0.5691
  626MOL0     H84454   8.270   8.871   1.755  0.0474  0.2598 -2.4998
  626MOL0     H84455   8.312   9.104   1.866 -2.3367  2.3479 -0.4567
  626MOL0     H84456   8.173   9.077   1.969  2.1929  1.8246  0.6641
  626MOL0     H84457   8.317   8.839   2.014  0.9241 -1.4410 -1.8614
  626MOL0     H84458   8.438   8.930   1.928  0.7165  2.4438  0.0291
  626MOL0     H84459   8.483   9.080   2.085 -2.2318  0.2491 -2.8497
  626MOL0     H84460   8.484   8.941   2.191 -0.5595  1.6931  2.7335
  626MOL0     H84461   8.203   8.902   2.312 -0.1861 -0.2117 -1.2491
  626MOL0     H84462   7.911   9.092   2.322  1.2723 -1.7480 -1.0646
  626MOL0     H84463   7.988   8.986   2.445  1.9617 -1.1568 -3.2856
  626MOL0     H84464   7.853   9.238   2.474 -0.8938 -0.5630  0.5377
  626MOL0     H84465   8.019   9.272   2.477  0.7518 -0.1506  0.1601
  626MOL0     H84466   7.859   9.071   2.660 -0.6190 -0.1204  3.4684
  626MOL0     H84467   7.883   9.239   2.694  3.3966  1.6601  0.0303
  626MOL0     H84468   8.110   9.044   2.713  0.2649  0.2698  1.2974
  626MOL0     H84469   8.045   9.140   2.838 -2.2094 -0.2322  0.4178
  626MOL0     H84470   8.327   9.160   2.505 -0.2613  0.9219 -0.3715
  626MOL0     H84471   8.667   9.024   2.533  0.5199  1.1937 -0.8840
  626MOL0     H84472   8.534   9.077   2.435 -0.5348 -2.0159 -0.2991
  626MOL0     H84473   8.683   9.184   2.489  3.8548 -3.4361  0.9816
  626MOL0     H84474   8.813   9.534   2.745 -0.1258 -1.5600 -1.3389
  626MOL0     H84475   9.005   9.637   2.852  3.1841 -0.7038 -1.2366
  626MOL0     H84476   9.071   9.589   3.111  0.9928  0.6583  2.1598
  626MOL0     H84477   9.176   9.466   3.167 -2.3146 -1.7762 -2.0757
  626MOL0     H84478   9.371   9.652   3.127  0.2769 -0.9986 -2.5671
  626MOL0     H84479   9.236   9.748   3.063  0.3554 -0.3860  0.1366
  626MOL0     H84480   9.149   9.783   3.273 -0.7537 -2.0304 -0.8788
  626MOL0     H84481   9.324   9.812   3.278  1.6346 -0.9831  2.6827
  626MOL0     H84482   9.166   9.608   3.395 -0.9171  1.0184 -3.4023
  626MOL0     H84483   9.313   9.540   3.346 -0.9704 -0.1261 -1.0507
  626MOL0     H84484   9.325   9.611   3.570 -3.6281 -2.6336 -2.9044
  626MOL0     H84485   9.300   9.776   3.546 -1.4966 -0.4718 -0.9983
  626MOL0     H84486   9.541   9.622   3.423 -1.4239 -0.6226 -0.1984
  626MOL0     H84487   9.508   9.788   3.383  1.7478 -1.0541 -0.3197
  626MOL0     H84488   9.564   9.708   3.679  1.9710 -3.7063 -1.8762
  626MOL0     H84489   9.528   9.871   3.619 -3.3316 -1.9880  0.4199
  626MOL0     H84490   9.723   9.874   3.485 -0.3986  0.5862  0.1595
  626MOL0     H84491   9.751   9.705   3.512  0.0472 -0.2067 -0.5513
  626MOL0     H84492   9.174   9.258   2.925 -0.8897 -1.4871 -1.6778
  626MOL0     H84493   8.993   9.149   2.790  1.2337 -0.3507 -2.5865
  626MOL0     H84494   8.527   9.198   2.967  0.7146  1.1230 -0.2388
  626MOL0     H84495   8.268   9.210   2.929  0.9001  0.2384  1.4464
  626MOL0     H84496   7.793   8.856   1.282  1.2210  0.1660  0.7377
  626MOL0     H84497   7.656   8.698   1.145  0.3485  0.8822 -1.4655
  626MOL0     H84498   7.578   8.545   0.699 -0.9806 -0.5648 -0.0001
  626MOL0     H84499   7.439   8.388   0.558  0.8345  0.9534  0.0547
  626MOL0     H84500   7.440   8.081   0.392 -1.8814 -1.9194  0.7991
  626MOL0     H84501   7.584   8.133   0.482  0.0891  0.0148  0.2831
  626MOL0     H84502   7.600   7.945   0.610 -1.1069 -1.9174  1.9603
  626MOL0     H84503   7.608   7.880   0.452 -0.0952 -2.6818  2.1261
  626MOL0     H84504   7.353   7.871   0.637 -0.5834 -2.7038 -0.7599
  626MOL0     H84505   7.473   7.738   0.589  2.4305  0.6019 -1.8391
  626MOL0     H84506   7.403   7.776   0.355  1.3701  0.8283  0.1872
  626MOL0     H84507   7.283   7.883   0.386 -0.6574 -0.0388  0.5654
  626MOL0     H84508   7.065   7.534   0.466  0.9699 -1.0861  0.5661
  626MOL0     H84509   7.515   8.077   0.828 -3.9810  0.4583 -2.3843
  626MOL0     H84510   7.684   8.211   0.948 -3.4308 -0.6941  2.2733
  627MOL0     O84511   2.253   6.607   4.115  0.1201  0.8201 -0.2053
  627MOL0     C84512   2.188   6.638   4.018  0.3660  0.8288  0.5085
  627MOL0     O84513   2.163   6.545   3.913 -0.0002 -0.7157 -0.1723
  627MOL0     C84514   2.187   6.415   3.948  0.0777 -0.0311 -0.2589
  627MOL0     C84515   2.282   6.336   3.882 -0.9139  0.5603  0.8910
  627MOL0     C84516   2.310   6.209   3.913  1.0352 -0.4135  0.2567
  627MOL0     C84517   2.246   6.147   4.020  0.0951 -0.9324 -0.4204
  627MOL0     O84518   2.267   6.019   4.069  0.1116  0.3917  0.2806
  627MOL0     C84519   2.281   5.903   3.991  1.0530 -0.5206 -0.8566
  627MOL0     C84520   2.313   5.783   4.076  0.2557 -0.4507  1.5319
  627MOL0     C84521   2.203   5.761   4.186 -0.4775  0.0950 -0.0607
  627MOL0     C84522   2.215   5.621   4.240 -0.3849  0.4553 -0.2144
  627MOL0     C84523   2.108   5.587   4.357  0.6287 -0.1521 -0.2861
  627MOL0     C84524   2.111   5.448   4.424  1.0570  0.8103 -0.2107
  627MOL0     C84525   2.247   5.416   4.501  0.7605 -0.6177 -0.4226
  627MOL0     C84526   2.306   5.530   4.592  0.0535  0.7778  0.0558
  627MOL0     N84527   2.404   5.479   4.679 -0.3008 -1.1892 -0.1558
  627MOL0     C84528   2.544   5.498   4.656  0.0967  0.9145 -0.6154
  627MOL0     C84529   2.601   5.464   4.771 -0.4276  0.0611  0.2056
  627MOL0     C84530   2.748   5.470   4.810 -0.1963  0.0245 -1.0198
  627MOL0     C84531   2.795   5.590   4.906 -0.1391 -0.5975 -0.3670
  627MOL0     C84532   2.709   5.599   5.027 -0.6075 -0.1313 -0.6578
  627MOL0     C84533   2.583   5.699   5.024 -0.8720  0.3985 -0.2664
  627MOL0     O84534   2.619   5.824   4.998  0.0311  0.9137  0.0630
  627MOL0     C84535   2.539   5.933   4.998 -0.2603  0.2588  0.3468
  627MOL0     C84536   2.405   5.930   5.033 -0.0433 -0.2095 -0.6250
  627MOL0     C84537   2.318   6.049   5.044  0.2398  0.8046 -0.0993
  627MOL0     C84538   2.174   6.027   5.069  0.5458 -0.4896  0.1260
  627MOL0     C84539   2.377   6.173   5.012 -0.6303  0.0383  0.7257
  627MOL0     C84540   2.309   6.306   5.015  0.4749 -0.2447  1.0058
  627MOL0     O84541   2.360   6.413   4.944  0.4784 -0.5721 -0.1956
  627MOL0     C84542   2.287   6.535   4.947  0.5422  0.5117  1.3389
  627MOL0     C84543   2.204   6.560   4.841 -0.4657 -0.6447 -0.2512
  627MOL0     C84544   2.127   6.683   4.840  0.1945  0.2025 -0.7768
  627MOL0     C84545   2.148   6.779   4.938 -0.5115 -0.6255 -0.3479
  627MOL0     O84546   2.100   6.906   4.917 -0.5898 -0.4972 -0.0318
  627MOL0     C84547   1.995   6.937   4.831  0.3692 -0.7785  0.4092
  627MOL0     C84548   1.942   7.067   4.897  0.8544 -1.0373  0.5312
  627MOL0     C84549   1.876   7.036   5.035 -0.6184 -0.0034  0.5483
  627MOL0     C84550   1.758   7.131   5.072  1.4018 -0.5358 -0.2802
  627MOL0     C84551   1.716   7.097   5.211 -0.8704  0.5015  0.0114
  627MOL0     C84552   1.600   7.171   5.269  0.6726 -0.5934  0.9350
  627MOL0     C84553   1.468   7.144   5.191  1.1171 -0.0309  0.0550
  627MOL0     C84554   1.408   7.000   5.191 -0.4776  0.7883 -0.6072
  627MOL0    Cl84555   1.228   6.992   5.161 -0.5839  0.2131  0.0363
  627MOL0     C84556   2.231   6.759   5.049  0.1801 -0.3403  0.1775
  627MOL0     C84557   2.294   6.635   5.050 -0.1963 -0.7036 -0.2456
  627MOL0     O84558   2.210   6.311   5.093 -0.5708  0.0393 -0.1443
  627MOL0     C84559   2.506   6.173   4.968  0.2693 -0.2866  0.0953
  627MOL0     C84560   2.585   6.055   4.966 -1.1338  1.5549 -0.8646
  627MOL0     N84561   2.502   5.402   4.849 -0.0495 -0.8711 -0.1020
  627MOL0     N84562   2.383   5.409   4.799  0.3679 -0.1627 -0.1346
  627MOL0     C84563   2.148   6.226   4.095  0.0028 -0.2535 -0.0705
  627MOL0     C84564   2.128   6.360   4.063  0.0867  0.2865  0.0827
  627MOL0     C84565   2.138   6.772   4.013  0.5100 -0.1626 -0.3471
  627MOL0     C84566   2.142   6.866   4.117  0.2874 -0.2481 -0.1244
  627MOL0     C84567   2.066   6.990   4.112  0.0719 -0.7353  0.0388
  627MOL0     C84568   2.010   7.030   3.988 -0.7661 -0.0841 -0.5198
  627MOL0     O84569   1.921   7.140   3.982  0.0392 -0.1818 -0.0410
  627MOL0     C84570   1.972   7.269   3.937 -0.2530 -0.2193  0.1649
  627MOL0     C84571   1.921   7.360   4.045 -0.0960  0.1505 -0.3216
  627MOL0     C84572   1.960   7.497   3.999 -0.2861  0.5021  0.0496
  627MOL0     C84573   2.108   7.531   4.001  0.6568  0.1934  0.2624
  627MOL0     C84574   2.126   7.668   3.956 -1.2220  0.0311 -0.1014
  627MOL0     C84575   2.157   7.785   3.935 -0.9166 -1.2252  0.1795
  627MOL0     C84576   2.012   6.944   3.881 -0.6011 -0.7071 -0.3838
  627MOL0     C84577   2.059   6.814   3.902 -1.3398 -0.0419  0.9398
  627MOL0     H84578   2.335   6.367   3.792  1.2563 -4.2517  0.1555
  627MOL0     H84579   2.397   6.168   3.861  1.7645  0.4496  0.7633
  627MOL0     H84580   2.189   5.898   3.932 -1.0954 -2.4902  2.3481
  627MOL0     H84581   2.371   5.933   3.936  1.8065  0.1203  0.6564
  627MOL0     H84582   2.316   5.702   4.003 -0.0637 -1.1460  2.2820
  627MOL0     H84583   2.406   5.810   4.127 -0.5486  1.9265  1.8610
  627MOL0     H84584   2.230   5.847   4.249 -0.7153  0.7717 -0.8717
  627MOL0     H84585   2.104   5.774   4.141 -0.1833  2.5013 -0.1118
  627MOL0     H84586   2.200   5.548   4.160 -2.4359  1.8768 -1.2208
  627MOL0     H84587   2.311   5.617   4.291 -1.4244  1.0542  1.9013
  627MOL0     H84588   2.124   5.661   4.436 -0.0185 -0.3698  0.0548
  627MOL0     H84589   2.011   5.616   4.316 -0.2753  0.8017  2.3645
  627MOL0     H84590   2.031   5.439   4.499  2.5703 -0.4032  1.3447
  627MOL0     H84591   2.089   5.374   4.347  1.8717  0.9326 -0.5640
  627MOL0     H84592   2.228   5.327   4.563 -0.0059 -1.2821 -1.5622
  627MOL0     H84593   2.328   5.404   4.428  0.6942  1.8656 -0.9847
  627MOL0     H84594   2.220   5.566   4.648 -1.2859  0.6679 -1.8253
  627MOL0     H84595   2.342   5.604   4.520  1.4505 -0.8670 -1.0389
  627MOL0     H84596   2.600   5.534   4.570  1.9042 -0.0632  0.1214
  627MOL0     H84597   2.764   5.377   4.865 -1.2299 -1.3189 -2.8593
  627MOL0     H84598   2.802   5.474   4.715  1.5984  1.5225  0.0029
  627MOL0     H84599   2.782   5.688   4.858  0.7431  0.1092  0.7936
  627MOL0     H84600   2.902   5.575   4.926  0.1281  0.3580 -0.9552
  627MOL0     H84601   2.768   5.632   5.113 -0.3186 -0.3894 -0.7551
  627MOL0     H84602   2.669   5.501   5.054  0.5649 -0.0742  1.5313
  627MOL0     H84603   2.516   5.694   5.110 -0.5600 -2.3921 -0.0987
  627MOL0     H84604   2.529   5.675   4.932 -1.1994 -0.3268  0.1109
  627MOL0     H84605   2.359   5.840   5.074  2.2969 -0.0984  2.5163
  627MOL0     H84606   2.150   5.920   5.067  1.7405 -0.9296  3.2832
  627MOL0     H84607   2.148   6.079   5.162  0.3117  1.6283 -1.0621
  627MOL0     H84608   2.122   6.080   4.989 -0.9385  1.5231  2.2911
  627MOL0     H84609   2.188   6.486   4.763 -3.2378 -0.3018 -0.0912
  627MOL0     H84610   2.060   6.697   4.756  0.3685  0.2657 -0.9051
  627MOL0     H84611   2.033   6.977   4.736 -1.0558 -1.0381 -0.2901
  627MOL0     H84612   1.922   6.855   4.828  1.0958 -1.4350  0.4804
  627MOL0     H84613   2.012   7.150   4.897 -0.7493  0.3751 -0.5619
  627MOL0     H84614   1.858   7.104   4.837  0.9914  2.1083  2.1148
  627MOL0     H84615   1.951   7.030   5.114  0.5644 -0.1039 -0.5683
  627MOL0     H84616   1.836   6.934   5.025 -0.9639  0.1753  0.1084
  627MOL0     H84617   1.788   7.236   5.066  2.6213 -0.9196 -1.3534
  627MOL0     H84618   1.679   7.105   5.001  2.4510 -2.5163 -0.8051
  627MOL0     H84619   1.808   7.100   5.270 -1.5279  1.1074  1.0368
  627MOL0     H84620   1.691   6.990   5.215  0.1624  0.0918 -2.5824
  627MOL0     H84621   1.583   7.136   5.371  0.3532 -2.6632  0.2138
  627MOL0     H84622   1.625   7.277   5.256 -2.3284  0.0909 -0.3198
  627MOL0     H84623   1.467   7.165   5.084 -0.9662  1.4000  0.2889
  627MOL0     H84624   1.387   7.205   5.232 -0.4393 -2.8641  1.5410
  627MOL0     H84625   1.439   6.952   5.284  2.0109  2.7627 -0.3081
  627MOL0     H84626   1.452   6.945   5.107 -0.6585 -1.9931  0.9878
  627MOL0     H84627   2.262   6.826   5.130 -0.8031 -1.9910  2.0146
  627MOL0     H84628   2.354   6.601   5.135 -0.7295 -0.6600  0.1503
  627MOL0     H84629   2.549   6.260   4.919  0.6719 -1.8005 -2.4350
  627MOL0     H84630   2.689   6.075   4.939 -1.1226 -0.6298 -2.7939
  627MOL0     H84631   2.098   6.181   4.180  0.1032 -0.7054 -0.2442
  627MOL0     H84632   2.061   6.410   4.132 -0.7926 -1.3870  0.4943
  627MOL0     H84633   2.192   6.830   4.206  0.3176  3.0458  1.3338
  627MOL0     H84634   2.051   7.057   4.196 -0.7803 -1.6311  0.6295
  627MOL0     H84635   2.081   7.275   3.928 -0.1049 -3.0138 -0.9060
  627MOL0     H84636   1.927   7.286   3.839 -0.1461 -4.2948 -0.7750
  627MOL0     H84637   1.944   7.330   4.147  1.2495 -1.3616 -1.0285
  627MOL0     H84638   1.813   7.350   4.033 -0.3800 -0.5446  2.2698
  627MOL0     H84639   1.916   7.561   4.075 -0.5712 -1.5125  1.6522
  627MOL0     H84640   1.908   7.529   3.908 -2.5493 -2.5645  0.1093
  627MOL0     H84641   2.167   7.464   3.936 -0.7270  0.6251 -1.5333
  627MOL0     H84642   2.132   7.520   4.107  0.1496  0.8863  0.4535
  627MOL0     H84643   2.200   7.878   3.905  1.7171 -2.3415  0.2395
  627MOL0     H84644   1.968   6.976   3.788  0.0011 -3.0453 -1.5532
  627MOL0     H84645   2.042   6.747   3.818  0.4694  0.6785 -0.0563
  628MOL0     O84646   2.954   1.828   0.612 -0.5987  1.0209  0.5783
  628MOL0     C84647   2.953   1.722   0.671  0.9286 -0.3775 -0.9429
  628MOL0     O84648   2.911   1.696   0.798  1.0668 -0.2158 -0.0604
  628MOL0     C84649   2.836   1.779   0.880  0.1608  0.0259 -0.3809
  628MOL0     C84650   2.833   1.748   1.021 -0.2458  0.5987  0.7667
  628MOL0     C84651   2.756   1.805   1.110  1.4463 -0.3113 -0.0399
  628MOL0     C84652   2.672   1.913   1.080  0.1295  0.1754 -0.5018
  628MOL0     O84653   2.604   1.991   1.170  0.2048 -0.3693  0.0577
  628MOL0     C84654   2.594   1.972   1.319 -0.0899  0.6787  0.5837
  628MOL0     C84655   2.669   2.090   1.370 -0.0172 -0.0323  0.0753
  628MOL0     C84656   2.732   2.050   1.502  0.5222  0.5580 -0.9873
  628MOL0     C84657   2.781   2.165   1.592  0.3213  0.4946  1.1281
  628MOL0     C84658   2.704   2.189   1.726  0.9239  0.6266 -0.0319
  628MOL0     C84659   2.565   2.243   1.701 -0.5807 -0.2171 -0.2182
  628MOL0     C84660   2.507   2.287   1.833  0.5627  0.4518 -0.0407
  628MOL0     C84661   2.365   2.356   1.818  0.0926  0.0526  0.1201
  628MOL0     N84662   2.384   2.509   1.813 -0.1658  0.4248 -0.5985
  628MOL0     C84663   2.399   2.588   1.921  0.3947  0.6823 -0.1927
  628MOL0     C84664   2.401   2.717   1.870  0.6795 -0.3890 -0.3487
  628MOL0     C84665   2.422   2.841   1.952  0.4222 -0.2103  0.1175
  628MOL0     C84666   2.309   2.865   2.058  0.8796 -0.5059  0.2463
  628MOL0     C84667   2.169   2.848   1.990 -0.2083  0.4877 -0.5730
  628MOL0     C84668   2.077   2.970   2.021 -0.6575  0.3123 -0.2688
  628MOL0     O84669   2.065   2.963   2.159  0.5500 -0.6949 -0.5133
  628MOL0     C84670   1.981   3.068   2.207 -0.0766  0.2534 -0.1002
  628MOL0     C84671   2.021   3.176   2.290  0.2640  0.1761 -1.2186
  628MOL0     C84672   1.931   3.270   2.347 -0.5918 -0.1224  0.2625
  628MOL0     C84673   1.996   3.379   2.426  0.0487 -0.8049 -1.7206
  628MOL0     C84674   1.789   3.251   2.326  0.0594 -0.1756 -0.1850
  628MOL0     C84675   1.686   3.333   2.401 -0.5893  0.7325  0.2817
  628MOL0     O84676   1.580   3.259   2.432  0.1118  0.7118 -0.0095
  628MOL0     C84677   1.471   3.314   2.506 -1.0378  0.0796  0.8919
  628MOL0     C84678   1.350   3.366   2.444 -0.4349  0.3953 -0.2028
  628MOL0     C84679   1.251   3.420   2.524 -0.2727 -0.1290 -0.4463
  628MOL0     C84680   1.251   3.404   2.660  0.2889  0.6238  0.0170
  628MOL0     O84681   1.148   3.457   2.726  0.3015  0.0749 -0.2293
  628MOL0     C84682   1.108   3.391   2.849 -0.1068  0.8794 -0.6892
  628MOL0     C84683   0.968   3.446   2.903  0.1432  0.1041  0.1967
  628MOL0     C84684   0.854   3.421   2.807  0.2568 -0.3496  0.5666
  628MOL0     C84685   0.773   3.292   2.842 -0.1854  1.0820  0.4766
  628MOL0     C84686   0.641   3.283   2.763 -0.6496  0.9112 -0.3311
  628MOL0     C84687   0.553   3.160   2.797 -0.8173  1.2502 -0.2166
  628MOL0     C84688   0.476   3.196   2.921  0.1857  0.1163 -0.4171
  628MOL0     C84689   0.368   3.297   2.887 -0.5766 -0.2266  0.1021
  628MOL0    Cl84690   0.241   3.295   3.026  0.4894 -0.4469 -0.5451
  628MOL0     C84691   1.364   3.344   2.724  0.3644  0.1753  0.5714
  628MOL0     C84692   1.477   3.308   2.646 -0.0950 -0.1378  1.0574
  628MOL0     O84693   1.698   3.448   2.428 -0.1076 -0.2599 -0.1246
  628MOL0     C84694   1.756   3.143   2.236  0.6766  0.0740  0.1478
  628MOL0     C84695   1.845   3.044   2.183  0.3918 -0.3741  0.0030
  628MOL0     N84696   2.364   2.701   1.740  0.2352 -0.5256 -0.5432
  628MOL0     N84697   2.369   2.582   1.700  0.3864  0.4975 -1.2340
  628MOL0     C84698   2.671   1.956   0.946  0.4598 -0.3149  0.5342
  628MOL0     C84699   2.745   1.888   0.845  0.3945  1.5220 -1.1473
  628MOL0     C84700   2.968   1.612   0.583 -0.4051 -0.0360  0.1646
  628MOL0     C84701   2.937   1.487   0.629  0.3145 -0.2275  0.6515
  628MOL0     C84702   2.941   1.364   0.550  1.2809  0.3536  0.3914
  628MOL0     C84703   2.991   1.380   0.423  0.4410 -0.8632 -0.2497
  628MOL0     O84704   3.007   1.276   0.334 -0.0652 -0.4890  0.0812
  628MOL0     C84705   2.947   1.144   0.352  0.3628 -0.3123  0.8363
  628MOL0     C84706   2.978   1.039   0.245 -0.3247  0.5024 -1.2848
  628MOL0     C84707   2.972   1.107   0.110  0.3589  0.2905  0.2080
  628MOL0     C84708   2.949   1.001  -0.005 -0.3350 -0.3690  0.7140
  628MOL0     C84709   3.062   1.004  -0.098  0.1368 -0.6032 -0.6434
  628MOL0     C84710   3.158   0.989  -0.163  0.1753 -0.1575  0.5523
  628MOL0     C84711   3.045   1.503   0.386  0.2337 -0.1755  0.3589
  628MOL0     C84712   3.044   1.614   0.464 -0.3515 -1.1406  0.3924
  628MOL0     H84713   2.894   1.663   1.051 -2.3946 -1.0827  0.6661
  628MOL0     H84714   2.757   1.749   1.203  0.0174 -1.9791 -0.9729
  628MOL0     H84715   2.491   1.988   1.354 -0.6484  0.5616 -0.9215
  628MOL0     H84716   2.630   1.875   1.352  1.0359  0.7966 -0.2562
  628MOL0     H84717   2.747   2.126   1.301  1.4532 -0.9294  1.2057
  628MOL0     H84718   2.599   2.172   1.390  1.3633  0.5610  3.1101
  628MOL0     H84719   2.686   1.971   1.562  1.1643  0.9895  0.1125
  628MOL0     H84720   2.822   2.000   1.465  2.2262  2.3305  0.5575
  628MOL0     H84721   2.883   2.144   1.626 -0.1906 -2.5016  1.1514
  628MOL0     H84722   2.760   2.258   1.539 -4.1991 -0.9864 -0.1158
  628MOL0     H84723   2.698   2.098   1.785 -0.5443 -0.7549 -2.1758
  628MOL0     H84724   2.744   2.268   1.791  0.3196  0.8887  0.0361
  628MOL0     H84725   2.576   2.320   1.624  1.6156  0.4004  0.6444
  628MOL0     H84726   2.496   2.165   1.665 -0.6345  0.6580 -2.1523
  628MOL0     H84727   2.491   2.210   1.910 -2.4857  0.9026 -0.0947
  628MOL0     H84728   2.565   2.359   1.892  0.1957  0.4786  0.2889
  628MOL0     H84729   2.306   2.332   1.907 -5.4857  1.5148 -2.6885
  628MOL0     H84730   2.293   2.328   1.740  0.0628  1.7964 -0.5208
  628MOL0     H84731   2.412   2.552   2.022 -2.5190 -3.3664 -1.0064
  628MOL0     H84732   2.521   2.827   1.995  0.7198 -0.8424 -0.7325
  628MOL0     H84733   2.420   2.926   1.882  0.0320 -1.4267 -1.3875
  628MOL0     H84734   2.311   2.967   2.095 -1.7051 -0.7191  1.2156
  628MOL0     H84735   2.315   2.797   2.144  0.5394  0.3575  0.9650
  628MOL0     H84736   2.125   2.751   2.016 -2.9654  1.8269  0.2114
  628MOL0     H84737   2.184   2.835   1.883  5.1715  0.0176 -0.0188
  628MOL0     H84738   1.988   2.946   1.963 -3.2936 -2.8579  4.4247
  628MOL0     H84739   2.113   3.063   1.976 -0.6525  1.5399  2.0929
  628MOL0     H84740   2.127   3.179   2.316  0.0081  2.1886 -0.2073
  628MOL0     H84741   2.100   3.360   2.453  1.1239  1.9119 -3.5492
  628MOL0     H84742   1.990   3.476   2.375 -0.2108  1.3301  1.9951
  628MOL0     H84743   1.939   3.394   2.518  1.3484 -3.8922 -0.2784
  628MOL0     H84744   1.350   3.379   2.336  3.0730 -1.0846 -0.5271
  628MOL0     H84745   1.175   3.473   2.468  0.4205  1.6980  0.2767
  628MOL0     H84746   1.083   3.288   2.821 -1.7198  1.2550 -0.7416
  628MOL0     H84747   1.190   3.387   2.921  0.0388  1.7571 -0.7885
  628MOL0     H84748   0.953   3.400   3.001  2.1121 -1.7676 -0.2971
  628MOL0     H84749   0.972   3.554   2.921  4.0088 -0.2013  2.2473
  628MOL0     H84750   0.879   3.430   2.701  0.9645 -1.2957  0.6441
  628MOL0     H84751   0.787   3.502   2.837  0.1609 -1.0490  2.3753
  628MOL0     H84752   0.838   3.204   2.837  0.6966  1.7675 -0.6578
  628MOL0     H84753   0.755   3.287   2.950 -0.2363 -5.9325  0.5578
  628MOL0     H84754   0.665   3.277   2.656 -0.7980  1.2844 -0.3842
  628MOL0     H84755   0.592   3.379   2.777 -0.4375  0.7110  2.3795
  628MOL0     H84756   0.485   3.129   2.718 -0.4194 -2.0713  0.5938
  628MOL0     H84757   0.616   3.072   2.814 -0.1025  1.9058  0.6625
  628MOL0     H84758   0.540   3.241   2.998 -1.5484  2.2462 -0.1395
  628MOL0     H84759   0.443   3.099   2.960  2.3472 -0.2082  0.8188
  628MOL0     H84760   0.309   3.273   2.798 -1.1391 -0.4440  0.5251
  628MOL0     H84761   0.424   3.390   2.874  1.6475 -0.7754  4.1875
  628MOL0     H84762   1.367   3.344   2.832 -1.7067  0.1905  0.6819
  628MOL0     H84763   1.572   3.279   2.688 -0.5622 -1.9662  0.9366
  628MOL0     H84764   1.653   3.118   2.213  1.8261 -1.8350 -3.6389
  628MOL0     H84765   1.809   2.970   2.111 -1.5979 -0.9194  1.4786
  628MOL0     H84766   2.620   2.044   0.907 -0.8291 -0.9385  0.7742
  628MOL0     H84767   2.740   1.910   0.739 -2.0200 -1.9683 -1.9269
  628MOL0     H84768   2.893   1.470   0.727 -2.2231  1.5914 -0.0636
  628MOL0     H84769   2.907   1.268   0.587 -0.3774 -0.4148 -2.7042
  628MOL0     H84770   3.004   1.107   0.438  4.3000  1.5496 -0.7443
  628MOL0     H84771   2.840   1.164   0.348  0.5974  0.8176 -0.1552
  628MOL0     H84772   2.908   0.955   0.251  0.2828  0.0188 -0.8700
  628MOL0     H84773   3.075   0.996   0.271 -1.2018 -0.2755  0.8590
  628MOL0     H84774   3.074   1.147   0.100  0.8117 -0.9546 -0.3668
  628MOL0     H84775   2.909   1.196   0.100 -4.1036 -2.6696 -1.2661
  628MOL0     H84776   2.853   1.012  -0.056 -1.7558 -0.2203  3.3052
  628MOL0     H84777   2.934   0.901   0.036 -1.6015 -0.5109 -0.0320
  628MOL0     H84778   3.250   0.980  -0.217 -1.1146  2.2553 -2.3553
  628MOL0     H84779   3.096   1.502   0.290  1.6975 -0.3065  1.1140
  628MOL0     H84780   3.087   1.704   0.421 -3.4920  0.4400  0.3202
  629MOL0     O84781   1.338  11.355  10.194  0.9214  0.2269 -0.5751
  629MOL0     C84782   1.266  11.387  10.285  0.5213 -0.1463  0.3057
  629MOL0     O84783   1.135  11.416  10.273 -0.7956  0.6692 -0.3142
  629MOL0     C84784   1.067  11.419  10.156 -0.8602 -0.0213  0.3564
  629MOL0     C84785   1.112  11.455  10.023 -1.1678  0.8556  0.2828
  629MOL0     C84786   1.021  11.447   9.914  1.2700  0.4849 -0.0124
  629MOL0     C84787   0.881  11.427   9.939  0.6419  0.5930  0.1022
  629MOL0     O84788   0.794  11.425   9.839 -0.4070 -0.1881  0.1228
  629MOL0     C84789   0.798  11.532   9.742  0.4764  0.3163 -0.1477
  629MOL0     C84790   0.666  11.570   9.680  0.7031  1.1146  1.1201
  629MOL0     C84791   0.544  11.585   9.767  0.2567  0.3819 -0.0502
  629MOL0     C84792   0.476  11.452   9.818 -0.1519 -0.8220  0.2094
  629MOL0     C84793   0.352  11.470   9.884 -0.4721  0.3250  0.0432
  629MOL0     C84794   0.276  11.332   9.883  0.6799  0.0187 -0.2104
  629MOL0     C84795   0.153  11.339   9.977  0.1287 -0.3091  0.2854
  629MOL0     C84796   0.060  11.212   9.964 -0.3730 -1.0167 -0.2101
  629MOL0     N84797   0.128  11.090  10.013 -0.3334  1.0585  0.4309
  629MOL0     C84798   0.229  11.071  10.104  1.2385 -0.3632 -0.3985
  629MOL0     C84799   0.248  10.940  10.102 -0.6468  0.0307  0.1892
  629MOL0     C84800   0.330  10.855  10.195  0.4310  0.5803  0.2182
  629MOL0     C84801   0.443  10.765  10.129  0.0512  0.1106  0.7155
  629MOL0     C84802   0.376  10.642  10.057  0.1719  0.9886  0.4229
  629MOL0     C84803   0.470  10.539   9.996  0.5204 -0.3477  0.6806
  629MOL0     O84804   0.565  10.498  10.092 -0.5945 -0.3697 -0.0183
  629MOL0     C84805   0.685  10.449  10.042 -0.0478  0.6650 -0.4864
  629MOL0     C84806   0.689  10.336   9.978 -0.3445  1.2728 -0.1033
  629MOL0     C84807   0.812  10.288   9.927  0.1526 -0.0343  0.3721
  629MOL0     C84808   0.798  10.162   9.851 -0.0873 -0.0475  0.1240
  629MOL0     C84809   0.935  10.356   9.962  0.6287  0.0396  0.0362
  629MOL0     C84810   1.069  10.301   9.930  0.1297 -0.2510 -0.6942
  629MOL0     O84811   1.161  10.328  10.028  0.5339 -0.1594  0.1000
  629MOL0     C84812   1.292  10.292  10.024 -0.5917 -0.5056 -0.2553
  629MOL0     C84813   1.372  10.286   9.914  0.5150  0.1614 -0.3309
  629MOL0     C84814   1.506  10.243   9.921 -0.1288 -0.2223  0.6578
  629MOL0     C84815   1.571  10.198  10.039  1.3462  0.5578  0.0899
  629MOL0     O84816   1.694  10.141  10.048  0.3946 -0.2387  0.1882
  629MOL0     C84817   1.781  10.152   9.936 -0.0426 -0.2822 -0.4758
  629MOL0     C84818   1.928  10.130   9.991 -0.1598 -0.2859  0.2269
  629MOL0     C84819   1.961   9.981   9.989  0.6362  0.0521  0.1252
  629MOL0     C84820   2.107   9.960  10.039 -0.1608  0.3480 -0.0664
  629MOL0     C84821   2.202   9.895   9.936 -0.5523 -0.0403 -0.6070
  629MOL0     C84822   2.254   9.990   9.820  0.0352 -0.0394 -0.7192
  629MOL0     C84823   2.384  10.070   9.855  0.4797  0.2809 -0.2691
  629MOL0     C84824   2.364  10.219   9.850  0.2681  0.0925 -0.2662
  629MOL0    Cl84825   2.454  10.309   9.974 -0.0877 -0.5589 -0.1835
  629MOL0     C84826   1.489  10.211  10.156 -0.0387  0.4318 -0.7039
  629MOL0     C84827   1.353  10.261  10.150  0.7322 -0.1368  0.5069
  629MOL0     O84828   1.080  10.238   9.828  0.1055  0.2604 -0.1139
  629MOL0     C84829   0.919  10.474  10.029  0.4979 -1.1740  0.0019
  629MOL0     C84830   0.796  10.520  10.065 -0.5001 -0.4239 -0.2289
  629MOL0     N84831   0.175  10.885   9.999 -0.0837  0.1477 -0.1298
  629MOL0     N84832   0.106  10.978   9.943 -0.6699 -0.3459  0.2357
  629MOL0     C84833   0.839  11.407  10.070  0.3046 -0.5523  0.5608
  629MOL0     C84834   0.927  11.417  10.172 -0.4859  0.2263 -0.7061
  629MOL0     C84835   1.329  11.370  10.418 -1.1821 -0.1739  0.0720
  629MOL0     C84836   1.467  11.350  10.437 -0.0564 -0.0927  0.3858
  629MOL0     C84837   1.527  11.367  10.561 -0.4044  0.5081  0.3796
  629MOL0     C84838   1.444  11.386  10.675  0.6016 -0.1569  0.1579
  629MOL0     O84839   1.501  11.412  10.796 -0.5976  0.8224 -0.4632
  629MOL0     C84840   1.421  11.444  10.910  0.2150  0.1242 -0.6893
  629MOL0     C84841   1.523  11.422  11.034  0.1098 -0.6381  0.0872
  629MOL0     C84842   1.525  11.280  11.084  0.8144  0.4314 -0.1373
  629MOL0     C84843   1.487  11.260  11.229  0.0624  0.2064  0.1587
  629MOL0     C84844   1.534  11.128  11.275 -0.2183  0.4994 -0.1149
  629MOL0     C84845   1.570  11.027  11.322  0.4176 -0.2176 -0.6470
  629MOL0     C84846   1.306  11.405  10.658  0.4101 -0.4442 -0.8478
  629MOL0     C84847   1.250  11.395  10.528 -0.1947 -0.7579  0.4812
  629MOL0     H84848   1.219  11.464  10.002 -1.1814  3.1914  0.9222
  629MOL0     H84849   1.050  11.457   9.810  0.0576 -0.2720 -0.4411
  629MOL0     H84850   0.844  11.621   9.786 -3.0645  2.7797 -0.9848
  629MOL0     H84851   0.865  11.491   9.666 -0.1984  0.5608 -0.8903
  629MOL0     H84852   0.668  11.665   9.627 -3.7822  0.5467 -0.4542
  629MOL0     H84853   0.641  11.492   9.607  0.9888 -1.2554  3.4007
  629MOL0     H84854   0.561  11.660   9.845 -1.6396  1.9479 -1.0709
  629MOL0     H84855   0.464  11.625   9.704 -2.0155 -0.8112  1.8774
  629MOL0     H84856   0.451  11.398   9.726  0.5463 -0.2968 -0.3044
  629MOL0     H84857   0.540  11.386   9.877 -0.2145 -0.5472  0.5876
  629MOL0     H84858   0.374  11.489   9.989 -0.2090 -1.3713  0.3297
  629MOL0     H84859   0.308  11.565   9.853 -2.4327  0.0302  1.7333
  629MOL0     H84860   0.242  11.332   9.779 -0.3168 -1.1156  0.0888
  629MOL0     H84861   0.332  11.242   9.910 -0.8046 -0.5483  1.1593
  629MOL0     H84862   0.189  11.343  10.080 -2.5101  5.6145  1.4307
  629MOL0     H84863   0.105  11.434   9.951  3.7681  1.8224  0.5814
  629MOL0     H84864   0.024  11.213   9.860 -1.0810  1.2430  0.0059
  629MOL0     H84865  -0.028  11.222  10.028  1.4411 -0.6396  2.3640
  629MOL0     H84866   0.262  11.157  10.162  1.0739 -0.4012 -0.2497
  629MOL0     H84867   0.387  10.930  10.252 -1.3236  1.0665  1.4218
  629MOL0     H84868   0.255  10.802  10.254  0.9240 -1.0803 -0.5917
  629MOL0     H84869   0.508  10.736  10.212 -0.0146  2.4941  1.6861
  629MOL0     H84870   0.493  10.834  10.060 -2.0346  0.7922 -0.1789
  629MOL0     H84871   0.304  10.683   9.987  0.1452  5.5539  2.7475
  629MOL0     H84872   0.308  10.594  10.128 -1.0624  2.4824  0.2853
  629MOL0     H84873   0.507  10.573   9.899  2.1935  0.1365  1.4556
  629MOL0     H84874   0.397  10.462   9.971  0.6526 -1.3824  3.1819
  629MOL0     H84875   0.597  10.281   9.960  0.5595 -0.3780  0.1127
  629MOL0     H84876   0.809  10.189   9.746 -0.6183  2.6995  0.6891
  629MOL0     H84877   0.876  10.088   9.875  0.0298 -0.6120 -1.8591
  629MOL0     H84878   0.701  10.124   9.884 -0.7605  1.4239 -0.1031
  629MOL0     H84879   1.329  10.313   9.818 -0.6532 -0.7748 -0.0928
  629MOL0     H84880   1.551  10.230   9.823  1.1895 -1.4827  1.3780
  629MOL0     H84881   1.748  10.074   9.866 -1.1929 -0.7314  0.5227
  629MOL0     H84882   1.766  10.250   9.889  0.4448 -0.1001 -0.2507
  629MOL0     H84883   2.002  10.163   9.917  0.7590 -2.6221 -0.0040
  629MOL0     H84884   1.946  10.189  10.081 -1.2717 -0.5072  0.6101
  629MOL0     H84885   1.939   9.924   9.898 -3.1357 -3.2827  2.8170
  629MOL0     H84886   1.891   9.939  10.061 -1.1079  0.3479 -1.3432
  629MOL0     H84887   2.147  10.054  10.080  1.2581 -0.0219 -0.5783
  629MOL0     H84888   2.095   9.897  10.127  2.5210  1.5455  1.2878
  629MOL0     H84889   2.143   9.814   9.893 -0.5264  0.2578 -1.2072
  629MOL0     H84890   2.284   9.847   9.990  1.3995  1.3313 -2.2032
  629MOL0     H84891   2.275   9.933   9.730  0.0592 -1.1066 -0.0632
  629MOL0     H84892   2.164  10.050   9.804 -1.2981 -0.3999  3.8786
  629MOL0     H84893   2.456  10.023   9.788 -2.4306 -0.5110 -3.1152
  629MOL0     H84894   2.423  10.037   9.952  2.5438  1.5770 -0.6061
  629MOL0     H84895   2.267  10.263   9.875  0.5594  0.3542  0.4430
  629MOL0     H84896   2.392  10.259   9.752  1.2005 -0.5436 -0.2728
  629MOL0     H84897   1.520  10.182  10.256 -1.3761  1.1671 -0.0382
  629MOL0     H84898   1.304  10.291  10.242  2.2962  0.7349  1.0955
  629MOL0     H84899   1.009  10.529  10.052  1.3209 -2.7143  0.5524
  629MOL0     H84900   0.788  10.614  10.120 -2.4147 -0.6529 -0.0239
  629MOL0     H84901   0.732  11.397  10.088 -0.2013 -0.0572 -1.8739
  629MOL0     H84902   0.882  11.396  10.269 -0.7975  2.8380 -0.2126
  629MOL0     H84903   1.522  11.337  10.344 -0.2716 -0.3924  0.2992
  629MOL0     H84904   1.634  11.367  10.582  0.2997  0.8621 -2.7225
  629MOL0     H84905   1.398  11.551  10.918  0.4511  0.3677 -2.6868
  629MOL0     H84906   1.333  11.382  10.929  0.3216 -0.0466 -0.7487
  629MOL0     H84907   1.473  11.478  11.114 -0.4246 -1.9004  0.6578
  629MOL0     H84908   1.627  11.453  11.020  0.1254 -0.5991  0.2895
  629MOL0     H84909   1.620  11.232  11.060  0.9558  0.0685  1.1078
  629MOL0     H84910   1.445  11.225  11.035 -0.6779  2.5158 -0.1856
  629MOL0     H84911   1.380  11.280  11.243 -0.3565 -0.8227 -1.3365
  629MOL0     H84912   1.543  11.337  11.282 -0.4081  0.3608  0.4393
  629MOL0     H84913   1.599  10.932  11.363  3.7852  1.2754  0.8896
  629MOL0     H84914   1.240  11.414  10.744 -1.1461 -0.2907 -2.0275
  629MOL0     H84915   1.144  11.382  10.510 -0.3998 -2.4893  2.4758
  630MOL0     O84916   8.516   0.532   7.723 -0.4201  0.6682  0.4368
  630MOL0     C84917   8.609   0.466   7.759 -0.0298 -0.5152  0.1153
  630MOL0     O84918   8.615   0.409   7.885 -0.0104 -0.0345 -0.0695
  630MOL0     C84919   8.506   0.425   7.964  0.4275 -0.2487 -0.2487
  630MOL0     C84920   8.448   0.313   8.015  0.4538 -0.4437 -0.3656
  630MOL0     C84921   8.323   0.300   8.081 -0.9293 -0.1348  0.2851
  630MOL0     C84922   8.250   0.418   8.099 -0.5229 -0.3252  0.3032
  630MOL0     O84923   8.128   0.420   8.154  0.5542  0.3112  0.3548
  630MOL0     C84924   8.084   0.307   8.223  0.2629 -0.6455  0.0177
  630MOL0     C84925   8.163   0.285   8.358  0.3712  0.0373 -0.7305
  630MOL0     C84926   8.084   0.191   8.462  0.0877 -0.0848  0.3320
  630MOL0     C84927   8.184   0.160   8.568 -0.1261 -0.3789  0.1209
  630MOL0     C84928   8.133   0.116   8.697 -0.8218  1.3223  1.3773
  630MOL0     C84929   8.236   0.085   8.802 -0.5653 -1.0885 -1.0283
  630MOL0     C84930   8.186   0.058   8.937  0.0440  0.3439  0.0127
  630MOL0     C84931   8.119   0.171   9.000 -0.3291  0.1361  0.5874
  630MOL0     N84932   8.101   0.152   9.145  0.2742  0.7597  0.0133
  630MOL0     C84933   8.184   0.187   9.250 -0.6566  0.5294  0.8021
  630MOL0     C84934   8.108   0.170   9.358 -0.3080  0.1925  0.2582
  630MOL0     C84935   8.147   0.213   9.494 -0.1375  0.6978  0.0959
  630MOL0     C84936   8.133   0.094   9.587  0.1478 -0.4900 -0.3599
  630MOL0     C84937   8.166   0.139   9.728 -0.0077 -0.0513  0.1865
  630MOL0     C84938   8.260   0.049   9.811  0.1457 -0.8715 -0.1638
  630MOL0     O84939   8.183  -0.048   9.882  0.3489 -0.6594 -0.1155
  630MOL0     C84940   8.256  -0.153   9.937 -0.4257  0.5151 -0.1743
  630MOL0     C84941   8.320  -0.256   9.861  0.6191 -0.8463 -0.0408
  630MOL0     C84942   8.392  -0.352   9.917  0.7606  0.3617 -0.0369
  630MOL0     C84943   8.443  -0.458   9.814  1.2757 -0.0092  0.7124
  630MOL0     C84944   8.402  -0.364  10.060 -0.2808 -0.3271 -0.1473
  630MOL0     C84945   8.482  -0.463  10.141  0.6680  0.3447 -0.5395
  630MOL0     O84946   8.519  -0.426  10.269 -0.3525 -0.2081 -0.5896
  630MOL0     C84947   8.579  -0.506  10.359 -0.0227  0.5465 -0.2200
  630MOL0     C84948   8.683  -0.598  10.333 -0.4775 -0.2090 -0.6417
  630MOL0     C84949   8.763  -0.662  10.439  0.4412 -0.5843 -0.1392
  630MOL0     C84950   8.737  -0.648  10.569  0.0367  0.2303 -0.3877
  630MOL0     O84951   8.800  -0.724  10.669  0.1802  0.0963 -0.0341
  630MOL0     C84952   8.774  -0.690  10.807  0.3870  0.2744  0.1128
  630MOL0     C84953   8.824  -0.801  10.902  0.0867  0.0345 -0.0885
  630MOL0     C84954   8.770  -0.766  11.047  0.5311  0.7052 -0.4359
  630MOL0     C84955   8.782  -0.884  11.139  0.5313  0.1703 -0.4119
  630MOL0     C84956   8.664  -0.986  11.125 -1.2990 -0.1471  0.1884
  630MOL0     C84957   8.528  -0.936  11.177 -0.1274 -0.7586  0.9173
  630MOL0     C84958   8.497  -0.950  11.323  0.3605  0.4318  0.6587
  630MOL0     C84959   8.357  -0.899  11.354  2.1019 -0.5834 -0.3931
  630MOL0    Cl84960   8.359  -0.718  11.376  0.5727  0.3240 -0.1326
  630MOL0     C84961   8.633  -0.555  10.599  0.1734 -0.2705  0.3538
  630MOL0     C84962   8.556  -0.486  10.494 -1.4118  1.1116 -1.2027
  630MOL0     O84963   8.513  -0.566  10.090 -0.3722  0.4702  0.0247
  630MOL0     C84964   8.336  -0.267  10.136  0.2886  1.5283  0.5511
  630MOL0     C84965   8.274  -0.159  10.073 -0.7121  0.1933  0.2133
  630MOL0     N84966   7.983   0.131   9.318  1.2663  0.0914  0.2004
  630MOL0     N84967   7.980   0.115   9.192 -0.0574 -0.5008  0.6237
  630MOL0     C84968   8.308   0.540   8.058 -0.0647  0.2893 -0.5406
  630MOL0     C84969   8.431   0.547   7.983  0.1849 -0.1140  0.8816
  630MOL0     C84970   8.733   0.460   7.677  0.3628  0.6834 -0.4614
  630MOL0     C84971   8.742   0.544   7.564 -0.3465  0.6488  0.0533
  630MOL0     C84972   8.860   0.545   7.494 -0.4148 -0.0062 -0.2285
  630MOL0     C84973   8.975   0.476   7.545  0.7861 -0.9527  0.1371
  630MOL0     O84974   9.095   0.511   7.489  0.2290  0.7456  0.1205
  630MOL0     C84975   9.212   0.412   7.482  0.8616  1.3262  0.3856
  630MOL0     C84976   9.247   0.401   7.331  0.6401  0.5325  0.3970
  630MOL0     C84977   9.364   0.306   7.303 -0.9692  0.0386  0.4489
  630MOL0     C84978   9.355   0.257   7.153 -0.9345 -0.4415  0.0994
  630MOL0     C84979   9.288   0.126   7.136  0.5146  0.1823 -0.2392
  630MOL0     C84980   9.230   0.017   7.123 -0.9536 -0.4251  0.4992
  630MOL0     C84981   8.971   0.401   7.663 -0.5333 -0.8513 -0.0427
  630MOL0     C84982   8.842   0.393   7.724 -0.0844 -0.3550  0.0203
  630MOL0     H84983   8.500   0.221   7.990  0.1629  0.0649 -3.0811
  630MOL0     H84984   8.283   0.203   8.109 -1.2287 -0.3135 -0.7374
  630MOL0     H84985   7.979   0.320   8.253 -0.4871 -2.1722 -1.7128
  630MOL0     H84986   8.098   0.213   8.169  3.0687  0.7596 -1.9063
  630MOL0     H84987   8.261   0.241   8.339  1.4511  2.1195 -0.1816
  630MOL0     H84988   8.193   0.379   8.404  2.5826 -0.3129 -1.3876
  630MOL0     H84989   8.010   0.262   8.499  1.3251  3.8462 -3.9175
  630MOL0     H84990   8.044   0.103   8.412 -0.5932  0.2847  0.2142
  630MOL0     H84991   8.246   0.073   8.541 -0.9823 -0.9886  0.0700
  630MOL0     H84992   8.249   0.245   8.591 -4.9273  2.8712  3.5533
  630MOL0     H84993   8.086   0.209   8.731 -0.6532  1.2148  1.9227
  630MOL0     H84994   8.059   0.036   8.684  0.9255  0.0604 -1.8681
  630MOL0     H84995   8.282  -0.006   8.764 -1.8548 -1.3465 -2.0760
  630MOL0     H84996   8.311   0.163   8.814  0.6080 -2.3621  0.2482
  630MOL0     H84997   8.137  -0.039   8.945  1.9067 -0.8859 -2.0468
  630MOL0     H84998   8.282   0.047   8.990  0.8369  1.0051 -1.2382
  630MOL0     H84999   8.020   0.187   8.957 -0.1528  0.4070  0.2817
  630MOL0     H85000   8.178   0.262   8.984 -0.9807  0.6691  1.1672
  630MOL0     H85001   8.288   0.217   9.253  0.5547 -3.1496  0.7295
  630MOL0     H85002   8.251   0.246   9.486  0.6125 -1.0154  1.7771
  630MOL0     H85003   8.086   0.293   9.535 -1.9555 -1.4168  1.8182
  630MOL0     H85004   8.204   0.018   9.552 -2.5367 -1.4959 -4.2895
  630MOL0     H85005   8.035   0.048   9.580  0.8006 -1.7214 -2.0784
  630MOL0     H85006   8.077   0.155   9.789 -0.2443 -2.3733  0.5152
  630MOL0     H85007   8.209   0.240   9.727  1.6860 -0.7460 -0.9406
  630MOL0     H85008   8.321   0.118   9.870 -0.3612 -0.6354  0.0877
  630MOL0     H85009   8.332   0.005   9.741  2.7935  0.7738  1.3831
  630MOL0     H85010   8.310  -0.246   9.753  3.2512 -1.1353 -0.3934
  630MOL0     H85011   8.376  -0.473   9.729 -0.2240 -2.0352  2.1366
  630MOL0     H85012   8.539  -0.432   9.769 -0.0776  0.3000 -2.1846
  630MOL0     H85013   8.463  -0.556   9.858  1.1558 -0.7832 -0.8959
  630MOL0     H85014   8.722  -0.609  10.233  0.9218 -1.3915  0.0041
  630MOL0     H85015   8.837  -0.732  10.403  0.4137 -0.5229 -0.3159
  630MOL0     H85016   8.826  -0.596  10.829  1.2230 -0.2214  0.2907
  630MOL0     H85017   8.668  -0.681  10.829  0.4590  0.9482  0.2143
  630MOL0     H85018   8.783  -0.895  10.865  2.1187 -0.7183 -0.5750
  630MOL0     H85019   8.933  -0.806  10.910  0.1319  2.2629  1.6100
  630MOL0     H85020   8.665  -0.735  11.043  0.0930 -0.4849  0.8787
  630MOL0     H85021   8.827  -0.681  11.085 -2.8879  1.5489  3.5408
  630MOL0     H85022   8.872  -0.944  11.124 -0.3178 -1.1102 -0.5419
  630MOL0     H85023   8.777  -0.836  11.238  0.7975  3.9589 -2.0836
  630MOL0     H85024   8.696  -1.079  11.173 -0.1279  0.0032 -0.2754
  630MOL0     H85025   8.655  -1.014  11.020 -0.0183 -2.3534  0.6080
  630MOL0     H85026   8.518  -0.832  11.145  0.7700 -0.2937  2.0733
  630MOL0     H85027   8.447  -0.988  11.125 -0.7572  0.2799  0.8411
  630MOL0     H85028   8.567  -0.886  11.377  2.4234  0.8973 -2.3307
  630MOL0     H85029   8.488  -1.056  11.351 -0.5035 -0.2209 -1.8575
  630MOL0     H85030   8.329  -0.937  11.452  1.3238 -1.6681 -1.0149
  630MOL0     H85031   8.278  -0.934  11.287  0.8178  1.4696 -0.0062
  630MOL0     H85032   8.611  -0.531  10.703  1.8063  0.4332  0.5667
  630MOL0     H85033   8.492  -0.402  10.520 -1.7304  1.1040 -1.9454
  630MOL0     H85034   8.337  -0.273  10.244 -0.5333 -0.1641  0.5034
  630MOL0     H85035   8.233  -0.081  10.136  0.4861  0.4285  0.7309
  630MOL0     H85036   8.257   0.631   8.088  0.4639 -0.1857  2.0084
  630MOL0     H85037   8.470   0.644   7.953  1.7137 -0.9678 -0.0334
  630MOL0     H85038   8.659   0.607   7.533 -1.3520 -0.0487  1.2126
  630MOL0     H85039   8.859   0.605   7.403 -3.3381 -1.2126 -1.1140
  630MOL0     H85040   9.298   0.437   7.545  0.8393  1.3353  0.4117
  630MOL0     H85041   9.178   0.311   7.507  0.1351  1.3925 -0.2905
  630MOL0     H85042   9.272   0.501   7.296 -0.6770  0.5206 -0.6657
  630MOL0     H85043   9.167   0.375   7.261  2.1864  1.3581 -1.7727
  630MOL0     H85044   9.366   0.212   7.360 -3.6583 -1.5703 -1.8346
  630MOL0     H85045   9.453   0.369   7.313  0.4235 -1.9631  1.7446
  630MOL0     H85046   9.451   0.247   7.101 -0.0811 -3.6568  1.9939
  630MOL0     H85047   9.311   0.339   7.095  0.3812  0.2484  0.0339
  630MOL0     H85048   9.194  -0.083   7.112 -1.7996 -0.7570  4.5263
  630MOL0     H85049   9.063   0.361   7.704  0.1115  0.6787  0.0405
  630MOL0     H85050   8.827   0.333   7.814 -4.0699 -0.9792 -0.8712
  631MOL0     O85051   9.594   2.276   3.940  0.3248 -0.7810  0.6168
  631MOL0     C85052   9.705   2.292   3.895  0.0124 -0.3430 -0.5337
  631MOL0     O85053   9.792   2.386   3.922 -0.2888 -0.0381 -0.2594
  631MOL0     C85054   9.783   2.485   4.018 -0.1831  0.0434  0.9025
  631MOL0     C85055   9.661   2.544   4.053 -0.4798  0.0855 -0.4520
  631MOL0     C85056   9.644   2.651   4.141 -0.1960 -0.2920 -0.0051
  631MOL0     C85057   9.769   2.702   4.194  0.5407 -0.5703 -0.9194
  631MOL0     O85058   9.754   2.804   4.284 -0.3189  0.6651 -0.8960
  631MOL0     C85059   9.838   2.813   4.395  0.1905 -0.9527 -0.1504
  631MOL0     C85060   9.816   2.944   4.465  0.3125 -0.4486 -0.1847
  631MOL0     C85061   9.888   3.059   4.379  0.0111 -0.1969  0.1789
  631MOL0     C85062  10.039   3.041   4.388 -0.4100  0.5343  0.4521
  631MOL0     C85063  10.099   3.134   4.494  0.6748  0.5465  0.6489
  631MOL0     C85064  10.241   3.142   4.514  0.3414  0.2972 -1.0243
  631MOL0     C85065  10.283   3.275   4.566 -0.5003  0.2977  0.0430
  631MOL0     C85066  10.436   3.304   4.606  0.7040  0.2092  0.1345
  631MOL0     N85067  10.524   3.316   4.489  0.2301 -0.1095  0.1967
  631MOL0     C85068  10.651   3.287   4.504 -0.7001  0.4387  0.9683
  631MOL0     C85069  10.712   3.302   4.387 -0.0127 -0.3593 -0.0009
  631MOL0     C85070  10.856   3.277   4.370  0.2947  0.8675  0.1039
  631MOL0     C85071  10.895   3.276   4.223 -0.4497  0.4402  0.1056
  631MOL0     C85072  11.052   3.271   4.224 -0.4450 -0.2789 -0.5075
  631MOL0     C85073  11.111   3.246   4.084 -1.0490  0.0042  0.3188
  631MOL0     O85074  11.089   3.363   4.003  0.8453  0.5099 -0.1353
  631MOL0     C85075  11.138   3.362   3.876 -0.0558  0.1800 -0.8681
  631MOL0     C85076  11.260   3.317   3.831 -0.9275  0.9990 -0.0316
  631MOL0     C85077  11.299   3.331   3.701  0.7388  0.7777  0.9299
  631MOL0     C85078  11.441   3.302   3.667 -0.4536  0.2988  0.6296
  631MOL0     C85079  11.203   3.370   3.606 -1.5334 -0.0456  0.0938
  631MOL0     C85080  11.230   3.366   3.465  0.5163 -0.4219  0.6602
  631MOL0     O85081  11.234   3.488   3.395  0.0966 -0.2949 -0.1514
  631MOL0     C85082  11.251   3.491   3.260  0.1494  0.1480 -0.6306
  631MOL0     C85083  11.144   3.504   3.172 -0.2327 -0.4596  0.6033
  631MOL0     C85084  11.158   3.485   3.034  0.5066  0.3925  0.1785
  631MOL0     C85085  11.276   3.437   2.985 -1.1864  0.6270 -0.3568
  631MOL0     O85086  11.260   3.379   2.866  0.8668  0.8075 -0.0727
  631MOL0     C85087  11.364   3.414   2.778 -0.1752  0.7691 -0.2697
  631MOL0     C85088  11.346   3.338   2.651  0.1478  0.4168  0.1366
  631MOL0     C85089  11.423   3.205   2.631  0.3780  0.6278 -0.0423
  631MOL0     C85090  11.334   3.093   2.568  0.8344 -0.5347  0.6333
  631MOL0     C85091  11.356   3.116   2.417 -0.1981 -0.1971  0.5690
  631MOL0     C85092  11.468   3.013   2.361 -0.0565 -0.9232 -0.6215
  631MOL0     C85093  11.491   3.032   2.214 -0.3320  0.1781 -0.5731
  631MOL0     C85094  11.582   2.940   2.164 -0.8366 -0.3219 -0.0144
  631MOL0    Cl85095  11.745   2.945   2.237  0.3382 -0.0005 -0.2003
  631MOL0     C85096  11.395   3.418   3.069 -0.2987 -0.0891 -0.3344
  631MOL0     C85097  11.379   3.445   3.208  0.8827  0.4574 -0.4371
  631MOL0     O85098  11.251   3.253   3.410  0.1883  0.1254 -0.2576
  631MOL0     C85099  11.076   3.409   3.648 -0.2065  0.1247  0.1549
  631MOL0     C85100  11.048   3.413   3.787 -1.0013 -0.0328  0.4175
  631MOL0     N85101  10.613   3.340   4.292  0.5050 -0.0053 -0.5273
  631MOL0     N85102  10.502   3.360   4.360 -0.1923 -0.0332 -1.0467
  631MOL0     C85103   9.894   2.647   4.158 -0.8133  0.4959  0.5365
  631MOL0     C85104   9.897   2.537   4.072 -0.0877  1.4134 -0.1609
  631MOL0     C85105   9.763   2.186   3.805  0.8592 -0.3714  0.1802
  631MOL0     C85106   9.832   2.231   3.687  0.1928 -0.0748 -0.0817
  631MOL0     C85107   9.888   2.136   3.596  0.6492 -0.8305  0.1999
  631MOL0     C85108   9.879   1.995   3.627  0.7942 -0.4277  0.2449
  631MOL0     O85109   9.906   1.902   3.532  0.0768 -0.1022 -0.6538
  631MOL0     C85110  10.040   1.895   3.499  0.2116  0.0091 -0.2028
  631MOL0     C85111  10.096   1.762   3.548  0.9593  0.0962  0.3016
  631MOL0     C85112  10.246   1.752   3.526 -0.4985 -0.7976 -0.0502
  631MOL0     C85113  10.308   1.627   3.586  0.4707 -0.4254 -0.5311
  631MOL0     C85114  10.260   1.501   3.512  0.3162 -0.2163  0.2892
  631MOL0     C85115  10.221   1.404   3.445 -0.6633  0.2901  0.8681
  631MOL0     C85116   9.823   1.963   3.749  0.4833  1.0842 -1.0775
  631MOL0     C85117   9.764   2.051   3.838  0.5107 -0.2683 -0.1192
  631MOL0     H85118   9.565   2.514   4.012 -1.6713  1.9716  0.7920
  631MOL0     H85119   9.547   2.696   4.164 -0.0523  1.3380 -2.2266
  631MOL0     H85120   9.809   2.732   4.462 -1.8716 -2.0511 -2.2452
  631MOL0     H85121   9.935   2.791   4.351 -0.1219  1.3794 -2.2142
  631MOL0     H85122   9.707   2.957   4.467  0.3977  0.4079 -0.7146
  631MOL0     H85123   9.850   2.939   4.569  2.7577 -3.1236 -0.9810
  631MOL0     H85124   9.845   3.052   4.278 -0.7758 -0.6708  0.5371
  631MOL0     H85125   9.857   3.158   4.412  3.1270  1.3333 -1.1122
  631MOL0     H85126  10.063   2.938   4.417  0.5093  0.9329  1.1567
  631MOL0     H85127  10.074   3.069   4.288 -0.1816  1.1685  0.7056
  631MOL0     H85128  10.070   3.232   4.455 -2.1988 -1.8423 -4.3955
  631MOL0     H85129  10.036   3.121   4.583 -2.9600  4.0023 -1.0517
  631MOL0     H85130  10.273   3.066   4.586 -0.9218  1.4479  0.8512
  631MOL0     H85131  10.287   3.118   4.418  1.1126 -0.3484 -0.5039
  631MOL0     H85132  10.262   3.354   4.493  2.7840  0.6920 -0.6348
  631MOL0     H85133  10.212   3.291   4.648  1.1853 -0.3924  1.7137
  631MOL0     H85134  10.454   3.215   4.667  0.0575 -1.3453 -1.8591
  631MOL0     H85135  10.439   3.394   4.669  0.6532 -0.3798  0.9952
  631MOL0     H85136  10.699   3.244   4.592  0.8002 -0.6515 -0.3444
  631MOL0     H85137  10.918   3.354   4.416  0.8309  1.2537 -1.2064
  631MOL0     H85138  10.873   3.177   4.412  2.7688 -1.1207 -4.7461
  631MOL0     H85139  10.867   3.371   4.177 -2.6373 -0.7556 -1.2229
  631MOL0     H85140  10.856   3.195   4.161  0.9123  0.1736 -0.4423
  631MOL0     H85141  11.072   3.196   4.301 -3.1398  0.7792  1.3948
  631MOL0     H85142  11.098   3.362   4.262 -1.4952 -0.1581  0.5479
  631MOL0     H85143  11.065   3.162   4.031 -1.9063  2.0983 -2.5866
  631MOL0     H85144  11.220   3.236   4.088 -0.9075  1.7507  2.2489
  631MOL0     H85145  11.336   3.290   3.903 -2.4855 -1.6981  0.7824
  631MOL0     H85146  11.494   3.397   3.656 -3.3951  1.8325 -1.6385
  631MOL0     H85147  11.480   3.230   3.739 -4.0298  0.8864  3.4218
  631MOL0     H85148  11.451   3.264   3.565  3.3943 -0.8144  1.2545
  631MOL0     H85149  11.047   3.524   3.215  0.3093 -0.7613  2.0458
  631MOL0     H85150  11.071   3.491   2.968  0.5088  0.2237  0.1585
  631MOL0     H85151  11.370   3.523   2.765 -0.7425  1.2118  2.6044
  631MOL0     H85152  11.456   3.374   2.821 -0.2668 -0.3426 -1.0626
  631MOL0     H85153  11.240   3.321   2.629 -0.0603 -0.1877  1.5161
  631MOL0     H85154  11.386   3.405   2.575  1.2061  0.2823  0.5584
  631MOL0     H85155  11.456   3.176   2.732 -0.6414  0.6909  0.3171
  631MOL0     H85156  11.511   3.232   2.572 -0.2462  0.9367 -0.8378
  631MOL0     H85157  11.365   2.993   2.598  0.4364 -0.0501  2.8264
  631MOL0     H85158  11.227   3.101   2.589  1.2183  0.0979  2.5255
  631MOL0     H85159  11.383   3.218   2.390  2.0157 -0.4655  1.5473
  631MOL0     H85160  11.263   3.105   2.361  0.5739  3.3169 -1.6976
  631MOL0     H85161  11.561   3.018   2.418 -1.1303 -0.3422  1.1727
  631MOL0     H85162  11.437   2.910   2.379  0.0188 -1.0291 -1.0840
  631MOL0     H85163  11.534   3.132   2.201  1.7503 -0.6001 -0.0860
  631MOL0     H85164  11.398   3.024   2.157  0.0427 -1.1369 -1.0322
  631MOL0     H85165  11.575   2.956   2.056 -1.4744  0.4879  0.1366
  631MOL0     H85166  11.545   2.840   2.186  1.1940 -2.1551 -3.8543
  631MOL0     H85167  11.493   3.376   3.049  0.6748  1.2581  1.3438
  631MOL0     H85168  11.461   3.412   3.271 -0.9022 -3.3597  0.1498
  631MOL0     H85169  11.004   3.442   3.574  0.4606 -1.6828 -1.3783
  631MOL0     H85170  10.953   3.434   3.836 -0.7538  0.2237  0.7842
  631MOL0     H85171   9.995   2.677   4.187  0.5118 -3.0750  0.0469
  631MOL0     H85172   9.995   2.507   4.035 -0.7215  2.2584 -2.7912
  631MOL0     H85173   9.827   2.336   3.657  0.8204 -0.0103  0.0302
  631MOL0     H85174   9.909   2.164   3.493 -1.9990 -0.4951 -0.3122
  631MOL0     H85175  10.049   1.892   3.390  0.2962 -0.1124 -0.1929
  631MOL0     H85176  10.091   1.979   3.546  0.6462 -0.7013  0.6461
  631MOL0     H85177  10.043   1.688   3.486  2.2751 -0.3595 -0.3112
  631MOL0     H85178  10.077   1.754   3.655  1.4683  1.0414  0.4661
  631MOL0     H85179  10.301   1.841   3.557  0.7716 -2.0593  1.5098
  631MOL0     H85180  10.268   1.767   3.420  0.1361  1.0191  0.2897
  631MOL0     H85181  10.268   1.622   3.687  4.5078  0.0213  1.2757
  631MOL0     H85182  10.416   1.635   3.574  0.7133  2.1638  2.1854
  631MOL0     H85183  10.177   1.335   3.377 -0.3938  1.1916 -0.2527
  631MOL0     H85184   9.810   1.862   3.787 -0.5904  0.7225 -2.3747
  631MOL0     H85185   9.718   2.021   3.932  0.8220 -0.7305 -0.1117
  632MOL0     O85186   2.519   1.037   7.533 -0.4290  0.1997 -0.0924
  632MOL0     C85187   2.472   1.025   7.424  0.4962 -0.0071  0.7725
  632MOL0     O85188   2.536   0.962   7.317  0.7118 -0.1753  0.3664
  632MOL0     C85189   2.660   0.904   7.327 -0.1774 -0.3893 -0.5355
  632MOL0     C85190   2.775   0.985   7.337  0.7993  0.1944  0.5772
  632MOL0     C85191   2.904   0.925   7.348  0.9809  0.0908 -0.1232
  632MOL0     C85192   2.925   0.787   7.351  0.3534  0.1402 -0.5024
  632MOL0     O85193   3.050   0.738   7.374 -0.3642 -0.1213  0.5248
  632MOL0     C85194   3.087   0.614   7.308  0.0805  0.3171  0.3391
  632MOL0     C85195   3.239   0.604   7.271 -0.1615 -0.8286  0.4784
  632MOL0     C85196   3.274   0.464   7.232 -0.2897  0.6947  0.6285
  632MOL0     C85197   3.221   0.352   7.323 -0.7009 -0.0222 -0.3587
  632MOL0     C85198   3.285   0.212   7.276 -0.3631  0.1472 -0.9136
  632MOL0     C85199   3.213   0.160   7.160 -0.2681  0.2604 -0.2293
  632MOL0     C85200   3.302   0.045   7.098  0.2257 -0.3481  0.2685
  632MOL0     C85201   3.308  -0.082   7.179  0.4174 -0.3638  0.8838
  632MOL0     N85202   3.195  -0.173   7.180 -1.1758 -0.4471 -0.0652
  632MOL0     C85203   3.075  -0.146   7.242  0.3023 -0.5402 -0.9303
  632MOL0     C85204   2.994  -0.244   7.194  0.3910 -0.2610 -0.2972
  632MOL0     C85205   2.843  -0.259   7.217  0.1495  0.0331 -0.4317
  632MOL0     C85206   2.819  -0.343   7.343  0.4829  0.3318  0.5852
  632MOL0     C85207   2.669  -0.385   7.371  0.4427  0.5041 -0.7519
  632MOL0     C85208   2.562  -0.266   7.365 -0.4364  0.3928 -0.1577
  632MOL0     O85209   2.535  -0.216   7.238 -0.3197 -0.2350  0.7835
  632MOL0     C85210   2.452  -0.117   7.224  0.7416  0.0587 -0.5602
  632MOL0     C85211   2.408  -0.022   7.317  0.6793  0.2715  0.2870
  632MOL0     C85212   2.311   0.077   7.296 -0.8602  0.4944  0.5204
  632MOL0     C85213   2.289   0.180   7.398  0.1228  0.1481 -0.1203
  632MOL0     C85214   2.247   0.087   7.169 -0.4339  0.3038 -0.2690
  632MOL0     C85215   2.132   0.178   7.136 -0.7751  0.0341 -0.0711
  632MOL0     O85216   2.135   0.225   7.003  0.1790 -0.3367 -0.4077
  632MOL0     C85217   2.020   0.288   6.960 -0.7358 -0.5029  0.0102
  632MOL0     C85218   1.986   0.421   6.992  0.2487  0.7783 -0.3682
  632MOL0     C85219   1.850   0.453   6.968 -0.4140 -0.6761 -0.5016
  632MOL0     C85220   1.764   0.368   6.910  0.1494  0.0513 -0.1025
  632MOL0     O85221   1.636   0.415   6.912  0.0051  1.3773  0.4346
  632MOL0     C85222   1.555   0.377   6.795  0.3705 -0.0620 -0.0517
  632MOL0     C85223   1.415   0.458   6.799  0.2094 -0.8707  0.8158
  632MOL0     C85224   1.308   0.390   6.714  0.8197  0.0885 -0.1461
  632MOL0     C85225   1.246   0.275   6.791  0.5369 -0.2805 -0.3077
  632MOL0     C85226   1.118   0.236   6.725 -0.2155 -0.5857 -0.6044
  632MOL0     C85227   1.147   0.185   6.579 -0.3465  0.6709  0.2979
  632MOL0     C85228   1.011   0.145   6.518  0.8730 -0.3623  0.6310
  632MOL0     C85229   1.042   0.124   6.360  0.3760  0.4568  0.6462
  632MOL0    Cl85230   1.143  -0.017   6.338  0.0397  0.1507 -0.0793
  632MOL0     C85231   1.806   0.243   6.857  0.5575 -0.3341 -1.2533
  632MOL0     C85232   1.938   0.204   6.882  0.8032  0.3515 -0.3690
  632MOL0     O85233   2.037   0.193   7.219 -0.3825 -0.2001  0.9210
  632MOL0     C85234   2.299  -0.000   7.066 -0.8663 -0.3310  0.1091
  632MOL0     C85235   2.402  -0.095   7.093 -0.0514 -0.4002 -0.6890
  632MOL0     N85236   3.075  -0.333   7.129  0.5006 -0.0082  0.4794
  632MOL0     N85237   3.200  -0.297   7.133 -0.4016 -0.2773 -0.3431
  632MOL0     C85238   2.808   0.707   7.351  0.5881  0.0227 -0.0261
  632MOL0     C85239   2.689   0.765   7.342 -0.4792 -0.1294 -0.2686
  632MOL0     C85240   2.350   1.116   7.394 -0.1376 -0.0077 -0.6755
  632MOL0     C85241   2.294   1.117   7.264 -0.3011  0.0001 -1.1836
  632MOL0     C85242   2.184   1.203   7.240  0.6014  0.3227 -0.3090
  632MOL0     C85243   2.120   1.277   7.345  0.1516  1.0086  1.5804
  632MOL0     O85244   2.014   1.355   7.323  0.5374  0.5728  0.0895
  632MOL0     C85245   1.934   1.330   7.202  0.2948  0.6543 -0.3801
  632MOL0     C85246   1.825   1.436   7.195  0.4908  0.0608  0.8139
  632MOL0     C85247   1.745   1.430   7.055 -0.1156  0.1536 -0.3414
  632MOL0     C85248   1.624   1.346   7.068 -0.4314  0.5999  0.8356
  632MOL0     C85249   1.654   1.205   7.043 -0.1357 -0.1419 -0.3012
  632MOL0     C85250   1.666   1.090   7.029 -0.1576 -0.4907  1.2397
  632MOL0     C85251   2.181   1.272   7.464  0.1585 -0.8387  0.2667
  632MOL0     C85252   2.284   1.190   7.489  0.2953 -0.3849 -0.1343
  632MOL0     H85253   2.770   1.093   7.336 -0.0214  0.2581  3.4400
  632MOL0     H85254   2.986   0.994   7.360  0.2645  0.8969  0.2917
  632MOL0     H85255   3.059   0.534   7.378 -0.5536  1.9308  2.0379
  632MOL0     H85256   3.021   0.614   7.221 -0.8533  1.7350  0.9968
  632MOL0     H85257   3.255   0.667   7.183 -1.6620 -0.9382  0.0941
  632MOL0     H85258   3.287   0.652   7.356  2.2133  2.0153 -2.2210
  632MOL0     H85259   3.223   0.451   7.136  0.9480 -3.3760  0.3695
  632MOL0     H85260   3.381   0.453   7.215 -0.3565 -3.0622  1.7890
  632MOL0     H85261   3.244   0.376   7.427 -2.1905 -3.3197  0.8477
  632MOL0     H85262   3.115   0.326   7.316 -0.3600 -1.4953 -0.3291
  632MOL0     H85263   3.392   0.228   7.260 -0.7984  1.5610 -2.8110
  632MOL0     H85264   3.273   0.150   7.365  3.5335  1.6787  0.9239
  632MOL0     H85265   3.117   0.120   7.194 -0.0075  0.5184  0.8376
  632MOL0     H85266   3.212   0.221   7.069 -1.2095 -1.3252 -1.3197
  632MOL0     H85267   3.266   0.037   6.995  1.6569  5.1407 -1.0026
  632MOL0     H85268   3.405   0.081   7.091  0.2018  0.0272  1.6445
  632MOL0     H85269   3.333  -0.059   7.283  0.6438  0.9587  0.5559
  632MOL0     H85270   3.388  -0.138   7.129  2.1646  0.2954  2.7771
  632MOL0     H85271   3.037  -0.053   7.283  1.6158 -0.4248  0.0812
  632MOL0     H85272   2.789  -0.165   7.233 -1.2644 -0.7526 -0.3547
  632MOL0     H85273   2.795  -0.297   7.126 -2.3968  3.8775 -0.9441
  632MOL0     H85274   2.854  -0.293   7.434 -1.8414 -0.7569  2.1789
  632MOL0     H85275   2.880  -0.433   7.341 -1.0217 -0.7988 -2.6425
  632MOL0     H85276   2.675  -0.430   7.471 -3.1262  3.0696  0.8194
  632MOL0     H85277   2.638  -0.459   7.296  2.1004  0.0095 -1.0048
  632MOL0     H85278   2.581  -0.184   7.434 -0.8831  1.9459 -1.8177
  632MOL0     H85279   2.466  -0.307   7.398 -0.6872  0.0211 -1.2994
  632MOL0     H85280   2.445  -0.015   7.419 -0.4781 -0.5437  0.7778
  632MOL0     H85281   2.347   0.270   7.380  1.7948 -1.1875 -1.9056
  632MOL0     H85282   2.181   0.197   7.408  0.0584 -1.0757  1.9302
  632MOL0     H85283   2.328   0.154   7.497 -1.5481 -0.1490  0.5040
  632MOL0     H85284   2.044   0.497   7.043 -0.5880 -0.8821  3.3340
  632MOL0     H85285   1.818   0.554   6.993 -1.3092 -1.2921  0.9690
  632MOL0     H85286   1.590   0.387   6.692 -7.1802 -0.2612 -3.2901
  632MOL0     H85287   1.537   0.269   6.808  1.7068 -0.2918  0.0044
  632MOL0     H85288   1.380   0.473   6.901  0.6607  0.1524  0.8318
  632MOL0     H85289   1.436   0.554   6.751 -1.5409 -0.9325 -0.1557
  632MOL0     H85290   1.337   0.375   6.610 -1.9920 -1.9527 -0.7761
  632MOL0     H85291   1.226   0.462   6.716  2.3992  1.9361  0.0106
  632MOL0     H85292   1.307   0.185   6.795  2.4855  1.0255  0.9087
  632MOL0     H85293   1.236   0.306   6.895 -1.9847  2.1943 -1.1402
  632MOL0     H85294   1.055   0.325   6.730 -2.3764 -2.1148  1.3487
  632MOL0     H85295   1.063   0.165   6.786  0.9690  0.4723  1.8514
  632MOL0     H85296   1.192   0.260   6.513  1.4630  3.3242  4.1009
  632MOL0     H85297   1.200   0.089   6.583  0.0042  0.6356 -2.8777
  632MOL0     H85298   0.938   0.226   6.524  1.4010  0.1083  0.8229
  632MOL0     H85299   0.957   0.058   6.557  0.3851 -0.0532  0.6415
  632MOL0     H85300   1.086   0.212   6.311  0.5128  0.9801  1.6891
  632MOL0     H85301   0.944   0.113   6.311 -0.4758 -2.9892  2.7794
  632MOL0     H85302   1.739   0.170   6.814  0.2442  0.2591 -1.7919
  632MOL0     H85303   1.968   0.102   6.859  1.8907  0.1130  1.8644
  632MOL0     H85304   2.258   0.002   6.965 -0.1508 -1.4572 -0.2357
  632MOL0     H85305   2.433  -0.161   7.013  0.3125 -1.4946  0.3186
  632MOL0     H85306   2.819   0.599   7.349 -0.4642 -0.1656 -3.9075
  632MOL0     H85307   2.600   0.705   7.358 -0.1969 -0.8320 -1.2371
  632MOL0     H85308   2.345   1.075   7.177  1.7553 -0.0864 -0.0082
  632MOL0     H85309   2.141   1.199   7.141 -2.6610  0.6005  0.9680
  632MOL0     H85310   1.994   1.331   7.110 -1.3702 -1.9507 -1.5852
  632MOL0     H85311   1.893   1.230   7.215  1.0852 -0.0881 -3.0211
  632MOL0     H85312   1.868   1.536   7.210  0.2183 -0.0126  2.2305
  632MOL0     H85313   1.758   1.412   7.278  0.7654  1.2458  1.4050
  632MOL0     H85314   1.799   1.400   6.966  1.4267  2.1070 -0.1305
  632MOL0     H85315   1.710   1.531   7.030  2.7139  1.4794  0.6021
  632MOL0     H85316   1.553   1.369   6.988 -0.8689 -3.3640 -0.1113
  632MOL0     H85317   1.572   1.364   7.162 -3.0559 -0.0874 -0.4062
  632MOL0     H85318   1.691   0.991   6.997 -0.5735 -0.6719  1.4676
  632MOL0     H85319   2.130   1.320   7.547 -0.0819 -1.6721  0.6174
  632MOL0     H85320   2.332   1.192   7.586  5.4948  0.0199 -2.3409
  633MOL0     O85321   6.174   6.145   6.268 -0.0308  0.0156 -0.1836
  633MOL0     C85322   6.207   6.105   6.382 -0.0163  0.0835  0.2366
  633MOL0     O85323   6.277   5.986   6.404  0.0031  0.3279  0.1370
  633MOL0     C85324   6.354   5.918   6.319 -0.1797  0.2366 -1.1463
  633MOL0     C85325   6.402   5.975   6.196 -0.7273  0.0192  0.7488
  633MOL0     C85326   6.484   5.899   6.117  0.3212 -0.7394 -0.1651
  633MOL0     C85327   6.494   5.757   6.138  0.0084 -0.7497 -0.2964
  633MOL0     O85328   6.562   5.679   6.059  0.3476 -0.3152  0.7297
  633MOL0     C85329   6.610   5.734   5.935 -0.0989 -0.0301 -0.4486
  633MOL0     C85330   6.649   5.610   5.853  0.0346 -1.0254 -0.4129
  633MOL0     C85331   6.614   5.623   5.709 -0.9178  0.5310  0.9879
  633MOL0     C85332   6.634   5.755   5.645 -0.7760 -0.4038  1.0919
  633MOL0     C85333   6.676   5.744   5.501 -0.4122  0.4937  0.4782
  633MOL0     C85334   6.666   5.873   5.426 -0.0464 -0.1176  0.1415
  633MOL0     C85335   6.717   5.855   5.282 -0.2618 -0.7038  0.2355
  633MOL0     C85336   6.661   5.979   5.203 -0.9809 -0.4560 -0.9667
  633MOL0     N85337   6.660   5.959   5.061  1.0581 -0.4966 -0.0826
  633MOL0     C85338   6.767   5.932   4.982  0.5582  1.5869  0.9229
  633MOL0     C85339   6.723   5.924   4.852 -0.0967  0.1984  0.0097
  633MOL0     C85340   6.816   5.886   4.737 -0.3576  0.6020  0.5172
  633MOL0     C85341   6.846   5.734   4.748  0.0465  0.2108 -0.5693
  633MOL0     C85342   6.990   5.705   4.701 -0.8189  0.1505  0.3437
  633MOL0     C85343   7.016   5.733   4.554 -0.0994 -0.4270  0.1829
  633MOL0     O85344   7.041   5.610   4.477  0.0029 -0.4956 -0.2546
  633MOL0     C85345   7.149   5.533   4.490 -0.3707  0.0880  0.5556
  633MOL0     C85346   7.250   5.565   4.576 -0.3295 -0.4031 -0.7443
  633MOL0     C85347   7.358   5.480   4.586 -0.2674 -0.0968 -0.8176
  633MOL0     C85348   7.466   5.542   4.670  0.0058  0.6027 -0.5425
  633MOL0     C85349   7.371   5.365   4.503 -0.1899 -0.3203 -0.8836
  633MOL0     C85350   7.485   5.270   4.508  0.9131 -0.4112  0.3722
  633MOL0     O85351   7.466   5.146   4.436  0.2712 -0.1504  0.0396
  633MOL0     C85352   7.580   5.095   4.373 -0.6191  0.3942  0.1306
  633MOL0     C85353   7.553   4.978   4.303 -0.3536  0.3522 -0.8698
  633MOL0     C85354   7.649   4.904   4.237  0.2095 -0.0075 -0.6965
  633MOL0     C85355   7.771   4.962   4.222  0.3360  0.0542  0.7665
  633MOL0     O85356   7.873   4.898   4.163  0.1909 -0.1192  0.8522
  633MOL0     C85357   7.845   4.830   4.036  1.0820 -1.6848  0.3766
  633MOL0     C85358   7.942   4.715   4.014  0.0713  0.1426  0.0751
  633MOL0     C85359   8.087   4.754   4.023 -0.2912 -0.0146 -0.3375
  633MOL0     C85360   8.183   4.643   3.959  0.4364 -0.5966  0.1033
  633MOL0     C85361   8.327   4.699   3.941 -0.1875 -0.5162 -0.0656
  633MOL0     C85362   8.427   4.594   4.001  0.3508  0.5827  0.1231
  633MOL0     C85363   8.567   4.642   3.970 -0.1131 -0.7508  0.3946
  633MOL0     C85364   8.608   4.589   3.831  0.1601 -0.5195 -0.4406
  633MOL0    Cl85365   8.799   4.572   3.815  0.5020 -0.6033  0.2846
  633MOL0     C85366   7.806   5.089   4.283 -0.9026  0.0091 -0.6166
  633MOL0     C85367   7.708   5.151   4.363 -0.2288 -0.4160  0.1499
  633MOL0     O85368   7.584   5.299   4.572  0.4467 -0.4134 -0.2112
  633MOL0     C85369   7.267   5.334   4.424  0.8558 -0.3017 -0.7938
  633MOL0     C85370   7.153   5.416   4.406  0.1043  1.0532 -0.3816
  633MOL0     N85371   6.589   5.958   4.849 -0.4450  0.2373  0.3792
  633MOL0     N85372   6.555   5.975   4.977 -0.3132  0.4833  0.7680
  633MOL0     C85373   6.452   5.699   6.259  1.6171  0.2639  0.0154
  633MOL0     C85374   6.391   5.784   6.357  0.6352  0.5695  0.3073
  633MOL0     C85375   6.142   6.178   6.488 -0.8532  0.2671  0.0142
  633MOL0     C85376   6.146   6.134   6.622  0.9316  0.5969  0.1854
  633MOL0     C85377   6.090   6.211   6.726  0.0587 -0.1791  0.3376
  633MOL0     C85378   6.007   6.321   6.696 -0.9645  0.8887 -0.3046
  633MOL0     O85379   5.942   6.376   6.801  0.3324  0.1617 -0.2267
  633MOL0     C85380   5.887   6.506   6.799 -0.5035 -0.2608 -0.0942
  633MOL0     C85381   5.864   6.539   6.950 -0.5167  0.5131  0.3781
  633MOL0     C85382   5.829   6.689   6.982 -0.0965  0.5897  0.1176
  633MOL0     C85383   5.925   6.798   6.930  0.6339  0.3015  0.6355
  633MOL0     C85384   5.931   6.918   7.016  0.9369  0.8545  0.5474
  633MOL0     C85385   5.949   7.007   7.097 -0.0759  0.5907 -0.8546
  633MOL0     C85386   6.006   6.365   6.561  0.2582 -0.0475 -1.1591
  633MOL0     C85387   6.088   6.304   6.466  0.0126  0.4495 -0.0330
  633MOL0     H85388   6.369   6.071   6.159 -2.9962 -1.5907 -1.7840
  633MOL0     H85389   6.527   5.944   6.028 -3.9033  0.3946 -1.8739
  633MOL0     H85390   6.530   5.778   5.875  1.1984  0.4146 -1.9206
  633MOL0     H85391   6.682   5.816   5.946 -0.3332 -0.1403  2.8232
  633MOL0     H85392   6.758   5.602   5.854  0.3593  2.0732  1.6249
  633MOL0     H85393   6.594   5.520   5.881 -5.1638  1.6706 -0.7972
  633MOL0     H85394   6.670   5.542   5.661  0.0263  1.3318  0.7200
  633MOL0     H85395   6.508   5.607   5.686 -0.6202 -1.1886  0.6916
  633MOL0     H85396   6.547   5.821   5.658  0.6542  1.7743  0.1719
  633MOL0     H85397   6.720   5.794   5.700  0.3127 -2.5854  1.0678
  633MOL0     H85398   6.779   5.707   5.490 -0.1424  1.3534 -0.1037
  633MOL0     H85399   6.617   5.662   5.461 -0.1779  0.4345  0.2516
  633MOL0     H85400   6.562   5.909   5.430  0.0495  0.3859 -1.3602
  633MOL0     H85401   6.720   5.939   5.494  0.3036 -1.0906  0.8377
  633MOL0     H85402   6.826   5.845   5.274  0.1352 -0.5486  3.6752
  633MOL0     H85403   6.676   5.760   5.248  0.3049 -1.0577  0.5313
  633MOL0     H85404   6.723   6.066   5.230 -0.1325 -1.5061  0.5843
  633MOL0     H85405   6.560   6.015   5.226  0.7514  3.0309  2.2339
  633MOL0     H85406   6.863   5.908   5.028  0.3323  1.2828  1.2337
  633MOL0     H85407   6.753   5.909   4.650 -0.5852 -2.1961 -0.1739
  633MOL0     H85408   6.903   5.952   4.739 -0.3310  0.7557  5.3207
  633MOL0     H85409   6.778   5.669   4.692  0.6491 -1.6903  0.7920
  633MOL0     H85410   6.843   5.708   4.854 -2.2757  0.2737 -0.5725
  633MOL0     H85411   7.012   5.602   4.728  2.1151  0.7367  0.5017
  633MOL0     H85412   7.070   5.756   4.756  0.9172 -2.2172  0.1347
  633MOL0     H85413   7.114   5.781   4.544  0.2606 -1.3761 -1.2066
  633MOL0     H85414   6.943   5.798   4.504 -0.4254 -1.0346 -0.1398
  633MOL0     H85415   7.259   5.663   4.623 -0.7461 -0.1751 -1.1327
  633MOL0     H85416   7.517   5.467   4.732 -0.3112  1.6685  1.0863
  633MOL0     H85417   7.549   5.596   4.623  0.0429  1.6868  0.6758
  633MOL0     H85418   7.424   5.615   4.740 -0.8589 -0.7540  0.3904
  633MOL0     H85419   7.457   4.931   4.323  0.2975 -0.3915  0.6582
  633MOL0     H85420   7.625   4.807   4.194 -1.8246 -0.4880  1.3746
  633MOL0     H85421   7.743   4.791   4.025  1.0785 -1.8120  0.8316
  633MOL0     H85422   7.858   4.905   3.958 -2.0512  1.7710  2.8162
  633MOL0     H85423   7.909   4.627   4.071 -0.3026  0.2316  0.0000
  633MOL0     H85424   7.912   4.697   3.911  0.2404  0.0997  0.0331
  633MOL0     H85425   8.111   4.755   4.130 -1.6684 -0.6646  0.0019
  633MOL0     H85426   8.100   4.854   3.981  1.4807 -1.1280 -2.6905
  633MOL0     H85427   8.179   4.567   4.037 -2.6673  0.4184  1.0632
  633MOL0     H85428   8.143   4.595   3.869  2.0966 -0.3163 -0.8276
  633MOL0     H85429   8.336   4.788   4.003  1.6477 -0.8194  0.1545
  633MOL0     H85430   8.358   4.727   3.840 -0.4722 -1.1573 -0.3354
  633MOL0     H85431   8.412   4.599   4.109 -4.1175  2.1638 -0.3632
  633MOL0     H85432   8.409   4.496   3.955  1.0237  0.5006  0.0208
  633MOL0     H85433   8.636   4.591   4.037  1.2204 -1.4376 -1.4123
  633MOL0     H85434   8.585   4.749   3.986 -0.7541 -0.9076  2.3667
  633MOL0     H85435   8.573   4.665   3.760 -0.3428 -1.0658 -0.7867
  633MOL0     H85436   8.557   4.498   3.800  2.1253 -1.6963 -0.4160
  633MOL0     H85437   7.902   5.132   4.258 -0.9911  0.4152 -0.2737
  633MOL0     H85438   7.739   5.249   4.398  2.2665  0.9589 -4.9189
  633MOL0     H85439   7.243   5.247   4.363 -4.6270  1.6997 -2.0536
  633MOL0     H85440   7.066   5.381   4.351 -1.0546  1.1119  1.3182
  633MOL0     H85441   6.457   5.595   6.292 -0.5782  0.3883  0.8724
  633MOL0     H85442   6.357   5.751   6.454  2.2798  3.3923  1.9873
  633MOL0     H85443   6.206   6.047   6.647 -0.9170 -0.7447  0.1161
  633MOL0     H85444   6.104   6.173   6.827 -1.7340  0.6456  0.9494
  633MOL0     H85445   5.938   6.586   6.745  0.8865 -0.1887  1.2550
  633MOL0     H85446   5.786   6.493   6.761 -0.3358 -1.5670 -0.1701
  633MOL0     H85447   5.963   6.525   6.995  1.0466  1.4551 -2.4953
  633MOL0     H85448   5.794   6.466   6.991  0.6550 -1.7493 -1.3599
  633MOL0     H85449   5.834   6.706   7.090 -0.1690  1.1730  0.0329
  633MOL0     H85450   5.729   6.716   6.945 -1.1880 -1.1964  1.5985
  633MOL0     H85451   5.879   6.812   6.832  1.5098 -3.1943 -0.4253
  633MOL0     H85452   6.022   6.751   6.912 -0.3316 -2.0954  1.3740
  633MOL0     H85453   5.949   7.093   7.160 -0.3823  1.5300 -2.0955
  633MOL0     H85454   5.953   6.458   6.539 -2.6934 -1.1018  0.7862
  633MOL0     H85455   6.088   6.354   6.370  1.2679 -0.5400 -0.5582
  634MOL0     O85456   5.423   4.153  10.171  0.0596 -0.6459 -0.1481
  634MOL0     C85457   5.534   4.143  10.122  0.4943 -0.8312 -0.8866
  634MOL0     O85458   5.576   4.205  10.008 -0.2585  0.8056 -0.2117
  634MOL0     C85459   5.496   4.262   9.911  0.5682 -0.3878  0.2949
  634MOL0     C85460   5.492   4.214   9.777  0.9905 -0.6542 -0.4235
  634MOL0     C85461   5.393   4.242   9.685 -1.0141  0.3625 -0.7077
  634MOL0     C85462   5.285   4.319   9.719 -0.0486  0.1507 -0.2900
  634MOL0     O85463   5.194   4.329   9.617 -0.0478 -0.4227 -0.2669
  634MOL0     C85464   5.100   4.442   9.617  0.3366  0.2996  0.5081
  634MOL0     C85465   5.057   4.483   9.475  0.2322  0.1252  0.4280
  634MOL0     C85466   4.970   4.603   9.477 -0.3324 -0.9051  0.0249
  634MOL0     C85467   4.823   4.580   9.524 -0.7414  0.1712  0.4069
  634MOL0     C85468   4.749   4.705   9.487  0.8312 -0.1111 -0.4049
  634MOL0     C85469   4.754   4.805   9.610 -0.7713  0.3179 -0.0657
  634MOL0     C85470   4.674   4.934   9.582  0.6616  0.1207  0.0401
  634MOL0     C85471   4.710   5.052   9.672  0.2502  0.8419 -0.1717
  634MOL0     N85472   4.617   5.165   9.660 -0.5179 -0.0560 -0.1448
  634MOL0     C85473   4.590   5.240   9.544 -0.2507  0.6480 -0.0878
  634MOL0     C85474   4.515   5.345   9.595 -0.4124 -0.7252 -0.2519
  634MOL0     C85475   4.454   5.462   9.520  0.1526  0.2400  0.0107
  634MOL0     C85476   4.304   5.421   9.535 -0.2467 -0.2520 -0.1614
  634MOL0     C85477   4.221   5.516   9.455 -0.7590 -0.1761 -0.4896
  634MOL0     C85478   4.179   5.633   9.538 -0.3754 -1.0610  0.9038
  634MOL0     O85479   4.070   5.691   9.457  0.1170  0.2696 -0.0940
  634MOL0     C85480   4.035   5.823   9.482 -0.3562  0.3976 -0.2804
  634MOL0     C85481   4.096   5.903   9.581  1.5463 -1.3318  0.1825
  634MOL0     C85482   4.059   6.052   9.588  0.5637  0.3959 -0.1961
  634MOL0     C85483   4.108   6.121   9.707 -1.0748 -0.5713 -0.6201
  634MOL0     C85484   3.973   6.112   9.491 -0.1598  0.1960  0.6217
  634MOL0     C85485   3.946   6.265   9.483 -0.0928 -0.0134  0.3214
  634MOL0     O85486   3.846   6.300   9.385  0.4032  0.1281  0.6730
  634MOL0     C85487   3.853   6.422   9.320 -0.4809 -0.5831  0.0086
  634MOL0     C85488   3.968   6.494   9.290  0.3883  0.3119  0.5966
  634MOL0     C85489   3.936   6.603   9.205  0.3706  0.2648 -0.0349
  634MOL0     C85490   3.813   6.656   9.163 -0.7718 -0.8022  0.9517
  634MOL0     O85491   3.813   6.766   9.077  0.2692  0.2608 -0.1090
  634MOL0     C85492   3.695   6.849   9.093  0.0865  1.0257 -0.1224
  634MOL0     C85493   3.689   6.954   8.985 -0.2629  0.0116  1.3651
  634MOL0     C85494   3.568   7.040   9.013  0.7954 -0.3090  0.8779
  634MOL0     C85495   3.498   7.088   8.889  0.0997 -0.5013  0.2932
  634MOL0     C85496   3.393   7.204   8.916 -0.4424  0.9660  1.2999
  634MOL0     C85497   3.360   7.286   8.789 -0.9081 -0.3707 -0.6281
  634MOL0     C85498   3.280   7.197   8.700  0.9317  0.7360 -0.1660
  634MOL0     C85499   3.191   7.270   8.605 -0.3743 -0.1177 -0.9360
  634MOL0    Cl85500   3.060   7.379   8.678 -0.5572 -0.1600  0.0230
  634MOL0     C85501   3.695   6.591   9.208 -0.3762 -0.2940  0.0292
  634MOL0     C85502   3.718   6.469   9.285 -0.5663 -0.2115  0.9221
  634MOL0     O85503   4.010   6.343   9.554  0.8066 -0.2667  0.3725
  634MOL0     C85504   3.932   6.031   9.394 -0.1671 -0.2690  0.3560
  634MOL0     C85505   3.963   5.892   9.388  0.1699 -0.0608  0.4176
  634MOL0     N85506   4.511   5.331   9.735  0.1238 -0.4770  0.0515
  634MOL0     N85507   4.572   5.223   9.774  0.3690 -0.9439 -0.0451
  634MOL0     C85508   5.282   4.368   9.850 -0.0974 -0.4461 -0.1887
  634MOL0     C85509   5.388   4.344   9.948  0.7161  0.2872 -0.2185
  634MOL0     C85510   5.623   4.056  10.186 -0.1664 -0.5397  0.0474
  634MOL0     C85511   5.762   4.055  10.148  0.3794 -0.5617 -0.4639
  634MOL0     C85512   5.849   3.966  10.200 -1.1204 -0.7986 -0.5762
  634MOL0     C85513   5.813   3.866  10.293 -0.8947  0.2146  0.6281
  634MOL0     O85514   5.891   3.771  10.361 -0.8970 -0.4473 -0.4463
  634MOL0     C85515   6.011   3.711  10.311  0.4497 -0.2788 -0.7080
  634MOL0     C85516   5.974   3.617  10.191  0.2177 -0.3945  0.4071
  634MOL0     C85517   6.098   3.555  10.111 -0.2065 -0.1980  0.8631
  634MOL0     C85518   6.079   3.404  10.112  0.4902 -0.3661 -0.5070
  634MOL0     C85519   6.194   3.345  10.163 -0.1356  0.4154  0.4983
  634MOL0     C85520   6.292   3.291  10.215  0.1287 -0.5832  0.4811
  634MOL0     C85521   5.672   3.861  10.328  1.1146  0.4938  0.4228
  634MOL0     C85522   5.581   3.958  10.273  0.4777 -0.0794 -0.0742
  634MOL0     H85523   5.582   4.160   9.747 -0.0151 -2.4510 -0.3268
  634MOL0     H85524   5.420   4.219   9.582  5.1819 -2.1607  1.0049
  634MOL0     H85525   5.011   4.422   9.677  0.2761 -2.0888 -0.2771
  634MOL0     H85526   5.147   4.525   9.671  2.0434 -0.5019  0.3088
  634MOL0     H85527   5.140   4.527   9.421 -0.6627 -1.1217 -2.1121
  634MOL0     H85528   5.016   4.401   9.416 -1.8634  2.1014 -1.0546
  634MOL0     H85529   5.007   4.663   9.562  3.0146 -3.2333  0.3834
  634MOL0     H85530   4.978   4.660   9.384  0.8114 -1.3242 -0.1437
  634MOL0     H85531   4.776   4.496   9.472 -3.1989  2.8764 -2.0888
  634MOL0     H85532   4.822   4.561   9.631  0.2698 -0.5820  0.2963
  634MOL0     H85533   4.773   4.743   9.387 -2.5162  2.2854 -0.4876
  634MOL0     H85534   4.645   4.674   9.479  0.6635  0.5059 -0.7258
  634MOL0     H85535   4.713   4.757   9.700  2.2505 -2.8641 -0.1569
  634MOL0     H85536   4.855   4.840   9.634 -1.6194 -0.5510  6.6536
  634MOL0     H85537   4.687   4.970   9.480 -0.8377  2.7037  0.6641
  634MOL0     H85538   4.568   4.911   9.597  1.4079 -3.2397  0.8368
  634MOL0     H85539   4.814   5.078   9.649  0.1591  3.9730  2.2785
  634MOL0     H85540   4.708   5.036   9.780 -0.9113  0.4080 -0.2432
  634MOL0     H85541   4.619   5.226   9.441 -1.0402 -1.5548 -0.0682
  634MOL0     H85542   4.469   5.557   9.573 -0.8207 -0.3693  1.4378
  634MOL0     H85543   4.499   5.474   9.421  1.1508 -0.0585  0.4141
  634MOL0     H85544   4.265   5.416   9.637  0.0757  0.6338  0.0099
  634MOL0     H85545   4.290   5.321   9.492 -1.6078  0.1310 -0.6428
  634MOL0     H85546   4.134   5.452   9.436  0.1016 -3.1438  3.8725
  634MOL0     H85547   4.257   5.552   9.358 -0.8667 -1.4015 -1.0043
  634MOL0     H85548   4.266   5.697   9.555  0.5044 -1.8915 -0.3195
  634MOL0     H85549   4.133   5.592   9.629 -1.1031 -1.2840  0.4459
  634MOL0     H85550   4.170   5.857   9.646  3.8318 -1.0994 -2.0883
  634MOL0     H85551   4.213   6.152   9.708 -0.9727 -0.9279  0.1822
  634MOL0     H85552   4.047   6.205   9.740 -1.8766 -0.5818 -2.0082
  634MOL0     H85553   4.099   6.037   9.776 -0.6980  0.2242  0.4108
  634MOL0     H85554   4.070   6.468   9.318 -0.1401  0.2933  2.6293
  634MOL0     H85555   4.012   6.671   9.170 -0.4672  1.2269 -0.0305
  634MOL0     H85556   3.601   6.795   9.077 -0.3996  2.2570 -1.7213
  634MOL0     H85557   3.698   6.894   9.192  1.3570  1.3053 -0.2715
  634MOL0     H85558   3.775   7.023   8.988 -1.5592  1.9667 -1.7496
  634MOL0     H85559   3.700   6.908   8.887 -2.6724 -2.4593  2.1621
  634MOL0     H85560   3.600   7.124   9.075 -1.3609 -0.7188  2.7014
  634MOL0     H85561   3.482   6.994   9.062 -1.3677  1.7307 -0.7822
  634MOL0     H85562   3.569   7.140   8.825 -1.4991  0.6467 -0.6051
  634MOL0     H85563   3.457   7.006   8.830  0.9695 -0.2415 -0.7056
  634MOL0     H85564   3.435   7.274   8.989 -0.6106  0.1431  2.2083
  634MOL0     H85565   3.302   7.162   8.959 -2.0509  1.1759 -1.6328
  634MOL0     H85566   3.318   7.375   8.838  1.6123  0.9319 -0.6719
  634MOL0     H85567   3.447   7.329   8.738  0.1212 -1.3528  0.2243
  634MOL0     H85568   3.213   7.126   8.748  0.2350  0.9467 -0.8138
  634MOL0     H85569   3.358   7.147   8.642  2.3497 -0.2399  2.4316
  634MOL0     H85570   3.141   7.197   8.540  1.6329 -3.7582  1.2413
  634MOL0     H85571   3.258   7.323   8.537 -2.2810  0.7731 -2.2116
  634MOL0     H85572   3.593   6.620   9.185 -0.4486  0.3754  1.1141
  634MOL0     H85573   3.638   6.397   9.303  0.7463 -3.0239 -2.9537
  634MOL0     H85574   3.866   6.068   9.316  0.8379  0.7013 -0.0748
  634MOL0     H85575   3.913   5.835   9.311  1.5026 -0.6846 -0.0173
  634MOL0     H85576   5.195   4.425   9.879 -0.0570 -0.7781  0.5886
  634MOL0     H85577   5.373   4.369  10.053  1.7430 -1.7677  0.4612
  634MOL0     H85578   5.799   4.139  10.091  0.9611  1.3297  2.4691
  634MOL0     H85579   5.956   3.974  10.185 -1.1127 -2.4751 -1.7333
  634MOL0     H85580   6.073   3.794  10.275 -1.3046 -0.0244 -3.4746
  634MOL0     H85581   6.063   3.650  10.386  0.2155 -2.7526 -2.4088
  634MOL0     H85582   5.932   3.700  10.134 -0.4475  1.3873  3.2792
  634MOL0     H85583   5.893   3.545  10.204  2.1201 -3.0304 -1.4357
  634MOL0     H85584   6.193   3.582  10.157  0.4009 -0.6859 -0.0692
  634MOL0     H85585   6.110   3.587  10.007  0.6703 -1.4290  0.5581
  634MOL0     H85586   6.068   3.366  10.010 -0.6222 -3.6204  0.7100
  634MOL0     H85587   5.991   3.374  10.170  0.6073  0.5593  0.1690
  634MOL0     H85588   6.388   3.269  10.258 -0.3987 -2.0760  0.9776
  634MOL0     H85589   5.636   3.797  10.408  1.6138  0.0328  0.2902
  634MOL0     H85590   5.479   3.962  10.311  0.7312  3.9126  0.7028
  635MOL0     O85591   4.824  10.192   0.921 -0.0106 -0.2226  0.2803
  635MOL0     C85592   4.758  10.177   0.819  0.5019  0.0075 -0.6202
  635MOL0     O85593   4.659  10.086   0.803  0.1047 -0.2659 -0.0740
  635MOL0     C85594   4.631  10.000   0.904  0.2514  0.3216  0.5610
  635MOL0     C85595   4.621   9.865   0.871  1.0035  0.6632  0.2997
  635MOL0     C85596   4.566   9.770   0.964 -1.1563 -0.2772  0.6739
  635MOL0     C85597   4.518   9.813   1.083  0.4803 -0.2663  0.2296
  635MOL0     O85598   4.477   9.719   1.171  0.9072  0.4371 -0.6120
  635MOL0     C85599   4.484   9.751   1.315 -0.2125 -0.7487 -0.0132
  635MOL0     C85600   4.496   9.614   1.382  1.0210  0.0734  0.8502
  635MOL0     C85601   4.381   9.513   1.362  0.2187 -0.5816  0.4310
  635MOL0     C85602   4.408   9.378   1.435 -0.5760 -0.5361 -0.3412
  635MOL0     C85603   4.532   9.313   1.375 -0.0195 -0.3835  0.2167
  635MOL0     C85604   4.553   9.163   1.390 -0.5620 -0.4623 -0.8286
  635MOL0     C85605   4.539   9.101   1.525  0.8657  0.4033  0.4892
  635MOL0     C85606   4.662   9.121   1.621  0.3554  0.1479 -0.5244
  635MOL0     N85607   4.720   9.252   1.615  0.1901  0.2118  0.2363
  635MOL0     C85608   4.666   9.366   1.669  0.1664  0.3547 -0.6022
  635MOL0     C85609   4.755   9.458   1.647  0.1246 -0.1098 -0.0836
  635MOL0     C85610   4.739   9.598   1.700  0.4626  0.4272  0.3784
  635MOL0     C85611   4.810   9.718   1.629 -0.0538  1.0070 -1.0214
  635MOL0     C85612   4.962   9.715   1.626 -0.4292 -0.3759  0.6470
  635MOL0     C85613   5.023   9.695   1.764  0.1852 -0.3587  0.0823
  635MOL0     O85614   5.168   9.726   1.761  0.2377  0.0714 -0.1276
  635MOL0     C85615   5.237   9.729   1.881  0.7451 -1.0523  1.0610
  635MOL0     C85616   5.197   9.677   2.002 -0.0655  0.5811 -0.7044
  635MOL0     C85617   5.287   9.661   2.106  1.0610  0.6404  0.6608
  635MOL0     C85618   5.242   9.573   2.229  0.3656  0.7618 -0.2045
  635MOL0     C85619   5.415   9.721   2.092  0.0504  0.8425  0.8226
  635MOL0     C85620   5.509   9.738   2.216 -0.0759  1.3571  0.2858
  635MOL0     O85621   5.628   9.796   2.185  0.2858  0.5971  0.3989
  635MOL0     C85622   5.710   9.849   2.285 -0.0551  0.0532  0.0130
  635MOL0     C85623   5.770   9.779   2.389  0.1426  0.3664  0.1060
  635MOL0     C85624   5.848   9.837   2.483 -1.3052 -0.1578  0.1298
  635MOL0     C85625   5.890   9.974   2.470 -0.0120  1.0217 -0.3620
  635MOL0     O85626   5.957  10.019   2.579  0.1898 -0.1989  0.2022
  635MOL0     C85627   6.083  10.068   2.534  0.5493  0.0197 -1.1844
  635MOL0     C85628   6.159  10.120   2.660 -0.0479  0.9971  0.2683
  635MOL0     C85629   6.225  10.003   2.731 -0.7129 -0.0899  0.5509
  635MOL0     C85630   6.267  10.041   2.877  0.0929  0.0907  0.8061
  635MOL0     C85631   6.376   9.944   2.927 -0.7347 -0.7369  0.1700
  635MOL0     C85632   6.506   9.947   2.858  0.1680 -1.2282 -0.5377
  635MOL0     C85633   6.623   9.890   2.938  0.1067  0.1664 -0.3620
  635MOL0     C85634   6.762   9.940   2.890  0.2494  0.1751 -0.6518
  635MOL0    Cl85635   6.775  10.120   2.926  0.4799  0.0900 -0.2216
  635MOL0     C85636   5.834  10.052   2.371  0.2259 -0.1959 -0.1110
  635MOL0     C85637   5.744   9.991   2.283  0.2951  0.9372 -0.9484
  635MOL0     O85638   5.467   9.703   2.329 -0.3915  0.4135 -0.0899
  635MOL0     C85639   5.455   9.767   1.964 -0.2409  0.1090 -0.9028
  635MOL0     C85640   5.364   9.770   1.862 -0.3201  0.5927 -0.5496
  635MOL0     N85641   4.868   9.405   1.592 -0.6193  0.6673 -0.1271
  635MOL0     N85642   4.846   9.272   1.573 -0.3637 -0.8020  0.3667
  635MOL0     C85643   4.527   9.943   1.117 -0.0937 -0.4682 -0.0698
  635MOL0     C85644   4.584  10.039   1.023  0.8737  1.2611 -0.6456
  635MOL0     C85645   4.805  10.241   0.687  0.0424  0.0310 -0.8159
  635MOL0     C85646   4.709  10.283   0.594 -0.3930 -0.8556 -0.0525
  635MOL0     C85647   4.754  10.362   0.489 -0.2189 -0.1442 -0.5333
  635MOL0     C85648   4.893  10.390   0.469  0.4822  0.0125 -0.4952
  635MOL0     O85649   4.946  10.481   0.379 -0.1452  0.3574  0.2159
  635MOL0     C85650   4.873  10.570   0.305 -0.4365 -0.1684 -0.6092
  635MOL0     C85651   4.856  10.699   0.383  0.6378 -0.4440 -1.1991
  635MOL0     C85652   4.978  10.795   0.374  0.5737 -0.3827 -0.4922
  635MOL0     C85653   5.000  10.861   0.506 -1.1488  0.4560 -0.2941
  635MOL0     C85654   5.098  10.976   0.494  0.5315 -0.5119 -0.3954
  635MOL0     C85655   5.180  11.065   0.469 -0.0369  0.5002 -0.3183
  635MOL0     C85656   4.987  10.341   0.573 -0.4182 -1.3668  0.5657
  635MOL0     C85657   4.943  10.268   0.678  1.5183  0.5619 -0.3429
  635MOL0     H85658   4.662   9.831   0.776  1.5581 -1.7605  1.3311
  635MOL0     H85659   4.564   9.664   0.941  0.7035 -0.3084  0.4651
  635MOL0     H85660   4.574   9.812   1.328 -0.7876  0.8293 -2.7688
  635MOL0     H85661   4.405   9.811   1.360  1.5571  0.3984  1.7488
  635MOL0     H85662   4.590   9.565   1.357  0.6188 -1.3899  2.1027
  635MOL0     H85663   4.500   9.634   1.489 -0.6900  2.8379  0.5195
  635MOL0     H85664   4.290   9.565   1.393  0.8368  0.7584  0.0382
  635MOL0     H85665   4.368   9.488   1.256  3.1810  2.5557 -0.8541
  635MOL0     H85666   4.418   9.388   1.544 -0.8880  1.3079 -0.4505
  635MOL0     H85667   4.318   9.320   1.416 -1.0361  0.7950 -2.6136
  635MOL0     H85668   4.525   9.326   1.267  0.6064 -0.0716  0.2057
  635MOL0     H85669   4.623   9.362   1.412  0.2774 -0.4285 -0.4410
  635MOL0     H85670   4.481   9.110   1.328 -0.0878 -1.6888 -0.3490
  635MOL0     H85671   4.655   9.134   1.363  0.1935 -2.1729  3.1511
  635MOL0     H85672   4.444   9.142   1.561 -0.0141 -0.8779 -0.2689
  635MOL0     H85673   4.533   8.993   1.508  1.0999  0.6425 -1.2572
  635MOL0     H85674   4.735   9.050   1.582 -0.0219 -1.8856  2.2142
  635MOL0     H85675   4.636   9.102   1.725  0.8293  0.9450 -0.2465
  635MOL0     H85676   4.566   9.379   1.710  0.1585  0.8188 -0.7614
  635MOL0     H85677   4.632   9.623   1.703  0.6614  1.4650  3.8913
  635MOL0     H85678   4.771   9.599   1.805  2.3453 -2.0316 -0.0924
  635MOL0     H85679   4.773   9.816   1.660  2.2677  1.9121 -0.9118
  635MOL0     H85680   4.790   9.724   1.521  3.6395  2.8226 -1.7730
  635MOL0     H85681   4.999   9.810   1.588  2.8484 -2.0507 -0.7249
  635MOL0     H85682   4.995   9.638   1.556 -1.3345  0.2261 -0.4634
  635MOL0     H85683   5.006   9.601   1.817  1.4113  0.0528  1.2416
  635MOL0     H85684   4.972   9.760   1.836  2.0269 -1.2490  2.2854
  635MOL0     H85685   5.092   9.650   2.016  0.0886  0.8495  1.3950
  635MOL0     H85686   5.192   9.633   2.305  1.8428  0.4815  1.0429
  635MOL0     H85687   5.161   9.503   2.204  2.0201 -2.0155  1.6398
  635MOL0     H85688   5.324   9.511   2.266 -1.2268 -1.7165 -0.5968
  635MOL0     H85689   5.746   9.673   2.381 -0.4920  0.5594 -0.6563
  635MOL0     H85690   5.891   9.772   2.560 -1.6595  0.0237  0.4801
  635MOL0     H85691   6.140   9.986   2.489  1.6278  0.5651 -0.8465
  635MOL0     H85692   6.069  10.155   2.469  1.6146  2.1081  1.2277
  635MOL0     H85693   6.230  10.200   2.635 -1.1861  2.0438  0.2968
  635MOL0     H85694   6.081  10.160   2.725 -1.7912 -1.7343  0.0244
  635MOL0     H85695   6.311   9.966   2.675  0.0208  0.4407  1.3052
  635MOL0     H85696   6.150   9.923   2.734  0.2559 -1.2152 -2.3308
  635MOL0     H85697   6.299  10.144   2.892  0.4151 -0.0796  1.3006
  635MOL0     H85698   6.177  10.022   2.936 -0.2589 -0.4752  0.1071
  635MOL0     H85699   6.340   9.841   2.925 -0.1914 -0.9572  0.9764
  635MOL0     H85700   6.387   9.971   3.033 -3.7156  0.2366  0.3275
  635MOL0     H85701   6.510   9.897   2.761  2.2184 -2.2569  0.0296
  635MOL0     H85702   6.533  10.050   2.833  0.6747 -1.9620 -3.3168
  635MOL0     H85703   6.624   9.781   2.934 -1.4724 -0.0594  2.7911
  635MOL0     H85704   6.613   9.920   3.043  0.8278  0.5634 -0.4011
  635MOL0     H85705   6.768   9.929   2.782  0.1204  0.2985 -0.6721
  635MOL0     H85706   6.847   9.892   2.939 -0.4298 -0.2624  0.1205
  635MOL0     H85707   5.840  10.160   2.366  0.7630 -0.1863  0.6227
  635MOL0     H85708   5.694  10.055   2.211 -0.5845 -0.5486 -1.7104
  635MOL0     H85709   5.552   9.807   1.937 -1.5418  1.4844 -4.0022
  635MOL0     H85710   5.389   9.785   1.757  2.1296  1.0242  0.0471
  635MOL0     H85711   4.469   9.981   1.201  0.2246  0.6743 -0.3518
  635MOL0     H85712   4.577  10.146   1.039 -1.2282  1.0999 -0.1552
  635MOL0     H85713   4.607  10.252   0.615 -0.3692 -0.7079  0.2863
  635MOL0     H85714   4.682  10.400   0.417  0.3072  1.2971 -0.3378
  635MOL0     H85715   4.918  10.608   0.213 -0.7310  3.3128  0.5451
  635MOL0     H85716   4.776  10.538   0.267 -0.5406 -0.3559 -0.1964
  635MOL0     H85717   4.810  10.680   0.481 -3.2119 -0.1168 -2.7403
  635MOL0     H85718   4.772  10.749   0.335 -1.4678 -1.4247  1.1968
  635MOL0     H85719   4.960  10.866   0.293  0.6636 -1.1931 -1.2427
  635MOL0     H85720   5.072  10.744   0.350  1.8899  2.3331 -1.4983
  635MOL0     H85721   5.050  10.788   0.571  1.0246 -0.8595 -3.2136
  635MOL0     H85722   4.904  10.885   0.552 -3.6198 -2.3621 -3.4446
  635MOL0     H85723   5.246  11.146   0.445  0.5610 -0.3499 -1.6645
  635MOL0     H85724   5.086  10.385   0.569 -1.4141  0.8733 -2.0418
  635MOL0     H85725   5.020  10.239   0.749  3.4719  1.4169 -2.0001
  636MOL0     O85726   9.334   7.890   3.931  0.2768  1.4678 -0.4131
  636MOL0     C85727   9.266   7.818   4.013 -0.7040 -0.6711  0.8087
  636MOL0     O85728   9.299   7.756   4.134  0.4814  0.5568  0.0613
  636MOL0     C85729   9.424   7.774   4.172 -0.4097 -0.6733 -0.8202
  636MOL0     C85730   9.461   7.908   4.205  0.7009  0.0968  1.2410
  636MOL0     C85731   9.599   7.945   4.225  0.1523  0.6309  0.5583
  636MOL0     C85732   9.699   7.843   4.237  0.6789  0.1412 -0.0135
  636MOL0     O85733   9.828   7.863   4.278  0.1519  0.6632 -0.0281
  636MOL0     C85734   9.864   7.992   4.313  1.2805 -0.3219 -0.3283
  636MOL0     C85735   9.990   7.976   4.395 -0.5730 -0.0328  0.9418
  636MOL0     C85736   9.995   7.894   4.527 -0.7684  0.0050 -0.1703
  636MOL0     C85737  10.141   7.909   4.581  1.1619 -0.6335 -0.3438
  636MOL0     C85738  10.161   7.850   4.719 -0.5130  0.1413 -0.4139
  636MOL0     C85739  10.144   7.699   4.696 -0.6675  0.5495  0.1131
  636MOL0     C85740  10.179   7.632   4.818 -0.9187 -0.3055  0.8796
  636MOL0     C85741  10.080   7.633   4.935 -0.4020  0.1300 -0.1690
  636MOL0     N85742  10.111   7.566   5.059  0.4872  0.4573  0.4196
  636MOL0     C85743  10.225   7.499   5.096  0.1050 -0.2950  0.3575
  636MOL0     C85744  10.215   7.499   5.227  0.1042  0.2649  0.2979
  636MOL0     C85745  10.310   7.427   5.315  0.6073  0.2728 -0.3499
  636MOL0     C85746  10.263   7.285   5.335 -0.0407 -0.1197 -0.3525
  636MOL0     C85747  10.161   7.275   5.446  1.1347  0.0627  0.0086
  636MOL0     C85748  10.146   7.133   5.496  0.0682 -0.1132  0.4944
  636MOL0     O85749  10.272   7.084   5.554 -0.0753  0.2102 -0.3337
  636MOL0     C85750  10.284   6.951   5.587 -0.8152  0.5556  0.1611
  636MOL0     C85751  10.195   6.844   5.561 -0.0085  0.0766  1.0445
  636MOL0     C85752  10.219   6.713   5.605 -0.9821  0.3656 -0.1553
  636MOL0     C85753  10.109   6.607   5.571  0.3105  0.5660  0.2413
  636MOL0     C85754  10.344   6.688   5.657  0.3641  0.1910 -0.2346
  636MOL0     C85755  10.392   6.549   5.701  0.2342  0.4182 -0.0183
  636MOL0     O85756  10.301   6.457   5.752 -0.8268  0.0998  0.5791
  636MOL0     C85757  10.353   6.331   5.764  0.3434 -0.3766 -0.1514
  636MOL0     C85758  10.396   6.283   5.888 -0.2571 -0.0335  0.0951
  636MOL0     C85759  10.447   6.154   5.915  0.2320  0.8399  0.3214
  636MOL0     C85760  10.453   6.066   5.811 -0.1825 -0.2962 -0.4232
  636MOL0     O85761  10.506   5.941   5.826  0.5034 -0.0755 -0.9817
  636MOL0     C85762  10.551   5.906   5.959 -0.3443 -1.1779  0.5707
  636MOL0     C85763  10.596   5.759   5.972  1.3366 -0.6848 -0.4538
  636MOL0     C85764  10.707   5.755   6.071 -0.6182  0.7856  0.4333
  636MOL0     C85765  10.762   5.616   6.093  0.0308 -0.0273 -0.3956
  636MOL0     C85766  10.899   5.607   6.157  0.3950  0.3021 -0.8749
  636MOL0     C85767  10.978   5.478   6.131  1.3635  0.0683  0.2866
  636MOL0     C85768  10.910   5.354   6.180 -1.0245 -0.3934  1.1452
  636MOL0     C85769  10.992   5.248   6.249 -0.4278 -0.4512  0.5431
  636MOL0    Cl85770  10.890   5.104   6.278  0.8140  0.3816 -0.1649
  636MOL0     C85771  10.409   6.108   5.685 -0.9633 -0.4112  0.8930
  636MOL0     C85772  10.363   6.247   5.661  0.2038 -0.3642 -0.6509
  636MOL0     O85773  10.518   6.532   5.704 -0.2437 -0.8595  0.0706
  636MOL0     C85774  10.434   6.787   5.682  0.4453 -0.4786 -0.4083
  636MOL0     C85775  10.404   6.920   5.648  0.2324  0.0239  0.1829
  636MOL0     N85776  10.093   7.543   5.268 -0.2248  0.5216 -0.4715
  636MOL0     N85777  10.029   7.585   5.163  0.1398  0.5578 -0.5604
  636MOL0     C85778   9.658   7.715   4.204 -0.4095 -0.1756  0.2132
  636MOL0     C85779   9.528   7.675   4.163  0.7341 -0.4690  0.1346
  636MOL0     C85780   9.120   7.813   3.990 -0.1123  0.6786  0.5777
  636MOL0     C85781   9.057   7.912   3.908 -0.9468 -0.7135  0.0202
  636MOL0     C85782   8.916   7.924   3.890  0.6731 -0.5058 -0.4985
  636MOL0     C85783   8.834   7.831   3.958  0.6701  0.1321  0.0520
  636MOL0     O85784   8.691   7.823   3.952 -0.2482 -0.0561 -0.5707
  636MOL0     C85785   8.615   7.930   3.889 -0.1804  0.9159 -0.0924
  636MOL0     C85786   8.582   7.908   3.744 -0.0138 -0.9315  0.4056
  636MOL0     C85787   8.484   7.793   3.720 -1.3208 -0.3554  0.0396
  636MOL0     C85788   8.453   7.758   3.575 -0.7233  0.5967 -0.0091
  636MOL0     C85789   8.393   7.630   3.554  0.1564 -0.2322  0.7268
  636MOL0     C85790   8.351   7.524   3.519 -0.5982  0.4404  0.2740
  636MOL0     C85791   8.904   7.724   4.021 -0.9703 -1.1196  0.4167
  636MOL0     C85792   9.043   7.717   4.048  0.1914 -0.3132 -0.0312
  636MOL0     H85793   9.387   7.986   4.220 -1.7718 -1.4925 -1.4031
  636MOL0     H85794   9.621   8.048   4.250 -0.1779  1.2629 -1.5814
  636MOL0     H85795   9.878   8.045   4.219  2.2861  0.7816  0.4110
  636MOL0     H85796   9.792   8.046   4.376  3.2246  0.6690  1.1709
  636MOL0     H85797  10.060   7.932   4.324 -0.7868  1.6729 -0.3811
  636MOL0     H85798  10.028   8.077   4.415 -0.3463  0.0703  0.0205
  636MOL0     H85799   9.924   7.944   4.594  1.5017  0.7644  1.8259
  636MOL0     H85800   9.965   7.791   4.509 -2.0532  0.3420 -0.1024
  636MOL0     H85801  10.212   7.861   4.514  1.2811  0.6799 -1.1761
  636MOL0     H85802  10.182   8.010   4.578  1.3465 -0.7010 -0.1524
  636MOL0     H85803  10.258   7.871   4.765 -0.3624 -2.8080  0.8321
  636MOL0     H85804  10.089   7.889   4.792 -1.0255 -2.9151  0.8890
  636MOL0     H85805  10.037   7.680   4.682 -0.8698  1.4629  0.3123
  636MOL0     H85806  10.203   7.660   4.613  0.0304  3.1111 -0.6956
  636MOL0     H85807  10.177   7.523   4.803 -2.3683 -0.6479  3.0704
  636MOL0     H85808  10.278   7.663   4.854 -0.9455  1.1708 -0.2722
  636MOL0     H85809   9.986   7.594   4.895 -3.1394  3.2171  2.5431
  636MOL0     H85810  10.056   7.738   4.958 -0.7054 -0.3861  2.0904
  636MOL0     H85811  10.313   7.491   5.034  0.9849  2.7167  1.0352
  636MOL0     H85812  10.415   7.431   5.283  0.5167 -0.6814 -0.7812
  636MOL0     H85813  10.294   7.482   5.409 -0.0372  1.3916 -1.0911
  636MOL0     H85814  10.340   7.210   5.357 -1.8900 -0.8002  5.7283
  636MOL0     H85815  10.211   7.255   5.243 -0.5463  0.3514 -0.2215
  636MOL0     H85816  10.069   7.316   5.402  0.5951 -1.8191 -0.7147
  636MOL0     H85817  10.188   7.328   5.538 -2.8598  0.7522  0.9542
  636MOL0     H85818  10.115   7.068   5.415  3.6760  0.9140 -1.9659
  636MOL0     H85819  10.074   7.131   5.578 -0.8051 -0.1968 -0.2658
  636MOL0     H85820  10.095   6.866   5.524 -0.7238 -1.2189  2.1170
  636MOL0     H85821  10.010   6.654   5.569  0.9022  1.8501 -2.4621
  636MOL0     H85822  10.130   6.558   5.476  0.0202  1.9498 -0.5654
  636MOL0     H85823  10.098   6.529   5.647 -2.1197  0.2087 -0.4112
  636MOL0     H85824  10.376   6.352   5.969  1.3981 -0.7413  1.1490
  636MOL0     H85825  10.447   6.120   6.018 -2.2463 -1.1580 -0.2035
  636MOL0     H85826  10.631   5.976   5.984 -4.0679  2.1917  4.7393
  636MOL0     H85827  10.473   5.909   6.036 -0.8666 -3.6837  0.2349
  636MOL0     H85828  10.519   5.690   6.008  2.9505 -3.0992 -1.3321
  636MOL0     H85829  10.631   5.718   5.877 -0.0820  0.5226 -1.5503
  636MOL0     H85830  10.665   5.783   6.168 -0.1733 -1.2213  1.2374
  636MOL0     H85831  10.788   5.822   6.039 -2.9860  3.0268 -1.3254
  636MOL0     H85832  10.692   5.555   6.151  1.7727 -0.8659  0.9303
  636MOL0     H85833  10.776   5.576   5.992  3.6146  1.6275 -0.7136
  636MOL0     H85834  10.894   5.617   6.266  1.0422 -0.8908 -0.7200
  636MOL0     H85835  10.961   5.691   6.125 -1.1664  2.1500  0.7043
  636MOL0     H85836  10.972   5.462   6.023 -0.2451 -1.5179  0.5685
  636MOL0     H85837  11.078   5.487   6.175  1.0871 -0.4589  1.0408
  636MOL0     H85838  10.864   5.317   6.088  0.8257 -0.8124  0.3371
  636MOL0     H85839  10.829   5.369   6.252 -1.7003 -0.0769  0.3246
  636MOL0     H85840  11.019   5.292   6.345  0.0825 -1.3940  0.8392
  636MOL0     H85841  11.087   5.223   6.201 -0.8104  0.3035 -0.6751
  636MOL0     H85842  10.426   6.041   5.601 -1.9044 -1.1560  1.2816
  636MOL0     H85843  10.344   6.250   5.554 -2.4885 -0.2497 -0.2545
  636MOL0     H85844  10.525   6.771   5.737 -0.3185 -0.6503  0.8497
  636MOL0     H85845  10.462   7.011   5.660  1.5065 -0.3556 -2.4814
  636MOL0     H85846   9.733   7.637   4.208 -1.1933 -0.8906  2.4294
  636MOL0     H85847   9.497   7.575   4.134  1.1466 -0.7131  0.5092
  636MOL0     H85848   9.117   7.993   3.869  1.6724 -1.6039  1.9518
  636MOL0     H85849   8.876   8.010   3.836  1.9110  0.3636 -0.0988
  636MOL0     H85850   8.519   7.928   3.941  0.1489 -2.1956  0.5625
  636MOL0     H85851   8.665   8.026   3.905  0.3559  0.5528  0.4504
  636MOL0     H85852   8.674   7.893   3.687  0.3384  0.9791  0.3971
  636MOL0     H85853   8.535   7.998   3.703 -0.9766 -1.0207  1.2642
  636MOL0     H85854   8.397   7.812   3.784 -1.0739 -1.7480  0.8373
  636MOL0     H85855   8.538   7.706   3.760  0.8335  0.8203 -0.1470
  636MOL0     H85856   8.546   7.781   3.522 -1.2751  1.5538 -0.6013
  636MOL0     H85857   8.372   7.828   3.551 -1.7057  0.1976  1.9231
  636MOL0     H85858   8.316   7.429   3.482  3.1302 -1.5735  1.4424
  636MOL0     H85859   8.839   7.652   4.071  0.2431 -2.3073  0.3056
  636MOL0     H85860   9.080   7.641   4.116  0.8557 -1.1095 -1.2592
  637MOL0     O85861   3.145   5.038   3.677  0.4677 -0.3564 -0.1542
  637MOL0     C85862   3.081   5.085   3.585  0.3900  0.5590 -0.1797
  637MOL0     O85863   2.981   5.025   3.522  0.1515 -0.0449 -0.4229
  637MOL0     C85864   2.970   4.890   3.559 -1.0169 -1.3599 -0.0569
  637MOL0     C85865   3.047   4.782   3.505  0.2733 -1.2831 -0.2958
  637MOL0     C85866   3.034   4.652   3.558 -0.3206 -0.1793  0.8528
  637MOL0     C85867   2.935   4.626   3.656 -1.1485  0.6529 -0.5711
  637MOL0     O85868   2.915   4.497   3.700  0.7147  0.5735  0.0682
  637MOL0     C85869   2.937   4.466   3.840  0.3968  0.5086  0.0199
  637MOL0     C85870   2.971   4.316   3.859  1.3522 -1.1947  0.0622
  637MOL0     C85871   3.034   4.298   3.995  0.8888  0.7774  0.2904
  637MOL0     C85872   3.061   4.152   4.023  0.0087 -0.9453 -0.2463
  637MOL0     C85873   3.143   4.133   4.145 -0.4975 -0.0816 -0.3041
  637MOL0     C85874   3.118   4.000   4.206  0.2335 -0.1149  0.5802
  637MOL0     C85875   3.215   3.960   4.321 -1.1469 -0.4259  0.4923
  637MOL0     C85876   3.163   3.828   4.371 -0.1841 -0.0706  0.0364
  637MOL0     N85877   3.251   3.746   4.452  0.9136  0.0552 -0.5429
  637MOL0     C85878   3.363   3.786   4.519 -0.9272  1.6588 -0.1274
  637MOL0     C85879   3.409   3.674   4.579  0.0169 -0.7278  0.5246
  637MOL0     C85880   3.514   3.681   4.686 -0.4635  0.1883 -0.7070
  637MOL0     C85881   3.465   3.782   4.801  0.4748  0.4008  0.8326
  637MOL0     C85882   3.326   3.743   4.855 -0.9098  0.0439  0.9917
  637MOL0     C85883   3.268   3.860   4.930 -0.0060 -0.3143  0.0185
  637MOL0     O85884   3.208   3.956   4.842  0.2433  0.0266  0.5152
  637MOL0     C85885   3.096   4.028   4.874  1.0768  0.0304 -0.0034
  637MOL0     C85886   3.021   4.015   4.994 -0.7332  0.6834  0.3258
  637MOL0     C85887   2.899   4.096   5.005 -0.7105  0.2029 -0.7773
  637MOL0     C85888   2.832   4.097   5.138  0.4404  0.4721 -0.0251
  637MOL0     C85889   2.858   4.170   4.891  0.2113  0.0232 -1.5236
  637MOL0     C85890   2.733   4.244   4.881  0.0054 -0.2909 -0.0425
  637MOL0     O85891   2.718   4.348   4.791 -0.6071  0.1539 -0.5503
  637MOL0     C85892   2.589   4.381   4.758  0.4918  1.0992 -1.2476
  637MOL0     C85893   2.525   4.348   4.641  0.5221  1.7527 -0.5727
  637MOL0     C85894   2.413   4.413   4.586 -0.7594 -1.1321 -1.3262
  637MOL0     C85895   2.357   4.524   4.653  0.9729 -0.3879  0.1672
  637MOL0     O85896   2.245   4.594   4.604 -1.0784  0.3444  0.1710
  637MOL0     C85897   2.209   4.723   4.654 -0.4828  0.7659 -0.7554
  637MOL0     C85898   2.128   4.808   4.555 -0.5183  0.1432 -0.3747
  637MOL0     C85899   2.101   4.959   4.590 -0.1567 -0.1966  0.3369
  637MOL0     C85900   2.038   4.988   4.733  0.2395  0.2583 -0.0114
  637MOL0     C85901   2.019   5.139   4.770  0.2388 -0.6434  0.7774
  637MOL0     C85902   1.970   5.157   4.909 -0.4489  0.3021 -1.2963
  637MOL0     C85903   1.995   5.305   4.960 -0.0936 -1.1008  0.2188
  637MOL0     C85904   1.945   5.353   5.097 -0.9139  0.3893 -0.0741
  637MOL0    Cl85905   1.974   5.227   5.223  0.0246 -0.0049 -0.2109
  637MOL0     C85906   2.407   4.556   4.776  0.7574 -0.2069 -0.3470
  637MOL0     C85907   2.532   4.495   4.823 -0.1453 -0.3216  0.0716
  637MOL0     O85908   2.644   4.195   4.938 -0.4595 -0.0894 -0.4672
  637MOL0     C85909   2.937   4.175   4.782  0.5515 -0.4043 -0.6319
  637MOL0     C85910   3.058   4.113   4.776 -0.1656  0.5505  0.3129
  637MOL0     N85911   3.335   3.565   4.541 -0.2312 -0.0992  0.0911
  637MOL0     N85912   3.233   3.612   4.469  0.2924 -1.0707  0.5761
  637MOL0     C85913   2.860   4.727   3.711 -0.5997 -0.3558  0.7627
  637MOL0     C85914   2.882   4.857   3.664 -0.0673 -0.5919 -0.2637
  637MOL0     C85915   3.122   5.216   3.539 -0.1932 -0.0329 -0.1085
  637MOL0     C85916   3.083   5.264   3.413  0.3769  0.9920  1.0498
  637MOL0     C85917   3.119   5.395   3.367 -0.1148  0.3349  0.6728
  637MOL0     C85918   3.196   5.480   3.450  0.1713  0.1866  0.1695
  637MOL0     O85919   3.234   5.604   3.403 -0.5165 -0.7372  0.3498
  637MOL0     C85920   3.338   5.690   3.464  0.1763 -0.1245 -0.4099
  637MOL0     C85921   3.476   5.621   3.457 -0.8382 -0.9042 -0.9952
  637MOL0     C85922   3.585   5.719   3.523 -0.8981  0.1155  0.2814
  637MOL0     C85923   3.591   5.759   3.678  0.2173  0.1369  0.4259
  637MOL0     C85924   3.644   5.636   3.746  0.0639 -0.0952  0.1417
  637MOL0     C85925   3.699   5.535   3.787  0.1528 -0.0514 -0.2445
  637MOL0     C85926   3.232   5.425   3.573 -0.4572 -0.1938  0.4696
  637MOL0     C85927   3.196   5.297   3.624  0.7463  0.3140 -0.1125
  637MOL0     H85928   3.122   4.813   3.433 -0.1167  0.0751 -0.1312
  637MOL0     H85929   3.080   4.558   3.528 -1.2953 -0.1444 -0.8769
  637MOL0     H85930   3.014   4.534   3.878  2.1052 -1.5299  0.4007
  637MOL0     H85931   2.847   4.485   3.900  2.0321  0.3014  2.7184
  637MOL0     H85932   2.881   4.254   3.854 -0.0769  0.8986 -2.1551
  637MOL0     H85933   3.034   4.288   3.774 -0.0911  0.3182 -1.5870
  637MOL0     H85934   3.126   4.357   3.993  1.0680  0.6923  2.8171
  637MOL0     H85935   2.970   4.324   4.080 -0.3630 -1.1400  0.0102
  637MOL0     H85936   2.971   4.091   4.036  0.3366 -1.2392  0.6677
  637MOL0     H85937   3.113   4.109   3.937  2.3706  0.4259  0.4099
  637MOL0     H85938   3.247   4.138   4.113 -0.3036  0.4304  0.3865
  637MOL0     H85939   3.131   4.211   4.220  2.5799  0.2799 -0.0533
  637MOL0     H85940   3.017   3.999   4.248  0.4640 -1.3277  1.1531
  637MOL0     H85941   3.123   3.923   4.129 -1.3870 -0.7744  1.0961
  637MOL0     H85942   3.310   3.942   4.271 -0.6428 -1.1487  1.6817
  637MOL0     H85943   3.213   4.034   4.401 -3.4448  3.3526 -2.6962
  637MOL0     H85944   3.142   3.767   4.283 -1.3050 -2.6407  1.9645
  637MOL0     H85945   3.075   3.856   4.430 -0.0322 -0.0672  0.2632
  637MOL0     H85946   3.391   3.888   4.545  0.5349  0.8495  1.7145
  637MOL0     H85947   3.528   3.584   4.734  0.7823  1.9897  2.9144
  637MOL0     H85948   3.607   3.720   4.644  0.4739  1.6131  2.3834
  637MOL0     H85949   3.460   3.885   4.766 -0.8388  1.1663  3.1160
  637MOL0     H85950   3.552   3.775   4.867  1.1547 -5.3132 -0.1192
  637MOL0     H85951   3.331   3.654   4.919 -0.8366 -0.6883 -0.0125
  637MOL0     H85952   3.252   3.726   4.776 -0.3144 -0.0222  0.4402
  637MOL0     H85953   3.357   3.899   4.980 -1.0135  0.1004  1.5396
  637MOL0     H85954   3.200   3.821   5.006 -0.0870 -0.9475 -0.3751
  637MOL0     H85955   3.039   3.956   5.083 -2.2816  0.9639  0.8655
  637MOL0     H85956   2.753   4.022   5.141  0.1571  0.6557 -1.8544
  637MOL0     H85957   2.905   4.089   5.219  0.7367  2.0810 -0.0902
  637MOL0     H85958   2.792   4.199   5.148  2.3814  1.5531 -2.3062
  637MOL0     H85959   2.563   4.263   4.585 -1.9413 -1.3463  2.1007
  637MOL0     H85960   2.375   4.389   4.487 -2.6095 -2.6675 -0.3211
  637MOL0     H85961   2.155   4.709   4.748  0.1191  3.2176  0.0141
  637MOL0     H85962   2.293   4.787   4.680 -2.2930  2.6985  0.6584
  637MOL0     H85963   2.175   4.806   4.456 -2.3677  0.2826 -1.2901
  637MOL0     H85964   2.031   4.761   4.543 -0.6276  0.5957 -1.3803
  637MOL0     H85965   2.026   4.996   4.519 -0.2083 -1.4877 -0.3214
  637MOL0     H85966   2.197   5.009   4.569 -1.0427  1.2935 -0.3679
  637MOL0     H85967   1.943   4.934   4.749  1.8237 -2.6896  0.1805
  637MOL0     H85968   2.105   4.946   4.809  0.7603 -1.2937 -1.2813
  637MOL0     H85969   1.954   5.179   4.692  0.4776 -2.3258 -0.3436
  637MOL0     H85970   2.115   5.191   4.764 -0.9387  1.6179  0.7854
  637MOL0     H85971   1.866   5.123   4.919  0.4509 -3.4554 -3.1714
  637MOL0     H85972   2.034   5.095   4.972 -2.7646  0.8992  1.9090
  637MOL0     H85973   1.943   5.357   4.878 -1.6030 -0.7879  1.3412
  637MOL0     H85974   2.102   5.325   4.963 -0.4108  0.6536  0.8366
  637MOL0     H85975   1.839   5.352   5.071 -1.3584 -1.6032  1.5409
  637MOL0     H85976   2.002   5.444   5.115  1.4959 -0.9303 -0.5305
  637MOL0     H85977   2.359   4.627   4.843 -2.9596 -1.2046 -1.7244
  637MOL0     H85978   2.567   4.526   4.921 -1.7418  1.5315  0.1158
  637MOL0     H85979   2.909   4.239   4.700  2.8712  3.0094  1.0006
  637MOL0     H85980   3.119   4.113   4.686  0.2517 -0.4530  0.5948
  637MOL0     H85981   2.793   4.713   3.796  0.7269  0.5235  2.0130
  637MOL0     H85982   2.830   4.944   3.702 -1.5418 -1.9395  0.9678
  637MOL0     H85983   3.018   5.205   3.348 -0.0348  1.9932  0.5375
  637MOL0     H85984   3.061   5.430   3.282 -0.4655  1.5275  1.3705
  637MOL0     H85985   3.334   5.791   3.422 -0.3647 -0.0362 -0.1436
  637MOL0     H85986   3.313   5.701   3.570  0.4626  0.7470 -0.4272
  637MOL0     H85987   3.511   5.589   3.359  4.4143  0.4775  0.1137
  637MOL0     H85988   3.486   5.530   3.518  2.1419 -0.8736 -1.3059
  637MOL0     H85989   3.558   5.815   3.478  4.7325  1.1502 -1.7482
  637MOL0     H85990   3.686   5.714   3.481  0.2330 -0.5205  2.9014
  637MOL0     H85991   3.488   5.788   3.699 -1.2309 -3.3114 -1.0795
  637MOL0     H85992   3.657   5.845   3.694  0.6254  0.8632 -3.9476
  637MOL0     H85993   3.737   5.448   3.836 -0.9136 -0.4569 -0.0938
  637MOL0     H85994   3.297   5.482   3.639 -0.1326 -0.3100  0.2538
  637MOL0     H85995   3.236   5.273   3.722 -0.7806 -0.7236  0.2956
  638MOL0     O85996   9.233  11.248   0.727 -0.2043 -0.2197 -0.9451
  638MOL0     C85997   9.345  11.300   0.745  0.4416  0.5666  0.0226
  638MOL0     O85998   9.411  11.362   0.646  0.3213  0.2875 -0.1047
  638MOL0     C85999   9.370  11.362   0.511 -0.5724  0.4372  0.0301
  638MOL0     C86000   9.330  11.487   0.467  0.2417  0.4911 -1.1383
  638MOL0     C86001   9.262  11.499   0.352  0.0754  0.9542  0.4754
  638MOL0     C86002   9.235  11.389   0.269 -0.0979  0.3318  0.0957
  638MOL0     O86003   9.139  11.395   0.160  0.2754 -0.4054  0.2174
  638MOL0     C86004   9.044  11.503   0.158  0.3604  0.4572  0.6972
  638MOL0     C86005   8.971  11.504   0.018  0.3831 -0.9762 -0.4219
  638MOL0     C86006   8.886  11.380  -0.015  0.0012 -0.9278 -0.9719
  638MOL0     C86007   8.736  11.393   0.026 -0.5780  0.4435  0.9024
  638MOL0     C86008   8.665  11.249   0.035 -0.1843  0.8080  0.5449
  638MOL0     C86009   8.653  11.180  -0.106 -0.9831  0.8407 -0.8041
  638MOL0     C86010   8.641  11.033  -0.071  0.0392  0.9291  1.4269
  638MOL0     C86011   8.653  10.952  -0.201  0.1373 -0.8537 -0.3239
  638MOL0     N86012   8.587  11.023  -0.317 -0.0555  0.3880 -0.1051
  638MOL0     C86013   8.460  11.065  -0.341 -0.8913  1.1156 -0.9932
  638MOL0     C86014   8.448  11.113  -0.462 -0.2554  0.5370  0.3834
  638MOL0     C86015   8.328  11.170  -0.527  0.2405 -0.0056  0.0874
  638MOL0     C86016   8.336  11.139  -0.676 -0.5979 -1.3165  0.0646
  638MOL0     C86017   8.206  11.186  -0.749 -0.3098  0.1954  0.4598
  638MOL0     C86018   8.212  11.129  -0.894 -0.5766  0.1747 -0.6219
  638MOL0     O86019   8.083  11.148  -0.962  0.6750  0.4020  0.1559
  638MOL0     C86020   8.033  11.044  -1.045  0.3326  1.3036  0.1719
  638MOL0     C86021   8.109  10.976  -1.136 -0.6847  0.0900 -0.4119
  638MOL0     C86022   8.058  10.858  -1.203  0.5284 -0.5513 -0.1263
  638MOL0     C86023   8.148  10.784  -1.301  0.8824  1.0100 -0.1637
  638MOL0     C86024   7.921  10.816  -1.187 -0.2670  0.1785 -0.0258
  638MOL0     C86025   7.840  10.714  -1.259  0.6955  0.7353 -0.1738
  638MOL0     O86026   7.850  10.710  -1.384 -0.2697  0.1237  0.2822
  638MOL0     C86027   7.768  10.637  -1.465 -0.7658 -0.0020  0.1041
  638MOL0     C86028   7.629  10.644  -1.467  0.3569  1.1771 -0.4628
  638MOL0     C86029   7.548  10.574  -1.566  0.4824 -0.5075 -0.4095
  638MOL0     C86030   7.607  10.507  -1.669 -0.2087  0.5249  0.0253
  638MOL0     O86031   7.537  10.453  -1.777 -0.2637  0.8203  0.6986
  638MOL0     C86032   7.582  10.493  -1.907 -0.7230  0.0338  0.4256
  638MOL0     C86033   7.480  10.454  -2.014  0.0302  0.4715 -0.3290
  638MOL0     C86034   7.340  10.509  -2.007  0.2664  0.6781 -0.1113
  638MOL0     C86035   7.250  10.411  -2.078 -0.6613  0.0686 -0.0910
  638MOL0     C86036   7.100  10.441  -2.042 -0.1544 -0.5013  0.5695
  638MOL0     C86037   7.067  10.577  -2.099 -0.3894  0.4977 -0.0491
  638MOL0     C86038   6.932  10.633  -2.045  0.1169 -0.2172 -0.1386
  638MOL0     C86039   6.871  10.733  -2.139  0.3684  0.0733  0.7804
  638MOL0    Cl86040   6.782  10.645  -2.272  0.4579  0.2348  0.3067
  638MOL0     C86041   7.746  10.502  -1.674 -0.1838  1.1646  0.0149
  638MOL0     C86042   7.829  10.569  -1.583  0.3969  0.5076 -0.7445
  638MOL0     O86043   7.766  10.641  -1.192  0.6276  0.1496 -0.2611
  638MOL0     C86044   7.854  10.889  -1.096  1.0229  0.0105  0.0441
  638MOL0     C86045   7.904  10.995  -1.024  1.1509  0.3881 -0.3823
  638MOL0     N86046   8.571  11.102  -0.516  0.2742  1.2630 -0.4999
  638MOL0     N86047   8.652  11.047  -0.433 -0.3753  0.6292  0.8037
  638MOL0     C86048   9.271  11.266   0.303  0.1627  0.2245 -0.1665
  638MOL0     C86049   9.348  11.250   0.421  0.6649 -0.2008  0.2194
  638MOL0     C86050   9.399  11.323   0.888 -0.7557 -0.6045 -0.0105
  638MOL0     C86051   9.503  11.414   0.917 -0.4715  0.2028 -1.2250
  638MOL0     C86052   9.553  11.436   1.054  1.5948 -0.1091  0.6473
  638MOL0     C86053   9.511  11.364   1.161 -0.0828  0.2945  0.4421
  638MOL0     O86054   9.563  11.360   1.286  0.1164 -0.3968 -0.2532
  638MOL0     C86055   9.649  11.463   1.337  0.4144 -0.0218  0.5782
  638MOL0     C86056   9.692  11.442   1.486  0.1381  0.7937  1.5357
  638MOL0     C86057   9.738  11.577   1.554 -0.1113 -0.0090  0.1758
  638MOL0     C86058   9.758  11.552   1.708 -0.2033 -0.5344 -0.0572
  638MOL0     C86059   9.787  11.676   1.790 -0.8417  0.2194 -0.1078
  638MOL0     C86060   9.808  11.760   1.879 -0.7103  0.0135  0.5115
  638MOL0     C86061   9.408  11.269   1.128 -0.5733  0.4316 -0.0877
  638MOL0     C86062   9.352  11.245   0.996  0.2234  0.1825 -0.0503
  638MOL0     H86063   9.344  11.574   0.530 -1.2384 -0.5905  0.7741
  638MOL0     H86064   9.228  11.598   0.321 -1.1020 -0.1062 -1.9369
  638MOL0     H86065   8.968  11.496   0.236 -1.6303  2.4719 -0.8988
  638MOL0     H86066   9.087  11.603   0.168  0.6573  0.3744  0.2708
  638MOL0     H86067   8.909  11.594   0.012  1.6007 -0.1722 -1.7931
  638MOL0     H86068   9.043  11.537  -0.057  2.3484 -1.2739  1.2609
  638MOL0     H86069   8.883  11.379  -0.125  2.2608 -0.0023 -1.0845
  638MOL0     H86070   8.927  11.287   0.024  0.7291  0.3080  1.4460
  638MOL0     H86071   8.744  11.440   0.125  2.9020  1.4763  0.2761
  638MOL0     H86072   8.695  11.459  -0.051  0.0794  0.9100  0.9425
  638MOL0     H86073   8.727  11.186   0.100  0.0923 -0.4439 -0.8543
  638MOL0     H86074   8.569  11.254   0.088 -0.8287  0.4973 -0.5482
  638MOL0     H86075   8.561  11.213  -0.156 -1.6787  1.5357  0.8635
  638MOL0     H86076   8.743  11.190  -0.168 -1.1018  1.3763 -0.8943
  638MOL0     H86077   8.717  10.999  -0.000 -0.0813 -1.5836  0.4472
  638MOL0     H86078   8.544  11.018  -0.021  0.6461 -1.7898  1.9335
  638MOL0     H86079   8.611  10.853  -0.182 -1.1158 -0.2227  0.3854
  638MOL0     H86080   8.759  10.950  -0.227  0.7033 -2.2504  1.8059
  638MOL0     H86081   8.383  11.040  -0.270  1.5870  1.2806  1.9831
  638MOL0     H86082   8.247  11.113  -0.481  0.4438 -2.2848 -2.1972
  638MOL0     H86083   8.310  11.277  -0.509 -3.6015 -0.3094 -1.0238
  638MOL0     H86084   8.353  11.033  -0.692 -2.6406 -1.6115 -0.3806
  638MOL0     H86085   8.423  11.197  -0.707 -1.6980  0.4626  0.1513
  638MOL0     H86086   8.203  11.295  -0.758 -0.7920  0.0300 -2.4709
  638MOL0     H86087   8.115  11.149  -0.699 -0.8174  1.8024  0.7807
  638MOL0     H86088   8.235  11.022  -0.898 -0.0972  0.1876  1.1639
  638MOL0     H86089   8.286  11.188  -0.949 -0.9861  1.7509  0.4483
  638MOL0     H86090   8.214  10.998  -1.152 -0.2226 -2.9503 -2.6310
  638MOL0     H86091   8.109  10.789  -1.403 -0.7137 -1.2575  0.2522
  638MOL0     H86092   8.249  10.825  -1.303  2.2363 -1.5457  3.7890
  638MOL0     H86093   8.160  10.677  -1.279  0.8412  0.9945 -0.2172
  638MOL0     H86094   7.572  10.709  -1.402 -0.8855 -1.7038  1.5816
  638MOL0     H86095   7.440  10.562  -1.567  0.4133 -0.5187  2.0591
  638MOL0     H86096   7.605  10.600  -1.903 -1.3758  0.1539  1.1267
  638MOL0     H86097   7.680  10.450  -1.930 -2.0759 -2.6979 -0.6335
  638MOL0     H86098   7.519  10.468  -2.116 -0.8567  0.1395 -0.7301
  638MOL0     H86099   7.478  10.347  -1.990  1.2638  1.1086  3.1057
  638MOL0     H86100   7.336  10.608  -2.053 -1.6767  1.3071  1.3093
  638MOL0     H86101   7.300  10.512  -1.906  0.4538  0.4395 -0.0272
  638MOL0     H86102   7.268  10.437  -2.183 -0.3819  3.5840  0.7219
  638MOL0     H86103   7.264  10.304  -2.059 -2.6625 -0.2002  0.1479
  638MOL0     H86104   7.094  10.452  -1.933  0.3173  0.2890  0.5261
  638MOL0     H86105   7.033  10.359  -2.071 -0.7824 -1.1504  3.5511
  638MOL0     H86106   7.132  10.657  -2.063 -0.1522 -0.4394  1.6957
  638MOL0     H86107   7.071  10.565  -2.208  0.5524 -0.9667  0.1300
  638MOL0     H86108   6.947  10.671  -1.943 -1.2346 -1.8129  0.7075
  638MOL0     H86109   6.863  10.549  -2.032  1.9226 -1.4415  2.6469
  638MOL0     H86110   6.950  10.798  -2.180 -0.2133  1.4533  1.7515
  638MOL0     H86111   6.801  10.792  -2.079 -1.2425 -0.4359 -0.5283
  638MOL0     H86112   7.801  10.440  -1.744 -1.0899 -2.1010  1.9932
  638MOL0     H86113   7.937  10.564  -1.587  0.4551  0.6765  0.2165
  638MOL0     H86114   7.747  10.870  -1.088  1.0401  0.7038  2.5921
  638MOL0     H86115   7.833  11.034  -0.952 -1.7650 -0.6848 -2.4961
  638MOL0     H86116   9.253  11.189   0.229  3.6868 -1.7730  0.8090
  638MOL0     H86117   9.367  11.157   0.473  0.9306 -1.0761 -1.3532
  638MOL0     H86118   9.559  11.471   0.845  0.4855 -0.4759 -1.0334
  638MOL0     H86119   9.630  11.511   1.068  0.5304  0.9451  0.9902
  638MOL0     H86120   9.736  11.479   1.274  1.9291 -0.3389  2.4983
  638MOL0     H86121   9.593  11.556   1.338  1.5884  0.7142  2.0190
  638MOL0     H86122   9.769  11.367   1.468  0.6694  0.8393  3.3836
  638MOL0     H86123   9.615  11.402   1.552 -0.6543 -0.3381 -0.0044
  638MOL0     H86124   9.665  11.655   1.533  1.1824  2.2290  3.1413
  638MOL0     H86125   9.836  11.610   1.518 -1.8117  1.9169 -3.1335
  638MOL0     H86126   9.842  11.483   1.724  0.7036  0.6895  0.6935
  638MOL0     H86127   9.668  11.501   1.742 -0.5206 -0.5901 -0.9673
  638MOL0     H86128   9.816  11.823   1.966 -1.2245  0.3521  0.3196
  638MOL0     H86129   9.387  11.195   1.204 -1.0735 -0.0869 -0.7188
  638MOL0     H86130   9.289  11.158   0.979  0.9967 -0.0809 -1.7320
  639MOL0     O86131   6.184   6.672   5.766 -0.8199 -0.2628 -0.5585
  639MOL0     C86132   6.275   6.739   5.826  0.0703  0.0632 -0.2118
  639MOL0     O86133   6.280   6.770   5.955  0.3033  1.3560 -0.0281
  639MOL0     C86134   6.164   6.749   6.033  0.9679 -0.3847 -0.3534
  639MOL0     C86135   6.128   6.851   6.116 -1.3334 -0.1273 -0.1322
  639MOL0     C86136   6.035   6.837   6.221  0.1975 -0.6199  0.6332
  639MOL0     C86137   5.980   6.713   6.249  0.0892  0.2724  0.3616
  639MOL0     O86138   5.904   6.693   6.357 -0.5247 -0.0581 -0.0837
  639MOL0     C86139   5.794   6.784   6.390  0.0815 -0.4705 -0.4920
  639MOL0     C86140   5.725   6.714   6.504 -0.3177 -0.8620  0.3929
  639MOL0     C86141   5.654   6.826   6.587  0.0921  0.3000 -0.8940
  639MOL0     C86142   5.527   6.762   6.645 -0.0704  0.1526 -0.6564
  639MOL0     C86143   5.456   6.848   6.747 -0.2553 -0.9917  0.0589
  639MOL0     C86144   5.318   6.805   6.788 -0.4923 -0.3968  0.0137
  639MOL0     C86145   5.251   6.870   6.905  1.0081  0.6585  0.1520
  639MOL0     C86146   5.315   6.861   7.047 -0.6644 -0.2795 -0.4834
  639MOL0     N86147   5.347   6.724   7.085  0.0120  0.2744 -0.2290
  639MOL0     C86148   5.308   6.643   7.183 -0.7211  0.4873 -0.7084
  639MOL0     C86149   5.398   6.539   7.206 -0.3139 -0.9595  0.0548
  639MOL0     C86150   5.414   6.428   7.312  1.0171 -0.8358  0.1834
  639MOL0     C86151   5.280   6.359   7.364  0.4464  0.4049 -0.1765
  639MOL0     C86152   5.301   6.245   7.459 -0.0562 -0.7433 -0.1277
  639MOL0     C86153   5.166   6.166   7.487 -0.7598  0.4288 -0.7405
  639MOL0     O86154   5.066   6.257   7.521  0.3375 -0.2580  0.3291
  639MOL0     C86155   4.967   6.211   7.603  0.3223 -0.4068 -0.1243
  639MOL0     C86156   4.895   6.304   7.669  0.7927 -0.2887 -0.3173
  639MOL0     C86157   4.808   6.283   7.772  0.0797  0.7200 -0.9514
  639MOL0     C86158   4.751   6.410   7.837  0.2662  0.6446  0.2808
  639MOL0     C86159   4.769   6.149   7.801  0.3192  0.0426  0.1282
  639MOL0     C86160   4.662   6.095   7.899  0.4772 -0.3721  0.1083
  639MOL0     O86161   4.656   5.960   7.915 -0.3450  0.6382  0.5474
  639MOL0     C86162   4.558   5.908   7.999  0.2556 -0.0262 -0.7105
  639MOL0     C86163   4.564   5.936   8.137 -0.9290  0.5587 -1.0094
  639MOL0     C86164   4.464   5.881   8.215 -0.4713 -0.3998  0.5037
  639MOL0     C86165   4.357   5.815   8.165  0.3242  0.5026  0.2981
  639MOL0     O86166   4.264   5.765   8.246 -0.3204  0.3270 -0.3879
  639MOL0     C86167   4.181   5.861   8.306 -0.4702 -0.5171  0.0419
  639MOL0     C86168   4.092   5.923   8.195 -0.6020  0.3021  0.6088
  639MOL0     C86169   3.961   5.973   8.249  0.3795 -0.6537 -0.5527
  639MOL0     C86170   3.848   5.988   8.142  0.2221 -0.2963  0.2684
  639MOL0     C86171   3.719   6.054   8.186 -0.2336  0.2008  1.1515
  639MOL0     C86172   3.745   6.209   8.188 -0.0888 -0.2167  0.0280
  639MOL0     C86173   3.633   6.305   8.254 -0.4218 -0.3279  0.2409
  639MOL0     C86174   3.620   6.447   8.182 -0.5233 -0.0673  0.1330
  639MOL0    Cl86175   3.521   6.434   8.017  0.3187 -0.0639  0.6665
  639MOL0     C86176   4.343   5.795   8.023 -1.0174 -0.4206 -0.0750
  639MOL0     C86177   4.449   5.842   7.936  0.9122  0.1932 -0.0839
  639MOL0     O86178   4.591   6.180   7.954  0.7769 -0.4385 -0.4027
  639MOL0     C86179   4.844   6.049   7.731  0.0896  0.9286  0.2349
  639MOL0     C86180   4.946   6.081   7.644  1.1117  0.1173  0.4491
  639MOL0     N86181   5.497   6.566   7.112  0.2310 -0.2005 -0.1950
  639MOL0     N86182   5.460   6.666   7.032  0.3096  0.2242 -0.1483
  639MOL0     C86183   6.008   6.607   6.161 -0.4842  0.6859 -0.5660
  639MOL0     C86184   6.097   6.621   6.053  0.6362 -0.0754 -0.1810
  639MOL0     C86185   6.393   6.788   5.755  0.7740  0.2721  0.8139
  639MOL0     C86186   6.407   6.743   5.624  0.4507  0.3096 -0.2013
  639MOL0     C86187   6.519   6.782   5.556  0.3594 -0.2971  1.2981
  639MOL0     C86188   6.610   6.872   5.607  0.7223 -0.4939  0.1385
  639MOL0     O86189   6.723   6.907   5.525 -0.1348  0.4822  0.3682
  639MOL0     C86190   6.832   6.973   5.592 -0.1987  0.4540  0.2149
  639MOL0     C86191   6.798   7.118   5.589 -0.4117  0.3507  1.7049
  639MOL0     C86192   6.911   7.213   5.551  0.7440  0.2348  0.2654
  639MOL0     C86193   7.005   7.239   5.659 -0.5645 -0.3141  0.7141
  639MOL0     C86194   7.119   7.149   5.671 -0.0794  0.1977 -0.4071
  639MOL0     C86195   7.219   7.077   5.686 -0.7590  0.3961  0.4948
  639MOL0     C86196   6.595   6.917   5.739 -0.1525 -0.2485 -0.6745
  639MOL0     C86197   6.480   6.882   5.812  0.4717  0.0104 -0.1208
  639MOL0     H86198   6.175   6.943   6.080 -0.1747 -1.1268 -1.2490
  639MOL0     H86199   6.009   6.927   6.277 -1.1025  0.8692 -2.1250
  639MOL0     H86200   5.828   6.882   6.426 -1.0750 -0.3317  0.2884
  639MOL0     H86201   5.722   6.804   6.310  0.8719  1.1252 -0.8328
  639MOL0     H86202   5.665   6.629   6.471  1.0334 -1.5676 -0.3154
  639MOL0     H86203   5.789   6.672   6.583 -0.8800 -4.2519 -0.7634
  639MOL0     H86204   5.714   6.856   6.673 -1.3387  0.0618  0.2395
  639MOL0     H86205   5.631   6.915   6.528  1.0603  0.2682 -1.3254
  639MOL0     H86206   5.456   6.733   6.567 -2.9473 -0.3558  1.9567
  639MOL0     H86207   5.567   6.674   6.698 -0.4128  1.7152  2.4014
  639MOL0     H86208   5.520   6.861   6.835 -0.2817  1.8083 -0.2703
  639MOL0     H86209   5.444   6.944   6.697  1.2629 -1.9279 -2.2836
  639MOL0     H86210   5.260   6.830   6.699  1.0614  3.2454 -0.1898
  639MOL0     H86211   5.306   6.697   6.801  1.4440 -0.7145 -0.4947
  639MOL0     H86212   5.252   6.978   6.886  1.7580  0.0603 -4.2965
  639MOL0     H86213   5.147   6.837   6.914  0.5897  1.9422  0.1540
  639MOL0     H86214   5.253   6.891   7.133  3.1849 -1.9303  3.2195
  639MOL0     H86215   5.398   6.932   7.058 -4.2948  4.3101  0.7276
  639MOL0     H86216   5.220   6.658   7.244 -0.6832 -2.2784  0.1577
  639MOL0     H86217   5.483   6.351   7.277 -0.0406 -1.6033 -0.2359
  639MOL0     H86218   5.470   6.470   7.396  0.2947 -1.3027  0.9165
  639MOL0     H86219   5.222   6.316   7.281 -3.0536 -1.7640  3.0660
  639MOL0     H86220   5.224   6.442   7.407  0.8854  0.2896  0.6355
  639MOL0     H86221   5.351   6.283   7.548 -1.8051  2.1227 -0.2092
  639MOL0     H86222   5.367   6.175   7.408 -0.1274  0.1106 -1.4242
  639MOL0     H86223   5.199   6.107   7.574  0.1579  0.1305 -1.2794
  639MOL0     H86224   5.130   6.100   7.408  0.5263 -0.8250 -0.3274
  639MOL0     H86225   4.922   6.406   7.642  2.1368  0.4407  3.3093
  639MOL0     H86226   4.775   6.429   7.942  2.1904  3.1813 -0.5079
  639MOL0     H86227   4.787   6.495   7.778  3.0640 -1.1758 -0.8413
  639MOL0     H86228   4.642   6.409   7.829  0.1450  3.7155  0.3339
  639MOL0     H86229   4.659   5.975   8.171 -0.4042 -1.0014 -0.6253
  639MOL0     H86230   4.461   5.895   8.323 -2.1422 -2.5900  0.8168
  639MOL0     H86231   4.139   5.808   8.392  0.6758  2.1899  2.4592
  639MOL0     H86232   4.240   5.944   8.345  0.2105 -1.7187  1.6983
  639MOL0     H86233   4.133   6.010   8.143 -1.9051  1.6919  1.7977
  639MOL0     H86234   4.070   5.845   8.122  4.0070 -0.6000 -0.0661
  639MOL0     H86235   3.983   6.066   8.302  2.8019 -2.1197  1.2195
  639MOL0     H86236   3.921   5.898   8.317  3.3439  0.0387  2.1966
  639MOL0     H86237   3.881   6.045   8.054  1.1158 -1.6768 -0.3351
  639MOL0     H86238   3.824   5.890   8.099 -1.3194 -0.2458  0.9721
  639MOL0     H86239   3.694   6.026   8.289  3.1184  0.3778  2.1432
  639MOL0     H86240   3.643   6.018   8.116  1.5946 -1.6676  0.0030
  639MOL0     H86241   3.845   6.223   8.230  1.6454 -3.6485 -2.4878
  639MOL0     H86242   3.762   6.242   8.085  1.2323  1.7748  0.8244
  639MOL0     H86243   3.664   6.320   8.358  3.9127  0.5095 -0.9750
  639MOL0     H86244   3.536   6.257   8.240 -0.9702  1.2453 -1.7709
  639MOL0     H86245   3.717   6.484   8.147 -0.2021  0.1904  1.2443
  639MOL0     H86246   3.575   6.524   8.246  2.5699  0.4124  1.9777
  639MOL0     H86247   4.255   5.745   7.985 -2.7424  1.5469  1.0704
  639MOL0     H86248   4.442   5.825   7.829  0.4440  1.2056 -0.2256
  639MOL0     H86249   4.834   5.944   7.754  2.2785  0.6784  0.2026
  639MOL0     H86250   5.005   6.001   7.600  2.7075  1.6357 -0.2893
  639MOL0     H86251   5.961   6.510   6.174 -0.3139  0.4440 -1.6597
  639MOL0     H86252   6.124   6.529   6.002  0.0811 -0.7361  0.6835
  639MOL0     H86253   6.337   6.675   5.576 -1.1092  1.4337  0.3758
  639MOL0     H86254   6.541   6.741   5.458  0.3078 -1.6868  1.8475
  639MOL0     H86255   6.856   6.928   5.688  0.3363 -2.1789 -1.0530
  639MOL0     H86256   6.919   6.958   5.527  0.4910  0.6298  1.0815
  639MOL0     H86257   6.761   7.149   5.687 -2.0305 -0.5920  1.4336
  639MOL0     H86258   6.732   7.135   5.502 -0.3411 -0.5252  1.4760
  639MOL0     H86259   6.855   7.306   5.534 -1.3440 -1.1887 -1.0359
  639MOL0     H86260   6.957   7.174   5.460 -2.1305 -2.8882 -0.0621
  639MOL0     H86261   6.959   7.247   5.758 -0.8901 -0.1407  0.5482
  639MOL0     H86262   7.047   7.338   5.642  1.7119 -1.3209  0.0875
  639MOL0     H86263   7.304   7.013   5.687 -0.3112  0.9716  0.1204
  639MOL0     H86264   6.657   6.990   5.789  0.2071 -1.0977  0.1277
  639MOL0     H86265   6.452   6.936   5.902  1.6820  3.9080 -1.8544
  640MOL0     O86266   0.337  10.930   7.952 -0.1207 -0.1217  0.2994
  640MOL0     C86267   0.418  10.837   7.932  0.1932  0.4246 -0.3008
  640MOL0     O86268   0.518  10.802   8.016  0.3948  0.1760 -0.1481
  640MOL0     C86269   0.542  10.877   8.132  1.1783 -0.1504  0.1847
  640MOL0     C86270   0.659  10.927   8.168  0.2008  0.4503  0.0441
  640MOL0     C86271   0.677  11.012   8.283  0.1333 -0.8470  0.3312
  640MOL0     C86272   0.575  11.034   8.385  0.4104 -0.5562  1.3814
  640MOL0     O86273   0.611  11.114   8.494 -0.3426 -0.2353  0.0056
  640MOL0     C86274   0.513  11.206   8.540  0.5400  0.6774 -0.1614
  640MOL0     C86275   0.434  11.136   8.656 -0.5985 -0.0912  0.4683
  640MOL0     C86276   0.509  11.072   8.765 -0.5403  0.5327 -0.0395
  640MOL0     C86277   0.427  11.018   8.880  0.1837 -0.1309  0.2011
  640MOL0     C86278   0.502  10.931   8.988  1.3418 -0.1507 -0.3821
  640MOL0     C86279   0.539  10.783   8.958  0.5412  0.7955  0.6337
  640MOL0     C86280   0.415  10.690   8.953 -0.9327 -0.8318 -0.0958
  640MOL0     C86281   0.336  10.684   9.084 -1.2393 -0.3133 -0.5972
  640MOL0     N86282   0.411  10.634   9.199 -0.1216  0.3004  0.4048
  640MOL0     C86283   0.403  10.684   9.325  0.5472  0.5659 -0.6624
  640MOL0     C86284   0.448  10.585   9.408 -0.2533  0.4511 -0.1199
  640MOL0     C86285   0.489  10.614   9.553 -0.0453  0.5047  0.8485
  640MOL0     C86286   0.642  10.656   9.553  0.2959  0.6141  0.5057
  640MOL0     C86287   0.730  10.546   9.597  0.3445 -0.0248 -0.3184
  640MOL0     C86288   0.748  10.434   9.496  0.0756  0.4669 -0.0389
  640MOL0     O86289   0.865  10.352   9.530  0.4538  0.1244 -0.1148
  640MOL0     C86290   0.914  10.262   9.435 -0.2278 -0.2654 -1.0561
  640MOL0     C86291   0.827  10.220   9.324  0.0043 -0.3601 -0.3546
  640MOL0     C86292   0.872  10.127   9.235  0.5955 -1.4802  0.3780
  640MOL0     C86293   0.770  10.085   9.136 -0.2706 -0.6032  0.4139
  640MOL0     C86294   0.990  10.059   9.252 -0.1600 -0.7173 -0.8545
  640MOL0     C86295   1.049   9.966   9.155  0.0879 -0.5708  1.3364
  640MOL0     O86296   1.159   9.906   9.196  1.0753 -0.2619 -0.0805
  640MOL0     C86297   1.212   9.810   9.124  0.5147  0.1965 -0.0048
  640MOL0     C86298   1.320   9.846   9.030 -0.1800  0.1256 -0.3224
  640MOL0     C86299   1.385   9.745   8.951  0.9365  0.7772  0.5419
  640MOL0     C86300   1.336   9.615   8.964 -0.0654  0.0729 -1.5356
  640MOL0     O86301   1.391   9.511   8.896 -0.2961 -0.6292 -0.6661
  640MOL0     C86302   1.376   9.523   8.759  0.7721 -0.8723  0.5470
  640MOL0     C86303   1.369   9.383   8.687 -0.6180  0.2734 -0.1496
  640MOL0     C86304   1.326   9.400   8.538 -0.4352 -0.7868 -0.1136
  640MOL0     C86305   1.170   9.421   8.520  0.6008  0.1039  1.5538
  640MOL0     C86306   1.120   9.428   8.370 -0.3847 -0.6028  0.5535
  640MOL0     C86307   1.119   9.570   8.318 -0.7480 -0.2775  0.0299
  640MOL0     C86308   1.084   9.585   8.171 -0.1885 -0.3282 -0.6065
  640MOL0     C86309   1.085   9.733   8.123  0.2710  0.0413 -0.0713
  640MOL0    Cl86310   1.068   9.727   7.942 -0.4175  0.3142 -0.5266
  640MOL0     C86311   1.232   9.585   9.051 -0.4528 -0.5750 -0.3213
  640MOL0     C86312   1.182   9.678   9.143  0.0431  0.0143  0.0241
  640MOL0     O86313   1.016   9.975   9.041  0.6250  0.6008  0.7193
  640MOL0     C86314   1.080  10.105   9.357 -0.4444  0.2209 -0.3175
  640MOL0     C86315   1.033  10.193   9.454 -0.0533 -0.8323 -0.5339
  640MOL0     N86316   0.477  10.477   9.332  0.6409  0.3027 -0.3240
  640MOL0     N86317   0.454  10.501   9.210 -0.2306 -1.0259 -0.4183
  640MOL0     C86318   0.459  10.969   8.354 -0.2585  0.4610 -0.1272
  640MOL0     C86319   0.441  10.897   8.232 -0.2446 -0.0390 -0.1773
  640MOL0     C86320   0.397  10.746   7.819 -0.0100  0.0419  1.0602
  640MOL0     C86321   0.291  10.756   7.728  0.3590  0.1740 -0.4257
  640MOL0     C86322   0.279  10.677   7.615 -0.2543 -0.9368  0.0916
  640MOL0     C86323   0.363  10.570   7.590 -1.2977  0.8312  0.0780
  640MOL0     O86324   0.359  10.490   7.477 -0.2252  0.2605  0.0461
  640MOL0     C86325   0.234  10.417   7.446 -0.3683  0.1236 -0.0530
  640MOL0     C86326   0.260  10.267   7.459  1.0709  1.0584 -0.1414
  640MOL0     C86327   0.302  10.231   7.604  0.9325  1.4377  0.2282
  640MOL0     C86328   0.162  10.205   7.676 -0.0113 -0.0188 -0.3932
  640MOL0     C86329   0.174  10.195   7.818  0.5276 -0.3849 -0.2478
  640MOL0     C86330   0.172  10.189   7.940  0.9107 -1.0147 -0.5288
  640MOL0     C86331   0.475  10.556   7.676 -1.0267 -0.4276 -0.8205
  640MOL0     C86332   0.490  10.644   7.790  0.2052  0.3420 -0.0468
  640MOL0     H86333   0.736  10.918   8.092  0.8051  0.8451  0.5994
  640MOL0     H86334   0.768  11.070   8.283 -0.0158 -0.0797 -5.0977
  640MOL0     H86335   0.544  11.299   8.588  0.3063  0.3490  0.6486
  640MOL0     H86336   0.452  11.224   8.451  1.2623 -2.7572 -1.5369
  640MOL0     H86337   0.378  11.217   8.705  1.1603  2.8447 -2.0083
  640MOL0     H86338   0.363  11.058   8.627 -1.4411  0.6821  0.4134
  640MOL0     H86339   0.553  10.977   8.733  3.7742  0.6088  4.4587
  640MOL0     H86340   0.586  11.143   8.794 -1.1500  0.2533  2.5547
  640MOL0     H86341   0.387  11.109   8.927  0.8362  1.1722 -1.6697
  640MOL0     H86342   0.345  10.958   8.840  0.3267 -3.2085  3.9579
  640MOL0     H86343   0.596  10.981   9.013  1.7678 -1.4029  0.6584
  640MOL0     H86344   0.448  10.941   9.083 -0.3105 -0.2294 -1.2856
  640MOL0     H86345   0.585  10.788   8.859 -0.5932  1.3551  0.1188
  640MOL0     H86346   0.615  10.738   9.022 -0.5448  2.9773  3.6827
  640MOL0     H86347   0.346  10.730   8.878 -0.7341 -1.8840 -0.8690
  640MOL0     H86348   0.435  10.585   8.928 -0.7576 -0.3855 -1.9585
  640MOL0     H86349   0.244  10.625   9.081  1.0450 -4.4380  1.9230
  640MOL0     H86350   0.316  10.790   9.102  2.1687  0.1931  1.0497
  640MOL0     H86351   0.387  10.788   9.351 -0.1944  0.1050  0.8344
  640MOL0     H86352   0.429  10.694   9.596  0.6211  1.0709  0.7489
  640MOL0     H86353   0.472  10.520   9.606 -0.8431 -2.0652 -3.4201
  640MOL0     H86354   0.646  10.751   9.607 -0.2128  1.6277 -1.1445
  640MOL0     H86355   0.670  10.693   9.454  2.0449 -0.1620  0.6716
  640MOL0     H86356   0.689  10.497   9.686  1.1974 -0.0365  0.0841
  640MOL0     H86357   0.828  10.591   9.618 -0.2224  0.4241  1.6090
  640MOL0     H86358   0.766  10.490   9.404  2.8970  2.6263  1.6362
  640MOL0     H86359   0.651  10.385   9.496  0.5148 -0.5618 -2.5204
  640MOL0     H86360   0.730  10.269   9.317  1.2358  2.1156 -1.6935
  640MOL0     H86361   0.676  10.140   9.140  0.2700  0.8344 -3.2173
  640MOL0     H86362   0.802  10.108   9.034  2.0692 -2.0279  0.7483
  640MOL0     H86363   0.753   9.977   9.141 -0.2602 -0.5913  4.1799
  640MOL0     H86364   1.340   9.952   9.013  2.9667 -0.3071  0.0841
  640MOL0     H86365   1.459   9.750   8.870 -2.4085 -0.1909 -2.8650
  640MOL0     H86366   1.277   9.562   8.737 -0.2926 -2.5717  1.9901
  640MOL0     H86367   1.460   9.582   8.720  1.2012 -2.4742 -1.1143
  640MOL0     H86368   1.466   9.334   8.693 -0.9641 -0.6032 -1.3407
  640MOL0     H86369   1.292   9.322   8.734 -1.0198  1.0689  0.2512
  640MOL0     H86370   1.350   9.304   8.491 -0.1686 -0.0489 -1.5402
  640MOL0     H86371   1.382   9.480   8.488  0.0655  0.4874  2.3413
  640MOL0     H86372   1.111   9.338   8.561 -0.2038 -0.8089 -1.2016
  640MOL0     H86373   1.135   9.510   8.573  4.1904  1.2974  2.1725
  640MOL0     H86374   1.021   9.382   8.367 -1.7179  2.1233 -1.0293
  640MOL0     H86375   1.193   9.359   8.327  0.9347  1.7377 -1.1916
  640MOL0     H86376   1.029   9.611   8.365 -2.3535 -1.6642 -1.6602
  640MOL0     H86377   1.212   9.622   8.341 -0.7249  0.3631 -1.3782
  640MOL0     H86378   0.985   9.540   8.160 -1.2674 -0.1604  5.0728
  640MOL0     H86379   1.154   9.532   8.107 -0.5453 -2.1165  0.4283
  640MOL0     H86380   1.181   9.780   8.148  3.5273 -3.0296 -5.0582
  640MOL0     H86381   1.006   9.791   8.172  2.5790  1.8183  1.7933
  640MOL0     H86382   1.203   9.481   9.063 -4.3704  0.2576 -1.1544
  640MOL0     H86383   1.090   9.643   9.190 -0.4867  1.9608  0.5202
  640MOL0     H86384   1.184  10.073   9.355  0.1131  1.8375 -2.4012
  640MOL0     H86385   1.103  10.215   9.534 -4.3787 -0.8327  3.6409
  640MOL0     H86386   0.371  10.970   8.417 -1.7069  0.6393 -2.0610
  640MOL0     H86387   0.341  10.861   8.215 -1.4285  2.7709  0.3182
  640MOL0     H86388   0.214  10.823   7.765 -1.4893 -0.7060 -2.4661
  640MOL0     H86389   0.185  10.682   7.561  0.7091  0.2213 -1.5573
  640MOL0     H86390   0.148  10.454   7.501 -1.3908 -0.5932 -1.1200
  640MOL0     H86391   0.214  10.445   7.342  1.1759  3.0352  0.3093
  640MOL0     H86392   0.352  10.256   7.400  1.4719  4.5769 -0.4276
  640MOL0     H86393   0.178  10.206   7.421 -1.9281  0.9017  5.4798
  640MOL0     H86394   0.358  10.304   7.663  0.4714  0.9401  1.3080
  640MOL0     H86395   0.368  10.144   7.606  2.7666  2.7696  1.8997
  640MOL0     H86396   0.106  10.119   7.640  1.1511  0.7456 -4.5175
  640MOL0     H86397   0.093  10.285   7.648 -1.6896 -1.1622  0.3219
  640MOL0     H86398   0.184  10.180   8.046  0.7404  0.4588 -0.3544
  640MOL0     H86399   0.552  10.484   7.652 -0.0978  0.3621 -0.3217
  640MOL0     H86400   0.575  10.626   7.855 -1.8569 -2.5957  2.1320
  641MOL0     O86401   5.147   0.130   8.957 -0.6326 -0.6600  0.0641
  641MOL0     C86402   5.259   0.185   8.987 -0.0274  0.1481  0.3424
  641MOL0     O86403   5.383   0.131   9.032  0.5530 -0.2809 -0.0791
  641MOL0     C86404   5.398  -0.002   9.074  0.5788 -0.7541 -0.7061
  641MOL0     C86405   5.313  -0.070   9.158  0.1078  0.0228  0.4484
  641MOL0     C86406   5.319  -0.204   9.189 -0.0155 -0.4692 -1.8586
  641MOL0     C86407   5.437  -0.274   9.146 -0.5247  0.3008 -0.4101
  641MOL0     O86408   5.469  -0.394   9.187 -0.3491  0.3650 -0.0747
  641MOL0     C86409   5.475  -0.494   9.082  0.3743  1.0141  0.1966
  641MOL0     C86410   5.473  -0.636   9.156  0.3945 -0.3541 -0.9138
  641MOL0     C86411   5.464  -0.748   9.049 -0.8882  0.3098 -0.0520
  641MOL0     C86412   5.509  -0.885   9.106 -0.1697 -0.0617  0.0240
  641MOL0     C86413   5.661  -0.905   9.127  1.4651  0.8246  0.9619
  641MOL0     C86414   5.726  -0.931   8.995 -0.7581  0.1886 -0.8720
  641MOL0     C86415   5.867  -0.973   9.020 -0.4493  1.1238  0.8321
  641MOL0     C86416   5.966  -0.876   9.077 -0.4134 -0.6699  0.4575
  641MOL0     N86417   5.997  -0.761   8.988 -0.8617  0.0989 -0.0338
  641MOL0     C86418   6.082  -0.758   8.877  0.2211  0.8431 -0.5644
  641MOL0     C86419   6.093  -0.630   8.843  1.1443 -0.0103  0.0696
  641MOL0     C86420   6.168  -0.573   8.730 -1.0500 -0.4124 -1.3198
  641MOL0     C86421   6.305  -0.503   8.773 -0.0066 -0.3475  0.0543
  641MOL0     C86422   6.376  -0.457   8.644 -0.2666  0.9826  0.5767
  641MOL0     C86423   6.434  -0.561   8.553 -0.2564  0.8205  0.2593
  641MOL0     O86424   6.496  -0.663   8.624 -0.3332  0.1908 -0.4555
  641MOL0     C86425   6.620  -0.644   8.689 -0.3585 -0.9249  0.5399
  641MOL0     C86426   6.732  -0.572   8.636  0.0905 -0.7041  0.6185
  641MOL0     C86427   6.859  -0.572   8.694 -0.4502  0.4996  0.0421
  641MOL0     C86428   6.958  -0.467   8.651 -0.1423 -0.5853  0.4163
  641MOL0     C86429   6.883  -0.675   8.796  0.2539 -0.4010  0.2114
  641MOL0     C86430   7.021  -0.690   8.852  0.3363  0.7476  0.3871
  641MOL0     O86431   7.034  -0.778   8.958 -0.0134  0.3239 -0.5038
  641MOL0     C86432   7.168  -0.803   8.996  0.2543 -0.3853 -0.3753
  641MOL0     C86433   7.216  -0.739   9.103  0.6153 -1.5025  0.1273
  641MOL0     C86434   7.333  -0.776   9.165 -0.6926  0.9878  0.0505
  641MOL0     C86435   7.414  -0.879   9.107 -0.0877 -0.5418 -0.4711
  641MOL0     O86436   7.512  -0.930   9.184  0.4193  0.0007 -0.4319
  641MOL0     C86437   7.624  -1.000   9.139  0.1225  0.1810 -0.4193
  641MOL0     C86438   7.589  -1.152   9.138  0.4349  0.5238  0.0433
  641MOL0     C86439   7.707  -1.255   9.132 -0.7901 -0.4834 -0.4633
  641MOL0     C86440   7.848  -1.207   9.172 -0.7442  0.2470 -0.5383
  641MOL0     C86441   7.934  -1.317   9.240  0.2568  0.1685 -0.1070
  641MOL0     C86442   8.086  -1.303   9.263 -0.7245  0.3322  0.8427
  641MOL0     C86443   8.171  -1.436   9.314  0.3478 -0.1855  0.3207
  641MOL0     C86444   8.190  -1.432   9.467  0.0609  0.2139 -0.9438
  641MOL0    Cl86445   8.276  -1.289   9.529 -0.2093  0.2772 -0.1223
  641MOL0     C86446   7.370  -0.936   8.988 -0.6614 -0.7447 -0.5578
  641MOL0     C86447   7.247  -0.899   8.933 -0.4387  0.0100 -0.8468
  641MOL0     O86448   7.114  -0.635   8.793 -0.5944  0.3378 -0.8592
  641MOL0     C86449   6.766  -0.735   8.854  0.1921 -0.3921 -0.7328
  641MOL0     C86450   6.640  -0.716   8.804 -1.0867  0.1250 -1.1701
  641MOL0     N86451   6.010  -0.546   8.922 -0.1283 -0.3779  0.6062
  641MOL0     N86452   5.949  -0.633   9.002  0.2915 -0.5083  0.2240
  641MOL0     C86453   5.535  -0.212   9.075  0.2133 -0.8668 -0.5797
  641MOL0     C86454   5.514  -0.068   9.051 -0.4541  0.5186  0.4774
  641MOL0     C86455   5.264   0.331   8.972  0.1904  0.5789 -0.0864
  641MOL0     C86456   5.168   0.412   9.042 -1.4996 -0.6964  0.4755
  641MOL0     C86457   5.155   0.552   9.016  0.6723 -0.4700  0.1791
  641MOL0     C86458   5.252   0.613   8.942 -0.7939 -0.0886  0.0562
  641MOL0     O86459   5.277   0.749   8.933 -0.7389  0.6053  0.4607
  641MOL0     C86460   5.177   0.831   8.990  0.8353  0.3633  0.3899
  641MOL0     C86461   5.210   0.974   8.966  1.0807 -1.0046  0.2779
  641MOL0     C86462   5.243   0.998   8.814 -0.2234  0.2043  0.4573
  641MOL0     C86463   5.397   1.012   8.784  0.4987 -1.2438 -0.4821
  641MOL0     C86464   5.470   1.120   8.847 -0.9729  0.1832  0.0625
  641MOL0     C86465   5.552   1.201   8.896  0.0233 -0.5338  1.0400
  641MOL0     C86466   5.337   0.528   8.871 -0.8525  0.1193  0.5972
  641MOL0     C86467   5.351   0.390   8.887  0.4583 -0.2778  0.6978
  641MOL0     H86468   5.219  -0.017   9.165 -0.0488  0.2966 -2.4745
  641MOL0     H86469   5.246  -0.250   9.254 -0.2280 -0.8872 -2.3783
  641MOL0     H86470   5.386  -0.491   9.019  1.2663 -1.2518 -1.3051
  641MOL0     H86471   5.562  -0.469   9.021  0.8967  2.3425  1.4188
  641MOL0     H86472   5.565  -0.640   9.216  0.9843  1.8851 -1.5950
  641MOL0     H86473   5.387  -0.636   9.223  1.3750 -3.2807  0.5501
  641MOL0     H86474   5.364  -0.744   9.005 -0.3898  0.4866 -1.2172
  641MOL0     H86475   5.528  -0.709   8.969  2.0390  2.0390  2.8879
  641MOL0     H86476   5.456  -0.897   9.201 -2.7407 -0.6374 -1.3808
  641MOL0     H86477   5.472  -0.960   9.035 -1.8395  0.2556  0.5084
  641MOL0     H86478   5.700  -0.817   9.179  1.2301  1.4267  0.1414
  641MOL0     H86479   5.666  -0.995   9.190  4.7625  0.3093  0.1314
  641MOL0     H86480   5.679  -1.017   8.947 -0.4599 -0.8694  0.6334
  641MOL0     H86481   5.732  -0.840   8.935 -0.2672  0.6860 -0.0929
  641MOL0     H86482   5.879  -1.062   9.082 -0.8759  0.9635  0.6883
  641MOL0     H86483   5.917  -1.004   8.928  1.8121 -0.0652  2.3656
  641MOL0     H86484   6.058  -0.933   9.092  0.4721 -0.4748 -3.1915
  641MOL0     H86485   5.932  -0.827   9.169  0.4056 -1.1792  1.0400
  641MOL0     H86486   6.137  -0.840   8.833 -2.5288 -0.3159 -2.0841
  641MOL0     H86487   6.186  -0.660   8.666 -0.5955 -2.3872  1.3121
  641MOL0     H86488   6.099  -0.495   8.696  0.3903  0.9025 -1.3583
  641MOL0     H86489   6.370  -0.561   8.839  1.4441 -2.3367 -2.9309
  641MOL0     H86490   6.285  -0.411   8.829  1.6875  0.0241  0.0934
  641MOL0     H86491   6.454  -0.385   8.670  0.9000 -0.4017  1.0355
  641MOL0     H86492   6.303  -0.409   8.579 -2.3414 -1.6788  0.7742
  641MOL0     H86493   6.500  -0.505   8.487 -1.5159  3.9068  1.4135
  641MOL0     H86494   6.363  -0.622   8.496  0.7827 -2.5033  2.2197
  641MOL0     H86495   6.715  -0.512   8.547 -0.1288  0.1580  1.2328
  641MOL0     H86496   6.911  -0.393   8.586 -0.7851 -0.3539  1.1322
  641MOL0     H86497   7.015  -0.424   8.734  1.1581 -1.2843 -0.0708
  641MOL0     H86498   7.035  -0.521   8.594  0.7939  1.3146 -0.1763
  641MOL0     H86499   7.156  -0.663   9.153 -0.7405 -2.7976  0.5518
  641MOL0     H86500   7.366  -0.739   9.262  3.8991  1.1648 -1.3306
  641MOL0     H86501   7.650  -0.963   9.040  1.4511 -0.7696 -0.4475
  641MOL0     H86502   7.702  -0.959   9.204  0.2251 -0.2199 -0.2878
  641MOL0     H86503   7.529  -1.176   9.226 -1.0913 -1.4251 -1.4398
  641MOL0     H86504   7.525  -1.173   9.051  0.4850 -2.3850  0.6028
  641MOL0     H86505   7.715  -1.295   9.030  3.0668  2.6688 -1.6662
  641MOL0     H86506   7.665  -1.331   9.197  0.5691 -0.7674  0.1069
  641MOL0     H86507   7.904  -1.173   9.085 -1.3287 -0.3528 -1.1644
  641MOL0     H86508   7.832  -1.123   9.240  0.3052  1.4526 -1.7338
  641MOL0     H86509   7.910  -1.407   9.184 -3.2363 -1.0232  2.9079
  641MOL0     H86510   7.880  -1.342   9.332 -1.6424 -0.7013 -1.4053
  641MOL0     H86511   8.132  -1.281   9.166 -5.4400 -0.8149 -1.9770
  641MOL0     H86512   8.101  -1.211   9.319  0.5758  0.4099  0.3997
  641MOL0     H86513   8.271  -1.435   9.268  0.0996  1.2846 -0.2191
  641MOL0     H86514   8.110  -1.525   9.295 -0.6653 -0.0614  2.6567
  641MOL0     H86515   8.249  -1.513   9.511 -2.7916 -2.3354 -1.4362
  641MOL0     H86516   8.087  -1.432   9.504 -0.4041  1.7660 -2.1445
  641MOL0     H86517   7.414  -1.030   8.955  1.0349  0.7329 -2.8084
  641MOL0     H86518   7.205  -0.938   8.840  0.9942  0.5307 -1.7568
  641MOL0     H86519   6.791  -0.802   8.936  0.5643  0.1753 -0.3757
  641MOL0     H86520   6.555  -0.773   8.841  0.0783  0.2535  2.0211
  641MOL0     H86521   5.627  -0.259   9.043  0.6093 -0.8005  0.4007
  641MOL0     H86522   5.581  -0.010   8.988 -1.6697 -1.1379 -2.5739
  641MOL0     H86523   5.099   0.359   9.108 -0.5108 -0.3717  1.8196
  641MOL0     H86524   5.073   0.610   9.058  2.8892  3.0996 -0.0121
  641MOL0     H86525   5.098   0.814   8.916  1.4445 -0.4618 -0.0791
  641MOL0     H86526   5.143   0.825   9.094 -4.2843  3.4402 -0.7058
  641MOL0     H86527   5.289   1.002   9.036  0.3492 -1.5320  1.3443
  641MOL0     H86528   5.124   1.030   9.002  0.4662 -0.7042 -1.5629
  641MOL0     H86529   5.171   1.070   8.774 -0.9946 -1.3775 -1.1353
  641MOL0     H86530   5.221   0.906   8.758  0.1787  1.2961 -1.6171
  641MOL0     H86531   5.416   1.029   8.678 -0.0386  1.4036 -0.2384
  641MOL0     H86532   5.444   0.915   8.801  2.8876 -0.0488  0.1299
  641MOL0     H86533   5.612   1.273   8.949 -0.4329 -0.9846  2.2033
  641MOL0     H86534   5.410   0.571   8.803  3.5789 -1.3102  4.0081
  641MOL0     H86535   5.424   0.331   8.834 -1.3559  0.0807 -2.4125
  642MOL0     O86536   3.482   4.818   0.929  1.1430 -0.5811  0.1850
  642MOL0     C86537   3.539   4.756   1.009 -0.5270 -0.4140 -0.1660
  642MOL0     O86538   3.503   4.751   1.142  0.2602  0.1055 -0.1725
  642MOL0     C86539   3.451   4.868   1.194  0.3683  0.5976 -1.1890
  642MOL0     C86540   3.483   4.998   1.148 -0.5547 -0.3004 -0.8198
  642MOL0     C86541   3.443   5.111   1.225 -0.6828  0.9575 -1.0756
  642MOL0     C86542   3.394   5.091   1.358 -0.2353 -0.8572  0.5182
  642MOL0     O86543   3.365   5.187   1.447  0.6696 -0.6192 -0.0825
  642MOL0     C86544   3.409   5.324   1.417 -0.4126  0.0270 -0.2170
  642MOL0     C86545   3.350   5.426   1.499 -0.2621  0.6665  1.5324
  642MOL0     C86546   3.439   5.551   1.515 -0.4045  0.3778 -0.6419
  642MOL0     C86547   3.386   5.659   1.612  0.3414  0.2545  0.5727
  642MOL0     C86548   3.453   5.795   1.590  0.0810 -0.4490  0.1067
  642MOL0     C86549   3.613   5.798   1.628  0.0786 -0.4349 -0.2347
  642MOL0     C86550   3.640   5.800   1.775 -0.7178  0.9961 -0.1010
  642MOL0     C86551   3.607   5.920   1.857 -0.9856 -0.1702  0.1512
  642MOL0     N86552   3.670   6.037   1.794 -0.0681  0.5933  0.9471
  642MOL0     C86553   3.599   6.113   1.696 -0.7439  0.4484 -0.8061
  642MOL0     C86554   3.695   6.203   1.659  0.6754  0.6764 -0.5701
  642MOL0     C86555   3.669   6.303   1.557 -0.1600 -0.1504 -0.1879
  642MOL0     C86556   3.551   6.395   1.571 -0.3893 -0.3201 -0.1557
  642MOL0     C86557   3.542   6.454   1.712 -0.8321 -0.3683 -0.4851
  642MOL0     C86558   3.446   6.567   1.723 -0.0970 -1.0327  0.6863
  642MOL0     O86559   3.471   6.685   1.639  0.5152  0.2340  0.5621
  642MOL0     C86560   3.588   6.746   1.638 -0.6695 -0.6596 -0.0770
  642MOL0     C86561   3.612   6.829   1.528  0.1403 -0.2315 -0.4707
  642MOL0     C86562   3.731   6.895   1.500 -0.6956  0.8502  0.1826
  642MOL0     C86563   3.746   6.967   1.366 -0.3423 -0.8384  0.7704
  642MOL0     C86564   3.825   6.912   1.604  1.2357 -0.6069  0.4404
  642MOL0     C86565   3.946   6.992   1.608 -0.5904 -0.6087  0.3746
  642MOL0     O86566   3.981   7.065   1.497  0.8345  0.6540 -0.1874
  642MOL0     C86567   4.066   7.171   1.479 -0.2764  0.0512 -0.7684
  642MOL0     C86568   4.113   7.256   1.583 -0.1570 -1.2515 -0.5729
  642MOL0     C86569   4.199   7.372   1.556  1.4403 -0.2775  0.3922
  642MOL0     C86570   4.236   7.394   1.421  0.4789  0.0585  0.6564
  642MOL0     O86571   4.327   7.492   1.377 -0.5237  0.2410 -0.2718
  642MOL0     C86572   4.374   7.588   1.474 -0.3086 -0.7458  0.0106
  642MOL0     C86573   4.259   7.686   1.515  0.8886  0.0414 -0.0268
  642MOL0     C86574   4.325   7.812   1.561  0.2742 -0.1909 -0.4071
  642MOL0     C86575   4.342   7.818   1.703 -0.3988 -0.4362  0.5409
  642MOL0     C86576   4.378   7.960   1.750 -0.5324 -0.7451 -0.1255
  642MOL0     C86577   4.372   7.958   1.908 -0.1526 -0.0946 -1.1943
  642MOL0     C86578   4.468   7.857   1.975  1.2980  0.2053 -0.0768
  642MOL0     C86579   4.451   7.843   2.127 -0.2808 -0.2601  0.7817
  642MOL0    Cl86580   4.608   7.860   2.203  0.3652 -0.1483  0.3030
  642MOL0     C86581   4.183   7.311   1.320 -0.2554 -0.2816  0.2049
  642MOL0     C86582   4.101   7.199   1.346 -0.7650 -0.6555 -0.7502
  642MOL0     O86583   4.013   6.994   1.711  0.4740 -0.6785  0.6889
  642MOL0     C86584   3.791   6.844   1.729  0.3604 -0.2798  0.6561
  642MOL0     C86585   3.677   6.762   1.749 -0.0250  0.0670 -0.1831
  642MOL0     N86586   3.814   6.167   1.732  0.2291 -0.2206  0.0518
  642MOL0     N86587   3.797   6.073   1.809  0.0478  0.0124  0.6291
  642MOL0     C86588   3.355   4.961   1.389 -0.6037  0.1125  0.6133
  642MOL0     C86589   3.386   4.846   1.318  0.3328 -0.0157  0.1684
  642MOL0     C86590   3.647   4.662   0.959 -0.3384 -0.1841  0.0720
  642MOL0     C86591   3.726   4.578   1.042  0.0169  0.0147 -0.9380
  642MOL0     C86592   3.812   4.486   0.985  0.5080 -0.4810  0.2154
  642MOL0     C86593   3.825   4.486   0.850 -0.4139 -0.4841 -0.8673
  642MOL0     O86594   3.897   4.378   0.802 -0.1557 -0.4086  0.4641
  642MOL0     C86595   3.936   4.364   0.666  0.4818 -0.4210  0.0276
  642MOL0     C86596   4.046   4.465   0.634 -0.8167  0.5099 -0.2161
  642MOL0     C86597   4.081   4.472   0.485 -0.8336 -0.1846 -0.3331
  642MOL0     C86598   4.228   4.506   0.474 -0.6572 -1.0219 -0.9871
  642MOL0     C86599   4.247   4.655   0.494 -0.1223 -0.1799  0.2856
  642MOL0     C86600   4.263   4.770   0.517 -0.5075  0.7045  0.3990
  642MOL0     C86601   3.756   4.565   0.761  0.5967  0.6726 -0.0592
  642MOL0     C86602   3.676   4.655   0.824 -0.4188  0.9745  0.5056
  642MOL0     H86603   3.541   5.029   1.062  0.9507 -0.5854  0.0685
  642MOL0     H86604   3.457   5.209   1.180  4.4537  0.7215 -0.4922
  642MOL0     H86605   3.516   5.336   1.437 -0.8477  2.1814  1.2352
  642MOL0     H86606   3.394   5.342   1.310  0.0311 -0.1255 -0.3071
  642MOL0     H86607   3.253   5.458   1.459 -0.1892 -2.3328 -1.4300
  642MOL0     H86608   3.323   5.391   1.599 -0.5017  1.4374  1.7476
  642MOL0     H86609   3.540   5.537   1.554 -1.1295  1.3406  1.8550
  642MOL0     H86610   3.439   5.585   1.411  3.1913  2.3925 -0.1525
  642MOL0     H86611   3.278   5.663   1.597  0.1308 -1.0467  1.4745
  642MOL0     H86612   3.398   5.626   1.716 -3.0428 -0.6612  0.7931
  642MOL0     H86613   3.426   5.834   1.492 -1.2787  0.1910  0.7034
  642MOL0     H86614   3.398   5.858   1.661  0.1694 -0.2756  0.0216
  642MOL0     H86615   3.661   5.709   1.588 -1.1119 -1.4169  0.4399
  642MOL0     H86616   3.669   5.882   1.587  0.3673  0.1564  1.3023
  642MOL0     H86617   3.590   5.713   1.819 -0.5277  0.4342 -0.9524
  642MOL0     H86618   3.745   5.769   1.780 -1.8170 -4.7894 -3.3791
  642MOL0     H86619   3.660   5.903   1.951 -2.9296  2.0035  1.7474
  642MOL0     H86620   3.500   5.929   1.875 -0.9027 -2.9163  2.7896
  642MOL0     H86621   3.500   6.108   1.654 -1.3752 -0.7814  0.7150
  642MOL0     H86622   3.753   6.373   1.559  0.5639 -0.8648 -2.3853
  642MOL0     H86623   3.668   6.252   1.460  2.0783 -1.7763  0.5533
  642MOL0     H86624   3.466   6.331   1.546 -3.1613  3.1411 -0.2807
  642MOL0     H86625   3.559   6.475   1.497  0.4647 -1.4760 -1.3542
  642MOL0     H86626   3.645   6.485   1.734 -0.7556 -0.1729 -1.0854
  642MOL0     H86627   3.509   6.380   1.785  2.3714 -0.3122  1.2379
  642MOL0     H86628   3.439   6.611   1.823  0.4747 -1.4290  0.9030
  642MOL0     H86629   3.345   6.527   1.710 -1.3116  1.1989  2.5032
  642MOL0     H86630   3.536   6.802   1.455  0.1423 -2.5224  0.2834
  642MOL0     H86631   3.666   6.925   1.304  0.8445 -0.0226 -1.3894
  642MOL0     H86632   3.721   7.073   1.376 -2.0360 -0.5929 -3.7842
  642MOL0     H86633   3.844   6.951   1.320 -0.1131 -0.0341  0.9627
  642MOL0     H86634   4.090   7.242   1.688 -0.5397 -0.2255 -0.5084
  642MOL0     H86635   4.233   7.422   1.646  3.0684 -5.7951  3.3345
  642MOL0     H86636   4.417   7.548   1.567 -1.8497  1.6999  1.8994
  642MOL0     H86637   4.439   7.654   1.417 -3.4826  1.2768 -1.5014
  642MOL0     H86638   4.195   7.703   1.428  0.1211  0.2197  0.5631
  642MOL0     H86639   4.182   7.650   1.584 -2.1132  0.1284 -3.0620
  642MOL0     H86640   4.261   7.899   1.541 -2.0537 -1.7631 -0.1973
  642MOL0     H86641   4.424   7.823   1.516 -0.3210 -1.7191 -2.1982
  642MOL0     H86642   4.255   7.793   1.765 -2.2342  0.6610 -1.4782
  642MOL0     H86643   4.429   7.755   1.727  0.1449  0.7591  1.8902
  642MOL0     H86644   4.311   8.040   1.717 -3.0514 -2.6048  0.1600
  642MOL0     H86645   4.477   7.961   1.704  0.2373  1.7782  1.3571
  642MOL0     H86646   4.392   8.058   1.949 -2.7216  0.1883 -0.4666
  642MOL0     H86647   4.271   7.928   1.934 -0.0565  1.1634  0.8715
  642MOL0     H86648   4.570   7.880   1.944  1.6960  0.5230  1.4134
  642MOL0     H86649   4.431   7.758   1.943 -0.3983  0.3247  1.3574
  642MOL0     H86650   4.415   7.745   2.160 -4.6712  0.3072 -1.6203
  642MOL0     H86651   4.374   7.912   2.162 -0.4070  0.6153 -1.1077
  642MOL0     H86652   4.213   7.335   1.219  1.9610 -2.9229  0.1002
  642MOL0     H86653   4.060   7.136   1.268 -1.2173 -0.1204 -0.9462
  642MOL0     H86654   3.854   6.862   1.816 -1.8734 -0.1888  2.3576
  642MOL0     H86655   3.646   6.721   1.844 -0.1937 -1.0834 -0.7264
  642MOL0     H86656   3.318   4.950   1.491  2.4823 -1.2646  1.6966
  642MOL0     H86657   3.364   4.748   1.357 -2.0225  0.3942 -0.0069
  642MOL0     H86658   3.719   4.559   1.149  1.5530  2.9506 -0.2137
  642MOL0     H86659   3.880   4.424   1.043  0.3598 -0.7429  0.1082
  642MOL0     H86660   3.969   4.261   0.650  0.3560 -0.5846  0.7741
  642MOL0     H86661   3.849   4.383   0.602  1.8705  0.1979 -1.7778
  642MOL0     H86662   4.134   4.423   0.683  2.5033  0.9696 -5.0558
  642MOL0     H86663   4.017   4.563   0.672 -1.9765  0.2822 -0.4756
  642MOL0     H86664   4.021   4.553   0.442  1.3061  2.0944  0.7071
  642MOL0     H86665   4.064   4.374   0.440  1.2537 -1.8635  2.2529
  642MOL0     H86666   4.246   4.487   0.368 -1.5768 -2.1968 -0.9585
  642MOL0     H86667   4.305   4.447   0.523 -2.3629 -1.7024  1.0082
  642MOL0     H86668   4.277   4.875   0.534  2.5953  0.5423 -0.5264
  642MOL0     H86669   3.751   4.561   0.652 -1.1727 -0.3666  0.0109
  642MOL0     H86670   3.612   4.721   0.766  1.3805  0.6817 -1.9648
  643MOL0     O86671   5.788   4.938  11.359 -0.2475 -0.5622 -0.6885
  643MOL0     C86672   5.894   4.905  11.409 -0.5714 -0.6020 -0.9227
  643MOL0     O86673   5.971   4.796  11.367 -0.2246 -0.2029  0.0454
  643MOL0     C86674   5.959   4.746  11.241 -0.2885 -0.9395  0.0247
  643MOL0     C86675   5.976   4.604  11.229 -0.3013 -0.8501 -0.0140
  643MOL0     C86676   5.958   4.536  11.110 -0.1877  0.1992 -0.6334
  643MOL0     C86677   5.933   4.601  10.986  0.2408 -0.3000 -1.3788
  643MOL0     O86678   5.922   4.531  10.867  0.1613 -0.2240  0.3199
  643MOL0     C86679   5.989   4.418  10.841 -0.1126 -0.3157  0.4384
  643MOL0     C86680   5.902   4.291  10.844 -0.4733 -0.8570  0.4621
  643MOL0     C86681   5.834   4.282  10.976 -0.1937  0.5778  0.3022
  643MOL0     C86682   5.740   4.162  10.974 -0.2536 -0.7775 -0.9794
  643MOL0     C86683   5.730   4.087  11.118  0.7698 -0.1160  0.0363
  643MOL0     C86684   5.669   4.193  11.214 -0.5828  0.1610 -0.4291
  643MOL0     C86685   5.632   4.130  11.351  0.0086  0.1693 -0.9392
  643MOL0     C86686   5.762   4.082  11.433  0.1258 -0.2841  0.0907
  643MOL0     N86687   5.864   4.185  11.457  0.3969 -0.1847  0.0172
  643MOL0     C86688   5.895   4.242  11.579  0.6547  0.9905  0.2735
  643MOL0     C86689   6.020   4.270  11.581  0.6207 -0.3539 -0.5844
  643MOL0     C86690   6.104   4.323  11.693  0.4345  0.4230 -0.0785
  643MOL0     C86691   6.219   4.220  11.722 -0.1947 -0.4038  0.0200
  643MOL0     C86692   6.306   4.271  11.840  0.5725 -0.2278 -1.0368
  643MOL0     C86693   6.412   4.373  11.785  0.9297 -1.0682  0.6057
  643MOL0     O86694   6.513   4.294  11.715 -0.8121 -0.3398 -0.7490
  643MOL0     C86695   6.630   4.359  11.681  0.0264  1.1529  0.2900
  643MOL0     C86696   6.651   4.482  11.631 -0.2061  0.3930 -0.0155
  643MOL0     C86697   6.780   4.537  11.607 -0.2456  0.7940 -0.4175
  643MOL0     C86698   6.793   4.687  11.562 -0.2858 -0.1079 -0.8860
  643MOL0     C86699   6.899   4.456  11.627  0.2641  0.9398 -0.0888
  643MOL0     C86700   7.044   4.488  11.590  0.0976  0.8939 -0.5334
  643MOL0     O86701   7.119   4.373  11.581 -0.0057 -0.1910 -0.4553
  643MOL0     C86702   7.259   4.378  11.585 -0.1976 -0.3334 -0.5590
  643MOL0     C86703   7.340   4.408  11.475 -0.0189 -0.2348  0.0288
  643MOL0     C86704   7.483   4.400  11.489 -0.0999  0.3746  0.5293
  643MOL0     C86705   7.540   4.387  11.620 -0.3375 -0.6058 -0.4794
  643MOL0     O86706   7.676   4.375  11.649  0.0955  0.2911  0.5498
  643MOL0     C86707   7.759   4.449  11.567  0.7061 -0.4039 -0.9315
  643MOL0     C86708   7.899   4.444  11.621 -0.5466 -0.7830 -0.2667
  643MOL0     C86709   7.913   4.539  11.741 -0.5799 -0.0635  0.0479
  643MOL0     C86710   8.050   4.549  11.800  0.4554  0.3096  0.0030
  643MOL0     C86711   8.059   4.666  11.893 -0.5132 -0.6968  0.3923
  643MOL0     C86712   8.204   4.677  11.953 -0.5773  0.5994  0.1349
  643MOL0     C86713   8.230   4.777  12.083  0.1132 -0.3084  0.2948
  643MOL0     C86714   8.374   4.830  12.082  0.0549 -0.8241  0.0299
  643MOL0    Cl86715   8.400   4.947  11.946  0.2316  0.0238 -0.3979
  643MOL0     C86716   7.457   4.354  11.730  0.4066  0.1808  0.4207
  643MOL0     C86717   7.315   4.346  11.713 -0.8115  0.5535  0.2349
  643MOL0     O86718   7.089   4.598  11.576  0.0415 -0.7005 -0.6107
  643MOL0     C86719   6.869   4.327  11.679  0.4184 -0.3985 -0.0394
  643MOL0     C86720   6.741   4.280  11.703 -0.7046 -0.4536  0.0835
  643MOL0     N86721   6.058   4.261  11.449 -0.7499  0.1297  0.3286
  643MOL0     N86722   5.970   4.209  11.370  0.7022 -0.4415 -0.2300
  643MOL0     C86723   5.908   4.743  10.991 -0.1523 -0.5114 -0.2510
  643MOL0     C86724   5.930   4.814  11.116  1.0201 -0.3919  1.1649
  643MOL0     C86725   5.946   4.975  11.521 -0.3326  0.9593  1.0147
  643MOL0     C86726   5.865   5.027  11.628  0.9911 -0.0872  0.8429
  643MOL0     C86727   5.922   5.062  11.749  0.1813 -0.2031 -0.1734
  643MOL0     C86728   6.063   5.055  11.766 -0.5188 -0.1470  0.0145
  643MOL0     O86729   6.122   5.103  11.884  0.0992 -0.6104 -0.0492
  643MOL0     C86730   6.264   5.127  11.887 -0.0319 -0.3168  0.3880
  643MOL0     C86731   6.302   5.176  12.028  0.2608  0.9047 -0.2282
  643MOL0     C86732   6.454   5.184  12.041  0.9333 -1.0791 -0.1330
  643MOL0     C86733   6.507   5.285  12.152  0.2032  0.0745 -0.9512
  643MOL0     C86734   6.651   5.288  12.141 -0.3437 -0.3987 -0.5769
  643MOL0     C86735   6.772   5.299  12.143 -0.0796  0.3195  0.3955
  643MOL0     C86736   6.139   5.020  11.653  0.3880  0.1796  0.2986
  643MOL0     C86737   6.084   4.977  11.530  0.0248  0.5394  0.2569
  643MOL0     H86738   5.998   4.553  11.323 -0.6939 -1.5644 -0.3023
  643MOL0     H86739   5.971   4.428  11.105  0.2343  0.0369  2.0578
  643MOL0     H86740   6.038   4.418  10.744 -0.2919 -1.8904  0.3113
  643MOL0     H86741   6.074   4.408  10.911  0.1856  0.1098  0.1391
  643MOL0     H86742   5.831   4.312  10.763 -2.1665  0.5083  2.2046
  643MOL0     H86743   5.972   4.211  10.820  2.5835  0.9597  2.6511
  643MOL0     H86744   5.910   4.259  11.050 -2.5204 -0.3719  2.5515
  643MOL0     H86745   5.782   4.372  11.010  1.3829  2.6044 -2.2386
  643MOL0     H86746   5.640   4.203  10.958 -0.0778  0.4841  0.8139
  643MOL0     H86747   5.763   4.099  10.888  2.8474  0.7229 -1.3937
  643MOL0     H86748   5.661   4.007  11.090  1.7042 -0.0622 -2.8018
  643MOL0     H86749   5.826   4.051  11.156 -0.6972 -2.8129  1.4718
  643MOL0     H86750   5.755   4.259  11.233  2.2091 -4.2566  5.2019
  643MOL0     H86751   5.587   4.250  11.168  0.1272  2.9401  1.4661
  643MOL0     H86752   5.568   4.183  11.422  0.5691 -2.2645  1.5927
  643MOL0     H86753   5.581   4.035  11.334  0.3588 -0.4062  1.0006
  643MOL0     H86754   5.810   4.001  11.378 -2.1053 -0.2506 -2.0609
  643MOL0     H86755   5.716   4.063  11.530 -3.2929  1.8402 -0.8968
  643MOL0     H86756   5.821   4.244  11.658  1.5103  2.1770  1.0679
  643MOL0     H86757   6.144   4.422  11.669  1.6640  0.6208  2.5328
  643MOL0     H86758   6.044   4.333  11.784 -0.2945  2.6019 -0.7311
  643MOL0     H86759   6.281   4.202  11.634 -1.1231 -1.6610 -0.4129
  643MOL0     H86760   6.159   4.135  11.757 -0.7199  0.3083  0.8756
  643MOL0     H86761   6.360   4.192  11.894  2.7423  1.0976 -1.1454
  643MOL0     H86762   6.253   4.329  11.915  1.2524  0.3139 -0.9674
  643MOL0     H86763   6.451   4.431  11.869  0.1891 -0.3485  0.4718
  643MOL0     H86764   6.361   4.441  11.716  3.1526  2.5477  2.2164
  643MOL0     H86765   6.567   4.549  11.618  2.0921  3.1831 -1.7169
  643MOL0     H86766   6.694   4.734  11.554 -0.5876  0.4585  3.5806
  643MOL0     H86767   6.849   4.746  11.634 -0.3260 -0.9684 -0.1373
  643MOL0     H86768   6.851   4.698  11.470  1.2622  2.9215  0.3429
  643MOL0     H86769   7.291   4.416  11.378  0.2601  0.5274 -0.0531
  643MOL0     H86770   7.546   4.410  11.401  1.0650 -3.2570  0.7652
  643MOL0     H86771   7.754   4.408  11.466  0.1702 -0.7042 -0.7849
  643MOL0     H86772   7.722   4.552  11.565 -3.7428 -1.8106 -0.4654
  643MOL0     H86773   7.945   4.352  11.658  4.4074  1.1849 -0.7173
  643MOL0     H86774   7.953   4.483  11.535 -0.0705  1.8183  1.1061
  643MOL0     H86775   7.831   4.523  11.811 -1.4487 -0.6507 -1.0781
  643MOL0     H86776   7.888   4.640  11.705  1.0628  0.2092 -0.4195
  643MOL0     H86777   8.085   4.455  11.845  3.2641  2.0470  1.7251
  643MOL0     H86778   8.118   4.573  11.719  1.6614 -2.0676  0.2147
  643MOL0     H86779   7.984   4.657  11.972 -1.1905 -0.5338 -0.2235
  643MOL0     H86780   8.038   4.753  11.830 -0.8857 -1.1593 -0.1352
  643MOL0     H86781   8.244   4.578  11.976  1.6159  0.9721 -1.6879
  643MOL0     H86782   8.264   4.713  11.868 -3.9579 -0.1553 -2.7826
  643MOL0     H86783   8.207   4.721  12.174  1.6762 -0.9750  0.3239
  643MOL0     H86784   8.167   4.866  12.080  0.2070 -0.0524  3.2938
  643MOL0     H86785   8.450   4.751  12.078 -0.0272 -0.8867 -0.4765
  643MOL0     H86786   8.398   4.880  12.176 -0.6124 -2.6454  1.2183
  643MOL0     H86787   7.502   4.338  11.828  3.4966  0.9427 -0.7704
  643MOL0     H86788   7.254   4.315  11.797  0.4161  1.0696  1.3584
  643MOL0     H86789   6.944   4.255  11.710 -0.1011 -1.4445 -1.1061
  643MOL0     H86790   6.732   4.176  11.733 -0.8682 -1.4776 -3.1143
  643MOL0     H86791   5.894   4.805  10.902 -2.0027  1.1165  1.0817
  643MOL0     H86792   5.925   4.922  11.117  1.6064 -0.3529  0.8177
  643MOL0     H86793   5.758   5.046  11.623  0.8369  0.1915  3.6545
  643MOL0     H86794   5.860   5.099  11.831  1.3441  2.5362 -0.4084
  643MOL0     H86795   6.317   5.034  11.863  1.2651 -0.3159  2.9250
  643MOL0     H86796   6.292   5.204  11.816  0.9530 -0.1687  0.9212
  643MOL0     H86797   6.266   5.114  12.111 -1.6364  1.4390 -0.5914
  643MOL0     H86798   6.260   5.277  12.034  0.0745  0.8279 -0.2294
  643MOL0     H86799   6.505   5.221  11.951 -0.1489 -1.2291 -0.8303
  643MOL0     H86800   6.502   5.086  12.044  1.1874 -1.0649 -2.2897
  643MOL0     H86801   6.490   5.245  12.253  3.2223  0.2194 -0.2915
  643MOL0     H86802   6.467   5.385  12.136  1.0526  1.1169  2.5766
  643MOL0     H86803   6.879   5.297  12.146  0.0148  2.7128  3.4039
  643MOL0     H86804   6.246   5.003  11.654 -0.0408 -3.4799  1.8609
  643MOL0     H86805   6.161   4.943  11.461  1.2252  2.0361  0.7967
  644MOL0     O86806   5.144   6.465  11.147  0.4578  0.3788  0.4795
  644MOL0     C86807   5.213   6.564  11.175 -0.8820  1.1277 -0.3332
  644MOL0     O86808   5.313   6.611  11.091  0.0434 -0.6445 -1.5592
  644MOL0     C86809   5.333   6.534  10.980  1.5182  0.2383  0.0006
  644MOL0     C86810   5.306   6.598  10.860  0.0913 -0.3418  0.3750
  644MOL0     C86811   5.328   6.525  10.740  0.7128 -0.2215  0.0417
  644MOL0     C86812   5.382   6.394  10.741  0.2287 -0.3690 -0.4465
  644MOL0     O86813   5.421   6.347  10.624  0.3217  0.0371 -0.1908
  644MOL0     C86814   5.375   6.211  10.581  0.3679 -0.9667  0.2262
  644MOL0     C86815   5.433   6.201  10.439 -0.4844  0.5016  0.2314
  644MOL0     C86816   5.420   6.059  10.411 -0.5108  0.1905  0.3404
  644MOL0     C86817   5.455   6.026  10.266 -0.2029 -0.4438  0.8770
  644MOL0     C86818   5.486   5.875  10.240 -0.3738 -0.0809  0.2014
  644MOL0     C86819   5.386   5.788  10.312 -0.0667  0.4400 -0.1847
  644MOL0     C86820   5.416   5.637  10.299  0.4198 -0.3040  0.5207
  644MOL0     C86821   5.547   5.596  10.366  1.1461  1.0248  0.0607
  644MOL0     N86822   5.567   5.448  10.389  0.1982 -1.3763 -1.0605
  644MOL0     C86823   5.529   5.381  10.501  0.0553 -0.4313 -0.3863
  644MOL0     C86824   5.579   5.256  10.492  0.5847 -0.2701 -0.4282
  644MOL0     C86825   5.577   5.161  10.604 -0.1746  0.7585 -0.5747
  644MOL0     C86826   5.682   5.179  10.703 -0.5610 -0.6305  1.1844
  644MOL0     C86827   5.677   5.065  10.811  0.3827 -0.0349 -0.0195
  644MOL0     C86828   5.752   5.114  10.930 -0.2837 -1.2752  0.0815
  644MOL0     O86829   5.890   5.157  10.897  0.7197  0.2527 -0.2877
  644MOL0     C86830   5.975   5.184  11.002  0.5066 -0.7458 -0.3763
  644MOL0     C86831   6.108   5.196  10.955  0.1798  0.8230  0.2413
  644MOL0     C86832   6.212   5.220  11.054  1.1955  0.5728 -0.1269
  644MOL0     C86833   6.358   5.232  11.004  0.1491  0.1411  0.8392
  644MOL0     C86834   6.176   5.249  11.191 -0.4051 -0.3323  0.8145
  644MOL0     C86835   6.280   5.288  11.289  1.0429 -0.7345  0.1221
  644MOL0     O86836   6.260   5.390  11.370  0.2203  0.1399 -0.1945
  644MOL0     C86837   6.365   5.413  11.454  0.1810  0.3103 -1.1274
  644MOL0     C86838   6.491   5.460  11.424  0.0382 -0.3892  0.6395
  644MOL0     C86839   6.589   5.480  11.517 -0.0734  0.8257 -0.6788
  644MOL0     C86840   6.563   5.475  11.652 -0.1727  1.4046 -0.0546
  644MOL0     O86841   6.656   5.474  11.756 -0.3107 -0.0586  0.3056
  644MOL0     C86842   6.714   5.609  11.767  0.9680  0.1049  0.7160
  644MOL0     C86843   6.790   5.625  11.898  0.6763  0.7762 -0.4096
  644MOL0     C86844   6.703   5.632  12.024  1.0479  0.1014  0.5172
  644MOL0     C86845   6.781   5.660  12.151  0.1983  0.2447 -0.0968
  644MOL0     C86846   6.808   5.811  12.157  0.2037  0.3095 -0.3737
  644MOL0     C86847   6.885   5.859  12.287 -0.2168  1.4650 -0.2156
  644MOL0     C86848   6.899   6.006  12.282  0.0916  0.0121  0.2475
  644MOL0     C86849   6.797   6.089  12.354 -0.0167 -0.3954  0.0792
  644MOL0    Cl86850   6.724   6.220  12.247  0.0621  0.1697  0.0363
  644MOL0     C86851   6.430   5.444  11.689 -0.0052  0.2527 -1.1035
  644MOL0     C86852   6.336   5.414  11.594  0.9928 -1.0630  0.9702
  644MOL0     O86853   6.376   5.208  11.293  0.3508  0.0326 -0.0436
  644MOL0     C86854   6.042   5.233  11.231 -0.1463 -0.6723  0.7834
  644MOL0     C86855   5.940   5.204  11.139  0.1556 -0.7256 -0.1536
  644MOL0     N86856   5.637   5.249  10.370 -0.7000 -0.0095 -0.2014
  644MOL0     N86857   5.647   5.362  10.319  0.0372  0.1808 -0.7830
  644MOL0     C86858   5.401   6.327  10.858  0.8212  0.3198  0.4881
  644MOL0     C86859   5.374   6.403  10.980 -0.4386 -0.0704  0.0496
  644MOL0     C86860   5.193   6.628  11.305 -0.8122 -0.3211 -0.4399
  644MOL0     C86861   5.292   6.713  11.355  0.3298 -0.3152 -0.5140
  644MOL0     C86862   5.278   6.788  11.465 -0.1722 -0.0834  0.8269
  644MOL0     C86863   5.173   6.762  11.560  0.2405 -0.1001 -0.0750
  644MOL0     O86864   5.186   6.835  11.674  0.4023  0.2144 -0.2429
  644MOL0     C86865   5.088   6.821  11.774 -0.3332 -0.4669  0.0738
  644MOL0     C86866   5.105   6.692  11.853 -0.1408 -0.0106  0.0992
  644MOL0     C86867   5.254   6.665  11.888 -0.2301  0.0773  0.2477
  644MOL0     C86868   5.275   6.575  12.008 -0.1971  0.2708  0.6722
  644MOL0     C86869   5.258   6.646  12.133  0.4321 -0.3574 -0.1330
  644MOL0     C86870   5.262   6.710  12.244  1.0189 -0.0033  0.2068
  644MOL0     C86871   5.064   6.681  11.510  0.3727  0.2843  0.5382
  644MOL0     C86872   5.081   6.615  11.381  0.1652  0.4205  0.3945
  644MOL0     H86873   5.271   6.701  10.863  1.0138  0.2581 -3.4742
  644MOL0     H86874   5.326   6.567  10.640  3.0268  0.3786  0.1690
  644MOL0     H86875   5.396   6.126  10.647 -1.2884 -1.7923 -0.2844
  644MOL0     H86876   5.268   6.218  10.563 -0.2323 -1.0471  3.1794
  644MOL0     H86877   5.366   6.253  10.370 -0.7220  0.3774  0.3665
  644MOL0     H86878   5.539   6.225  10.437 -0.0153 -1.4451  0.2693
  644MOL0     H86879   5.492   6.009  10.477  0.1751  1.8517  0.9281
  644MOL0     H86880   5.316   6.033  10.430 -1.0478  0.8947 -1.4397
  644MOL0     H86881   5.366   6.045  10.206  1.0641 -1.1479 -1.3247
  644MOL0     H86882   5.540   6.085  10.231 -0.0929 -1.3408 -0.4410
  644MOL0     H86883   5.482   5.842  10.136  2.4598 -3.3530  0.9579
  644MOL0     H86884   5.583   5.853  10.286  0.0268  2.3695  0.6742
  644MOL0     H86885   5.395   5.814  10.418 -0.5242  1.1109 -0.3124
  644MOL0     H86886   5.290   5.808  10.265 -0.4186 -3.1578 -1.2959
  644MOL0     H86887   5.335   5.587  10.351  1.3633 -1.4051  0.9842
  644MOL0     H86888   5.422   5.594  10.199  0.4561  0.7364  0.0613
  644MOL0     H86889   5.552   5.650  10.461 -0.6961  0.8897  0.2671
  644MOL0     H86890   5.633   5.626  10.306  2.1622 -0.2369  0.8374
  644MOL0     H86891   5.485   5.421  10.592 -2.0536 -2.3602 -0.4635
  644MOL0     H86892   5.477   5.160  10.649  0.3785 -2.6324  0.8515
  644MOL0     H86893   5.599   5.061  10.566 -0.8522 -0.9248  3.0292
  644MOL0     H86894   5.677   5.278  10.748  0.9156 -0.9771  2.1925
  644MOL0     H86895   5.778   5.180  10.651 -0.7884  2.3937  0.6323
  644MOL0     H86896   5.713   4.970  10.770  0.5372  0.5781 -1.3508
  644MOL0     H86897   5.569   5.063  10.827 -0.0447  3.2837 -1.5673
  644MOL0     H86898   5.756   5.036  11.007  1.2439 -1.4370 -0.1289
  644MOL0     H86899   5.694   5.197  10.972 -0.4444 -1.4721  0.2492
  644MOL0     H86900   6.132   5.176  10.851  0.4568  1.5383  0.1607
  644MOL0     H86901   6.404   5.141  11.044 -3.7295 -1.9392  1.0531
  644MOL0     H86902   6.347   5.236  10.896 -0.6447  1.5897  0.9475
  644MOL0     H86903   6.417   5.316  11.041  1.9171 -0.9295  0.5686
  644MOL0     H86904   6.503   5.457  11.316 -3.8109 -0.8770  0.0880
  644MOL0     H86905   6.689   5.505  11.483 -0.0515 -0.0463 -1.2765
  644MOL0     H86906   6.799   5.626  11.701  1.7638 -0.6066  1.5247
  644MOL0     H86907   6.642   5.690  11.750  2.1629  1.0887  0.2213
  644MOL0     H86908   6.858   5.542  11.915  1.8505  1.9866  1.0867
  644MOL0     H86909   6.845   5.719  11.883  0.1174  1.3000  0.6979
  644MOL0     H86910   6.653   5.536  12.037  1.3566  0.0102  1.0563
  644MOL0     H86911   6.618   5.701  12.011  0.7981 -0.3486 -0.2863
  644MOL0     H86912   6.718   5.625  12.234  1.6640 -3.7869 -0.4555
  644MOL0     H86913   6.868   5.593  12.156 -0.4006 -0.4517  2.6192
  644MOL0     H86914   6.710   5.857  12.140 -0.7345 -0.8576  1.4885
  644MOL0     H86915   6.869   5.835  12.070 -0.4344 -0.1964 -0.9649
  644MOL0     H86916   6.832   5.823  12.375  1.5758 -0.6526  0.0710
  644MOL0     H86917   6.979   5.804  12.295 -1.5712 -0.7148  2.0577
  644MOL0     H86918   6.881   6.037  12.179  1.5449  0.6827  0.1700
  644MOL0     H86919   7.000   6.037  12.312 -1.3965  2.6886  2.9959
  644MOL0     H86920   6.827   6.124  12.453  1.2383 -0.9572 -0.0851
  644MOL0     H86921   6.716   6.020  12.379  0.6582 -1.9413 -1.7725
  644MOL0     H86922   6.399   5.439  11.793  3.2229  1.3579  0.0283
  644MOL0     H86923   6.236   5.394  11.631  0.7858 -0.0226  0.9879
  644MOL0     H86924   6.023   5.269  11.331  0.8064 -0.4890  0.9040
  644MOL0     H86925   5.839   5.205  11.179 -0.5325 -0.5811 -1.8133
  644MOL0     H86926   5.441   6.226  10.861  0.9297  0.3219 -0.5599
  644MOL0     H86927   5.386   6.367  11.082 -0.5269  3.7722  1.5781
  644MOL0     H86928   5.388   6.725  11.305 -0.1604 -1.8735 -1.9358
  644MOL0     H86929   5.359   6.857  11.487  1.3185 -1.7648  0.9032
  644MOL0     H86930   5.113   6.903  11.842 -2.1023 -1.1196  1.5737
  644MOL0     H86931   4.986   6.831  11.736 -0.4533  2.4609  0.8734
  644MOL0     H86932   5.056   6.611  11.799 -0.8970  0.8862 -0.5917
  644MOL0     H86933   5.052   6.695  11.948 -0.3571  0.4559 -0.0317
  644MOL0     H86934   5.307   6.760  11.901  0.4585  0.2317 -2.9372
  644MOL0     H86935   5.305   6.625  11.800  1.7340  3.6275 -0.4024
  644MOL0     H86936   5.377   6.536  12.005 -0.1344  0.3468  1.5678
  644MOL0     H86937   5.226   6.477  12.012  3.7272 -1.8748  2.6801
  644MOL0     H86938   5.252   6.763  12.337 -0.3804  0.0946  0.0345
  644MOL0     H86939   4.971   6.675  11.565 -0.1494  1.0976 -0.2298
  644MOL0     H86940   5.014   6.547  11.329  1.0685  0.8456 -1.4173
  645MOL0     O86941   2.175   1.873   6.385 -0.4883 -0.1998  0.0676
  645MOL0     C86942   2.210   1.782   6.460 -0.9231 -0.4019 -0.9705
  645MOL0     O86943   2.136   1.745   6.573  0.1516  0.2093 -0.4665
  645MOL0     C86944   2.011   1.815   6.584  0.3030 -0.0321 -0.1655
  645MOL0     C86945   1.905   1.771   6.507  0.5320  0.7613 -0.7711
  645MOL0     C86946   1.771   1.818   6.528 -0.1769 -0.5823 -0.0629
  645MOL0     C86947   1.735   1.901   6.642  0.9814 -0.1404 -0.3487
  645MOL0     O86948   1.599   1.932   6.656 -0.9879  0.4368  0.7870
  645MOL0     C86949   1.552   1.937   6.796 -0.7331 -0.4268  0.6200
  645MOL0     C86950   1.402   1.907   6.811 -0.6464  0.4966 -0.0199
  645MOL0     C86951   1.318   2.016   6.746 -0.4880  0.0793  0.3060
  645MOL0     C86952   1.191   2.045   6.827  0.0133 -0.8036 -0.1931
  645MOL0     C86953   1.098   2.155   6.773 -0.2050  0.1791  0.3610
  645MOL0     C86954   0.993   2.102   6.680 -0.2881 -0.1199  0.2086
  645MOL0     C86955   0.866   2.188   6.672 -0.0756  0.0686  0.0029
  645MOL0     C86956   0.754   2.107   6.605  0.0409  0.6170 -0.5398
  645MOL0     N86957   0.701   2.013   6.702 -0.1027 -0.4400 -0.8087
  645MOL0     C86958   0.616   2.034   6.808 -0.0827  0.1076  0.5753
  645MOL0     C86959   0.598   1.916   6.867  0.2332  0.1614 -0.0514
  645MOL0     C86960   0.514   1.892   6.993  0.3243 -0.7061  0.2138
  645MOL0     C86961   0.564   1.968   7.116  0.5941 -0.7788 -0.4299
  645MOL0     C86962   0.458   1.980   7.240 -0.5959 -0.0384 -0.4967
  645MOL0     C86963   0.313   1.986   7.203 -0.4701 -0.0178 -1.3150
  645MOL0     O86964   0.289   2.085   7.114 -0.0267  0.2588  0.5021
  645MOL0     C86965   0.161   2.110   7.079 -0.4429 -0.0946 -0.0629
  645MOL0     C86966   0.120   2.239   7.084 -0.7869  0.7771 -1.0451
  645MOL0     C86967  -0.007   2.274   7.055 -0.2513  0.8629 -0.2568
  645MOL0     C86968  -0.049   2.420   7.059 -0.5954 -0.4970  0.1423
  645MOL0     C86969  -0.110   2.177   7.029 -0.8786  0.3436  0.5296
  645MOL0     C86970  -0.253   2.199   7.004  0.1834 -0.0994 -0.0833
  645MOL0     O86971  -0.341   2.106   7.058  0.2924  0.3649 -0.0257
  645MOL0     C86972  -0.474   2.100   7.025  0.2005 -0.0637 -0.5282
  645MOL0     C86973  -0.541   2.166   6.922  1.1394  0.0453  1.0271
  645MOL0     C86974  -0.679   2.148   6.898 -1.3262  0.0167 -0.6756
  645MOL0     C86975  -0.746   2.057   6.976  0.3834 -0.0198 -0.0921
  645MOL0     O86976  -0.880   2.034   6.941  0.0136  1.6331  0.0137
  645MOL0     C86977  -0.978   2.022   7.040 -0.6124  0.4874 -0.0985
  645MOL0     C86978  -1.105   2.056   6.959  0.1072 -1.3058 -0.3536
  645MOL0     C86979  -1.100   2.211   6.931 -0.2865  0.0546  0.0592
  645MOL0     C86980  -1.240   2.264   6.898  0.1935 -0.1072  0.0013
  645MOL0     C86981  -1.227   2.388   6.806  0.3099  0.5422  0.4166
  645MOL0     C86982  -1.142   2.504   6.863  0.5211 -0.7337 -0.1925
  645MOL0     C86983  -1.223   2.564   6.985 -1.0102 -0.0447  0.4536
  645MOL0     C86984  -1.164   2.698   7.013 -0.2926 -0.5376  0.8968
  645MOL0    Cl86985  -1.211   2.776   7.169 -0.3765 -0.7060  0.0982
  645MOL0     C86986  -0.676   1.993   7.081  1.2582  0.4869  0.2310
  645MOL0     C86987  -0.549   2.021   7.112  0.3144  0.7047  0.0121
  645MOL0     O86988  -0.291   2.308   6.951  0.1976 -0.1849 -0.0000
  645MOL0     C86989  -0.066   2.044   7.028  0.3291 -0.2084 -0.4066
  645MOL0     C86990   0.067   2.007   7.051  0.9688 -0.3629  0.2425
  645MOL0     N86991   0.664   1.815   6.793  0.6618 -0.0112  0.5260
  645MOL0     N86992   0.728   1.882   6.693  0.4721  0.1282 -1.0873
  645MOL0     C86993   1.848   1.949   6.708  1.0180  0.7646  0.4636
  645MOL0     C86994   1.976   1.909   6.680 -0.3329  0.2702  0.3100
  645MOL0     C86995   2.342   1.724   6.448  0.9376 -0.4655  0.8823
  645MOL0     C86996   2.438   1.772   6.353 -0.3518  0.1332  0.6964
  645MOL0     C86997   2.566   1.718   6.346 -0.2467 -0.1806  0.3992
  645MOL0     C86998   2.601   1.595   6.408  0.7179 -0.1104  0.0465
  645MOL0     O86999   2.703   1.521   6.361 -0.2557  0.0508  0.0723
  645MOL0     C87000   2.764   1.429   6.451  0.1803 -0.1287 -0.4473
  645MOL0     C87001   2.878   1.362   6.391  0.1599 -0.7831  0.2030
  645MOL0     C87002   2.948   1.278   6.500 -0.0202 -0.0241  0.2184
  645MOL0     C87003   3.009   1.160   6.424 -0.8401 -0.0150 -0.4019
  645MOL0     C87004   3.108   1.099   6.517  0.2706  0.4690 -0.1265
  645MOL0     C87005   3.193   1.040   6.580 -0.4640 -0.3596  0.0377
  645MOL0     C87006   2.504   1.562   6.507  0.4498  0.6508 -0.9702
  645MOL0     C87007   2.381   1.626   6.538 -0.1233 -0.8180  0.1999
  645MOL0     H87008   1.932   1.697   6.432  0.7722 -3.2117  2.8175
  645MOL0     H87009   1.692   1.799   6.455 -0.0135  0.1118 -0.4292
  645MOL0     H87010   1.614   1.871   6.859  1.4472  1.5229  0.6407
  645MOL0     H87011   1.556   2.039   6.833 -3.1592 -0.5700  1.4909
  645MOL0     H87012   1.381   1.805   6.777 -1.3901 -0.3991  2.8843
  645MOL0     H87013   1.383   1.920   6.918 -0.3101  3.1294 -0.2103
  645MOL0     H87014   1.371   2.110   6.731  1.0482 -0.6529  0.9059
  645MOL0     H87015   1.301   1.958   6.655  1.8160 -0.3329  0.0924
  645MOL0     H87016   1.139   1.950   6.841 -2.7401  0.0391 -3.3312
  645MOL0     H87017   1.225   2.085   6.923  0.4495 -0.3797 -0.5176
  645MOL0     H87018   1.048   2.200   6.860  1.3251  0.8803  0.9136
  645MOL0     H87019   1.167   2.226   6.727  2.2928 -0.8690  2.2088
  645MOL0     H87020   1.035   2.102   6.579  0.8489  5.7466  0.3590
  645MOL0     H87021   0.967   2.000   6.710 -0.4346 -0.4187 -0.9051
  645MOL0     H87022   0.847   2.232   6.770 -1.2288 -3.8487  1.7325
  645MOL0     H87023   0.876   2.269   6.599 -0.2006 -0.0178 -0.1096
  645MOL0     H87024   0.782   2.057   6.512  1.3812 -1.6885  0.9905
  645MOL0     H87025   0.663   2.160   6.577 -3.0531 -3.7179  0.3244
  645MOL0     H87026   0.584   2.132   6.842 -1.0356 -0.4986  1.4779
  645MOL0     H87027   0.409   1.915   6.973  0.3395 -1.0766 -0.3007
  645MOL0     H87028   0.520   1.786   7.021 -0.7613 -0.5322  1.2337
  645MOL0     H87029   0.577   2.069   7.077  2.8976 -1.5462 -1.8497
  645MOL0     H87030   0.648   1.923   7.171 -0.9641 -1.1667  1.7545
  645MOL0     H87031   0.485   2.067   7.301  0.4844 -3.1368  3.9726
  645MOL0     H87032   0.473   1.895   7.308 -0.1079  0.6477  0.2660
  645MOL0     H87033   0.258   2.014   7.293  3.8016 -2.1624  2.3381
  645MOL0     H87034   0.288   1.886   7.166  0.8619 -1.0755  0.5059
  645MOL0     H87035   0.184   2.320   7.117 -0.1107 -0.2935  0.3581
  645MOL0     H87036   0.034   2.482   7.094 -0.4030 -0.9166  0.4443
  645MOL0     H87037  -0.080   2.454   6.960  2.4452  1.9565 -0.1299
  645MOL0     H87038  -0.131   2.421   7.131 -0.4217 -0.9518  0.3522
  645MOL0     H87039  -0.495   2.217   6.837  1.2352  0.0212  1.0639
  645MOL0     H87040  -0.723   2.204   6.815 -0.4548  0.3202 -0.9406
  645MOL0     H87041  -0.979   1.920   7.078 -0.0707  0.4042 -0.3059
  645MOL0     H87042  -0.952   2.082   7.128 -1.5841  1.0635 -0.1894
  645MOL0     H87043  -1.106   1.999   6.866  0.4766 -0.4883 -0.8760
  645MOL0     H87044  -1.191   2.030   7.021  0.2710  2.0150  1.5230
  645MOL0     H87045  -1.031   2.231   6.848  0.0610  0.3250  0.4117
  645MOL0     H87046  -1.048   2.271   7.007  2.1873  3.4673 -3.8778
  645MOL0     H87047  -1.301   2.190   6.845  1.8289 -1.0709 -0.5998
  645MOL0     H87048  -1.294   2.299   6.987 -1.3635  0.6196 -1.1878
  645MOL0     H87049  -1.324   2.422   6.768  1.2428  1.4860 -1.2353
  645MOL0     H87050  -1.181   2.362   6.711  1.1347 -2.1290  1.4666
  645MOL0     H87051  -1.044   2.464   6.893  0.3855 -0.9492 -0.0315
  645MOL0     H87052  -1.138   2.577   6.782  0.1200 -2.2268 -1.6047
  645MOL0     H87053  -1.207   2.508   7.078 -0.5671 -2.5966 -1.0850
  645MOL0     H87054  -1.329   2.577   6.960 -0.6187 -1.7835 -2.5446
  645MOL0     H87055  -1.200   2.765   6.935 -2.5297 -0.2788  2.0477
  645MOL0     H87056  -1.055   2.690   7.014 -0.0877 -0.3621  5.8738
  645MOL0     H87057  -0.737   1.923   7.137 -0.1997  1.3907 -0.1820
  645MOL0     H87058  -0.498   1.972   7.193 -0.5968  1.0937  0.8419
  645MOL0     H87059  -0.139   1.972   6.995  0.4749 -0.7510  0.4218
  645MOL0     H87060   0.101   1.904   7.041  2.9169  0.3623 -1.4617
  645MOL0     H87061   1.820   2.009   6.794 -1.1241 -0.9191  1.0321
  645MOL0     H87062   2.049   1.949   6.749  3.7246 -0.8115 -2.9325
  645MOL0     H87063   2.402   1.845   6.281 -2.6360 -2.7014 -1.3046
  645MOL0     H87064   2.629   1.763   6.271 -2.4369  1.4818 -0.5459
  645MOL0     H87065   2.796   1.493   6.533  1.1346 -0.8897 -0.1993
  645MOL0     H87066   2.687   1.358   6.482 -1.9189  1.3797 -1.9537
  645MOL0     H87067   2.936   1.440   6.341 -1.5640  1.0459  0.9151
  645MOL0     H87068   2.821   1.307   6.315 -2.0044 -1.1569  1.9903
  645MOL0     H87069   2.877   1.244   6.577 -0.8125 -2.8689 -1.6061
  645MOL0     H87070   3.028   1.340   6.541  0.5716  0.8491 -2.1558
  645MOL0     H87071   3.065   1.190   6.335  0.5594 -2.1831 -0.3402
  645MOL0     H87072   2.934   1.082   6.406  0.8572 -1.6927 -0.5323
  645MOL0     H87073   3.257   0.974   6.635  0.4695  1.0557  0.6932
  645MOL0     H87074   2.520   1.475   6.570 -1.4841  0.6737 -0.3893
  645MOL0     H87075   2.313   1.589   6.614 -1.0951  1.9892  0.8404
  646MOL0     O87076   9.025  11.006   1.015 -0.1189 -0.0895 -0.3924
  646MOL0     C87077   9.087  10.899   1.019  0.2926  0.2869  0.3553
  646MOL0     O87078   9.084  10.799   1.112 -0.4212  0.5849 -0.3154
  646MOL0     C87079   9.023  10.820   1.235  0.4422  0.8954  0.3888
  646MOL0     C87080   9.008  10.939   1.308 -0.0474  0.1189  0.0736
  646MOL0     C87081   8.951  10.940   1.439  0.4347 -0.2454  0.6056
  646MOL0     C87082   8.873  10.829   1.472  0.2399  0.6142  0.0297
  646MOL0     O87083   8.820  10.814   1.601 -0.0586  0.5850  0.1231
  646MOL0     C87084   8.914  10.842   1.712  0.2931  0.2246  0.3075
  646MOL0     C87085   9.007  10.724   1.738  0.0420  0.0246 -0.6770
  646MOL0     C87086   9.113  10.770   1.843 -0.4870 -0.2996  0.0683
  646MOL0     C87087   9.211  10.659   1.865 -1.0142 -0.1185 -0.3492
  646MOL0     C87088   9.345  10.716   1.922 -0.2445 -0.2192 -0.0414
  646MOL0     C87089   9.339  10.814   2.042  0.6234  0.4141  0.2986
  646MOL0     C87090   9.459  10.911   2.058 -0.0350  0.0043  0.3671
  646MOL0     C87091   9.444  11.019   1.954  0.2589  0.3130  0.1579
  646MOL0     N87092   9.537  11.132   1.978  0.0923 -0.9800 -1.1034
  646MOL0     C87093   9.569  11.195   2.097 -0.4628  0.4164  0.3393
  646MOL0     C87094   9.635  11.304   2.060 -0.4778  0.6193 -1.5853
  646MOL0     C87095   9.681  11.414   2.165 -0.6223  0.5055  0.8741
  646MOL0     C87096   9.830  11.442   2.152  0.1315  0.0795 -0.6914
  646MOL0     C87097   9.886  11.537   2.270  0.1378 -0.5025  0.2711
  646MOL0     C87098   9.861  11.679   2.225  0.5299 -0.0544 -0.4873
  646MOL0     O87099   9.888  11.758   2.340 -0.0580 -0.4600  0.3583
  646MOL0     C87100   9.811  11.867   2.356 -0.9175 -0.4195 -0.1117
  646MOL0     C87101   9.680  11.889   2.313  0.1076 -0.6072  0.7927
  646MOL0     C87102   9.608  12.010   2.326 -0.1294 -0.7530  0.0094
  646MOL0     C87103   9.468  12.021   2.274  0.4732 -1.1159 -1.1124
  646MOL0     C87104   9.680  12.123   2.381  0.5665 -0.0199 -1.1170
  646MOL0     C87105   9.622  12.256   2.404 -0.2497 -0.6292  0.2042
  646MOL0     O87106   9.718  12.359   2.414  0.0386  0.4123  0.3613
  646MOL0     C87107   9.685  12.490   2.382  0.3773 -0.4534  0.1848
  646MOL0     C87108   9.590  12.530   2.284  0.2737 -0.4077 -0.3883
  646MOL0     C87109   9.571  12.664   2.260  0.9341 -0.5311 -0.2614
  646MOL0     C87110   9.639  12.758   2.334  0.5028  0.1803  0.0480
  646MOL0     O87111   9.601  12.893   2.313  0.1299 -0.6913  0.3376
  646MOL0     C87112   9.592  12.978   2.428 -0.8190 -0.2077 -0.5041
  646MOL0     C87113   9.502  13.097   2.397  0.1658 -0.2347 -0.2377
  646MOL0     C87114   9.513  13.190   2.517  0.4444 -0.4109  0.3784
  646MOL0     C87115   9.368  13.246   2.539 -0.3785  0.4903 -0.7906
  646MOL0     C87116   9.276  13.155   2.627 -0.1590  0.6430 -0.4109
  646MOL0     C87117   9.320  13.182   2.775  0.6920  0.4320  0.8125
  646MOL0     C87118   9.230  13.096   2.874 -0.7105  0.5980 -0.3319
  646MOL0     C87119   9.258  13.123   3.025  1.1082 -0.4970 -0.3462
  646MOL0    Cl87120   9.415  13.058   3.087 -0.7719  0.0931 -0.0422
  646MOL0     C87121   9.755  12.724   2.415  0.2883 -0.4060 -0.1482
  646MOL0     C87122   9.770  12.588   2.434  0.5243  0.2669 -0.3393
  646MOL0     O87123   9.500  12.276   2.406  0.4889  0.3507 -0.5534
  646MOL0     C87124   9.810  12.100   2.434 -0.3139  0.8208 -0.4777
  646MOL0     C87125   9.872  11.981   2.419 -0.4097  0.6641  0.3796
  646MOL0     N87126   9.639  11.312   1.918 -0.4070  0.8513 -0.2352
  646MOL0     N87127   9.585  11.207   1.868  0.0087  0.1342  0.2752
  646MOL0     C87128   8.874  10.716   1.394 -0.1034  0.1744 -0.2669
  646MOL0     C87129   8.958  10.709   1.276  0.6498 -0.0328 -0.8887
  646MOL0     C87130   9.178  10.869   0.906 -0.0237 -0.1830  0.3712
  646MOL0     C87131   9.181  10.947   0.791  0.3424 -0.0365 -0.2564
  646MOL0     C87132   9.244  10.919   0.675  0.0314 -0.0129  0.9738
  646MOL0     C87133   9.341  10.810   0.675 -0.4435  0.3886  1.1484
  646MOL0     O87134   9.424  10.780   0.565 -0.2224 -0.7146  0.0068
  646MOL0     C87135   9.412  10.853   0.445  0.6073  0.2377  0.3654
  646MOL0     C87136   9.499  10.781   0.341 -0.1557  0.0900 -0.6963
  646MOL0     C87137   9.489  10.841   0.196  0.5295  0.7294  0.2790
  646MOL0     C87138   9.351  10.863   0.132 -0.4262 -0.6473  0.6966
  646MOL0     C87139   9.273  10.744   0.128 -0.7275 -0.2649  0.0230
  646MOL0     C87140   9.208  10.643   0.119  0.4629 -0.9738 -0.1608
  646MOL0     C87141   9.345  10.734   0.784  0.3314  0.5237 -0.3634
  646MOL0     C87142   9.255  10.754   0.894 -0.3018 -0.4132  0.3183
  646MOL0     H87143   9.054  11.029   1.269  2.0623 -1.4775 -1.3312
  646MOL0     H87144   8.953  11.034   1.494 -3.7111  1.5053 -1.7805
  646MOL0     H87145   8.980  10.930   1.707 -0.4309  1.2258  4.6242
  646MOL0     H87146   8.857  10.847   1.805  0.4933  0.2792  0.4264
  646MOL0     H87147   8.953  10.638   1.777  0.9466 -1.8288 -3.2149
  646MOL0     H87148   9.062  10.711   1.644  2.3378  3.6844 -0.0444
  646MOL0     H87149   9.165  10.859   1.805 -2.7427  2.9182  3.7148
  646MOL0     H87150   9.052  10.797   1.930 -0.9016  0.0705 -0.3283
  646MOL0     H87151   9.162  10.581   1.925 -0.2603 -1.4222 -1.3636
  646MOL0     H87152   9.227  10.614   1.766  0.9396  0.9427 -0.5759
  646MOL0     H87153   9.412  10.633   1.946  2.3518  2.1185  1.3167
  646MOL0     H87154   9.387  10.777   1.842 -4.4505  0.3226 -2.1028
  646MOL0     H87155   9.248  10.871   2.024  1.6170  1.3012 -2.3514
  646MOL0     H87156   9.325  10.760   2.136  2.9973 -1.1270 -0.1358
  646MOL0     H87157   9.462  10.946   2.162  2.6204 -2.1061  1.1234
  646MOL0     H87158   9.552  10.855   2.046  1.4565  2.2933  0.6217
  646MOL0     H87159   9.343  11.060   1.945 -0.3433 -1.4859 -2.7771
  646MOL0     H87160   9.468  10.985   1.852 -3.0559  1.6573 -1.2076
  646MOL0     H87161   9.555  11.165   2.201 -2.5897 -0.6485 -0.2053
  646MOL0     H87162   9.616  11.502   2.163  0.9176  1.6652 -0.9532
  646MOL0     H87163   9.657  11.357   2.256 -1.1262 -0.8109 -0.0531
  646MOL0     H87164   9.862  11.476   2.053 -2.1492  2.1128 -0.8377
  646MOL0     H87165   9.873  11.344   2.173  1.5762  0.3567 -2.1119
  646MOL0     H87166   9.990  11.513   2.290 -0.2102 -2.7633 -0.3283
  646MOL0     H87167   9.829  11.512   2.360 -1.1371 -0.3166 -0.4566
  646MOL0     H87168   9.760  11.680   2.183 -0.1274 -2.4365  0.8674
  646MOL0     H87169   9.942  11.709   2.157  2.6246 -1.1009  1.3931
  646MOL0     H87170   9.617  11.815   2.263  0.7962  0.1895 -1.3593
  646MOL0     H87171   9.450  12.103   2.204 -1.8477 -0.8053 -0.2461
  646MOL0     H87172   9.452  11.926   2.221  0.6209 -2.3415  0.9004
  646MOL0     H87173   9.378  12.025   2.337  1.3039  0.2814  0.0551
  646MOL0     H87174   9.522  12.453   2.249 -3.6303  1.4095  2.3585
  646MOL0     H87175   9.496  12.703   2.193  2.0501 -0.2384 -1.3854
  646MOL0     H87176   9.557  12.920   2.514  2.9776  2.7127  3.4719
  646MOL0     H87177   9.692  13.007   2.461  0.0126 -2.7255 -0.6287
  646MOL0     H87178   9.537  13.148   2.307 -0.9328 -0.6648 -0.9275
  646MOL0     H87179   9.402  13.057   2.376  0.0209  0.8104 -1.6317
  646MOL0     H87180   9.580  13.270   2.483 -0.5049 -0.8407 -2.7980
  646MOL0     H87181   9.552  13.135   2.604 -0.1290 -0.3729  0.6625
  646MOL0     H87182   9.361  13.341   2.593  0.4695  0.7472 -1.1073
  646MOL0     H87183   9.320  13.271   2.444 -2.5428 -0.9230 -0.1302
  646MOL0     H87184   9.284  13.047   2.610  0.4327  0.5964  0.1217
  646MOL0     H87185   9.173  13.188   2.615 -0.4799 -0.7974 -1.9983
  646MOL0     H87186   9.425  13.165   2.800  0.2472 -0.5395  2.1231
  646MOL0     H87187   9.306  13.287   2.802  0.6538  0.4309  0.7983
  646MOL0     H87188   9.224  12.987   2.864 -0.4947  0.6018 -0.5197
  646MOL0     H87189   9.128  13.133   2.863 -0.7878  0.1742 -1.1383
  646MOL0     H87190   9.176  13.082   3.085  0.4058 -0.2478 -1.1236
  646MOL0     H87191   9.242  13.231   3.029 -0.6022 -0.6461 -1.8150
  646MOL0     H87192   9.818  12.805   2.452 -1.3425  0.6522  0.4001
  646MOL0     H87193   9.846  12.553   2.503 -0.7205 -2.1279 -0.0902
  646MOL0     H87194   9.859  12.179   2.490 -1.9996  0.5256  1.5054
  646MOL0     H87195   9.979  11.986   2.437  0.6037  1.0616 -4.4241
  646MOL0     H87196   8.818  10.628   1.422  0.6122 -1.2257 -2.8528
  646MOL0     H87197   8.948  10.611   1.229 -4.3453  0.7397 -2.0659
  646MOL0     H87198   9.118  11.035   0.789 -2.6065 -1.9703  0.3720
  646MOL0     H87199   9.204  10.986   0.600 -1.9564 -3.2492 -1.0936
  646MOL0     H87200   9.312  10.861   0.402  0.1535  0.3791  1.4164
  646MOL0     H87201   9.449  10.955   0.459  1.8347  0.2209 -2.1162
  646MOL0     H87202   9.466  10.677   0.329 -1.2359  0.0502  1.9920
  646MOL0     H87203   9.603  10.788   0.374 -0.0113 -0.3143 -1.0571
  646MOL0     H87204   9.534  10.769   0.126 -2.0456  0.1436 -0.9128
  646MOL0     H87205   9.549  10.932   0.198  2.3101 -0.2933 -2.0061
  646MOL0     H87206   9.353  10.907   0.032 -3.3618  2.2818  1.7613
  646MOL0     H87207   9.298  10.934   0.195  1.7516 -0.3923  2.3592
  646MOL0     H87208   9.148  10.555   0.106 -3.5604  1.1647  2.1957
  646MOL0     H87209   9.409  10.647   0.779  1.1921  0.7918  3.1664
  646MOL0     H87210   9.247  10.689   0.980 -0.1149  0.8062  1.2869
  647MOL0     O87211   6.217   7.872   8.042  0.1770 -0.1007  0.7517
  647MOL0     C87212   6.192   7.846   7.921 -0.3959 -0.4961  0.1910
  647MOL0     O87213   6.136   7.923   7.824  1.2059 -0.4869 -0.8504
  647MOL0     C87214   6.099   8.047   7.863 -0.1043 -0.8093 -0.6732
  647MOL0     C87215   6.189   8.137   7.923  0.7695 -0.0999 -0.3431
  647MOL0     C87216   6.143   8.263   7.965  0.9749  0.4872 -0.9899
  647MOL0     C87217   6.007   8.299   7.955  1.3098  0.1870  0.6195
  647MOL0     O87218   5.951   8.414   7.999  0.8843  1.3664  0.4963
  647MOL0     C87219   6.044   8.509   8.042 -0.5754  0.0264  0.7812
  647MOL0     C87220   5.970   8.646   8.063 -0.1806 -0.2744  0.0379
  647MOL0     C87221   6.066   8.762   8.102 -0.3582  0.0543  0.3875
  647MOL0     C87222   5.973   8.891   8.120  0.3043  0.1923  0.4006
  647MOL0     C87223   6.037   9.033   8.152 -0.4141  0.0726  0.2129
  647MOL0     C87224   6.096   9.022   8.290  0.0829  0.1766 -0.4663
  647MOL0     C87225   6.188   9.137   8.315 -0.1789 -0.1595 -0.7817
  647MOL0     C87226   6.261   9.145   8.455 -0.4993 -0.1900  0.6860
  647MOL0     N87227   6.167   9.153   8.564 -0.2508  0.4462  0.1178
  647MOL0     C87228   6.097   9.256   8.611  0.4171 -0.8233 -0.7288
  647MOL0     C87229   5.990   9.202   8.667 -1.0074  0.0152  0.4036
  647MOL0     C87230   5.885   9.275   8.760 -0.4327  0.0624  0.1428
  647MOL0     C87231   5.764   9.315   8.669  0.5933 -0.7589 -0.3555
  647MOL0     C87232   5.723   9.211   8.564  0.2544  0.4800 -0.4142
  647MOL0     C87233   5.739   9.263   8.426 -0.7691  0.2065  0.8181
  647MOL0     O87234   5.689   9.167   8.332 -0.4967  0.0257  1.3040
  647MOL0     C87235   5.553   9.181   8.291 -0.4923  0.3130  0.5723
  647MOL0     C87236   5.507   9.308   8.254  0.5256  0.4458  0.4795
  647MOL0     C87237   5.367   9.332   8.232  0.9447 -0.1793  0.9796
  647MOL0     C87238   5.327   9.481   8.228 -0.7392 -0.2108  0.0023
  647MOL0     C87239   5.284   9.217   8.235 -0.3014 -1.2024  0.1157
  647MOL0     C87240   5.144   9.222   8.200  0.2362  0.0017 -0.1017
  647MOL0     O87241   5.110   9.319   8.114  0.3125  0.3944  0.6806
  647MOL0     C87242   4.977   9.361   8.091  0.5534  0.3930 -0.2913
  647MOL0     C87243   4.878   9.369   8.186 -0.4787  0.3743 -0.2937
  647MOL0     C87244   4.753   9.415   8.145 -0.0467  0.1130 -0.5537
  647MOL0     C87245   4.716   9.443   8.011  0.1291  0.2578 -0.4117
  647MOL0     O87246   4.589   9.478   7.978  0.1516  0.5775  0.4902
  647MOL0     C87247   4.583   9.583   7.878 -0.2104 -0.4293 -0.9711
  647MOL0     C87248   4.454   9.651   7.886  0.4291  0.0199  0.2575
  647MOL0     C87249   4.352   9.561   7.806  0.1056 -0.3652  0.6019
  647MOL0     C87250   4.203   9.602   7.805 -0.2301 -0.2472 -0.4367
  647MOL0     C87251   4.158   9.561   7.949  0.1071 -1.1024  0.6742
  647MOL0     C87252   4.003   9.587   7.974 -0.2299  0.8067 -0.1043
  647MOL0     C87253   3.966   9.572   8.118 -0.3739  0.5244 -0.4344
  647MOL0     C87254   3.818   9.567   8.142 -0.1412 -0.1924  0.0135
  647MOL0    Cl87255   3.750   9.730   8.135 -0.4671  0.1299 -0.4328
  647MOL0     C87256   4.814   9.430   7.916  0.2093 -0.1290  0.2092
  647MOL0     C87257   4.942   9.384   7.960 -0.4088  0.0722 -0.0149
  647MOL0     O87258   5.062   9.151   8.260 -0.5865 -0.2489 -0.2617
  647MOL0     C87259   5.340   9.098   8.270  0.5835  0.8066  0.3730
  647MOL0     C87260   5.472   9.072   8.300  0.7779 -1.5233  0.3752
  647MOL0     N87261   6.002   9.071   8.666 -0.2295  0.2090  1.1066
  647MOL0     N87262   6.092   9.038   8.585 -0.1963 -0.8993  0.3454
  647MOL0     C87263   5.923   8.208   7.897 -0.2625  1.2002 -1.0592
  647MOL0     C87264   5.965   8.087   7.844 -0.4049  0.2230 -0.3208
  647MOL0     C87265   6.211   7.704   7.878 -0.2804 -0.8843 -0.1074
  647MOL0     C87266   6.303   7.612   7.929  0.3861  0.1042  0.2567
  647MOL0     C87267   6.323   7.481   7.883 -0.0576  0.1405  0.3259
  647MOL0     C87268   6.239   7.436   7.775 -0.2557 -0.5591 -1.3297
  647MOL0     O87269   6.254   7.304   7.744  1.2933 -0.1387 -0.0662
  647MOL0     C87270   6.170   7.244   7.639 -0.2859 -0.7824 -0.7169
  647MOL0     C87271   6.228   7.100   7.609  0.0059  0.0730  0.4036
  647MOL0     C87272   6.127   7.001   7.536  0.2054  0.1135  0.4565
  647MOL0     C87273   6.139   7.015   7.381  1.4663  0.5481 -0.9481
  647MOL0     C87274   6.262   6.969   7.333  0.1819  0.7914 -0.4691
  647MOL0     C87275   6.365   6.941   7.284 -1.0168  0.5389 -0.3889
  647MOL0     C87276   6.143   7.531   7.725 -1.8992  0.0972 -0.0466
  647MOL0     C87277   6.125   7.660   7.773  0.0532  0.7143  0.6402
  647MOL0     H87278   6.291   8.107   7.945  1.2936  0.5069 -1.7983
  647MOL0     H87279   6.213   8.311   8.033  0.5136  0.7254 -0.6786
  647MOL0     H87280   6.099   8.478   8.132  3.6935 -2.8064 -2.4044
  647MOL0     H87281   6.135   8.526   7.985 -0.6222  0.2462  0.7680
  647MOL0     H87282   5.906   8.663   7.976  0.4911  1.6965 -0.1243
  647MOL0     H87283   5.906   8.631   8.150  0.3715 -0.5899  0.3957
  647MOL0     H87284   6.134   8.738   8.184  1.6630  0.6245 -1.0479
  647MOL0     H87285   6.132   8.770   8.015  1.2887 -3.2007  1.1811
  647MOL0     H87286   5.924   8.898   8.023 -1.6945 -1.2822  1.2343
  647MOL0     H87287   5.896   8.878   8.197  0.0952  3.5728  0.9500
  647MOL0     H87288   6.121   9.048   8.083  0.6430 -1.1666  1.1746
  647MOL0     H87289   5.974   9.122   8.149 -0.4002  0.0844  0.2550
  647MOL0     H87290   6.013   9.011   8.360  0.8542  1.5140  0.7144
  647MOL0     H87291   6.148   8.926   8.303 -1.2816 -0.4476  0.6994
  647MOL0     H87292   6.271   9.144   8.245  1.1081  1.5090  0.8239
  647MOL0     H87293   6.124   9.225   8.303 -0.6187 -0.7214 -2.9006
  647MOL0     H87294   6.328   9.231   8.464 -1.9889  0.9931  0.7379
  647MOL0     H87295   6.334   9.063   8.461 -1.1618 -0.6941  2.3294
  647MOL0     H87296   6.106   9.365   8.614 -1.6931 -0.5615  2.7757
  647MOL0     H87297   5.852   9.206   8.838 -2.1071 -1.3717 -1.7057
  647MOL0     H87298   5.925   9.364   8.810 -1.0501  0.3227  0.1851
  647MOL0     H87299   5.797   9.407   8.619  0.1547  1.0526  2.4821
  647MOL0     H87300   5.673   9.337   8.726  2.6098  1.0799  2.4265
  647MOL0     H87301   5.615   9.196   8.568  0.6283 -3.0504 -0.4673
  647MOL0     H87302   5.765   9.110   8.563 -1.4413 -0.2425 -1.0254
  647MOL0     H87303   5.846   9.266   8.399 -0.8047 -0.3500  0.6027
  647MOL0     H87304   5.713   9.369   8.435  4.2888  2.1036 -2.1871
  647MOL0     H87305   5.585   9.384   8.245  1.5810 -0.6702 -0.1655
  647MOL0     H87306   5.231   9.498   8.278 -0.4171 -0.6679  0.7886
  647MOL0     H87307   5.409   9.525   8.284  0.4892 -1.6239 -0.6209
  647MOL0     H87308   5.325   9.523   8.126 -3.6797  0.4853  0.2428
  647MOL0     H87309   4.910   9.345   8.287 -1.0877 -0.8225 -0.3628
  647MOL0     H87310   4.670   9.427   8.214 -2.8508  2.1475 -3.9211
  647MOL0     H87311   4.663   9.657   7.892  0.2265 -0.9617 -0.6043
  647MOL0     H87312   4.600   9.545   7.777  3.5524  0.4025 -0.7918
  647MOL0     H87313   4.409   9.670   7.984 -0.2586  2.7126 -0.4953
  647MOL0     H87314   4.457   9.743   7.827  0.4385 -0.0135  0.2059
  647MOL0     H87315   4.355   9.461   7.850 -2.4227 -1.3913 -1.2869
  647MOL0     H87316   4.387   9.560   7.703 -0.1268  2.8117  0.3730
  647MOL0     H87317   4.196   9.710   7.793 -0.0549  0.1453  2.2921
  647MOL0     H87318   4.135   9.554   7.735 -2.0833  0.6274  0.6713
  647MOL0     H87319   4.213   9.601   8.034  4.3375 -1.5856 -1.5322
  647MOL0     H87320   4.182   9.455   7.962  1.7035 -1.0142 -1.0600
  647MOL0     H87321   3.974   9.687   7.940 -3.4840 -0.6449 -2.1448
  647MOL0     H87322   3.944   9.516   7.916  0.2149  0.2369  0.1275
  647MOL0     H87323   4.004   9.652   8.182 -2.6775  0.7875  0.7395
  647MOL0     H87324   4.027   9.488   8.152 -1.0671 -0.5138 -1.6896
  647MOL0     H87325   3.806   9.526   8.243  0.4426  0.3250  0.2989
  647MOL0     H87326   3.763   9.496   8.078  0.6729  0.5579 -1.5811
  647MOL0     H87327   4.798   9.440   7.809 -2.8641 -5.0172 -0.1034
  647MOL0     H87328   5.030   9.376   7.897  0.3860 -2.8131  1.2986
  647MOL0     H87329   5.264   9.021   8.281  2.1361 -1.0421 -1.0834
  647MOL0     H87330   5.505   8.970   8.316  1.3518 -1.0480  2.6445
  647MOL0     H87331   5.818   8.235   7.894 -0.1725  2.1667  1.9077
  647MOL0     H87332   5.889   8.016   7.815  0.8170 -2.7955  3.0952
  647MOL0     H87333   6.369   7.646   8.009 -1.8469  0.7282  1.9323
  647MOL0     H87334   6.398   7.417   7.928 -1.1128  0.5958  2.8751
  647MOL0     H87335   6.068   7.231   7.677 -0.3094  3.0857  0.9091
  647MOL0     H87336   6.158   7.313   7.555 -4.7093  3.3981  2.7814
  647MOL0     H87337   6.249   7.045   7.702  1.3355  2.6204  1.7105
  647MOL0     H87338   6.328   7.115   7.568 -0.0593  1.3540  0.6673
  647MOL0     H87339   6.026   7.031   7.567 -2.0930 -2.0946 -4.0135
  647MOL0     H87340   6.155   6.897   7.556  0.9932  0.2721  0.2166
  647MOL0     H87341   6.118   7.119   7.355 -1.4546  0.3691  0.3003
  647MOL0     H87342   6.058   6.950   7.347 -0.7233  1.5138  2.0344
  647MOL0     H87343   6.464   6.911   7.258 -0.2096  3.9745 -1.8522
  647MOL0     H87344   6.075   7.505   7.645 -2.4297 -2.8966  1.2119
  647MOL0     H87345   6.049   7.719   7.722 -0.4216  0.4173  0.9971
  648MOL0     O87346   6.819   6.549   8.588 -0.0219 -0.0852 -0.1544
  648MOL0     C87347   6.706   6.571   8.541 -0.9301 -0.8399  0.1537
  648MOL0     O87348   6.613   6.474   8.502 -0.2963  0.0428 -0.1607
  648MOL0     C87349   6.627   6.347   8.548 -0.1271  0.6499 -1.4922
  648MOL0     C87350   6.674   6.233   8.476  0.3051 -0.0251  0.6901
  648MOL0     C87351   6.700   6.116   8.542  0.5969  0.5389  0.1886
  648MOL0     C87352   6.683   6.099   8.681  0.5419 -0.6340  0.5603
  648MOL0     O87353   6.711   5.982   8.730  0.1041  0.1819  0.7798
  648MOL0     C87354   6.707   5.968   8.869 -0.7259 -0.5532 -0.0058
  648MOL0     C87355   6.762   5.840   8.925  0.1013  0.3232  0.1596
  648MOL0     C87356   6.749   5.701   8.849  0.4027 -0.2839  0.9826
  648MOL0     C87357   6.858   5.608   8.908  0.4695 -0.1398  0.1795
  648MOL0     C87358   6.856   5.469   8.836 -0.1552 -0.7172 -0.2952
  648MOL0     C87359   6.961   5.373   8.879 -1.0186  0.3665  0.4612
  648MOL0     C87360   6.919   5.235   8.831  0.3335  0.6181  0.0972
  648MOL0     C87361   7.019   5.178   8.728  0.5437  0.0307 -0.0470
  648MOL0     N87362   7.148   5.151   8.781 -1.4484  0.3264 -0.8491
  648MOL0     C87363   7.264   5.108   8.716  1.0981  0.0182  0.4085
  648MOL0     C87364   7.359   5.093   8.810 -0.0120  0.4371 -0.3398
  648MOL0     C87365   7.511   5.069   8.791  0.0751 -0.2325  0.1313
  648MOL0     C87366   7.592   4.988   8.899  0.0947 -0.3868  0.1986
  648MOL0     C87367   7.526   4.860   8.953  0.3303  0.2627 -0.1215
  648MOL0     C87368   7.488   4.761   8.838 -0.5184 -0.3376 -0.0568
  648MOL0     O87369   7.441   4.637   8.884  0.2808 -0.2068 -0.3133
  648MOL0     C87370   7.311   4.611   8.905 -0.4833 -0.5238  0.2978
  648MOL0     C87371   7.215   4.711   8.934 -0.5430  0.1589 -0.1873
  648MOL0     C87372   7.079   4.691   8.976  0.4166  0.3535 -0.1309
  648MOL0     C87373   6.990   4.815   8.993 -0.4705 -0.1060 -0.1938
  648MOL0     C87374   7.040   4.552   8.977 -0.2268 -1.0874  0.2339
  648MOL0     C87375   6.902   4.510   9.000 -0.0006 -0.7497  0.0412
  648MOL0     O87376   6.861   4.402   8.921 -0.7650 -0.6495 -0.5743
  648MOL0     C87377   6.738   4.347   8.959  0.0979  0.1605 -1.5638
  648MOL0     C87378   6.744   4.257   9.074  0.0361 -0.8808 -0.3538
  648MOL0     C87379   6.623   4.185   9.103 -0.3021 -0.0551 -0.4345
  648MOL0     C87380   6.497   4.203   9.038  0.1757  0.2762  0.0051
  648MOL0     O87381   6.372   4.157   9.070  0.4886  0.1114  0.4607
  648MOL0     C87382   6.355   4.026   9.131 -0.2544  0.8354  0.8823
  648MOL0     C87383   6.201   4.021   9.126 -0.4649  0.2176 -0.2083
  648MOL0     C87384   6.148   3.893   9.196 -0.7206 -0.5057  0.1314
  648MOL0     C87385   6.185   3.763   9.119  0.6700  0.3162  0.2043
  648MOL0     C87386   6.139   3.645   9.211  1.1415  0.2960 -0.1573
  648MOL0     C87387   6.006   3.586   9.155  0.7375  1.0977 -0.1461
  648MOL0     C87388   5.964   3.468   9.247 -0.2476  0.3065  0.0372
  648MOL0     C87389   5.819   3.421   9.234  0.6215 -0.3510  0.2632
  648MOL0    Cl87390   5.772   3.433   9.061  0.3215 -0.8016  0.1316
  648MOL0     C87391   6.493   4.297   8.947 -0.1354  0.0112 -0.3436
  648MOL0     C87392   6.614   4.370   8.907  0.0185  0.6762 -0.0045
  648MOL0     O87393   6.842   4.560   9.093  0.4951 -0.3910  1.0864
  648MOL0     C87394   7.136   4.453   8.957 -0.4962  0.5346 -0.6142
  648MOL0     C87395   7.264   4.487   8.935 -0.0539  0.1147 -0.0918
  648MOL0     N87396   7.300   5.117   8.932 -0.8388 -0.0481 -0.0408
  648MOL0     N87397   7.174   5.138   8.917 -0.2066 -0.3023 -0.7348
  648MOL0     C87398   6.638   6.214   8.753 -0.4317 -0.8266 -0.6039
  648MOL0     C87399   6.616   6.335   8.685 -0.7753  0.3142  0.6345
  648MOL0     C87400   6.660   6.714   8.529 -0.2554  0.3809 -0.7957
  648MOL0     C87401   6.676   6.818   8.629  0.6277  0.0010  1.2236
  648MOL0     C87402   6.636   6.950   8.593 -0.7108  0.0613 -0.1653
  648MOL0     C87403   6.560   6.981   8.491 -0.1036 -0.3817  0.2799
  648MOL0     O87404   6.509   7.104   8.462  0.7230  0.1245 -0.0999
  648MOL0     C87405   6.603   7.175   8.375  0.2678  0.2440 -0.6584
  648MOL0     C87406   6.560   7.319   8.351 -0.3138 -0.5481 -0.6225
  648MOL0     C87407   6.408   7.334   8.352  0.4187  0.1406  0.5100
  648MOL0     C87408   6.349   7.463   8.301 -0.1137  0.3719  0.1215
  648MOL0     C87409   6.386   7.565   8.400  0.8076  1.2670 -0.4999
  648MOL0     C87410   6.412   7.629   8.494  0.1531  0.0075 -0.0563
  648MOL0     C87411   6.529   6.871   8.407 -0.4034  0.2325  0.5586
  648MOL0     C87412   6.585   6.740   8.419  0.2403 -0.1385 -0.9889
  648MOL0     H87413   6.693   6.224   8.370  1.9521 -2.2288  1.0873
  648MOL0     H87414   6.748   6.044   8.476  0.9683  0.5996  0.3894
  648MOL0     H87415   6.764   6.047   8.917  0.4993 -2.2670  1.4812
  648MOL0     H87416   6.607   5.965   8.913  0.5448 -1.7701  3.0384
  648MOL0     H87417   6.865   5.848   8.959 -0.2243  0.3683  1.1520
  648MOL0     H87418   6.714   5.826   9.022  2.0102 -0.5865  1.0346
  648MOL0     H87419   6.653   5.650   8.861  0.5809 -0.8333  0.1259
  648MOL0     H87420   6.776   5.726   8.746 -0.5523  3.6297  1.5373
  648MOL0     H87421   6.956   5.655   8.897 -0.8239  2.4524 -1.1454
  648MOL0     H87422   6.831   5.588   9.012 -0.1863 -5.5079 -0.7191
  648MOL0     H87423   6.756   5.429   8.860 -1.8613  3.0955 -0.3075
  648MOL0     H87424   6.872   5.477   8.728  5.2829 -2.2993  0.0868
  648MOL0     H87425   7.055   5.401   8.832 -1.0149  0.0484  0.2809
  648MOL0     H87426   6.977   5.363   8.987  1.8302  0.5733  0.1161
  648MOL0     H87427   6.919   5.171   8.919 -0.9234 -0.0492 -0.3649
  648MOL0     H87428   6.820   5.229   8.785 -1.0431 -1.5664  3.0085
  648MOL0     H87429   7.035   5.239   8.638 -0.0545  0.4955  0.1533
  648MOL0     H87430   6.984   5.080   8.696 -1.4260 -0.0337  2.0829
  648MOL0     H87431   7.285   5.101   8.610  1.5638 -0.4006  0.5248
  648MOL0     H87432   7.521   5.019   8.694 -1.6788  0.6791 -0.5705
  648MOL0     H87433   7.573   5.158   8.780 -0.6968  0.4508  1.1923
  648MOL0     H87434   7.608   5.047   8.990 -1.2953 -2.3163  1.7831
  648MOL0     H87435   7.691   4.962   8.859  0.3078 -3.5548  2.3981
  648MOL0     H87436   7.432   4.875   9.006 -0.7358 -2.5684 -1.0434
  648MOL0     H87437   7.585   4.822   9.037 -1.1743  0.5724  1.1238
  648MOL0     H87438   7.559   4.751   8.755 -1.5685  0.5747 -1.1236
  648MOL0     H87439   7.407   4.811   8.783 -0.1789  0.9201  0.5351
  648MOL0     H87440   7.243   4.816   8.937 -1.3519  0.3621  0.9252
  648MOL0     H87441   7.030   4.904   9.043  1.5023  0.1293 -2.0558
  648MOL0     H87442   6.961   4.855   8.896 -1.5004  1.8051  0.8357
  648MOL0     H87443   6.901   4.791   9.053 -1.1086 -0.1713 -1.1505
  648MOL0     H87444   6.846   4.248   9.112 -1.2353 -1.5202  3.3084
  648MOL0     H87445   6.642   4.112   9.181  0.1414  1.4573  0.9317
  648MOL0     H87446   6.408   3.944   9.081 -0.4352  0.6818  0.9442
  648MOL0     H87447   6.387   4.023   9.235 -1.4491 -1.2877  1.2222
  648MOL0     H87448   6.155   4.106   9.177 -1.4043  2.3871 -4.1932
  648MOL0     H87449   6.165   4.031   9.023 -2.3234  2.6857  0.5809
  648MOL0     H87450   6.039   3.899   9.205 -0.9171  1.0404 -2.1432
  648MOL0     H87451   6.194   3.884   9.295 -2.5246 -2.7364  0.8581
  648MOL0     H87452   6.133   3.764   9.022 -1.3102 -2.4579  1.0888
  648MOL0     H87453   6.291   3.757   9.096  0.7754  1.0123  0.4905
  648MOL0     H87454   6.128   3.660   9.319 -2.0959 -0.2815 -0.2885
  648MOL0     H87455   6.221   3.574   9.202  2.9805  2.1114  1.1760
  648MOL0     H87456   5.936   3.670   9.157 -1.5913 -0.7521  0.8921
  648MOL0     H87457   6.026   3.545   9.056  3.8195 -0.9582  1.1590
  648MOL0     H87458   5.985   3.489   9.352  1.6262 -1.0676 -0.0019
  648MOL0     H87459   6.026   3.383   9.214 -0.9058  0.1816 -0.9295
  648MOL0     H87460   5.757   3.477   9.304 -2.7884 -2.5568 -0.7662
  648MOL0     H87461   5.810   3.319   9.271 -1.9162  0.8618  3.4731
  648MOL0     H87462   6.400   4.314   8.892 -4.1506 -0.0792  5.5397
  648MOL0     H87463   6.609   4.437   8.822  3.1650  1.7759  0.5365
  648MOL0     H87464   7.125   4.346   8.974 -0.9032  0.0906 -3.1372
  648MOL0     H87465   7.338   4.409   8.921  0.6819  0.5430  1.2061
  648MOL0     H87466   6.609   6.214   8.857  0.8046  0.0190 -0.2373
  648MOL0     H87467   6.577   6.420   8.740  2.0710  1.4637  1.0587
  648MOL0     H87468   6.729   6.794   8.721  4.6436  2.4100 -0.2023
  648MOL0     H87469   6.675   7.027   8.659 -1.4701 -0.9872  1.5752
  648MOL0     H87470   6.706   7.184   8.410  0.0969  1.6887 -0.4482
  648MOL0     H87471   6.606   7.121   8.280 -1.6166 -2.1147  0.4947
  648MOL0     H87472   6.611   7.353   8.261  4.5855 -1.5825  1.4768
  648MOL0     H87473   6.604   7.371   8.436 -1.1951  2.2572 -1.7739
  648MOL0     H87474   6.374   7.314   8.454 -0.8840  0.3588  0.1398
  648MOL0     H87475   6.371   7.252   8.290 -0.2192  1.1513 -0.4741
  648MOL0     H87476   6.241   7.445   8.296 -0.2205  1.2356 -1.3517
  648MOL0     H87477   6.390   7.486   8.202  0.8337 -0.4758  0.3102
  648MOL0     H87478   6.428   7.703   8.570  0.9305 -0.5870  0.3782
  648MOL0     H87479   6.464   6.894   8.323  1.0190  0.9094 -0.3859
  648MOL0     H87480   6.552   6.657   8.357  1.8772 -0.1309 -1.9213
  649MOL0     O87481   7.137   7.720  10.817  0.2207 -0.2480  0.3147
  649MOL0     C87482   7.173   7.801  10.902 -0.0575 -0.7731 -0.0204
  649MOL0     O87483   7.262   7.903  10.883 -0.1449  0.0345  0.5150
  649MOL0     C87484   7.334   7.897  10.764  0.6562 -0.6855  1.1983
  649MOL0     C87485   7.469   7.890  10.770  0.0420 -0.6190 -0.1929
  649MOL0     C87486   7.550   7.894  10.656  0.2538  0.9040 -0.9191
  649MOL0     C87487   7.496   7.886  10.528 -0.0591  0.1993  0.7758
  649MOL0     O87488   7.562   7.874  10.406 -0.2069  0.3672  0.2784
  649MOL0     C87489   7.697   7.913  10.400  0.0022  0.2607 -0.4779
  649MOL0     C87490   7.743   7.909  10.251 -0.0177  0.2612  0.1877
  649MOL0     C87491   7.694   7.778  10.185  0.1218  0.3582  0.2759
  649MOL0     C87492   7.720   7.770  10.032  0.0189 -0.1971 -0.0910
  649MOL0     C87493   7.692   7.637   9.961  0.5495 -0.7521 -0.1560
  649MOL0     C87494   7.729   7.641   9.809 -0.3952 -0.3685 -0.0313
  649MOL0     C87495   7.637   7.740   9.734  0.2908 -0.6740 -0.4837
  649MOL0     C87496   7.695   7.795   9.605  0.3917  0.4148 -0.8715
  649MOL0     N87497   7.766   7.693   9.519  0.4671 -0.2671  0.3812
  649MOL0     C87498   7.703   7.607   9.432  0.0363 -0.0869 -0.2437
  649MOL0     C87499   7.809   7.521   9.382 -1.0464 -0.3962  1.0007
  649MOL0     C87500   7.800   7.400   9.296  0.1190  0.7899 -0.1563
  649MOL0     C87501   7.710   7.428   9.177 -0.2162 -0.0162 -0.3267
  649MOL0     C87502   7.638   7.298   9.133 -0.6779  0.5543  0.4027
  649MOL0     C87503   7.516   7.257   9.225 -0.3953  0.5127 -0.2075
  649MOL0     O87504   7.478   7.359   9.310 -1.0412 -0.0843 -0.3119
  649MOL0     C87505   7.392   7.466   9.268 -1.0917 -0.0859 -0.1487
  649MOL0     C87506   7.347   7.492   9.141 -0.3712 -0.3849  1.1442
  649MOL0     C87507   7.250   7.591   9.115 -0.8300 -0.0005  0.4897
  649MOL0     C87508   7.227   7.618   8.970 -0.1167 -0.6561  1.4891
  649MOL0     C87509   7.197   7.675   9.214  0.0380  0.7126 -0.1538
  649MOL0     C87510   7.093   7.785   9.198  1.0130  0.6430 -0.5442
  649MOL0     O87511   7.027   7.815   9.311 -0.1361  0.6479  0.1215
  649MOL0     C87512   6.921   7.906   9.307  0.0552  0.2207 -0.2076
  649MOL0     C87513   6.910   7.981   9.425 -0.9367 -1.0457 -0.5608
  649MOL0     C87514   6.801   8.066   9.437 -0.6400  0.0395 -0.2470
  649MOL0     C87515   6.708   8.083   9.341  0.7075 -0.4779 -0.2879
  649MOL0     O87516   6.616   8.188   9.345  0.1712 -0.6682 -0.6745
  649MOL0     C87517   6.542   8.229   9.234 -0.5718  0.3971 -0.1876
  649MOL0     C87518   6.527   8.381   9.219  0.9186  0.6459  0.1612
  649MOL0     C87519   6.388   8.423   9.177 -0.1151  0.5776 -0.8866
  649MOL0     C87520   6.356   8.404   9.031 -0.5998  1.3838  0.4342
  649MOL0     C87521   6.214   8.444   8.986  0.3246 -0.7546 -0.9298
  649MOL0     C87522   6.114   8.348   9.056  0.4674  1.1222 -0.6850
  649MOL0     C87523   5.983   8.361   8.979  0.4534  1.0145  0.4653
  649MOL0     C87524   5.974   8.269   8.850 -0.5619 -0.0047  0.0581
  649MOL0    Cl87525   5.812   8.289   8.790 -0.3363  0.0663  0.2769
  649MOL0     C87526   6.698   7.985   9.241  0.1590 -0.4116 -0.0342
  649MOL0     C87527   6.814   7.900   9.219  0.5184  0.5406 -0.4155
  649MOL0     O87528   7.083   7.845   9.090  1.0144 -0.4127 -0.0867
  649MOL0     C87529   7.249   7.647   9.338 -1.0731  0.4633 -0.4556
  649MOL0     C87530   7.349   7.553   9.362  0.7462 -0.6651 -1.0275
  649MOL0     N87531   7.919   7.550   9.460  0.4350  1.0270  0.2266
  649MOL0     N87532   7.887   7.640   9.544 -0.2602  0.1703 -0.1938
  649MOL0     C87533   7.355   7.908  10.514 -0.5680 -0.0252 -0.3599
  649MOL0     C87534   7.276   7.913  10.636 -1.9200  0.5570 -0.2319
  649MOL0     C87535   7.109   7.796  11.033  0.5390  0.3910  0.1646
  649MOL0     C87536   7.030   7.684  11.068 -0.3716 -0.0599  0.5432
  649MOL0     C87537   6.964   7.677  11.198 -1.1549 -0.2433 -0.1330
  649MOL0     C87538   6.964   7.786  11.277 -1.0527 -0.3539 -0.8069
  649MOL0     O87539   6.895   7.777  11.400 -0.1433 -0.2671 -0.4433
  649MOL0     C87540   6.846   7.665  11.466  0.3179 -0.0315 -0.5689
  649MOL0     C87541   6.923   7.614  11.581  0.3601 -0.2894 -0.4747
  649MOL0     C87542   7.035   7.524  11.524  0.8968 -0.3507 -0.1691
  649MOL0     C87543   7.132   7.472  11.640  0.9450 -0.5571  0.3515
  649MOL0     C87544   7.231   7.383  11.578 -0.3466  0.4617 -0.4146
  649MOL0     C87545   7.295   7.288  11.519 -1.5907 -0.6189 -0.4763
  649MOL0     C87546   7.037   7.907  11.235 -0.2964 -0.9550 -0.0992
  649MOL0     C87547   7.112   7.907  11.119 -0.2576  0.9601  0.5356
  649MOL0     H87548   7.511   7.874  10.869  0.9556  1.6177 -0.1437
  649MOL0     H87549   7.652   7.873  10.688  0.2255  1.4976 -0.4104
  649MOL0     H87550   7.705   8.020  10.424 -1.5856  0.8042 -2.1195
  649MOL0     H87551   7.752   7.846  10.467  1.0325  0.1566 -1.3952
  649MOL0     H87552   7.701   7.999  10.205 -1.6720 -1.0635 -0.9976
  649MOL0     H87553   7.852   7.906  10.255 -0.0474 -0.8406  0.5652
  649MOL0     H87554   7.739   7.684  10.218 -0.6773 -0.9491 -2.1202
  649MOL0     H87555   7.585   7.766  10.190 -0.3397  1.2223 -3.8636
  649MOL0     H87556   7.660   7.849   9.987  1.7554  1.2613  0.0372
  649MOL0     H87557   7.825   7.791  10.009 -0.4705  1.8349 -0.6979
  649MOL0     H87558   7.735   7.552  10.016 -2.1667 -2.4287 -0.4351
  649MOL0     H87559   7.583   7.625   9.966  0.4659  0.3418  1.0920
  649MOL0     H87560   7.831   7.679   9.804  0.3109 -2.0674  0.8297
  649MOL0     H87561   7.717   7.538   9.776 -3.7428 -1.2494  3.1667
  649MOL0     H87562   7.545   7.686   9.710 -1.1797  1.3897  0.2210
  649MOL0     H87563   7.616   7.820   9.804 -1.5500 -1.5323 -0.0029
  649MOL0     H87564   7.765   7.879   9.617  0.4289  0.0718  1.8737
  649MOL0     H87565   7.619   7.828   9.534  1.2025 -2.8517 -3.5106
  649MOL0     H87566   7.596   7.606   9.413  0.0884  1.6996 -0.8370
  649MOL0     H87567   7.903   7.370   9.276 -0.8981 -2.3508 -1.1090
  649MOL0     H87568   7.757   7.320   9.357 -1.1768  1.8737  0.4052
  649MOL0     H87569   7.767   7.474   9.096  2.4908 -0.3093  1.2764
  649MOL0     H87570   7.639   7.507   9.204  3.3980  2.8763  1.6451
  649MOL0     H87571   7.714   7.220   9.119 -0.7570  0.5722 -0.1434
  649MOL0     H87572   7.594   7.313   9.034 -2.7590  0.7900  1.3230
  649MOL0     H87573   7.548   7.164   9.273  2.2716 -0.0289 -2.7371
  649MOL0     H87574   7.435   7.211   9.167 -0.3115 -1.0395  0.8361
  649MOL0     H87575   7.370   7.422   9.061  0.6872  0.7087  0.4554
  649MOL0     H87576   7.262   7.716   8.936 -1.5979  0.4584  2.9823
  649MOL0     H87577   7.264   7.538   8.906 -1.2281 -0.8142  1.0168
  649MOL0     H87578   7.121   7.607   8.944  0.0562  0.2497  0.3640
  649MOL0     H87579   6.991   7.958   9.494 -0.6149 -1.2094 -0.9956
  649MOL0     H87580   6.794   8.122   9.530  0.5268 -3.3887  2.0821
  649MOL0     H87581   6.601   8.200   9.147  0.6980 -0.0919  0.7958
  649MOL0     H87582   6.447   8.175   9.238 -0.5161  0.1594 -1.4915
  649MOL0     H87583   6.546   8.424   9.319  0.6828  1.6419 -0.2056
  649MOL0     H87584   6.592   8.420   9.141 -0.2604  0.2733 -1.0345
  649MOL0     H87585   6.386   8.531   9.195 -3.4830  0.1153  3.1442
  649MOL0     H87586   6.318   8.374   9.245 -1.3240  0.7876 -1.9490
  649MOL0     H87587   6.430   8.458   8.971 -0.0853 -1.5766 -1.8129
  649MOL0     H87588   6.380   8.301   9.005  4.8250  2.4430  0.1234
  649MOL0     H87589   6.206   8.441   8.877 -2.8429 -3.8748 -0.7649
  649MOL0     H87590   6.184   8.541   9.029 -3.3916 -3.3413  3.2207
  649MOL0     H87591   6.157   8.247   9.050  0.6102  1.0861  0.5852
  649MOL0     H87592   6.104   8.362   9.164  3.1585 -2.9141  0.3380
  649MOL0     H87593   5.976   8.467   8.951  1.8563  0.7935 -0.8227
  649MOL0     H87594   5.892   8.330   9.032 -0.4469  1.7936 -0.5622
  649MOL0     H87595   5.970   8.169   8.894 -2.9778  0.3711  0.8508
  649MOL0     H87596   6.056   8.279   8.779 -0.8647  4.4368  0.0941
  649MOL0     H87597   6.624   7.994   9.163 -1.1554  3.6328  1.3864
  649MOL0     H87598   6.792   7.827   9.142  0.6176 -1.6293  1.4997
  649MOL0     H87599   7.227   7.701   9.430  4.0917  1.6173  0.4479
  649MOL0     H87600   7.377   7.551   9.467  1.5060  0.0664 -1.2115
  649MOL0     H87601   7.317   7.915  10.413  2.6286  0.0454 -1.6638
  649MOL0     H87602   7.167   7.915  10.634 -1.9879 -0.8547  0.7079
  649MOL0     H87603   7.024   7.597  11.003  0.8933  1.1574 -1.2955
  649MOL0     H87604   6.934   7.575  11.219 -0.8576 -0.1367  0.8892
  649MOL0     H87605   6.753   7.700  11.513  0.9701 -0.7917  1.3938
  649MOL0     H87606   6.806   7.588  11.399 -1.2905  1.6326 -1.6419
  649MOL0     H87607   6.864   7.550  11.647 -0.3722  0.7101 -0.1371
  649MOL0     H87608   6.950   7.701  11.642  0.3903 -0.6847  0.0788
  649MOL0     H87609   7.091   7.587  11.455 -1.1738 -0.6551 -2.2588
  649MOL0     H87610   7.003   7.435  11.469 -2.9789  0.4621  0.4619
  649MOL0     H87611   7.077   7.416  11.716 -1.1562  1.7344  0.6675
  649MOL0     H87612   7.181   7.555  11.690  0.3578  1.6049 -2.3921
  649MOL0     H87613   7.323   7.211  11.449 -1.4159 -0.4906 -0.5484
  649MOL0     H87614   7.031   7.993  11.302 -2.1670 -0.6554 -0.5853
  649MOL0     H87615   7.166   7.997  11.093  2.9485 -0.8452  0.3990
  650MOL0     O87616   0.609   3.304  10.225  0.7721 -1.3389  0.3059
  650MOL0     C87617   0.601   3.253  10.341 -0.5008  0.0840  1.0154
  650MOL0     O87618   0.493   3.235  10.413  0.4222  0.1407  0.4489
  650MOL0     C87619   0.365   3.245  10.356 -0.3244 -0.6072  0.2131
  650MOL0     C87620   0.272   3.349  10.377 -0.6270  0.3752 -0.6169
  650MOL0     C87621   0.144   3.339  10.317  0.0145  0.4201 -0.5023
  650MOL0     C87622   0.113   3.237  10.232 -0.3716  0.5978  0.2481
  650MOL0     O87623  -0.016   3.246  10.176 -0.3775  0.1951 -0.6852
  650MOL0     C87624  -0.084   3.117  10.160  0.4097 -0.4747  0.2799
  650MOL0     C87625  -0.235   3.140  10.180 -1.0304  1.2292 -1.2445
  650MOL0     C87626  -0.302   3.179  10.045 -1.4077 -0.0062 -0.6336
  650MOL0     C87627  -0.283   3.325   9.995  0.1568  0.3255 -0.1769
  650MOL0     C87628  -0.335   3.330   9.849  0.1511 -0.3042  0.4117
  650MOL0     C87629  -0.314   3.471   9.785 -0.0354 -1.6113 -0.1589
  650MOL0     C87630  -0.353   3.476   9.636  0.3938  0.0672  0.6991
  650MOL0     C87631  -0.243   3.411   9.557  0.0644 -0.2314 -0.2074
  650MOL0     N87632  -0.244   3.434   9.412 -0.0119 -0.0066 -0.5100
  650MOL0     C87633  -0.331   3.378   9.320  0.7282  0.2965 -0.6718
  650MOL0     C87634  -0.328   3.453   9.216 -0.4522  0.0554  0.6070
  650MOL0     C87635  -0.409   3.432   9.087 -0.4747 -0.5806  0.2373
  650MOL0     C87636  -0.547   3.364   9.119  0.8246  1.1703 -0.2969
  650MOL0     C87637  -0.550   3.217   9.077  0.3787 -0.1781 -0.6853
  650MOL0     C87638  -0.530   3.178   8.926 -0.5537 -0.4507 -0.4106
  650MOL0     O87639  -0.618   3.254   8.838  0.6813 -0.1512 -0.3467
  650MOL0     C87640  -0.549   3.336   8.748  0.8027  0.1849  0.7433
  650MOL0     C87641  -0.512   3.468   8.770 -0.7237  0.0543 -0.2095
  650MOL0     C87642  -0.430   3.533   8.668  0.2794  0.2107 -0.1980
  650MOL0     C87643  -0.352   3.651   8.712 -0.2393 -0.5153  0.7608
  650MOL0     C87644  -0.418   3.483   8.534  0.1724  0.0258 -0.2873
  650MOL0     C87645  -0.349   3.548   8.422 -0.3291  0.4852  0.7580
  650MOL0     O87646  -0.304   3.470   8.322  0.6247  0.2009  0.2616
  650MOL0     C87647  -0.248   3.532   8.207  0.5513 -0.3364 -0.1066
  650MOL0     C87648  -0.129   3.590   8.219 -0.6033  0.8237  0.3114
  650MOL0     C87649  -0.081   3.670   8.108  0.1600 -0.7352  0.1530
  650MOL0     C87650  -0.152   3.669   7.983 -1.1911 -0.0884  0.1400
  650MOL0     O87651  -0.098   3.726   7.862  1.0009  0.1467 -0.2411
  650MOL0     C87652  -0.058   3.864   7.879  0.1826  0.3718 -1.3017
  650MOL0     C87653  -0.088   3.966   7.765  0.7150  0.5343 -0.2352
  650MOL0     C87654  -0.231   4.003   7.764  1.1455 -0.3385  0.4836
  650MOL0     C87655  -0.254   4.127   7.851  0.2541  0.2592  0.0802
  650MOL0     C87656  -0.401   4.187   7.851  0.0067  0.3734 -0.0824
  650MOL0     C87657  -0.481   4.110   7.951  0.7176 -0.1431  0.4298
  650MOL0     C87658  -0.627   4.166   7.952 -0.7678  0.5425  0.8233
  650MOL0     C87659  -0.704   4.111   8.061 -0.4968  0.3360 -0.4751
  650MOL0    Cl87660  -0.869   4.135   8.021  0.0563  0.6434 -0.5764
  650MOL0     C87661  -0.269   3.606   7.965  0.4974  0.5673  1.1564
  650MOL0     C87662  -0.318   3.542   8.078  0.3196 -1.3175  0.0759
  650MOL0     O87663  -0.342   3.668   8.424 -0.4031 -0.4356 -0.4554
  650MOL0     C87664  -0.469   3.352   8.517 -0.3017  0.5976 -0.8569
  650MOL0     C87665  -0.535   3.281   8.625 -0.4775 -0.3103  0.6383
  650MOL0     N87666  -0.241   3.569   9.240  0.5355 -0.4995  0.0485
  650MOL0     N87667  -0.193   3.551   9.358  0.9752 -0.2259 -0.1218
  650MOL0     C87668   0.203   3.131  10.214 -0.4196 -0.3441  0.7593
  650MOL0     C87669   0.325   3.130  10.275  0.2771 -0.0616  1.2111
  650MOL0     C87670   0.723   3.180  10.381  0.2075 -0.7279  0.5665
  650MOL0     C87671   0.841   3.235  10.344 -0.8205 -1.2909  0.3821
  650MOL0     C87672   0.966   3.156  10.355  0.3171 -0.3616 -0.1016
  650MOL0     C87673   0.963   3.036  10.422  0.4144 -1.0086  0.2631
  650MOL0     O87674   1.065   2.963  10.459  0.0783 -0.5956  0.6829
  650MOL0     C87675   1.149   2.915  10.353 -0.6709 -0.0415 -0.4859
  650MOL0     C87676   1.260   2.835  10.418 -0.2703 -0.1509  1.2091
  650MOL0     C87677   1.398   2.913  10.405  0.1552  0.7514 -0.3911
  650MOL0     C87678   1.420   3.037  10.506 -0.7743  0.7971 -0.7580
  650MOL0     C87679   1.492   2.999  10.628 -0.4528 -0.0653  0.6407
  650MOL0     C87680   1.557   2.972  10.722  0.0924 -0.4114  0.6697
  650MOL0     C87681   0.836   2.993  10.470 -0.5663  0.0635 -0.5710
  650MOL0     C87682   0.714   3.060  10.451  0.3495 -0.1390  0.6482
  650MOL0     H87683   0.293   3.423  10.453 -1.3945 -1.6130  1.6403
  650MOL0     H87684   0.067   3.413  10.337 -0.2252 -0.4046  1.9291
  650MOL0     H87685  -0.048   3.072  10.066  2.2924  1.9875 -0.2966
  650MOL0     H87686  -0.053   3.053  10.243 -3.0787 -0.7980  1.4842
  650MOL0     H87687  -0.286   3.049  10.213  1.1072  1.1664  2.4136
  650MOL0     H87688  -0.241   3.218  10.256 -0.4711  1.8125 -1.7904
  650MOL0     H87689  -0.279   3.106   9.966 -1.6531 -1.2662  0.4223
  650MOL0     H87690  -0.405   3.147  10.064 -1.1686 -0.2640  0.2951
  650MOL0     H87691  -0.342   3.393  10.056 -1.5140  1.1141 -2.5382
  650MOL0     H87692  -0.179   3.360   9.990  0.0542  0.5093 -1.3596
  650MOL0     H87693  -0.287   3.251   9.791 -0.1784 -0.9298  0.9833
  650MOL0     H87694  -0.437   3.291   9.847  0.5091 -1.2409 -0.6347
  650MOL0     H87695  -0.380   3.539   9.840 -0.6250 -3.1970  1.1791
  650MOL0     H87696  -0.216   3.506   9.820 -1.2014 -1.7715  3.8223
  650MOL0     H87697  -0.448   3.424   9.621 -0.6320  2.5924 -2.7683
  650MOL0     H87698  -0.369   3.578   9.598 -0.2044 -1.0363 -2.2763
  650MOL0     H87699  -0.238   3.306   9.588 -2.5229  0.2401  2.1335
  650MOL0     H87700  -0.152   3.460   9.595  1.1732 -1.8374 -0.6730
  650MOL0     H87701  -0.392   3.289   9.335  0.4392  0.2897 -1.7975
  650MOL0     H87702  -0.429   3.533   9.050  0.2332  0.0011  1.4043
  650MOL0     H87703  -0.359   3.378   9.006  0.0544 -0.6183  0.5878
  650MOL0     H87704  -0.627   3.412   9.062 -0.0749 -0.7101 -0.6853
  650MOL0     H87705  -0.576   3.371   9.224 -0.0644  0.3016 -0.4700
  650MOL0     H87706  -0.647   3.170   9.094  0.7871 -1.9439 -2.7670
  650MOL0     H87707  -0.473   3.162   9.132 -0.4817 -0.1715  0.5638
  650MOL0     H87708  -0.543   3.071   8.908  2.4605 -0.4594 -3.4968
  650MOL0     H87709  -0.426   3.202   8.903  0.5207 -2.3996  1.9520
  650MOL0     H87710  -0.533   3.520   8.862 -0.2446  2.1620 -1.2436
  650MOL0     H87711  -0.350   3.665   8.821  0.1215  2.5405  0.4487
  650MOL0     H87712  -0.247   3.646   8.684 -0.4160 -0.7830  0.1314
  650MOL0     H87713  -0.396   3.744   8.674 -0.7061 -2.4217 -4.1049
  650MOL0     H87714  -0.078   3.571   8.313  0.8586  3.2028  0.0852
  650MOL0     H87715   0.023   3.699   8.112 -0.1991  0.4362  2.2634
  650MOL0     H87716  -0.104   3.900   7.972 -2.4555 -0.1470 -2.2951
  650MOL0     H87717   0.046   3.867   7.911 -0.3767 -3.5398  1.5557
  650MOL0     H87718  -0.020   4.050   7.777  0.1925  0.6715  2.3770
  650MOL0     H87719  -0.065   3.914   7.671 -2.0666  0.4552 -0.9465
  650MOL0     H87720  -0.287   3.917   7.801  0.9813 -0.8980 -1.0150
  650MOL0     H87721  -0.270   4.031   7.666  2.8942 -0.7166 -0.3490
  650MOL0     H87722  -0.227   4.097   7.953 -0.5681 -1.4452 -0.1676
  650MOL0     H87723  -0.183   4.204   7.822  0.0313 -0.7413 -3.6112
  650MOL0     H87724  -0.454   4.171   7.757  1.4381 -1.9190 -0.5545
  650MOL0     H87725  -0.393   4.295   7.866 -1.3858  0.7287 -1.6399
  650MOL0     H87726  -0.482   4.004   7.924 -0.6293  0.2282 -1.1715
  650MOL0     H87727  -0.440   4.121   8.052  0.8490 -0.2569  0.3889
  650MOL0     H87728  -0.686   4.156   7.861 -0.1044 -3.0237  0.6560
  650MOL0     H87729  -0.632   4.272   7.979  1.8811  1.1826 -0.7870
  650MOL0     H87730  -0.684   4.151   8.161  0.8310 -1.0378 -0.1530
  650MOL0     H87731  -0.685   4.004   8.074 -2.7815  0.1859  2.4127
  650MOL0     H87732  -0.315   3.594   7.867 -2.7885 -0.6914  2.7086
  650MOL0     H87733  -0.420   3.503   8.077 -0.7103  1.2050 -0.6040
  650MOL0     H87734  -0.454   3.296   8.425  2.7478 -2.3640  1.1815
  650MOL0     H87735  -0.571   3.184   8.594  0.8366 -0.5182 -0.3743
  650MOL0     H87736   0.194   3.038  10.160  2.3891 -0.1574 -0.1560
  650MOL0     H87737   0.399   3.052  10.262  0.8115  0.3621  1.6646
  650MOL0     H87738   0.828   3.334  10.300  0.7568 -0.5652  1.4548
  650MOL0     H87739   1.059   3.205  10.328 -1.4049  5.5650  2.8819
  650MOL0     H87740   1.086   2.851  10.290 -0.1059 -2.2215  1.0355
  650MOL0     H87741   1.189   2.987  10.281 -0.8142 -0.4203 -0.9524
  650MOL0     H87742   1.261   2.738  10.367  0.3452  0.0618  0.8049
  650MOL0     H87743   1.234   2.820  10.524 -0.3600 -2.3495  0.9211
  650MOL0     H87744   1.394   2.941  10.300 -0.9598  2.0510 -0.0281
  650MOL0     H87745   1.482   2.845  10.417 -0.2144  0.1597 -1.0899
  650MOL0     H87746   1.324   3.086  10.521 -1.0501 -0.3995  2.1134
  650MOL0     H87747   1.484   3.111  10.458  0.5511 -1.3056 -2.4244
  650MOL0     H87748   1.609   2.950  10.813 -0.8191 -1.6804  0.9153
  650MOL0     H87749   0.837   2.906  10.534 -0.4941  1.0120  0.7620
  650MOL0     H87750   0.619   3.020  10.482  0.3436  0.1024  0.9407
  651MOL0     O87751   6.099   3.330   0.716 -0.7270  0.7611 -0.0855
  651MOL0     C87752   5.988   3.351   0.749  0.8004  0.5238 -0.7117
  651MOL0     O87753   5.944   3.448   0.837  0.3904 -0.1984  0.2673
  651MOL0     C87754   6.033   3.520   0.914  0.0987  0.8054 -0.4917
  651MOL0     C87755   6.142   3.463   0.978 -0.2094  0.2762 -0.0260
  651MOL0     C87756   6.235   3.541   1.055 -0.1612  0.5549 -0.7012
  651MOL0     C87757   6.223   3.676   1.059 -0.5343 -0.0082 -0.2091
  651MOL0     O87758   6.321   3.744   1.123 -0.3432  0.4743 -0.1018
  651MOL0     C87759   6.326   3.896   1.108 -0.1939 -0.0863 -0.5365
  651MOL0     C87760   6.471   3.951   1.118  0.1190 -0.8010 -0.4404
  651MOL0     C87761   6.554   3.908   1.006 -0.6120 -0.7164 -0.1399
  651MOL0     C87762   6.703   3.914   1.037 -0.8229 -0.3123 -0.2398
  651MOL0     C87763   6.791   3.826   0.956  0.1444 -0.0998  0.1323
  651MOL0     C87764   6.767   3.840   0.797  0.3979 -0.3093 -0.7240
  651MOL0     C87765   6.807   3.975   0.755 -0.4973  0.7117  0.1529
  651MOL0     C87766   6.886   3.960   0.614 -0.0991  0.3415 -0.3888
  651MOL0     N87767   6.802   3.905   0.511  1.3872  0.5591 -0.7336
  651MOL0     C87768   6.702   3.974   0.437  0.1753  0.1694 -0.6093
  651MOL0     C87769   6.644   3.880   0.358 -0.7312 -0.2362 -1.2829
  651MOL0     C87770   6.539   3.900   0.255 -0.3261  0.1210 -1.1692
  651MOL0     C87771   6.400   3.856   0.319  0.0822 -0.6752 -0.1901
  651MOL0     C87772   6.392   3.725   0.391  0.6515  0.4168 -0.0187
  651MOL0     C87773   6.408   3.604   0.302  0.5319  0.2658  0.6166
  651MOL0     O87774   6.373   3.474   0.366 -0.4400  0.1728 -0.4058
  651MOL0     C87775   6.460   3.452   0.474 -0.3888 -0.1283  0.3449
  651MOL0     C87776   6.598   3.443   0.468  0.3956 -1.1163  0.7565
  651MOL0     C87777   6.678   3.404   0.574  0.2742 -0.2880 -0.6501
  651MOL0     C87778   6.829   3.399   0.552 -1.1549 -0.3394  0.0204
  651MOL0     C87779   6.615   3.394   0.699 -0.0604  0.5629 -0.6006
  651MOL0     C87780   6.694   3.385   0.831  0.4382  0.0204 -0.0659
  651MOL0     O87781   6.620   3.341   0.949 -0.7953 -0.2329  0.5096
  651MOL0     C87782   6.692   3.290   1.058 -0.0378 -0.5690  0.7865
  651MOL0     C87783   6.660   3.355   1.180 -0.0034  0.3563  0.1048
  651MOL0     C87784   6.739   3.316   1.290 -0.1672 -0.1462  0.7603
  651MOL0     C87785   6.835   3.211   1.278  0.2174  0.3673  0.2847
  651MOL0     O87786   6.906   3.177   1.390  0.2806 -0.1751 -0.0482
  651MOL0     C87787   6.947   3.038   1.400  0.0136 -0.5512 -0.0724
  651MOL0     C87788   6.931   3.001   1.553 -1.1786  0.4506 -0.1926
  651MOL0     C87789   6.801   2.963   1.605 -0.3189 -1.2220  0.2612
  651MOL0     C87790   6.806   2.935   1.755  0.5296 -0.0801 -0.1527
  651MOL0     C87791   6.924   2.844   1.810  0.3213  0.5017 -0.6131
  651MOL0     C87792   6.943   2.701   1.744  1.0401 -0.4424  0.6186
  651MOL0     C87793   7.073   2.639   1.766 -0.4450 -0.9017 -0.0255
  651MOL0     C87794   7.188   2.713   1.688 -0.3503 -0.3937  0.5511
  651MOL0    Cl87795   7.334   2.625   1.684  0.3830  0.0615 -0.4040
  651MOL0     C87796   6.849   3.147   1.157 -0.6175 -0.3129 -0.1034
  651MOL0     C87797   6.782   3.190   1.044 -0.3804 -0.2449 -0.1299
  651MOL0     O87798   6.813   3.406   0.831 -0.4960  0.7436 -0.2466
  651MOL0     C87799   6.472   3.399   0.706  0.0850  0.1638 -0.0085
  651MOL0     C87800   6.403   3.437   0.592  0.5289 -0.2339 -0.2014
  651MOL0     N87801   6.717   3.754   0.374  0.2492  0.1559  0.0041
  651MOL0     N87802   6.782   3.769   0.481  0.0804 -0.1092  0.3573
  651MOL0     C87803   6.108   3.740   0.998  0.4108  0.5326  0.1485
  651MOL0     C87804   6.017   3.657   0.924  0.0404 -0.3232  0.1539
  651MOL0     C87805   5.885   3.252   0.704 -0.0848 -0.1200 -0.5415
  651MOL0     C87806   5.754   3.264   0.736 -0.0126 -0.0002 -0.1840
  651MOL0     C87807   5.656   3.163   0.701  0.1288  0.2870 -0.2162
  651MOL0     C87808   5.690   3.056   0.618  0.5135  0.1786  0.1136
  651MOL0     O87809   5.603   2.954   0.600 -0.0528  0.0353  0.0998
  651MOL0     C87810   5.546   2.980   0.477 -0.0490 -0.2391  0.4871
  651MOL0     C87811   5.501   2.861   0.405 -0.1858  0.7630  0.7398
  651MOL0     C87812   5.434   2.763   0.501  0.2957  0.2954 -0.4315
  651MOL0     C87813   5.413   2.622   0.433 -0.0030 -0.1495 -0.3784
  651MOL0     C87814   5.531   2.534   0.418  0.3358 -0.3376 -1.5405
  651MOL0     C87815   5.632   2.477   0.411 -0.0950 -0.2911  0.3062
  651MOL0     C87816   5.817   3.058   0.557 -0.6869 -0.1217  0.0872
  651MOL0     C87817   5.909   3.157   0.598  0.2112  0.2402  0.2585
  651MOL0     H87818   6.170   3.360   0.960  2.7691  0.7179  1.4464
  651MOL0     H87819   6.328   3.499   1.094 -0.4792  3.3518  3.8425
  651MOL0     H87820   6.299   3.923   1.005  1.9524  2.0519 -0.6285
  651MOL0     H87821   6.258   3.948   1.176 -0.6203  0.5300 -1.4134
  651MOL0     H87822   6.461   4.060   1.121 -1.5494 -0.8595 -1.8277
  651MOL0     H87823   6.519   3.930   1.213 -0.6438 -2.3282 -0.3577
  651MOL0     H87824   6.524   3.804   0.986 -0.5713 -0.4857 -1.4729
  651MOL0     H87825   6.528   3.970   0.920 -3.8062  1.1633  1.9749
  651MOL0     H87826   6.730   4.019   1.023  0.9254 -0.7210 -0.2462
  651MOL0     H87827   6.730   3.898   1.142 -0.1173  1.9184 -0.0291
  651MOL0     H87828   6.891   3.858   0.988 -0.3820 -0.2653  2.0292
  651MOL0     H87829   6.757   3.724   0.976 -2.9419  0.6614 -0.6903
  651MOL0     H87830   6.818   3.757   0.748  0.0010 -0.6995 -0.4787
  651MOL0     H87831   6.664   3.823   0.767  0.4048  0.6791 -1.3787
  651MOL0     H87832   6.723   4.043   0.737  0.3604  1.2645 -2.1571
  651MOL0     H87833   6.872   4.026   0.827  0.5870 -1.0146  0.4651
  651MOL0     H87834   6.978   3.903   0.631  1.3826  2.2649 -1.6080
  651MOL0     H87835   6.928   4.058   0.593 -1.9371  1.5328  1.1469
  651MOL0     H87836   6.685   4.081   0.440 -0.1141  0.1179 -0.4187
  651MOL0     H87837   6.528   4.005   0.226 -1.6163  1.1097  2.3696
  651MOL0     H87838   6.557   3.833   0.170 -1.0814 -1.8847  0.1836
  651MOL0     H87839   6.328   3.867   0.237  0.8797  0.5822 -0.7531
  651MOL0     H87840   6.372   3.927   0.397 -1.0055 -1.9621  0.6259
  651MOL0     H87841   6.297   3.719   0.446  0.4657 -1.0641 -0.4577
  651MOL0     H87842   6.466   3.736   0.470 -0.8154  1.7546  1.2482
  651MOL0     H87843   6.516   3.609   0.284  0.3737 -0.9967 -0.9093
  651MOL0     H87844   6.344   3.616   0.214 -0.9891  1.9898  1.8819
  651MOL0     H87845   6.643   3.460   0.371  0.8551  0.2493  1.1947
  651MOL0     H87846   6.855   3.421   0.448  0.6765  3.8121  1.1452
  651MOL0     H87847   6.874   3.480   0.610 -1.0205 -1.1296  1.0482
  651MOL0     H87848   6.866   3.302   0.586 -3.3629 -0.9360  0.9418
  651MOL0     H87849   6.594   3.440   1.185 -1.7253 -0.8874 -0.4467
  651MOL0     H87850   6.721   3.350   1.391 -1.3177 -0.9733  0.8481
  651MOL0     H87851   6.872   2.980   1.346  0.6139 -1.7239  0.3355
  651MOL0     H87852   7.051   3.031   1.367  0.3764  0.8294  0.6786
  651MOL0     H87853   6.990   2.911   1.572  1.4656  2.5225  2.2442
  651MOL0     H87854   6.978   3.073   1.621  0.2392 -0.7843  0.1897
  651MOL0     H87855   6.752   2.881   1.552 -1.3936 -0.6330  0.3120
  651MOL0     H87856   6.727   3.044   1.598  0.3917 -0.1947  3.1814
  651MOL0     H87857   6.820   3.037   1.793  0.9982 -0.1932 -0.0075
  651MOL0     H87858   6.709   2.904   1.795  1.8918  0.5277  4.1703
  651MOL0     H87859   6.922   2.843   1.919  0.6055  0.4331 -0.6074
  651MOL0     H87860   7.015   2.900   1.788  1.6399 -0.5488  1.8279
  651MOL0     H87861   6.872   2.623   1.774  0.7391  0.0504  1.1927
  651MOL0     H87862   6.932   2.713   1.636  1.1752  2.5877  0.8678
  651MOL0     H87863   7.071   2.537   1.727  2.6895 -0.6440 -1.1317
  651MOL0     H87864   7.095   2.630   1.873 -0.0704  0.5864  0.0402
  651MOL0     H87865   7.213   2.808   1.736 -2.0878  0.4467 -0.1208
  651MOL0     H87866   7.166   2.734   1.583  1.3869 -2.4902 -0.2954
  651MOL0     H87867   6.926   3.071   1.150 -0.8889 -0.5954 -0.0833
  651MOL0     H87868   6.794   3.142   0.948 -0.2508 -2.3075  0.8545
  651MOL0     H87869   6.423   3.404   0.803  0.3186 -2.9951  0.3651
  651MOL0     H87870   6.296   3.454   0.598  0.9371  2.2939  1.0213
  651MOL0     H87871   6.100   3.847   0.990  1.6707  0.6923  0.7691
  651MOL0     H87872   5.927   3.703   0.882  0.9880  0.8810 -0.6195
  651MOL0     H87873   5.710   3.338   0.802 -0.4659  1.6913 -2.2470
  651MOL0     H87874   5.556   3.175   0.743  0.7498  2.2956  0.7793
  651MOL0     H87875   5.458   3.044   0.483  0.5208  0.4691  1.5540
  651MOL0     H87876   5.613   3.033   0.408 -3.6917  1.8056 -1.7530
  651MOL0     H87877   5.594   2.814   0.370 -1.3740 -0.1865 -1.2737
  651MOL0     H87878   5.440   2.892   0.321 -0.8675  0.5156  1.1365
  651MOL0     H87879   5.344   2.816   0.535  1.1368  0.7142  1.2960
  651MOL0     H87880   5.485   2.747   0.597 -5.0780 -0.4929  2.7342
  651MOL0     H87881   5.375   2.646   0.334  2.6378  1.0631 -1.1706
  651MOL0     H87882   5.334   2.566   0.484 -0.0430 -1.2444 -1.5846
  651MOL0     H87883   5.726   2.426   0.414 -0.3012 -0.6751  0.3940
  651MOL0     H87884   5.846   2.983   0.484 -1.8030  2.3262 -3.1030
  651MOL0     H87885   6.003   3.155   0.544 -0.8056  1.4545 -1.6576
  652MOL0     O87886   7.156   2.544  10.210 -0.2215 -0.7814 -0.0423
  652MOL0     C87887   7.233   2.492  10.134 -0.3216 -0.4793  0.8458
  652MOL0     O87888   7.326   2.390  10.155  0.8337  0.1386  0.2135
  652MOL0     C87889   7.315   2.308  10.270  0.1006 -0.4680  0.6145
  652MOL0     C87890   7.198   2.296  10.348 -0.3684  0.2015 -0.3737
  652MOL0     C87891   7.207   2.220  10.467  0.4461 -1.1046  0.0940
  652MOL0     C87892   7.318   2.143  10.507 -0.0499  1.2048  1.0392
  652MOL0     O87893   7.318   2.073  10.621  0.0901  0.5964 -0.3160
  652MOL0     C87894   7.266   1.945  10.587  0.3444 -0.2268 -0.9262
  652MOL0     C87895   7.211   1.866  10.708  0.7315 -0.5674  0.5202
  652MOL0     C87896   7.083   1.926  10.756  0.4540  0.0588  0.2771
  652MOL0     C87897   7.096   2.057  10.836  0.4344  0.1092 -0.2070
  652MOL0     C87898   6.970   2.097  10.905 -0.0891 -0.0216 -0.2899
  652MOL0     C87899   6.978   2.218  11.012  0.0965  1.3132  1.0130
  652MOL0     C87900   6.997   2.354  10.944 -0.1415  0.3666  0.0749
  652MOL0     C87901   6.868   2.428  10.907 -0.7408 -0.8337 -0.6518
  652MOL0     N87902   6.833   2.400  10.762  0.2076 -0.2789  0.1404
  652MOL0     C87903   6.757   2.293  10.720  0.2761  0.2515  0.2173
  652MOL0     C87904   6.800   2.276  10.590  0.1990 -0.6715  0.4518
  652MOL0     C87905   6.760   2.159  10.497  0.1692  0.2186  0.2036
  652MOL0     C87906   6.688   2.051  10.588 -0.5660 -0.2466  0.3693
  652MOL0     C87907   6.639   1.932  10.500  0.6473  0.1566  0.9635
  652MOL0     C87908   6.726   1.853  10.415 -0.6498  0.1716  0.7741
  652MOL0     O87909   6.824   1.803  10.501  0.1776 -0.7768 -0.2855
  652MOL0     C87910   6.896   1.691  10.486  0.4511  0.2901 -0.5822
  652MOL0     C87911   6.941   1.646  10.612  1.0303  1.0886  0.4715
  652MOL0     C87912   7.018   1.528  10.623  0.6658  0.3409  0.2732
  652MOL0     C87913   7.067   1.488  10.761 -0.1305 -0.8452  0.1796
  652MOL0     C87914   7.046   1.460  10.498  0.5441 -0.4622 -0.2082
  652MOL0     C87915   7.119   1.339  10.499 -0.0103  0.0913 -0.0233
  652MOL0     O87916   7.048   1.224  10.548 -0.0151 -0.0453 -0.1922
  652MOL0     C87917   7.125   1.112  10.556  0.8016 -0.3417 -0.0498
  652MOL0     C87918   7.086   1.001  10.491  0.2571  0.5472 -0.7450
  652MOL0     C87919   7.169   0.884  10.502 -0.3956 -0.7938 -0.2420
  652MOL0     C87920   7.284   0.885  10.572 -0.7758 -0.1683  0.3596
  652MOL0     O87921   7.363   0.767  10.556 -0.0127 -0.0468  0.4268
  652MOL0     C87922   7.503   0.776  10.581 -0.0444  0.5929 -0.1142
  652MOL0     C87923   7.550   0.628  10.576 -0.4606 -0.4601 -0.1545
  652MOL0     C87924   7.490   0.544  10.685  0.8654 -0.5149 -0.5190
  652MOL0     C87925   7.493   0.592  10.834  0.1428  0.2332  0.0524
  652MOL0     C87926   7.482   0.488  10.950  1.2835 -0.1794  0.2023
  652MOL0     C87927   7.515   0.551  11.085  0.5471  1.1141  0.0169
  652MOL0     C87928   7.512   0.448  11.197  0.4200 -0.0395 -0.5918
  652MOL0     C87929   7.611   0.330  11.172 -0.4084  0.1692 -0.0053
  652MOL0    Cl87930   7.602   0.204  11.300  0.4508 -0.0838  0.0773
  652MOL0     C87931   7.330   1.005  10.635 -0.2397 -0.3294  0.0325
  652MOL0     C87932   7.244   1.123  10.633 -1.5837  0.8899 -0.8679
  652MOL0     O87933   7.231   1.341  10.455  0.1169  0.1486  0.2696
  652MOL0     C87934   6.991   1.501  10.377 -0.5580  0.0340 -0.5321
  652MOL0     C87935   6.912   1.615  10.369 -0.6145 -0.5616 -0.2716
  652MOL0     N87936   6.881   2.384  10.548 -0.4130 -0.5705 -1.0910
  652MOL0     N87937   6.902   2.457  10.658  0.8506 -0.6375 -0.0209
  652MOL0     C87938   7.436   2.155  10.427  0.4271 -1.5007  0.0548
  652MOL0     C87939   7.431   2.246  10.316  1.3855 -0.2365  0.2823
  652MOL0     C87940   7.234   2.549   9.997 -0.3967 -0.0440 -0.6917
  652MOL0     C87941   7.325   2.505   9.894 -0.3660 -0.6599  0.4003
  652MOL0     C87942   7.330   2.561   9.765  0.6012 -0.1558  0.6746
  652MOL0     C87943   7.237   2.665   9.737  0.6089  1.0123  0.0718
  652MOL0     O87944   7.215   2.724   9.621  0.1627 -0.7249  0.4901
  652MOL0     C87945   7.291   2.693   9.506  0.3689 -0.4177 -1.0929
  652MOL0     C87946   7.217   2.751   9.380 -0.4450 -0.1203 -0.5292
  652MOL0     C87947   7.121   2.650   9.318 -0.3417  0.6668  0.2525
  652MOL0     C87948   6.982   2.649   9.385  0.4922 -0.6713  0.0268
  652MOL0     C87949   6.894   2.531   9.343 -0.8116  0.4811  0.2825
  652MOL0     C87950   6.803   2.458   9.297  1.3592 -0.7514  0.0337
  652MOL0     C87951   7.140   2.709   9.825  0.1062 -0.3737 -0.6940
  652MOL0     C87952   7.142   2.648   9.958  0.1848 -0.1255  0.2549
  652MOL0     H87953   7.111   2.352  10.317 -0.1171  1.0874  0.4962
  652MOL0     H87954   7.128   2.227  10.541 -0.4128  1.7787 -0.9732
  652MOL0     H87955   7.185   1.959  10.514  1.9150  0.9694 -2.5120
  652MOL0     H87956   7.340   1.881  10.537  0.4180 -0.4334 -0.5533
  652MOL0     H87957   7.203   1.764  10.671  4.2766 -0.4897 -0.7997
  652MOL0     H87958   7.284   1.855  10.789 -2.8371  0.8153  4.3034
  652MOL0     H87959   7.009   1.941  10.677 -0.0690 -2.5109  0.1860
  652MOL0     H87960   7.042   1.845  10.817  0.1106  0.5228  0.6695
  652MOL0     H87961   7.174   2.052  10.912  0.3904  0.1011 -0.1626
  652MOL0     H87962   7.138   2.135  10.772 -0.8961  1.0558  0.0264
  652MOL0     H87963   6.893   2.112  10.830 -0.1179  0.9610 -0.0853
  652MOL0     H87964   6.940   2.005  10.956  1.7735 -0.0101  0.9590
  652MOL0     H87965   6.884   2.218  11.067 -0.5584  0.9163 -0.0810
  652MOL0     H87966   7.056   2.193  11.084  2.0443  0.4840 -1.2464
  652MOL0     H87967   7.048   2.422  11.014  1.0056  1.4256 -1.7204
  652MOL0     H87968   7.070   2.353  10.863 -0.0498 -0.8967  0.1602
  652MOL0     H87969   6.905   2.529  10.928  2.0744 -2.3271  2.6800
  652MOL0     H87970   6.776   2.413  10.965 -1.9476 -0.0296 -2.2902
  652MOL0     H87971   6.686   2.236  10.779 -2.4452  1.3771 -1.7868
  652MOL0     H87972   6.691   2.188  10.417  1.0448  0.0077 -0.6474
  652MOL0     H87973   6.849   2.116  10.449 -0.1770  1.6855 -1.9095
  652MOL0     H87974   6.601   2.101  10.630 -0.4145  2.2379 -2.0369
  652MOL0     H87975   6.754   2.011  10.666  0.8384  1.2798  0.0056
  652MOL0     H87976   6.566   1.974  10.430  1.9122  0.9694  0.1065
  652MOL0     H87977   6.588   1.859  10.564  0.6996 -0.5651  0.1919
  652MOL0     H87978   6.781   1.907  10.337 -0.4011 -2.2057 -0.8089
  652MOL0     H87979   6.675   1.769  10.368  2.0853 -2.1626  1.6851
  652MOL0     H87980   6.908   1.698  10.701 -2.3729  1.9107 -1.0998
  652MOL0     H87981   6.997   1.416  10.804 -1.8607 -1.2609 -3.0837
  652MOL0     H87982   7.165   1.440  10.773  0.4730  0.5364  1.0847
  652MOL0     H87983   7.057   1.577  10.824  1.7811  0.7979 -1.7079
  652MOL0     H87984   6.985   0.988  10.452 -0.0067 -0.1772  0.1236
  652MOL0     H87985   7.135   0.783  10.479 -1.7797 -0.6361  0.9610
  652MOL0     H87986   7.568   0.830  10.512  1.1056  0.8417  1.1262
  652MOL0     H87987   7.529   0.814  10.680  0.9449 -0.8468  0.2185
  652MOL0     H87988   7.516   0.580  10.484 -1.5657 -0.4936  0.2670
  652MOL0     H87989   7.659   0.621  10.570 -0.2572 -1.5544  2.9877
  652MOL0     H87990   7.536   0.444  10.688 -0.3000 -1.0668 -0.3591
  652MOL0     H87991   7.387   0.516  10.662  0.8045 -0.0709 -0.7928
  652MOL0     H87992   7.586   0.642  10.860 -0.2556 -0.4198  3.2431
  652MOL0     H87993   7.420   0.669  10.860  0.5815  0.2962  1.1675
  652MOL0     H87994   7.543   0.399  10.929  0.8233 -0.7526  1.2228
  652MOL0     H87995   7.379   0.450  10.947  0.9092  0.6767 -3.5662
  652MOL0     H87996   7.616   0.593  11.086  1.5548 -1.1018 -1.5732
  652MOL0     H87997   7.447   0.632  11.115 -2.9592 -2.4390  2.6976
  652MOL0     H87998   7.411   0.412  11.221 -0.6203  3.6282  1.2672
  652MOL0     H87999   7.530   0.494  11.295 -2.3533  2.0412 -0.9275
  652MOL0     H88000   7.715   0.364  11.165 -0.4456  0.1079 -0.8657
  652MOL0     H88001   7.592   0.277  11.079  0.9287  0.0823 -0.2555
  652MOL0     H88002   7.416   1.010  10.701 -1.1739  1.5520  1.1901
  652MOL0     H88003   7.267   1.215  10.685 -0.8616  0.4719 -0.4345
  652MOL0     H88004   7.016   1.445  10.287  5.7395 -0.7232  1.2622
  652MOL0     H88005   6.892   1.639  10.265  1.5328 -2.6435 -1.2787
  652MOL0     H88006   7.526   2.100  10.449 -0.1934 -1.3309  3.8024
  652MOL0     H88007   7.514   2.272  10.251  0.1366  1.7349 -0.5977
  652MOL0     H88008   7.399   2.427   9.912 -1.6313 -1.5226  2.2286
  652MOL0     H88009   7.408   2.544   9.691  1.6553  2.7234  0.9975
  652MOL0     H88010   7.387   2.743   9.518  1.2451 -1.8256 -1.9613
  652MOL0     H88011   7.303   2.584   9.504 -0.5897 -0.5193 -1.6944
  652MOL0     H88012   7.294   2.782   9.308  0.8820 -0.9221  0.4965
  652MOL0     H88013   7.166   2.844   9.408  0.4156  0.7293 -1.6559
  652MOL0     H88014   7.169   2.552   9.323 -1.6745 -0.0035  0.3053
  652MOL0     H88015   7.105   2.684   9.215  2.6204  3.8837  0.6691
  652MOL0     H88016   6.934   2.739   9.345  3.1061  0.5291 -0.6657
  652MOL0     H88017   6.977   2.647   9.495 -0.4226 -1.1333 -0.0132
  652MOL0     H88018   6.718   2.402   9.265  1.5922  0.2631 -2.6525
  652MOL0     H88019   7.071   2.782   9.783  1.0400  1.4858  0.8725
  652MOL0     H88020   7.059   2.681  10.021 -1.4234  0.1442 -1.8740
  653MOL0     O88021   1.344   5.334  11.475  0.6372  0.4453  0.8451
  653MOL0     C88022   1.389   5.429  11.415  0.1137 -0.2009 -0.6067
  653MOL0     O88023   1.375   5.460  11.281 -0.7532 -0.0142 -0.6604
  653MOL0     C88024   1.295   5.380  11.215  0.5644  0.3510  0.3057
  653MOL0     C88025   1.165   5.413  11.201  0.5237  0.5210 -0.5901
  653MOL0     C88026   1.080   5.338  11.119  0.1249 -0.3739  0.2313
  653MOL0     C88027   1.124   5.223  11.060  0.0942  0.9235  0.1892
  653MOL0     O88028   1.035   5.151  10.986 -0.3849 -0.2101 -0.1404
  653MOL0     C88029   1.049   5.011  10.962 -0.9471  0.9199  0.7690
  653MOL0     C88030   1.097   4.978  10.821  0.1780 -0.3218 -0.1221
  653MOL0     C88031   1.078   4.831  10.793  0.5780  0.6927  0.4439
  653MOL0     C88032   0.942   4.811  10.726 -1.1186  0.1417 -0.1114
  653MOL0     C88033   0.902   4.666  10.725 -0.9307  0.6008 -0.4628
  653MOL0     C88034   0.764   4.640  10.662  0.7405  0.0017 -0.0207
  653MOL0     C88035   0.753   4.504  10.598 -0.4017  1.0961  0.2621
  653MOL0     C88036   0.861   4.465  10.496 -0.3625  0.4504  0.3079
  653MOL0     N88037   0.854   4.567  10.392  0.4596 -0.5762  0.4088
  653MOL0     C88038   0.933   4.667  10.391  0.5063 -0.6593 -0.2155
  653MOL0     C88039   0.884   4.749  10.297 -0.6482 -0.1449 -0.1765
  653MOL0     C88040   0.942   4.886  10.287 -0.5973 -0.3732 -0.3335
  653MOL0     C88041   0.893   4.954  10.159  0.1715 -0.2242  0.4566
  653MOL0     C88042   0.960   5.084  10.121  0.6481  1.4438 -0.2644
  653MOL0     C88043   0.958   5.197  10.224 -0.4814 -0.4976  0.7374
  653MOL0     O88044   0.821   5.227  10.253 -0.5257 -0.5309  0.4314
  653MOL0     C88045   0.797   5.286  10.374  0.1995  0.1652  0.6508
  653MOL0     C88046   0.900   5.325  10.465  0.5862  0.1619  0.9739
  653MOL0     C88047   0.868   5.406  10.573 -1.2160 -0.0215 -0.0068
  653MOL0     C88048   0.988   5.466  10.639  0.1357  0.6476  0.6263
  653MOL0     C88049   0.743   5.428  10.616 -0.1488  0.9597 -0.6241
  653MOL0     C88050   0.711   5.488  10.743  0.2430 -0.6845  0.4240
  653MOL0     O88051   0.791   5.451  10.854 -0.3259  0.4852  0.6100
  653MOL0     C88052   0.763   5.521  10.969  1.3455  0.4277  0.8343
  653MOL0     C88053   0.849   5.615  11.023 -0.1124  1.6236 -0.4950
  653MOL0     C88054   0.827   5.664  11.154  0.7810 -0.5108 -0.1520
  653MOL0     C88055   0.728   5.622  11.238 -0.4960  0.6382 -0.1843
  653MOL0     O88056   0.711   5.669  11.363  0.2872 -0.5790  0.1319
  653MOL0     C88057   0.693   5.566  11.465  0.1824  0.5378 -0.1313
  653MOL0     C88058   0.774   5.593  11.608  0.0508  1.5773  0.1444
  653MOL0     C88059   0.751   5.733  11.673 -0.1763  0.2827  0.3714
  653MOL0     C88060   0.879   5.814  11.641  0.4244  0.8880  0.5157
  653MOL0     C88061   0.858   5.965  11.656  0.5397 -0.7164 -0.1271
  653MOL0     C88062   0.864   6.013  11.797  0.2011  0.0123 -0.7145
  653MOL0     C88063   0.868   6.172  11.807  0.1261 -0.1050 -0.0205
  653MOL0     C88064   0.866   6.209  11.954 -0.8991  0.9381  1.4905
  653MOL0    Cl88065   1.034   6.178  12.010 -0.3065  0.0715 -0.4706
  653MOL0     C88066   0.637   5.546  11.175  0.2855  0.4583  0.1521
  653MOL0     C88067   0.649   5.491  11.044 -0.0425 -0.1358  0.1614
  653MOL0     O88068   0.631   5.579  10.743 -0.2131 -0.5225  0.4747
  653MOL0     C88069   0.639   5.384  10.529 -0.4246  0.1744  0.2805
  653MOL0     C88070   0.666   5.314  10.410 -0.4967  0.4791  0.6559
  653MOL0     N88071   0.763   4.696  10.249  0.4338  0.0999  0.8848
  653MOL0     N88072   0.743   4.582  10.312 -1.4397  0.2689  0.5195
  653MOL0     C88073   1.258   5.182  11.089 -0.0194 -0.7026  0.5830
  653MOL0     C88074   1.340   5.267  11.153  0.7972  0.3590 -0.6947
  653MOL0     C88075   1.463   5.528  11.497  0.9355 -0.3569 -0.1414
  653MOL0     C88076   1.468   5.519  11.638  1.0417 -0.6398 -0.3637
  653MOL0     C88077   1.533   5.598  11.727 -1.1638 -0.4903 -0.4154
  653MOL0     C88078   1.582   5.716  11.662 -0.9081  0.8592  0.2464
  653MOL0     O88079   1.646   5.795  11.753 -0.1090 -0.3506  0.5719
  653MOL0     C88080   1.677   5.927  11.711  0.8573 -0.7587 -0.3944
  653MOL0     C88081   1.552   6.018  11.680  0.4905 -0.5736 -0.2893
  653MOL0     C88082   1.442   6.001  11.783 -0.0801  0.2317  1.0134
  653MOL0     C88083   1.301   5.984  11.728  0.1289  0.2277  0.3929
  653MOL0     C88084   1.258   6.116  11.692  0.4860  0.4586 -0.1611
  653MOL0     C88085   1.234   6.237  11.677  0.0014 -0.1421 -0.4762
  653MOL0     C88086   1.580   5.741  11.522 -0.1866  0.2215 -0.5475
  653MOL0     C88087   1.519   5.639  11.440  0.0389 -0.0530  0.0432
  653MOL0     H88088   1.139   5.510  11.242  2.5448  1.1640 -0.7270
  653MOL0     H88089   0.976   5.372  11.119  0.2687  0.1051  0.8326
  653MOL0     H88090   1.114   4.973  11.041 -2.7934  1.8798  2.8351
  653MOL0     H88091   0.950   4.968  10.979 -1.4588  2.6896  2.6307
  653MOL0     H88092   1.046   5.039  10.746 -0.2013 -2.4348 -1.6599
  653MOL0     H88093   1.202   5.008  10.816  0.6198 -1.2118  2.4293
  653MOL0     H88094   1.155   4.797  10.723  0.7660  1.4672  0.2662
  653MOL0     H88095   1.095   4.764  10.878 -0.8252 -1.7547 -1.0634
  653MOL0     H88096   0.868   4.869  10.781 -1.2151  0.2893 -0.3933
  653MOL0     H88097   0.951   4.844  10.622  3.2324  2.1665  0.7106
  653MOL0     H88098   0.979   4.622  10.661 -1.2915 -1.4608  0.4181
  653MOL0     H88099   0.912   4.617  10.823  1.5843 -2.4622 -2.0559
  653MOL0     H88100   0.688   4.652  10.739  3.0101  1.5733  2.1235
  653MOL0     H88101   0.740   4.712  10.584  2.3982 -1.5021 -2.0263
  653MOL0     H88102   0.738   4.431  10.678  1.1276  0.8370  0.3253
  653MOL0     H88103   0.660   4.485  10.543 -1.0625 -1.0136  1.9706
  653MOL0     H88104   0.831   4.367  10.456 -1.5651  1.9657 -2.8357
  653MOL0     H88105   0.965   4.467  10.530  0.9047  0.4536 -3.1220
  653MOL0     H88106   1.016   4.691  10.458  0.6713 -1.3271 -0.1819
  653MOL0     H88107   0.915   4.946  10.374 -0.0611  0.4880 -0.7526
  653MOL0     H88108   1.051   4.871  10.284 -0.4690  0.6828 -2.4963
  653MOL0     H88109   0.786   4.975  10.168 -0.1048 -1.1252 -0.5187
  653MOL0     H88110   0.897   4.892  10.069  3.9844  0.8935 -0.3338
  653MOL0     H88111   0.905   5.113  10.031  0.1772 -1.7883 -1.1413
  653MOL0     H88112   1.061   5.053  10.095  0.2449 -0.9236  0.6680
  653MOL0     H88113   1.007   5.282  10.176 -5.1437  2.3308  0.3235
  653MOL0     H88114   1.009   5.162  10.314 -0.0828 -0.8098  0.3940
  653MOL0     H88115   1.007   5.319  10.446  0.0482  0.0976 -2.6314
  653MOL0     H88116   1.064   5.496  10.567 -2.8652  3.9595 -1.5146
  653MOL0     H88117   0.979   5.558  10.697  1.8046  1.2026  0.0627
  653MOL0     H88118   1.020   5.394  10.715 -1.0949  0.4888  1.0292
  653MOL0     H88119   0.948   5.633  10.984  0.8239  1.6694  1.7276
  653MOL0     H88120   0.894   5.725  11.214  0.5001 -1.9183  1.7054
  653MOL0     H88121   0.586   5.565  11.488 -0.0795  3.9207 -0.6134
  653MOL0     H88122   0.718   5.468  11.425 -2.5263  0.8842 -3.0851
  653MOL0     H88123   0.735   5.517  11.675  0.1266  1.6337  0.2521
  653MOL0     H88124   0.882   5.580  11.601 -0.0387  1.4126 -1.4032
  653MOL0     H88125   0.730   5.704  11.776 -1.0481 -1.6001 -0.2936
  653MOL0     H88126   0.670   5.789  11.626  0.1073  0.9807  0.6959
  653MOL0     H88127   0.968   5.798  11.703  0.8240  3.3715  0.6863
  653MOL0     H88128   0.919   5.792  11.542  2.2354  0.3795  1.3034
  653MOL0     H88129   0.758   5.995  11.623  0.7812  0.8786  0.4896
  653MOL0     H88130   0.936   6.020  11.603  0.0401  4.5554  3.8072
  653MOL0     H88131   0.780   5.975  11.856  0.7572 -2.4095 -1.3617
  653MOL0     H88132   0.953   5.969  11.843  0.5694  2.3132  0.9507
  653MOL0     H88133   0.770   6.203  11.770  1.0257  4.6493  0.9075
  653MOL0     H88134   0.956   6.219  11.761 -0.2089 -0.5339 -1.1528
  653MOL0     H88135   0.802   6.153  12.023  1.1059 -0.0959  2.6161
  653MOL0     H88136   0.848   6.317  11.961 -1.1851  1.3716 -3.1619
  653MOL0     H88137   0.560   5.517  11.246  1.0790 -0.7498  0.5745
  653MOL0     H88138   0.576   5.412  11.032 -0.6272 -0.2776  3.5861
  653MOL0     H88139   0.535   5.414  10.536 -0.2693  0.7832 -0.0039
  653MOL0     H88140   0.587   5.303  10.337  0.0868  3.0768 -0.4577
  653MOL0     H88141   1.294   5.086  11.054 -2.3336 -2.1226  1.8442
  653MOL0     H88142   1.445   5.243  11.165  0.6539  0.2114  0.3049
  653MOL0     H88143   1.418   5.438  11.690 -0.8095  0.7771  0.1432
  653MOL0     H88144   1.549   5.565  11.829 -2.9511  1.1097  0.4416
  653MOL0     H88145   1.731   5.976  11.793 -0.2055  0.2433 -0.2695
  653MOL0     H88146   1.748   5.922  11.628 -0.0757  0.8086 -1.3335
  653MOL0     H88147   1.501   6.009  11.583 -0.0188  1.0442 -0.2065
  653MOL0     H88148   1.594   6.119  11.679  3.4347 -1.6738  1.2827
  653MOL0     H88149   1.452   6.094  11.839 -0.3845  2.8938 -2.8991
  653MOL0     H88150   1.458   5.909  11.840 -3.2666 -2.9734 -2.6132
  653MOL0     H88151   1.233   5.932  11.796  2.1428 -3.1072  0.0796
  653MOL0     H88152   1.305   5.916  11.643  2.8259  0.9536 -0.1558
  653MOL0     H88153   1.228   6.343  11.662 -0.3131 -0.0037  0.5926
  653MOL0     H88154   1.614   5.831  11.473  3.1105 -0.3615  0.4590
  653MOL0     H88155   1.513   5.667  11.336 -1.7865  2.1077  0.6464
  654MOL0     O88156  10.427   4.232   3.811  0.8123 -0.5015  0.6318
  654MOL0     C88157  10.455   4.220   3.925  0.0923  0.3064 -0.1324
  654MOL0     O88158  10.582   4.236   3.985  0.2590 -0.2732 -0.6263
  654MOL0     C88159  10.683   4.273   3.899  0.3271  1.1385 -0.4776
  654MOL0     C88160  10.706   4.192   3.784 -0.3146 -0.2704 -0.2976
  654MOL0     C88161  10.831   4.202   3.720 -0.5526  0.5003 -0.3757
  654MOL0     C88162  10.922   4.299   3.752  0.4876  0.5147  0.1479
  654MOL0     O88163  11.032   4.311   3.678  0.4315  0.2351 -0.2291
  654MOL0     C88164  11.055   4.440   3.614 -0.1038  0.4136  0.5501
  654MOL0     C88165  11.207   4.478   3.649  0.1508 -0.7457 -0.3283
  654MOL0     C88166  11.291   4.411   3.536 -0.3140  0.1262 -0.6904
  654MOL0     C88167  11.439   4.453   3.571  0.1643  0.3371  0.2238
  654MOL0     C88168  11.545   4.388   3.487  0.4995 -0.0863  0.6095
  654MOL0     C88169  11.683   4.451   3.501 -0.6795 -0.2219 -0.3168
  654MOL0     C88170  11.687   4.605   3.470 -0.5202  0.5410  0.9874
  654MOL0     C88171  11.829   4.652   3.430  0.1492  0.4131  0.2883
  654MOL0     N88172  11.901   4.741   3.519 -0.4927  0.2389 -1.3076
  654MOL0     C88173  12.013   4.805   3.481 -0.1508 -0.6423  0.3226
  654MOL0     C88174  12.082   4.848   3.596 -0.1189  0.5318 -0.0504
  654MOL0     C88175  12.208   4.927   3.578 -0.7495 -0.3315  0.4828
  654MOL0     C88176  12.182   5.048   3.490 -0.6971  0.3097  0.0060
  654MOL0     C88177  12.312   5.135   3.477  0.2540  0.1924 -1.0575
  654MOL0     C88178  12.321   5.236   3.365 -0.5806  0.0123  0.7408
  654MOL0     O88179  12.206   5.319   3.376  0.1300  0.0660 -1.2458
  654MOL0     C88180  12.223   5.427   3.295  0.1622  0.0887  0.0727
  654MOL0     C88181  12.156   5.412   3.173  0.4892 -0.2371 -1.1414
  654MOL0     C88182  12.179   5.500   3.066 -0.3865  0.2377  0.0534
  654MOL0     C88183  12.114   5.474   2.927 -0.2511  0.3036 -1.1327
  654MOL0     C88184  12.281   5.583   3.074 -0.9455 -0.2162 -0.1166
  654MOL0     C88185  12.328   5.660   2.957 -0.5776 -0.4885  0.2145
  654MOL0     O88186  12.287   5.791   2.943  0.3545  0.8184  0.5699
  654MOL0     C88187  12.352   5.869   2.856  0.2341 -0.4882  0.5192
  654MOL0     C88188  12.315   5.870   2.725 -0.2672 -0.8466 -0.2306
  654MOL0     C88189  12.386   5.943   2.623 -0.0743  0.4254 -0.6336
  654MOL0     C88190  12.496   6.019   2.662  0.6810 -0.0507  0.1715
  654MOL0     O88191  12.556   6.108   2.573  0.7704 -0.6077 -0.2641
  654MOL0     C88192  12.665   6.070   2.495 -0.8452  0.8245  0.8252
  654MOL0     C88193  12.793   6.100   2.564 -0.7888  0.3752 -0.5778
  654MOL0     C88194  12.841   6.249   2.547  0.6305  0.3677  0.3132
  654MOL0     C88195  12.985   6.269   2.596 -0.1841  0.5005  0.2608
  654MOL0     C88196  13.025   6.421   2.615 -0.4161 -0.6365  0.6358
  654MOL0     C88197  13.167   6.458   2.558  0.3833  1.0916 -0.1166
  654MOL0     C88198  13.222   6.581   2.620 -0.4277 -0.4578 -0.2104
  654MOL0     C88199  13.315   6.663   2.524  0.2470  0.0672  1.6440
  654MOL0    Cl88200  13.479   6.606   2.534  0.2167  0.1698  0.0812
  654MOL0     C88201  12.521   6.037   2.800  0.3974 -0.7471  0.1784
  654MOL0     C88202  12.458   5.954   2.897 -0.0821  0.3981  0.7542
  654MOL0     O88203  12.395   5.598   2.872  0.9609  0.5271 -0.5442
  654MOL0     C88204  12.352   5.611   3.195 -0.2683  0.1086  0.1934
  654MOL0     C88205  12.325   5.522   3.305  0.4435 -0.5237  0.2191
  654MOL0     N88206  12.016   4.793   3.701  0.1668 -1.1479  0.3760
  654MOL0     N88207  11.907   4.737   3.661 -0.4988 -0.2442  0.6566
  654MOL0     C88208  10.898   4.381   3.861  0.2266 -0.6536  0.6639
  654MOL0     C88209  10.782   4.363   3.930 -0.9232  0.3254 -0.4877
  654MOL0     C88210  10.339   4.174   4.018  0.6648  0.6023  0.0757
  654MOL0     C88211  10.207   4.152   3.973 -0.0864 -0.5412 -0.8079
  654MOL0     C88212  10.100   4.120   4.057 -0.5348 -0.1425  0.0252
  654MOL0     C88213  10.126   4.088   4.195 -0.8288 -0.2879  0.3198
  654MOL0     O88214  10.035   4.045   4.283 -0.2018  0.3282 -0.7728
  654MOL0     C88215   9.904   4.002   4.246 -0.1069  0.7664  0.8112
  654MOL0     C88216   9.829   3.937   4.372 -0.0374  0.5568 -0.8812
  654MOL0     C88217   9.691   3.878   4.332  0.3914  0.1412  0.4563
  654MOL0     C88218   9.661   3.770   4.441 -0.7800 -0.1406  0.2379
  654MOL0     C88219   9.535   3.701   4.417 -1.2431  0.6474  0.9113
  654MOL0     C88220   9.441   3.627   4.412  0.3883 -0.1937  0.4150
  654MOL0     C88221  10.260   4.100   4.242 -1.5492 -0.7791 -0.7724
  654MOL0     C88222  10.358   4.144   4.151  0.4749 -0.1417 -0.6791
  654MOL0     H88223  10.638   4.116   3.746 -0.1474  0.4544 -2.1591
  654MOL0     H88224  10.854   4.136   3.637 -0.8222 -0.0090 -0.0575
  654MOL0     H88225  11.041   4.427   3.507 -0.9327  2.1897  0.4104
  654MOL0     H88226  10.984   4.518   3.643  2.0101  1.8659  2.1804
  654MOL0     H88227  11.222   4.586   3.640 -0.0478 -0.7478 -0.6975
  654MOL0     H88228  11.239   4.445   3.749 -0.2520  2.9879  1.2121
  654MOL0     H88229  11.284   4.302   3.547  1.7200  0.0319  0.1290
  654MOL0     H88230  11.274   4.444   3.434  1.0637  0.3470 -0.8649
  654MOL0     H88231  11.454   4.558   3.545  1.5669  0.2727  0.7093
  654MOL0     H88232  11.457   4.439   3.678  1.1137 -3.7504 -0.3231
  654MOL0     H88233  11.555   4.280   3.504  1.1062 -0.2086 -0.4493
  654MOL0     H88234  11.528   4.400   3.379  3.6770 -2.1571 -0.2457
  654MOL0     H88235  11.725   4.444   3.602 -1.7937  1.2533  0.2845
  654MOL0     H88236  11.751   4.400   3.433 -0.3909  0.2563 -0.3904
  654MOL0     H88237  11.624   4.631   3.385 -1.0812 -0.6664  1.0119
  654MOL0     H88238  11.649   4.659   3.557 -0.0990 -0.5565  1.8702
  654MOL0     H88239  11.823   4.707   3.335 -1.4500  0.6293  0.4937
  654MOL0     H88240  11.894   4.564   3.428  1.0299  0.8843  3.3687
  654MOL0     H88241  12.063   4.816   3.386 -1.0831 -2.6845 -0.4607
  654MOL0     H88242  12.244   4.946   3.680 -1.2363  0.6807  0.4727
  654MOL0     H88243  12.271   4.852   3.528 -2.2699 -2.2439  1.3238
  654MOL0     H88244  12.091   5.096   3.526 -2.1657 -2.4765  0.3187
  654MOL0     H88245  12.166   5.008   3.390  0.0976  1.6962 -0.6872
  654MOL0     H88246  12.387   5.061   3.449  0.5371  0.5416 -1.2180
  654MOL0     H88247  12.317   5.186   3.574  1.3613  0.2707 -1.1475
  654MOL0     H88248  12.310   5.179   3.272  0.2795 -1.2244  1.3717
  654MOL0     H88249  12.409   5.300   3.376 -1.7402  2.4586 -2.5521
  654MOL0     H88250  12.079   5.335   3.171  2.2590 -2.3706  2.5247
  654MOL0     H88251  12.006   5.469   2.942 -0.1325 -1.2079 -0.6157
  654MOL0     H88252  12.140   5.530   2.837 -0.5786  0.3280 -1.2125
  654MOL0     H88253  12.157   5.374   2.918  0.0112  0.0323  1.8995
  654MOL0     H88254  12.232   5.807   2.693 -1.8638 -0.1302  2.2090
  654MOL0     H88255  12.346   5.938   2.522 -2.7569 -1.1351  0.4162
  654MOL0     H88256  12.657   5.963   2.478 -0.9398  0.9643 -0.0707
  654MOL0     H88257  12.665   6.111   2.393 -0.2623 -1.4964 -0.1579
  654MOL0     H88258  12.787   6.071   2.669  1.7076  0.6495 -0.2882
  654MOL0     H88259  12.877   6.045   2.521  1.4856  2.3890  0.9655
  654MOL0     H88260  12.788   6.323   2.608  2.0011  1.4008  0.2990
  654MOL0     H88261  12.828   6.269   2.440 -3.7777  0.1383  0.6327
  654MOL0     H88262  13.004   6.220   2.692 -2.7939  1.2592  1.2616
  654MOL0     H88263  13.062   6.229   2.530 -0.5732  0.4635 -0.1724
  654MOL0     H88264  13.037   6.431   2.724  0.8430 -2.5991  0.7246
  654MOL0     H88265  12.950   6.491   2.577  1.0375  2.0118  2.2898
  654MOL0     H88266  13.240   6.380   2.577  0.9475  0.8577 -2.8496
  654MOL0     H88267  13.145   6.475   2.452 -1.6380  3.2753  0.5613
  654MOL0     H88268  13.280   6.554   2.708 -1.8008 -1.2017  0.4878
  654MOL0     H88269  13.137   6.640   2.654  0.1756  0.7751 -0.7623
  654MOL0     H88270  13.308   6.766   2.560 -1.0915 -0.1941  2.1649
  654MOL0     H88271  13.278   6.652   2.422  2.0583  0.8111  0.8573
  654MOL0     H88272  12.581   6.122   2.833  1.4080 -1.3644 -0.0399
  654MOL0     H88273  12.498   5.969   2.997  2.5500  0.0981 -0.1741
  654MOL0     H88274  12.426   5.690   3.204  1.9173 -1.4805 -2.2422
  654MOL0     H88275  12.381   5.534   3.397  0.7433  2.5916 -0.2582
  654MOL0     H88276  10.966   4.460   3.891  0.1445  0.0289 -0.8705
  654MOL0     H88277  10.761   4.420   4.020  0.2919  1.3679 -0.8480
  654MOL0     H88278  10.189   4.168   3.867 -0.8615 -0.9571 -0.7448
  654MOL0     H88279  10.000   4.109   4.017 -1.2453 -2.5379  2.2128
  654MOL0     H88280   9.840   4.083   4.211  0.7401  1.1499  0.1087
  654MOL0     H88281   9.919   3.914   4.183  1.1353  0.2302  1.8057
  654MOL0     H88282   9.807   4.015   4.447 -2.5790 -0.4505 -0.4767
  654MOL0     H88283   9.891   3.861   4.420  1.5060  2.3754  0.1794
  654MOL0     H88284   9.689   3.840   4.229 -0.0833  0.0875  0.4807
  654MOL0     H88285   9.615   3.954   4.350  0.5212 -0.0724  2.0452
  654MOL0     H88286   9.665   3.818   4.539  3.4931  4.0481 -1.5535
  654MOL0     H88287   9.742   3.698   4.456  1.3043  2.1185  0.4531
  654MOL0     H88288   9.354   3.564   4.405 -0.1129  0.5872 -0.5543
  654MOL0     H88289  10.300   4.085   4.341  0.5939 -1.8195 -1.7275
  654MOL0     H88290  10.455   4.169   4.193  0.2834 -1.6359  0.7248
  655MOL0     O88291   0.700   0.470   4.062  0.2587  0.6158  0.1564
  655MOL0     C88292   0.674   0.374   4.135  0.6332  0.3343  0.2724
  655MOL0     O88293   0.750   0.343   4.249  0.2742 -0.8405  0.3987
  655MOL0     C88294   0.870   0.407   4.267  0.4689  0.7235 -0.0047
  655MOL0     C88295   0.893   0.480   4.385  0.0589 -0.3824  0.0702
  655MOL0     C88296   1.008   0.546   4.402  0.1373  0.2746 -0.0898
  655MOL0     C88297   1.116   0.517   4.317 -0.7431  0.1942  0.5381
  655MOL0     O88298   1.225   0.571   4.353  0.0534 -0.0899 -0.2587
  655MOL0     C88299   1.323   0.600   4.252  0.8352 -0.7907 -0.8863
  655MOL0     C88300   1.400   0.716   4.313  1.0221  0.6046  0.6814
  655MOL0     C88301   1.310   0.839   4.342 -0.6877  0.4460 -0.4738
  655MOL0     C88302   1.317   0.893   4.487  0.5933  0.5090 -0.7927
  655MOL0     C88303   1.194   0.982   4.515  0.2901 -0.2912 -1.1484
  655MOL0     C88304   1.217   1.077   4.627 -0.3011 -0.3010  0.0568
  655MOL0     C88305   1.228   1.012   4.767  0.4141  0.1078  0.1558
  655MOL0     C88306   1.265   1.132   4.861 -0.5654  0.2862  0.0512
  655MOL0     N88307   1.304   1.074   4.995 -0.2263  0.8680  0.6078
  655MOL0     C88308   1.213   1.045   5.093 -0.5872  0.3751 -0.2625
  655MOL0     C88309   1.292   0.994   5.194  0.8326  0.3671 -0.5722
  655MOL0     C88310   1.240   0.948   5.324 -0.1240  0.6255 -0.0168
  655MOL0     C88311   1.325   0.830   5.382  0.1911 -0.6736  0.0555
  655MOL0     C88312   1.269   0.787   5.516 -0.1910  0.6983  0.5679
  655MOL0     C88313   1.346   0.677   5.580  0.2642 -0.7250 -0.5614
  655MOL0     O88314   1.334   0.549   5.516 -1.2085 -0.7848 -0.2406
  655MOL0     C88315   1.397   0.437   5.575  1.5282 -0.3084 -1.2474
  655MOL0     C88316   1.352   0.310   5.518 -0.1438 -0.0586 -0.3523
  655MOL0     C88317   1.380   0.191   5.584  0.1222 -0.3127  0.2108
  655MOL0     C88318   1.307   0.078   5.527 -0.3491  0.3720 -0.2269
  655MOL0     C88319   1.453   0.194   5.708 -0.4157  0.9741  0.0414
  655MOL0     C88320   1.490   0.069   5.776 -0.2213  0.0356 -0.5447
  655MOL0     O88321   1.573   0.078   5.879  0.5879 -0.5413 -0.2868
  655MOL0     C88322   1.578  -0.024   5.969 -0.4491 -0.8785  0.7097
  655MOL0     C88323   1.468  -0.077   6.028  1.0987 -0.0186  0.3344
  655MOL0     C88324   1.478  -0.159   6.137  0.1436 -0.8133 -0.0562
  655MOL0     C88325   1.604  -0.214   6.182 -0.4493 -0.0679  0.4354
  655MOL0     O88326   1.620  -0.305   6.283  0.0363 -0.7440 -0.5660
  655MOL0     C88327   1.748  -0.316   6.349  0.0033  0.6998  1.5095
  655MOL0     C88328   1.730  -0.433   6.451 -0.0111  0.0357 -0.5220
  655MOL0     C88329   1.875  -0.461   6.511  0.2432  0.0365  0.8331
  655MOL0     C88330   1.870  -0.568   6.617 -0.5584 -1.1631 -0.4041
  655MOL0     C88331   2.009  -0.632   6.655  1.0301 -0.3062  1.0612
  655MOL0     C88332   2.092  -0.529   6.729  0.0219 -0.0815  0.5502
  655MOL0     C88333   2.225  -0.598   6.771  0.6093 -0.5847 -0.4760
  655MOL0     C88334   2.278  -0.532   6.896  0.2057 -0.0630  0.0287
  655MOL0    Cl88335   2.451  -0.563   6.902 -0.3260 -0.0237 -0.0093
  655MOL0     C88336   1.716  -0.165   6.108  0.3809  0.8101  0.2526
  655MOL0     C88337   1.704  -0.069   6.006 -0.3009 -1.0321  0.7309
  655MOL0     O88338   1.437  -0.037   5.748 -0.3180 -0.0796  0.4391
  655MOL0     C88339   1.517   0.312   5.745  0.9934 -0.3665 -0.1977
  655MOL0     C88340   1.487   0.435   5.681 -0.0695  0.4176 -0.6805
  655MOL0     N88341   1.417   0.981   5.148  0.5109 -0.3608 -0.1377
  655MOL0     N88342   1.426   1.039   5.037  0.2133  0.4759 -1.2078
  655MOL0     C88343   1.098   0.422   4.208 -0.0995 -0.5786  0.0473
  655MOL0     C88344   0.972   0.377   4.178 -0.3807  0.0153 -0.5457
  655MOL0     C88345   0.553   0.296   4.124  0.5239 -0.8159  0.2738
  655MOL0     C88346   0.505   0.205   4.222 -0.3764 -0.1441  0.5733
  655MOL0     C88347   0.395   0.138   4.198  0.0146 -0.3423 -1.0388
  655MOL0     C88348   0.315   0.145   4.083 -0.5539 -0.7550  0.4635
  655MOL0     O88349   0.192   0.094   4.072  0.5749  0.5137 -0.3149
  655MOL0     C88350   0.102   0.079   4.181  0.2723 -0.6179  0.8782
  655MOL0     C88351  -0.035   0.130   4.126 -0.2570  0.1561 -0.3015
  655MOL0     C88352  -0.151   0.080   4.207  0.1470 -0.9146 -1.1036
  655MOL0     C88353  -0.274   0.168   4.176 -0.2076  0.5674  0.0911
  655MOL0     C88354  -0.398   0.134   4.256 -0.2726 -0.6311  0.6372
  655MOL0     C88355  -0.495   0.086   4.315 -1.1024 -0.1123 -0.9928
  655MOL0     C88356   0.369   0.216   3.975 -0.3111  0.3491  0.5748
  655MOL0     C88357   0.479   0.296   4.002 -0.6609 -0.4089 -0.2536
  655MOL0     H88358   0.823   0.501   4.465 -2.8435 -0.8966 -2.1589
  655MOL0     H88359   1.009   0.629   4.473  2.3214 -0.0265  0.3143
  655MOL0     H88360   1.392   0.517   4.234  0.8608 -0.6605 -1.3834
  655MOL0     H88361   1.284   0.628   4.154  0.7925  3.1770  0.1176
  655MOL0     H88362   1.437   0.675   4.407 -0.5136 -2.9661 -0.1305
  655MOL0     H88363   1.484   0.750   4.252 -0.0550 -1.2165 -1.9746
  655MOL0     H88364   1.341   0.926   4.283  4.4876 -0.8511 -0.1995
  655MOL0     H88365   1.215   0.814   4.294 -1.2596  2.9263 -0.7394
  655MOL0     H88366   1.330   0.814   4.562  0.7880 -0.7553 -2.1301
  655MOL0     H88367   1.409   0.952   4.485  0.9515 -0.0151 -0.3207
  655MOL0     H88368   1.156   1.034   4.427 -2.0408 -3.8363 -2.4391
  655MOL0     H88369   1.104   0.926   4.541 -0.2537  1.5477  1.3733
  655MOL0     H88370   1.313   1.124   4.603  0.8645 -1.9491  1.2589
  655MOL0     H88371   1.156   1.168   4.622  1.3554  0.8069 -3.7045
  655MOL0     H88372   1.146   0.958   4.815  2.1000 -2.1786  0.5864
  655MOL0     H88373   1.309   0.939   4.767 -0.7935 -1.3012  1.6395
  655MOL0     H88374   1.179   1.199   4.867 -0.6490  0.3530 -1.4187
  655MOL0     H88375   1.344   1.186   4.808  1.0116 -2.3143 -0.4092
  655MOL0     H88376   1.112   1.083   5.103 -0.4795  0.5073  0.3643
  655MOL0     H88377   1.233   1.034   5.390  1.8111  0.9952 -0.2341
  655MOL0     H88378   1.145   0.898   5.302 -0.2514  0.8731 -0.0290
  655MOL0     H88379   1.429   0.863   5.393 -0.8334  2.9382  0.4340
  655MOL0     H88380   1.321   0.738   5.323 -1.0741 -1.6679  1.6108
  655MOL0     H88381   1.169   0.753   5.491 -0.5918  1.3709  1.2282
  655MOL0     H88382   1.276   0.873   5.584 -3.7414 -0.5990  2.8195
  655MOL0     H88383   1.308   0.669   5.683  0.7754 -1.0460 -0.3950
  655MOL0     H88384   1.448   0.715   5.585 -0.5352  1.4254  0.8827
  655MOL0     H88385   1.274   0.313   5.443  0.0908 -2.2401 -0.7656
  655MOL0     H88386   1.259   0.027   5.611 -0.0754  2.0456  1.0201
  655MOL0     H88387   1.236   0.098   5.446  1.1033  0.8769 -1.4220
  655MOL0     H88388   1.368   0.002   5.479 -2.2636 -1.9792  0.8690
  655MOL0     H88389   1.371  -0.034   6.004 -0.2760 -3.2483 -0.3486
  655MOL0     H88390   1.383  -0.171   6.188 -2.1195  1.1916 -3.3657
  655MOL0     H88391   1.828  -0.329   6.276 -0.4955 -1.4705  1.2694
  655MOL0     H88392   1.768  -0.235   6.419 -1.6844  0.4251  2.3685
  655MOL0     H88393   1.667  -0.400   6.534 -1.8950 -2.7243 -0.6865
  655MOL0     H88394   1.677  -0.525   6.424  1.6088 -0.8424 -0.8609
  655MOL0     H88395   1.905  -0.368   6.560 -1.3231  0.8675  0.2957
  655MOL0     H88396   1.944  -0.482   6.429 -3.7922 -1.6206 -2.4837
  655MOL0     H88397   1.845  -0.510   6.706  3.1517  0.3433 -0.1506
  655MOL0     H88398   1.792  -0.644   6.602 -2.0870 -0.9078  4.5089
  655MOL0     H88399   2.055  -0.680   6.568 -2.8258  0.9888 -1.9890
  655MOL0     H88400   1.984  -0.713   6.724  0.3265 -1.1863 -0.1975
  655MOL0     H88401   2.130  -0.457   6.656  0.4079  0.2250  1.0438
  655MOL0     H88402   2.035  -0.485   6.812 -4.6997 -1.5702 -1.5468
  655MOL0     H88403   2.301  -0.592   6.691  1.7982  0.7170  0.6862
  655MOL0     H88404   2.192  -0.698   6.800 -3.1934  0.5774 -0.3328
  655MOL0     H88405   2.231  -0.561   6.990  2.0393 -0.9557  0.7182
  655MOL0     H88406   2.262  -0.425   6.878  1.3387  0.4000  1.5439
  655MOL0     H88407   1.818  -0.182   6.140  1.0849  2.7270 -0.8114
  655MOL0     H88408   1.784  -0.032   5.942 -1.5129  0.6675  0.1179
  655MOL0     H88409   1.567   0.310   5.841  2.3956 -2.5227 -0.9213
  655MOL0     H88410   1.518   0.532   5.717  0.3630 -0.6078  1.9044
  655MOL0     H88411   1.186   0.387   4.153  1.6639  3.7578 -0.2612
  655MOL0     H88412   0.944   0.300   4.107 -1.6825  1.3436 -1.5365
  655MOL0     H88413   0.563   0.181   4.311  3.9441  1.0373 -1.6281
  655MOL0     H88414   0.365   0.060   4.267 -0.5933 -0.3853 -1.3496
  655MOL0     H88415   0.103  -0.029   4.198  0.1557 -0.4116  2.2928
  655MOL0     H88416   0.139   0.139   4.264 -0.9636  4.7102 -1.9368
  655MOL0     H88417  -0.067   0.106   4.024 -2.3043 -1.6876  0.6949
  655MOL0     H88418  -0.033   0.240   4.123 -1.5247  0.3219  2.1994
  655MOL0     H88419  -0.136   0.100   4.314 -1.5493  1.9449 -1.3181
  655MOL0     H88420  -0.161  -0.027   4.188  3.4451 -2.0739  2.3518
  655MOL0     H88421  -0.310   0.152   4.074  0.5902  0.3752 -0.1711
  655MOL0     H88422  -0.250   0.273   4.196  3.7547  0.1268 -1.4065
  655MOL0     H88423  -0.571   0.039   4.375  1.4957 -3.5229 -0.0747
  655MOL0     H88424   0.317   0.218   3.879  1.1172 -0.5739 -0.2557
  655MOL0     H88425   0.513   0.370   3.930  4.1936  0.5245  2.5439
  656MOL0     O88426   4.810   7.492   6.413 -0.9502  0.3893 -0.0034
  656MOL0     C88427   4.715   7.507   6.490  0.2021  0.8793  0.1510
  656MOL0     O88428   4.703   7.601   6.575 -0.2583 -0.1915 -0.5788
  656MOL0     C88429   4.799   7.699   6.573 -0.5451 -0.5940 -0.0950
  656MOL0     C88430   4.912   7.688   6.657 -0.5195 -0.4862  0.2257
  656MOL0     C88431   5.012   7.780   6.649  0.3839  0.8070  0.5420
  656MOL0     C88432   5.000   7.885   6.557 -0.6526 -1.0969  0.5038
  656MOL0     O88433   5.097   7.979   6.526  0.0794  0.4590 -0.1419
  656MOL0     C88434   5.230   7.930   6.536 -0.2801 -0.2967 -1.2303
  656MOL0     C88435   5.325   8.057   6.528 -1.0903 -0.3146  0.3871
  656MOL0     C88436   5.474   8.043   6.569 -0.2610 -0.5394  0.7125
  656MOL0     C88437   5.550   8.164   6.512  0.3041  0.4070  0.1103
  656MOL0     C88438   5.702   8.150   6.533 -1.0171  0.8046 -0.7311
  656MOL0     C88439   5.763   8.043   6.448 -0.5386  0.2239 -0.3093
  656MOL0     C88440   5.910   8.048   6.474 -0.0226 -0.1064 -0.2897
  656MOL0     C88441   5.948   7.956   6.595  0.0960 -0.4167 -0.4826
  656MOL0     N88442   6.092   7.949   6.609 -0.4781  0.2665 -0.5638
  656MOL0     C88443   6.174   7.899   6.511 -0.7616  0.1020 -0.4770
  656MOL0     C88444   6.299   7.906   6.574 -0.3357  0.6666 -0.3814
  656MOL0     C88445   6.429   7.875   6.515  0.0192  0.1616  0.5442
  656MOL0     C88446   6.509   7.751   6.558 -0.1870  0.4469 -0.2735
  656MOL0     C88447   6.409   7.633   6.560 -0.5809  0.9911  0.3938
  656MOL0     C88448   6.467   7.498   6.628  0.3647  0.2107 -0.3677
  656MOL0     O88449   6.572   7.427   6.560  0.1811  0.8419 -0.6874
  656MOL0     C88450   6.565   7.408   6.423 -0.2491  0.6191 -0.8707
  656MOL0     C88451   6.445   7.397   6.348  0.6300 -1.7238  0.5817
  656MOL0     C88452   6.445   7.384   6.207  0.3937  0.5751  0.8979
  656MOL0     C88453   6.315   7.357   6.139  0.1504  0.0382 -0.6936
  656MOL0     C88454   6.568   7.393   6.143  0.2927  0.0890 -0.6082
  656MOL0     C88455   6.581   7.388   5.983  0.0527 -0.4892 -0.3024
  656MOL0     O88456   6.477   7.423   5.910  0.9394 -0.8287 -0.4825
  656MOL0     C88457   6.482   7.400   5.776  0.5493 -0.5053  0.6730
  656MOL0     C88458   6.454   7.276   5.731 -0.3463  0.7212 -0.4601
  656MOL0     C88459   6.457   7.243   5.595  0.4679 -0.3919 -0.1970
  656MOL0     C88460   6.474   7.342   5.494 -0.3469  0.6784 -0.1608
  656MOL0     O88461   6.461   7.329   5.358 -0.4184 -0.8387  0.0596
  656MOL0     C88462   6.448   7.195   5.305 -0.1056 -0.0376  0.5720
  656MOL0     C88463   6.500   7.175   5.170  0.4881 -0.8042 -0.0883
  656MOL0     C88464   6.657   7.169   5.148 -0.5023  1.5229  0.2919
  656MOL0     C88465   6.755   7.279   5.203 -0.0916 -0.8760 -1.4363
  656MOL0     C88466   6.901   7.274   5.156 -0.7129  0.3548  1.0791
  656MOL0     C88467   6.991   7.383   5.204  0.0717 -0.3208  0.4961
  656MOL0     C88468   6.940   7.517   5.159  0.1232  0.1138 -0.1528
  656MOL0     C88469   7.042   7.616   5.105 -1.0131 -0.5626  0.4458
  656MOL0    Cl88470   6.970   7.762   5.013  0.4090  0.1580  0.3947
  656MOL0     C88471   6.497   7.465   5.540  0.5194  0.2855 -0.0769
  656MOL0     C88472   6.492   7.494   5.678  0.4168 -1.2826 -0.0037
  656MOL0     O88473   6.686   7.339   5.944 -0.2439  0.0395  0.6737
  656MOL0     C88474   6.691   7.416   6.213  0.2460  0.9047 -0.4982
  656MOL0     C88475   6.684   7.413   6.357  0.1555  0.5485 -0.7696
  656MOL0     N88476   6.282   7.968   6.702  0.2457  0.4572  0.1127
  656MOL0     N88477   6.159   7.996   6.721  0.4023 -0.2960  0.0035
  656MOL0     C88478   4.885   7.895   6.468 -1.1329 -0.6011 -0.8365
  656MOL0     C88479   4.787   7.805   6.484 -0.6110  0.1433  0.0051
  656MOL0     C88480   4.616   7.393   6.507  0.2495  0.0663  0.9820
  656MOL0     C88481   4.496   7.409   6.574 -0.2640 -0.3613  0.3565
  656MOL0     C88482   4.398   7.304   6.579  0.1466  0.9147 -1.2345
  656MOL0     C88483   4.431   7.184   6.523  0.3208  0.0057 -0.2995
  656MOL0     O88484   4.334   7.088   6.495 -0.1803  0.4649  0.3985
  656MOL0     C88485   4.193   7.124   6.472  0.1154  0.8042 -0.0531
  656MOL0     C88486   4.129   6.987   6.460  0.6771  0.1984 -0.4003
  656MOL0     C88487   3.978   6.981   6.459  0.8800 -0.9613  0.2114
  656MOL0     C88488   3.924   7.081   6.364  1.9390  0.0633  0.3055
  656MOL0     C88489   3.964   7.074   6.219  0.7447 -0.6005 -0.8987
  656MOL0     C88490   4.003   7.058   6.108  0.2272 -0.2442 -0.1012
  656MOL0     C88491   4.562   7.163   6.473 -0.1605 -0.3022  0.1201
  656MOL0     C88492   4.654   7.275   6.453 -0.0045  0.0408  0.6310
  656MOL0     H88493   4.906   7.606   6.729 -1.8743 -0.9210 -0.3389
  656MOL0     H88494   5.082   7.793   6.731  0.4710  4.7674  0.0468
  656MOL0     H88495   5.260   7.880   6.629 -2.0246  0.1680 -0.3898
  656MOL0     H88496   5.255   7.862   6.454 -1.1059 -0.3718 -1.4216
  656MOL0     H88497   5.316   8.102   6.429  1.6860 -1.4900 -0.4873
  656MOL0     H88498   5.284   8.136   6.591 -0.7261 -0.1926  0.4717
  656MOL0     H88499   5.481   8.036   6.678  0.4256  0.1706  0.7195
  656MOL0     H88500   5.518   7.953   6.526  0.2407 -0.6259  1.3825
  656MOL0     H88501   5.531   8.177   6.405  0.3271  1.9620  0.2686
  656MOL0     H88502   5.518   8.260   6.554 -0.9800 -1.0225  2.6063
  656MOL0     H88503   5.748   8.246   6.508 -1.3674  1.0077 -0.6029
  656MOL0     H88504   5.725   8.116   6.635  1.1675  1.1140 -1.0750
  656MOL0     H88505   5.734   7.947   6.491  1.9037  0.5419  2.3270
  656MOL0     H88506   5.746   8.060   6.341  0.4720  1.2195 -0.3356
  656MOL0     H88507   5.957   8.005   6.385 -1.5276  1.6615 -2.0220
  656MOL0     H88508   5.951   8.148   6.490 -0.4609  0.0981 -0.4315
  656MOL0     H88509   5.897   7.860   6.583  1.6222 -1.3028 -0.2265
  656MOL0     H88510   5.909   7.995   6.690  1.3671 -2.3659  0.9392
  656MOL0     H88511   6.145   7.851   6.419 -0.0741  1.8816 -1.6688
  656MOL0     H88512   6.392   7.853   6.414 -3.1270 -5.5679  2.5191
  656MOL0     H88513   6.494   7.963   6.523  0.9102 -0.3964 -0.2757
  656MOL0     H88514   6.557   7.760   6.656 -3.5067  0.2107  1.5204
  656MOL0     H88515   6.583   7.721   6.483  0.3946  1.4541 -0.1169
  656MOL0     H88516   6.381   7.613   6.456  0.9992  1.3724 -0.1386
  656MOL0     H88517   6.318   7.653   6.616 -3.1402 -2.4431 -2.0896
  656MOL0     H88518   6.388   7.423   6.639  1.8010 -1.3563 -0.3074
  656MOL0     H88519   6.504   7.528   6.727  1.2400  2.6966 -1.3713
  656MOL0     H88520   6.346   7.389   6.393  0.5441  0.1463  0.7794
  656MOL0     H88521   6.243   7.330   6.217  0.4459  1.5067  0.1100
  656MOL0     H88522   6.285   7.454   6.100  2.5430  0.4909 -1.5759
  656MOL0     H88523   6.297   7.274   6.070 -2.0204 -0.7000  0.6412
  656MOL0     H88524   6.421   7.199   5.799  3.4062 -0.1030  0.6526
  656MOL0     H88525   6.430   7.143   5.563  1.6645 -0.6176 -0.5427
  656MOL0     H88526   6.507   7.127   5.367 -0.9932 -3.7023 -2.2959
  656MOL0     H88527   6.344   7.164   5.301  0.0655 -0.5712 -2.6860
  656MOL0     H88528   6.457   7.081   5.135 -1.4341 -0.1221  0.3331
  656MOL0     H88529   6.460   7.253   5.104  1.9153 -0.7996 -1.0121
  656MOL0     H88530   6.674   7.139   5.045  1.7304  3.9749 -0.1598
  656MOL0     H88531   6.674   7.081   5.210 -1.8598  0.0148 -1.3705
  656MOL0     H88532   6.707   7.374   5.182 -0.5243 -0.4990  0.9753
  656MOL0     H88533   6.752   7.270   5.312 -3.5872 -3.5689 -1.5599
  656MOL0     H88534   6.899   7.289   5.048  0.4601  1.4748  1.1999
  656MOL0     H88535   6.947   7.179   5.185  2.9347  1.8137  0.5602
  656MOL0     H88536   6.982   7.374   5.312 -1.0500  1.1551  0.5657
  656MOL0     H88537   7.093   7.366   5.170 -0.1765 -0.8491 -0.0164
  656MOL0     H88538   6.890   7.557   5.249  0.8274  1.9903 -0.5468
  656MOL0     H88539   6.864   7.512   5.081  0.8265 -2.1937 -0.7582
  656MOL0     H88540   7.102   7.558   5.034 -0.7346 -1.4848  1.4100
  656MOL0     H88541   7.101   7.659   5.187 -2.0474  0.0144  0.8977
  656MOL0     H88542   6.503   7.553   5.476 -1.1797  1.2939  1.0843
  656MOL0     H88543   6.487   7.600   5.699  0.1786 -1.2313 -0.3116
  656MOL0     H88544   6.786   7.413   6.160  0.7121  0.1798  0.3488
  656MOL0     H88545   6.775   7.424   6.414 -1.2523  1.2046  1.4571
  656MOL0     H88546   4.877   7.957   6.380  2.4863  0.4518 -0.5578
  656MOL0     H88547   4.703   7.803   6.415  1.4738  0.3190 -2.7297
  656MOL0     H88548   4.460   7.505   6.610 -0.3797 -0.7422  1.2869
  656MOL0     H88549   4.302   7.312   6.627  1.5212 -3.6349  3.0980
  656MOL0     H88550   4.143   7.179   6.552 -4.6070 -1.4034 -1.1885
  656MOL0     H88551   4.187   7.175   6.376  3.2929 -0.6301 -1.1527
  656MOL0     H88552   4.160   6.922   6.542 -1.0439  1.9432  1.7610
  656MOL0     H88553   4.166   6.939   6.369  3.0092 -0.0777  0.6348
  656MOL0     H88554   3.931   6.986   6.558  1.6610  4.1179  0.5869
  656MOL0     H88555   3.955   6.885   6.412 -3.5621 -0.7009  1.4482
  656MOL0     H88556   3.936   7.183   6.400 -1.5156  1.1535 -1.2428
  656MOL0     H88557   3.817   7.058   6.358  1.4750  1.9503  0.8750
  656MOL0     H88558   4.062   7.047   6.019  0.6040 -1.0177  0.2344
  656MOL0     H88559   4.577   7.063   6.432  1.3076 -0.7660  1.6539
  656MOL0     H88560   4.743   7.255   6.395 -1.2874  0.6999 -1.7254
  657MOL0     O88561  10.125   7.222   0.789  0.3171 -0.0922 -0.0902
  657MOL0     C88562  10.131   7.318   0.715  1.2303  0.9759  0.5902
  657MOL0     O88563  10.229   7.407   0.713  1.1048  0.1430  0.9942
  657MOL0     C88564  10.324   7.412   0.811 -0.7179 -0.0329 -0.1434
  657MOL0     C88565  10.448   7.436   0.770 -0.9552 -0.0373  0.5377
  657MOL0     C88566  10.558   7.447   0.853  0.6185 -0.1966 -0.2507
  657MOL0     C88567  10.534   7.442   0.986  0.7597  0.1458 -0.1659
  657MOL0     O88568  10.628   7.462   1.086 -0.1410  0.3081 -0.0552
  657MOL0     C88569  10.766   7.504   1.078  0.9049 -0.0363  0.3630
  657MOL0     C88570  10.864   7.400   1.040 -0.7393  0.0174 -0.0608
  657MOL0     C88571  10.861   7.284   1.141 -0.0253 -0.3440  0.7511
  657MOL0     C88572  10.981   7.197   1.101  0.3111 -0.0004  0.4403
  657MOL0     C88573  10.991   7.063   1.165  0.1934 -0.0151 -0.9762
  657MOL0     C88574  10.883   6.972   1.113 -0.1691  0.3875  0.0288
  657MOL0     C88575  10.863   6.847   1.193  0.0238 -0.0098  0.5172
  657MOL0     C88576  10.998   6.760   1.228  0.1959 -0.3327 -0.3197
  657MOL0     N88577  11.053   6.710   1.105 -0.8329  0.2797  0.0250
  657MOL0     C88578  11.075   6.570   1.086  0.6616 -0.9139 -0.4875
  657MOL0     C88579  11.090   6.553   0.953  0.2698 -0.5863  0.2244
  657MOL0     C88580  11.119   6.419   0.890  0.2052  0.1339 -0.6902
  657MOL0     C88581  11.245   6.345   0.934 -0.7269 -0.0569  0.3331
  657MOL0     C88582  11.369   6.435   0.904 -0.4797  0.4904  0.4539
  657MOL0     C88583  11.502   6.358   0.927  0.3926 -1.1939 -0.2118
  657MOL0     O88584  11.522   6.285   0.810 -0.0862  0.5220 -0.5224
  657MOL0     C88585  11.644   6.207   0.792 -0.2865 -1.1824 -0.2089
  657MOL0     C88586  11.668   6.158   0.670 -0.1069  0.2471  0.5160
  657MOL0     C88587  11.767   6.065   0.641  0.3528 -0.1367  0.3349
  657MOL0     C88588  11.779   5.998   0.508 -0.2851 -0.2363  0.4280
  657MOL0     C88589  11.859   6.031   0.748  0.2549 -0.0581  0.2453
  657MOL0     C88590  11.983   5.946   0.740  0.3284  0.1847 -0.3193
  657MOL0     O88591  12.049   5.941   0.618 -0.3854 -0.0671 -0.6927
  657MOL0     C88592  12.174   5.879   0.616 -1.0441  0.0002  0.0420
  657MOL0     C88593  12.279   5.939   0.687  0.3351  0.7523 -0.1035
  657MOL0     C88594  12.414   5.878   0.688 -0.2319  0.3933  0.0964
  657MOL0     C88595  12.441   5.761   0.618  0.9709 -0.3030 -0.0077
  657MOL0     O88596  12.554   5.690   0.620  0.7164  0.3063  0.6464
  657MOL0     C88597  12.665   5.755   0.561  0.1896 -0.3699  0.4996
  657MOL0     C88598  12.773   5.644   0.526 -0.0201 -0.5750 -0.0156
  657MOL0     C88599  12.839   5.599   0.653  0.3651  0.1059 -0.0608
  657MOL0     C88600  12.987   5.663   0.643  0.3918 -0.1675  0.4272
  657MOL0     C88601  13.073   5.643   0.765  0.6097  0.0601  0.0470
  657MOL0     C88602  13.216   5.689   0.733  0.3704 -0.0206  0.1281
  657MOL0     C88603  13.307   5.684   0.855 -0.4449  0.1590 -0.3771
  657MOL0     C88604  13.333   5.549   0.927 -0.1239 -0.0695  0.3303
  657MOL0    Cl88605  13.367   5.432   0.795 -0.2429  0.2868 -0.0716
  657MOL0     C88606  12.334   5.705   0.543 -1.0286 -0.4443 -0.2844
  657MOL0     C88607  12.202   5.764   0.537 -0.1786  0.1094 -0.4577
  657MOL0     O88608  12.023   5.898   0.845 -0.1215  0.2341 -0.7233
  657MOL0     C88609  11.827   6.089   0.872  0.3568 -0.1220 -0.1965
  657MOL0     C88610  11.723   6.173   0.901  1.4439  0.4286 -0.3995
  657MOL0     N88611  11.074   6.676   0.889 -0.2205 -0.6852 -0.4099
  657MOL0     N88612  11.053   6.764   0.982 -0.3367 -0.3392  0.0022
  657MOL0     C88613  10.405   7.422   1.036  0.3723  0.2392  0.6140
  657MOL0     C88614  10.292   7.395   0.954 -0.2338  0.9969  0.1115
  657MOL0     C88615  10.025   7.324   0.616 -0.3044 -0.7268 -0.0337
  657MOL0     C88616   9.970   7.201   0.569  0.4304  0.2854  0.8792
  657MOL0     C88617   9.870   7.197   0.466  0.5768 -0.3631  0.1984
  657MOL0     C88618   9.829   7.324   0.412 -0.2478 -0.3422 -0.3359
  657MOL0     O88619   9.744   7.335   0.308  0.2179 -0.4436 -0.1094
  657MOL0     C88620   9.620   7.258   0.314  0.3721  0.2931  0.3187
  657MOL0     C88621   9.510   7.307   0.405  0.0005  0.6076  0.8614
  657MOL0     C88622   9.383   7.231   0.380  0.2697 -0.4132 -0.5297
  657MOL0     C88623   9.270   7.286   0.468  0.7040  0.1608  0.6292
  657MOL0     C88624   9.280   7.257   0.613  0.5220  0.3105 -0.1424
  657MOL0     C88625   9.299   7.262   0.735  1.0208  1.0066 -0.1508
  657MOL0     C88626   9.901   7.437   0.447  0.5336 -0.2036  0.0090
  657MOL0     C88627   9.984   7.442   0.557 -0.6406 -0.2726 -0.0737
  657MOL0     H88628  10.461   7.453   0.663 -2.8357 -1.0356  0.1000
  657MOL0     H88629  10.650   7.491   0.817 -0.1221  0.5957 -1.2285
  657MOL0     H88630  10.763   7.581   1.000 -2.1354 -0.3901  0.0269
  657MOL0     H88631  10.793   7.541   1.178  1.1682 -3.2772  1.6092
  657MOL0     H88632  10.830   7.369   0.941 -2.4176  0.2239  0.4217
  657MOL0     H88633  10.960   7.450   1.029 -1.5567  2.2414  2.0735
  657MOL0     H88634  10.874   7.310   1.246 -0.0390  0.5229  0.5462
  657MOL0     H88635  10.763   7.240   1.119  0.0436  0.5738 -1.6670
  657MOL0     H88636  10.977   7.185   0.992 -0.1765  0.9162  0.3466
  657MOL0     H88637  11.073   7.250   1.129  1.5978 -1.2097 -1.3024
  657MOL0     H88638  11.091   7.026   1.142  0.2552 -1.0316  0.7565
  657MOL0     H88639  10.985   7.072   1.274  0.0865  1.7185 -1.0942
  657MOL0     H88640  10.787   7.024   1.109 -0.9313 -0.8412  1.2341
  657MOL0     H88641  10.916   6.947   1.012  0.0897  0.0890  0.1821
  657MOL0     H88642  10.798   6.885   1.272  0.0967  2.1092 -0.3831
  657MOL0     H88643  10.806   6.769   1.142 -0.0074 -0.4027  1.1380
  657MOL0     H88644  10.963   6.684   1.297 -0.0841 -2.1884 -2.3918
  657MOL0     H88645  11.066   6.827   1.281 -1.3674 -0.7114  2.3043
  657MOL0     H88646  11.066   6.497   1.165 -2.1338  0.7745  0.9374
  657MOL0     H88647  11.033   6.356   0.916  1.1369 -0.5738  0.8599
  657MOL0     H88648  11.110   6.434   0.782  0.6805 -1.1729 -0.9381
  657MOL0     H88649  11.252   6.260   0.866 -1.5907 -0.2561  0.4886
  657MOL0     H88650  11.237   6.320   1.040  0.8307  2.8448  1.2362
  657MOL0     H88651  11.353   6.515   0.976 -4.2611  2.1058 -1.8751
  657MOL0     H88652  11.365   6.487   0.808  1.7949  2.2546  1.2337
  657MOL0     H88653  11.486   6.306   1.022  0.1482  1.2170  1.1172
  657MOL0     H88654  11.581   6.431   0.946  1.4617 -1.7364 -2.2538
  657MOL0     H88655  11.609   6.181   0.582  0.1387 -1.6040 -0.1759
  657MOL0     H88656  11.865   6.038   0.453  0.4701  1.0605  2.4587
  657MOL0     H88657  11.799   5.892   0.523 -0.8719 -0.2168  1.4108
  657MOL0     H88658  11.686   6.013   0.451 -0.1719  0.8660  0.5009
  657MOL0     H88659  12.259   6.031   0.742  0.5002  1.6796 -1.5257
  657MOL0     H88660  12.492   5.925   0.747  1.3528 -2.6994  0.6974
  657MOL0     H88661  12.643   5.797   0.463 -1.0459 -2.1280 -0.0241
  657MOL0     H88662  12.704   5.832   0.629  0.2000 -1.5305  1.8633
  657MOL0     H88663  12.722   5.561   0.476  0.8137  0.0918 -2.0901
  657MOL0     H88664  12.843   5.690   0.455 -2.5237 -0.1843 -2.4041
  657MOL0     H88665  12.849   5.492   0.669 -1.6225 -0.5603 -2.5040
  657MOL0     H88666  12.795   5.637   0.746 -2.0483 -2.4897 -0.0111
  657MOL0     H88667  13.038   5.616   0.558  0.8673  1.1502 -0.0385
  657MOL0     H88668  12.987   5.768   0.615 -0.6301 -0.1640  0.4281
  657MOL0     H88669  13.063   5.535   0.775 -0.0802  0.0360 -0.7880
  657MOL0     H88670  13.029   5.687   0.855  1.8146  1.4912 -0.0347
  657MOL0     H88671  13.251   5.629   0.649  1.2091 -2.8181  2.3093
  657MOL0     H88672  13.221   5.794   0.703  2.2538  1.2393  4.1819
  657MOL0     H88673  13.260   5.749   0.929  0.2718  3.1054 -2.3490
  657MOL0     H88674  13.399   5.724   0.811 -0.5293 -0.2786 -0.9591
  657MOL0     H88675  13.244   5.517   0.981 -0.1926 -0.6178 -0.1035
  657MOL0     H88676  13.422   5.551   0.990  1.0529 -0.8406 -1.2332
  657MOL0     H88677  12.355   5.610   0.495 -2.5367 -0.3336 -1.2234
  657MOL0     H88678  12.130   5.724   0.466  1.1983 -0.1529 -1.7556
  657MOL0     H88679  11.886   6.063   0.960 -0.9131  1.6349  1.2545
  657MOL0     H88680  11.708   6.194   1.007  1.3088  3.8349 -1.0013
  657MOL0     H88681  10.380   7.417   1.141  1.2261 -0.5558  0.7871
  657MOL0     H88682  10.196   7.363   0.993 -0.4059  0.9789 -0.3224
  657MOL0     H88683   9.996   7.101   0.601 -1.3501 -0.5372 -0.0668
  657MOL0     H88684   9.818   7.104   0.445 -1.2939  0.9448 -1.3064
  657MOL0     H88685   9.588   7.274   0.211  1.2753 -0.3511 -0.0697
  657MOL0     H88686   9.636   7.150   0.323  0.9964  0.4132  0.7423
  657MOL0     H88687   9.503   7.416   0.401  2.2001  0.8640 -4.8033
  657MOL0     H88688   9.546   7.258   0.496  1.1990  1.5995  0.9401
  657MOL0     H88689   9.388   7.122   0.381 -0.8195 -0.4686  0.6009
  657MOL0     H88690   9.356   7.246   0.275 -0.3989 -1.7968 -0.5849
  657MOL0     H88691   9.179   7.234   0.437  2.2658 -1.3287 -1.8296
  657MOL0     H88692   9.254   7.394   0.461  1.1245  0.1144 -1.6287
  657MOL0     H88693   9.337   7.277   0.834  2.0942 -0.8676 -0.2425
  657MOL0     H88694   9.876   7.527   0.392 -0.5676  0.4379  1.5059
  657MOL0     H88695  10.031   7.538   0.578 -1.5915  0.3907 -0.8942
  658MOL0     O88696   4.512   6.497   2.864 -0.0114 -0.2723 -0.0721
  658MOL0     C88697   4.481   6.377   2.857 -0.9669 -0.3352 -0.5628
  658MOL0     O88698   4.359   6.317   2.848 -0.4164 -0.1308  0.1608
  658MOL0     C88699   4.257   6.392   2.798 -0.6158 -0.3497  0.0583
  658MOL0     C88700   4.134   6.361   2.864  0.4835 -0.5126 -0.9392
  658MOL0     C88701   4.015   6.417   2.811 -0.2348 -0.5643 -0.1360
  658MOL0     C88702   4.016   6.528   2.715 -0.7588  0.5240 -0.0723
  658MOL0     O88703   3.914   6.598   2.661  0.3215  0.7588 -0.3338
  658MOL0     C88704   3.808   6.639   2.757 -0.1532 -0.3545 -0.0384
  658MOL0     C88705   3.707   6.717   2.683 -0.1981 -0.2507 -0.4162
  658MOL0     C88706   3.594   6.615   2.635  0.1146 -1.3423  0.8770
  658MOL0     C88707   3.497   6.574   2.737  0.5105  0.1804 -0.1664
  658MOL0     C88708   3.353   6.528   2.689 -0.0916 -0.2489 -0.0167
  658MOL0     C88709   3.269   6.501   2.807 -0.7675 -0.5033  0.7224
  658MOL0     C88710   3.128   6.467   2.760 -0.3440 -0.1952  0.4895
  658MOL0     C88711   3.027   6.467   2.880 -0.4720 -0.1439 -0.0967
  658MOL0     N88712   3.043   6.357   2.986  0.2419 -1.0430 -1.2350
  658MOL0     C88713   3.098   6.231   2.967  0.4205 -0.2831  0.8732
  658MOL0     C88714   3.071   6.164   3.084 -0.1678 -0.3402  0.4784
  658MOL0     C88715   3.133   6.030   3.083  0.6460 -0.0641 -0.7036
  658MOL0     C88716   3.275   6.008   3.132 -0.8909 -0.4991  0.0357
  658MOL0     C88717   3.307   6.055   3.273  0.3721  0.8890  0.0319
  658MOL0     C88718   3.456   6.075   3.301  0.8174  0.1792 -0.0595
  658MOL0     O88719   3.535   5.967   3.260  0.0005 -0.4678 -0.4565
  658MOL0     C88720   3.672   5.999   3.261  0.0266 -0.9885  0.4371
  658MOL0     C88721   3.745   5.996   3.143  0.6237 -0.0622 -0.9424
  658MOL0     C88722   3.872   6.059   3.136 -0.3352 -1.0046 -0.4140
  658MOL0     C88723   3.948   6.041   3.010  0.0448 -0.0646 -0.5248
  658MOL0     C88724   3.922   6.137   3.250 -0.3733 -0.4523 -0.0120
  658MOL0     C88725   4.044   6.222   3.241 -0.6992  0.7163 -0.1153
  658MOL0     O88726   4.054   6.328   3.331 -0.6890  0.8498 -0.2299
  658MOL0     C88727   4.172   6.404   3.325  0.8407  1.2554 -0.6241
  658MOL0     C88728   4.217   6.475   3.211  1.0371  0.0726 -0.8204
  658MOL0     C88729   4.336   6.554   3.216 -0.0475  0.1383  0.6268
  658MOL0     C88730   4.424   6.533   3.323 -1.1795 -0.2771 -0.3155
  658MOL0     O88731   4.552   6.594   3.338 -0.2655  0.1709  0.6558
  658MOL0     C88732   4.608   6.632   3.208 -0.9406  0.5351 -0.0601
  658MOL0     C88733   4.752   6.691   3.235 -0.0148 -0.3773  0.6065
  658MOL0     C88734   4.810   6.741   3.107  0.2617  0.6856 -0.4303
  658MOL0     C88735   4.945   6.808   3.135 -1.2151 -0.8017  0.2824
  658MOL0     C88736   5.013   6.860   3.007  0.8288 -0.1319 -0.4001
  658MOL0     C88737   5.131   6.949   3.031  0.4470 -0.3116 -0.4923
  658MOL0     C88738   5.169   7.001   2.894 -0.2312 -0.0920 -0.3795
  658MOL0     C88739   5.225   6.900   2.782 -0.7280  0.1829  0.8920
  658MOL0    Cl88740   5.367   6.816   2.847  0.6448 -0.1965 -0.6710
  658MOL0     C88741   4.383   6.450   3.434 -1.2744  0.1834  0.7089
  658MOL0     C88742   4.254   6.400   3.434  0.0118 -0.0226  0.3573
  658MOL0     O88743   4.142   6.188   3.164  0.2834  0.6867  0.7567
  658MOL0     C88744   3.855   6.131   3.376 -0.4292  0.2184 -0.0864
  658MOL0     C88745   3.734   6.052   3.376 -1.0011 -0.0247 -0.5768
  658MOL0     N88746   2.994   6.242   3.167 -0.6054  0.1650 -0.4172
  658MOL0     N88747   2.983   6.361   3.111  0.0456  0.0916 -0.9049
  658MOL0     C88748   4.138   6.554   2.659  0.0077 -0.1464 -0.5597
  658MOL0     C88749   4.257   6.493   2.698  0.3997  0.5865 -0.5550
  658MOL0     C88750   4.596   6.289   2.905 -0.6947  0.3981 -0.0382
  658MOL0     C88751   4.575   6.146   2.912 -0.9277  0.3394  0.2169
  658MOL0     C88752   4.686   6.060   2.947 -0.1531 -0.7109  0.2124
  658MOL0     C88753   4.809   6.114   2.986 -0.1921  0.2477 -0.1632
  658MOL0     O88754   4.913   6.026   3.016 -0.2035  0.9759 -0.6040
  658MOL0     C88755   4.895   5.962   3.143 -0.1849 -0.0350 -0.1824
  658MOL0     C88756   5.022   5.976   3.228  0.2640  0.0085 -0.2152
  658MOL0     C88757   5.039   5.866   3.326  0.3180  0.2770 -0.2620
  658MOL0     C88758   4.931   5.835   3.434  0.0205  0.2612 -0.2019
  658MOL0     C88759   4.973   5.864   3.573 -0.1741  0.5917 -0.1724
  658MOL0     C88760   4.997   5.891   3.689 -0.8588 -0.3980 -0.0972
  658MOL0     C88761   4.826   6.254   2.980 -0.2805  0.4854 -0.8315
  658MOL0     C88762   4.721   6.346   2.945  0.1057  0.4212  0.4728
  658MOL0     H88763   4.137   6.307   2.958 -0.4128  2.5806  0.9865
  658MOL0     H88764   3.927   6.394   2.870 -0.9953  2.7549  0.2220
  658MOL0     H88765   3.755   6.556   2.803 -1.2727  1.3932  1.9763
  658MOL0     H88766   3.847   6.698   2.841  0.9128 -0.4311 -0.4636
  658MOL0     H88767   3.671   6.804   2.739 -1.4343  1.1125 -3.1471
  658MOL0     H88768   3.744   6.764   2.591 -0.9252  1.2455  0.0304
  658MOL0     H88769   3.539   6.655   2.549  1.6692  2.0810  1.2910
  658MOL0     H88770   3.637   6.525   2.592 -2.2296 -1.6175 -1.1321
  658MOL0     H88771   3.544   6.487   2.785 -0.1163 -1.1567 -1.8428
  658MOL0     H88772   3.476   6.655   2.807  1.5368  1.3439 -1.1793
  658MOL0     H88773   3.304   6.599   2.623 -1.9829  0.1203  1.7048
  658MOL0     H88774   3.345   6.432   2.638 -2.6382 -0.9608  1.5655
  658MOL0     H88775   3.304   6.412   2.860 -2.1130 -0.4439  1.7688
  658MOL0     H88776   3.283   6.589   2.871  2.1679  1.5261 -2.3768
  658MOL0     H88777   3.087   6.534   2.683 -1.5443 -0.0588  1.2146
  658MOL0     H88778   3.127   6.365   2.721  0.0037 -0.2139  0.5267
  658MOL0     H88779   2.933   6.436   2.834 -2.9687  1.3970  3.5210
  658MOL0     H88780   3.008   6.567   2.920 -0.8715 -0.1253 -0.3213
  658MOL0     H88781   3.150   6.174   2.890 -1.3454 -3.7934  2.0440
  658MOL0     H88782   3.076   5.962   3.147  0.3087  1.8181  1.0871
  658MOL0     H88783   3.124   5.982   2.985 -0.8591 -3.5224  0.9431
  658MOL0     H88784   3.349   6.053   3.066 -1.5849 -0.9869 -1.1045
  658MOL0     H88785   3.295   5.900   3.135 -0.3965 -0.4002  1.8009
  658MOL0     H88786   3.284   5.979   3.347  2.3804  0.4910  0.2967
  658MOL0     H88787   3.243   6.141   3.296  0.1844  1.2853 -1.7931
  658MOL0     H88788   3.469   6.108   3.405 -2.3688  1.7273 -0.0363
  658MOL0     H88789   3.485   6.163   3.243  2.4887 -1.6007 -2.0533
  658MOL0     H88790   3.685   5.948   3.066 -4.0078  0.9244  1.6553
  658MOL0     H88791   3.957   6.140   2.966  0.5909  0.3852  0.5735
  658MOL0     H88792   4.051   6.005   3.020  0.3321  0.8047 -0.3336
  658MOL0     H88793   3.897   5.974   2.940 -0.3140 -1.0664  0.6507
  658MOL0     H88794   4.160   6.460   3.119  1.4602 -3.2177 -0.6895
  658MOL0     H88795   4.366   6.594   3.120  1.8459 -0.4823  0.9275
  658MOL0     H88796   4.618   6.544   3.143  0.1162 -0.1030  0.9305
  658MOL0     H88797   4.549   6.707   3.155 -0.1882 -0.3066 -2.1887
  658MOL0     H88798   4.738   6.770   3.309 -0.0862 -2.3111  2.7648
  658MOL0     H88799   4.810   6.610   3.279 -1.6803 -1.4642  0.8963
  658MOL0     H88800   4.742   6.803   3.048  1.7755  1.1240 -1.8182
  658MOL0     H88801   4.819   6.653   3.042  0.3332 -0.8791  1.5837
  658MOL0     H88802   4.934   6.891   3.205  1.2113 -1.1764  1.2105
  658MOL0     H88803   5.006   6.734   3.188 -1.1846 -0.2150  1.0807
  658MOL0     H88804   4.927   6.914   2.965 -0.5273 -2.4897 -0.8568
  658MOL0     H88805   5.033   6.779   2.936  3.4298  0.2041 -0.1168
  658MOL0     H88806   5.103   7.041   3.082  1.6041  0.7843 -1.7537
  658MOL0     H88807   5.212   6.899   3.085  0.5431 -2.9650 -2.8339
  658MOL0     H88808   5.242   7.074   2.932 -3.4954  3.1866  0.1665
  658MOL0     H88809   5.090   7.057   2.843 -0.0858 -0.3534 -0.8994
  658MOL0     H88810   5.249   6.949   2.687  0.5182  0.0300  1.1182
  658MOL0     H88811   5.153   6.821   2.760  0.4868 -0.7477  0.1280
  658MOL0     H88812   4.449   6.441   3.520 -0.0166  0.8661 -0.1543
  658MOL0     H88813   4.201   6.356   3.519 -0.1932  1.1019  0.8251
  658MOL0     H88814   3.890   6.181   3.466 -1.7799  2.8452 -0.9105
  658MOL0     H88815   3.688   6.047   3.475 -2.0222 -1.4182 -1.0812
  658MOL0     H88816   4.137   6.618   2.571 -1.3859 -3.0240 -2.7736
  658MOL0     H88817   4.350   6.516   2.649 -0.0636  0.2178 -1.6437
  658MOL0     H88818   4.482   6.097   2.886  0.5463 -1.9021 -1.2383
  658MOL0     H88819   4.667   5.954   2.943 -1.6889 -0.4310 -0.5962
  658MOL0     H88820   4.810   5.995   3.204 -0.8504  0.4289 -1.3290
  658MOL0     H88821   4.877   5.857   3.120 -0.9452  0.4595 -2.0562
  658MOL0     H88822   5.016   6.067   3.288  0.3854  0.0749 -0.3013
  658MOL0     H88823   5.108   5.977   3.160 -0.0102  2.4994 -0.6415
  658MOL0     H88824   5.133   5.886   3.379  0.1615 -0.8706  0.4806
  658MOL0     H88825   5.054   5.773   3.271 -1.1673  1.1041 -2.1729
  658MOL0     H88826   4.918   5.728   3.418  2.4049  0.0219 -0.8961
  658MOL0     H88827   4.845   5.899   3.412 -2.0545 -2.0367  0.7719
  658MOL0     H88828   5.018   5.904   3.793 -1.5085  0.8456 -0.1013
  658MOL0     H88829   4.925   6.292   3.004  0.1369  0.5052 -2.5029
  658MOL0     H88830   4.736   6.453   2.958 -0.9299  0.5801  0.3882
  659MOL0     O88831   7.207   8.553   0.617  0.4652  1.2803 -0.9380
  659MOL0     C88832   7.128   8.641   0.665  0.0153  0.1994  0.1985
  659MOL0     O88833   6.990   8.656   0.639 -0.2558 -0.1570  0.4581
  659MOL0     C88834   6.917   8.558   0.578  0.3322  0.4389 -0.3349
  659MOL0     C88835   6.860   8.583   0.457 -0.4543 -0.0300 -0.0103
  659MOL0     C88836   6.780   8.493   0.392  0.0190  0.0565  0.2470
  659MOL0     C88837   6.729   8.380   0.460 -0.0034  0.0072 -0.4708
  659MOL0     O88838   6.617   8.317   0.398 -0.4277  0.1288 -1.0848
  659MOL0     C88839   6.549   8.205   0.469  0.0787  0.8769 -0.2637
  659MOL0     C88840   6.419   8.271   0.528 -0.0145 -0.3093  1.0978
  659MOL0     C88841   6.303   8.313   0.431 -0.2576 -0.3958 -1.2233
  659MOL0     C88842   6.241   8.197   0.363 -0.1143  0.5808  0.3499
  659MOL0     C88843   6.127   8.216   0.271 -0.4085 -0.4885 -1.0995
  659MOL0     C88844   6.013   8.284   0.357 -0.5211  0.0371  0.3615
  659MOL0     C88845   5.961   8.223   0.492 -0.2289 -0.7940 -0.4800
  659MOL0     C88846   5.837   8.303   0.538  0.4215  0.2432  0.2522
  659MOL0     N88847   5.882   8.442   0.583  0.0657  0.9028  0.1870
  659MOL0     C88848   6.007   8.482   0.630  0.3021 -0.6638  0.1856
  659MOL0     C88849   6.001   8.613   0.658 -0.5291  0.4773  0.6127
  659MOL0     C88850   6.117   8.693   0.719 -0.2802 -0.3726 -0.3898
  659MOL0     C88851   6.140   8.667   0.869  0.3068  0.1062 -0.1296
  659MOL0     C88852   6.023   8.698   0.967 -0.6218  0.4440 -1.7929
  659MOL0     C88853   6.018   8.842   1.027 -0.7039 -0.6479  0.4870
  659MOL0     O88854   5.983   8.918   0.905 -0.2584  0.0137 -0.1162
  659MOL0     C88855   5.992   9.050   0.917 -0.3039  0.4523  0.2599
  659MOL0     C88856   5.965   9.111   0.800  0.0603 -1.3670  0.1232
  659MOL0     C88857   5.962   9.253   0.787  1.0563 -0.0927  0.4986
  659MOL0     C88858   5.915   9.305   0.660 -0.7120 -0.7940  0.6288
  659MOL0     C88859   6.003   9.327   0.906 -0.4183 -0.3806 -0.4506
  659MOL0     C88860   5.991   9.473   0.923 -0.8044 -0.3748  0.5694
  659MOL0     O88861   6.086   9.536   1.003  0.1815  0.1900 -0.3098
  659MOL0     C88862   6.052   9.665   1.032  0.0236  0.5218 -0.4739
  659MOL0     C88863   6.075   9.771   0.945  0.7424  0.9437  0.0117
  659MOL0     C88864   6.058   9.902   0.983  1.4866  0.6251  0.1858
  659MOL0     C88865   6.009   9.930   1.107 -0.5641 -0.4134 -0.2458
  659MOL0     O88866   5.986  10.062   1.125 -0.1087  0.3537  0.0005
  659MOL0     C88867   5.857  10.092   1.183  0.5095 -0.3908  0.1732
  659MOL0     C88868   5.789  10.178   1.063  0.4107 -0.3605  0.0380
  659MOL0     C88869   5.637  10.168   1.051 -0.0250  0.6629  1.2470
  659MOL0     C88870   5.606  10.270   0.939  0.2362 -0.8741  0.7264
  659MOL0     C88871   5.447  10.289   0.930 -1.0639 -0.4679 -0.3539
  659MOL0     C88872   5.390  10.382   0.822 -0.4551  0.5036  0.7590
  659MOL0     C88873   5.483  10.378   0.691 -0.5327  0.7353  0.3008
  659MOL0     C88874   5.415  10.434   0.566 -0.4404 -0.8712 -1.2082
  659MOL0    Cl88875   5.379  10.610   0.590 -0.2034  0.2376 -0.0496
  659MOL0     C88876   5.994   9.827   1.203  0.4360 -0.6428 -0.6054
  659MOL0     C88877   6.002   9.691   1.168 -0.5414  0.1197  0.3923
  659MOL0     O88878   5.898   9.524   0.863  0.0753 -0.6188 -0.4062
  659MOL0     C88879   6.046   9.248   1.019  0.0274  0.5358 -0.3193
  659MOL0     C88880   6.043   9.115   1.023 -0.0701  0.1338  0.0232
  659MOL0     N88881   5.882   8.653   0.613 -1.0915 -0.8261 -0.0247
  659MOL0     N88882   5.802   8.551   0.583 -0.5337 -0.3658 -0.4412
  659MOL0     C88883   6.771   8.358   0.586 -1.3869 -0.7418 -0.1517
  659MOL0     C88884   6.870   8.443   0.648 -0.5497 -0.9796  0.4471
  659MOL0     C88885   7.195   8.752   0.739  0.0843 -0.0368  0.7359
  659MOL0     C88886   7.319   8.724   0.803 -0.3874 -0.0581 -0.5529
  659MOL0     C88887   7.380   8.823   0.892 -0.5221 -0.4852  0.1987
  659MOL0     C88888   7.316   8.951   0.904  0.2019  0.6923 -0.4886
  659MOL0     O88889   7.355   9.059   0.981 -0.0813  0.0097 -0.0142
  659MOL0     C88890   7.469   9.036   1.060 -0.2675  0.1578 -0.5198
  659MOL0     C88891   7.567   9.138   1.046  0.5068  0.0899  0.7852
  659MOL0     C88892   7.493   9.276   1.084 -0.1642  0.5292  0.6192
  659MOL0     C88893   7.584   9.398   1.050 -0.7909 -0.2616 -0.0352
  659MOL0     C88894   7.721   9.377   1.075 -0.1257  0.2503  0.1671
  659MOL0     C88895   7.833   9.376   1.111 -0.2085  0.5348 -0.1198
  659MOL0     C88896   7.198   8.973   0.836  0.1350 -0.0016  1.2278
  659MOL0     C88897   7.136   8.883   0.744  0.8703  0.6879 -0.8897
  659MOL0     H88898   6.869   8.684   0.417 -1.6312 -0.0111 -0.2600
  659MOL0     H88899   6.731   8.533   0.304  1.9531  1.8847 -0.0590
  659MOL0     H88900   6.520   8.127   0.398 -1.3661 -0.6234  1.8417
  659MOL0     H88901   6.609   8.157   0.546 -1.1111  2.4764  1.7866
  659MOL0     H88902   6.385   8.195   0.599  1.5799 -0.3196  1.9020
  659MOL0     H88903   6.443   8.367   0.575 -1.2336  2.7971 -3.8911
  659MOL0     H88904   6.228   8.365   0.492  1.0954  1.6308 -1.1921
  659MOL0     H88905   6.341   8.382   0.355  1.2405  1.8708  1.3830
  659MOL0     H88906   6.308   8.154   0.288 -0.8611  0.8790 -0.5109
  659MOL0     H88907   6.218   8.130   0.446 -1.4575  3.2992  2.3598
  659MOL0     H88908   6.161   8.272   0.184  3.6833  1.6700  1.5826
  659MOL0     H88909   6.090   8.120   0.236 -0.5972  0.1129 -2.6308
  659MOL0     H88910   6.037   8.388   0.381  2.7273 -0.3957 -0.5684
  659MOL0     H88911   5.929   8.300   0.289  0.4046 -2.9347 -1.7035
  659MOL0     H88912   5.926   8.120   0.484  4.1219 -2.6201  1.1972
  659MOL0     H88913   6.037   8.222   0.570  0.9028 -0.2362 -1.5311
  659MOL0     H88914   5.792   8.251   0.623 -2.3175 -1.0787 -1.8542
  659MOL0     H88915   5.766   8.326   0.459 -1.1903  2.4994  2.1921
  659MOL0     H88916   6.096   8.421   0.643  2.1927  1.6734 -0.9836
  659MOL0     H88917   6.203   8.651   0.667 -1.6222 -2.6318 -0.9082
  659MOL0     H88918   6.124   8.801   0.704  2.5278 -0.4431 -0.1362
  659MOL0     H88919   6.233   8.712   0.905 -0.2854  0.7391  0.6378
  659MOL0     H88920   6.156   8.558   0.875 -1.8973 -0.2555 -0.1096
  659MOL0     H88921   6.044   8.634   1.054 -3.1650  2.6765  0.6607
  659MOL0     H88922   5.923   8.670   0.933  0.0433 -2.4697 -1.5919
  659MOL0     H88923   6.115   8.869   1.070 -1.2540 -1.1506  2.1164
  659MOL0     H88924   5.937   8.841   1.101 -0.7952 -5.0271  0.6280
  659MOL0     H88925   5.948   9.054   0.709 -0.5165 -1.8202  0.5100
  659MOL0     H88926   5.872   9.220   0.605  3.6089 -2.4315 -0.6161
  659MOL0     H88927   5.844   9.388   0.671  0.4798  0.3658 -0.2513
  659MOL0     H88928   6.000   9.342   0.603  0.5584 -1.1136  2.2210
  659MOL0     H88929   6.113   9.759   0.844  1.4494  1.7102  0.1819
  659MOL0     H88930   6.069   9.984   0.912 -2.9263 -0.4112 -2.0759
  659MOL0     H88931   5.796  10.005   1.212 -0.1068 -1.1748 -3.0588
  659MOL0     H88932   5.880  10.167   1.260  1.0016  0.8650 -1.1642
  659MOL0     H88933   5.813  10.282   1.087 -4.0990  0.7187  0.7658
  659MOL0     H88934   5.832  10.154   0.965  1.6261  1.1453  0.1737
  659MOL0     H88935   5.580  10.189   1.141 -4.2349  1.7041 -1.3801
  659MOL0     H88936   5.612  10.067   1.018  1.1636  0.7380  0.0026
  659MOL0     H88937   5.656  10.367   0.951  1.1591 -0.9629 -1.8176
  659MOL0     H88938   5.650  10.235   0.845  2.3624 -0.7406  1.6340
  659MOL0     H88939   5.403  10.319   1.025  0.0725 -0.7339  0.2830
  659MOL0     H88940   5.403  10.190   0.913 -0.6804 -1.3803  3.1372
  659MOL0     H88941   5.282  10.372   0.808 -0.1394 -2.9722  0.0179
  659MOL0     H88942   5.399  10.484   0.862 -0.4484 -0.6868  4.0832
  659MOL0     H88943   5.494  10.269   0.687 -2.6545  0.5084 -1.0382
  659MOL0     H88944   5.579  10.430   0.700 -1.1358  1.9410 -0.0953
  659MOL0     H88945   5.321  10.381   0.551 -0.6022 -0.6714 -0.9244
  659MOL0     H88946   5.475  10.421   0.475  1.2875  2.2383 -0.6884
  659MOL0     H88947   5.968   9.841   1.307 -2.9049 -1.7391 -1.1760
  659MOL0     H88948   5.983   9.616   1.244 -3.0088 -0.8276 -1.0626
  659MOL0     H88949   6.071   9.294   1.115  0.2638  0.3698 -0.3007
  659MOL0     H88950   6.075   9.069   1.116  0.7588  1.7716  0.5825
  659MOL0     H88951   6.735   8.266   0.630  0.7992 -1.7089 -0.2413
  659MOL0     H88952   6.910   8.428   0.748  5.1757 -0.6493 -1.4073
  659MOL0     H88953   7.375   8.631   0.796  1.2483  0.8561 -0.2049
  659MOL0     H88954   7.474   8.781   0.927  0.5400  0.0046 -1.9238
  659MOL0     H88955   7.447   9.031   1.167 -2.5763 -2.2956 -1.0078
  659MOL0     H88956   7.527   8.943   1.058  0.1986  0.2970  2.1590
  659MOL0     H88957   7.607   9.141   0.944  1.6979  0.6518  1.2441
  659MOL0     H88958   7.640   9.124   1.126 -0.2996 -0.2841  1.4716
  659MOL0     H88959   7.467   9.278   1.190 -0.4937  1.2467  0.5301
  659MOL0     H88960   7.405   9.293   1.022 -1.0620 -1.0779  1.3871
  659MOL0     H88961   7.548   9.490   1.098 -0.0043 -0.2447  0.5260
  659MOL0     H88962   7.570   9.427   0.945  1.6797  2.3455  0.2558
  659MOL0     H88963   7.927   9.364   1.161  0.1662  0.4491 -0.8428
  659MOL0     H88964   7.142   9.063   0.859 -0.0933  1.0265 -2.6234
  659MOL0     H88965   7.031   8.890   0.718 -0.0180 -1.8582  1.4608
  660MOL0     O88966   4.661   9.697   6.508 -0.3232 -0.2436 -0.4197
  660MOL0     C88967   4.695   9.715   6.626 -0.4243  0.6377  0.0012
  660MOL0     O88968   4.631   9.671   6.741  0.8646 -0.0685 -0.2382
  660MOL0     C88969   4.516   9.594   6.717  0.0216  0.5399 -0.1432
  660MOL0     C88970   4.386   9.637   6.759 -0.0073 -0.0422 -0.3454
  660MOL0     C88971   4.281   9.542   6.755 -0.7699  0.2998 -0.0430
  660MOL0     C88972   4.296   9.422   6.683  0.4181  0.3199 -0.2725
  660MOL0     O88973   4.187   9.348   6.654  0.1828 -0.3430  0.5677
  660MOL0     C88974   4.183   9.227   6.725  0.0437  0.2828  0.1966
  660MOL0     C88975   4.081   9.122   6.696 -0.0889  0.0956 -0.1793
  660MOL0     C88976   3.935   9.170   6.718 -0.4901  0.5150 -0.6651
  660MOL0     C88977   3.919   9.221   6.862 -0.1191 -0.3556  1.1648
  660MOL0     C88978   3.778   9.279   6.886 -1.1327  0.7736 -0.1791
  660MOL0     C88979   3.749   9.406   6.810 -0.0355  0.3335  0.5149
  660MOL0     C88980   3.737   9.528   6.904 -0.4654  0.2566  0.3688
  660MOL0     C88981   3.683   9.638   6.808  0.1651 -0.5022  0.3863
  660MOL0     N88982   3.546   9.613   6.747  0.2803 -1.0846  0.3769
  660MOL0     C88983   3.512   9.661   6.623 -0.2677 -0.4115  0.0229
  660MOL0     C88984   3.376   9.654   6.616  0.1205  0.2154  0.4602
  660MOL0     C88985   3.283   9.661   6.497 -0.0593  0.4129 -0.2955
  660MOL0     C88986   3.349   9.650   6.355 -0.5285 -0.1066 -0.1968
  660MOL0     C88987   3.252   9.718   6.256  0.6556  0.6056 -0.5911
  660MOL0     C88988   3.279   9.680   6.115 -0.1756 -0.5924  0.8524
  660MOL0     O88989   3.192   9.760   6.030  0.1587 -0.9707  0.0437
  660MOL0     C88990   3.248   9.873   5.980 -0.3388 -0.8338  0.5516
  660MOL0     C88991   3.366   9.886   5.901  0.6617 -0.3037  0.5428
  660MOL0     C88992   3.422  10.012   5.871 -0.0735 -0.4569 -0.5622
  660MOL0     C88993   3.548  10.003   5.789 -0.2258 -0.1159 -0.3998
  660MOL0     C88994   3.362  10.133   5.901 -0.1168 -1.0176 -0.3380
  660MOL0     C88995   3.395  10.271   5.842  0.3360 -0.3425 -0.0350
  660MOL0     O88996   3.459  10.275   5.727  0.2478 -0.2753  0.2909
  660MOL0     C88997   3.506  10.391   5.666 -1.1385  0.5825 -0.3370
  660MOL0     C88998   3.644  10.427   5.672 -0.0908 -0.0281 -1.0622
  660MOL0     C88999   3.698  10.534   5.617 -0.3242  0.5327 -0.1953
  660MOL0     C89000   3.619  10.607   5.535  0.0666  0.1035  0.5006
  660MOL0     O89001   3.680  10.706   5.472 -0.1935  0.4010 -0.0529
  660MOL0     C89002   3.754  10.675   5.357 -0.8489  0.4193 -0.6030
  660MOL0     C89003   3.764  10.816   5.288  0.0534 -0.5855 -0.3870
  660MOL0     C89004   3.620  10.879   5.266 -0.4863  0.4823  0.1970
  660MOL0     C89005   3.599  11.016   5.328 -0.1262 -0.2488 -0.2867
  660MOL0     C89006   3.464  11.079   5.273  0.0135 -0.7100 -0.7229
  660MOL0     C89007   3.392  11.140   5.400 -0.2179 -0.3942 -0.7391
  660MOL0     C89008   3.249  11.194   5.353  0.2353  0.6086 -0.8244
  660MOL0     C89009   3.144  11.178   5.462 -0.1109 -0.0584 -1.5171
  660MOL0    Cl89010   3.206  11.280   5.606 -0.3430  0.2019 -0.3605
  660MOL0     C89011   3.477  10.579   5.522  0.3926  0.4434 -0.6269
  660MOL0     C89012   3.424  10.465   5.586  0.3528 -0.6635 -0.0689
  660MOL0     O89013   3.375  10.374   5.911  0.2728  0.3953 -0.8220
  660MOL0     C89014   3.241  10.122   5.974  0.0873  0.2322 -0.8347
  660MOL0     C89015   3.184   9.997   6.013  0.2652  0.2626  0.2903
  660MOL0     N89016   3.335   9.602   6.736  0.1376 -0.2756  0.0274
  660MOL0     N89017   3.435   9.581   6.818  0.6693 -1.4182 -1.0115
  660MOL0     C89018   4.423   9.383   6.648 -0.3466  1.1167  0.8701
  660MOL0     C89019   4.529   9.463   6.663 -0.6136 -0.0900 -0.9962
  660MOL0     C89020   4.820   9.790   6.648 -0.1338  0.0637 -0.0316
  660MOL0     C89021   4.843   9.838   6.776 -0.9597  0.0877  0.5203
  660MOL0     C89022   4.967   9.904   6.803 -0.1793 -0.0036  0.2853
  660MOL0     C89023   5.058   9.931   6.696  0.6038 -0.2600 -0.1880
  660MOL0     O89024   5.167  10.009   6.724 -0.1195  0.3228 -0.0359
  660MOL0     C89025   5.256  10.059   6.625 -0.1037  0.3810  0.3331
  660MOL0     C89026   5.343   9.939   6.576  0.2506 -0.9740  0.2705
  660MOL0     C89027   5.438   9.891   6.690  0.5420  0.4159  0.4752
  660MOL0     C89028   5.537  10.000   6.722 -0.3054 -0.7196 -1.3127
  660MOL0     C89029   5.618  10.022   6.600  1.0727  0.2976 -0.3690
  660MOL0     C89030   5.695  10.037   6.507  0.6280  0.7410 -0.3542
  660MOL0     C89031   5.026   9.884   6.568  0.6598 -0.2432 -0.3030
  660MOL0     C89032   4.902   9.812   6.537 -0.3302 -0.2292 -0.2185
  660MOL0     H89033   4.368   9.729   6.815 -0.2460 -0.7313  0.7319
  660MOL0     H89034   4.184   9.566   6.796  0.0230  0.6970  1.6998
  660MOL0     H89035   4.279   9.176   6.713 -0.5256 -0.9752  0.8121
  660MOL0     H89036   4.170   9.260   6.829 -2.2440 -2.2908  0.8598
  660MOL0     H89037   4.095   9.080   6.596 -0.9826  2.0256 -1.1705
  660MOL0     H89038   4.118   9.040   6.757  1.7450 -0.6110 -2.1193
  660MOL0     H89039   3.897   9.251   6.654 -1.1536 -0.0941 -1.0558
  660MOL0     H89040   3.873   9.082   6.697 -0.6123  0.6422 -0.8354
  660MOL0     H89041   3.953   9.151   6.939  1.0622 -0.3476  0.6663
  660MOL0     H89042   3.989   9.303   6.880  1.2844 -1.2492 -0.0675
  660MOL0     H89043   3.707   9.199   6.862  1.9542 -3.2524  2.5873
  660MOL0     H89044   3.762   9.297   6.993 -2.2522 -2.0557  0.2280
  660MOL0     H89045   3.825   9.422   6.733  0.7717 -2.2593  0.6570
  660MOL0     H89046   3.658   9.382   6.754  1.2027 -0.8571 -1.1110
  660MOL0     H89047   3.662   9.501   6.979  0.0888 -1.6467  0.2984
  660MOL0     H89048   3.821   9.555   6.970 -1.1959  0.9776  1.0130
  660MOL0     H89049   3.759   9.649   6.730  0.8841 -0.2209  1.1165
  660MOL0     H89050   3.674   9.735   6.858  0.7713  1.0421 -2.2889
  660MOL0     H89051   3.578   9.692   6.543  1.1166 -1.7985  0.5641
  660MOL0     H89052   3.208   9.583   6.512  3.2102 -2.5746  2.0885
  660MOL0     H89053   3.243   9.762   6.512 -0.3690 -0.1044  3.5798
  660MOL0     H89054   3.371   9.547   6.327  1.8022 -0.3068  2.0412
  660MOL0     H89055   3.440   9.710   6.343  0.6846 -1.9342 -0.5371
  660MOL0     H89056   3.260   9.827   6.256  0.2510  0.7486 -3.8128
  660MOL0     H89057   3.149   9.690   6.277  0.0736  1.7236 -1.7769
  660MOL0     H89058   3.266   9.572   6.107 -0.7758 -0.5781  1.4885
  660MOL0     H89059   3.384   9.701   6.094  0.3046 -2.2906  1.4357
  660MOL0     H89060   3.418   9.793   5.880 -0.9815 -0.8380 -1.4656
  660MOL0     H89061   3.609  10.093   5.798  0.0368  0.0345 -2.8886
  660MOL0     H89062   3.614   9.934   5.844 -1.9775  1.1933  3.7505
  660MOL0     H89063   3.525   9.983   5.684  2.1423 -0.1067 -0.9826
  660MOL0     H89064   3.705  10.368   5.740 -0.2199  0.4016 -0.5652
  660MOL0     H89065   3.804  10.551   5.635 -0.1693  2.5677 -2.5293
  660MOL0     H89066   3.855  10.652   5.392 -0.0798  0.4950 -2.6592
  660MOL0     H89067   3.713  10.593   5.297  2.0818 -0.7084 -1.2284
  660MOL0     H89068   3.822  10.894   5.338  0.6102 -0.2839 -1.4635
  660MOL0     H89069   3.827  10.803   5.200  0.1996 -1.2545 -0.1891
  660MOL0     H89070   3.539  10.814   5.302  0.3174  0.7003  2.6121
  660MOL0     H89071   3.614  10.879   5.157  4.5016 -0.1641 -0.3164
  660MOL0     H89072   3.596  10.993   5.435  0.0006 -5.7510 -1.2027
  660MOL0     H89073   3.685  11.081   5.309 -0.8206  2.1320  3.5360
  660MOL0     H89074   3.409  11.002   5.218 -0.9565  0.8069 -2.0064
  660MOL0     H89075   3.492  11.159   5.203 -0.9283 -1.5606 -2.1097
  660MOL0     H89076   3.379  11.072   5.484 -1.0003  0.2655 -0.3117
  660MOL0     H89077   3.451  11.225   5.435 -2.1276  1.6474 -2.2084
  660MOL0     H89078   3.204  11.140   5.269  1.2497 -0.7847 -0.5166
  660MOL0     H89079   3.254  11.300   5.328  1.3606  0.5149 -1.0651
  660MOL0     H89080   3.146  11.074   5.495 -1.1990  0.3353 -0.1349
  660MOL0     H89081   3.047  11.209   5.422  0.6257 -0.2547 -3.5552
  660MOL0     H89082   3.412  10.645   5.466 -0.2485  1.2716  1.0448
  660MOL0     H89083   3.318  10.440   5.581  0.0418  0.3192  1.1479
  660MOL0     H89084   3.191  10.216   5.993 -2.8376 -1.6666  1.8521
  660MOL0     H89085   3.102   9.983   6.083 -0.4387 -0.0540 -0.5827
  660MOL0     H89086   4.437   9.282   6.613 -3.1117  0.6361  0.8949
  660MOL0     H89087   4.630   9.426   6.647  1.4538  3.9767  1.0621
  660MOL0     H89088   4.774   9.830   6.860 -0.8658  3.0883  0.9919
  660MOL0     H89089   4.989   9.950   6.898 -1.5916  0.0567  0.6046
  660MOL0     H89090   5.196  10.101   6.544 -1.7468 -0.3882  1.1002
  660MOL0     H89091   5.302  10.139   6.683  0.3770  3.3146 -3.6680
  660MOL0     H89092   5.404   9.976   6.493 -0.6952 -0.5547 -0.2568
  660MOL0     H89093   5.279   9.862   6.531 -0.1585  1.2740 -3.4876
  660MOL0     H89094   5.493   9.810   6.642  0.0477 -1.1287  2.3779
  660MOL0     H89095   5.384   9.854   6.777 -0.9409  1.8246  0.2049
  660MOL0     H89096   5.609   9.978   6.801 -0.8321 -0.7311 -0.8316
  660MOL0     H89097   5.491  10.095   6.751  3.3674  1.7173 -2.6527
  660MOL0     H89098   5.776  10.038   6.436 -0.8381 -4.7188 -2.5625
  660MOL0     H89099   5.086   9.910   6.482  1.1201 -1.4096 -0.3445
  660MOL0     H89100   4.881   9.774   6.437 -0.2533 -0.4536 -0.1521
  661MOL0     O89101   3.937  10.404   5.921 -0.1292 -0.1083  0.4244
  661MOL0     C89102   3.949  10.305   5.997  0.7310 -0.3573  0.2593
  661MOL0     O89103   3.897  10.298   6.124  0.0159  0.5850 -0.2772
  661MOL0     C89104   3.807  10.394   6.171  0.7488  0.5225  0.6485
  661MOL0     C89105   3.798  10.384   6.302  0.2927 -0.2246  0.4198
  661MOL0     C89106   3.700  10.467   6.369 -0.3411 -0.0545 -0.1210
  661MOL0     C89107   3.608  10.544   6.302 -0.3215  0.5485 -0.8229
  661MOL0     O89108   3.518  10.620   6.361 -0.8041  0.4915 -0.1370
  661MOL0     C89109   3.538  10.675   6.490  0.2280  0.0750 -0.4442
  661MOL0     C89110   3.411  10.733   6.541  0.2385  1.3946 -0.6185
  661MOL0     C89111   3.285  10.641   6.524 -0.1014  0.5672 -0.4250
  661MOL0     C89112   3.280  10.510   6.612 -0.0027  0.4459 -0.8258
  661MOL0     C89113   3.268  10.560   6.752 -0.3440 -0.4850 -0.2455
  661MOL0     C89114   3.226  10.454   6.863  0.8132 -0.5061  0.4122
  661MOL0     C89115   3.200  10.507   7.004 -0.1597  0.4383 -0.2241
  661MOL0     C89116   3.130  10.404   7.098  0.4095  0.1786  0.1643
  661MOL0     N89117   3.211  10.280   7.136 -0.2536  0.3594  0.6406
  661MOL0     C89118   3.172  10.144   7.140  0.1482  0.8864  1.0502
  661MOL0     C89119   3.273  10.075   7.193 -0.2940 -0.2149 -0.1034
  661MOL0     C89120   3.268   9.931   7.227  1.0029  0.5928 -0.2091
  661MOL0     C89121   3.391   9.856   7.166 -0.2503 -0.8323  0.0136
  661MOL0     C89122   3.395   9.704   7.189 -0.1925  0.9431 -0.0169
  661MOL0     C89123   3.532   9.646   7.222 -0.4468  0.1994 -0.4719
  661MOL0     O89124   3.528   9.499   7.230  0.3631 -0.6708 -0.5364
  661MOL0     C89125   3.641   9.434   7.274  0.9597 -0.5072  0.0040
  661MOL0     C89126   3.651   9.295   7.267  0.7644  0.0037  0.0988
  661MOL0     C89127   3.758   9.216   7.304 -0.7917 -0.6133  0.1644
  661MOL0     C89128   3.743   9.067   7.298  0.1719 -0.3894  0.5269
  661MOL0     C89129   3.873   9.278   7.362  0.1349  0.9073  0.1475
  661MOL0     C89130   3.987   9.211   7.422 -0.3912 -0.1089  0.0330
  661MOL0     O89131   4.067   9.278   7.506  0.3196  0.3921 -0.3090
  661MOL0     C89132   4.195   9.231   7.523  0.2150 -0.3364 -0.2078
  661MOL0     C89133   4.290   9.313   7.469 -0.6662 -0.4437  0.3660
  661MOL0     C89134   4.416   9.265   7.448  0.2373 -0.1611  0.4290
  661MOL0     C89135   4.456   9.144   7.504  0.1704 -0.5304  1.5979
  661MOL0     O89136   4.595   9.097   7.499  0.9041  0.1583  0.4002
  661MOL0     C89137   4.696   9.202   7.500 -0.1356 -0.1552  0.1358
  661MOL0     C89138   4.831   9.148   7.537 -0.7304  0.0662  0.6250
  661MOL0     C89139   4.836   9.051   7.661  0.6455  0.0360 -0.3463
  661MOL0     C89140   4.795   9.121   7.788  0.0599  0.1391  0.6163
  661MOL0     C89141   4.774   9.031   7.907  1.0884  0.9408  0.2816
  661MOL0     C89142   4.907   8.980   7.960 -0.7653 -0.3579  0.0815
  661MOL0     C89143   4.900   8.850   8.038  0.0386  0.5905 -0.0491
  661MOL0     C89144   5.041   8.799   8.071  0.5597 -0.8915 -0.1679
  661MOL0    Cl89145   5.133   8.754   7.920 -0.0680  0.2677 -0.1826
  661MOL0     C89146   4.368   9.073   7.587 -0.6415  0.0965  0.8531
  661MOL0     C89147   4.233   9.107   7.581  0.1269 -0.1562 -0.2158
  661MOL0     O89148   4.004   9.098   7.385  0.4826  0.0953  0.4128
  661MOL0     C89149   3.865   9.423   7.366 -0.4172  0.0976 -0.8915
  661MOL0     C89150   3.753   9.492   7.327 -0.5184 -0.0793 -0.2186
  661MOL0     N89151   3.377  10.159   7.226 -0.4506 -0.5911  0.0435
  661MOL0     N89152   3.341  10.286   7.184 -0.3228  0.6561  0.2526
  661MOL0     C89153   3.622  10.547   6.169  0.5662  0.1410  0.2776
  661MOL0     C89154   3.710  10.471   6.094  0.3796 -0.2581 -0.8264
  661MOL0     C89155   4.033  10.195   5.956 -0.4924 -0.1211 -0.6289
  661MOL0     C89156   4.116  10.204   5.850 -0.6072  0.9054 -0.8529
  661MOL0     C89157   4.206  10.111   5.811  0.4213 -0.0182  0.2828
  661MOL0     C89158   4.206   9.991   5.871 -0.7124 -0.6059 -0.8893
  661MOL0     O89159   4.280   9.887   5.834  0.1000  0.1422 -0.4861
  661MOL0     C89160   4.380   9.889   5.728 -0.4948  0.1437 -0.4615
  661MOL0     C89161   4.385   9.739   5.684  0.5162  0.0784 -0.3971
  661MOL0     C89162   4.242   9.711   5.619  0.6030 -0.1651  0.3547
  661MOL0     C89163   4.235   9.566   5.565 -0.5155  0.5687  0.0186
  661MOL0     C89164   4.346   9.528   5.472 -0.4007 -0.1778  0.0621
  661MOL0     C89165   4.429   9.488   5.391  0.2310 -0.2896  0.4054
  661MOL0     C89166   4.123   9.975   5.980  0.1853  0.2391 -0.2442
  661MOL0     C89167   4.042  10.073   6.020 -0.0035  0.1498 -0.1374
  661MOL0     H89168   3.860  10.312   6.355 -0.3161 -0.1466  1.2515
  661MOL0     H89169   3.716  10.467   6.476 -1.3683 -1.1261  0.0504
  661MOL0     H89170   3.581  10.599   6.557 -0.4979 -0.4125 -0.5183
  661MOL0     H89171   3.612  10.755   6.487  1.0634 -0.6670 -0.2133
  661MOL0     H89172   3.399  10.765   6.645  0.5522 -2.8142  0.9223
  661MOL0     H89173   3.389  10.811   6.467 -0.7905 -2.1708 -4.4674
  661MOL0     H89174   3.194  10.702   6.533 -2.5850 -2.7875 -1.0140
  661MOL0     H89175   3.283  10.615   6.418  4.4823  2.2364 -1.1353
  661MOL0     H89176   3.186  10.459   6.588 -1.2936  1.6625  1.3082
  661MOL0     H89177   3.359  10.438   6.590 -0.2466  0.5542 -2.1383
  661MOL0     H89178   3.362  10.604   6.784 -1.4759  1.8089  0.0914
  661MOL0     H89179   3.197  10.642   6.747 -0.0595 -0.2738 -0.9344
  661MOL0     H89180   3.130  10.414   6.832  0.7571 -1.6376  1.9472
  661MOL0     H89181   3.306  10.380   6.868  1.7982  0.5651  1.4092
  661MOL0     H89182   3.301  10.524   7.043 -0.1056 -0.7239  0.1563
  661MOL0     H89183   3.141  10.599   7.016 -1.7278 -0.5109 -0.3161
  661MOL0     H89184   3.039  10.375   7.046 -0.5838  0.9818  1.3818
  661MOL0     H89185   3.093  10.447   7.192  0.5778 -3.1508  1.8830
  661MOL0     H89186   3.073  10.109   7.113 -0.5288 -1.2689  5.3853
  661MOL0     H89187   3.273   9.929   7.336  0.1845  1.7283 -0.1262
  661MOL0     H89188   3.170   9.892   7.196  1.0516  1.1513 -1.0899
  661MOL0     H89189   3.482   9.895   7.212 -1.0959 -2.6337  3.5694
  661MOL0     H89190   3.394   9.874   7.059  2.1365  1.5104  0.3724
  661MOL0     H89191   3.361   9.651   7.100  0.9730 -0.2938  0.2485
  661MOL0     H89192   3.322   9.691   7.270  2.0037  0.3860  1.9855
  661MOL0     H89193   3.565   9.691   7.316 -0.0217  1.0615 -1.0209
  661MOL0     H89194   3.602   9.674   7.142  3.4052 -2.5402  1.5799
  661MOL0     H89195   3.571   9.251   7.209  1.0256 -1.3364  0.7050
  661MOL0     H89196   3.640   9.046   7.270  0.6419 -3.4429  0.7338
  661MOL0     H89197   3.812   9.029   7.222 -0.4193 -0.7110  0.1479
  661MOL0     H89198   3.765   9.028   7.398  3.9234 -1.5943 -0.6115
  661MOL0     H89199   4.261   9.410   7.431  0.3783 -0.1200  0.3785
  661MOL0     H89200   4.471   9.324   7.376 -0.6430  1.5846  1.1157
  661MOL0     H89201   4.711   9.248   7.401  0.1439  0.5147  0.4841
  661MOL0     H89202   4.664   9.286   7.561  2.0387  1.8282 -1.2805
  661MOL0     H89203   4.853   9.099   7.441 -5.1396  3.6657 -2.6654
  661MOL0     H89204   4.900   9.231   7.551  0.1737 -0.3487 -1.0394
  661MOL0     H89205   4.936   9.008   7.678  0.8532  0.6929  0.1228
  661MOL0     H89206   4.777   8.960   7.647  2.5036 -1.0340 -1.6688
  661MOL0     H89207   4.863   9.203   7.812 -0.2151  1.0527 -1.4732
  661MOL0     H89208   4.702   9.175   7.771  0.8316  1.2556 -0.1612
  661MOL0     H89209   4.709   8.946   7.885 -3.4726  4.2193 -0.4072
  661MOL0     H89210   4.725   9.092   7.984 -2.1567 -1.8307  0.6170
  661MOL0     H89211   4.984   8.980   7.882  1.1728 -1.5361  1.8664
  661MOL0     H89212   4.938   9.053   8.036 -0.3756 -1.5034  1.0533
  661MOL0     H89213   4.844   8.775   7.980  0.1357  0.5668 -0.1121
  661MOL0     H89214   4.837   8.855   8.127 -0.9992  0.0242 -0.7213
  661MOL0     H89215   5.039   8.716   8.142 -3.1161 -2.0343 -1.3979
  661MOL0     H89216   5.084   8.890   8.116 -2.3662  0.9591 -0.8188
  661MOL0     H89217   4.407   8.990   7.644 -0.7640  0.2875  1.2195
  661MOL0     H89218   4.151   9.045   7.617 -0.7016 -0.5512 -2.6293
  661MOL0     H89219   3.950   9.470   7.415  2.5212 -2.1805 -3.3849
  661MOL0     H89220   3.769   9.599   7.339  2.4928 -0.5433  0.9552
  661MOL0     H89221   3.551  10.613   6.119  1.7361 -0.8709 -2.9741
  661MOL0     H89222   3.712  10.475   5.986 -2.3813  1.8970 -0.9303
  661MOL0     H89223   4.115  10.295   5.790  0.5413  0.8987 -0.9049
  661MOL0     H89224   4.278  10.119   5.730 -2.9088 -1.3278 -3.0669
  661MOL0     H89225   4.362   9.964   5.650  1.1776 -1.1911 -2.2122
  661MOL0     H89226   4.475   9.912   5.777 -1.7932  1.8850  1.4274
  661MOL0     H89227   4.402   9.670   5.766 -1.1525 -1.1163 -1.0069
  661MOL0     H89228   4.461   9.730   5.605 -0.6712  0.1262 -1.5909
  661MOL0     H89229   4.220   9.780   5.537 -0.7802  1.7629  2.2270
  661MOL0     H89230   4.164   9.719   5.695  1.5063 -1.8022  1.5157
  661MOL0     H89231   4.140   9.555   5.514 -0.7277 -0.6379  0.6162
  661MOL0     H89232   4.239   9.488   5.642 -0.2996  0.7760  0.2220
  661MOL0     H89233   4.493   9.472   5.307 -2.0128  1.6944 -1.8765
  661MOL0     H89234   4.125   9.887   6.044 -2.3816 -0.3695 -0.8630
  661MOL0     H89235   3.987  10.070   6.114 -1.2761 -0.5877 -0.8673
  662MOL0     O89236   6.776   1.937   1.035  0.1056  0.1526 -1.0079
  662MOL0     C89237   6.803   2.027   0.961  1.0473 -1.1998  0.3404
  662MOL0     O89238   6.907   2.123   0.983 -0.2515  0.4831  0.5419
  662MOL0     C89239   6.976   2.114   1.105  0.5652 -0.0409  0.1668
  662MOL0     C89240   6.918   2.177   1.222  0.0899 -1.4859  0.4321
  662MOL0     C89241   6.978   2.177   1.345 -0.4767  0.2164 -0.0213
  662MOL0     C89242   7.110   2.128   1.349  0.5822  1.3705  0.3021
  662MOL0     O89243   7.177   2.140   1.469 -0.8373  0.3870 -0.2781
  662MOL0     C89244   7.316   2.144   1.471  0.0081  0.0348 -1.0299
  662MOL0     C89245   7.368   2.246   1.574 -0.2405  0.2307  0.1571
  662MOL0     C89246   7.357   2.185   1.716 -0.2744  0.1014 -0.5677
  662MOL0     C89247   7.365   2.297   1.823  0.4140  0.1739 -0.3346
  662MOL0     C89248   7.439   2.269   1.952 -0.1211  0.5406  0.2306
  662MOL0     C89249   7.421   2.392   2.040 -0.3766 -0.3897  0.5736
  662MOL0     C89250   7.513   2.400   2.161  0.0747  0.4913  0.3526
  662MOL0     C89251   7.461   2.499   2.267 -0.0004 -0.5887  0.6009
  662MOL0     N89252   7.419   2.631   2.221  0.3620  0.1850 -0.4955
  662MOL0     C89253   7.300   2.667   2.170 -0.2066 -0.8379 -0.0612
  662MOL0     C89254   7.315   2.801   2.132 -1.2329  0.1768  0.6759
  662MOL0     C89255   7.235   2.898   2.054 -0.1923 -0.8755 -0.3386
  662MOL0     C89256   7.180   3.007   2.143 -1.2621  0.3756 -0.1001
  662MOL0     C89257   7.055   3.086   2.095  0.6319  0.3391 -1.1476
  662MOL0     C89258   6.969   3.121   2.216 -0.4337 -0.0608 -0.2717
  662MOL0     O89259   6.827   3.155   2.190 -0.7766 -0.5714  0.0284
  662MOL0     C89260   6.799   3.295   2.181  0.3229  0.0494  0.1340
  662MOL0     C89261   6.677   3.323   2.224 -0.9974 -0.6936  0.0780
  662MOL0     C89262   6.615   3.447   2.195  0.6950  0.3979 -0.3558
  662MOL0     C89263   6.472   3.471   2.231 -1.0146  0.5819 -0.4893
  662MOL0     C89264   6.688   3.547   2.123  0.4259  0.4243 -0.1860
  662MOL0     C89265   6.631   3.678   2.087 -0.3333  0.0763 -1.1701
  662MOL0     O89266   6.719   3.783   2.129  0.7520 -0.1585 -0.7849
  662MOL0     C89267   6.671   3.911   2.091  0.3317  0.5745  0.3770
  662MOL0     C89268   6.613   3.993   2.191 -1.0615 -0.6781  0.7676
  662MOL0     C89269   6.570   4.120   2.156  0.0542 -0.4988  1.1065
  662MOL0     C89270   6.557   4.164   2.028 -0.4433 -0.2898 -0.2298
  662MOL0     O89271   6.498   4.293   2.022 -0.1779 -0.6151 -0.8995
  662MOL0     C89272   6.434   4.332   1.895  0.8622  0.7679 -0.8291
  662MOL0     C89273   6.305   4.240   1.881 -0.9399 -0.7811  0.6890
  662MOL0     C89274   6.192   4.303   1.792  0.3177 -0.0690 -1.7519
  662MOL0     C89275   6.129   4.429   1.829  0.9148 -0.2465 -0.5069
  662MOL0     C89276   6.048   4.497   1.715 -0.0977  0.7825  0.0440
  662MOL0     C89277   5.967   4.401   1.619 -0.2466  0.1913  0.1166
  662MOL0     C89278   5.863   4.340   1.707 -0.3170 -0.2327  0.4153
  662MOL0     C89279   5.807   4.214   1.639  0.6198  0.2045 -0.5776
  662MOL0    Cl89280   5.700   4.266   1.508 -0.4427 -0.1548 -0.2402
  662MOL0     C89281   6.599   4.081   1.919  0.4191  0.5727  0.2219
  662MOL0     C89282   6.666   3.960   1.954 -0.2161 -0.4192  0.6180
  662MOL0     O89283   6.516   3.693   2.055  0.0638 -0.4793 -0.0199
  662MOL0     C89284   6.820   3.516   2.093  0.6792  0.1339 -0.2891
  662MOL0     C89285   6.874   3.390   2.121 -0.4877 -0.5007 -0.4075
  662MOL0     N89286   7.439   2.840   2.170  1.5875  0.0412  0.7980
  662MOL0     N89287   7.505   2.737   2.210 -0.5791 -0.9353 -0.3428
  662MOL0     C89288   7.160   2.057   1.230 -0.9546 -0.3538 -0.0872
  662MOL0     C89289   7.090   2.038   1.114  0.0269  0.8309  1.1265
  662MOL0     C89290   6.748   2.032   0.823 -1.2934  0.1694 -0.6531
  662MOL0     C89291   6.638   1.953   0.796 -1.0942  0.1071  0.0039
  662MOL0     C89292   6.585   1.959   0.675 -0.1808  0.4119 -0.2105
  662MOL0     C89293   6.622   2.048   0.571 -0.5729  0.4744 -0.8902
  662MOL0     O89294   6.548   2.035   0.454 -0.4405 -0.3165 -0.2588
  662MOL0     C89295   6.537   2.141   0.363  0.0101  0.6104 -0.1691
  662MOL0     C89296   6.461   2.261   0.419  0.0973  0.1449  0.2228
  662MOL0     C89297   6.426   2.356   0.299 -0.3261 -1.2910 -0.1773
  662MOL0     C89298   6.309   2.456   0.324 -0.1488  0.1713  0.5766
  662MOL0     C89299   6.320   2.530   0.455  0.2737  0.4847 -0.2396
  662MOL0     C89300   6.317   2.605   0.553  0.1048  0.9182  0.4533
  662MOL0     C89301   6.735   2.127   0.594 -0.1011 -0.4169  0.4220
  662MOL0     C89302   6.801   2.113   0.723 -0.6302 -1.3795  0.2466
  662MOL0     H89303   6.819   2.221   1.218 -0.0828 -1.9000 -2.6322
  662MOL0     H89304   6.955   2.222   1.441 -1.0938  0.3090 -0.2103
  662MOL0     H89305   7.355   2.045   1.495 -0.1449  0.1398 -0.3130
  662MOL0     H89306   7.356   2.184   1.377 -0.4839  1.8425 -0.5089
  662MOL0     H89307   7.473   2.247   1.545 -0.7764 -1.8861 -2.1460
  662MOL0     H89308   7.325   2.345   1.556  1.2527  1.3247  2.1394
  662MOL0     H89309   7.272   2.118   1.733  1.7161 -2.5301 -0.4033
  662MOL0     H89310   7.446   2.122   1.726 -0.8968 -0.4275  2.9060
  662MOL0     H89311   7.408   2.383   1.771 -0.0398  0.7233  0.1810
  662MOL0     H89312   7.263   2.325   1.851  0.7099  0.9881 -0.0365
  662MOL0     H89313   7.388   2.182   1.993  1.7676 -1.8532 -2.1432
  662MOL0     H89314   7.543   2.246   1.927 -0.5854 -1.5699  0.0639
  662MOL0     H89315   7.443   2.477   1.975 -1.8964  0.8428  1.6249
  662MOL0     H89316   7.318   2.415   2.067  0.1342  2.8954  0.1524
  662MOL0     H89317   7.524   2.304   2.214  1.4391  0.6293  0.3683
  662MOL0     H89318   7.617   2.416   2.129  0.7853 -2.0087  1.1602
  662MOL0     H89319   7.544   2.524   2.333  1.2361 -0.2962 -1.0174
  662MOL0     H89320   7.368   2.456   2.305 -0.1899 -1.8448 -1.1173
  662MOL0     H89321   7.216   2.604   2.143 -0.1408 -1.2490  0.6505
  662MOL0     H89322   7.287   2.944   1.969 -1.2147 -0.7763 -0.9219
  662MOL0     H89323   7.152   2.844   2.009 -1.9753  1.6009 -0.2245
  662MOL0     H89324   7.275   3.060   2.150 -1.0115 -0.1825  0.9330
  662MOL0     H89325   7.177   2.983   2.250  0.7032 -2.4959 -0.5752
  662MOL0     H89326   6.987   3.024   2.037 -1.4591  1.2324  0.2329
  662MOL0     H89327   7.082   3.170   2.029  1.7492 -2.1274 -4.0474
  662MOL0     H89328   7.020   3.199   2.274  0.0727  0.3001 -1.1861
  662MOL0     H89329   6.961   3.033   2.280  0.6197  0.5524  0.7532
  662MOL0     H89330   6.631   3.241   2.278  0.5955 -1.5452  0.2089
  662MOL0     H89331   6.473   3.561   2.293  1.9385 -0.1471  0.7026
  662MOL0     H89332   6.411   3.477   2.141  0.9717 -4.1177 -2.5193
  662MOL0     H89333   6.431   3.392   2.295 -1.8963  0.8835 -0.6825
  662MOL0     H89334   6.611   3.948   2.290  1.0317  1.3067  1.7869
  662MOL0     H89335   6.539   4.201   2.221  0.4445  1.7481 -1.3018
  662MOL0     H89336   6.401   4.436   1.907  0.3976  0.5353 -0.0557
  662MOL0     H89337   6.508   4.326   1.814  1.3739  0.1809 -0.3297
  662MOL0     H89338   6.338   4.144   1.840  2.5325  0.2545  0.8004
  662MOL0     H89339   6.264   4.215   1.979  1.1476 -4.1562  0.8688
  662MOL0     H89340   6.107   4.236   1.805 -1.9270  3.1495  3.5556
  662MOL0     H89341   6.228   4.312   1.689 -0.8530 -1.4439 -2.3167
  662MOL0     H89342   6.073   4.413   1.922  2.5749 -0.4807  0.4936
  662MOL0     H89343   6.204   4.501   1.864  1.9153 -2.8194  3.2285
  662MOL0     H89344   6.110   4.551   1.643 -0.7353 -0.1576 -1.2460
  662MOL0     H89345   5.987   4.573   1.765  1.8350  0.2754  3.4972
  662MOL0     H89346   5.912   4.467   1.552  0.3527 -0.6114 -1.1990
  662MOL0     H89347   6.023   4.325   1.564 -1.4587  2.0284 -4.0145
  662MOL0     H89348   5.780   4.411   1.712  0.5344  1.0096 -1.7388
  662MOL0     H89349   5.893   4.322   1.811  0.2109  1.5608  0.6022
  662MOL0     H89350   5.737   4.172   1.712  2.5761  0.7860  1.7690
  662MOL0     H89351   5.884   4.143   1.609  3.8721  4.0449 -2.1175
  662MOL0     H89352   6.610   4.107   1.814  0.6124 -0.8948 -0.1354
  662MOL0     H89353   6.693   3.889   1.877  0.0620  0.3917 -0.0463
  662MOL0     H89354   6.882   3.590   2.043  0.2472 -0.1622 -1.2934
  662MOL0     H89355   6.967   3.361   2.072 -1.0391 -2.8636 -0.1468
  662MOL0     H89356   7.267   2.038   1.219 -0.1647  2.6279  1.2732
  662MOL0     H89357   7.128   1.982   1.029  4.6394 -0.8016  3.8855
  662MOL0     H89358   6.600   1.879   0.866 -1.4365  0.7325  0.4900
  662MOL0     H89359   6.501   1.890   0.668 -2.6917  2.9753  2.2777
  662MOL0     H89360   6.636   2.174   0.331 -0.3576 -1.2259 -3.6838
  662MOL0     H89361   6.486   2.106   0.273  0.6154 -2.7667  0.6424
  662MOL0     H89362   6.526   2.308   0.494 -1.5596  3.0506 -0.0138
  662MOL0     H89363   6.377   2.233   0.483 -0.4187  1.7196  0.2929
  662MOL0     H89364   6.387   2.305   0.210 -2.6790  0.2211 -0.0894
  662MOL0     H89365   6.512   2.414   0.263 -0.9472  0.4222  0.9941
  662MOL0     H89366   6.215   2.400   0.325  0.3586 -0.7114  0.3850
  662MOL0     H89367   6.313   2.524   0.238 -2.1755 -0.6817 -0.2506
  662MOL0     H89368   6.330   2.666   0.640  3.1154 -0.3672  1.0315
  662MOL0     H89369   6.776   2.206   0.532  0.2363 -0.5738  0.4385
  662MOL0     H89370   6.874   2.191   0.743  2.3196 -2.9136 -3.3670
  663MOL0     O89371  11.493  10.571   3.146 -0.5791  0.3481 -0.3908
  663MOL0     C89372  11.423  10.575   3.046 -1.3849  0.2358 -0.9336
  663MOL0     O89373  11.365  10.475   2.982  0.0707 -0.1788 -0.0765
  663MOL0     C89374  11.388  10.342   3.032 -0.2772 -0.8459 -0.7413
  663MOL0     C89375  11.510  10.287   3.007 -0.5749 -0.1860 -0.1325
  663MOL0     C89376  11.545  10.163   3.070 -0.5111 -0.2338  0.3550
  663MOL0     C89377  11.462  10.108   3.167 -0.2192 -0.0392 -0.3069
  663MOL0     O89378  11.502   9.996   3.240  0.2502  0.1739  0.2329
  663MOL0     C89379  11.483   9.998   3.389 -0.4639  0.1657 -0.0557
  663MOL0     C89380  11.562   9.884   3.458  0.1226 -0.4444 -0.3984
  663MOL0     C89381  11.507   9.885   3.600  0.0801 -0.7279 -0.2742
  663MOL0     C89382  11.584   9.786   3.681  0.0733 -0.3378 -0.1831
  663MOL0     C89383  11.520   9.776   3.830 -0.0123  0.0800  0.4868
  663MOL0     C89384  11.599   9.685   3.928  0.0863 -1.0384  0.2738
  663MOL0     C89385  11.621   9.539   3.902 -0.8522 -0.2271  0.1502
  663MOL0     C89386  11.735   9.509   3.805  0.4436 -0.5385 -0.7503
  663MOL0     N89387  11.766   9.368   3.779  0.3758 -0.8369  0.5310
  663MOL0     C89388  11.828   9.326   3.662  0.3929 -0.9351 -0.3106
  663MOL0     C89389  11.809   9.187   3.667  0.0058  0.2647 -0.2835
  663MOL0     C89390  11.846   9.088   3.564 -0.4137 -0.3505 -0.1737
  663MOL0     C89391  11.952   9.001   3.620  0.1135 -0.7695  0.3867
  663MOL0     C89392  12.076   9.082   3.644  0.2949 -0.0946 -0.3369
  663MOL0     C89393  12.156   8.993   3.735 -0.0290 -0.1804 -1.1129
  663MOL0     O89394  12.282   9.063   3.742 -1.7785 -0.3630 -0.0484
  663MOL0     C89395  12.352   9.052   3.858 -0.5679  0.1409 -0.0143
  663MOL0     C89396  12.339   9.157   3.949 -0.1844 -0.3325  1.0053
  663MOL0     C89397  12.404   9.154   4.073  0.0501 -1.5278 -0.1183
  663MOL0     C89398  12.374   9.266   4.173  0.2108  0.8816 -0.1523
  663MOL0     C89399  12.503   9.058   4.108 -0.1823  0.8840  1.4978
  663MOL0     C89400  12.600   9.055   4.226  0.3083  0.7544 -0.6581
  663MOL0     O89401  12.735   9.014   4.206 -0.2755 -0.0612  0.5576
  663MOL0     C89402  12.825   9.000   4.317 -0.2907  0.7272  0.0115
  663MOL0     C89403  12.954   8.957   4.279 -0.1810  0.3242  0.3915
  663MOL0     C89404  13.056   8.944   4.377 -0.0205 -0.3360  0.1045
  663MOL0     C89405  13.040   8.976   4.509 -0.4234 -0.7128  0.1681
  663MOL0     O89406  13.149   8.974   4.591  0.1802 -0.2717 -1.1104
  663MOL0     C89407  13.145   9.025   4.728 -0.3471 -0.4134  0.1096
  663MOL0     C89408  13.232   9.153   4.720  0.0559 -0.5805  0.2909
  663MOL0     C89409  13.309   9.176   4.854  0.5603 -0.1167 -0.0029
  663MOL0     C89410  13.274   9.089   4.975  0.3246 -0.3573  1.1395
  663MOL0     C89411  13.345   9.153   5.098  0.9658  0.4946  0.4392
  663MOL0     C89412  13.327   9.066   5.223 -0.7487  0.6141  0.0684
  663MOL0     C89413  13.448   9.108   5.307  0.8419 -0.0857  0.0674
  663MOL0     C89414  13.448   9.038   5.449  0.2814  0.3104 -0.4950
  663MOL0    Cl89415  13.304   9.071   5.542  0.4146 -0.2217 -0.3657
  663MOL0     C89416  12.909   9.016   4.553  1.1409  1.2720  1.3942
  663MOL0     C89417  12.802   9.023   4.453 -0.1819 -0.3594 -0.4362
  663MOL0     O89418  12.552   9.080   4.337 -0.1439 -0.5115  0.0635
  663MOL0     C89419  12.518   8.963   4.002 -0.9208  0.2384 -0.1282
  663MOL0     C89420  12.446   8.956   3.883  0.4391 -0.1099 -0.0457
  663MOL0     N89421  11.743   9.159   3.781 -0.6430 -1.1070 -0.0641
  663MOL0     N89422  11.706   9.270   3.850  0.2238  0.3052 -0.2049
  663MOL0     C89423  11.337  10.169   3.194 -0.4081 -0.4524  1.1467
  663MOL0     C89424  11.297  10.279   3.126  0.0123 -0.3241 -0.3434
  663MOL0     C89425  11.434  10.707   2.988  1.2381 -0.4355 -0.4642
  663MOL0     C89426  11.537  10.795   3.010 -0.3753 -0.0640 -1.3241
  663MOL0     C89427  11.529  10.928   2.951 -0.5426  0.4633 -0.0497
  663MOL0     C89428  11.425  10.976   2.876  0.5228  0.6402 -0.4576
  663MOL0     O89429  11.435  11.103   2.836 -0.3302 -0.4769  0.5305
  663MOL0     C89430  11.325  11.189   2.882  0.4305 -0.0114  0.1878
  663MOL0     C89431  11.336  11.215   3.039  0.2956 -0.0595 -0.1759
  663MOL0     C89432  11.464  11.298   3.079  0.4341  1.6434  0.0085
  663MOL0     C89433  11.456  11.345   3.223 -0.8692  0.1651 -0.2534
  663MOL0     C89434  11.502  11.474   3.240 -0.0510  0.1973 -0.3167
  663MOL0     C89435  11.540  11.580   3.274 -0.2102 -0.0602  1.7987
  663MOL0     C89436  11.316  10.893   2.862 -0.1979  0.6305  0.3403
  663MOL0     C89437  11.314  10.758   2.917 -0.9129  0.4000 -0.4043
  663MOL0     H89438  11.579  10.347   2.949  2.0226 -1.9332  0.9723
  663MOL0     H89439  11.638  10.113   3.046 -0.4355  0.7958 -1.7370
  663MOL0     H89440  11.518  10.093   3.430  0.8414 -0.2195 -0.2536
  663MOL0     H89441  11.376   9.985   3.409 -0.7787  0.1292 -1.6725
  663MOL0     H89442  11.543   9.789   3.408  3.2869 -0.0383 -2.6724
  663MOL0     H89443  11.671   9.892   3.446  0.0644  0.1127 -0.6151
  663MOL0     H89444  11.520   9.986   3.639  3.2254 -0.1366 -2.4838
  663MOL0     H89445  11.400   9.864   3.609 -0.6332  2.9384  2.1264
  663MOL0     H89446  11.572   9.690   3.630 -1.7107  0.0666 -0.5722
  663MOL0     H89447  11.692   9.802   3.684  0.5690 -3.2276  0.2806
  663MOL0     H89448  11.532   9.880   3.860  2.9485 -0.6628  2.3008
  663MOL0     H89449  11.416   9.743   3.823  0.2565 -0.6769 -0.1698
  663MOL0     H89450  11.695   9.728   3.960  0.9148  0.6381 -3.8558
  663MOL0     H89451  11.538   9.676   4.019  4.1159 -2.9545  3.1272
  663MOL0     H89452  11.650   9.487   3.994  0.3356 -0.3364 -0.2698
  663MOL0     H89453  11.522   9.504   3.870 -1.5166  2.5404 -1.1307
  663MOL0     H89454  11.830   9.545   3.846  0.9783  0.6215 -2.8943
  663MOL0     H89455  11.730   9.556   3.707 -0.0673 -0.6017 -0.7569
  663MOL0     H89456  11.891   9.381   3.593  0.4341 -0.1071  0.3664
  663MOL0     H89457  11.755   9.033   3.538 -0.7923 -0.2680  0.9487
  663MOL0     H89458  11.890   9.131   3.473 -2.1646  2.9268  0.4069
  663MOL0     H89459  11.976   8.921   3.550 -1.3541 -1.0694  0.1833
  663MOL0     H89460  11.907   8.957   3.710 -2.1892 -0.8039 -0.7145
  663MOL0     H89461  12.040   9.164   3.707 -1.1685 -0.6446 -0.4144
  663MOL0     H89462  12.125   9.129   3.558 -0.3664  2.6606  0.6927
  663MOL0     H89463  12.174   8.890   3.701  2.6301  0.2716 -1.2909
  663MOL0     H89464  12.117   8.983   3.837  0.4146  2.5146 -0.6211
  663MOL0     H89465  12.276   9.239   3.916 -0.1716 -0.9878 -0.7816
  663MOL0     H89466  12.462   9.323   4.205 -1.0597  1.5933  2.2606
  663MOL0     H89467  12.311   9.342   4.127  0.2641  1.5768  0.8934
  663MOL0     H89468  12.342   9.210   4.262  1.4835 -1.1372 -0.8829
  663MOL0     H89469  12.986   8.945   4.176 -2.6625 -3.1342 -0.1899
  663MOL0     H89470  13.153   8.910   4.342 -0.5898 -2.2123  0.2415
  663MOL0     H89471  13.046   9.041   4.772 -1.3258  1.2103 -2.4704
  663MOL0     H89472  13.196   8.942   4.779 -0.6848 -0.0460  1.0692
  663MOL0     H89473  13.288   9.164   4.627 -0.6170  0.4342 -0.0208
  663MOL0     H89474  13.160   9.236   4.712  2.0919  1.1989 -0.5035
  663MOL0     H89475  13.295   9.284   4.865 -2.0808 -0.3629 -0.2741
  663MOL0     H89476  13.416   9.157   4.840  0.2550 -3.9536  1.5452
  663MOL0     H89477  13.166   9.088   4.992 -0.3925  2.1163 -2.1294
  663MOL0     H89478  13.308   8.992   4.939 -0.9107  0.3353 -2.3422
  663MOL0     H89479  13.298   9.249   5.120 -0.5030  0.1785 -1.1200
  663MOL0     H89480  13.451   9.164   5.071  0.7982 -2.6615 -2.1454
  663MOL0     H89481  13.234   9.075   5.279  1.4599  1.3932  3.9743
  663MOL0     H89482  13.345   8.963   5.190  2.2960  1.4638 -1.3002
  663MOL0     H89483  13.449   9.216   5.323  0.7226 -0.2573  1.2915
  663MOL0     H89484  13.544   9.086   5.261  0.8250  0.3679 -0.1900
  663MOL0     H89485  13.537   9.072   5.503 -0.0790 -1.3646  1.2719
  663MOL0     H89486  13.457   8.930   5.434  0.2694  0.0487  1.1910
  663MOL0     H89487  12.883   9.048   4.653  0.1669  1.0027  1.2384
  663MOL0     H89488  12.708   9.046   4.503 -0.1513 -4.6415  2.1085
  663MOL0     H89489  12.594   8.885   4.001  1.7244  2.6048 -2.6483
  663MOL0     H89490  12.467   8.872   3.817 -0.9255 -2.2640  2.1153
  663MOL0     H89491  11.269  10.140   3.273 -1.8837  4.3230  1.9567
  663MOL0     H89492  11.200  10.325   3.140 -0.3655 -0.4933 -2.2164
  663MOL0     H89493  11.617  10.766   3.077  0.1224  1.4065 -1.2542
  663MOL0     H89494  11.614  10.989   2.981  1.2717 -1.2441 -1.4485
  663MOL0     H89495  11.345  11.284   2.832  1.6215 -0.3353  0.0250
  663MOL0     H89496  11.221  11.160   2.862  0.4441 -1.0278  1.4554
  663MOL0     H89497  11.315  11.120   3.090 -2.1563  0.7311  0.4122
  663MOL0     H89498  11.255  11.281   3.068  0.4951  0.1152 -0.0172
  663MOL0     H89499  11.471  11.384   3.012 -0.1578  1.9202  0.2957
  663MOL0     H89500  11.555  11.239   3.061 -0.2921  0.5311 -0.0902
  663MOL0     H89501  11.500  11.278   3.298 -1.8102 -1.9481 -1.5091
  663MOL0     H89502  11.351  11.359   3.251 -1.1618 -1.4688 -0.4714
  663MOL0     H89503  11.580  11.678   3.293  0.5854 -0.2105  0.9969
  663MOL0     H89504  11.230  10.939   2.815 -0.2919 -0.5918 -0.7816
  663MOL0     H89505  11.224  10.699   2.900  0.5741 -2.1564  0.1321
  664MOL0     O89506   4.848   6.626   5.299  0.4886 -0.0641 -0.0102
  664MOL0     C89507   4.830   6.506   5.257  0.0233 -0.0661  0.1149
  664MOL0     O89508   4.923   6.412   5.260  1.2307  0.0876 -0.2699
  664MOL0     C89509   5.053   6.430   5.303  0.3137  0.4050  0.1205
  664MOL0     C89510   5.125   6.318   5.347  1.5305  0.5638 -0.6018
  664MOL0     C89511   5.264   6.331   5.373  0.0551  0.1299  0.4162
  664MOL0     C89512   5.324   6.451   5.374 -0.8082 -0.0729  0.2470
  664MOL0     O89513   5.448   6.468   5.416  0.2568 -0.2088 -0.3199
  664MOL0     C89514   5.519   6.375   5.503 -0.3936  0.5399 -0.4749
  664MOL0     C89515   5.468   6.362   5.646  0.6902 -0.2879 -0.2043
  664MOL0     C89516   5.468   6.498   5.715 -0.1122  0.6662  0.0939
  664MOL0     C89517   5.612   6.544   5.750  0.7510 -0.7550  0.1454
  664MOL0     C89518   5.615   6.662   5.847 -0.1592  0.5513 -0.4920
  664MOL0     C89519   5.757   6.692   5.888 -0.3249  0.4727 -0.7015
  664MOL0     C89520   5.793   6.808   5.990 -0.3440  0.9212 -0.2452
  664MOL0     C89521   5.754   6.945   5.945 -0.6430  0.3333 -0.0924
  664MOL0     N89522   5.854   7.015   5.871  0.0963 -0.3327 -0.9159
  664MOL0     C89523   5.942   6.966   5.775  1.6136 -0.0366  0.0325
  664MOL0     C89524   6.035   7.058   5.767  0.0584  0.4923 -0.1619
  664MOL0     C89525   6.136   7.069   5.661  0.1316 -0.0282 -0.1089
  664MOL0     C89526   6.088   7.062   5.513 -0.0803 -0.0372  0.3733
  664MOL0     C89527   6.003   7.189   5.471 -0.2298  0.3305  0.6901
  664MOL0     C89528   5.967   7.177   5.324  1.2332  0.2619 -0.5844
  664MOL0     O89529   6.072   7.173   5.237  0.9157 -0.1347 -0.5168
  664MOL0     C89530   6.061   7.149   5.108 -0.1946 -0.2289 -0.2197
  664MOL0     C89531   5.950   7.089   5.049  0.0010 -0.3477 -0.2772
  664MOL0     C89532   5.942   7.086   4.906  0.6350 -1.6921 -0.8705
  664MOL0     C89533   5.818   7.041   4.830 -0.2227  0.5096 -1.3184
  664MOL0     C89534   6.050   7.136   4.829 -0.4458  0.6558 -0.1201
  664MOL0     C89535   6.065   7.144   4.683  0.1727  0.4045 -0.6111
  664MOL0     O89536   5.953   7.193   4.611  0.1687  0.0874 -0.2755
  664MOL0     C89537   5.954   7.200   4.473 -0.2726  0.9368  0.3220
  664MOL0     C89538   6.013   7.112   4.381  0.4579 -0.0102 -0.6739
  664MOL0     C89539   6.020   7.143   4.250  0.3917  0.2481  0.1604
  664MOL0     C89540   5.959   7.256   4.195 -0.5445 -0.4848 -0.6730
  664MOL0     O89541   5.953   7.266   4.060  0.6567  0.3961  0.1609
  664MOL0     C89542   6.000   7.388   4.009  0.8008 -0.6771 -0.9167
  664MOL0     C89543   6.044   7.371   3.872 -0.3277 -0.0100  0.3232
  664MOL0     C89544   6.158   7.273   3.867 -0.5942  0.7603  0.3258
  664MOL0     C89545   6.205   7.275   3.717 -1.1027 -0.2647  0.0746
  664MOL0     C89546   6.288   7.395   3.678  0.2999  0.2223  0.2361
  664MOL0     C89547   6.247   7.460   3.550  0.8964 -1.3610  1.4761
  664MOL0     C89548   6.327   7.399   3.433  0.4374  0.9016 -0.0766
  664MOL0     C89549   6.251   7.421   3.305 -0.8144  0.1760 -0.6285
  664MOL0    Cl89550   6.103   7.317   3.311 -0.2110  0.4415  0.0815
  664MOL0     C89551   5.906   7.345   4.287 -0.4766  0.0109  0.8401
  664MOL0     C89552   5.904   7.317   4.422 -0.5563  1.1655 -0.5403
  664MOL0     O89553   6.154   7.074   4.633  0.3151 -0.7673 -0.3190
  664MOL0     C89554   6.160   7.197   4.891  0.4539  0.1111 -0.0413
  664MOL0     C89555   6.159   7.212   5.030 -0.1921 -0.5195  0.8989
  664MOL0     N89556   6.007   7.169   5.849 -0.2455  0.8993 -0.4447
  664MOL0     N89557   5.893   7.147   5.897 -0.0860 -0.3881 -0.3053
  664MOL0     C89558   5.251   6.559   5.325  0.9477 -0.8556 -0.1996
  664MOL0     C89559   5.124   6.546   5.279 -0.1312 -0.6614 -0.6140
  664MOL0     C89560   4.699   6.457   5.212  0.2799 -0.1036  0.3072
  664MOL0     C89561   4.669   6.319   5.197 -0.3479  0.3387  0.5633
  664MOL0     C89562   4.547   6.280   5.141 -0.7643 -1.4490  0.2787
  664MOL0     C89563   4.456   6.371   5.096  0.2773  0.0521  0.1661
  664MOL0     O89564   4.354   6.318   5.029 -0.0661 -0.9674 -0.7205
  664MOL0     C89565   4.229   6.381   5.038 -0.2502  0.1697 -0.2968
  664MOL0     C89566   4.172   6.392   5.180  0.1545  0.5028 -1.1359
  664MOL0     C89567   4.167   6.261   5.262  0.0916  0.8965 -1.3796
  664MOL0     C89568   4.170   6.298   5.412  0.3314 -0.3827 -0.5830
  664MOL0     C89569   4.164   6.180   5.494  0.1990 -0.2318 -0.4077
  664MOL0     C89570   4.165   6.074   5.558 -0.0730  0.4028 -0.7068
  664MOL0     C89571   4.482   6.510   5.110 -0.1230 -0.2491 -0.2398
  664MOL0     C89572   4.597   6.543   5.180 -0.7020 -0.6424 -0.0598
  664MOL0     H89573   5.075   6.222   5.348  3.6832 -0.6161 -1.2086
  664MOL0     H89574   5.305   6.233   5.396 -0.6346 -0.0605  0.8701
  664MOL0     H89575   5.531   6.275   5.460 -0.2631 -0.5805  1.9924
  664MOL0     H89576   5.620   6.418   5.507 -0.3180  0.2933  1.8094
  664MOL0     H89577   5.365   6.324   5.642 -0.1782  1.8527  0.3500
  664MOL0     H89578   5.538   6.300   5.703 -0.5039 -1.5057 -0.0123
  664MOL0     H89579   5.407   6.558   5.647  1.9298  1.3838 -1.1856
  664MOL0     H89580   5.418   6.487   5.812  1.4545 -0.1550  0.8440
  664MOL0     H89581   5.664   6.456   5.790  0.2994 -1.2077 -0.2426
  664MOL0     H89582   5.668   6.579   5.663  0.3210  2.4741  1.0477
  664MOL0     H89583   5.564   6.752   5.813 -0.6726  1.3061  2.1083
  664MOL0     H89584   5.558   6.638   5.937 -2.6503 -1.1752 -2.3842
  664MOL0     H89585   5.805   6.600   5.921 -0.4411  1.3478  2.1287
  664MOL0     H89586   5.806   6.721   5.795 -0.4217  1.7013 -0.3765
  664MOL0     H89587   5.768   6.792   6.095 -2.0597  1.8819 -0.4617
  664MOL0     H89588   5.901   6.809   6.000 -0.5049  1.3447  1.6549
  664MOL0     H89589   5.723   7.006   6.030  0.1050 -0.0414  0.4599
  664MOL0     H89590   5.657   6.936   5.895  0.3171  1.4125 -2.2882
  664MOL0     H89591   5.931   6.873   5.719 -0.0505  0.5860 -0.7605
  664MOL0     H89592   6.187   7.164   5.679  2.0406 -1.2922  1.5866
  664MOL0     H89593   6.204   6.984   5.669  0.0855 -0.0093  0.5592
  664MOL0     H89594   6.028   6.972   5.496  1.0237 -0.3732 -2.1897
  664MOL0     H89595   6.174   7.064   5.446  3.5594 -2.2119  4.4571
  664MOL0     H89596   6.042   7.291   5.485 -1.1525  0.7292  0.4741
  664MOL0     H89597   5.907   7.182   5.524  0.3990  1.6343  2.0871
  664MOL0     H89598   5.907   7.262   5.290  3.6721  0.8087 -4.1385
  664MOL0     H89599   5.909   7.085   5.321  0.6585  0.5221  1.3448
  664MOL0     H89600   5.864   7.044   5.099  0.9500 -3.5035 -1.2400
  664MOL0     H89601   5.850   7.015   4.729 -0.9588  0.7500 -1.6243
  664MOL0     H89602   5.788   6.946   4.876  0.5999 -1.2017 -4.0366
  664MOL0     H89603   5.732   7.109   4.825 -0.1666  0.8165  0.9792
  664MOL0     H89604   6.076   7.033   4.421  0.5474  0.8907  1.0434
  664MOL0     H89605   6.082   7.087   4.180 -1.2759 -0.6558 -0.6668
  664MOL0     H89606   5.921   7.463   4.015 -0.1487 -1.7792  1.2737
  664MOL0     H89607   6.087   7.412   4.071  0.6177  3.5317 -1.9848
  664MOL0     H89608   5.957   7.330   3.820  0.1303  0.1368 -0.5776
  664MOL0     H89609   6.062   7.472   3.836 -0.6455 -0.9848 -2.8140
  664MOL0     H89610   6.128   7.170   3.887  1.0592  0.4237  1.3288
  664MOL0     H89611   6.244   7.306   3.927  0.2228 -0.7495  0.0226
  664MOL0     H89612   6.270   7.187   3.715 -1.8660 -0.8448  0.6208
  664MOL0     H89613   6.128   7.256   3.641 -0.1833  2.4110 -1.6821
  664MOL0     H89614   6.393   7.366   3.686  0.0643 -0.3881  1.2856
  664MOL0     H89615   6.285   7.478   3.749 -2.2335 -0.9063  1.5633
  664MOL0     H89616   6.140   7.446   3.531  1.1669 -2.2218  0.5045
  664MOL0     H89617   6.259   7.568   3.559  0.7844 -1.0619 -1.3489
  664MOL0     H89618   6.349   7.294   3.453  0.6339  0.3225 -2.9649
  664MOL0     H89619   6.421   7.455   3.440  1.2371 -0.5938  2.3175
  664MOL0     H89620   6.319   7.408   3.221  0.1278 -0.2136  0.1704
  664MOL0     H89621   6.214   7.524   3.302  1.9308  1.2316 -0.3806
  664MOL0     H89622   5.864   7.440   4.252 -1.5047 -0.1606  1.5722
  664MOL0     H89623   5.887   7.395   4.495  1.6378 -1.6478  3.3574
  664MOL0     H89624   6.237   7.244   4.831  0.9480  0.6038  0.9629
  664MOL0     H89625   6.223   7.289   5.072 -0.5284  0.4467 -0.2820
  664MOL0     H89626   5.300   6.656   5.315 -0.1911  0.0142  1.8130
  664MOL0     H89627   5.079   6.632   5.231  3.5121  0.0684 -3.1329
  664MOL0     H89628   4.751   6.254   5.227  1.4522  2.4190  0.4200
  664MOL0     H89629   4.534   6.177   5.110 -0.0936 -2.2060  2.3751
  664MOL0     H89630   4.237   6.479   4.990  3.0197  0.5053  0.7276
  664MOL0     H89631   4.151   6.326   4.983 -0.6880 -0.7325  1.1818
  664MOL0     H89632   4.066   6.419   5.181  0.4724  2.1427  2.4504
  664MOL0     H89633   4.228   6.463   5.241 -1.2652  0.1582  0.6402
  664MOL0     H89634   4.251   6.194   5.241 -1.4926 -1.1146 -1.6189
  664MOL0     H89635   4.072   6.211   5.243  1.7991 -3.1846 -0.3524
  664MOL0     H89636   4.083   6.359   5.440  0.3119 -1.9318  3.3059
  664MOL0     H89637   4.271   6.336   5.431  0.3364 -2.2191  4.8853
  664MOL0     H89638   4.156   5.975   5.596 -0.2530 -1.0028 -4.0382
  664MOL0     H89639   4.411   6.576   5.062 -1.7506 -3.3684 -2.4401
  664MOL0     H89640   4.610   6.651   5.185 -2.4548 -0.2704 -2.0630
  665MOL0     O89641   6.964   7.556   3.984  0.9379  0.3328  0.0559
  665MOL0     C89642   6.867   7.517   3.926  0.0319  0.6693  0.3273
  665MOL0     O89643   6.752   7.479   3.987  0.7489  0.3412 -0.4370
  665MOL0     C89644   6.748   7.481   4.125  0.5101 -0.1698 -0.1927
  665MOL0     C89645   6.767   7.604   4.189 -0.4882 -0.6120  0.1509
  665MOL0     C89646   6.756   7.610   4.333 -0.0085  0.3385  0.4136
  665MOL0     C89647   6.717   7.498   4.405  0.4202  0.1410  0.7157
  665MOL0     O89648   6.710   7.506   4.540  0.0438  0.1905 -0.0832
  665MOL0     C89649   6.720   7.629   4.615  0.5201 -0.5078  0.5612
  665MOL0     C89650   6.859   7.646   4.677 -0.2319 -0.3961  0.2708
  665MOL0     C89651   6.946   7.514   4.662  1.1464  0.1720 -0.0321
  665MOL0     C89652   7.068   7.534   4.743 -0.0376 -0.3712 -0.1533
  665MOL0     C89653   7.198   7.471   4.699 -0.7771 -0.3268 -0.1335
  665MOL0     C89654   7.252   7.538   4.571 -0.2972  0.7413 -0.1306
  665MOL0     C89655   7.390   7.481   4.549 -0.0422  0.7744  0.2088
  665MOL0     C89656   7.505   7.571   4.589 -0.2256  0.0678  0.3044
  665MOL0     N89657   7.523   7.565   4.736  0.5506  0.4790  0.5171
  665MOL0     C89658   7.519   7.667   4.833  0.0650 -0.6598  0.1624
  665MOL0     C89659   7.524   7.603   4.957 -0.3404  0.3876  0.6083
  665MOL0     C89660   7.519   7.677   5.092 -0.4600 -1.1996  0.0389
  665MOL0     C89661   7.366   7.687   5.139  0.6309  0.8807  0.4995
  665MOL0     C89662   7.353   7.778   5.259  0.0750  0.5356  0.4394
  665MOL0     C89663   7.330   7.709   5.392  0.0592 -0.4568  0.8574
  665MOL0     O89664   7.194   7.660   5.409 -0.2732  0.5504  0.5007
  665MOL0     C89665   7.105   7.744   5.476  0.1525  0.4513 -0.1540
  665MOL0     C89666   6.984   7.683   5.510 -0.5859  0.5761  0.0889
  665MOL0     C89667   6.877   7.754   5.560  0.6198  0.1832  0.6648
  665MOL0     C89668   6.745   7.683   5.600  0.4658 -0.0826 -0.4099
  665MOL0     C89669   6.896   7.888   5.588 -0.3664 -0.0897  0.0886
  665MOL0     C89670   6.783   7.976   5.649 -0.1683 -0.0139 -0.5376
  665MOL0     O89671   6.814   8.070   5.744 -0.3683 -0.0059 -0.3877
  665MOL0     C89672   6.724   8.155   5.798  0.9954 -0.3725  0.7889
  665MOL0     C89673   6.657   8.247   5.711 -0.9902  0.3044  0.1865
  665MOL0     C89674   6.560   8.336   5.757  1.1597  0.7149 -0.8477
  665MOL0     C89675   6.542   8.346   5.898  0.4922 -1.0516 -0.3325
  665MOL0     O89676   6.463   8.450   5.952 -0.3291 -0.6931 -0.1746
  665MOL0     C89677   6.505   8.526   6.069 -0.1317  0.1199  1.2430
  665MOL0     C89678   6.586   8.647   6.022 -0.0766 -0.3419 -0.1739
  665MOL0     C89679   6.484   8.748   5.968 -1.1780  0.7914 -0.5389
  665MOL0     C89680   6.385   8.816   6.064 -0.5431 -0.8338  0.8476
  665MOL0     C89681   6.445   8.929   6.161 -0.5502 -0.0668 -0.1034
  665MOL0     C89682   6.334   9.027   6.202 -0.5163 -0.3633 -0.3147
  665MOL0     C89683   6.197   8.960   6.240  0.1764 -0.4648 -0.0483
  665MOL0     C89684   6.127   9.026   6.358 -0.6266  0.1854 -0.5114
  665MOL0    Cl89685   6.003   9.150   6.308  0.0046 -0.0059 -0.1155
  665MOL0     C89686   6.605   8.260   5.982  0.2419 -0.0571 -0.2822
  665MOL0     C89687   6.691   8.162   5.937 -0.0814 -1.0163 -0.2914
  665MOL0     O89688   6.671   7.953   5.608  0.3287 -0.1230  0.0726
  665MOL0     C89689   7.021   7.951   5.573 -0.2038  0.4783 -0.1982
  665MOL0     C89690   7.127   7.877   5.512  1.1409  0.3229  0.2688
  665MOL0     N89691   7.565   7.468   4.936 -0.8159  0.0745  0.2443
  665MOL0     N89692   7.556   7.449   4.812 -0.7314  0.8700  0.7563
  665MOL0     C89693   6.692   7.375   4.342  0.0935 -0.9417  0.4643
  665MOL0     C89694   6.713   7.370   4.204 -1.3539  0.9126 -0.4165
  665MOL0     C89695   6.876   7.498   3.776  0.3457  0.2604 -1.0733
  665MOL0     C89696   6.987   7.535   3.701 -0.1655 -0.3716 -0.4887
  665MOL0     C89697   6.990   7.536   3.562  0.5048  0.1880  0.1109
  665MOL0     C89698   6.883   7.491   3.484  0.4140  0.4252  0.2198
  665MOL0     O89699   6.880   7.461   3.346 -0.6033 -0.4792  1.1404
  665MOL0     C89700   6.995   7.510   3.274 -0.2885  0.4783 -0.0619
  665MOL0     C89701   6.963   7.485   3.119 -0.5647 -0.6485 -0.4714
  665MOL0     C89702   6.838   7.577   3.089 -0.0793  0.5570  0.2936
  665MOL0     C89703   6.805   7.573   2.943  0.0759 -0.1734 -0.3432
  665MOL0     C89704   6.795   7.453   2.863 -0.8041 -0.0190 -0.0604
  665MOL0     C89705   6.768   7.352   2.790 -0.5783  0.7019 -0.1772
  665MOL0     C89706   6.768   7.450   3.553 -0.0656 -0.4582 -0.0273
  665MOL0     C89707   6.767   7.455   3.695  0.4944 -0.1820  0.8271
  665MOL0     H89708   6.790   7.696   4.136  0.8852 -0.7689  0.4392
  665MOL0     H89709   6.785   7.707   4.374 -0.8122  1.6450 -1.9291
  665MOL0     H89710   6.686   7.717   4.560 -0.1439 -0.2558  1.3662
  665MOL0     H89711   6.652   7.609   4.699 -1.0000 -2.6227 -1.0527
  665MOL0     H89712   6.913   7.734   4.640  0.4848 -1.0715 -0.3487
  665MOL0     H89713   6.837   7.665   4.783 -3.4820 -4.0502  0.4820
  665MOL0     H89714   6.887   7.428   4.695 -2.0746  0.4862 -4.1652
  665MOL0     H89715   6.971   7.491   4.558  2.5086 -2.1281  0.7253
  665MOL0     H89716   7.093   7.640   4.750  0.6946 -0.4573 -1.1327
  665MOL0     H89717   7.054   7.493   4.844 -1.0556  0.0759 -0.0982
  665MOL0     H89718   7.270   7.473   4.781 -1.1583 -0.7862  0.2220
  665MOL0     H89719   7.180   7.368   4.665 -3.4357  0.5034 -1.5159
  665MOL0     H89720   7.179   7.521   4.491  0.6614 -0.5440 -0.7858
  665MOL0     H89721   7.263   7.645   4.586 -0.6932  0.7884 -0.1685
  665MOL0     H89722   7.399   7.382   4.593 -2.4425  0.6628  0.5631
  665MOL0     H89723   7.400   7.476   4.440 -0.5538 -2.1364  0.2310
  665MOL0     H89724   7.486   7.673   4.555  3.5274  1.8834  2.9291
  665MOL0     H89725   7.594   7.530   4.540  2.1333  2.8978  1.9343
  665MOL0     H89726   7.511   7.774   4.819  0.0362 -0.4396  1.7273
  665MOL0     H89727   7.587   7.623   5.158 -1.7293 -2.8726  0.0493
  665MOL0     H89728   7.558   7.778   5.077 -0.2597 -1.0996  1.1672
  665MOL0     H89729   7.342   7.587   5.176  2.5646  0.8249  1.7670
  665MOL0     H89730   7.306   7.711   5.051  1.3014  0.2109 -0.1596
  665MOL0     H89731   7.272   7.850   5.245  0.7547  1.5094  1.3349
  665MOL0     H89732   7.442   7.841   5.265  0.3582  0.1035  0.9123
  665MOL0     H89733   7.362   7.782   5.466  2.6832 -2.8882  2.3089
  665MOL0     H89734   7.403   7.628   5.404  2.0311  0.3208 -3.6812
  665MOL0     H89735   6.952   7.580   5.503  0.7009  0.1852 -0.4085
  665MOL0     H89736   6.663   7.690   5.527  0.0629 -0.3064  0.0197
  665MOL0     H89737   6.751   7.576   5.623 -0.0930  0.2593  1.4610
  665MOL0     H89738   6.706   7.730   5.690 -0.0561  0.9880 -1.1711
  665MOL0     H89739   6.690   8.243   5.608 -1.3704 -0.6919  0.0969
  665MOL0     H89740   6.504   8.403   5.692 -2.8259  0.7285  2.2608
  665MOL0     H89741   6.406   8.550   6.109 -2.6692 -0.0659 -4.0318
  665MOL0     H89742   6.571   8.472   6.137  0.0471  0.2084  1.1406
  665MOL0     H89743   6.640   8.706   6.097 -0.2249 -0.7426  0.2577
  665MOL0     H89744   6.649   8.611   5.941 -0.0152 -1.6749  0.4388
  665MOL0     H89745   6.423   8.687   5.901  0.6704 -0.9665 -0.7340
  665MOL0     H89746   6.549   8.813   5.910  2.1584 -1.2587  0.6191
  665MOL0     H89747   6.313   8.856   5.992  1.4256 -0.0603 -0.7973
  665MOL0     H89748   6.340   8.733   6.120  4.0419 -3.0267  1.7004
  665MOL0     H89749   6.527   8.969   6.100 -0.2955  0.4846  0.5964
  665MOL0     H89750   6.487   8.884   6.251  0.3005  0.6178 -0.1413
  665MOL0     H89751   6.376   9.086   6.284  3.4384 -0.3929 -2.0708
  665MOL0     H89752   6.315   9.078   6.107  0.2046 -2.5522 -1.7213
  665MOL0     H89753   6.216   8.854   6.261  0.6605 -0.2880  0.4222
  665MOL0     H89754   6.128   8.965   6.155 -0.5175 -2.2126  0.3642
  665MOL0     H89755   6.202   9.085   6.411 -2.0717  2.9138 -1.2960
  665MOL0     H89756   6.083   8.946   6.417  0.7518 -1.1769 -1.2597
  665MOL0     H89757   6.605   8.252   6.090  0.7319 -0.1233 -0.2852
  665MOL0     H89758   6.735   8.090   6.006 -0.2763 -0.7271  0.1415
  665MOL0     H89759   7.042   8.054   5.600 -1.3957  0.3682  1.2850
  665MOL0     H89760   7.219   7.933   5.504  1.2461  0.1900  0.5394
  665MOL0     H89761   6.648   7.293   4.398  0.7282 -1.0414  0.8243
  665MOL0     H89762   6.710   7.266   4.172  1.2487  0.4486  0.6247
  665MOL0     H89763   7.076   7.561   3.757  0.2868  3.0216 -2.4617
  665MOL0     H89764   7.084   7.561   3.513  0.6373 -1.2304 -0.3845
  665MOL0     H89765   7.012   7.618   3.284  0.8280  0.5887 -2.3571
  665MOL0     H89766   7.086   7.451   3.291  0.5324  1.1914 -1.6923
  665MOL0     H89767   6.936   7.380   3.102  1.2621 -1.0137 -1.3431
  665MOL0     H89768   7.043   7.515   3.050 -1.6937  0.9810 -1.1490
  665MOL0     H89769   6.850   7.678   3.131 -1.4516  0.4512  0.9891
  665MOL0     H89770   6.754   7.524   3.135  1.3340 -0.9292  1.2413
  665MOL0     H89771   6.887   7.621   2.889 -0.0113 -0.1721 -0.4759
  665MOL0     H89772   6.715   7.633   2.932  1.3179  1.9416  0.4426
  665MOL0     H89773   6.761   7.279   2.712  2.6224 -2.9865  2.5613
  665MOL0     H89774   6.681   7.404   3.509 -0.6725  0.5363  0.1032
  665MOL0     H89775   6.677   7.409   3.735 -0.9455 -0.2107 -2.1632
  666MOL0     O89776   5.800   1.933   8.439 -0.1342 -0.2992  0.7494
  666MOL0     C89777   5.782   1.818   8.475  0.4184  0.4699 -0.5149
  666MOL0     O89778   5.684   1.740   8.444 -0.6708  0.4204 -0.7150
  666MOL0     C89779   5.560   1.786   8.416 -0.1257 -0.2675  0.7672
  666MOL0     C89780   5.480   1.695   8.346  0.4383 -0.2677 -0.8684
  666MOL0     C89781   5.341   1.729   8.308 -0.2413  0.3437 -0.0326
  666MOL0     C89782   5.292   1.854   8.327  0.1882  0.1443  0.1103
  666MOL0     O89783   5.167   1.901   8.287 -0.1148 -0.6476  1.0216
  666MOL0     C89784   5.076   1.805   8.226  0.6005 -1.5655  0.4930
  666MOL0     C89785   4.960   1.896   8.192 -0.1938 -0.8927  0.0175
  666MOL0     C89786   4.839   1.806   8.157  0.7486 -0.4917  0.3240
  666MOL0     C89787   4.713   1.893   8.125 -0.9575  0.4046  0.2177
  666MOL0     C89788   4.637   1.938   8.251 -0.7144  0.3082  0.2715
  666MOL0     C89789   4.519   1.841   8.270  0.4986 -0.5879  0.2839
  666MOL0     C89790   4.430   1.877   8.388  1.0138  0.1015  0.3007
  666MOL0     C89791   4.320   1.991   8.365 -0.7823  1.1795 -0.5003
  666MOL0     N89792   4.213   1.948   8.271 -0.6599  0.3273 -0.2444
  666MOL0     C89793   4.127   1.836   8.290 -0.2601  0.1050  0.8644
  666MOL0     C89794   4.039   1.855   8.186 -0.5991 -0.2274  0.1479
  666MOL0     C89795   3.943   1.744   8.152 -0.2235 -0.7443  0.0878
  666MOL0     C89796   3.994   1.608   8.191 -0.2078  0.1306  0.7148
  666MOL0     C89797   3.911   1.489   8.133 -0.5826  0.1133  0.5537
  666MOL0     C89798   3.985   1.361   8.112  0.0123  0.5061 -0.6496
  666MOL0     O89799   4.059   1.324   8.231 -0.0568 -0.0332  0.6626
  666MOL0     C89800   3.989   1.301   8.351 -0.2707 -0.5925  0.6269
  666MOL0     C89801   3.870   1.224   8.350 -0.8830 -0.8856  0.0988
  666MOL0     C89802   3.800   1.197   8.471 -0.3590  0.5450  0.0782
  666MOL0     C89803   3.676   1.110   8.462 -0.4029 -0.1815 -0.1931
  666MOL0     C89804   3.861   1.239   8.593  0.5741  0.1933 -0.6196
  666MOL0     C89805   3.818   1.196   8.730  0.0406 -0.0658  1.3136
  666MOL0     O89806   3.686   1.171   8.743 -0.5024 -1.8288 -0.1883
  666MOL0     C89807   3.620   1.097   8.834 -0.4573  0.5722  0.1114
  666MOL0     C89808   3.506   1.031   8.794 -1.1835  0.3734 -0.4056
  666MOL0     C89809   3.425   0.980   8.892  0.9499  0.1191 -0.3483
  666MOL0     C89810   3.457   0.992   9.029  0.4053  0.3336  1.4108
  666MOL0     O89811   3.372   0.928   9.114 -0.4367 -0.2676 -0.1437
  666MOL0     C89812   3.372   0.979   9.254 -0.3594 -0.3226  0.2954
  666MOL0     C89813   3.464   0.891   9.337 -0.3264 -0.6040 -0.1567
  666MOL0     C89814   3.375   0.805   9.430 -0.1820 -0.4392  0.2285
  666MOL0     C89815   3.463   0.747   9.538  1.3665 -0.4064 -0.2855
  666MOL0     C89816   3.372   0.686   9.646  0.8488 -0.5470  0.1106
  666MOL0     C89817   3.426   0.632   9.777  0.0981 -0.2645  0.7018
  666MOL0     C89818   3.315   0.589   9.881  0.6124  0.1040  0.7526
  666MOL0     C89819   3.371   0.554  10.022 -0.1373  0.1025 -0.0766
  666MOL0    Cl89820   3.242   0.510  10.130  0.1695  0.4459 -0.0884
  666MOL0     C89821   3.584   1.032   9.061  0.2870  0.1787  0.7728
  666MOL0     C89822   3.666   1.091   8.965 -0.2317  0.3765 -0.1197
  666MOL0     O89823   3.898   1.184   8.818 -0.5593  0.3141 -0.4262
  666MOL0     C89824   3.982   1.315   8.590  0.9136 -1.1625  0.5666
  666MOL0     C89825   4.046   1.339   8.467 -0.3063 -1.1560  0.8493
  666MOL0     N89826   4.064   1.976   8.121 -0.2712 -1.0859  1.0971
  666MOL0     N89827   4.165   2.034   8.176  0.1302 -0.6022 -0.5386
  666MOL0     C89828   5.376   1.947   8.383 -0.1911  0.0108 -0.1577
  666MOL0     C89829   5.503   1.915   8.426 -0.6361  1.0432 -0.0863
  666MOL0     C89830   5.887   1.752   8.564 -0.2373 -0.2078 -0.7676
  666MOL0     C89831   6.008   1.812   8.587 -0.6372 -0.2331  0.0199
  666MOL0     C89832   6.112   1.757   8.668  0.4581 -0.1967  0.3422
  666MOL0     C89833   6.101   1.615   8.712  0.3967 -1.0148 -0.5607
  666MOL0     O89834   6.196   1.545   8.787  0.0150 -0.3833 -0.1110
  666MOL0     C89835   6.282   1.623   8.879  0.1396 -0.4564  0.1347
  666MOL0     C89836   6.401   1.534   8.910  0.5643  1.2607  0.0908
  666MOL0     C89837   6.514   1.602   8.988 -0.3190 -0.0554  0.2808
  666MOL0     C89838   6.639   1.509   8.996  0.0023  0.0037 -0.1606
  666MOL0     C89839   6.719   1.558   9.107 -0.3934 -0.2395  0.3701
  666MOL0     C89840   6.784   1.605   9.190  0.1729 -0.9976 -0.7570
  666MOL0     C89841   5.974   1.560   8.683 -0.9902  0.5200  0.9379
  666MOL0     C89842   5.874   1.620   8.608 -0.4873 -0.4748 -0.5746
  666MOL0     H89843   5.501   1.591   8.321  2.0104 -0.2042  0.0528
  666MOL0     H89844   5.280   1.662   8.249  1.3020  2.0037 -3.7936
  666MOL0     H89845   5.114   1.768   8.130 -0.6277  0.2169 -0.7240
  666MOL0     H89846   5.041   1.734   8.302 -2.6472  2.3108  3.0039
  666MOL0     H89847   4.933   1.947   8.284  1.4017 -3.0224  1.7744
  666MOL0     H89848   4.980   1.972   8.116  0.6260  1.0548  2.0864
  666MOL0     H89849   4.868   1.732   8.081 -1.0384 -0.4630 -0.4326
  666MOL0     H89850   4.820   1.743   8.245  0.2975  0.6106  1.0348
  666MOL0     H89851   4.755   1.974   8.065  2.8898 -1.8361 -0.4448
  666MOL0     H89852   4.637   1.832   8.074  1.0331 -0.4174 -1.9265
  666MOL0     H89853   4.706   1.935   8.336 -2.1375 -0.4557  1.4352
  666MOL0     H89854   4.600   2.039   8.231 -0.5017  0.7028  1.7636
  666MOL0     H89855   4.458   1.828   8.181 -0.0391 -2.0390  0.8322
  666MOL0     H89856   4.555   1.738   8.286 -0.7172 -0.6748  3.1502
  666MOL0     H89857   4.376   1.790   8.427 -3.3240  1.3571 -2.1993
  666MOL0     H89858   4.494   1.909   8.470  1.9384  0.6410 -0.6060
  666MOL0     H89859   4.363   2.086   8.330 -1.8134  2.0017  0.3796
  666MOL0     H89860   4.276   2.017   8.462  0.4747 -0.3823  0.5239
  666MOL0     H89861   4.138   1.744   8.348  0.2963  1.6948  3.4611
  666MOL0     H89862   3.849   1.772   8.199  1.6673  2.5311  2.3594
  666MOL0     H89863   3.935   1.735   8.044  1.4753 -5.3837  0.1042
  666MOL0     H89864   3.992   1.592   8.299 -1.2528 -0.9058  0.5717
  666MOL0     H89865   4.092   1.597   8.143 -0.4268  2.3683 -0.3894
  666MOL0     H89866   3.889   1.517   8.029  4.5583  1.0743 -0.5296
  666MOL0     H89867   3.820   1.475   8.192 -1.9643  0.5521 -1.3827
  666MOL0     H89868   4.049   1.370   8.023 -1.9918  2.0286 -2.0078
  666MOL0     H89869   3.909   1.288   8.084 -1.4556  2.0269 -0.7883
  666MOL0     H89870   3.834   1.188   8.254 -0.7386  0.5288 -0.5113
  666MOL0     H89871   3.592   1.144   8.522  2.1303  0.3750  3.3627
  666MOL0     H89872   3.648   1.118   8.356  1.1271 -0.1295 -0.6134
  666MOL0     H89873   3.697   1.007   8.495  2.9807  0.8172  1.1940
  666MOL0     H89874   3.470   1.033   8.691 -1.4063  2.4639 -0.3320
  666MOL0     H89875   3.330   0.934   8.866  1.3851  0.3673 -2.5829
  666MOL0     H89876   3.421   1.077   9.255  0.9353 -0.9442  0.2012
  666MOL0     H89877   3.271   0.983   9.295 -0.2965  1.8654  0.3453
  666MOL0     H89878   3.524   0.827   9.272 -2.9097 -2.4181 -0.9716
  666MOL0     H89879   3.533   0.954   9.393  1.6206 -2.7697  0.0423
  666MOL0     H89880   3.345   0.724   9.362  1.9886 -1.7996  0.7922
  666MOL0     H89881   3.290   0.869   9.456 -0.6636  0.2559 -2.6474
  666MOL0     H89882   3.522   0.659   9.510 -0.5858 -2.0694  0.5689
  666MOL0     H89883   3.536   0.819   9.576  1.9663 -2.3378  2.6205
  666MOL0     H89884   3.309   0.611   9.599  2.5457 -2.8251  1.2688
  666MOL0     H89885   3.314   0.770   9.685  2.9542  0.0720  2.1846
  666MOL0     H89886   3.487   0.542   9.765  0.3332  0.1054 -1.1494
  666MOL0     H89887   3.498   0.702   9.820  0.4555 -0.4946  0.4835
  666MOL0     H89888   3.265   0.496   9.853  0.2438  0.9161 -1.4794
  666MOL0     H89889   3.237   0.664   9.891 -1.8548 -2.2495  0.2766
  666MOL0     H89890   3.427   0.645  10.046 -2.1165  2.1319 -2.5691
  666MOL0     H89891   3.435   0.466  10.012  0.6307  0.0246  3.7292
  666MOL0     H89892   3.623   1.034   9.162 -0.4078  0.6347  1.0442
  666MOL0     H89893   3.761   1.135   8.994  0.6313 -0.4770 -1.5615
  666MOL0     H89894   4.033   1.351   8.678  1.8156  1.8154 -1.0248
  666MOL0     H89895   4.138   1.396   8.477 -1.3478  0.4488  1.8012
  666MOL0     H89896   5.355   2.053   8.395 -2.3973 -0.4893  0.9365
  666MOL0     H89897   5.569   1.984   8.476 -1.5606  2.4558 -0.7691
  666MOL0     H89898   6.026   1.918   8.572  1.7991 -0.2809  1.9532
  666MOL0     H89899   6.194   1.826   8.680 -0.8444  1.8049 -1.5304
  666MOL0     H89900   6.324   1.717   8.840  0.0861  0.4471  2.1299
  666MOL0     H89901   6.217   1.645   8.964  0.0131  1.3386 -0.3692
  666MOL0     H89902   6.448   1.503   8.816 -2.6857 -2.3051 -0.5938
  666MOL0     H89903   6.363   1.442   8.954  1.5028  1.0692  0.5253
  666MOL0     H89904   6.467   1.612   9.087 -0.1148 -1.5797  0.5623
  666MOL0     H89905   6.537   1.702   8.953  1.6106 -0.9562 -1.2041
  666MOL0     H89906   6.684   1.527   8.898  0.4489 -0.0520  0.0326
  666MOL0     H89907   6.618   1.403   9.011 -2.8182  0.5667  0.3276
  666MOL0     H89908   6.821   1.652   9.279 -0.4206 -2.8593  0.5077
  666MOL0     H89909   5.960   1.460   8.722  0.4199 -0.2780 -0.5068
  666MOL0     H89910   5.793   1.556   8.575 -1.1215  0.5982 -1.1661
  667MOL0     O89911   4.275   2.504  11.007  0.4706 -0.4167  0.6207
  667MOL0     C89912   4.279   2.392  10.966 -0.0038 -1.3216  0.8215
  667MOL0     O89913   4.237   2.355  10.843  0.1578  0.2248 -0.5897
  667MOL0     C89914   4.164   2.448  10.778  0.9449 -0.6822  0.7420
  667MOL0     C89915   4.056   2.517  10.830 -0.1727  0.2742  0.5429
  667MOL0     C89916   3.985   2.607  10.743 -0.6958  0.3718 -0.0510
  667MOL0     C89917   4.036   2.644  10.615  0.2831  0.6114 -0.7377
  667MOL0     O89918   3.972   2.741  10.545 -0.0192  0.0416  0.5926
  667MOL0     C89919   4.015   2.759  10.411  0.0662  0.1007 -0.1191
  667MOL0     C89920   3.924   2.847  10.336  0.0255  0.1856 -0.1477
  667MOL0     C89921   3.768   2.823  10.351 -0.8577 -0.2210 -0.9093
  667MOL0     C89922   3.691   2.953  10.319  0.5732  0.5382 -0.3566
  667MOL0     C89923   3.537   2.927  10.328  0.7751  0.8440  0.2238
  667MOL0     C89924   3.454   3.010  10.239 -0.8112 -0.9423  0.2369
  667MOL0     C89925   3.304   2.987  10.251  0.7952  0.0252 -0.2598
  667MOL0     C89926   3.263   2.860  10.177 -0.5082 -0.1565  0.0815
  667MOL0     N89927   3.115   2.842  10.162 -0.5184  0.0937  0.2612
  667MOL0     C89928   3.052   2.734  10.211 -0.1055  0.1319  0.3008
  667MOL0     C89929   2.945   2.723  10.130 -0.8389 -0.5344 -0.1539
  667MOL0     C89930   2.862   2.596  10.120  0.2201  0.0316  0.2253
  667MOL0     C89931   2.728   2.593  10.195  0.0106 -0.3050  0.6034
  667MOL0     C89932   2.643   2.719  10.150  1.4878  1.1923  0.1981
  667MOL0     C89933   2.487   2.709  10.164 -0.1068 -0.1116  1.3274
  667MOL0     O89934   2.417   2.615  10.081  0.0698 -0.3563  0.4895
  667MOL0     C89935   2.315   2.551  10.138 -0.1401 -0.5946 -0.5821
  667MOL0     C89936   2.299   2.415  10.103  0.8955  0.3177  0.8304
  667MOL0     C89937   2.189   2.349  10.163  0.4195 -0.3893  0.6890
  667MOL0     C89938   2.179   2.203  10.133  0.4660 -0.3913  0.4124
  667MOL0     C89939   2.104   2.416  10.253 -0.0317  0.1311 -0.4523
  667MOL0     C89940   1.994   2.345  10.320  0.6224 -0.3334  0.4756
  667MOL0     O89941   1.958   2.393  10.447  0.3819  0.6954  0.9047
  667MOL0     C89942   1.849   2.343  10.500 -0.0762 -0.4921 -0.5015
  667MOL0     C89943   1.741   2.429  10.505  0.1164  0.0416 -0.3468
  667MOL0     C89944   1.616   2.380  10.569  0.3012  0.2945 -0.3980
  667MOL0     C89945   1.622   2.265  10.655  0.2974 -0.6402  0.2130
  667MOL0     O89946   1.511   2.240  10.724  0.4058 -0.7608  0.4899
  667MOL0     C89947   1.491   2.107  10.775  0.4370  0.7277  0.1793
  667MOL0     C89948   1.358   2.101  10.861 -0.3288  0.5894 -0.5503
  667MOL0     C89949   1.343   1.966  10.923 -0.5991  0.8639 -0.5109
  667MOL0     C89950   1.377   1.955  11.072  0.5356  0.0584 -0.0098
  667MOL0     C89951   1.251   1.944  11.160 -0.4094 -0.3455 -1.6438
  667MOL0     C89952   1.289   1.950  11.307 -0.3549 -0.0198 -0.4252
  667MOL0     C89953   1.351   1.810  11.343  0.2900  0.6144  0.6440
  667MOL0     C89954   1.410   1.805  11.482 -0.8552 -0.4011 -0.9169
  667MOL0    Cl89955   1.534   1.945  11.484 -0.2873  0.3334  0.6595
  667MOL0     C89956   1.742   2.189  10.656  0.1104  0.2498  0.3041
  667MOL0     C89957   1.855   2.228  10.583 -0.4727 -0.5723 -0.0760
  667MOL0     O89958   1.927   2.260  10.262 -0.9445  0.5367  0.2646
  667MOL0     C89959   2.123   2.548  10.292  0.9782 -0.4882  0.4906
  667MOL0     C89960   2.231   2.614  10.232 -0.1722  0.8022  0.0810
  667MOL0     N89961   2.927   2.828  10.040  0.8339 -0.9397 -0.4700
  667MOL0     N89962   3.032   2.909  10.070 -0.7795  0.4662  0.3571
  667MOL0     C89963   4.144   2.563  10.566 -0.5482 -0.1452 -0.8339
  667MOL0     C89964   4.204   2.472  10.648  0.0819 -1.4551  0.1591
  667MOL0     C89965   4.339   2.291  11.046 -0.5225 -0.9287 -0.6573
  667MOL0     C89966   4.314   2.160  11.036  0.8572 -0.6290 -0.4996
  667MOL0     C89967   4.372   2.064  11.120  0.6181 -0.3378  0.6303
  667MOL0     C89968   4.445   2.107  11.224 -0.5799  0.0297 -0.9572
  667MOL0     O89969   4.504   2.005  11.307  0.1848  0.6683  0.1143
  667MOL0     C89970   4.549   2.030  11.442 -0.0537  0.0291  0.9694
  667MOL0     C89971   4.425   2.075  11.529 -0.6650 -0.3893 -0.1378
  667MOL0     C89972   4.318   1.971  11.521  0.3280 -0.2590 -0.8814
  667MOL0     C89973   4.223   1.990  11.648  0.2132  0.9375  0.0339
  667MOL0     C89974   4.114   1.891  11.651  0.5738 -0.3936  0.1115
  667MOL0     C89975   4.020   1.815  11.640 -0.5445 -0.7940  0.8094
  667MOL0     C89976   4.485   2.243  11.241  0.3324 -0.8065 -0.0691
  667MOL0     C89977   4.422   2.338  11.154  0.6782  0.1398  0.2708
  667MOL0     H89978   4.022   2.489  10.929  0.1772 -0.3114  0.5046
  667MOL0     H89979   3.901   2.657  10.790 -0.3683  0.3748  0.5337
  667MOL0     H89980   4.115   2.802  10.416  0.1964 -0.2845  0.6578
  667MOL0     H89981   4.013   2.660  10.364 -0.9640 -0.2040  0.5210
  667MOL0     H89982   3.949   2.948  10.370 -1.2063  1.1851 -2.0237
  667MOL0     H89983   3.941   2.857  10.228  2.2770 -0.6987  0.0779
  667MOL0     H89984   3.759   2.742  10.279  1.5070  0.7147 -2.3826
  667MOL0     H89985   3.731   2.780  10.445  1.6487 -0.9268 -0.1648
  667MOL0     H89986   3.718   3.036  10.385 -1.7588 -0.5990  2.2298
  667MOL0     H89987   3.721   2.973  10.215  1.2099  0.3463 -0.2117
  667MOL0     H89988   3.521   2.820  10.315  3.9012  0.1316  1.5552
  667MOL0     H89989   3.510   2.960  10.429 -0.1514  1.3601 -0.1770
  667MOL0     H89990   3.469   3.112  10.275  1.1013 -1.3474  0.6936
  667MOL0     H89991   3.482   3.004  10.133  1.4011 -1.1572  0.7855
  667MOL0     H89992   3.278   2.996  10.357  2.0220 -3.0024  0.3986
  667MOL0     H89993   3.249   3.068  10.202  0.9793  1.2480  1.4489
  667MOL0     H89994   3.308   2.779  10.236  0.6082  0.0845 -0.4044
  667MOL0     H89995   3.306   2.851  10.077 -2.9258  0.9968 -1.1401
  667MOL0     H89996   3.076   2.648  10.272 -2.3567 -1.6235 -1.1059
  667MOL0     H89997   2.822   2.586  10.018  0.9989 -0.4465 -0.0398
  667MOL0     H89998   2.914   2.505  10.151 -2.5059 -1.9855 -0.7603
  667MOL0     H89999   2.744   2.592  10.303  2.6440 -2.0775  0.2844
  667MOL0     H90000   2.679   2.497  10.174 -0.4490 -1.3279  5.2146
  667MOL0     H90001   2.671   2.728  10.045 -0.4849 -2.2245 -0.7678
  667MOL0     H90002   2.680   2.803  10.209 -0.5933  0.8105  2.2111
  667MOL0     H90003   2.441   2.806  10.144 -4.3482 -2.6489 -3.8034
  667MOL0     H90004   2.465   2.688  10.269  0.4533  2.7069  2.1028
  667MOL0     H90005   2.373   2.354  10.052 -1.8629 -3.2030  0.6526
  667MOL0     H90006   2.222   2.139  10.209  2.1250 -0.6718 -0.7094
  667MOL0     H90007   2.076   2.182  10.102  0.5489  0.5510 -0.5901
  667MOL0     H90008   2.227   2.191  10.035  0.8512  3.1326  0.0214
  667MOL0     H90009   1.739   2.517  10.441  0.2342  0.0631 -0.3202
  667MOL0     H90010   1.523   2.435  10.564  0.7616  1.0854 -0.5224
  667MOL0     H90011   1.475   2.032  10.697 -2.9392  1.7354 -0.2627
  667MOL0     H90012   1.575   2.083  10.841 -0.1560 -1.1035  0.3414
  667MOL0     H90013   1.377   2.178  10.936 -0.5237 -1.6834  1.9923
  667MOL0     H90014   1.265   2.127  10.809  0.7124  0.0042 -2.8231
  667MOL0     H90015   1.412   1.905  10.864  0.8223 -0.2405  2.1438
  667MOL0     H90016   1.244   1.929  10.895  0.1510  0.1365 -2.3906
  667MOL0     H90017   1.437   1.863  11.076 -1.5452 -1.4356 -1.0679
  667MOL0     H90018   1.436   2.040  11.106 -0.0437  0.0281  1.1393
  667MOL0     H90019   1.180   1.865  11.135 -3.7664  1.9596 -0.1241
  667MOL0     H90020   1.200   2.040  11.148 -0.0921 -0.0847 -0.9634
  667MOL0     H90021   1.361   2.030  11.327  0.0374 -0.6622  0.8553
  667MOL0     H90022   1.203   1.965  11.372 -0.2285 -2.0821  0.2902
  667MOL0     H90023   1.436   1.787  11.278  1.4310  0.2491  2.2069
  667MOL0     H90024   1.284   1.724  11.338  0.3208  0.5184  1.6666
  667MOL0     H90025   1.470   1.714  11.495 -1.2966 -0.6624 -0.6868
  667MOL0     H90026   1.335   1.811  11.562  0.3399  1.8948  0.1078
  667MOL0     H90027   1.755   2.098  10.713 -0.6976 -0.4663 -0.6288
  667MOL0     H90028   1.944   2.166  10.589 -0.2764 -0.3147 -0.3126
  667MOL0     H90029   2.059   2.599  10.364  1.6693  2.3815 -0.7831
  667MOL0     H90030   2.231   2.718  10.262 -4.4406  1.7195 -2.2697
  667MOL0     H90031   4.182   2.550  10.465  2.2407 -1.3011  0.2512
  667MOL0     H90032   4.295   2.423  10.616  0.9023 -0.3761  0.7524
  667MOL0     H90033   4.239   2.115  10.972 -1.3544 -0.6738  1.9488
  667MOL0     H90034   4.366   1.957  11.104  0.2510 -0.1139 -0.9501
  667MOL0     H90035   4.598   1.939  11.480  0.9649 -0.1760 -0.7459
  667MOL0     H90036   4.628   2.105  11.432  1.9559 -1.9772  0.9942
  667MOL0     H90037   4.400   2.178  11.501  0.4444 -0.1109 -0.1541
  667MOL0     H90038   4.471   2.083  11.628  0.2762  4.3702 -0.6850
  667MOL0     H90039   4.355   1.868  11.523  2.9990  0.6336 -0.7896
  667MOL0     H90040   4.250   1.982  11.436 -0.0032 -1.1524 -0.7409
  667MOL0     H90041   4.171   2.085  11.663 -1.0397  0.0198  1.8202
  667MOL0     H90042   4.282   1.977  11.739  0.1415  4.5233  0.7421
  667MOL0     H90043   3.922   1.773  11.632 -0.1222 -1.7203  0.1390
  667MOL0     H90044   4.553   2.267  11.323  0.2912 -1.0012  0.0208
  667MOL0     H90045   4.459   2.440  11.164  0.4820  0.2707 -0.3078
  668MOL0     O90046   2.787   1.885   8.863  0.0468  0.2604  0.2152
  668MOL0     C90047   2.692   1.817   8.892  0.2393 -0.6853  0.2021
  668MOL0     O90048   2.698   1.690   8.948  0.0648 -0.4542 -0.3727
  668MOL0     C90049   2.805   1.612   8.926 -1.0600 -0.7200  0.3157
  668MOL0     C90050   2.927   1.631   8.990  0.1172  0.0586 -0.9337
  668MOL0     C90051   3.041   1.557   8.970 -0.3734 -0.0517  1.3265
  668MOL0     C90052   3.030   1.448   8.878 -0.1020 -0.1025 -0.1913
  668MOL0     O90053   3.148   1.392   8.860  0.2277 -0.3429 -0.4391
  668MOL0     C90054   3.134   1.252   8.874 -0.0746 -0.1676  0.4583
  668MOL0     C90055   3.090   1.213   9.018 -0.3233  0.2347  0.0301
  668MOL0     C90056   3.069   1.062   9.047 -0.2471 -0.8761  0.5823
  668MOL0     C90057   2.987   0.985   8.935 -1.0882  0.2460  0.4210
  668MOL0     C90058   2.873   0.887   8.980 -0.4601  0.0037  0.2828
  668MOL0     C90059   2.779   0.938   9.091 -0.8426  0.5716  0.0869
  668MOL0     C90060   2.644   0.862   9.096  0.3630 -0.7022  0.5893
  668MOL0     C90061   2.549   0.939   9.185 -0.3574  0.6329  0.7005
  668MOL0     N90062   2.581   0.934   9.324  0.2470 -0.1168  0.5560
  668MOL0     C90063   2.556   1.033   9.413  1.0636  0.7967 -1.3089
  668MOL0     C90064   2.562   0.961   9.530  0.0027 -0.7556  0.6093
  668MOL0     C90065   2.542   0.999   9.669 -0.0255 -0.6173 -1.1945
  668MOL0     C90066   2.446   0.933   9.755  0.4066  0.0598 -0.5170
  668MOL0     C90067   2.414   1.007   9.891  0.2432  0.1744  0.3214
  668MOL0     C90068   2.540   1.030   9.981 -0.4278  0.5143 -0.7915
  668MOL0     O90069   2.654   0.936   9.982  0.1943 -0.1799  0.2605
  668MOL0     C90070   2.640   0.814  10.033 -0.2690  0.7446 -0.1592
  668MOL0     C90071   2.765   0.749  10.059  0.0901 -0.8069  0.4183
  668MOL0     C90072   2.777   0.631  10.117  0.2820 -0.0556  1.0675
  668MOL0     C90073   2.921   0.572  10.112  0.0982 -0.0222  0.4253
  668MOL0     C90074   2.657   0.569  10.162 -0.9502  0.7194  0.0965
  668MOL0     C90075   2.653   0.430  10.209  0.2881  0.4832 -0.2936
  668MOL0     O90076   2.553   0.415  10.306 -0.7763 -0.5058  0.9402
  668MOL0     C90077   2.553   0.285  10.345  1.9927 -0.6265  0.6664
  668MOL0     C90078   2.467   0.192  10.274  1.0199 -0.2045  0.1664
  668MOL0     C90079   2.466   0.058  10.298 -0.7486  0.3435  0.2041
  668MOL0     C90080   2.550   0.011  10.398 -1.4014 -1.5892  0.1152
  668MOL0     O90081   2.551  -0.122  10.435 -0.3374 -0.7223  0.8598
  668MOL0     C90082   2.606  -0.207  10.338  0.3545  0.3381 -0.8214
  668MOL0     C90083   2.485  -0.297  10.290 -0.0297 -0.2891  1.2029
  668MOL0     C90084   2.542  -0.398  10.184 -0.1907  0.1635  0.2441
  668MOL0     C90085   2.437  -0.452  10.095  0.7917 -0.2388  0.1806
  668MOL0     C90086   2.504  -0.532   9.983  0.5933  1.2984  1.0576
  668MOL0     C90087   2.405  -0.617   9.905  0.7446  0.5826 -0.2785
  668MOL0     C90088   2.478  -0.736   9.842  0.4653  0.3038  0.3429
  668MOL0     C90089   2.379  -0.836   9.779  0.6874 -0.1190  0.1237
  668MOL0    Cl90090   2.473  -0.958   9.707 -0.0643  0.2980  0.6686
  668MOL0     C90091   2.630   0.100  10.466  0.2497  0.5842  0.9592
  668MOL0     C90092   2.633   0.231  10.433 -0.1161 -0.9200  0.1548
  668MOL0     O90093   2.723   0.346  10.160  0.2108 -0.2139  0.0960
  668MOL0     C90094   2.535   0.629  10.128 -0.0738 -0.7072  0.1053
  668MOL0     C90095   2.528   0.754  10.066  0.9534  0.3400 -0.6259
  668MOL0     N90096   2.583   0.831   9.507  0.0857 -0.2888 -0.3156
  668MOL0     N90097   2.588   0.814   9.381  0.6286  0.7119  0.6244
  668MOL0     C90098   2.908   1.410   8.828  0.2607  0.2180  0.1962
  668MOL0     C90099   2.791   1.493   8.844 -0.5433  0.1124 -0.7366
  668MOL0     C90100   2.556   1.889   8.886  0.6885 -0.3248  0.7910
  668MOL0     C90101   2.439   1.829   8.953 -0.0683 -0.0445  0.8076
  668MOL0     C90102   2.315   1.889   8.934  0.8095 -0.6067  1.6110
  668MOL0     C90103   2.299   2.006   8.856  0.0389 -0.2183 -0.7724
  668MOL0     O90104   2.186   2.070   8.826  0.9283  0.6205  0.7198
  668MOL0     C90105   2.075   1.986   8.785  0.6888  0.0493  0.1958
  668MOL0     C90106   2.072   1.949   8.638 -0.5159 -0.1582  0.3236
  668MOL0     C90107   2.063   2.051   8.533  0.5222 -0.3321 -0.0284
  668MOL0     C90108   1.928   2.138   8.531  0.1368  0.5296 -0.2099
  668MOL0     C90109   1.902   2.226   8.649  0.5623  0.2951 -0.5330
  668MOL0     C90110   1.864   2.276   8.754  0.9690  0.2328  0.9886
  668MOL0     C90111   2.412   2.062   8.798  0.1208 -0.3846 -0.6391
  668MOL0     C90112   2.537   2.014   8.820  0.0934 -0.1175  0.4870
  668MOL0     H90113   2.932   1.714   9.059 -2.3041  0.3059 -0.9631
  668MOL0     H90114   3.138   1.574   9.017  0.0963 -1.9756  1.1219
  668MOL0     H90115   3.064   1.207   8.803 -3.3783 -0.4444  3.6311
  668MOL0     H90116   3.232   1.204   8.859 -0.9637 -1.8602 -0.2364
  668MOL0     H90117   3.169   1.232   9.092 -2.2967  1.8875  1.8500
  668MOL0     H90118   3.004   1.273   9.049  0.2644  0.1599  1.9780
  668MOL0     H90119   3.165   1.011   9.054  1.2097  1.8734  4.0808
  668MOL0     H90120   3.028   1.048   9.148 -0.6215  0.8980  0.7130
  668MOL0     H90121   2.929   1.051   8.870 -0.7146  0.0258 -0.1465
  668MOL0     H90122   3.060   0.945   8.863  0.1985  2.3815  0.4519
  668MOL0     H90123   2.824   0.855   8.888 -0.1498 -1.5089  0.6088
  668MOL0     H90124   2.918   0.796   9.021 -2.1415 -0.9693  0.0517
  668MOL0     H90125   2.834   0.915   9.183  0.1058  0.0227 -0.5977
  668MOL0     H90126   2.758   1.045   9.078 -4.3005  0.3354  2.5293
  668MOL0     H90127   2.612   0.874   8.992  2.6281  4.7836  0.1672
  668MOL0     H90128   2.647   0.755   9.115 -1.8514 -1.3454 -2.0464
  668MOL0     H90129   2.451   0.890   9.178 -0.6246  0.4559  3.9871
  668MOL0     H90130   2.545   1.045   9.160 -1.8893  0.2797 -0.8050
  668MOL0     H90131   2.529   1.138   9.415 -0.1807  0.6327  3.7782
  668MOL0     H90132   2.633   0.995   9.729 -1.9094  0.9837  2.0379
  668MOL0     H90133   2.508   1.103   9.683 -2.4103 -1.5955  1.2429
  668MOL0     H90134   2.480   0.834   9.786 -0.0419 -0.2284 -0.9354
  668MOL0     H90135   2.357   0.922   9.693 -1.4781  0.2690  1.9527
  668MOL0     H90136   2.337   0.951   9.945 -0.2786 -0.0639 -0.6561
  668MOL0     H90137   2.373   1.105   9.867  2.7805  0.9046 -1.3759
  668MOL0     H90138   2.492   1.044  10.078 -1.3516 -0.4474 -1.0941
  668MOL0     H90139   2.582   1.123   9.942  2.0911 -1.3284 -2.8664
  668MOL0     H90140   2.858   0.800  10.034  1.7203 -4.2311 -1.1968
  668MOL0     H90141   2.974   0.663  10.143 -2.9594  2.6136 -1.4207
  668MOL0     H90142   2.941   0.483  10.171 -1.9122 -0.6368  0.2417
  668MOL0     H90143   2.958   0.554  10.011  0.2278 -2.2863  0.8404
  668MOL0     H90144   2.386   0.238  10.218 -0.8910 -0.6282  2.3800
  668MOL0     H90145   2.391  -0.005  10.252  0.5417 -0.8243 -0.3533
  668MOL0     H90146   2.648  -0.160  10.249  0.3047  0.0177 -1.0174
  668MOL0     H90147   2.681  -0.262  10.395 -0.8950  0.7694  1.3697
  668MOL0     H90148   2.432  -0.342  10.373 -1.4264 -0.0245  0.4811
  668MOL0     H90149   2.421  -0.240  10.222  1.6794 -2.5450 -2.6366
  668MOL0     H90150   2.602  -0.479  10.227 -0.1995  0.9660  1.8790
  668MOL0     H90151   2.622  -0.349  10.129 -2.3433  1.1528 -2.1894
  668MOL0     H90152   2.372  -0.519  10.152  0.7652  0.0988  0.5567
  668MOL0     H90153   2.369  -0.377  10.053 -1.5438 -2.5778 -0.4990
  668MOL0     H90154   2.567  -0.606  10.034  1.7385  1.3167 -0.2671
  668MOL0     H90155   2.572  -0.471   9.924  1.1853 -0.1208  0.2275
  668MOL0     H90156   2.316  -0.645   9.963 -0.6111  1.5255 -1.8179
  668MOL0     H90157   2.355  -0.561   9.825 -2.5602 -2.5125 -0.6382
  668MOL0     H90158   2.523  -0.800   9.919 -0.5094  0.4028  1.0221
  668MOL0     H90159   2.553  -0.685   9.782  0.7414 -0.7164 -0.2026
  668MOL0     H90160   2.315  -0.791   9.702 -1.8830  1.5880  3.0411
  668MOL0     H90161   2.316  -0.885   9.853  2.8382 -2.3175  0.6337
  668MOL0     H90162   2.711   0.052  10.521  1.0011 -0.8778 -1.2875
  668MOL0     H90163   2.698   0.298  10.489  1.9418 -0.3006 -2.7548
  668MOL0     H90164   2.435   0.599  10.160 -0.2937 -0.3111 -0.1967
  668MOL0     H90165   2.431   0.800  10.049  1.4813  2.4130  1.5147
  668MOL0     H90166   2.903   1.326   8.759  0.8276  1.3449 -1.2619
  668MOL0     H90167   2.695   1.454   8.812 -0.4289 -0.5227 -0.3157
  668MOL0     H90168   2.448   1.740   9.013 -0.4954 -0.2591  0.5558
  668MOL0     H90169   2.233   1.856   8.996  0.3739  0.3315  1.5633
  668MOL0     H90170   2.075   1.891   8.839 -0.6663 -0.1836 -0.1937
  668MOL0     H90171   1.978   2.032   8.804  0.4986 -0.4944  0.5593
  668MOL0     H90172   2.001   1.866   8.632 -3.5209  2.0388  2.3685
  668MOL0     H90173   2.165   1.902   8.606 -0.6077  0.4283 -0.8466
  668MOL0     H90174   2.083   2.034   8.427 -3.4089  2.1087 -1.3988
  668MOL0     H90175   2.144   2.123   8.551  0.4000 -0.6132  1.8460
  668MOL0     H90176   1.844   2.068   8.519  2.3074 -2.2565 -0.3271
  668MOL0     H90177   1.929   2.206   8.446  1.1362 -0.7629 -1.2861
  668MOL0     H90178   1.838   2.324   8.846 -1.8951  1.3252 -0.2629
  668MOL0     H90179   2.408   2.156   8.744  2.9203 -0.2363 -0.7380
  668MOL0     H90180   2.623   2.072   8.790  0.5481 -0.1373  1.6958
  669MOL0     O90181  11.169   2.866   4.747 -0.1144  0.4632 -0.0278
  669MOL0     C90182  11.059   2.870   4.701  0.3003  0.4936 -0.0968
  669MOL0     O90183  11.030   2.923   4.580 -0.1133 -0.1869 -0.3408
  669MOL0     C90184  11.114   3.019   4.536 -0.6069  0.2254  1.3806
  669MOL0     C90185  11.235   2.996   4.464 -0.2742  0.1986  1.0253
  669MOL0     C90186  11.334   3.090   4.453  0.7253 -0.2882  0.9462
  669MOL0     C90187  11.314   3.220   4.491 -0.0601  1.0027 -0.2197
  669MOL0     O90188  11.418   3.304   4.465  0.7134 -0.6612 -0.3110
  669MOL0     C90189  11.399   3.443   4.478 -0.0213  0.2881 -0.5825
  669MOL0     C90190  11.515   3.511   4.407 -0.6417 -0.4091 -0.1388
  669MOL0     C90191  11.528   3.666   4.446 -0.2965 -0.1839  0.2125
  669MOL0     C90192  11.434   3.751   4.355  0.0275  0.1740 -0.1360
  669MOL0     C90193  11.422   3.905   4.387 -0.2023 -0.6673 -0.4704
  669MOL0     C90194  11.561   3.975   4.401 -0.2252  0.1194  0.4550
  669MOL0     C90195  11.547   4.117   4.450 -0.5622  0.1494 -0.2519
  669MOL0     C90196  11.682   4.180   4.445  0.6340  0.6629  0.6985
  669MOL0     N90197  11.673   4.319   4.498  0.2252 -0.5201 -0.5202
  669MOL0     C90198  11.618   4.424   4.425  0.5749 -1.0690 -0.5877
  669MOL0     C90199  11.593   4.521   4.520  0.2392  0.7208 -0.3051
  669MOL0     C90200  11.527   4.654   4.492 -0.2437 -0.3990 -0.2605
  669MOL0     C90201  11.385   4.637   4.440  0.3840  0.1608 -0.2709
  669MOL0     C90202  11.334   4.777   4.382  0.0935 -0.3951 -0.0691
  669MOL0     C90203  11.380   4.800   4.238  0.1974 -0.1060  0.4873
  669MOL0     O90204  11.515   4.846   4.223 -0.0775 -0.1024 -0.3335
  669MOL0     C90205  11.544   4.915   4.113 -0.2005 -0.7478  0.1942
  669MOL0     C90206  11.483   5.034   4.082 -0.3898 -0.0313 -0.4790
  669MOL0     C90207  11.514   5.101   3.958  0.4346 -0.2632 -0.9735
  669MOL0     C90208  11.416   5.220   3.943  0.5497  0.1714 -0.0868
  669MOL0     C90209  11.596   5.035   3.862 -0.1477  0.6405 -0.4117
  669MOL0     C90210  11.605   5.087   3.723  0.5025 -0.1137 -0.4998
  669MOL0     O90211  11.648   4.989   3.632 -0.8010  0.3051  0.5166
  669MOL0     C90212  11.683   5.029   3.498  0.2554  0.0532  0.0284
  669MOL0     C90213  11.630   4.968   3.388  1.3897 -0.3009  0.3839
  669MOL0     C90214  11.670   5.011   3.256  0.6874  0.1091 -0.0839
  669MOL0     C90215  11.740   5.124   3.229  0.8718 -0.2158  0.1764
  669MOL0     O90216  11.766   5.167   3.100  0.3212 -0.0208  0.3650
  669MOL0     C90217  11.733   5.298   3.064  0.5192  0.3476  0.6133
  669MOL0     C90218  11.661   5.319   2.932  0.2390  0.8413 -0.4539
  669MOL0     C90219  11.595   5.452   2.935 -0.2699  0.3771 -0.0530
  669MOL0     C90220  11.513   5.470   2.805  0.9883  0.8016 -0.0791
  669MOL0     C90221  11.404   5.581   2.813 -0.0234  0.0185  0.2846
  669MOL0     C90222  11.465   5.724   2.834 -0.3693  0.5520  0.5112
  669MOL0     C90223  11.353   5.835   2.848 -0.3297 -0.4205  0.1341
  669MOL0     C90224  11.424   5.969   2.874  0.3604 -0.1604 -0.1930
  669MOL0    Cl90225  11.299   6.086   2.930 -0.5466  0.0846  0.1835
  669MOL0     C90226  11.791   5.188   3.340  0.0344 -0.6401 -1.0039
  669MOL0     C90227  11.765   5.140   3.475 -0.9375 -0.5225 -0.5728
  669MOL0     O90228  11.587   5.204   3.700  0.2170  0.0876 -0.0226
  669MOL0     C90229  11.660   4.909   3.902 -0.8271 -0.1979 -0.3699
  669MOL0     C90230  11.638   4.857   4.024 -0.2745 -1.1652 -1.5483
  669MOL0     N90231  11.639   4.474   4.641  0.7855  0.2273 -0.3534
  669MOL0     N90232  11.695   4.354   4.630  0.1642 -0.0611 -0.6185
  669MOL0     C90233  11.193   3.249   4.555  0.3411  0.2889  0.5631
  669MOL0     C90234  11.090   3.157   4.573 -0.0050  0.4535 -0.3546
  669MOL0     C90235  10.946   2.812   4.767  0.2794 -0.2988  0.0701
  669MOL0     C90236  10.807   2.827   4.724  0.1811 -0.6828  0.7183
  669MOL0     C90237  10.698   2.774   4.790 -0.6820 -0.2742  1.1303
  669MOL0     C90238  10.715   2.708   4.916 -0.8841  0.3954 -0.2612
  669MOL0     O90239  10.602   2.676   4.975 -0.0261  0.3388 -0.3547
  669MOL0     C90240  10.608   2.580   5.079 -0.1552  0.2227 -0.0233
  669MOL0     C90241  10.467   2.517   5.096 -1.1933  0.3423  0.6450
  669MOL0     C90242  10.424   2.430   4.967  0.3186 -0.4566 -2.2581
  669MOL0     C90243  10.277   2.381   4.990 -0.2064 -0.0085 -0.5458
  669MOL0     C90244  10.258   2.284   5.095 -0.2076  0.0863 -0.3920
  669MOL0     C90245  10.242   2.189   5.172  0.5014  0.0533  0.5961
  669MOL0     C90246  10.850   2.709   4.971  0.3942  0.2077 -0.3265
  669MOL0     C90247  10.964   2.750   4.898 -0.5619 -0.0849 -0.1500
  669MOL0     H90248  11.263   2.893   4.445  0.7787  0.6502  0.0591
  669MOL0     H90249  11.425   3.053   4.409  1.3902 -0.6654  2.5510
  669MOL0     H90250  11.309   3.474   4.424  1.4109  3.5440 -1.2999
  669MOL0     H90251  11.397   3.470   4.584 -2.1000 -0.3241 -0.4121
  669MOL0     H90252  11.611   3.470   4.442  0.3500  1.8172 -0.0510
  669MOL0     H90253  11.502   3.502   4.299 -3.4913  1.8056 -0.1021
  669MOL0     H90254  11.512   3.685   4.552  2.8859  0.5563  0.6673
  669MOL0     H90255  11.628   3.687   4.408  1.4375 -3.5269  2.3998
  669MOL0     H90256  11.465   3.729   4.252 -0.1786  0.0306 -0.1666
  669MOL0     H90257  11.333   3.711   4.368  0.4815 -0.0159  4.5973
  669MOL0     H90258  11.368   3.943   4.300  2.3964 -1.0329 -2.3897
  669MOL0     H90259  11.365   3.924   4.478 -1.6069 -1.5122 -1.1513
  669MOL0     H90260  11.622   3.910   4.464  1.6972  0.7967 -0.6461
  669MOL0     H90261  11.605   3.980   4.301  0.6111  2.1318  0.8682
  669MOL0     H90262  11.470   4.169   4.392 -0.9215  2.8901  2.4350
  669MOL0     H90263  11.522   4.118   4.556  1.7968  1.0717  0.3522
  669MOL0     H90264  11.720   4.176   4.342 -1.6930 -1.3313 -0.1890
  669MOL0     H90265  11.742   4.114   4.508 -0.7048 -1.8280 -0.5005
  669MOL0     H90266  11.595   4.420   4.319 -1.3848 -2.3480 -0.1738
  669MOL0     H90267  11.521   4.695   4.593  0.0613 -1.6783  0.3025
  669MOL0     H90268  11.579   4.723   4.425 -2.3362  0.2213 -1.3292
  669MOL0     H90269  11.323   4.610   4.526 -1.1399  0.4962 -1.2246
  669MOL0     H90270  11.372   4.556   4.368 -1.4338  0.1932 -0.0171
  669MOL0     H90271  11.339   4.864   4.448  0.4601 -2.8751  3.4747
  669MOL0     H90272  11.227   4.757   4.385 -0.5865  2.6872  3.5566
  669MOL0     H90273  11.314   4.868   4.182  0.8178 -0.0080 -0.1397
  669MOL0     H90274  11.371   4.703   4.188  1.3250 -1.1847  2.2530
  669MOL0     H90275  11.397   5.061   4.141  0.3214 -1.6138  1.4200
  669MOL0     H90276  11.335   5.205   3.871 -1.3786  5.1673  0.6383
  669MOL0     H90277  11.379   5.247   4.042 -2.1513  0.3335 -1.0749
  669MOL0     H90278  11.463   5.308   3.899 -3.0691  1.8314 -0.9990
  669MOL0     H90279  11.558   4.887   3.400 -0.6513  1.0466 -1.8581
  669MOL0     H90280  11.635   4.947   3.175 -0.1317  1.3579 -0.7399
  669MOL0     H90281  11.659   5.329   3.138  1.3783  1.8931  0.8735
  669MOL0     H90282  11.821   5.363   3.072  1.0935 -0.1532 -1.0506
  669MOL0     H90283  11.716   5.298   2.840 -0.9706  1.5557 -1.3674
  669MOL0     H90284  11.583   5.242   2.939  0.4167  0.5722 -1.3309
  669MOL0     H90285  11.668   5.534   2.932  0.3728 -0.1862 -0.2215
  669MOL0     H90286  11.534   5.474   3.023 -0.5198 -1.3828  0.2437
  669MOL0     H90287  11.579   5.485   2.719  3.4736 -0.6128  1.4287
  669MOL0     H90288  11.462   5.376   2.781  1.3320  0.6553 -0.2440
  669MOL0     H90289  11.347   5.541   2.897  0.6573 -2.0200 -0.1773
  669MOL0     H90290  11.337   5.594   2.728 -0.5791  1.3295  0.8957
  669MOL0     H90291  11.519   5.713   2.928  1.9671  0.3447 -0.7624
  669MOL0     H90292  11.539   5.738   2.754 -1.7946  0.3487 -0.8837
  669MOL0     H90293  11.269   5.808   2.914 -1.4374  1.2018 -0.5520
  669MOL0     H90294  11.305   5.858   2.753  0.9762  2.2282  0.0235
  669MOL0     H90295  11.481   6.012   2.791 -1.8014  0.4198 -1.4754
  669MOL0     H90296  11.495   5.952   2.955 -1.3543  1.4250  1.7386
  669MOL0     H90297  11.862   5.268   3.324 -0.6649  0.4726  1.0850
  669MOL0     H90298  11.812   5.181   3.564  0.7187 -1.3837 -1.0068
  669MOL0     H90299  11.738   4.875   3.834 -0.9198  1.1286 -1.1782
  669MOL0     H90300  11.684   4.761   4.042  1.8676  0.1014  0.1296
  669MOL0     H90301  11.169   3.352   4.582 -0.0963  0.5677 -0.7913
  669MOL0     H90302  10.992   3.180   4.613 -0.7068  1.8882 -2.6929
  669MOL0     H90303  10.779   2.880   4.634  2.5453 -4.1753 -2.3709
  669MOL0     H90304  10.599   2.801   4.754  1.3106  1.5162 -3.8489
  669MOL0     H90305  10.679   2.498   5.062 -1.2034 -0.2085 -2.9761
  669MOL0     H90306  10.641   2.621   5.175  0.7859 -3.7415  1.5491
  669MOL0     H90307  10.397   2.601   5.105  0.3515  1.9551 -1.4775
  669MOL0     H90308  10.471   2.467   5.193  4.2084  3.0052  2.1913
  669MOL0     H90309  10.493   2.346   4.958 -0.9740 -1.9664  0.7016
  669MOL0     H90310  10.434   2.484   4.872 -2.2029  0.8015 -1.9045
  669MOL0     H90311  10.256   2.335   4.893  1.0366 -0.9824 -0.3954
  669MOL0     H90312  10.209   2.461   5.017 -1.6002 -1.5326  0.7337
  669MOL0     H90313  10.212   2.100   5.224  3.3403 -2.2041 -1.3459
  669MOL0     H90314  10.854   2.676   5.074  1.5364  0.8129 -0.1604
  669MOL0     H90315  11.064   2.752   4.940 -1.2302  0.3830  1.5098
  670MOL0     O90316  10.505   2.327   9.597  0.9258 -0.6173  0.3487
  670MOL0     C90317  10.569   2.231   9.647  0.6217  0.3265 -0.6831
  670MOL0     O90318  10.677   2.245   9.732  0.0339 -0.0010  0.0290
  670MOL0     C90319  10.703   2.367   9.797  0.7721  0.1312 -0.2213
  670MOL0     C90320  10.838   2.382   9.847  0.2875  0.2516 -0.5311
  670MOL0     C90321  10.864   2.482   9.938  0.3679  0.7284  1.2439
  670MOL0     C90322  10.763   2.575   9.967 -0.0384  0.2450  0.1445
  670MOL0     O90323  10.794   2.672  10.061  0.5305 -0.3559 -0.8155
  670MOL0     C90324  10.906   2.675  10.150  0.2526  0.3496  0.0635
  670MOL0     C90325  10.908   2.810  10.232 -0.6702 -0.0675 -0.5500
  670MOL0     C90326  11.043   2.817  10.313  0.2959 -0.3844 -0.1418
  670MOL0     C90327  11.036   2.944  10.398 -0.2441  0.0929 -0.1754
  670MOL0     C90328  11.171   2.972  10.473 -0.1520 -0.3481  0.7434
  670MOL0     C90329  11.179   3.092  10.569 -0.8972  0.4066  0.1555
  670MOL0     C90330  11.317   3.137  10.619 -0.0883 -0.3899  0.1774
  670MOL0     C90331  11.291   3.238  10.731 -0.0281  0.3453 -0.3403
  670MOL0     N90332  11.393   3.263  10.831  0.2267 -0.5510  0.3395
  670MOL0     C90333  11.390   3.307  10.961  1.0588 -0.1150 -0.1958
  670MOL0     C90334  11.511   3.367  10.993  0.3307  0.2090  0.4201
  670MOL0     C90335  11.556   3.390  11.135  0.1347  0.1951  0.7812
  670MOL0     C90336  11.655   3.278  11.186 -0.5626  0.5662 -0.1555
  670MOL0     C90337  11.592   3.192  11.288 -0.0961  0.7993  0.0788
  670MOL0     C90338  11.457   3.114  11.255 -0.6504  0.7395  0.2007
  670MOL0     O90339  11.463   3.030  11.133 -0.3476 -0.2773  0.5863
  670MOL0     C90340  11.350   2.978  11.078 -0.5219  0.0973 -0.6890
  670MOL0     C90341  11.230   2.949  11.150 -0.3083  0.4185  0.2683
  670MOL0     C90342  11.122   2.872  11.088 -0.8278 -0.1851 -0.6271
  670MOL0     C90343  11.002   2.846  11.168  0.0902 -0.0060  0.8753
  670MOL0     C90344  11.133   2.839  10.950  0.1949 -0.3899 -0.1255
  670MOL0     C90345  11.023   2.789  10.870 -0.1207  0.1638 -0.1401
  670MOL0     O90346  11.055   2.735  10.746  0.3681  0.0099 -0.2624
  670MOL0     C90347  10.961   2.672  10.666  0.6803 -0.0571 -0.2395
  670MOL0     C90348  10.993   2.548  10.613  0.3629 -0.7190 -0.4651
  670MOL0     C90349  10.899   2.479  10.534 -0.3015 -0.7629  0.2427
  670MOL0     C90350  10.773   2.548  10.499  1.4620  0.3649 -0.2160
  670MOL0     O90351  10.701   2.498  10.397 -1.2146 -0.7069  0.5127
  670MOL0     C90352  10.727   2.379  10.329 -0.6549 -0.4988 -0.0563
  670MOL0     C90353  10.606   2.340  10.249  0.1795 -0.4385 -0.0716
  670MOL0     C90354  10.627   2.212  10.169  0.1245 -0.0194 -0.6012
  670MOL0     C90355  10.511   2.168  10.072  0.3384 -0.0896 -0.3341
  670MOL0     C90356  10.550   2.043   9.997  0.9990 -0.0246  1.1081
  670MOL0     C90357  10.426   1.988   9.923 -0.1051 -0.5839  0.1231
  670MOL0     C90358  10.442   1.839   9.882 -0.3573  0.2852  0.9970
  670MOL0     C90359  10.321   1.780   9.820  0.2426  0.4801 -0.0955
  670MOL0    Cl90360  10.170   1.762   9.934  0.6090 -0.1289 -0.0916
  670MOL0     C90361  10.747   2.679  10.546  0.9442  0.0941 -0.0170
  670MOL0     C90362  10.833   2.725  10.637 -0.0689 -0.2618  0.1052
  670MOL0     O90363  10.909   2.788  10.917  0.2132  0.6042 -0.5009
  670MOL0     C90364  11.245   2.878  10.879 -0.7507  0.3143 -0.2221
  670MOL0     C90365  11.360   2.939  10.945  0.3688 -0.7160  0.6753
  670MOL0     N90366  11.580   3.355  10.873  0.3207 -0.6857  0.9801
  670MOL0     N90367  11.514   3.293  10.783 -0.6108  0.0310 -0.5282
  670MOL0     C90368  10.647   2.586   9.898 -0.5963 -0.6564 -1.0225
  670MOL0     C90369  10.614   2.475   9.823  0.1656  0.0178  0.6163
  670MOL0     C90370  10.552   2.097   9.580  0.1991 -0.2809 -0.2066
  670MOL0     C90371  10.642   1.995   9.600  0.0372 -0.3618  0.2997
  670MOL0     C90372  10.629   1.870   9.530 -0.8436  0.0575  0.3947
  670MOL0     C90373  10.525   1.847   9.443  0.5998 -0.4226  1.3080
  670MOL0     O90374  10.503   1.750   9.352 -0.5761  0.6323  0.0887
  670MOL0     C90375  10.584   1.640   9.331 -0.3680  0.4580 -0.7101
  670MOL0     C90376  10.501   1.510   9.307  0.6504 -0.2192 -0.2079
  670MOL0     C90377  10.386   1.495   9.405  0.1407 -0.1884 -0.1446
  670MOL0     C90378  10.315   1.363   9.382  0.3079 -0.3748  0.1390
  670MOL0     C90379  10.377   1.243   9.433 -0.9429 -1.2489 -0.1457
  670MOL0     C90380  10.417   1.140   9.475  0.4507 -0.1387 -0.9955
  670MOL0     C90381  10.446   1.958   9.414  1.6682  0.3521 -1.1895
  670MOL0     C90382  10.456   2.080   9.483  0.0895 -0.1109 -1.1632
  670MOL0     H90383  10.910   2.304   9.827  0.3398  0.5885 -1.7478
  670MOL0     H90384  10.961   2.490   9.986  0.7558 -1.5940  0.9547
  670MOL0     H90385  10.906   2.584  10.210  0.0924 -1.6175 -2.7532
  670MOL0     H90386  10.996   2.680  10.088 -1.0129 -0.4235 -1.9245
  670MOL0     H90387  10.907   2.901  10.172 -1.5312  2.2148  2.6671
  670MOL0     H90388  10.831   2.810  10.310  1.1082 -3.0102  1.3802
  670MOL0     H90389  11.048   2.736  10.387 -1.5907 -0.8534 -0.4641
  670MOL0     H90390  11.126   2.815  10.242  0.3047  1.0935 -0.2090
  670MOL0     H90391  11.015   3.029  10.333 -1.7741 -0.4637 -0.4360
  670MOL0     H90392  10.956   2.931  10.472  2.1004  0.4948  2.6181
  670MOL0     H90393  11.204   2.886  10.531  1.6707 -0.4797 -0.4148
  670MOL0     H90394  11.252   2.982  10.401 -1.1581 -1.4867 -0.5994
  670MOL0     H90395  11.138   3.178  10.515  1.0869  2.1069  1.1970
  670MOL0     H90396  11.109   3.079  10.651  0.7383  0.2169  1.5905
  670MOL0     H90397  11.379   3.058  10.662 -0.6621  0.5981  3.0564
  670MOL0     H90398  11.374   3.191  10.543  0.0957  0.3404  0.8180
  670MOL0     H90399  11.219   3.189  10.796  3.1782 -0.8276  2.6339
  670MOL0     H90400  11.258   3.336  10.694 -1.1455  0.3492  0.6264
  670MOL0     H90401  11.305   3.283  11.024  1.2442 -2.5757 -0.7577
  670MOL0     H90402  11.612   3.484  11.133  0.4692  0.0051  0.9772
  670MOL0     H90403  11.473   3.403  11.205 -0.6105 -1.5231  0.2544
  670MOL0     H90404  11.730   3.344  11.228 -2.2269  2.6027 -0.2143
  670MOL0     H90405  11.688   3.221  11.098  1.0757 -0.8820  1.3438
  670MOL0     H90406  11.568   3.247  11.380  0.0157 -0.1318  0.6750
  670MOL0     H90407  11.659   3.110  11.312 -2.5060 -1.2212  0.3162
  670MOL0     H90408  11.370   3.180  11.243 -1.7434 -0.8936 -1.4187
  670MOL0     H90409  11.446   3.052  11.344  3.4582  0.0532  0.4002
  670MOL0     H90410  11.221   2.984  11.252 -4.1127  0.2930  0.1458
  670MOL0     H90411  11.014   2.879  11.271 -2.2894  0.7816  0.9517
  670MOL0     H90412  10.917   2.903  11.129  1.0852 -0.1040 -1.6296
  670MOL0     H90413  10.974   2.741  11.168  1.8927 -0.6983 -3.4072
  670MOL0     H90414  11.084   2.507  10.656 -0.3124 -0.2114  1.5754
  670MOL0     H90415  10.932   2.384  10.495 -0.2074  0.2508 -2.3095
  670MOL0     H90416  10.811   2.391  10.260 -1.8713  0.6477 -1.4136
  670MOL0     H90417  10.745   2.294  10.395  3.0075 -0.6570 -1.0371
  670MOL0     H90418  10.539   2.316  10.331  2.3444 -4.2060  0.8132
  670MOL0     H90419  10.565   2.426  10.195 -1.9962 -1.5993 -0.3503
  670MOL0     H90420  10.624   2.128  10.238 -0.3548 -0.9264 -1.6860
  670MOL0     H90421  10.721   2.217  10.113 -1.6233  0.9272 -3.6935
  670MOL0     H90422  10.422   2.151  10.133  0.3090  0.6270 -0.1628
  670MOL0     H90423  10.478   2.251  10.009 -1.1229  0.1400  0.6902
  670MOL0     H90424  10.595   1.966  10.061 -1.3816 -2.5003  0.0400
  670MOL0     H90425  10.633   2.057   9.927  0.5024 -1.8923  0.0660
  670MOL0     H90426  10.337   2.002   9.985 -0.1200  0.1776 -0.0537
  670MOL0     H90427  10.416   2.048   9.831 -0.1913 -1.0935 -0.2042
  670MOL0     H90428  10.456   1.795   9.981 -0.4786  0.7498  1.2260
  670MOL0     H90429  10.527   1.828   9.815  0.7041  3.3666  1.6392
  670MOL0     H90430  10.334   1.685   9.767  1.5293  2.1237 -2.9866
  670MOL0     H90431  10.299   1.851   9.740 -1.0320  0.0940 -0.1266
  670MOL0     H90432  10.674   2.741  10.496 -0.5108 -3.3363 -2.6367
  670MOL0     H90433  10.802   2.817  10.685 -3.1114 -2.0098  1.8250
  670MOL0     H90434  11.246   2.885  10.771 -1.5700  2.1963 -0.1485
  670MOL0     H90435  11.452   2.971  10.897 -2.0373  1.3723 -3.1253
  670MOL0     H90436  10.575   2.666   9.915  0.1915  0.1163 -1.2390
  670MOL0     H90437  10.511   2.485   9.790 -0.5673  4.3223  3.4110
  670MOL0     H90438  10.723   2.016   9.669 -1.0807 -1.6188  2.0903
  670MOL0     H90439  10.695   1.784   9.537 -1.3361 -0.1655  3.6457
  670MOL0     H90440  10.654   1.646   9.247  1.4120  2.1444  0.7914
  670MOL0     H90441  10.642   1.624   9.422  0.4504 -0.6695 -1.3973
  670MOL0     H90442  10.565   1.422   9.316 -0.5764 -1.2153 -0.7976
  670MOL0     H90443  10.460   1.529   9.208 -1.7974 -1.0046  0.5807
  670MOL0     H90444  10.316   1.579   9.395  0.0145 -0.2180  0.4406
  670MOL0     H90445  10.437   1.492   9.502 -0.4096 -1.6832  0.1129
  670MOL0     H90446  10.309   1.356   9.273 -0.4760 -3.1915  0.2916
  670MOL0     H90447  10.210   1.369   9.411 -0.2102  2.1103 -1.9417
  670MOL0     H90448  10.437   1.043   9.517 -2.3346 -0.6990 -0.7406
  670MOL0     H90449  10.376   1.944   9.332 -1.5375 -2.5694  1.7222
  670MOL0     H90450  10.395   2.156   9.436 -1.0308 -1.9685 -2.8586
  671MOL0     O90451   2.826   1.246   7.598  0.4323 -0.7056 -0.7454
  671MOL0     C90452   2.854   1.365   7.598  0.0558  0.6111 -0.6660
  671MOL0     O90453   2.801   1.457   7.678 -0.3338 -0.7389  0.2738
  671MOL0     C90454   2.699   1.433   7.774  0.4563  0.2339  0.8496
  671MOL0     C90455   2.678   1.543   7.853 -0.2241  1.4189  0.0327
  671MOL0     C90456   2.575   1.537   7.952 -0.6294  0.4058  0.3652
  671MOL0     C90457   2.489   1.423   7.960 -1.4908  0.0786  0.6549
  671MOL0     O90458   2.382   1.424   8.046 -0.2551 -0.2804 -0.0042
  671MOL0     C90459   2.324   1.299   8.089 -1.1922 -0.9300 -0.2901
  671MOL0     C90460   2.228   1.356   8.188 -0.0597 -0.3354 -0.0532
  671MOL0     C90461   2.133   1.236   8.228  0.6344 -0.7897  0.4287
  671MOL0     C90462   2.032   1.294   8.330 -0.4974  0.1605  0.2755
  671MOL0     C90463   1.915   1.202   8.346  0.7044 -0.3441 -0.3521
  671MOL0     C90464   1.827   1.254   8.468 -0.3859  0.3887  0.5517
  671MOL0     C90465   1.675   1.197   8.455 -1.3172  0.1697 -0.6223
  671MOL0     C90466   1.604   1.247   8.581 -0.5679 -0.4448 -0.2645
  671MOL0     N90467   1.552   1.381   8.586 -0.3285  0.4935  0.5032
  671MOL0     C90468   1.443   1.415   8.509  0.5969 -0.5014 -0.0038
  671MOL0     C90469   1.410   1.539   8.546  0.2557 -0.2921  0.8828
  671MOL0     C90470   1.296   1.629   8.485 -1.1416 -0.0063 -0.0828
  671MOL0     C90471   1.160   1.568   8.479 -0.3325  0.8701  0.0506
  671MOL0     C90472   1.065   1.682   8.437  0.7896  0.3792  0.0594
  671MOL0     C90473   0.918   1.647   8.474 -0.4364 -0.1277  1.0138
  671MOL0     O90474   0.874   1.556   8.377  0.0211 -0.0702  0.5682
  671MOL0     C90475   0.771   1.474   8.422 -0.3168 -0.6583 -1.6940
  671MOL0     C90476   0.631   1.505   8.405  1.1752  0.3760 -0.2661
  671MOL0     C90477   0.537   1.411   8.448 -0.3589  0.2369  0.0049
  671MOL0     C90478   0.395   1.454   8.418  0.4820  1.1120 -0.7430
  671MOL0     C90479   0.576   1.279   8.497  0.3834 -0.8936 -0.2718
  671MOL0     C90480   0.487   1.173   8.537  0.8110  0.6609 -0.2134
  671MOL0     O90481   0.530   1.050   8.513  0.7733  0.0133  0.5146
  671MOL0     C90482   0.481   0.943   8.582 -0.4246  0.3181  0.3812
  671MOL0     C90483   0.350   0.925   8.633 -0.9016  0.5099 -0.9458
  671MOL0     C90484   0.303   0.818   8.700 -0.5742  0.0685  0.7842
  671MOL0     C90485   0.395   0.719   8.742 -0.2320 -0.3690 -0.0138
  671MOL0     O90486   0.355   0.621   8.822 -0.1318  0.3008 -0.0671
  671MOL0     C90487   0.444   0.546   8.906  0.6238  0.4828 -0.7995
  671MOL0     C90488   0.380   0.481   9.033 -0.4043  0.6218 -0.6175
  671MOL0     C90489   0.256   0.409   9.000  0.1046  0.2415  0.1099
  671MOL0     C90490   0.186   0.332   9.118  0.0113  0.0425  0.6090
  671MOL0     C90491   0.084   0.239   9.061  0.2697  0.9930  0.8312
  671MOL0     C90492   0.135   0.115   8.985  0.0627  0.6059 -0.8738
  671MOL0     C90493   0.213   0.025   9.079 -0.3813 -0.0709  0.4302
  671MOL0     C90494   0.232  -0.115   9.013  0.0485  0.0485  0.0996
  671MOL0    Cl90495   0.344  -0.090   8.886  0.4254  0.2241 -0.5716
  671MOL0     C90496   0.521   0.722   8.678 -0.8051  1.1262  0.4842
  671MOL0     C90497   0.565   0.833   8.596 -0.2637 -0.1259 -0.2121
  671MOL0     O90498   0.376   1.211   8.577  0.0037 -0.7254  0.9762
  671MOL0     C90499   0.718   1.254   8.505  0.6166 -0.2996  0.4908
  671MOL0     C90500   0.819   1.347   8.471 -0.0126 -0.4662 -0.3640
  671MOL0     N90501   1.492   1.577   8.648  0.0591 -0.1264  0.3920
  671MOL0     N90502   1.576   1.478   8.672 -0.0040 -0.5453 -0.4084
  671MOL0     C90503   2.517   1.314   7.874 -0.1741 -0.2371  0.5706
  671MOL0     C90504   2.622   1.317   7.782  0.3793 -0.0553  0.5505
  671MOL0     C90505   2.957   1.407   7.494 -0.8190  0.0165 -0.2965
  671MOL0     C90506   2.992   1.546   7.485  0.6178  0.3892  0.6854
  671MOL0     C90507   3.091   1.588   7.393  0.2885 -0.5244 -0.1598
  671MOL0     C90508   3.161   1.500   7.314 -0.5189  0.8796  0.3055
  671MOL0     O90509   3.261   1.548   7.230 -0.4111  0.1509  0.9156
  671MOL0     C90510   3.363   1.629   7.291  0.1376  0.1502 -0.2932
  671MOL0     C90511   3.504   1.600   7.233  0.6322 -0.8424  0.2942
  671MOL0     C90512   3.549   1.463   7.291 -0.4518 -0.7720  0.3378
  671MOL0     C90513   3.520   1.347   7.189 -0.3918  0.6345  0.1207
  671MOL0     C90514   3.469   1.245   7.263  0.4662  0.2558 -0.0529
  671MOL0     C90515   3.407   1.167   7.333 -0.4570  0.7974  0.2526
  671MOL0     C90516   3.118   1.363   7.325 -0.0754 -0.4772  0.1145
  671MOL0     C90517   3.022   1.317   7.411  0.2883  0.3968  0.0940
  671MOL0     H90518   2.743   1.629   7.844  0.4670  0.8530 -0.4106
  671MOL0     H90519   2.575   1.616   8.026  0.9273 -0.8130  1.7596
  671MOL0     H90520   2.279   1.239   8.009 -1.6699  1.4446 -1.9214
  671MOL0     H90521   2.405   1.245   8.138  2.6111  1.4021 -3.3690
  671MOL0     H90522   2.290   1.391   8.271  3.8424 -0.9433 -2.4540
  671MOL0     H90523   2.174   1.440   8.144 -0.0239 -0.0374  0.4672
  671MOL0     H90524   2.076   1.205   8.140 -2.2287  1.4330  1.3440
  671MOL0     H90525   2.192   1.149   8.259  0.4770 -1.8446 -1.9906
  671MOL0     H90526   2.091   1.304   8.421 -0.8519  1.9761  0.3533
  671MOL0     H90527   1.997   1.396   8.312 -4.0626 -0.6658  1.5958
  671MOL0     H90528   1.863   1.207   8.249 -1.1231  1.5524  0.6373
  671MOL0     H90529   1.939   1.096   8.354 -0.4877 -1.0028 -3.8081
  671MOL0     H90530   1.876   1.236   8.564 -0.6572 -2.2635  0.2672
  671MOL0     H90531   1.820   1.361   8.447  0.8810  0.1922 -1.0897
  671MOL0     H90532   1.626   1.244   8.369  0.8322  3.2190 -0.3195
  671MOL0     H90533   1.679   1.089   8.439 -0.7885  0.4777 -3.0213
  671MOL0     H90534   1.682   1.254   8.658  1.0941 -1.3674 -1.7831
  671MOL0     H90535   1.530   1.170   8.604 -1.0886 -0.7681 -2.7814
  671MOL0     H90536   1.400   1.352   8.432  2.7434 -1.6296 -0.3683
  671MOL0     H90537   1.290   1.713   8.555 -2.0758 -1.7998  2.1343
  671MOL0     H90538   1.323   1.650   8.381  0.0992  0.9813  0.4224
  671MOL0     H90539   1.134   1.519   8.573  2.9890 -0.8899  0.2004
  671MOL0     H90540   1.155   1.487   8.406 -2.0864  0.6745  0.3529
  671MOL0     H90541   1.070   1.702   8.330 -0.4072 -1.3237 -0.3540
  671MOL0     H90542   1.094   1.775   8.487  1.8273 -0.1363  0.4438
  671MOL0     H90543   0.870   1.745   8.472  2.8505  1.9445  5.8723
  671MOL0     H90544   0.913   1.618   8.580 -0.8347  0.3200  1.1222
  671MOL0     H90545   0.594   1.595   8.357 -0.7652  0.9913  2.1912
  671MOL0     H90546   0.352   1.375   8.356 -0.4680 -0.2189  1.4815
  671MOL0     H90547   0.329   1.447   8.506  1.0868 -1.7509 -0.4177
  671MOL0     H90548   0.391   1.546   8.360  0.8000  2.5082  1.3360
  671MOL0     H90549   0.283   1.008   8.616 -0.7615  0.4351 -1.9453
  671MOL0     H90550   0.195   0.803   8.706 -1.0692  1.5185 -2.4828
  671MOL0     H90551   0.471   0.454   8.854  1.6957 -0.8853  1.9779
  671MOL0     H90552   0.531   0.601   8.943 -0.9681  1.1673  2.3758
  671MOL0     H90553   0.444   0.408   9.083 -1.3542 -1.0198 -1.6780
  671MOL0     H90554   0.356   0.559   9.106  3.7267  0.3430  1.2847
  671MOL0     H90555   0.279   0.330   8.927 -0.6747  0.5374 -0.4680
  671MOL0     H90556   0.182   0.475   8.955 -2.8682 -3.3875 -0.7999
  671MOL0     H90557   0.266   0.287   9.177 -0.0164  0.7108  1.1701
  671MOL0     H90558   0.144   0.404   9.189 -0.7568  0.6150 -0.3993
  671MOL0     H90559   0.014   0.282   8.989  0.6806  1.8755  0.9522
  671MOL0     H90560   0.014   0.190   9.129  0.1900 -1.8076 -1.0655
  671MOL0     H90561   0.053   0.057   8.943  1.4281 -4.0039  2.0542
  671MOL0     H90562   0.208   0.143   8.908  0.0865  2.4178 -0.2515
  671MOL0     H90563   0.165  -0.001   9.174  1.8673  3.0597  2.6281
  671MOL0     H90564   0.313   0.061   9.102 -0.3995  0.7851 -0.7861
  671MOL0     H90565   0.134  -0.155   8.987 -0.5827  1.3860  0.3714
  671MOL0     H90566   0.288  -0.184   9.078  1.0917 -0.4958 -1.3228
  671MOL0     H90567   0.586   0.638   8.697 -1.8854  0.2445  0.3441
  671MOL0     H90568   0.667   0.829   8.560  1.0081 -0.8334  3.0533
  671MOL0     H90569   0.737   1.161   8.558 -2.0724 -0.4742  1.3483
  671MOL0     H90570   0.923   1.317   8.462  0.8776  1.5900  1.9358
  671MOL0     H90571   2.449   1.230   7.871  0.3774 -0.6652 -0.9321
  671MOL0     H90572   2.610   1.238   7.709 -5.4895  1.6879 -0.9499
  671MOL0     H90573   2.950   1.619   7.554  0.5772  0.1135  0.9554
  671MOL0     H90574   3.117   1.694   7.387 -2.3758  0.4480  2.8064
  671MOL0     H90575   3.339   1.733   7.268  0.5755  0.3352  0.0597
  671MOL0     H90576   3.369   1.620   7.400 -0.0855 -1.1412 -0.3674
  671MOL0     H90577   3.571   1.683   7.257  0.1307 -1.1175  2.8348
  671MOL0     H90578   3.491   1.594   7.124 -0.8362 -0.3465  0.4171
  671MOL0     H90579   3.522   1.438   7.394  1.4015  0.0645  1.0685
  671MOL0     H90580   3.654   1.488   7.305 -0.4652 -2.0990  4.2909
  671MOL0     H90581   3.612   1.328   7.133 -0.7347 -1.6541  0.2104
  671MOL0     H90582   3.439   1.365   7.118 -0.3174  2.7228  0.4980
  671MOL0     H90583   3.354   1.094   7.391 -0.5669  0.1835 -0.6020
  671MOL0     H90584   3.168   1.295   7.257  4.0929  0.9698  1.4042
  671MOL0     H90585   2.996   1.212   7.410 -0.2217  0.5150 -1.5019
  672MOL0     O90586   9.941   5.411   7.081 -0.0181  0.1991 -0.0566
  672MOL0     C90587   9.874   5.509   7.040 -0.9028  0.5983 -0.7028
  672MOL0     O90588   9.771   5.499   6.952  0.8540  0.8161  0.0192
  672MOL0     C90589   9.736   5.375   6.903 -0.2863 -0.3151  0.3891
  672MOL0     C90590   9.607   5.325   6.928 -0.7791 -0.4011 -0.6781
  672MOL0     C90591   9.569   5.213   6.860  0.4099 -0.0787  0.0702
  672MOL0     C90592   9.645   5.149   6.758  1.0561 -0.1980 -0.7405
  672MOL0     O90593   9.602   5.045   6.680 -0.0158  0.1447 -0.1689
  672MOL0     C90594   9.459   5.031   6.668  0.0374 -0.2217 -0.1915
  672MOL0     C90595   9.442   4.984   6.527 -0.9861  0.0128  0.2508
  672MOL0     C90596   9.346   5.065   6.430  0.3514  0.1749  0.3059
  672MOL0     C90597   9.395   5.055   6.279  0.8982 -0.0025 -0.0534
  672MOL0     C90598   9.302   5.140   6.185  0.6284  0.1620  0.8934
  672MOL0     C90599   9.330   5.100   6.042 -0.9104 -0.0828  0.1970
  672MOL0     C90600   9.476   5.077   5.994  0.6635  0.3081 -0.6946
  672MOL0     C90601   9.516   4.931   5.975 -0.1875 -0.1841  0.2122
  672MOL0     N90602   9.661   4.918   5.925 -0.7113 -0.5515 -0.4652
  672MOL0     C90603   9.770   4.918   6.008  0.1056  0.2626 -0.1554
  672MOL0     C90604   9.876   4.880   5.936 -0.4081 -0.4977 -1.3325
  672MOL0     C90605  10.008   4.866   6.002 -0.5180 -0.2544 -0.4341
  672MOL0     C90606  10.043   4.996   6.077  0.3969  0.0283 -0.5111
  672MOL0     C90607  10.096   5.098   5.979  0.9084  0.4979  0.1116
  672MOL0     C90608   9.995   5.167   5.882  0.7431  0.7869 -0.5392
  672MOL0     O90609  10.050   5.276   5.811 -0.1138  0.2003 -0.0195
  672MOL0     C90610  10.072   5.395   5.869  0.2665  1.2907  1.1232
  672MOL0     C90611  10.159   5.484   5.800 -0.0777 -0.0112  0.2515
  672MOL0     C90612  10.186   5.614   5.852 -0.2027  0.6276 -0.2854
  672MOL0     C90613  10.249   5.715   5.754 -1.0105 -0.1263  1.0154
  672MOL0     C90614  10.145   5.645   5.990  0.1158 -0.8955 -0.2549
  672MOL0     C90615  10.158   5.775   6.052  0.4538 -0.3646 -0.2298
  672MOL0     O90616  10.073   5.797   6.162 -0.3328  0.5176 -0.3883
  672MOL0     C90617  10.020   5.920   6.188 -1.1025 -1.1832 -0.1045
  672MOL0     C90618   9.957   5.951   6.313  0.2873  0.2240 -0.0501
  672MOL0     C90619   9.909   6.080   6.344  1.4147  0.0766 -0.3400
  672MOL0     C90620   9.917   6.182   6.252 -0.3098 -0.5642  0.0771
  672MOL0     O90621   9.881   6.309   6.290 -0.5962  0.0377  0.3453
  672MOL0     C90622   9.918   6.424   6.201 -0.0134  1.5251 -0.3252
  672MOL0     C90623  10.066   6.462   6.184  0.3595 -0.3726 -0.2858
  672MOL0     C90624  10.086   6.574   6.081  0.4884  0.1899  0.4776
  672MOL0     C90625  10.084   6.714   6.143  0.0538  0.8664 -0.8672
  672MOL0     C90626  10.090   6.836   6.046  0.5229 -0.7697 -0.2490
  672MOL0     C90627   9.980   6.830   5.941  0.1848  0.0077 -0.1309
  672MOL0     C90628   9.940   6.960   5.864  0.2574  0.3820 -0.2426
  672MOL0     C90629   9.849   6.915   5.739 -0.3331 -0.5897  1.0190
  672MOL0    Cl90630   9.756   7.054   5.679  0.3000  0.5548  0.3053
  672MOL0     C90631   9.968   6.155   6.122  0.1300 -0.1860 -0.5794
  672MOL0     C90632  10.023   6.024   6.088  1.4587  0.2861 -0.5366
  672MOL0     O90633  10.258   5.844   6.036 -0.1786 -0.0113  0.3696
  672MOL0     C90634  10.062   5.549   6.063 -0.3629  0.1851  0.3342
  672MOL0     C90635  10.028   5.430   5.997  1.2280  0.3795  0.6600
  672MOL0     N90636   9.827   4.869   5.807  0.1101  0.4695  0.4914
  672MOL0     N90637   9.703   4.873   5.801  0.7936 -0.6769  0.1803
  672MOL0     C90638   9.774   5.202   6.731  0.0784 -0.8885 -1.0176
  672MOL0     C90639   9.816   5.322   6.801 -0.6214 -0.6425  0.1901
  672MOL0     C90640   9.907   5.647   7.091  0.3103  1.3097  0.2427
  672MOL0     C90641   9.828   5.760   7.060  0.1708  0.6304  0.6921
  672MOL0     C90642   9.844   5.888   7.115  0.6212 -0.2516 -1.1101
  672MOL0     C90643   9.936   5.900   7.221 -0.5579 -0.2313 -0.6768
  672MOL0     O90644   9.944   6.013   7.296  0.1671 -0.8153 -0.6512
  672MOL0     C90645  10.072   6.069   7.318  0.3597 -0.3322 -0.0289
  672MOL0     C90646  10.117   6.126   7.184  0.4660 -0.3268  0.5037
  672MOL0     C90647  10.252   6.185   7.187 -0.9060 -0.3934  0.2645
  672MOL0     C90648  10.246   6.335   7.206 -0.4241  1.1153  0.7221
  672MOL0     C90649  10.197   6.374   7.339 -1.1726 -1.1767 -0.6568
  672MOL0     C90650  10.162   6.415   7.450  0.5047  0.6307  0.1462
  672MOL0     C90651  10.018   5.794   7.244 -0.4285  0.0844  0.4043
  672MOL0     C90652  10.005   5.668   7.186  0.3323  0.5245  0.3942
  672MOL0     H90653   9.550   5.381   7.002  0.4834  0.5152 -0.3639
  672MOL0     H90654   9.470   5.177   6.886 -0.3206  1.7699 -0.0317
  672MOL0     H90655   9.419   4.957   6.738  1.6214  1.5898  2.8048
  672MOL0     H90656   9.411   5.129   6.673 -0.5771 -0.5737  1.1926
  672MOL0     H90657   9.541   4.989   6.481 -0.9412  1.2514  0.4618
  672MOL0     H90658   9.417   4.877   6.521 -1.4171 -0.0150  2.0687
  672MOL0     H90659   9.250   5.013   6.435  0.2599  0.2114 -0.8256
  672MOL0     H90660   9.339   5.169   6.463  3.3263  0.8017 -0.7500
  672MOL0     H90661   9.499   5.080   6.260  0.7647 -1.5407 -3.5534
  672MOL0     H90662   9.393   4.951   6.245 -0.9718  1.0056 -3.4625
  672MOL0     H90663   9.196   5.126   6.207  0.2198  0.4980 -0.7138
  672MOL0     H90664   9.319   5.246   6.200  1.0554  0.2538 -0.1593
  672MOL0     H90665   9.270   5.009   6.034 -0.6992 -0.4630  2.2581
  672MOL0     H90666   9.298   5.186   5.983  2.2985  0.9332 -0.2734
  672MOL0     H90667   9.498   5.129   5.901 -0.1824  2.5236  0.2783
  672MOL0     H90668   9.549   5.125   6.060 -1.2015  3.2877 -0.6170
  672MOL0     H90669   9.448   4.878   5.907 -0.2602 -2.4469  1.9245
  672MOL0     H90670   9.522   4.875   6.069 -0.7912  0.6346  0.7468
  672MOL0     H90671   9.769   4.946   6.113 -0.1398 -0.1940 -0.0333
  672MOL0     H90672  10.015   4.785   6.076  1.4863  2.0874  2.1454
  672MOL0     H90673  10.076   4.845   5.919 -2.7877 -0.9505 -2.2349
  672MOL0     H90674  10.120   4.972   6.151 -1.5645  0.3037  1.7390
  672MOL0     H90675   9.962   5.054   6.123 -0.1660  0.3384 -1.8466
  672MOL0     H90676  10.182   5.060   5.923  0.4767 -0.1200 -0.1381
  672MOL0     H90677  10.142   5.183   6.031 -0.8531  0.6710  1.4999
  672MOL0     H90678   9.908   5.191   5.944  2.2355  0.9800  1.6222
  672MOL0     H90679   9.966   5.097   5.803  1.5975  1.2150 -1.2463
  672MOL0     H90680  10.186   5.465   5.697  1.7632  1.5951  0.3864
  672MOL0     H90681  10.350   5.741   5.788 -0.5781  2.4958 -1.8258
  672MOL0     H90682  10.265   5.660   5.660 -2.1250  1.9912 -0.4920
  672MOL0     H90683  10.186   5.801   5.734 -1.8981 -1.2635 -1.4735
  672MOL0     H90684   9.934   5.862   6.371 -2.2134 -0.4178 -1.8511
  672MOL0     H90685   9.865   6.107   6.439  0.1698  1.5874 -1.3155
  672MOL0     H90686   9.875   6.409   6.102  3.0266 -2.6818 -1.2877
  672MOL0     H90687   9.863   6.512   6.236 -0.6663  1.6144 -1.5605
  672MOL0     H90688  10.103   6.495   6.281  0.9844 -0.1839 -0.5827
  672MOL0     H90689  10.128   6.376   6.156  2.3832 -0.7917  4.5456
  672MOL0     H90690  10.005   6.572   6.007 -1.6842  0.0099  2.7249
  672MOL0     H90691  10.180   6.552   6.030  0.3231 -0.3307  0.3948
  672MOL0     H90692   9.996   6.715   6.208  3.0971 -0.8807  3.7777
  672MOL0     H90693  10.169   6.715   6.211 -0.2720 -1.2350 -0.3751
  672MOL0     H90694  10.187   6.835   5.996  0.5915 -1.6211 -0.1126
  672MOL0     H90695  10.077   6.929   6.103 -0.3245 -1.8104  1.3534
  672MOL0     H90696  10.006   6.753   5.868  1.8716 -0.0995  0.5292
  672MOL0     H90697   9.885   6.803   5.987 -1.5611  2.2393 -2.1560
  672MOL0     H90698  10.031   7.015   5.838  1.8859 -1.3891  1.3930
  672MOL0     H90699   9.890   7.035   5.926  0.9194  1.4283 -0.9216
  672MOL0     H90700   9.777   6.833   5.748  2.7264 -3.5716  0.3292
  672MOL0     H90701   9.913   6.868   5.664 -1.5648 -3.5390  1.6544
  672MOL0     H90702   9.975   6.230   6.044  1.9224 -1.7090 -2.0042
  672MOL0     H90703  10.081   6.009   5.997  1.0809 -1.7829 -0.4887
  672MOL0     H90704  10.040   5.568   6.168  1.4565 -4.3370  1.7705
  672MOL0     H90705   9.976   5.358   6.059  1.2248  0.0742  0.3023
  672MOL0     H90706   9.823   5.141   6.655 -1.5786 -0.4140 -2.5229
  672MOL0     H90707   9.910   5.369   6.774 -1.8037  0.6574 -1.8877
  672MOL0     H90708   9.745   5.743   6.992  0.4569 -0.2090  0.5474
  672MOL0     H90709   9.781   5.975   7.099 -0.6035 -0.3559  2.4144
  672MOL0     H90710  10.074   6.148   7.393  1.5481 -1.0574  0.7214
  672MOL0     H90711  10.145   5.993   7.348  0.1162 -0.8328 -0.6712
  672MOL0     H90712  10.037   6.199   7.166 -1.0114 -1.5468  1.8535
  672MOL0     H90713  10.119   6.052   7.104 -1.1607 -0.3428  0.4541
  672MOL0     H90714  10.303   6.158   7.094  0.5642 -2.9041  1.6901
  672MOL0     H90715  10.303   6.130   7.267 -1.6961  0.8667  1.6961
  672MOL0     H90716  10.188   6.390   7.132  3.4199  0.9589 -2.7291
  672MOL0     H90717  10.350   6.365   7.190  0.1281 -1.5227 -1.4371
  672MOL0     H90718  10.125   6.459   7.541 -3.7157  1.2068 -1.6552
  672MOL0     H90719  10.109   5.815   7.299  0.8389  0.1704 -1.5954
  672MOL0     H90720  10.080   5.591   7.201  0.4190  0.5009 -0.1745
  673MOL0     O90721   5.725   0.671   0.744 -0.0905 -0.7513 -0.3770
  673MOL0     C90722   5.651   0.707   0.651 -0.2045 -0.0003 -0.4737
  673MOL0     O90723   5.536   0.777   0.674  0.3993  0.0227 -0.1444
  673MOL0     C90724   5.494   0.813   0.803  0.3459 -0.3536  0.7078
  673MOL0     C90725   5.405   0.727   0.867  0.5124 -0.3372 -0.6115
  673MOL0     C90726   5.355   0.787   0.985  0.0479 -0.2054  0.0274
  673MOL0     C90727   5.396   0.904   1.050  0.5985 -1.0537 -0.3225
  673MOL0     O90728   5.342   0.943   1.172  0.1474 -0.4325  0.1617
  673MOL0     C90729   5.383   1.056   1.250 -0.4586 -0.7011 -0.0994
  673MOL0     C90730   5.285   1.085   1.363 -0.1843 -0.0333  0.1696
  673MOL0     C90731   5.290   0.977   1.471 -0.5360 -0.1606  0.0131
  673MOL0     C90732   5.198   1.004   1.600 -0.4687 -0.0127  0.9168
  673MOL0     C90733   5.242   1.111   1.704  0.5481 -0.3815  0.1429
  673MOL0     C90734   5.170   1.085   1.832  0.5941 -0.1612 -0.1821
  673MOL0     C90735   5.217   1.169   1.952  0.4522 -0.3402 -0.3423
  673MOL0     C90736   5.356   1.141   1.990  0.4160  0.0721 -0.0072
  673MOL0     N90737   5.381   1.205   2.125 -0.1591 -0.3886  0.7575
  673MOL0     C90738   5.379   1.338   2.139 -1.0506  0.7970  0.4360
  673MOL0     C90739   5.413   1.349   2.267 -1.3189 -0.9309 -0.6074
  673MOL0     C90740   5.408   1.478   2.343  0.1556 -0.3084 -0.0006
  673MOL0     C90741   5.261   1.513   2.337  0.2625 -0.3190  0.5632
  673MOL0     C90742   5.235   1.658   2.402 -0.5348 -0.6681 -0.2361
  673MOL0     C90743   5.313   1.700   2.523 -0.2177  0.1290  0.0289
  673MOL0     O90744   5.246   1.814   2.591  0.6209  0.1111  0.2775
  673MOL0     C90745   5.297   1.866   2.698 -0.3657 -0.4978 -1.0579
  673MOL0     C90746   5.223   1.957   2.782 -0.5223 -0.1049 -0.6085
  673MOL0     C90747   5.276   2.027   2.902  0.6481  0.4551  0.0443
  673MOL0     C90748   5.171   2.108   2.988  1.0370  0.2868  0.3107
  673MOL0     C90749   5.416   2.015   2.931  0.0043 -0.6192 -0.9746
  673MOL0     C90750   5.478   2.077   3.056  0.3308 -0.3497 -0.0621
  673MOL0     O90751   5.599   2.028   3.103 -0.1011  0.0821 -0.1604
  673MOL0     C90752   5.654   2.078   3.216  0.0644 -0.1808  0.0198
  673MOL0     C90753   5.793   2.087   3.210  0.5509 -0.1439  0.8701
  673MOL0     C90754   5.865   2.142   3.311  1.7810  0.9804  1.2586
  673MOL0     C90755   5.805   2.187   3.429  0.6171  0.0930 -0.4114
  673MOL0     O90756   5.868   2.228   3.541  0.4322  1.4975  0.1107
  673MOL0     C90757   5.994   2.290   3.521  0.0335 -0.0593  0.0905
  673MOL0     C90758   6.008   2.330   3.666  0.1055 -0.3270 -1.2189
  673MOL0     C90759   6.145   2.385   3.696  0.5427  0.7981 -0.4652
  673MOL0     C90760   6.179   2.355   3.844 -0.6974 -0.2024 -0.0565
  673MOL0     C90761   6.209   2.197   3.857 -0.1585  0.3882  0.2595
  673MOL0     C90762   6.264   2.152   3.995  0.3110  0.3165 -1.0404
  673MOL0     C90763   6.400   2.215   4.034  0.4372 -0.4246  0.1050
  673MOL0     C90764   6.521   2.142   4.003  0.3260  0.3765 -0.3509
  673MOL0    Cl90765   6.640   2.238   4.105  0.2686 -0.1164  0.3394
  673MOL0     C90766   5.667   2.174   3.438 -0.1217 -0.8988 -0.3625
  673MOL0     C90767   5.592   2.133   3.332  0.2437 -0.1071 -0.0242
  673MOL0     O90768   5.420   2.179   3.097 -0.3407 -0.3608 -0.0255
  673MOL0     C90769   5.492   1.925   2.852  0.3059 -0.3823  0.0818
  673MOL0     C90770   5.438   1.854   2.739  0.4098 -0.7150  0.8901
  673MOL0     N90771   5.432   1.229   2.335  0.5500 -0.0456 -0.3970
  673MOL0     N90772   5.423   1.146   2.237 -0.2029  0.0430  0.4456
  673MOL0     C90773   5.499   0.974   0.990  0.1265 -0.1701  0.1595
  673MOL0     C90774   5.540   0.932   0.863 -0.5565 -0.2203 -0.7046
  673MOL0     C90775   5.701   0.686   0.519 -0.9055 -0.1000 -0.2628
  673MOL0     C90776   5.687   0.773   0.417 -0.6050 -0.4609  0.0213
  673MOL0     C90777   5.729   0.747   0.280  0.1371 -0.1263  0.0338
  673MOL0     C90778   5.799   0.630   0.249 -0.2972 -0.4167 -0.5937
  673MOL0     O90779   5.870   0.607   0.128 -0.9257  0.0924 -0.2414
  673MOL0     C90780   5.884   0.714   0.039 -0.0653  0.1295  0.3917
  673MOL0     C90781   5.992   0.821   0.076  0.0410  0.2850  0.3558
  673MOL0     C90782   5.981   0.946  -0.016  0.0936  0.3921  0.1274
  673MOL0     C90783   6.030   1.076   0.057 -0.5369  0.5846  0.2776
  673MOL0     C90784   5.956   1.119   0.174 -0.1890 -0.6428 -0.0210
  673MOL0     C90785   5.903   1.126   0.281  0.7034 -0.8085 -0.7280
  673MOL0     C90786   5.805   0.532   0.350 -1.0250 -0.0330  0.3817
  673MOL0     C90787   5.762   0.560   0.479  0.7300  0.7475  0.7466
  673MOL0     H90788   5.367   0.632   0.833 -1.6697  1.2147 -2.8289
  673MOL0     H90789   5.258   0.754   1.022 -2.0779  1.3229 -3.6566
  673MOL0     H90790   5.481   1.034   1.294  1.1781  2.9260 -1.4374
  673MOL0     H90791   5.407   1.149   1.197  1.0660  0.2233  2.0812
  673MOL0     H90792   5.312   1.177   1.416 -3.1731  1.0732 -0.0778
  673MOL0     H90793   5.181   1.088   1.330  0.2853  1.3798 -1.3456
  673MOL0     H90794   5.254   0.881   1.432 -0.4547 -0.3232  0.3449
  673MOL0     H90795   5.390   0.944   1.499  1.4020  2.0117 -3.4973
  673MOL0     H90796   5.106   1.040   1.553  0.4923  0.1352 -0.9306
  673MOL0     H90797   5.187   0.903   1.640 -0.4414 -1.9400 -3.4054
  673MOL0     H90798   5.346   1.101   1.736  0.7120 -2.5129 -0.8852
  673MOL0     H90799   5.227   1.210   1.659  0.6328  0.1079  1.1686
  673MOL0     H90800   5.062   1.091   1.820  0.7492 -0.2527 -1.7344
  673MOL0     H90801   5.181   0.979   1.858 -0.0162 -0.2716 -0.3606
  673MOL0     H90802   5.203   1.276   1.936  2.0671  0.0408  0.5378
  673MOL0     H90803   5.147   1.149   2.034  0.0646  0.5017 -0.4603
  673MOL0     H90804   5.423   1.188   1.917  0.0972 -1.1747 -1.1472
  673MOL0     H90805   5.375   1.034   1.997 -0.9532 -0.1031  1.9101
  673MOL0     H90806   5.349   1.413   2.066  2.3675  2.8177  0.8793
  673MOL0     H90807   5.442   1.456   2.444 -0.0296  1.3439  0.4477
  673MOL0     H90808   5.474   1.553   2.297  0.5205 -1.1129 -0.8454
  673MOL0     H90809   5.202   1.442   2.397 -1.8696 -1.5887 -2.7751
  673MOL0     H90810   5.233   1.509   2.232  0.7133 -0.9164  0.4600
  673MOL0     H90811   5.129   1.662   2.428 -0.8787 -0.2321 -1.5937
  673MOL0     H90812   5.258   1.739   2.332  3.0521  1.7828  3.3867
  673MOL0     H90813   5.408   1.737   2.482 -1.2160  1.8538 -0.8795
  673MOL0     H90814   5.334   1.617   2.590 -0.4525  1.1921  1.4709
  673MOL0     H90815   5.117   1.977   2.773 -0.7617 -0.0912  1.6139
  673MOL0     H90816   5.071   2.074   2.961  1.6406 -1.4928  0.1354
  673MOL0     H90817   5.184   2.094   3.096  0.6410 -1.2133  0.1807
  673MOL0     H90818   5.177   2.216   2.973  0.1794  0.2805 -0.1608
  673MOL0     H90819   5.853   2.060   3.124  1.1157 -0.1610  1.2582
  673MOL0     H90820   5.974   2.143   3.308  1.7880  2.5787 -1.2177
  673MOL0     H90821   6.075   2.219   3.502  1.1595  1.1095  0.3330
  673MOL0     H90822   5.993   2.370   3.447 -0.0805  2.2076  2.4155
  673MOL0     H90823   5.935   2.411   3.676  1.0534  0.4463 -0.4402
  673MOL0     H90824   5.983   2.247   3.734 -0.3228  1.3837  0.8124
  673MOL0     H90825   6.147   2.491   3.669  2.1815  2.1634  4.0636
  673MOL0     H90826   6.219   2.340   3.629 -0.6895  0.7581 -1.8628
  673MOL0     H90827   6.275   2.399   3.873  0.0687 -2.1237  0.4385
  673MOL0     H90828   6.107   2.389   3.919  0.1666  2.3044 -0.2498
  673MOL0     H90829   6.278   2.162   3.780  0.8798 -3.3704  2.6438
  673MOL0     H90830   6.115   2.143   3.840 -1.0291  1.0551  2.5193
  673MOL0     H90831   6.193   2.165   4.077 -1.3426  2.0494 -2.6250
  673MOL0     H90832   6.274   2.043   3.990  1.2099  0.1544  2.2221
  673MOL0     H90833   6.404   2.225   4.143 -0.3654 -0.2044  0.1185
  673MOL0     H90834   6.401   2.316   3.992 -0.6087 -0.1094  0.8110
  673MOL0     H90835   6.554   2.136   3.899  2.2571 -0.6277  0.2739
  673MOL0     H90836   6.525   2.040   4.042  0.8038  0.7047  0.4607
  673MOL0     H90837   5.624   2.215   3.529 -2.0546 -3.0805 -0.1956
  673MOL0     H90838   5.484   2.140   3.323  0.2533 -0.0734 -0.1233
  673MOL0     H90839   5.596   1.916   2.881  0.0454 -3.9819  0.3690
  673MOL0     H90840   5.513   1.800   2.682 -0.7310 -1.0408 -0.3177
  673MOL0     H90841   5.543   1.064   1.032  1.5782  0.3154 -2.1843
  673MOL0     H90842   5.628   0.978   0.820  0.8932 -0.5835  1.6948
  673MOL0     H90843   5.640   0.870   0.432  0.3335 -0.0595  0.4771
  673MOL0     H90844   5.721   0.837   0.221 -2.0277  1.2882  2.2874
  673MOL0     H90845   5.923   0.677  -0.057 -1.1818 -1.1501  0.4000
  673MOL0     H90846   5.784   0.753   0.019 -0.0279 -0.0907 -0.2534
  673MOL0     H90847   6.090   0.773   0.070  0.1621  0.4664  0.7812
  673MOL0     H90848   5.981   0.852   0.181  1.7087  1.8787  0.1180
  673MOL0     H90849   5.876   0.961  -0.043  1.2239  1.1246 -4.9800
  673MOL0     H90850   6.034   0.930  -0.111 -1.2849 -2.6767 -0.2520
  673MOL0     H90851   6.061   1.153  -0.014  1.5837 -0.9679 -0.5756
  673MOL0     H90852   6.123   1.049   0.107  0.3676  2.0108 -0.5701
  673MOL0     H90853   5.845   1.115   0.371 -3.4264 -1.8571 -3.2649
  673MOL0     H90854   5.845   0.432   0.335 -3.4561 -1.0588  0.1920
  673MOL0     H90855   5.775   0.483   0.555  0.0466 -0.0246  0.1006
  674MOL0     O90856   1.102   7.991   1.301  0.3650 -0.3886 -0.3094
  674MOL0     C90857   1.107   7.970   1.425  0.1962 -0.5483  0.6640
  674MOL0     O90858   1.030   7.887   1.494  0.2309 -0.1111 -0.0329
  674MOL0     C90859   0.914   7.816   1.471  0.9995 -0.1461  0.3652
  674MOL0     C90860   0.867   7.751   1.583  0.0120 -0.8193  0.8395
  674MOL0     C90861   0.756   7.668   1.573  1.0489 -0.4497 -0.1012
  674MOL0     C90862   0.676   7.650   1.454 -0.2188 -0.0874  0.7567
  674MOL0     O90863   0.576   7.554   1.456 -0.1239  0.5083  0.3505
  674MOL0     C90864   0.494   7.530   1.340  0.1121 -0.8137  0.2236
  674MOL0     C90865   0.393   7.427   1.383  0.1856  0.8534  0.1021
  674MOL0     C90866   0.445   7.283   1.367 -0.0128  0.3891 -0.2769
  674MOL0     C90867   0.454   7.242   1.218 -0.2477 -0.2802 -0.0815
  674MOL0     C90868   0.503   7.095   1.207  0.3065 -0.1534  0.2664
  674MOL0     C90869   0.412   6.985   1.266  0.8850 -0.3914  0.3639
  674MOL0     C90870   0.438   6.851   1.197 -0.4873 -0.1282  0.9046
  674MOL0     C90871   0.377   6.728   1.265  0.2910  0.0988 -0.8755
  674MOL0     N90872   0.425   6.589   1.227 -0.5936 -0.1512 -0.0433
  674MOL0     C90873   0.453   6.551   1.100 -0.2638 -0.6291  0.0314
  674MOL0     C90874   0.487   6.423   1.103 -0.4338 -0.5034 -0.7599
  674MOL0     C90875   0.544   6.355   0.984  0.5780 -0.2450 -0.4259
  674MOL0     C90876   0.614   6.224   1.023 -0.2305 -0.2727  1.1365
  674MOL0     C90877   0.751   6.259   1.081  0.2896 -0.9845  0.1555
  674MOL0     C90878   0.855   6.275   0.966  0.4542 -0.5493 -0.1489
  674MOL0     O90879   0.959   6.369   1.003 -0.9559  0.1897 -0.5416
  674MOL0     C90880   1.092   6.334   0.962  0.7092  0.1793  0.0002
  674MOL0     C90881   1.191   6.381   1.040  0.1771  0.5144  0.5186
  674MOL0     C90882   1.336   6.373   1.005  0.1958  0.5608 -0.4824
  674MOL0     C90883   1.424   6.455   1.100 -0.0995 -0.0678  0.7975
  674MOL0     C90884   1.367   6.286   0.900 -0.3857  0.3843 -0.6947
  674MOL0     C90885   1.504   6.250   0.854 -0.1026 -0.3079  0.6123
  674MOL0     O90886   1.609   6.307   0.926 -0.2481 -0.7640  0.1862
  674MOL0     C90887   1.737   6.266   0.902  0.3485  0.0185 -0.1044
  674MOL0     C90888   1.834   6.364   0.926  0.7222 -0.3067 -0.2137
  674MOL0     C90889   1.970   6.330   0.912 -0.5642 -1.1067 -0.3069
  674MOL0     C90890   2.014   6.201   0.890  1.2659 -0.1987 -0.0619
  674MOL0     O90891   2.137   6.150   0.881  0.2951 -0.3066 -0.6419
  674MOL0     C90892   2.254   6.230   0.887 -0.2454 -0.7776  0.8134
  674MOL0     C90893   2.288   6.281   1.027  0.3441  0.1148  0.0089
  674MOL0     C90894   2.307   6.173   1.121 -0.2913  0.3982 -0.9592
  674MOL0     C90895   2.456   6.138   1.114  0.0744  0.0996  0.5570
  674MOL0     C90896   2.521   6.074   1.239 -0.8360  0.0428  0.1593
  674MOL0     C90897   2.554   6.182   1.342  0.5373  0.2251  1.5684
  674MOL0     C90898   2.606   6.101   1.462  0.2902  0.3609 -0.4109
  674MOL0     C90899   2.636   6.187   1.580  0.3172 -0.0762  0.1409
  674MOL0    Cl90900   2.757   6.306   1.523 -0.0058 -0.2962  0.0867
  674MOL0     C90901   1.913   6.104   0.875 -0.4968  0.6459  0.1111
  674MOL0     C90902   1.780   6.132   0.877 -0.6095 -0.7237  0.4337
  674MOL0     O90903   1.514   6.198   0.747  0.0863  0.1543 -0.3383
  674MOL0     C90904   1.254   6.227   0.827 -0.2199 -0.0250  0.0757
  674MOL0     C90905   1.121   6.261   0.854 -1.4394  0.9999  0.8951
  674MOL0     N90906   0.459   6.369   1.228 -0.1900 -0.3200 -0.3858
  674MOL0     N90907   0.436   6.477   1.307 -0.5692 -0.1902  0.3081
  674MOL0     C90908   0.721   7.714   1.343 -0.3200 -0.7010  0.2570
  674MOL0     C90909   0.850   7.788   1.353 -0.0829 -0.4135  0.0081
  674MOL0     C90910   1.209   8.051   1.496 -0.2050  0.2309  0.3577
  674MOL0     C90911   1.250   8.173   1.449  0.9157  0.0214  0.8043
  674MOL0     C90912   1.336   8.251   1.521 -0.8327  0.3670 -0.2758
  674MOL0     C90913   1.378   8.219   1.652 -0.9825  0.1201  0.1820
  674MOL0     O90914   1.460   8.290   1.729  0.2656  0.8576 -0.1020
  674MOL0     C90915   1.566   8.375   1.671  1.1809 -0.1838  0.1319
  674MOL0     C90916   1.516   8.512   1.669  0.8101 -0.7372  0.3918
  674MOL0     C90917   1.551   8.587   1.801  0.6357  0.4802  0.7173
  674MOL0     C90918   1.700   8.625   1.804  0.7803 -0.3917  0.4689
  674MOL0     C90919   1.722   8.745   1.734 -0.6036 -0.4275  0.0603
  674MOL0     C90920   1.754   8.848   1.681  0.6779  0.7774  0.6579
  674MOL0     C90921   1.338   8.092   1.695 -0.6557 -0.9462 -0.1066
  674MOL0     C90922   1.260   8.009   1.621 -0.3049  0.6521  0.1067
  674MOL0     H90923   0.922   7.769   1.675 -0.6534 -2.4102  1.5879
  674MOL0     H90924   0.736   7.608   1.661 -2.4880  0.2242 -0.2928
  674MOL0     H90925   0.439   7.619   1.306  1.2160 -0.2431 -0.1203
  674MOL0     H90926   0.550   7.488   1.256 -0.8795 -0.9086 -0.4106
  674MOL0     H90927   0.387   7.439   1.492  0.5785 -1.1939  0.3941
  674MOL0     H90928   0.296   7.427   1.334  0.4617 -3.0125 -0.7999
  674MOL0     H90929   0.546   7.275   1.408  0.3580  2.2411 -0.7035
  674MOL0     H90930   0.378   7.211   1.415 -0.1127 -0.0513 -1.0539
  674MOL0     H90931   0.361   7.259   1.163 -1.7900  1.9123  2.8950
  674MOL0     H90932   0.526   7.306   1.167  3.6131 -2.4881  2.1507
  674MOL0     H90933   0.499   7.075   1.099 -1.6316  3.0076 -0.3634
  674MOL0     H90934   0.601   7.075   1.253  0.1124  2.8975  2.2888
  674MOL0     H90935   0.419   6.976   1.375  0.4676  0.8671  0.5111
  674MOL0     H90936   0.305   7.003   1.279  0.9448 -0.9364  1.8348
  674MOL0     H90937   0.394   6.855   1.097  0.5891  2.6443  0.4328
  674MOL0     H90938   0.547   6.842   1.191 -0.4253  0.2167  1.4836
  674MOL0     H90939   0.268   6.740   1.267  0.2755  0.4371  2.3334
  674MOL0     H90940   0.402   6.733   1.372 -0.6061 -1.6915 -0.5344
  674MOL0     H90941   0.457   6.617   1.015  0.5038 -1.9802 -1.0206
  674MOL0     H90942   0.463   6.334   0.913 -0.5349  3.3065 -0.4295
  674MOL0     H90943   0.605   6.430   0.933  0.4861  3.9199  4.8119
  674MOL0     H90944   0.611   6.170   0.928 -0.2965 -0.5001  1.2665
  674MOL0     H90945   0.560   6.169   1.101 -1.8031  0.2183  0.4392
  674MOL0     H90946   0.789   6.177   1.142 -2.3151 -0.8551  2.1190
  674MOL0     H90947   0.742   6.350   1.142  1.3195 -1.9434  1.8137
  674MOL0     H90948   0.803   6.324   0.884 -1.0406  1.3644  1.8427
  674MOL0     H90949   0.890   6.172   0.948  3.0321 -0.4482  3.3421
  674MOL0     H90950   1.165   6.446   1.123 -1.4748  0.9834 -0.3235
  674MOL0     H90951   1.468   6.523   1.026  0.6200 -2.6531 -1.3470
  674MOL0     H90952   1.363   6.510   1.172 -0.2415 -0.0737  0.6810
  674MOL0     H90953   1.506   6.397   1.143 -0.5656 -3.8422 -2.7797
  674MOL0     H90954   1.791   6.463   0.935 -2.6505 -1.7437  1.0944
  674MOL0     H90955   2.046   6.408   0.922 -2.0021  0.3860 -0.5760
  674MOL0     H90956   2.337   6.169   0.851  0.6950  0.1971  1.2959
  674MOL0     H90957   2.244   6.315   0.819 -1.0503 -3.6144 -2.9410
  674MOL0     H90958   2.377   6.343   1.012 -0.1649  0.7814 -0.2819
  674MOL0     H90959   2.205   6.347   1.052 -0.7821 -0.7079 -1.4046
  674MOL0     H90960   2.243   6.087   1.098 -2.0644  2.2273 -3.4714
  674MOL0     H90961   2.279   6.208   1.221  0.7763 -3.0349  0.6776
  674MOL0     H90962   2.461   6.065   1.032 -0.6158  0.5287  0.1207
  674MOL0     H90963   2.527   6.220   1.097  2.5927 -1.5574  2.3450
  674MOL0     H90964   2.609   6.028   1.193 -1.2283  0.9245 -1.5090
  674MOL0     H90965   2.457   5.996   1.282 -1.5244  1.5013  1.9270
  674MOL0     H90966   2.626   6.250   1.296 -0.9454  0.3623 -0.7198
  674MOL0     H90967   2.456   6.217   1.375 -2.5663 -4.1336 -1.7760
  674MOL0     H90968   2.690   6.038   1.431  2.9030  2.0531  2.6819
  674MOL0     H90969   2.532   6.030   1.500  0.0911  1.2894  1.0167
  674MOL0     H90970   2.674   6.130   1.665  0.2187 -0.5704 -0.1450
  674MOL0     H90971   2.551   6.238   1.628  1.6309  0.1542  2.3800
  674MOL0     H90972   1.931   5.999   0.853 -1.7583  0.5396 -0.4787
  674MOL0     H90973   1.705   6.057   0.856 -0.5913 -0.0785 -2.1931
  674MOL0     H90974   1.283   6.155   0.751  0.3056 -0.0833  0.3297
  674MOL0     H90975   1.051   6.221   0.781 -1.1485  2.0243  0.0325
  674MOL0     H90976   0.668   7.706   1.248  1.8841  0.7014 -1.1908
  674MOL0     H90977   0.897   7.824   1.263  0.2261  0.9577  0.7041
  674MOL0     H90978   1.211   8.192   1.349  1.3058 -3.1306 -0.0904
  674MOL0     H90979   1.367   8.345   1.476  1.9734  0.1958  1.0689
  674MOL0     H90980   1.656   8.368   1.733 -0.7946 -0.1967  3.2349
  674MOL0     H90981   1.597   8.335   1.574 -0.9527  0.2740 -0.7936
  674MOL0     H90982   1.410   8.514   1.642  1.3944 -0.1833 -2.1532
  674MOL0     H90983   1.559   8.567   1.585 -1.4197  2.3955  1.1083
  674MOL0     H90984   1.514   8.539   1.892  1.5229 -3.7260 -0.9528
  674MOL0     H90985   1.485   8.673   1.780  0.5124  0.3877  0.7238
  674MOL0     H90986   1.754   8.543   1.755 -2.2562 -1.5613 -1.2572
  674MOL0     H90987   1.728   8.640   1.909 -0.7690  1.9757  0.6152
  674MOL0     H90988   1.780   8.948   1.652 -1.5246  1.5378  1.1277
  674MOL0     H90989   1.371   8.080   1.798  2.4906  0.4926 -0.8147
  674MOL0     H90990   1.233   7.915   1.668  1.3781 -0.6430 -1.3619
  675MOL0     O90991   1.319   7.723   8.884  0.1629  0.0045  0.5262
  675MOL0     C90992   1.379   7.820   8.915  0.2992 -0.6461  0.1141
  675MOL0     O90993   1.368   7.949   8.876  0.0517 -0.2718  0.5639
  675MOL0     C90994   1.245   8.002   8.824  0.5103  0.6360 -0.5858
  675MOL0     C90995   1.251   8.108   8.734 -0.8403 -0.1566  0.2868
  675MOL0     C90996   1.130   8.150   8.675  1.2832 -0.3883  0.0659
  675MOL0     C90997   1.008   8.105   8.709  0.6404  0.4569  0.9483
  675MOL0     O90998   0.908   8.169   8.646  0.8377 -0.0115 -0.4758
  675MOL0     C90999   0.782   8.100   8.616  0.3493  0.0674 -1.0767
  675MOL0     C91000   0.678   8.210   8.593 -0.0015 -0.7470  0.0416
  675MOL0     C91001   0.711   8.333   8.513 -0.6786 -0.2405 -0.3114
  675MOL0     C91002   0.583   8.427   8.502  0.3041  0.2935 -0.6506
  675MOL0     C91003   0.620   8.581   8.511  0.8611 -0.3350 -0.6224
  675MOL0     C91004   0.528   8.677   8.423  0.5232  1.0473 -0.7961
  675MOL0     C91005   0.554   8.653   8.275 -0.5832  0.9047  1.0666
  675MOL0     C91006   0.505   8.752   8.194 -0.3612  0.0341  0.9125
  675MOL0     N91007   0.562   8.884   8.219  0.2797  0.1357 -0.1215
  675MOL0     C91008   0.676   8.940   8.177  0.0911 -0.1803  0.3578
  675MOL0     C91009   0.678   9.068   8.222  0.8855  0.3438  0.3599
  675MOL0     C91010   0.779   9.181   8.185  0.2394  0.7887  0.0581
  675MOL0     C91011   0.718   9.297   8.108  0.9439 -1.1805  0.8324
  675MOL0     C91012   0.672   9.266   7.959 -0.2527 -0.1162 -0.9173
  675MOL0     C91013   0.601   9.377   7.884  0.1461  0.1811  0.3954
  675MOL0     O91014   0.701   9.459   7.828  0.3418  0.4376  0.6975
  675MOL0     C91015   0.665   9.578   7.776 -0.4660  0.0600  0.1516
  675MOL0     C91016   0.541   9.633   7.760 -0.8161 -0.0978 -0.1338
  675MOL0     C91017   0.526   9.765   7.715 -0.0233 -0.1222  0.7033
  675MOL0     C91018   0.394   9.834   7.729 -0.7134 -0.0146 -0.0839
  675MOL0     C91019   0.639   9.843   7.681 -0.3820  0.1414  0.7889
  675MOL0     C91020   0.618   9.980   7.618  0.3475 -0.5737  0.3955
  675MOL0     O91021   0.633   9.966   7.474  0.0568  0.2341  0.3529
  675MOL0     C91022   0.624  10.070   7.389  0.1338  0.4430  0.3837
  675MOL0     C91023   0.637  10.206   7.407  0.6427 -0.1352 -0.5558
  675MOL0     C91024   0.636  10.295   7.306 -0.8389 -0.4752  0.7571
  675MOL0     C91025   0.616  10.253   7.177 -0.2369 -0.9839 -0.0786
  675MOL0     O91026   0.619  10.340   7.073 -0.0663  0.1596  0.1921
  675MOL0     C91027   0.502  10.416   7.038 -0.2427  0.1414  0.0177
  675MOL0     C91028   0.460  10.526   7.143  0.0090  0.4545  0.0322
  675MOL0     C91029   0.549  10.638   7.172 -0.3590 -1.1341 -0.2066
  675MOL0     C91030   0.513  10.724   7.297 -1.2485 -0.6542 -1.3986
  675MOL0     C91031   0.625  10.827   7.346  0.2476 -0.5245  0.9710
  675MOL0     C91032   0.567  10.914   7.459  1.3933  0.3656 -0.1117
  675MOL0     C91033   0.652  11.034   7.506  0.9642 -0.2702  1.0851
  675MOL0     C91034   0.797  10.997   7.527 -0.2492  1.2205  0.1446
  675MOL0    Cl91035   0.789  10.870   7.655 -0.5654 -0.2290 -0.3818
  675MOL0     C91036   0.598  10.123   7.155 -0.0072  0.1334  0.3721
  675MOL0     C91037   0.595  10.029   7.259  0.5496 -0.0735  0.0849
  675MOL0     O91038   0.592  10.084   7.674 -1.0302 -0.4812 -1.0050
  675MOL0     C91039   0.769   9.786   7.696  0.7101 -0.1624  0.5129
  675MOL0     C91040   0.773   9.660   7.750 -0.4807 -0.2386 -0.6677
  675MOL0     N91041   0.556   9.100   8.286 -0.0222 -0.0340  0.0981
  675MOL0     N91042   0.490   8.989   8.290  0.0477 -0.3691  0.6082
  675MOL0     C91043   1.004   7.993   8.792 -0.7815  0.4920  0.5744
  675MOL0     C91044   1.123   7.943   8.849  0.0215 -0.8984 -0.6010
  675MOL0     C91045   1.488   7.793   9.016  0.5774 -0.7487  0.3899
  675MOL0     C91046   1.583   7.896   9.045 -0.0414 -1.1330 -1.0217
  675MOL0     C91047   1.683   7.864   9.133  1.0830 -0.5476 -0.4892
  675MOL0     C91048   1.692   7.733   9.187  1.3386 -0.5026 -0.3436
  675MOL0     O91049   1.794   7.715   9.275  0.9021  0.6012  0.0082
  675MOL0     C91050   1.816   7.599   9.351  0.2958  0.4392 -0.4705
  675MOL0     C91051   1.869   7.472   9.280  0.0770 -0.5286  0.1031
  675MOL0     C91052   1.997   7.497   9.192  0.1035  0.5140  0.0639
  675MOL0     C91053   2.025   7.369   9.101 -0.4157 -0.3459 -0.2431
  675MOL0     C91054   2.011   7.248   9.169 -0.4643 -0.5247 -0.6377
  675MOL0     C91055   2.006   7.147   9.242  0.0092 -0.3164  0.5156
  675MOL0     C91056   1.604   7.633   9.158  0.7664 -0.3147  0.0003
  675MOL0     C91057   1.502   7.668   9.080  0.2542  0.4256  0.3310
  675MOL0     H91058   1.345   8.147   8.696 -0.8352  1.1223  1.5153
  675MOL0     H91059   1.148   8.238   8.614  0.1614 -0.2615 -0.1037
  675MOL0     H91060   0.802   8.043   8.524  2.5349 -1.2560  0.1231
  675MOL0     H91061   0.752   8.027   8.691 -1.6019  1.3191 -0.5837
  675MOL0     H91062   0.584   8.175   8.550 -0.5834  1.1920 -0.3969
  675MOL0     H91063   0.654   8.255   8.690 -1.7533  0.3160 -0.8394
  675MOL0     H91064   0.798   8.380   8.560  0.8058 -2.5059 -0.6005
  675MOL0     H91065   0.728   8.314   8.407  1.0106  0.2770 -0.1590
  675MOL0     H91066   0.522   8.410   8.413  0.2603 -2.4256 -0.1882
  675MOL0     H91067   0.519   8.400   8.587 -0.7841 -0.1879 -1.6009
  675MOL0     H91068   0.606   8.614   8.614 -2.7462 -1.9615 -0.4567
  675MOL0     H91069   0.721   8.610   8.480  0.9030  0.0329 -0.1561
  675MOL0     H91070   0.424   8.661   8.451  1.0081 -0.1340  0.4639
  675MOL0     H91071   0.547   8.781   8.451 -0.1975  2.0859 -3.7516
  675MOL0     H91072   0.662   8.652   8.259 -0.8118  1.7255 -0.9015
  675MOL0     H91073   0.522   8.556   8.236 -0.6454  2.4161 -3.1561
  675MOL0     H91074   0.396   8.746   8.205 -0.1517 -4.5355  2.8133
  675MOL0     H91075   0.519   8.720   8.091  1.6632  1.7384  0.5732
  675MOL0     H91076   0.756   8.902   8.114  0.7786  1.6510  0.0651
  675MOL0     H91077   0.808   9.227   8.280  2.1714  0.1584 -0.1915
  675MOL0     H91078   0.871   9.136   8.145 -0.1956  0.6369 -0.8061
  675MOL0     H91079   0.784   9.383   8.093  0.4544 -1.2563 -2.3311
  675MOL0     H91080   0.625   9.335   8.153  0.7700  0.0066 -0.4505
  675MOL0     H91081   0.600   9.184   7.970  0.4631 -1.1239 -3.2122
  675MOL0     H91082   0.757   9.231   7.901  0.2798  0.7517 -0.6905
  675MOL0     H91083   0.548   9.441   7.955  1.8180 -1.0717  2.9402
  675MOL0     H91084   0.529   9.336   7.812 -1.9593  1.0326  1.9021
  675MOL0     H91085   0.455   9.577   7.797 -0.2040 -0.1456  1.2888
  675MOL0     H91086   0.392   9.898   7.818  2.3570  0.1646 -0.0242
  675MOL0     H91087   0.373   9.892   7.639  0.0853 -0.2863 -0.4547
  675MOL0     H91088   0.317   9.759   7.708  0.4511 -1.1576 -0.4481
  675MOL0     H91089   0.668  10.237   7.506  1.4091 -5.8615  1.3693
  675MOL0     H91090   0.637  10.401   7.328 -1.0791 -0.6081  1.4591
  675MOL0     H91091   0.542  10.475   6.955  2.3466  0.3693  1.2928
  675MOL0     H91092   0.414  10.359   7.008 -0.4768  0.8924 -0.7696
  675MOL0     H91093   0.362  10.571   7.125  0.0287  0.4584 -0.0680
  675MOL0     H91094   0.444  10.468   7.234  0.6738  4.7586  3.2087
  675MOL0     H91095   0.556  10.694   7.078 -0.6639 -1.1648 -0.2456
  675MOL0     H91096   0.647  10.593   7.195 -0.1470 -0.3825  0.4110
  675MOL0     H91097   0.419  10.778   7.284 -2.1600 -0.8049  3.0238
  675MOL0     H91098   0.510  10.656   7.383  3.1746 -0.4161 -0.8327
  675MOL0     H91099   0.651  10.902   7.271 -0.0015  0.0647  1.4560
  675MOL0     H91100   0.712  10.766   7.367 -1.3159 -3.3035 -0.1166
  675MOL0     H91101   0.468  10.950   7.428  0.7057  0.0390  1.5753
  675MOL0     H91102   0.540  10.844   7.539  0.2830  0.4304 -0.4181
  675MOL0     H91103   0.611  11.071   7.601 -1.8075  0.3116 -0.2328
  675MOL0     H91104   0.624  11.103   7.426 -0.0661 -2.1829 -0.2995
  675MOL0     H91105   0.868  11.077   7.551  1.3150  0.3381 -1.3671
  675MOL0     H91106   0.844  10.952   7.439 -1.2478  3.1402 -1.4665
  675MOL0     H91107   0.571  10.096   7.053  2.4385  0.2345 -0.3785
  675MOL0     H91108   0.581   9.926   7.230 -0.3892  0.0725  0.0019
  675MOL0     H91109   0.853   9.851   7.672 -0.5216  2.1758  2.0869
  675MOL0     H91110   0.861   9.608   7.784 -0.0330 -1.5006 -3.4677
  675MOL0     H91111   0.908   7.950   8.818 -0.7435  0.6289  0.9431
  675MOL0     H91112   1.119   7.860   8.919  2.2982 -2.2921 -2.0079
  675MOL0     H91113   1.590   7.990   8.992 -1.4373  0.4160  1.3247
  675MOL0     H91114   1.758   7.941   9.151 -0.7283  0.8880  1.3510
  675MOL0     H91115   1.896   7.628   9.421 -1.8787  1.2160  1.8523
  675MOL0     H91116   1.728   7.579   9.413  1.9129 -0.5151  1.6640
  675MOL0     H91117   1.797   7.414   9.221  0.2272  0.7432 -1.4048
  675MOL0     H91118   1.889   7.400   9.360  0.9541 -0.5728 -0.1483
  675MOL0     H91119   2.089   7.515   9.248  2.1748  0.6502 -3.0862
  675MOL0     H91120   1.985   7.586   9.130 -1.9804  1.1917  1.3522
  675MOL0     H91121   2.124   7.385   9.058  1.1901 -0.2452  3.1395
  675MOL0     H91122   1.957   7.369   9.015  0.4440  0.4325 -0.9452
  675MOL0     H91123   1.989   7.068   9.312 -1.6247  0.2330  0.7883
  675MOL0     H91124   1.600   7.530   9.192 -5.2496 -0.5560 -0.2523
  675MOL0     H91125   1.432   7.589   9.055  1.2682 -0.1084 -0.9271
  676MOL0     O91126   3.612   2.735   2.829  0.5235 -0.4132  0.3726
  676MOL0     C91127   3.537   2.634   2.831  0.4207 -0.1972  0.0800
  676MOL0     O91128   3.413   2.620   2.779  0.3891  0.0213 -0.8838
  676MOL0     C91129   3.372   2.728   2.699  0.6235  0.1349  1.2034
  676MOL0     C91130   3.381   2.725   2.556 -0.0973  0.5109  0.1562
  676MOL0     C91131   3.330   2.833   2.482  0.2553 -0.2978 -0.0514
  676MOL0     C91132   3.285   2.943   2.551 -0.7496  1.1999 -0.6202
  676MOL0     O91133   3.228   3.042   2.468 -0.3814 -0.2822 -0.5517
  676MOL0     C91134   3.212   3.182   2.512 -0.7735 -1.3126 -0.0242
  676MOL0     C91135   3.150   3.260   2.390 -0.2429  0.1408  0.1939
  676MOL0     C91136   3.002   3.257   2.383  0.1173 -0.0663  0.4417
  676MOL0     C91137   2.938   3.318   2.254 -0.1952 -0.8820  0.1224
  676MOL0     C91138   2.922   3.206   2.147 -0.2846 -1.0969  0.3135
  676MOL0     C91139   2.850   3.277   2.026  0.1043 -0.5423 -0.2038
  676MOL0     C91140   2.797   3.172   1.927 -0.4972 -0.2914  0.6362
  676MOL0     C91141   2.680   3.087   1.966 -0.8133  0.3676 -0.3461
  676MOL0     N91142   2.580   3.159   2.037 -0.1179  0.1418  0.5205
  676MOL0     C91143   2.479   3.240   1.998  0.3102 -1.0717 -0.7173
  676MOL0     C91144   2.425   3.285   2.115  0.9367  0.6707  0.1332
  676MOL0     C91145   2.298   3.371   2.125 -0.9008 -0.2939 -0.2157
  676MOL0     C91146   2.338   3.507   2.080  0.7352 -0.4723 -0.2902
  676MOL0     C91147   2.230   3.618   2.087 -0.2864 -0.3505  0.3298
  676MOL0     C91148   2.157   3.636   1.956 -0.3811  0.4819 -0.1700
  676MOL0     O91149   2.235   3.734   1.881  0.2909  0.5153 -0.4675
  676MOL0     C91150   2.238   3.716   1.745 -0.0770  0.3776  0.0029
  676MOL0     C91151   2.149   3.649   1.664  0.1959 -0.3448  0.9213
  676MOL0     C91152   2.152   3.639   1.521 -0.7593 -0.3348  0.3226
  676MOL0     C91153   2.038   3.573   1.439 -0.6925 -0.1070 -0.3953
  676MOL0     C91154   2.259   3.711   1.461 -1.1237 -0.5851 -0.1716
  676MOL0     C91155   2.274   3.732   1.315 -0.2613  0.5847 -0.9905
  676MOL0     O91156   2.216   3.638   1.228 -0.1363  1.1466  0.6650
  676MOL0     C91157   2.233   3.651   1.086 -0.8788  0.3337  0.4138
  676MOL0     C91158   2.309   3.565   1.025  0.1469  0.7910 -0.9465
  676MOL0     C91159   2.332   3.567   0.887 -0.2317 -0.1605 -0.0904
  676MOL0     C91160   2.265   3.661   0.815 -0.6475 -0.3364 -0.0842
  676MOL0     O91161   2.274   3.682   0.678 -0.2016 -0.7018 -0.4975
  676MOL0     C91162   2.368   3.600   0.603  0.8078  0.1918 -0.3213
  676MOL0     C91163   2.356   3.635   0.457 -0.0405  0.0595  0.8666
  676MOL0     C91164   2.415   3.516   0.371  0.4099 -1.1303 -0.1107
  676MOL0     C91165   2.417   3.556   0.222 -1.5436 -0.2627 -0.0672
  676MOL0     C91166   2.529   3.493   0.136  0.0575 -0.1181  0.0409
  676MOL0     C91167   2.553   3.561   0.014 -0.3231  1.3776 -0.5391
  676MOL0     C91168   2.658   3.497  -0.064 -0.5372 -0.4816  0.4170
  676MOL0     C91169   2.706   3.601  -0.170 -0.3801 -0.0249 -1.1430
  676MOL0    Cl91170   2.881   3.588  -0.194 -0.0643  0.2713  0.1089
  676MOL0     C91171   2.200   3.763   0.883  0.3124 -0.0258 -0.6960
  676MOL0     C91172   2.186   3.762   1.018 -0.2116 -0.5831 -0.5756
  676MOL0     O91173   2.337   3.828   1.272 -0.5316 -0.2049  0.3864
  676MOL0     C91174   2.342   3.794   1.545 -0.6838 -0.0083  0.4286
  676MOL0     C91175   2.328   3.791   1.683 -1.5166 -0.0955  0.9001
  676MOL0     N91176   2.496   3.240   2.219  0.5485 -0.7280 -0.0369
  676MOL0     N91177   2.584   3.161   2.179 -0.1157  0.3407  0.3075
  676MOL0     C91178   3.275   2.949   2.689 -0.2970  0.2250  0.3440
  676MOL0     C91179   3.323   2.841   2.760  0.9633  0.6250 -0.2145
  676MOL0     C91180   3.599   2.501   2.881  0.4423  0.2319 -0.1312
  676MOL0     C91181   3.729   2.495   2.919 -0.2021  1.0873  0.2720
  676MOL0     C91182   3.786   2.381   2.991 -0.4049 -0.0486  0.1262
  676MOL0     C91183   3.702   2.266   3.014  0.6525  0.1222  0.3894
  676MOL0     O91184   3.771   2.149   3.040  0.6422  0.1780  0.5673
  676MOL0     C91185   3.675   2.044   3.069 -0.4762 -0.0131 -0.0975
  676MOL0     C91186   3.752   1.916   3.108  0.5448  0.2962 -0.4647
  676MOL0     C91187   3.682   1.853   3.222  0.2860  0.5876 -0.9726
  676MOL0     C91188   3.761   1.730   3.262  1.2019  0.0889  0.4166
  676MOL0     C91189   3.683   1.611   3.220 -0.8658 -0.0932 -0.3344
  676MOL0     C91190   3.615   1.509   3.199 -0.0125 -0.3262 -0.0452
  676MOL0     C91191   3.568   2.288   2.981  0.4640  0.4266 -1.0207
  676MOL0     C91192   3.514   2.389   2.910 -0.1030  0.8033 -0.4183
  676MOL0     H91193   3.433   2.640   2.513  0.3063  0.5222  0.6240
  676MOL0     H91194   3.348   2.858   2.378 -1.2151 -2.2554 -0.8409
  676MOL0     H91195   3.155   3.201   2.604 -2.2312  2.8872 -1.5450
  676MOL0     H91196   3.317   3.211   2.520 -1.6189  1.8081  1.8231
  676MOL0     H91197   3.178   3.366   2.397 -1.6013  0.4418  1.4078
  676MOL0     H91198   3.190   3.221   2.296 -0.3816 -0.2042  0.2766
  676MOL0     H91199   2.968   3.158   2.416  0.3480 -0.5477 -0.7056
  676MOL0     H91200   2.976   3.329   2.461  1.6022 -0.3490  1.2325
  676MOL0     H91201   2.840   3.346   2.293 -0.0651 -4.2657  3.4015
  676MOL0     H91202   3.004   3.396   2.215 -0.2899 -1.3187 -0.9475
  676MOL0     H91203   3.021   3.181   2.109 -0.5656 -1.0506 -0.4686
  676MOL0     H91204   2.868   3.116   2.179 -1.4689 -0.9397 -1.1499
  676MOL0     H91205   2.770   3.340   2.065 -0.3084 -3.2856  4.0778
  676MOL0     H91206   2.916   3.342   1.968 -0.1973  0.7152  0.8386
  676MOL0     H91207   2.768   3.229   1.838  2.9607  3.4045  1.5775
  676MOL0     H91208   2.869   3.100   1.888 -0.7154  0.6593 -1.6704
  676MOL0     H91209   2.709   3.014   2.042 -3.8532 -1.6088 -0.8685
  676MOL0     H91210   2.637   3.027   1.885 -0.3224  2.7282 -2.4762
  676MOL0     H91211   2.437   3.259   1.899 -0.9037  2.3612  0.3258
  676MOL0     H91212   2.221   3.343   2.052  0.2487  0.0381 -1.5971
  676MOL0     H91213   2.254   3.382   2.225 -0.8221 -0.8708 -0.1140
  676MOL0     H91214   2.383   3.514   1.980  3.1526  1.1823  0.8144
  676MOL0     H91215   2.402   3.538   2.163 -1.7855 -0.9109  1.9506
  676MOL0     H91216   2.272   3.716   2.112 -1.4052 -0.1144  1.4047
  676MOL0     H91217   2.159   3.590   2.166 -0.6246 -1.2601 -0.2767
  676MOL0     H91218   2.058   3.679   1.973 -0.5881 -0.4301  1.1047
  676MOL0     H91219   2.126   3.545   1.905 -0.1490 -0.4526  1.2804
  676MOL0     H91220   2.054   3.612   1.700 -1.2535 -2.7155 -4.3332
  676MOL0     H91221   1.980   3.515   1.511  2.2657 -4.5862 -1.2164
  676MOL0     H91222   1.973   3.656   1.410 -1.3282 -0.4767 -0.0442
  676MOL0     H91223   2.056   3.510   1.352 -0.3755  0.8412 -1.0207
  676MOL0     H91224   2.361   3.491   1.086  0.1695  1.3228 -0.3049
  676MOL0     H91225   2.395   3.501   0.827 -0.7030  1.7256 -2.8359
  676MOL0     H91226   2.471   3.624   0.634 -0.0554  1.8418  1.5309
  676MOL0     H91227   2.352   3.493   0.620  1.9331  0.0942  0.2332
  676MOL0     H91228   2.250   3.630   0.431 -0.3413 -2.7397  2.2176
  676MOL0     H91229   2.394   3.735   0.435 -3.4455  1.7002  1.8340
  676MOL0     H91230   2.360   3.423   0.390 -0.8100 -0.5171 -0.6230
  676MOL0     H91231   2.516   3.508   0.413  0.0947  0.0186  0.9172
  676MOL0     H91232   2.316   3.533   0.187 -0.8494 -1.1906 -1.5516
  676MOL0     H91233   2.424   3.664   0.207  3.1598 -0.6582 -2.5021
  676MOL0     H91234   2.502   3.392   0.105 -0.7545  0.0629  0.1354
  676MOL0     H91235   2.619   3.485   0.196  1.2049  2.0513 -1.2692
  676MOL0     H91236   2.457   3.565  -0.039 -0.0201  1.3160 -1.1042
  676MOL0     H91237   2.581   3.661   0.047  0.5695  0.7702  0.6043
  676MOL0     H91238   2.610   3.420  -0.125  1.4723 -0.9871 -0.6084
  676MOL0     H91239   2.734   3.444  -0.006 -1.8504 -0.5194  2.1810
  676MOL0     H91240   2.681   3.700  -0.129 -0.8893 -1.1956  1.5971
  676MOL0     H91241   2.642   3.589  -0.259  0.1518 -0.5427 -1.4607
  676MOL0     H91242   2.131   3.834   0.838 -1.7629  0.0416  2.3196
  676MOL0     H91243   2.119   3.824   1.077  0.8221 -0.8894  0.9782
  676MOL0     H91244   2.402   3.866   1.490 -1.5572 -1.4946 -2.7208
  676MOL0     H91245   2.402   3.849   1.738 -0.5353 -0.3234 -0.1293
  676MOL0     H91246   3.259   3.041   2.744 -5.3796  0.0390 -0.3170
  676MOL0     H91247   3.318   2.854   2.868  2.2957 -0.0976 -0.0434
  676MOL0     H91248   3.793   2.580   2.897  0.0854  0.4408 -1.6059
  676MOL0     H91249   3.886   2.385   3.031 -0.7973  1.3964  1.0473
  676MOL0     H91250   3.607   2.065   3.152 -1.8237 -2.8479 -0.3749
  676MOL0     H91251   3.617   2.032   2.977 -1.3195 -0.4722  0.4892
  676MOL0     H91252   3.857   1.933   3.135 -0.0721  0.5356  2.1239
  676MOL0     H91253   3.752   1.855   3.018  2.0791  0.8145 -0.8457
  676MOL0     H91254   3.577   1.828   3.201  0.4432 -1.0673 -0.0156
  676MOL0     H91255   3.670   1.917   3.310 -1.3846 -3.4357  2.0274
  676MOL0     H91256   3.755   1.726   3.372 -0.5376  0.4867  0.3648
  676MOL0     H91257   3.867   1.739   3.237  0.7998 -1.1265 -1.9220
  676MOL0     H91258   3.541   1.442   3.161  0.3620 -0.1453 -1.1198
  676MOL0     H91259   3.497   2.209   3.004  0.2092  0.7983 -0.5136
  676MOL0     H91260   3.406   2.380   2.916  0.0224 -0.1352  0.8808
  677MOL0     O91261   1.463   2.417   0.792 -0.1627  0.4071  0.0645
  677MOL0     C91262   1.538   2.342   0.742  0.8520  0.7115  0.0297
  677MOL0     O91263   1.534   2.317   0.609 -0.4730  0.5852 -0.5917
  677MOL0     C91264   1.451   2.384   0.527  0.2160 -0.0063  0.1887
  677MOL0     C91265   1.501   2.494   0.466 -0.5977 -0.1167  0.2208
  677MOL0     C91266   1.430   2.568   0.369 -0.6929  0.3586  0.1268
  677MOL0     C91267   1.307   2.527   0.330  0.7005  0.9252  0.2551
  677MOL0     O91268   1.224   2.587   0.243  0.2731  0.1942  0.7496
  677MOL0     C91269   1.267   2.685   0.144  0.7621 -0.7918 -0.6923
  677MOL0     C91270   1.227   2.820   0.202  0.3139  0.4698  0.3974
  677MOL0     C91271   1.067   2.824   0.199  0.5817  0.4158  0.2673
  677MOL0     C91272   1.021   2.959   0.236  0.9233 -0.1599 -0.0812
  677MOL0     C91273   0.864   2.968   0.207 -0.3188 -0.5387 -0.9628
  677MOL0     C91274   0.808   3.103   0.250 -0.0932 -0.7444 -0.4424
  677MOL0     C91275   0.798   3.119   0.404  0.5846  0.0411  0.8242
  677MOL0     C91276   0.698   3.037   0.476  0.4583  1.1347  0.2796
  677MOL0     N91277   0.561   3.063   0.421 -0.4993  0.3699 -0.1023
  677MOL0     C91278   0.503   2.996   0.329  0.5231  0.4462 -0.4871
  677MOL0     C91279   0.375   3.048   0.315 -0.8501 -0.4868  0.9190
  677MOL0     C91280   0.266   2.984   0.228 -0.1034  0.6448 -0.2250
  677MOL0     C91281   0.147   2.939   0.318  0.7125 -0.7259 -0.6937
  677MOL0     C91282   0.009   2.920   0.255 -0.7095  0.1586 -0.5219
  677MOL0     C91283   0.013   2.815   0.142 -0.1972 -0.2795  0.1246
  677MOL0     O91284  -0.064   2.701   0.188 -0.6930 -0.4020  0.3658
  677MOL0     C91285  -0.188   2.689   0.111 -1.3355 -0.4728  0.0060
  677MOL0     C91286  -0.243   2.564   0.113 -0.6504  0.0144 -0.5049
  677MOL0     C91287  -0.368   2.532   0.062 -0.4050  0.9194  0.2676
  677MOL0     C91288  -0.419   2.392   0.074  0.1672  1.1504  0.3962
  677MOL0     C91289  -0.436   2.634  -0.008 -0.2477  0.0895 -0.3196
  677MOL0     C91290  -0.570   2.605  -0.063  0.7641 -0.1740  0.1338
  677MOL0     O91291  -0.588   2.567  -0.192 -0.6909  0.2361  0.6757
  677MOL0     C91292  -0.705   2.524  -0.228 -0.1226 -1.1205  0.6164
  677MOL0     C91293  -0.754   2.402  -0.184  0.5209  0.6425 -0.5785
  677MOL0     C91294  -0.878   2.351  -0.228 -0.1040  1.2908 -0.5717
  677MOL0     C91295  -0.946   2.411  -0.338  2.0322  0.0172  0.2235
  677MOL0     O91296  -1.076   2.367  -0.362 -0.3371  0.1577 -0.0721
  677MOL0     C91297  -1.097   2.319  -0.498  0.7798  0.1213 -0.2623
  677MOL0     C91298  -1.200   2.400  -0.569 -0.1488  0.1711 -0.0134
  677MOL0     C91299  -1.354   2.405  -0.517 -0.2292 -0.1238  0.2147
  677MOL0     C91300  -1.425   2.267  -0.499  0.4955  0.1752  0.7808
  677MOL0     C91301  -1.437   2.187  -0.632 -0.0599  0.7295  0.9041
  677MOL0     C91302  -1.456   2.039  -0.598 -0.3092  0.5816 -0.3429
  677MOL0     C91303  -1.448   1.959  -0.734  0.5690 -0.1254 -0.2709
  677MOL0     C91304  -1.488   1.817  -0.704  0.3319 -0.4107  0.6352
  677MOL0    Cl91305  -1.434   1.700  -0.825 -0.1700 -0.4448  0.1531
  677MOL0     C91306  -0.890   2.530  -0.391  0.2401 -0.0407 -0.2618
  677MOL0     C91307  -0.772   2.586  -0.338  0.0568 -0.8203  0.1141
  677MOL0     O91308  -0.670   2.642   0.007 -1.2989 -0.0608  0.5494
  677MOL0     C91309  -0.385   2.766  -0.005  0.4028 -0.1253  1.0854
  677MOL0     C91310  -0.268   2.795   0.063 -0.1028 -0.1450 -0.3050
  677MOL0     N91311   0.373   3.155   0.395  0.8445 -0.1356 -0.4988
  677MOL0     N91312   0.484   3.163   0.460  0.2000  0.0714 -0.0067
  677MOL0     C91313   1.257   2.411   0.403 -0.3608 -0.4282 -0.0775
  677MOL0     C91314   1.326   2.335   0.490  0.1549  1.1366  0.1254
  677MOL0     C91315   1.643   2.293   0.822 -0.4861  0.7738  0.0588
  677MOL0     C91316   1.637   2.290   0.964 -0.6202  0.4751  0.3065
  677MOL0     C91317   1.751   2.260   1.039 -0.3682 -0.2719  0.6118
  677MOL0     C91318   1.867   2.226   0.976 -0.1558 -0.6713  0.0334
  677MOL0     O91319   1.983   2.185   1.042  0.2241  0.2481 -0.4192
  677MOL0     C91320   2.066   2.091   0.974 -0.1607  0.3121  0.5962
  677MOL0     C91321   2.154   2.034   1.091  0.6696  0.2853 -0.2683
  677MOL0     C91322   2.231   1.913   1.040  0.0826 -0.7179  0.2646
  677MOL0     C91323   2.330   1.946   0.922 -0.0866 -0.1390  0.1655
  677MOL0     C91324   2.262   1.935   0.797  0.0860 -0.5589 -1.2487
  677MOL0     C91325   2.197   1.925   0.700  0.0458  0.0259  0.8501
  677MOL0     C91326   1.870   2.214   0.838 -0.4628 -0.0394 -0.2996
  677MOL0     C91327   1.760   2.246   0.756 -0.0584 -0.5127  0.5592
  677MOL0     H91328   1.604   2.517   0.493 -0.8296 -0.2547  1.2466
  677MOL0     H91329   1.473   2.661   0.332  2.0692 -1.3991 -1.3836
  677MOL0     H91330   1.375   2.680   0.124  0.3302  1.0448 -4.3981
  677MOL0     H91331   1.221   2.669   0.046 -1.9039 -1.1058  0.5360
  677MOL0     H91332   1.275   2.827   0.300  0.5000  2.7661  0.2009
  677MOL0     H91333   1.276   2.884   0.127 -0.9367  1.2565  0.2298
  677MOL0     H91334   1.033   2.794   0.099  0.3713  0.0876  0.4381
  677MOL0     H91335   1.030   2.752   0.272 -1.2013 -0.0481 -1.0164
  677MOL0     H91336   1.022   2.978   0.344 -0.4447  2.7560 -0.4719
  677MOL0     H91337   1.075   3.041   0.187  2.2975  2.6721  5.2440
  677MOL0     H91338   0.853   2.951   0.099  2.7678 -0.7912 -1.3329
  677MOL0     H91339   0.798   2.890   0.246 -1.3222  0.3125 -0.9266
  677MOL0     H91340   0.866   3.187   0.212  1.5489 -1.9910 -0.8093
  677MOL0     H91341   0.707   3.104   0.208 -1.6704 -3.2896  2.7660
  677MOL0     H91342   0.897   3.110   0.449  0.9742  2.3855  0.5272
  677MOL0     H91343   0.763   3.221   0.417 -0.4747 -0.3353  1.0237
  677MOL0     H91344   0.698   3.070   0.580 -0.0985  0.3957  0.5153
  677MOL0     H91345   0.715   2.929   0.470  1.1649  1.1881  1.0980
  677MOL0     H91346   0.521   2.895   0.293  0.4959  0.3094 -0.1228
  677MOL0     H91347   0.218   3.060   0.165 -3.7654 -3.4366 -2.8661
  677MOL0     H91348   0.311   2.902   0.172  2.7417  3.2722 -2.1104
  677MOL0     H91349   0.125   3.018   0.390 -2.7644  1.7179 -4.0391
  677MOL0     H91350   0.176   2.858   0.386  2.6736 -0.4647 -1.1600
  677MOL0     H91351  -0.011   3.020   0.213 -1.7469 -0.6128 -1.9638
  677MOL0     H91352  -0.060   2.901   0.337  3.4604  1.0118  3.5737
  677MOL0     H91353   0.111   2.776   0.115  0.1469  0.9265 -0.4395
  677MOL0     H91354  -0.028   2.853   0.048  0.4609 -0.2664 -0.1612
  677MOL0     H91355  -0.191   2.484   0.164 -0.7593  0.6097  0.5501
  677MOL0     H91356  -0.513   2.382   0.128  0.2011 -2.0727  0.0785
  677MOL0     H91357  -0.441   2.350  -0.024 -3.5672 -1.6960  2.1855
  677MOL0     H91358  -0.341   2.329   0.117  0.6364  1.8052  0.5219
  677MOL0     H91359  -0.686   2.340  -0.128  1.1114  1.3908 -0.4579
  677MOL0     H91360  -0.915   2.253  -0.198  3.1713  0.4456  1.2189
  677MOL0     H91361  -1.006   2.291  -0.551  2.4974 -0.2327  2.6544
  677MOL0     H91362  -1.132   2.216  -0.482  4.5214 -1.2554  0.1907
  677MOL0     H91363  -1.162   2.502  -0.582 -3.9264  1.6415 -0.9242
  677MOL0     H91364  -1.204   2.363  -0.671 -1.5474  3.6509 -1.3734
  677MOL0     H91365  -1.408   2.464  -0.592 -1.7353 -0.4999  0.9814
  677MOL0     H91366  -1.357   2.458  -0.422 -0.1734 -0.3302  0.3321
  677MOL0     H91367  -1.353   2.217  -0.433  1.3857 -0.7845 -0.8345
  677MOL0     H91368  -1.524   2.289  -0.460 -0.0199 -0.4561 -0.1316
  677MOL0     H91369  -1.348   2.194  -0.695  1.3397 -2.6412  2.2563
  677MOL0     H91370  -1.518   2.223  -0.697 -0.1603  1.5757  1.4836
  677MOL0     H91371  -1.375   2.001  -0.536  1.5861  0.9322 -2.4982
  677MOL0     H91372  -1.548   2.023  -0.540 -0.5852  1.5496 -0.4811
  677MOL0     H91373  -1.346   1.959  -0.772  1.1337  0.4325  1.1425
  677MOL0     H91374  -1.516   1.994  -0.812 -0.9132 -1.0381  0.5454
  677MOL0     H91375  -1.597   1.816  -0.696  0.0941  0.6769 -1.7264
  677MOL0     H91376  -1.449   1.786  -0.606  2.2265 -0.4994 -0.1229
  677MOL0     H91377  -0.939   2.595  -0.463 -0.3007  1.8434  1.7299
  677MOL0     H91378  -0.733   2.676  -0.383 -0.7105 -0.4056  0.2771
  677MOL0     H91379  -0.441   2.846  -0.052  3.7942  1.7661 -0.0932
  677MOL0     H91380  -0.234   2.898   0.054  1.8649 -0.6313  1.0393
  677MOL0     H91381   1.157   2.381   0.371 -0.9105 -0.7285  1.8037
  677MOL0     H91382   1.284   2.248   0.538 -1.4260  2.2549  0.8633
  677MOL0     H91383   1.545   2.307   1.019 -0.4581  0.6671  0.5217
  677MOL0     H91384   1.739   2.271   1.146  0.6730 -0.3551  0.7468
  677MOL0     H91385   2.003   2.008   0.941  1.4714  0.0146 -2.1205
  677MOL0     H91386   2.127   2.119   0.887  1.7869 -0.6899  1.5661
  677MOL0     H91387   2.082   1.994   1.163  1.3792  1.1494  0.9497
  677MOL0     H91388   2.218   2.110   1.137 -1.5334  2.9658 -1.4093
  677MOL0     H91389   2.157   1.835   1.024 -1.0406  0.2184  0.7482
  677MOL0     H91390   2.291   1.875   1.124 -1.6616 -0.5036  1.6583
  677MOL0     H91391   2.408   1.870   0.918  0.0211 -0.0946  1.1662
  677MOL0     H91392   2.372   2.046   0.939  1.2451 -0.8107  1.0042
  677MOL0     H91393   2.146   1.907   0.608  0.6091  1.8188  0.1438
  677MOL0     H91394   1.954   2.164   0.791 -0.9248 -0.2089 -0.9545
  677MOL0     H91395   1.761   2.215   0.652 -0.6927  0.3562  0.2771
  678MOL0     O91396  10.202   1.836   1.744 -0.5955  0.0387 -0.6926
  678MOL0     C91397  10.144   1.728   1.752 -0.2228 -0.2401 -0.3916
  678MOL0     O91398  10.016   1.712   1.794 -0.3278 -0.0607  0.1047
  678MOL0     C91399   9.927   1.812   1.756 -1.1342  1.0192 -0.6356
  678MOL0     C91400   9.835   1.777   1.659 -0.9387  0.0061  0.6378
  678MOL0     C91401   9.753   1.881   1.615 -1.2867 -0.0208 -0.9623
  678MOL0     C91402   9.772   2.019   1.647  0.1145  0.8638 -0.8932
  678MOL0     O91403   9.681   2.114   1.604 -0.2239  0.8895  0.6843
  678MOL0     C91404   9.648   2.094   1.468 -0.5967 -0.6568  1.1281
  678MOL0     C91405   9.585   2.231   1.407 -0.0864  0.3661 -0.0086
  678MOL0     C91406   9.681   2.347   1.391  0.1407  0.1409  0.4430
  678MOL0     C91407   9.620   2.484   1.390 -0.3537 -0.3685 -0.2809
  678MOL0     C91408   9.550   2.509   1.261  0.0529  0.3079  0.1932
  678MOL0     C91409   9.467   2.635   1.257  0.3976  0.4023  0.3800
  678MOL0     C91410   9.380   2.646   1.377  0.1623  0.3289  0.9432
  678MOL0     C91411   9.269   2.743   1.357  0.7759 -0.2795  0.0714
  678MOL0     N91412   9.150   2.682   1.301  0.9377  0.4230 -0.0216
  678MOL0     C91413   9.129   2.657   1.167 -0.1474  0.1578 -0.3268
  678MOL0     C91414   9.012   2.583   1.159  0.5388  0.4961 -0.4255
  678MOL0     C91415   8.913   2.553   1.045  0.0528 -0.1011  0.6797
  678MOL0     C91416   8.853   2.673   0.970 -0.2860 -0.1081  0.4558
  678MOL0     C91417   8.766   2.614   0.856 -0.3317 -0.1431 -0.3057
  678MOL0     C91418   8.750   2.717   0.748  0.3934  0.6681 -0.5883
  678MOL0     O91419   8.673   2.668   0.635  1.2075  0.6392 -0.2506
  678MOL0     C91420   8.681   2.732   0.514 -0.3189  0.6786 -0.4139
  678MOL0     C91421   8.649   2.663   0.398  0.7246  0.6937 -0.4984
  678MOL0     C91422   8.629   2.721   0.273 -0.0818 -0.1567 -0.3244
  678MOL0     C91423   8.608   2.639   0.145  0.7136  0.7847  0.2179
  678MOL0     C91424   8.674   2.860   0.257  0.4695  1.1462  0.2738
  678MOL0     C91425   8.679   2.935   0.128  0.5954  0.0767  0.1628
  678MOL0     O91426   8.662   2.868   0.002  0.0050 -0.1190 -0.2953
  678MOL0     C91427   8.718   2.906  -0.116 -1.0935 -0.7707 -0.9197
  678MOL0     C91428   8.694   3.029  -0.165 -1.2579  0.7354 -0.1567
  678MOL0     C91429   8.755   3.063  -0.295 -0.3090 -0.8991  0.1437
  678MOL0     C91430   8.840   2.977  -0.365  0.1787 -0.0526 -0.3505
  678MOL0     O91431   8.891   3.024  -0.479 -0.2239 -0.0740  0.9213
  678MOL0     C91432   8.908   2.932  -0.590  0.7942 -0.8504 -0.7864
  678MOL0     C91433   9.049   2.959  -0.656 -0.3877  0.4042  0.0152
  678MOL0     C91434   9.155   2.967  -0.548 -0.3379 -0.3255  1.0431
  678MOL0     C91435   9.219   2.834  -0.507 -0.1777  0.7394 -0.1941
  678MOL0     C91436   9.324   2.851  -0.412  1.0781 -0.1744  0.1546
  678MOL0     C91437   9.401   2.721  -0.392  0.5755  0.1789  0.0293
  678MOL0     C91438   9.495   2.720  -0.267  0.3192  0.4909  0.5811
  678MOL0     C91439   9.601   2.607  -0.287 -0.9552  0.0270  0.8082
  678MOL0    Cl91440   9.722   2.590  -0.156  0.6522  0.7157 -0.2921
  678MOL0     C91441   8.871   2.857  -0.307 -0.1921 -0.2379 -0.2999
  678MOL0     C91442   8.805   2.819  -0.180  1.0589 -0.8753  0.1334
  678MOL0     O91443   8.717   3.051   0.140 -0.1513  0.7515  0.3101
  678MOL0     C91444   8.703   2.936   0.382  0.5208  0.4486  0.7305
  678MOL0     C91445   8.711   2.871   0.503  0.5626  0.2766  0.3066
  678MOL0     N91446   8.967   2.569   1.295  0.8657 -0.0058 -0.2321
  678MOL0     N91447   9.047   2.626   1.374  0.0453  0.4005 -0.4684
  678MOL0     C91448   9.857   2.043   1.752 -0.4921  0.4389 -0.0330
  678MOL0     C91449   9.938   1.941   1.808 -0.3747 -0.6784 -0.6680
  678MOL0     C91450  10.209   1.609   1.709  0.4993 -0.2647 -0.1258
  678MOL0     C91451  10.153   1.488   1.747 -0.0187  0.2493  0.1918
  678MOL0     C91452  10.222   1.366   1.728  0.2951 -0.8184 -0.5449
  678MOL0     C91453  10.355   1.363   1.670  0.5199 -0.5875  1.3129
  678MOL0     O91454  10.412   1.237   1.636 -0.0772  0.0381 -0.2857
  678MOL0     C91455  10.546   1.233   1.682 -0.1480 -0.0585 -0.2592
  678MOL0     C91456  10.606   1.096   1.666  0.7449  0.4234  0.0076
  678MOL0     C91457  10.678   1.067   1.544  0.0310  0.1702 -0.2141
  678MOL0     C91458  10.712   0.921   1.526  0.6319 -0.5988 -0.3060
  678MOL0     C91459  10.794   0.876   1.644  0.1724 -0.1777  0.6392
  678MOL0     C91460  10.858   0.817   1.730 -0.9021  1.0368 -0.3285
  678MOL0     C91461  10.405   1.489   1.635  0.2690  0.7581  0.0916
  678MOL0     C91462  10.334   1.618   1.647  0.4652  0.2364  0.3341
  678MOL0     H91463   9.817   1.675   1.627 -3.1595 -0.0137  1.7269
  678MOL0     H91464   9.679   1.862   1.538 -2.0703  3.7924 -1.3456
  678MOL0     H91465   9.742   2.077   1.415  1.2643  1.5716  3.4272
  678MOL0     H91466   9.573   2.014   1.462 -1.0941 -0.0827 -2.5304
  678MOL0     H91467   9.563   2.193   1.307 -0.2681  1.3391 -0.3486
  678MOL0     H91468   9.493   2.256   1.461  0.8269  1.5727  1.0513
  678MOL0     H91469   9.760   2.344   1.467 -1.8214  0.7315  2.6153
  678MOL0     H91470   9.720   2.340   1.289  1.4898  2.6815  0.6970
  678MOL0     H91471   9.566   2.480   1.485  3.6526 -3.4208  2.2176
  678MOL0     H91472   9.690   2.568   1.398 -2.9044  1.9351 -0.5440
  678MOL0     H91473   9.635   2.517   1.193  1.3297  2.3018  1.8892
  678MOL0     H91474   9.477   2.429   1.249  0.7429 -0.9831  3.3487
  678MOL0     H91475   9.537   2.718   1.244 -0.6438  1.0327 -1.7876
  678MOL0     H91476   9.411   2.625   1.163 -1.4683  1.0350  1.3812
  678MOL0     H91477   9.332   2.552   1.406  2.0509 -1.7898 -2.1902
  678MOL0     H91478   9.438   2.674   1.466 -2.7504  1.3711  2.6776
  678MOL0     H91479   9.306   2.815   1.283  0.4090 -0.3576 -0.1906
  678MOL0     H91480   9.253   2.790   1.454 -1.3557 -1.8898  0.5919
  678MOL0     H91481   9.183   2.706   1.086 -1.2208  1.5358 -0.2440
  678MOL0     H91482   8.969   2.501   0.967 -0.0002  2.7291 -1.4240
  678MOL0     H91483   8.836   2.485   1.082 -0.4588 -0.1613 -0.4709
  678MOL0     H91484   8.930   2.727   0.914 -2.1379 -1.6401 -3.9834
  678MOL0     H91485   8.806   2.744   1.039 -2.1321  0.1394 -0.9688
  678MOL0     H91486   8.665   2.599   0.897  0.7890 -1.5300  2.1421
  678MOL0     H91487   8.810   2.524   0.813 -3.2103 -0.4638 -2.9520
  678MOL0     H91488   8.840   2.764   0.706  2.6820  0.6144  3.7513
  678MOL0     H91489   8.690   2.800   0.788 -0.8324  0.5939 -2.1800
  678MOL0     H91490   8.638   2.556   0.404  0.9024  0.5279 -2.3903
  678MOL0     H91491   8.559   2.545   0.170  1.8280  0.0679 -0.1919
  678MOL0     H91492   8.544   2.686   0.070  1.6656  2.1374  0.2131
  678MOL0     H91493   8.703   2.606   0.102 -0.3164 -1.1807 -0.6924
  678MOL0     H91494   8.629   3.098  -0.112  0.3440  1.4543  0.9209
  678MOL0     H91495   8.736   3.166  -0.323 -0.2602 -1.1919 -1.0216
  678MOL0     H91496   8.892   2.831  -0.553 -1.4228  0.2196  1.4995
  678MOL0     H91497   8.830   2.953  -0.664 -1.0592  1.8376  1.7144
  678MOL0     H91498   9.074   2.881  -0.729  3.3511  1.7468 -0.3779
  678MOL0     H91499   9.058   3.059  -0.700  3.2216  0.6868  1.0169
  678MOL0     H91500   9.129   3.032  -0.464 -0.6865  1.6439 -0.5113
  678MOL0     H91501   9.231   3.026  -0.599 -1.5010 -0.1698 -0.5706
  678MOL0     H91502   9.147   2.773  -0.452 -0.0792 -0.0706 -0.9385
  678MOL0     H91503   9.263   2.781  -0.592 -0.1424  0.6190 -0.1004
  678MOL0     H91504   9.279   2.899  -0.325 -3.1962  0.1213 -1.9281
  678MOL0     H91505   9.393   2.925  -0.456  0.8023 -0.5163 -0.8919
  678MOL0     H91506   9.331   2.638  -0.404  0.4213  0.2001  0.7573
  678MOL0     H91507   9.477   2.717  -0.470  0.2853  3.5440 -0.5749
  678MOL0     H91508   9.431   2.719  -0.178 -3.0417  4.2125 -1.4553
  678MOL0     H91509   9.557   2.810  -0.264 -1.4140  1.8870 -1.8723
  678MOL0     H91510   9.654   2.622  -0.381  0.1106 -3.6494  0.6564
  678MOL0     H91511   9.555   2.511  -0.312  0.9667 -0.7738  0.2353
  678MOL0     H91512   8.949   2.797  -0.353  0.4346  2.3234 -2.9087
  678MOL0     H91513   8.808   2.720  -0.135 -4.5493 -1.8443 -0.7796
  678MOL0     H91514   8.734   3.039   0.368 -1.4193  0.7386 -2.8314
  678MOL0     H91515   8.722   2.937   0.589 -1.4354  1.9839 -0.6796
  678MOL0     H91516   9.855   2.142   1.798 -2.0520  1.8394 -2.8524
  678MOL0     H91517  10.005   1.951   1.893  1.1432  1.5790 -2.0188
  678MOL0     H91518  10.056   1.485   1.795 -0.3883 -2.4861 -0.6053
  678MOL0     H91519  10.162   1.278   1.749 -1.8495  1.1096  2.1314
  678MOL0     H91520  10.617   1.297   1.629  0.4212 -0.2873  0.2087
  678MOL0     H91521  10.552   1.260   1.788 -2.3204 -0.4291  0.0072
  678MOL0     H91522  10.524   1.027   1.689 -1.7301  2.6098 -1.6939
  678MOL0     H91523  10.681   1.095   1.746  0.2289 -1.0872  0.5267
  678MOL0     H91524  10.768   1.126   1.524  1.6792 -1.3310  2.2600
  678MOL0     H91525  10.613   1.086   1.459 -2.2885  0.6940  1.5892
  678MOL0     H91526  10.770   0.923   1.433  2.6822 -2.0208  0.8738
  678MOL0     H91527  10.620   0.862   1.521 -0.3292  0.8717 -0.7960
  678MOL0     H91528  10.920   0.774   1.807  1.2774 -0.1878 -2.6228
  678MOL0     H91529  10.501   1.491   1.585 -0.6520 -1.2766 -1.9347
  678MOL0     H91530  10.382   1.713   1.631  2.2916 -0.6818  0.1078
  679MOL0     O91531   1.959   7.154   8.860 -0.5318 -0.5208 -0.5092
  679MOL0     C91532   1.845   7.123   8.890  0.7300  1.0504 -0.3648
  679MOL0     O91533   1.736   7.201   8.889 -0.3291  0.2422  0.2502
  679MOL0     C91534   1.729   7.325   8.826  0.6346 -0.6990 -0.2255
  679MOL0     C91535   1.618   7.408   8.847  0.5236 -0.1546 -0.1643
  679MOL0     C91536   1.591   7.519   8.766 -0.3234  0.0639 -0.6348
  679MOL0     C91537   1.679   7.556   8.669  0.3032 -0.4504 -0.0223
  679MOL0     O91538   1.662   7.667   8.587  0.3694 -0.3716  0.5460
  679MOL0     C91539   1.570   7.768   8.620  0.8371  0.4732  0.2477
  679MOL0     C91540   1.601   7.891   8.528 -0.3756 -0.2327  0.6137
  679MOL0     C91541   1.511   7.889   8.406  0.4333 -0.9338 -0.1886
  679MOL0     C91542   1.587   7.930   8.280 -0.3451 -0.4114  0.9270
  679MOL0     C91543   1.491   7.940   8.162 -0.1280 -0.5349  0.0051
  679MOL0     C91544   1.438   7.811   8.099 -0.2535  0.6781  0.2132
  679MOL0     C91545   1.371   7.824   7.962 -0.2434  0.6300  0.3391
  679MOL0     C91546   1.224   7.848   7.964  0.4901 -1.1418  0.6534
  679MOL0     N91547   1.154   7.842   7.833  0.1797  0.1749 -0.5638
  679MOL0     C91548   1.186   7.783   7.708  0.2409 -0.0585  0.2716
  679MOL0     C91549   1.097   7.808   7.614  0.6065 -0.2200  0.2511
  679MOL0     C91550   1.080   7.767   7.476  1.5220  0.1723  0.1836
  679MOL0     C91551   1.164   7.655   7.437 -1.4975  0.3155 -0.3007
  679MOL0     C91552   1.307   7.705   7.408 -0.3890 -0.5389 -0.0125
  679MOL0     C91553   1.408   7.590   7.378 -0.3256  0.8805 -0.2050
  679MOL0     O91554   1.346   7.504   7.285  0.4731  0.5445 -0.2025
  679MOL0     C91555   1.431   7.415   7.228  0.4259  0.6477  0.0567
  679MOL0     C91556   1.392   7.328   7.132  0.2992 -1.0467  0.3933
  679MOL0     C91557   1.478   7.245   7.053 -0.5082  0.3392  0.2653
  679MOL0     C91558   1.422   7.145   6.957 -0.2017  0.1212 -0.1617
  679MOL0     C91559   1.613   7.242   7.089 -0.4902  0.8206 -1.0931
  679MOL0     C91560   1.727   7.171   7.020 -0.2874  0.1004 -0.5532
  679MOL0     O91561   1.815   7.107   7.104  0.3430  0.2218 -0.1775
  679MOL0     C91562   1.931   7.070   7.043 -0.3335 -0.0569 -0.1743
  679MOL0     C91563   1.940   6.980   6.934 -0.0053  0.4417  0.9240
  679MOL0     C91564   2.058   6.961   6.856 -1.1040  0.3712 -0.7367
  679MOL0     C91565   2.169   7.022   6.900 -0.6321 -0.7686  0.0012
  679MOL0     O91566   2.283   7.005   6.820  0.0686  0.2396 -0.0009
  679MOL0     C91567   2.349   7.134   6.788 -0.0672  0.1470 -0.5332
  679MOL0     C91568   2.496   7.111   6.746  0.1005 -0.0570 -0.1203
  679MOL0     C91569   2.506   7.054   6.593 -0.0152 -0.1921 -0.0048
  679MOL0     C91570   2.648   7.020   6.542 -0.1071 -0.0026 -0.7651
  679MOL0     C91571   2.721   7.149   6.502 -0.5268 -0.7896 -0.2483
  679MOL0     C91572   2.861   7.113   6.445  0.0815 -0.1704 -0.2879
  679MOL0     C91573   2.946   7.239   6.466 -0.1248 -0.1228 -0.0057
  679MOL0     C91574   3.085   7.218   6.408 -0.3270 -0.4357 -1.0657
  679MOL0    Cl91575   3.171   7.079   6.484  0.1144  0.3441 -0.3014
  679MOL0     C91576   2.163   7.104   7.017 -0.9409  0.3731  0.9542
  679MOL0     C91577   2.049   7.119   7.088 -0.1092 -1.2922 -0.7048
  679MOL0     O91578   1.727   7.176   6.901  0.2380 -0.4147  0.5005
  679MOL0     C91579   1.646   7.318   7.208 -0.4132 -0.0066 -1.2946
  679MOL0     C91580   1.557   7.391   7.281  0.5471 -0.3836 -0.2629
  679MOL0     N91581   1.006   7.891   7.676  0.2874  0.8133 -0.2034
  679MOL0     N91582   1.033   7.903   7.806  0.2080  0.4878  0.2622
  679MOL0     C91583   1.801   7.489   8.657 -0.3845  0.3873  0.5884
  679MOL0     C91584   1.815   7.367   8.728 -0.7005  0.7256  0.0389
  679MOL0     C91585   1.828   6.985   8.933 -0.2934  1.2605  0.5039
  679MOL0     C91586   1.918   6.880   8.887  0.8380  0.3750 -0.4927
  679MOL0     C91587   1.918   6.748   8.934  0.5018  0.7182  0.3743
  679MOL0     C91588   1.819   6.722   9.030 -0.5523 -1.0455 -0.0960
  679MOL0     O91589   1.805   6.602   9.099 -0.5240 -1.1606  0.2778
  679MOL0     C91590   1.881   6.490   9.044  0.3060  0.1835  0.0944
  679MOL0     C91591   1.841   6.347   9.119 -0.0983  0.6364  0.4725
  679MOL0     C91592   1.843   6.369   9.275 -0.0722  0.1480 -0.4987
  679MOL0     C91593   1.982   6.361   9.336 -0.0977  1.0847 -0.4147
  679MOL0     C91594   1.991   6.333   9.476 -0.0667 -0.1003 -0.6603
  679MOL0     C91595   2.005   6.304   9.590  0.9619  0.4254 -0.4911
  679MOL0     C91596   1.718   6.820   9.065 -0.2651  0.2433 -0.1340
  679MOL0     C91597   1.738   6.957   9.026  0.2160  0.4988  0.1310
  679MOL0     H91598   1.561   7.388   8.937 -0.9057 -1.5247 -1.3155
  679MOL0     H91599   1.496   7.567   8.789  0.2916  1.2978 -0.5851
  679MOL0     H91600   1.470   7.725   8.609  0.2946  1.6154  0.4916
  679MOL0     H91601   1.579   7.806   8.722 -1.8430  0.9865  0.3506
  679MOL0     H91602   1.576   7.987   8.574 -0.2753  1.2531 -2.1566
  679MOL0     H91603   1.704   7.894   8.491 -0.5062  1.6268  0.2809
  679MOL0     H91604   1.472   7.787   8.395 -4.2733  0.2266  2.6874
  679MOL0     H91605   1.422   7.949   8.430  0.1645 -1.1360 -0.6615
  679MOL0     H91606   1.637   8.027   8.280  0.4174 -0.7839  2.2240
  679MOL0     H91607   1.661   7.850   8.265 -0.9883 -0.7439 -0.7103
  679MOL0     H91608   1.404   7.996   8.196  0.7854  0.4733  0.7335
  679MOL0     H91609   1.545   7.997   8.086 -1.3710  0.9373  0.1889
  679MOL0     H91610   1.526   7.748   8.084 -0.6776  0.4751 -1.6303
  679MOL0     H91611   1.359   7.771   8.163  0.6163  1.1949  1.6792
  679MOL0     H91612   1.429   7.897   7.905 -0.3155  1.5949  1.4611
  679MOL0     H91613   1.380   7.731   7.905  0.7773 -0.1825  1.7710
  679MOL0     H91614   1.206   7.953   7.990 -2.8984 -0.1695 -4.2367
  679MOL0     H91615   1.177   7.782   8.038 -0.2168  0.1772  1.4188
  679MOL0     H91616   1.273   7.719   7.693 -0.4440 -0.6182 -1.5702
  679MOL0     H91617   0.974   7.752   7.450  0.9990  2.5944  0.7270
  679MOL0     H91618   1.112   7.859   7.426 -4.7055  3.5683  1.3975
  679MOL0     H91619   1.114   7.614   7.349 -0.7116 -0.9942 -0.1558
  679MOL0     H91620   1.177   7.583   7.518  3.4904  1.9590  0.7032
  679MOL0     H91621   1.340   7.753   7.501  3.2445 -0.7312 -1.0601
  679MOL0     H91622   1.313   7.767   7.319 -0.4624 -2.2670 -1.2778
  679MOL0     H91623   1.431   7.544   7.474  0.1085  2.4488  0.4845
  679MOL0     H91624   1.503   7.632   7.341  2.2112 -1.8858  2.5951
  679MOL0     H91625   1.288   7.332   7.100  0.8475 -0.6381 -1.4737
  679MOL0     H91626   1.378   7.064   7.016  0.0734 -0.4180 -0.6883
  679MOL0     H91627   1.365   7.179   6.870 -0.7887 -2.5223 -0.8806
  679MOL0     H91628   1.503   7.100   6.899 -1.0025  0.9150 -1.9586
  679MOL0     H91629   1.845   6.936   6.906 -0.8956  2.8448 -0.1306
  679MOL0     H91630   2.050   6.887   6.777  1.9406  2.6844 -3.4869
  679MOL0     H91631   2.303   7.181   6.701  0.8791 -1.2816 -1.8500
  679MOL0     H91632   2.344   7.219   6.857  0.2570  0.5515 -1.0042
  679MOL0     H91633   2.557   7.202   6.749  0.0073  0.0001  0.1222
  679MOL0     H91634   2.552   7.047   6.816 -4.5002 -0.8403  3.3228
  679MOL0     H91635   2.465   7.129   6.525  2.9656  1.8673  0.2797
  679MOL0     H91636   2.450   6.960   6.595  0.3545 -0.4173 -0.0698
  679MOL0     H91637   2.700   6.970   6.625 -4.1396  2.1952  3.6204
  679MOL0     H91638   2.645   6.960   6.451  1.2492  1.0178 -1.5032
  679MOL0     H91639   2.736   7.204   6.596  0.2148 -3.1542  1.1077
  679MOL0     H91640   2.667   7.222   6.442  2.4798  1.0822 -0.8963
  679MOL0     H91641   2.908   7.035   6.505 -3.0231 -3.0691 -1.2751
  679MOL0     H91642   2.851   7.089   6.339 -4.0698 -1.1648  0.1454
  679MOL0     H91643   2.953   7.246   6.575 -2.8507 -0.6160  0.2716
  679MOL0     H91644   2.900   7.322   6.412 -0.9819 -1.1687 -0.9545
  679MOL0     H91645   3.146   7.309   6.401  1.3393 -1.3852  0.2457
  679MOL0     H91646   3.080   7.197   6.301 -3.3467  1.1722 -1.3496
  679MOL0     H91647   2.244   7.166   7.054 -1.3543  1.9885 -0.7176
  679MOL0     H91648   2.046   7.185   7.174  0.5533  1.1276 -2.4117
  679MOL0     H91649   1.751   7.313   7.235 -0.3111  0.2954 -1.6323
  679MOL0     H91650   1.581   7.427   7.380  0.9111  2.9409 -1.4367
  679MOL0     H91651   1.879   7.522   8.589  2.1434 -0.6566  2.7797
  679MOL0     H91652   1.905   7.316   8.694  0.1299  1.8946  0.3919
  679MOL0     H91653   1.995   6.902   8.814  1.9187 -1.6143 -0.0350
  679MOL0     H91654   2.000   6.682   8.907  1.6052  1.7022  1.1992
  679MOL0     H91655   1.844   6.472   8.943  1.5062  1.4981 -0.6116
  679MOL0     H91656   1.988   6.509   9.037  0.1992  0.6186 -0.4881
  679MOL0     H91657   1.911   6.266   9.095 -0.9984  0.1675 -0.6822
  679MOL0     H91658   1.753   6.299   9.076  0.3725  0.5328 -0.4049
  679MOL0     H91659   1.781   6.300   9.333  0.1615  0.1755 -0.2160
  679MOL0     H91660   1.796   6.466   9.293  0.4407  0.1190  1.0916
  679MOL0     H91661   2.037   6.452   9.308  0.2420  0.5338 -1.5977
  679MOL0     H91662   2.038   6.287   9.278  2.0244  1.5055  0.9918
  679MOL0     H91663   2.013   6.278   9.694  1.3908  3.1193  0.2324
  679MOL0     H91664   1.651   6.796   9.147  0.4103 -1.4653 -0.0239
  679MOL0     H91665   1.665   7.028   9.062 -2.4627 -2.3511  0.7708
  680MOL0     O91666   2.597   0.204  11.454  0.2829 -0.2263 -0.4508
  680MOL0     C91667   2.594   0.233  11.579 -0.1265  0.8142  0.5052
  680MOL0     O91668   2.619   0.145  11.681 -0.5454 -0.2872 -0.2747
  680MOL0     C91669   2.610   0.013  11.677  0.4972  0.2589 -0.1188
  680MOL0     C91670   2.675  -0.066  11.587 -0.1695  0.7866  0.4193
  680MOL0     C91671   2.653  -0.215  11.586 -0.5197 -0.8768  1.1169
  680MOL0     C91672   2.555  -0.265  11.663 -0.3614 -0.8182  0.2108
  680MOL0     O91673   2.530  -0.394  11.676 -0.4222 -0.6164 -0.5389
  680MOL0     C91674   2.636  -0.485  11.702  0.3349  1.2000  0.6347
  680MOL0     C91675   2.568  -0.620  11.696 -0.2847 -0.7643  0.5646
  680MOL0     C91676   2.481  -0.661  11.811  0.7793 -0.6630 -0.4703
  680MOL0     C91677   2.382  -0.774  11.763  0.5901  0.0780 -0.1238
  680MOL0     C91678   2.295  -0.840  11.875 -0.2766  0.6342 -0.1641
  680MOL0     C91679   2.218  -0.950  11.810 -0.3515  0.6484  0.4718
  680MOL0     C91680   2.123  -1.021  11.907  0.6989 -0.5145  0.4901
  680MOL0     C91681   2.003  -1.084  11.839 -0.4720 -0.6491 -0.1869
  680MOL0     N91682   1.917  -1.135  11.940 -0.2744 -0.6867 -0.3557
  680MOL0     C91683   1.810  -1.078  11.998 -0.2457 -0.3729 -0.2392
  680MOL0     C91684   1.765  -1.163  12.091 -0.5217  0.3391 -0.3926
  680MOL0     C91685   1.652  -1.133  12.184  0.5043 -0.4864 -0.1736
  680MOL0     C91686   1.680  -1.177  12.325 -0.9561  0.0820 -0.6935
  680MOL0     C91687   1.825  -1.137  12.368  0.3119 -0.2239 -0.3339
  680MOL0     C91688   1.846  -1.162  12.519 -0.6309 -0.1538  0.9161
  680MOL0     O91689   1.744  -1.114  12.596  0.2643  0.4124  0.2865
  680MOL0     C91690   1.772  -1.136  12.731  0.6355  0.8976  0.1954
  680MOL0     C91691   1.832  -1.042  12.810 -0.0928 -0.1725 -0.6014
  680MOL0     C91692   1.837  -1.041  12.951 -0.6021  0.2676  0.0560
  680MOL0     C91693   1.889  -0.916  13.018 -0.7204  0.6570  0.2528
  680MOL0     C91694   1.799  -1.156  13.020 -0.9400 -0.7996  0.4087
  680MOL0     C91695   1.823  -1.174  13.163  0.2966  0.3940 -0.2961
  680MOL0     O91696   1.741  -1.275  13.210 -0.3275 -1.2048  0.0087
  680MOL0     C91697   1.709  -1.296  13.338 -0.6185 -0.1652 -0.6104
  680MOL0     C91698   1.693  -1.429  13.390  0.0815  0.6088  0.8069
  680MOL0     C91699   1.675  -1.445  13.530  0.1960 -0.4806  0.9246
  680MOL0     C91700   1.657  -1.334  13.620 -0.1734 -0.5629 -0.3070
  680MOL0     O91701   1.625  -1.364  13.756  0.4948  0.7228 -0.5687
  680MOL0     C91702   1.505  -1.426  13.788  0.4061  0.1674 -0.9732
  680MOL0     C91703   1.509  -1.463  13.935 -0.3557 -0.3748  0.4254
  680MOL0     C91704   1.371  -1.500  13.994  0.6691  0.7890 -0.0929
  680MOL0     C91705   1.295  -1.609  13.908  0.4316 -0.1538  0.4294
  680MOL0     C91706   1.148  -1.640  13.950 -0.6257  0.3970 -1.1277
  680MOL0     C91707   1.037  -1.553  13.877 -0.1497  0.6059 -0.4789
  680MOL0     C91708   0.899  -1.568  13.960 -0.0199  0.1109 -0.5348
  680MOL0     C91709   0.774  -1.498  13.906 -0.3448 -0.6674  0.4385
  680MOL0    Cl91710   0.619  -1.547  13.985 -0.0483 -0.5225 -0.3646
  680MOL0     C91711   1.661  -1.205  13.565 -0.2017 -0.4818  0.3263
  680MOL0     C91712   1.679  -1.190  13.421  0.5045  0.5080 -0.7926
  680MOL0     O91713   1.902  -1.115  13.231  0.0962 -0.2747 -0.5303
  680MOL0     C91714   1.736  -1.252  12.940  0.0698  0.5145 -0.4245
  680MOL0     C91715   1.719  -1.247  12.797  0.4376  0.3739 -0.9001
  680MOL0     N91716   1.839  -1.280  12.085 -0.0415  0.1833 -0.6299
  680MOL0     N91717   1.931  -1.256  11.991  0.5826  0.7010  0.8371
  680MOL0     C91718   2.486  -0.184  11.750  0.1312 -0.4294 -0.1264
  680MOL0     C91719   2.515  -0.052  11.760  0.3818 -1.1883  0.4665
  680MOL0     C91720   2.586   0.376  11.623 -0.0934  0.1944  0.5230
  680MOL0     C91721   2.582   0.479  11.527  0.2403  1.2677  0.2002
  680MOL0     C91722   2.572   0.616  11.569  0.0516 -0.2876  0.1533
  680MOL0     C91723   2.576   0.658  11.700 -0.5287 -0.4733  0.1724
  680MOL0     O91724   2.589   0.787  11.737 -0.4556 -0.1151 -0.4515
  680MOL0     C91725   2.581   0.897  11.647  0.2790 -0.2479 -0.1339
  680MOL0     C91726   2.601   1.016  11.729  0.0367  0.4649 -1.1002
  680MOL0     C91727   2.481   1.066  11.803  0.7309 -0.3623 -0.4335
  680MOL0     C91728   2.528   1.176  11.888 -1.0311  0.4532  1.1074
  680MOL0     C91729   2.579   1.294  11.817  0.4530 -0.1350  0.0954
  680MOL0     C91730   2.616   1.392  11.764  0.7717 -0.7156 -0.6102
  680MOL0     C91731   2.582   0.550  11.794 -0.3008 -1.1393 -0.0494
  680MOL0     C91732   2.582   0.410  11.764 -0.6573 -0.2761  0.4793
  680MOL0     H91733   2.750  -0.028  11.518  2.0596 -2.1015  1.0806
  680MOL0     H91734   2.710  -0.275  11.515  1.4154 -2.0991  3.5317
  680MOL0     H91735   2.711  -0.482  11.623  2.0389  2.0131  2.2237
  680MOL0     H91736   2.690  -0.465  11.795  0.7605 -2.0532  1.2197
  680MOL0     H91737   2.518  -0.623  11.598 -1.6851 -0.6863  1.2543
  680MOL0     H91738   2.637  -0.702  11.675  0.3375  0.3763 -2.5726
  680MOL0     H91739   2.558  -0.686  11.885 -0.1466 -1.4418  0.2564
  680MOL0     H91740   2.409  -0.585  11.842 -1.2712 -2.8391  0.3771
  680MOL0     H91741   2.315  -0.734  11.687 -1.6616  1.6481  2.4619
  680MOL0     H91742   2.439  -0.859  11.724 -1.3128 -3.1242  3.3460
  680MOL0     H91743   2.353  -0.880  11.958 -1.3190  0.5904  0.5564
  680MOL0     H91744   2.226  -0.764  11.913 -1.6902 -2.4074  4.1099
  680MOL0     H91745   2.170  -0.910  11.720  2.7374  2.1511 -0.6590
  680MOL0     H91746   2.289  -1.026  11.778 -3.2553 -0.3609 -4.6221
  680MOL0     H91747   2.187  -1.091  11.962  3.8662  2.2967  0.7042
  680MOL0     H91748   2.081  -0.942  11.970  1.0379 -1.5776  2.1145
  680MOL0     H91749   2.023  -1.164  11.767 -3.2790 -1.0931 -0.6007
  680MOL0     H91750   1.960  -1.004  11.779  2.2395  0.3439 -0.9375
  680MOL0     H91751   1.778  -0.977  11.976 -2.5237 -1.4537 -2.3192
  680MOL0     H91752   1.623  -1.027  12.188 -2.0831 -0.9958 -2.2563
  680MOL0     H91753   1.560  -1.183  12.152  0.2359  0.4808 -0.9864
  680MOL0     H91754   1.676  -1.285  12.336  0.9175  0.1126  0.7272
  680MOL0     H91755   1.608  -1.130  12.392  2.1308  1.9077  1.5797
  680MOL0     H91756   1.825  -1.029  12.354 -2.6535 -0.2095 -1.0647
  680MOL0     H91757   1.905  -1.187  12.312 -0.8369 -1.0758 -1.2983
  680MOL0     H91758   1.950  -1.136  12.539 -0.8991  0.7065  1.2686
  680MOL0     H91759   1.844  -1.271  12.529 -0.7957 -0.3556 -0.9850
  680MOL0     H91760   1.867  -0.961  12.746 -0.7630  3.0568  2.7400
  680MOL0     H91761   1.985  -0.939  13.065  1.9587  3.1326 -3.5157
  680MOL0     H91762   1.914  -0.833  12.951  0.1622 -1.1888 -1.8311
  680MOL0     H91763   1.808  -0.892  13.088 -1.6086 -2.0402  0.2528
  680MOL0     H91764   1.705  -1.519  13.331 -1.3382  1.4134 -0.8282
  680MOL0     H91765   1.669  -1.543  13.575 -1.7290 -1.1941 -0.7172
  680MOL0     H91766   1.431  -1.345  13.783 -0.3029 -0.4725 -1.1536
  680MOL0     H91767   1.485  -1.507  13.718 -1.9603 -0.9328  0.7953
  680MOL0     H91768   1.566  -1.555  13.943 -0.3376 -0.2102  2.5592
  680MOL0     H91769   1.542  -1.372  13.987 -0.1498  0.6470 -1.3807
  680MOL0     H91770   1.312  -1.408  14.008  1.2330  1.0467  0.6349
  680MOL0     H91771   1.383  -1.545  14.093 -3.0508  0.3843  0.3152
  680MOL0     H91772   1.286  -1.576  13.804 -1.4853  0.5042  0.7568
  680MOL0     H91773   1.354  -1.701  13.900 -1.6738 -1.5340 -0.0218
  680MOL0     H91774   1.139  -1.623  14.058  1.9467 -0.3159 -0.7335
  680MOL0     H91775   1.118  -1.743  13.932 -1.1777  0.5228 -0.9716
  680MOL0     H91776   1.057  -1.446  13.878 -1.4293  0.8533 -0.5185
  680MOL0     H91777   1.033  -1.593  13.776  0.3649 -1.5318  0.2849
  680MOL0     H91778   0.918  -1.545  14.065 -4.4335 -2.5906  1.1531
  680MOL0     H91779   0.868  -1.673  13.957 -0.5408  0.2014  0.9791
  680MOL0     H91780   0.759  -1.522  13.800 -1.8419  1.8780  0.0054
  680MOL0     H91781   0.786  -1.391  13.919  1.8103 -1.1050  2.9814
  680MOL0     H91782   1.640  -1.134  13.644 -2.7740 -2.3436  1.4649
  680MOL0     H91783   1.669  -1.092  13.374  0.5219  0.4785 -0.8573
  680MOL0     H91784   1.716  -1.348  12.986  0.6422  1.1345  1.1794
  680MOL0     H91785   1.674  -1.330  12.743  0.8577  1.1347 -2.4883
  680MOL0     H91786   2.411  -0.232  11.811  1.5078 -1.3940  0.8903
  680MOL0     H91787   2.443   0.002  11.820  0.6116 -2.9210  2.4518
  680MOL0     H91788   2.576   0.463  11.420 -5.1167 -2.2909  0.6845
  680MOL0     H91789   2.580   0.692  11.492  0.9835 -1.1960 -0.6887
  680MOL0     H91790   2.656   0.877  11.570 -0.4838 -2.2900 -0.4008
  680MOL0     H91791   2.483   0.911  11.599  0.2763  0.5436  0.0843
  680MOL0     H91792   2.637   1.096  11.663 -0.1953 -0.1230 -1.9589
  680MOL0     H91793   2.691   0.990  11.786 -0.5585  0.5905 -0.0870
  680MOL0     H91794   2.444   0.986  11.868  1.5084 -0.3123  0.0874
  680MOL0     H91795   2.397   1.107  11.746  1.4939  3.5900  0.9352
  680MOL0     H91796   2.606   1.143  11.957  2.7701  1.4094 -2.3064
  680MOL0     H91797   2.435   1.211  11.933 -2.2840 -0.4535 -0.6402
  680MOL0     H91798   2.644   1.486  11.722 -0.5003 -0.2405 -0.4559
  680MOL0     H91799   2.570   0.577  11.898  0.2988  2.6899 -0.8221
  680MOL0     H91800   2.569   0.332  11.838 -0.0116 -0.4862  0.3795
  681MOL0     O91801   2.379   2.159   2.589  0.1320 -1.0160  0.5511
  681MOL0     C91802   2.394   2.260   2.655 -0.7426 -0.6029  0.1130
  681MOL0     O91803   2.513   2.304   2.716 -0.9288  0.0745 -0.8047
  681MOL0     C91804   2.632   2.238   2.699 -0.1110 -0.7332  0.2482
  681MOL0     C91805   2.672   2.180   2.577  0.6969 -1.3627 -0.8314
  681MOL0     C91806   2.784   2.104   2.577  0.3774 -0.3110  0.3017
  681MOL0     C91807   2.869   2.094   2.684  0.2838  1.1811  0.0173
  681MOL0     O91808   2.973   2.005   2.664 -1.5293  0.6102  0.3130
  681MOL0     C91809   3.024   1.919   2.766  0.2000  0.4624  0.0929
  681MOL0     C91810   2.919   1.828   2.835  0.0806 -0.2837 -0.4136
  681MOL0     C91811   2.846   1.740   2.724 -0.8523 -1.0088 -0.2812
  681MOL0     C91812   2.818   1.596   2.769  0.2016 -0.0059  0.1160
  681MOL0     C91813   2.797   1.506   2.651  0.8350  0.0098  0.9915
  681MOL0     C91814   2.755   1.358   2.687 -0.7802 -0.9100  0.5800
  681MOL0     C91815   2.721   1.291   2.555 -0.2768  0.0398  0.1301
  681MOL0     C91816   2.572   1.257   2.536 -0.0754 -0.3245  0.3230
  681MOL0     N91817   2.492   1.214   2.658 -0.1152 -0.2066  1.1568
  681MOL0     C91818   2.493   1.092   2.725 -0.2304  0.4359  0.3776
  681MOL0     C91819   2.406   1.109   2.831  0.0916  0.0965 -0.1362
  681MOL0     C91820   2.378   1.013   2.945 -0.5494  0.4635  0.9658
  681MOL0     C91821   2.463   1.054   3.064  0.0195  0.1514 -0.8181
  681MOL0     C91822   2.390   1.004   3.195  0.1940 -0.1555 -0.0683
  681MOL0     C91823   2.498   1.004   3.303  0.3490  0.9115 -0.5482
  681MOL0     O91824   2.511   1.139   3.341 -0.7650  0.0702 -0.5216
  681MOL0     C91825   2.602   1.165   3.447  0.2980  0.1908 -0.8466
  681MOL0     C91826   2.633   1.298   3.483  0.5032 -0.1210  0.9440
  681MOL0     C91827   2.722   1.337   3.585  0.5579 -0.6605 -0.0203
  681MOL0     C91828   2.714   1.469   3.642 -0.5448 -0.3384 -0.1815
  681MOL0     C91829   2.793   1.234   3.659  0.4554 -0.7809  0.3368
  681MOL0     C91830   2.881   1.260   3.782 -0.4858  1.2934 -0.4874
  681MOL0     O91831   2.887   1.155   3.873  0.4591  0.2288 -0.1212
  681MOL0     C91832   2.975   1.141   3.984 -0.4890 -0.2623  0.2205
  681MOL0     C91833   3.051   1.239   4.039  0.8292  0.0865 -1.3970
  681MOL0     C91834   3.120   1.226   4.163  0.6241 -0.4172 -0.5779
  681MOL0     C91835   3.135   1.098   4.222  0.2334  0.0692 -0.3396
  681MOL0     O91836   3.221   1.081   4.324 -0.8324 -0.1097  0.4550
  681MOL0     C91837   3.180   0.998   4.432  0.2039  0.2961 -0.2904
  681MOL0     C91838   3.054   1.030   4.509  1.1066  0.1464 -0.4032
  681MOL0     C91839   2.984   0.916   4.579 -0.0988  0.0232 -0.5310
  681MOL0     C91840   2.935   0.810   4.478 -0.3964  0.0272 -1.4007
  681MOL0     C91841   2.855   0.691   4.533 -0.3171 -0.5020 -0.6293
  681MOL0     C91842   2.936   0.591   4.622  0.0013  0.1591 -0.3450
  681MOL0     C91843   3.062   0.542   4.551 -0.7382  0.3637 -0.2346
  681MOL0     C91844   3.109   0.405   4.601 -0.3692 -1.3114  0.4608
  681MOL0    Cl91845   2.980   0.294   4.588  0.0114  0.2018  0.2549
  681MOL0     C91846   3.057   0.994   4.163  0.0159  0.0367 -0.5245
  681MOL0     C91847   2.989   1.015   4.046  0.5016  0.2747 -0.5824
  681MOL0     O91848   2.942   1.369   3.786 -0.6442 -0.3542 -0.3866
  681MOL0     C91849   2.775   1.105   3.616  0.2443 -0.1381 -0.8177
  681MOL0     C91850   2.682   1.072   3.509  0.1059  0.6504 -0.2441
  681MOL0     N91851   2.355   1.233   2.831  0.2159  1.0997  0.0191
  681MOL0     N91852   2.399   1.294   2.722 -0.3354 -0.2109  0.3671
  681MOL0     C91853   2.835   2.157   2.809 -0.4446  0.0524 -0.5757
  681MOL0     C91854   2.721   2.236   2.808  0.4441  0.3167 -0.4132
  681MOL0     C91855   2.265   2.316   2.698 -0.0318  0.4218 -0.9129
  681MOL0     C91856   2.144   2.268   2.650 -0.4133  0.6083  0.6005
  681MOL0     C91857   2.021   2.312   2.691 -0.0015 -0.0529 -1.2893
  681MOL0     C91858   2.019   2.411   2.782 -0.5918  0.0405 -0.4894
  681MOL0     O91859   1.906   2.429   2.852  0.4307 -0.7693 -0.6466
  681MOL0     C91860   1.769   2.416   2.789 -0.9574  0.0430 -0.2860
  681MOL0     C91861   1.672   2.295   2.844 -0.2370 -0.2849  0.7239
  681MOL0     C91862   1.621   2.317   2.983  0.9829  0.0452 -0.3546
  681MOL0     C91863   1.542   2.189   3.037  0.2427  0.0308  0.6161
  681MOL0     C91864   1.543   2.166   3.180  0.4401 -0.7973  0.4260
  681MOL0     C91865   1.553   2.153   3.303 -0.2352  0.6842  0.3032
  681MOL0     C91866   2.135   2.457   2.844 -0.3206 -1.0503  0.6487
  681MOL0     C91867   2.256   2.412   2.802  0.2633  0.4177 -0.0111
  681MOL0     H91868   2.613   2.181   2.486  0.9239  0.2295 -0.9893
  681MOL0     H91869   2.810   2.049   2.487 -0.7184  0.7062 -0.6639
  681MOL0     H91870   3.104   1.859   2.720  3.7255  2.3484  3.2887
  681MOL0     H91871   3.079   1.973   2.843 -0.3633  0.7337  0.3086
  681MOL0     H91872   2.956   1.772   2.921 -3.3072  1.0852  2.1835
  681MOL0     H91873   2.843   1.892   2.880  1.8518  1.5809  0.0782
  681MOL0     H91874   2.751   1.789   2.701 -0.8124  0.8333  2.8600
  681MOL0     H91875   2.911   1.730   2.636 -1.3717 -1.3001 -0.6338
  681MOL0     H91876   2.907   1.560   2.821 -0.5445  1.2838  2.4056
  681MOL0     H91877   2.736   1.596   2.841 -1.3538  2.0854 -1.5006
  681MOL0     H91878   2.721   1.555   2.590  2.1145 -0.8879 -1.4361
  681MOL0     H91879   2.888   1.508   2.590 -0.9656  1.1949 -1.8014
  681MOL0     H91880   2.846   1.306   2.717  0.4304 -0.7863 -2.6021
  681MOL0     H91881   2.677   1.368   2.763  0.0783 -0.7010  1.4577
  681MOL0     H91882   2.743   1.352   2.467  2.4303  0.0308  0.7257
  681MOL0     H91883   2.773   1.196   2.538 -1.4580 -0.1402 -3.5221
  681MOL0     H91884   2.560   1.190   2.450 -0.7164 -0.5946  0.6190
  681MOL0     H91885   2.533   1.351   2.498  1.7129  1.2878  2.2279
  681MOL0     H91886   2.547   1.006   2.687 -3.9925 -1.8913 -0.3030
  681MOL0     H91887   2.271   1.016   2.967 -1.5834 -1.1094 -2.9550
  681MOL0     H91888   2.394   0.910   2.911  0.5899  1.1631 -0.7588
  681MOL0     H91889   2.469   1.163   3.071  0.9363  0.0028  1.2355
  681MOL0     H91890   2.561   1.005   3.062 -0.7547 -1.5733  0.4521
  681MOL0     H91891   2.362   0.900   3.174  1.6559 -0.5777 -0.0546
  681MOL0     H91892   2.301   1.068   3.202  1.0391  1.2825 -1.5986
  681MOL0     H91893   2.588   0.954   3.265 -0.2987 -0.3798 -0.4302
  681MOL0     H91894   2.467   0.954   3.395  1.7700  0.1955 -0.4268
  681MOL0     H91895   2.572   1.369   3.428 -1.1385 -1.7765  0.5607
  681MOL0     H91896   2.620   1.514   3.611 -0.5601 -0.4698 -0.3272
  681MOL0     H91897   2.718   1.472   3.751 -3.4554  3.4760  0.0275
  681MOL0     H91898   2.794   1.540   3.617 -1.2879  1.7393  2.7426
  681MOL0     H91899   3.028   1.341   4.009 -1.6001 -0.4667 -1.6427
  681MOL0     H91900   3.175   1.314   4.195  2.7894 -1.6812 -0.6717
  681MOL0     H91901   3.175   0.894   4.399  1.0458 -0.3950  1.6170
  681MOL0     H91902   3.255   0.999   4.512 -0.5611  0.1991  0.4491
  681MOL0     H91903   3.078   1.110   4.579  2.2453  1.6115 -2.3433
  681MOL0     H91904   2.983   1.082   4.444 -2.4468 -1.4269  1.9322
  681MOL0     H91905   2.908   0.944   4.653 -0.7178 -0.3491 -1.0200
  681MOL0     H91906   3.070   0.882   4.636 -0.3778 -0.7785 -0.5810
  681MOL0     H91907   2.873   0.853   4.398 -0.3681 -0.7238 -1.8388
  681MOL0     H91908   3.023   0.767   4.428  2.6600  1.0636  2.5555
  681MOL0     H91909   2.822   0.628   4.449  0.4482  1.3281 -2.3884
  681MOL0     H91910   2.764   0.726   4.581  1.2538  0.3160  1.8967
  681MOL0     H91911   2.967   0.644   4.712 -1.0507 -0.2491  0.2792
  681MOL0     H91912   2.863   0.515   4.650 -0.2072 -0.3093 -2.0618
  681MOL0     H91913   3.131   0.626   4.564 -0.3859  0.1217 -0.5500
  681MOL0     H91914   3.037   0.528   4.446 -1.0361  2.5741 -0.5014
  681MOL0     H91915   3.122   0.416   4.709 -0.6186  0.6618  0.3363
  681MOL0     H91916   3.206   0.377   4.558  1.1095  0.0051  2.7009
  681MOL0     H91917   3.068   0.900   4.215 -3.9674  0.6888  1.9935
  681MOL0     H91918   2.943   0.924   4.008  0.2851  1.0913 -2.3552
  681MOL0     H91919   2.838   1.023   3.651  0.8456  0.8231  0.4167
  681MOL0     H91920   2.684   0.965   3.491  0.3894  0.8283 -1.3505
  681MOL0     H91921   2.894   2.157   2.899 -0.4790  1.0391 -0.5402
  681MOL0     H91922   2.719   2.294   2.900  3.2974 -0.0166 -0.0777
  681MOL0     H91923   2.153   2.186   2.579  2.1338 -0.2474  1.7555
  681MOL0     H91924   1.940   2.252   2.650  2.0215 -3.7286 -0.3528
  681MOL0     H91925   1.730   2.518   2.796  2.8142  1.6805 -0.7382
  681MOL0     H91926   1.779   2.388   2.684 -2.4634 -2.2221  0.1128
  681MOL0     H91927   1.741   2.210   2.853  3.4353  2.1731 -1.1966
  681MOL0     H91928   1.587   2.291   2.775 -0.3562  0.5269  0.8189
  681MOL0     H91929   1.557   2.405   2.992  0.7768  0.1363 -2.2986
  681MOL0     H91930   1.704   2.334   3.052  0.7833  1.9642 -0.5315
  681MOL0     H91931   1.567   2.094   2.988 -1.1591  0.0355 -0.1558
  681MOL0     H91932   1.435   2.189   3.017  0.0406 -1.3573  1.4723
  681MOL0     H91933   1.575   2.148   3.408 -0.1566 -2.4226  0.2497
  681MOL0     H91934   2.123   2.529   2.924  0.7911  0.9257 -0.8697
  681MOL0     H91935   2.345   2.449   2.853 -1.0496 -2.4295  5.0548
  682MOL0     O91936  10.430   1.260   2.730  0.2621  0.0671  1.3940
  682MOL0     C91937  10.485   1.169   2.672 -0.6624  0.1318  0.2978
  682MOL0     O91938  10.428   1.045   2.638  0.3569  0.6661 -0.2526
  682MOL0     C91939  10.296   1.017   2.678  0.2155  0.7492  0.1019
  682MOL0     C91940  10.184   1.102   2.679 -0.1648  0.6800  0.2523
  682MOL0     C91941  10.056   1.061   2.700 -0.1737 -0.9666  0.8147
  682MOL0     C91942  10.026   0.933   2.728 -0.4195  0.2828 -0.3810
  682MOL0     O91943   9.893   0.897   2.743 -0.3200  0.3842  0.4217
  682MOL0     C91944   9.846   0.840   2.868 -0.9371 -0.3134  0.6623
  682MOL0     C91945   9.694   0.819   2.852  0.2618 -0.3991  0.0881
  682MOL0     C91946   9.663   0.697   2.770 -0.4245 -0.3306  1.2111
  682MOL0     C91947   9.519   0.701   2.724  0.6206  0.0095 -1.1748
  682MOL0     C91948   9.476   0.575   2.649  0.6045 -0.8366  0.3895
  682MOL0     C91949   9.450   0.464   2.743  0.2255  0.3460  0.4488
  682MOL0     C91950   9.450   0.331   2.684  0.2838  1.4184  0.1304
  682MOL0     C91951   9.590   0.280   2.638  0.6349  0.5196 -0.4334
  682MOL0     N91952   9.670   0.249   2.759 -0.0161 -0.2971 -1.1094
  682MOL0     C91953   9.754   0.326   2.835 -0.0833 -0.5976  0.1339
  682MOL0     C91954   9.772   0.260   2.953  0.1949  0.3711 -1.0490
  682MOL0     C91955   9.849   0.312   3.074 -0.6304 -0.4215  0.1298
  682MOL0     C91956   9.989   0.237   3.094  0.6375  0.3842  0.1849
  682MOL0     C91957   9.975   0.086   3.131 -0.1809  1.0970  0.0489
  682MOL0     C91958   9.889   0.056   3.255 -0.6196  0.6170  0.7026
  682MOL0     O91959   9.917   0.141   3.361 -0.2585  0.0839  0.2163
  682MOL0     C91960   9.848   0.108   3.478  0.4906 -0.3292  0.5226
  682MOL0     C91961   9.814  -0.018   3.524 -0.1131  0.2615 -0.6493
  682MOL0     C91962   9.732  -0.036   3.636  0.5136 -0.4494  0.4066
  682MOL0     C91963   9.709  -0.171   3.678  0.2187  0.4180 -0.5868
  682MOL0     C91964   9.697   0.074   3.719 -0.8503 -0.4450  0.2029
  682MOL0     C91965   9.620   0.064   3.851  0.1814 -0.1790  0.2592
  682MOL0     O91966   9.649   0.165   3.939 -0.5561 -0.5134  0.2391
  682MOL0     C91967   9.569   0.175   4.040  0.5510  0.2918 -0.1835
  682MOL0     C91968   9.590   0.107   4.164  0.4529 -0.3639  1.0062
  682MOL0     C91969   9.516   0.146   4.283 -0.3766  0.5280  0.9306
  682MOL0     C91970   9.434   0.252   4.285  0.1574  0.5007  1.2526
  682MOL0     O91971   9.355   0.304   4.388  0.0404  0.5673 -0.9015
  682MOL0     C91972   9.418   0.313   4.510 -0.1318  1.0261 -0.2024
  682MOL0     C91973   9.313   0.344   4.617  0.2271  0.4014 -0.0979
  682MOL0     C91974   9.217   0.227   4.635 -0.4267  0.7068 -0.1409
  682MOL0     C91975   9.281   0.099   4.688  0.2913 -0.6667  0.9492
  682MOL0     C91976   9.192  -0.016   4.748  0.0025  0.0040  0.5220
  682MOL0     C91977   9.257  -0.152   4.755  0.0896  0.3323  0.4354
  682MOL0     C91978   9.398  -0.174   4.810 -0.2355 -0.2502 -0.2203
  682MOL0     C91979   9.479  -0.279   4.743  0.1155 -0.5730  0.8511
  682MOL0    Cl91980   9.485  -0.252   4.560 -0.1872  0.0138 -0.0964
  682MOL0     C91981   9.416   0.323   4.168 -0.5069 -0.0237  0.7377
  682MOL0     C91982   9.476   0.276   4.045  0.0071 -0.0313 -1.2787
  682MOL0     O91983   9.529  -0.018   3.861 -0.4845 -0.2712 -0.4654
  682MOL0     C91984   9.751   0.198   3.678  0.2279 -0.8775  0.0199
  682MOL0     C91985   9.818   0.215   3.561 -0.0792  0.3674  0.2826
  682MOL0     N91986   9.713   0.139   2.938 -1.0991  0.1663  0.1729
  682MOL0     N91987   9.645   0.137   2.830 -0.9691  0.3530  0.2473
  682MOL0     C91988  10.127   0.839   2.716 -0.4456 -0.4691  0.9539
  682MOL0     C91989  10.260   0.883   2.690 -0.3270  0.9279  0.6273
  682MOL0     C91990  10.629   1.181   2.645  0.9023  0.2451 -0.4193
  682MOL0     C91991  10.708   1.280   2.705 -0.5226 -0.5255 -0.4085
  682MOL0     C91992  10.848   1.289   2.675 -0.5695 -0.0290 -0.8326
  682MOL0     C91993  10.898   1.201   2.587 -1.2607 -0.2562 -1.0741
  682MOL0     O91994  11.034   1.184   2.559 -0.3843 -0.2830 -0.4768
  682MOL0     C91995  11.143   1.246   2.645  0.6260 -0.5789 -0.3604
  682MOL0     C91996  11.174   1.385   2.574 -0.3158  0.6583 -0.7856
  682MOL0     C91997  11.317   1.413   2.606 -0.4131 -1.0037 -0.2113
  682MOL0     C91998  11.345   1.492   2.732 -1.3139 -0.5935 -0.0854
  682MOL0     C91999  11.367   1.413   2.855  0.3568  0.2142  0.9064
  682MOL0     C92000  11.389   1.371   2.969 -0.4651 -0.2096 -0.4255
  682MOL0     C92001  10.823   1.105   2.528 -0.1140  0.5650 -0.6484
  682MOL0     C92002  10.693   1.099   2.556 -0.2826 -0.5013 -0.0490
  682MOL0     H92003  10.203   1.208   2.663  2.4029  0.1262 -0.9069
  682MOL0     H92004   9.975   1.132   2.693  1.6194  1.0680 -0.5248
  682MOL0     H92005   9.900   0.747   2.892  1.0624  1.1379  2.1257
  682MOL0     H92006   9.871   0.914   2.945 -1.9524 -1.6140  2.3442
  682MOL0     H92007   9.642   0.818   2.949 -2.1390 -0.3516 -1.1120
  682MOL0     H92008   9.652   0.899   2.792 -1.9403 -0.4422  1.4541
  682MOL0     H92009   9.718   0.691   2.676 -1.4906  0.7353  0.4750
  682MOL0     H92010   9.685   0.616   2.840 -0.8276  1.2966  3.3362
  682MOL0     H92011   9.441   0.716   2.798 -1.4054 -3.4557 -2.3723
  682MOL0     H92012   9.508   0.790   2.662 -1.8746 -1.5353 -3.1506
  682MOL0     H92013   9.383   0.597   2.596  0.5028  0.4916  1.0755
  682MOL0     H92014   9.562   0.548   2.587  1.8336 -0.5656  1.9195
  682MOL0     H92015   9.518   0.467   2.829  0.3047 -0.2735  0.4120
  682MOL0     H92016   9.350   0.485   2.780  0.4884  1.5185  0.5299
  682MOL0     H92017   9.425   0.258   2.762 -1.0373  0.0931 -1.4476
  682MOL0     H92018   9.377   0.321   2.603  3.4677 -0.8029 -2.7650
  682MOL0     H92019   9.654   0.340   2.573  5.1539 -2.6884  0.5647
  682MOL0     H92020   9.571   0.185   2.588  2.7854  0.9417 -2.1876
  682MOL0     H92021   9.791   0.421   2.801  2.4913 -0.8106  2.0635
  682MOL0     H92022   9.882   0.415   3.059  1.7659 -0.8049  2.0481
  682MOL0     H92023   9.786   0.303   3.163  0.1618 -0.6827  0.6834
  682MOL0     H92024  10.043   0.291   3.172  2.5177  1.2037 -1.5675
  682MOL0     H92025  10.048   0.232   3.001  1.2531 -3.8756  0.5936
  682MOL0     H92026  10.076   0.046   3.137 -0.7929 -1.1349 -2.5602
  682MOL0     H92027   9.928   0.032   3.048  1.1888 -0.7337  0.4099
  682MOL0     H92028   9.924  -0.045   3.281  2.2505  1.4482  0.3805
  682MOL0     H92029   9.785   0.052   3.222 -0.0862 -2.1517 -1.0493
  682MOL0     H92030   9.851  -0.110   3.480  0.9273  0.2284  0.2621
  682MOL0     H92031   9.767  -0.193   3.768 -0.6481 -0.4032 -0.2062
  682MOL0     H92032   9.603  -0.193   3.692  0.7701 -1.2261  1.4784
  682MOL0     H92033   9.746  -0.249   3.611  1.4557  0.8822 -0.4840
  682MOL0     H92034   9.660   0.025   4.160  1.8521  0.8662 -0.9016
  682MOL0     H92035   9.535   0.089   4.374  0.5144  0.7871  0.9151
  682MOL0     H92036   9.476   0.227   4.543  0.4228  1.6237  0.4228
  682MOL0     H92037   9.476   0.406   4.509  1.5720  0.0102 -1.8954
  682MOL0     H92038   9.350   0.340   4.720  1.1739 -1.0660 -0.4701
  682MOL0     H92039   9.270   0.444   4.605  2.0367  1.6043  2.3713
  682MOL0     H92040   9.177   0.206   4.535  3.5294  0.1640 -1.7919
  682MOL0     H92041   9.135   0.254   4.703 -0.6516 -2.3276  0.9509
  682MOL0     H92042   9.335   0.048   4.608 -1.7735 -0.8734 -0.3924
  682MOL0     H92043   9.358   0.132   4.758  3.0377  1.1585 -2.6662
  682MOL0     H92044   9.105  -0.030   4.684  0.3980 -2.9884  0.5299
  682MOL0     H92045   9.159   0.019   4.847  2.2172  1.1208  0.9410
  682MOL0     H92046   9.196  -0.219   4.817 -0.7807 -0.7411 -1.4834
  682MOL0     H92047   9.256  -0.187   4.651  1.8706 -2.1778  1.1664
  682MOL0     H92048   9.392  -0.175   4.920 -2.3974  2.0179 -0.2264
  682MOL0     H92049   9.449  -0.078   4.797 -0.4366  0.3187  2.4720
  682MOL0     H92050   9.421  -0.367   4.769 -0.9739  0.0160  0.4555
  682MOL0     H92051   9.583  -0.265   4.775  1.4180  2.1938 -3.6351
  682MOL0     H92052   9.354   0.412   4.166  0.7057  0.8295 -0.2916
  682MOL0     H92053   9.452   0.335   3.957 -2.4942 -0.4505 -0.9374
  682MOL0     H92054   9.733   0.289   3.734 -1.7838 -1.0200 -0.3420
  682MOL0     H92055   9.855   0.314   3.535  0.3653  0.5639  1.6101
  682MOL0     H92056  10.103   0.733   2.718  2.5766 -1.3557 -1.1117
  682MOL0     H92057  10.328   0.798   2.685  0.2627  1.4462 -0.4347
  682MOL0     H92058  10.662   1.358   2.765 -0.3317 -1.1316  0.5453
  682MOL0     H92059  10.907   1.371   2.712  0.0578 -0.8416  0.0006
  682MOL0     H92060  11.101   1.271   2.743  0.3790  2.0895 -1.0616
  682MOL0     H92061  11.224   1.173   2.644  1.1018 -0.0641 -1.2924
  682MOL0     H92062  11.102   1.458   2.613  1.6549  2.7552 -0.9373
  682MOL0     H92063  11.160   1.373   2.467 -0.5726  1.9255 -0.9128
  682MOL0     H92064  11.354   1.476   2.524  1.6598 -1.1475  0.5494
  682MOL0     H92065  11.390   1.332   2.598  1.0072  0.4059 -5.0466
  682MOL0     H92066  11.265   1.564   2.749  1.2120  2.0056  1.9649
  682MOL0     H92067  11.422   1.563   2.700 -2.6365  0.2891 -1.4312
  682MOL0     H92068  11.399   1.325   3.065  1.8423 -1.6612 -1.2392
  682MOL0     H92069  10.857   1.045   2.444  1.4145  0.3025  0.1284
  682MOL0     H92070  10.630   1.024   2.509 -2.6729  0.8288  0.8659
  683MOL0     O92071   4.554   8.663  11.179 -0.5423 -0.7795  0.0511
  683MOL0     C92072   4.522   8.772  11.136  0.2667  0.2506  0.1557
  683MOL0     O92073   4.392   8.807  11.104 -0.1513 -0.6140  0.3731
  683MOL0     C92074   4.300   8.725  11.149  0.5221  1.1777 -0.3151
  683MOL0     C92075   4.235   8.626  11.072 -0.3150  0.6453  0.4830
  683MOL0     C92076   4.131   8.543  11.122  0.6062 -0.1255  0.3779
  683MOL0     C92077   4.080   8.573  11.247  0.5448  0.6429  0.5410
  683MOL0     O92078   3.980   8.485  11.296 -0.5185 -0.1050  0.8781
  683MOL0     C92079   3.979   8.445  11.431 -0.0087  0.6356 -0.5234
  683MOL0     C92080   3.875   8.337  11.448 -0.9830  0.0427  0.8081
  683MOL0     C92081   3.922   8.191  11.403  0.2334  0.4578  0.0732
  683MOL0     C92082   3.802   8.096  11.400  0.0647  0.4905  0.6803
  683MOL0     C92083   3.852   7.957  11.349 -0.0842  0.0822 -0.0214
  683MOL0     C92084   3.729   7.861  11.334 -0.0856 -0.8377  0.7133
  683MOL0     C92085   3.782   7.729  11.287  0.4108 -0.0663 -0.1826
  683MOL0     C92086   3.686   7.616  11.278 -0.0123 -0.8453 -0.0860
  683MOL0     N92087   3.741   7.506  11.199  0.1504 -0.2105 -0.5168
  683MOL0     C92088   3.832   7.410  11.236  0.2526  0.5323  0.1186
  683MOL0     C92089   3.871   7.346  11.120 -0.0723  0.3364 -0.4781
  683MOL0     C92090   3.987   7.253  11.116  0.2613  0.3807 -0.5289
  683MOL0     C92091   4.075   7.302  10.999 -0.2247 -0.5337  0.2525
  683MOL0     C92092   4.053   7.223  10.866  0.7559  0.9836 -0.5268
  683MOL0     C92093   4.059   7.067  10.868 -0.2261 -0.0767 -0.6075
  683MOL0     O92094   4.165   7.013  10.944 -0.6866 -0.3545  0.2080
  683MOL0     C92095   4.293   7.021  10.889 -0.8859  0.7264 -0.3203
  683MOL0     C92096   4.319   6.988  10.761  0.1044 -0.3177 -0.4156
  683MOL0     C92097   4.441   7.001  10.707  0.6173  0.3866  0.5283
  683MOL0     C92098   4.454   6.966  10.560  0.0295  0.6067 -1.0398
  683MOL0     C92099   4.545   7.050  10.781  0.6541 -0.7263  0.4396
  683MOL0     C92100   4.683   7.067  10.734 -0.1852 -0.2780 -0.1933
  683MOL0     O92101   4.760   7.170  10.794 -0.2389  0.1849  0.0807
  683MOL0     C92102   4.850   7.239  10.715 -0.7858  0.4377 -0.7392
  683MOL0     C92103   4.940   7.320  10.781 -1.3603 -0.2061  0.3249
  683MOL0     C92104   5.034   7.403  10.713  0.0722  0.0837  0.5918
  683MOL0     C92105   5.030   7.417  10.571  0.7381 -0.1188  0.0880
  683MOL0     O92106   5.110   7.509  10.514  0.2457 -0.8008  0.5340
  683MOL0     C92107   5.090   7.566  10.386  0.0760  0.8284  0.1693
  683MOL0     C92108   5.168   7.707  10.375 -0.7534  0.3323 -0.5416
  683MOL0     C92109   5.317   7.704  10.420 -0.3473  0.4818 -1.0692
  683MOL0     C92110   5.404   7.803  10.343  0.0482  0.3945 -0.3484
  683MOL0     C92111   5.359   7.952  10.359  0.1141  0.3463  0.1012
  683MOL0     C92112   5.424   7.998  10.487 -0.0015 -1.0045 -0.4230
  683MOL0     C92113   5.400   8.152  10.509 -0.5574  0.4433  0.0761
  683MOL0     C92114   5.258   8.198  10.529  1.3239  0.3398 -0.2927
  683MOL0    Cl92115   5.179   8.187  10.374 -0.3538 -0.9181  0.3463
  683MOL0     C92116   4.941   7.340  10.499 -0.0470 -0.1064 -0.6561
  683MOL0     C92117   4.850   7.252  10.568  0.4526 -0.5181  0.1761
  683MOL0     O92118   4.712   7.002  10.635 -0.2751  0.3755 -0.1468
  683MOL0     C92119   4.518   7.089  10.919  0.8080  0.0797  1.3519
  683MOL0     C92120   4.392   7.082  10.965 -0.1091  0.3182 -0.3332
  683MOL0     N92121   3.792   7.396  11.024  0.7173 -0.6073  0.0066
  683MOL0     N92122   3.728   7.502  11.065  0.0278 -0.6086  0.1164
  683MOL0     C92123   4.135   8.679  11.322 -0.1672 -0.0378 -0.2140
  683MOL0     C92124   4.241   8.758  11.272 -0.2463 -0.1540  0.6159
  683MOL0     C92125   4.626   8.881  11.131 -0.1550  0.3243  0.0111
  683MOL0     C92126   4.589   9.016  11.138  0.5456  0.3310  0.6779
  683MOL0     C92127   4.684   9.124  11.142 -0.1705  0.8437 -0.3936
  683MOL0     C92128   4.819   9.092  11.127  0.3690  0.0773  0.5946
  683MOL0     O92129   4.903   9.197  11.117 -0.3856  0.6520  0.5495
  683MOL0     C92130   5.023   9.200  11.195 -0.2019 -0.4317  0.8451
  683MOL0     C92131   5.013   9.171  11.349 -0.7373  0.1762 -0.0755
  683MOL0     C92132   4.938   9.279  11.438  0.0213  0.8563 -0.0897
  683MOL0     C92133   4.863   9.231  11.571  0.9946 -0.5125 -0.5205
  683MOL0     C92134   4.952   9.152  11.663  0.8798 -0.2523  0.4296
  683MOL0     C92135   5.024   9.083  11.729  1.1065  0.5034 -0.2593
  683MOL0     C92136   4.852   8.960  11.095  0.5483  0.7761 -0.7864
  683MOL0     C92137   4.757   8.853  11.103  0.1005 -0.7404  1.2486
  683MOL0     H92138   4.258   8.617  10.966 -3.8684  1.3746 -0.5176
  683MOL0     H92139   4.085   8.465  11.062 -0.6434  0.9661 -0.1448
  683MOL0     H92140   4.081   8.423  11.463 -0.8167 -1.8738  0.5752
  683MOL0     H92141   3.946   8.528  11.493  0.0624  0.3436 -0.0947
  683MOL0     H92142   3.834   8.332  11.550 -0.2433 -1.0101  1.0677
  683MOL0     H92143   3.792   8.373  11.387 -0.7684  1.8170  1.4958
  683MOL0     H92144   3.952   8.217  11.302  2.1673  4.9786  1.5462
  683MOL0     H92145   4.007   8.149  11.457 -1.3190 -0.2970  2.0907
  683MOL0     H92146   3.768   8.068  11.501 -1.4673  1.4421  0.4628
  683MOL0     H92147   3.719   8.137  11.343 -1.4702 -1.0396  1.6783
  683MOL0     H92148   3.891   7.974  11.248 -1.7067  0.6396 -0.6047
  683MOL0     H92149   3.929   7.921  11.417  0.9159  2.4933  0.2228
  683MOL0     H92150   3.686   7.851  11.434 -0.1780  1.0141  0.8989
  683MOL0     H92151   3.663   7.909  11.261  1.2151  0.3365  0.2567
  683MOL0     H92152   3.819   7.742  11.185 -2.2961  0.0732 -1.2308
  683MOL0     H92153   3.860   7.701  11.359 -0.9597  1.9933  2.2995
  683MOL0     H92154   3.588   7.642  11.236 -1.2989 -1.5761  2.2629
  683MOL0     H92155   3.663   7.577  11.378  1.8462 -0.3033  0.5765
  683MOL0     H92156   3.875   7.401  11.336  2.5383 -0.6423 -0.9070
  683MOL0     H92157   4.039   7.253  11.213  1.2580 -3.6761 -0.8797
  683MOL0     H92158   3.959   7.149  11.095  5.7342 -0.8549 -3.7297
  683MOL0     H92159   4.178   7.285  11.032 -0.7223 -0.0655  2.1657
  683MOL0     H92160   4.056   7.405  10.968 -2.0073 -1.7979 -3.6075
  683MOL0     H92161   4.133   7.256  10.799  1.1045 -0.8022 -1.0530
  683MOL0     H92162   3.961   7.256  10.819  0.4689  2.8564  1.2250
  683MOL0     H92163   4.059   7.026  10.766 -1.4310  0.5826 -0.8951
  683MOL0     H92164   3.962   7.032  10.902 -1.1523 -0.3951 -3.3373
  683MOL0     H92165   4.232   6.952  10.707 -0.1037 -3.1786  1.6030
  683MOL0     H92166   4.520   7.034  10.505  1.3132  0.8454  0.6658
  683MOL0     H92167   4.493   6.866  10.538  1.2119  0.2759  2.0283
  683MOL0     H92168   4.353   6.988  10.528 -0.4102  0.9731  0.4897
  683MOL0     H92169   4.954   7.313  10.889  0.1572 -0.2163  0.1573
  683MOL0     H92170   5.102   7.462  10.772 -0.5338 -0.7689  2.2141
  683MOL0     H92171   5.118   7.505  10.299 -3.1576  3.4311 -3.0062
  683MOL0     H92172   4.985   7.582  10.363 -0.2087 -1.7497 -0.5950
  683MOL0     H92173   5.180   7.745  10.273  0.4173  0.2576 -0.4446
  683MOL0     H92174   5.110   7.783  10.427 -2.6295 -1.7521  0.6161
  683MOL0     H92175   5.359   7.603  10.415 -0.1438  0.6057 -2.0642
  683MOL0     H92176   5.312   7.732  10.526  0.4239  1.2468 -1.2237
  683MOL0     H92177   5.510   7.793  10.368 -0.2165 -1.8725  0.0867
  683MOL0     H92178   5.398   7.774  10.238  2.0087 -2.0026  0.0952
  683MOL0     H92179   5.250   7.942  10.356  0.1305 -0.6871  1.7758
  683MOL0     H92180   5.391   8.027  10.285 -1.3135 -0.4093 -1.3552
  683MOL0     H92181   5.381   7.942  10.571 -2.0620  0.4579 -0.4076
  683MOL0     H92182   5.531   7.979  10.494  0.2255  0.6739  3.5335
  683MOL0     H92183   5.449   8.209  10.429  0.4964  0.3952  0.6719
  683MOL0     H92184   5.470   8.180  10.589  0.4335  1.2444 -1.0289
  683MOL0     H92185   5.251   8.303  10.559 -1.4526  0.5547 -1.3835
  683MOL0     H92186   5.207   8.130  10.598 -0.4747  2.2323  0.3758
  683MOL0     H92187   4.947   7.363  10.393  1.7526 -2.0059 -1.0256
  683MOL0     H92188   4.779   7.199  10.505 -0.2325 -1.1087  1.4008
  683MOL0     H92189   4.598   7.131  10.980 -0.9099  1.5639  2.6835
  683MOL0     H92190   4.376   7.100  11.071 -2.8556  0.5739 -0.7346
  683MOL0     H92191   4.087   8.693  11.418  1.1321  3.5352  0.0775
  683MOL0     H92192   4.282   8.839  11.333 -0.7488  1.1005 -0.6588
  683MOL0     H92193   4.483   9.033  11.123  0.5997 -1.1520 -2.1364
  683MOL0     H92194   4.659   9.229  11.152  0.8175  1.0420  0.1469
  683MOL0     H92195   5.094   9.127  11.155  0.1227  0.8009 -0.8897
  683MOL0     H92196   5.061   9.301  11.181  1.1362 -1.1709 -1.3481
  683MOL0     H92197   5.114   9.177  11.390 -0.9737  0.3595  0.4790
  683MOL0     H92198   4.973   9.071  11.366  0.2098 -0.5334 -1.7211
  683MOL0     H92199   4.865   9.336  11.378 -2.4156  1.3073  3.0115
  683MOL0     H92200   5.010   9.358  11.462 -0.5438  0.8666  1.7905
  683MOL0     H92201   4.775   9.172  11.544  0.1834  0.6540 -0.4745
  683MOL0     H92202   4.835   9.313  11.638  2.5265 -1.1483  0.9837
  683MOL0     H92203   5.102   9.030  11.779  3.0475  0.1888 -3.2839
  683MOL0     H92204   4.945   8.933  11.047  0.0972 -1.0362 -0.7278
  683MOL0     H92205   4.802   8.755  11.088  1.1853 -0.6304  3.3459
  684MOL0     O92206  10.878   1.669   4.878  0.2112  0.4330  0.0540
  684MOL0     C92207  10.991   1.651   4.836  0.3619  0.1437 -0.0803
  684MOL0     O92208  11.023   1.538   4.770 -0.7434 -1.0393  0.0214
  684MOL0     C92209  10.923   1.462   4.715 -0.1193 -0.3029 -0.4447
  684MOL0     C92210  10.946   1.331   4.725 -0.6545 -0.6508 -0.3624
  684MOL0     C92211  10.855   1.231   4.689  0.7317 -0.5535 -0.0062
  684MOL0     C92212  10.733   1.280   4.630 -0.1166 -0.2998 -0.4975
  684MOL0     O92213  10.638   1.185   4.600 -0.5334  0.0885  0.3394
  684MOL0     C92214  10.577   1.208   4.477  0.8187 -0.8546  0.0595
  684MOL0     C92215  10.560   1.067   4.416 -0.5732  0.0029  0.4910
  684MOL0     C92216  10.478   0.970   4.493  0.0209  0.1683  0.1395
  684MOL0     C92217  10.489   0.834   4.429  0.2229  0.2878  0.3927
  684MOL0     C92218  10.407   0.724   4.492 -0.0651  0.1060 -0.8638
  684MOL0     C92219  10.345   0.626   4.392  0.3248 -0.1748 -0.3915
  684MOL0     C92220  10.458   0.567   4.296  0.0258  1.7057 -0.3046
  684MOL0     C92221  10.413   0.420   4.262  0.7859 -0.7585  0.0845
  684MOL0     N92222  10.286   0.418   4.185 -0.5468  0.3640  0.3298
  684MOL0     C92223  10.155   0.413   4.230 -0.7976  0.3216 -0.7545
  684MOL0     C92224  10.086   0.422   4.118 -0.1072 -1.5107  0.3726
  684MOL0     C92225   9.940   0.409   4.129  0.1199 -0.0854  1.0059
  684MOL0     C92226   9.888   0.552   4.149 -1.1433  0.1340 -0.9412
  684MOL0     C92227   9.756   0.550   4.220 -0.1755 -0.1071 -0.2636
  684MOL0     C92228   9.699   0.682   4.271 -0.7452 -0.3043 -0.3853
  684MOL0     O92229   9.695   0.767   4.158 -0.0686  0.4062  0.7241
  684MOL0     C92230   9.665   0.902   4.182  0.4133  0.0776 -0.2575
  684MOL0     C92231   9.586   0.969   4.081 -0.4369  0.6867  0.8631
  684MOL0     C92232   9.540   1.102   4.101 -0.1338 -0.2686 -0.4145
  684MOL0     C92233   9.473   1.157   3.981  0.3225  0.0690 -1.2566
  684MOL0     C92234   9.561   1.167   4.225  0.7193  0.5807  0.0337
  684MOL0     C92235   9.508   1.307   4.253 -0.1321 -0.1689  0.8299
  684MOL0     O92236   9.554   1.349   4.372  0.4083  0.8102  0.4410
  684MOL0     C92237   9.516   1.470   4.418  0.3934 -0.0243  0.3462
  684MOL0     C92238   9.617   1.557   4.462  0.3898 -0.1059 -0.9195
  684MOL0     C92239   9.578   1.684   4.522  0.0040 -0.1156  0.1511
  684MOL0     C92240   9.448   1.713   4.565  0.3601 -0.1716  0.0878
  684MOL0     O92241   9.427   1.814   4.654  0.3367 -1.4178  0.4012
  684MOL0     C92242   9.298   1.887   4.651  0.2979  0.0877  0.1703
  684MOL0     C92243   9.340   2.006   4.720 -0.1693  0.4619  0.5792
  684MOL0     C92244   9.218   2.095   4.748  0.0030  0.4783 -0.1689
  684MOL0     C92245   9.262   2.220   4.824  0.6565  0.1153  0.0575
  684MOL0     C92246   9.151   2.321   4.817  0.2505 -0.6220  0.7318
  684MOL0     C92247   9.166   2.437   4.919 -0.1719 -0.5848  0.0519
  684MOL0     C92248   9.173   2.394   5.069  1.1838 -0.2615  0.1531
  684MOL0     C92249   9.179   2.514   5.171 -0.0724  0.3750 -0.0038
  684MOL0    Cl92250   9.325   2.615   5.153  0.4156 -0.0015  0.0141
  684MOL0     C92251   9.345   1.625   4.515 -0.5103 -0.7322  0.0459
  684MOL0     C92252   9.382   1.501   4.456 -0.5379  0.4315 -0.6502
  684MOL0     O92253   9.424   1.364   4.190 -0.1603  0.0973  0.7809
  684MOL0     C92254   9.653   1.103   4.312  0.8852 -0.2536 -0.0696
  684MOL0     C92255   9.704   0.977   4.289 -0.2979 -0.0075  0.4294
  684MOL0     N92256  10.164   0.429   4.011 -0.4603 -0.4227  0.4539
  684MOL0     N92257  10.284   0.429   4.053  0.2791  0.0673 -0.0062
  684MOL0     C92258  10.708   1.420   4.615 -0.5115  0.4374  0.3947
  684MOL0     C92259  10.804   1.510   4.652  0.3669  0.7776  0.5879
  684MOL0     C92260  11.097   1.762   4.854  0.1329  1.1697  0.0060
  684MOL0     C92261  11.073   1.891   4.908 -0.2524 -0.1544 -0.6677
  684MOL0     C92262  11.179   1.975   4.932 -0.7094  0.0376 -0.6598
  684MOL0     C92263  11.313   1.945   4.889  0.9295 -0.2155 -0.6822
  684MOL0     O92264  11.420   2.023   4.914  0.3310 -0.2498  0.1688
  684MOL0     C92265  11.410   2.145   4.993 -0.9803  0.5518 -1.1420
  684MOL0     C92266  11.350   2.257   4.907 -0.4205  0.1304 -0.1208
  684MOL0     C92267  11.436   2.281   4.789 -0.3868  0.6166  0.6214
  684MOL0     C92268  11.436   2.431   4.744  0.3436  0.2904  0.7786
  684MOL0     C92269  11.290   2.479   4.704  0.0237 -0.2410  0.7754
  684MOL0     C92270  11.173   2.511   4.676 -0.2133  0.3652  0.2983
  684MOL0     C92271  11.332   1.827   4.825 -0.7057  0.7100  0.2801
  684MOL0     C92272  11.225   1.733   4.815  0.2485  0.0178 -0.0382
  684MOL0     H92273  11.035   1.300   4.779  0.2747 -3.0461 -3.0132
  684MOL0     H92274  10.862   1.124   4.701  1.0127 -0.3345  2.4032
  684MOL0     H92275  10.488   1.269   4.495  1.7172 -0.0057  1.8923
  684MOL0     H92276  10.641   1.264   4.408 -2.8805  2.6460 -0.8699
  684MOL0     H92277  10.523   1.072   4.313  0.7767  0.7465  0.0176
  684MOL0     H92278  10.665   1.038   4.408 -0.0767  1.9716 -0.8569
  684MOL0     H92279  10.506   0.978   4.599 -1.1367 -2.2679  0.7011
  684MOL0     H92280  10.376   1.008   4.485  0.5847  1.3263 -2.3462
  684MOL0     H92281  10.464   0.841   4.323 -0.2887 -1.7593  0.3187
  684MOL0     H92282  10.591   0.796   4.440  0.1389  0.2422  1.0572
  684MOL0     H92283  10.475   0.666   4.555 -0.9561  0.4950  0.5025
  684MOL0     H92284  10.342   0.766   4.570  0.7214 -1.4770  0.7289
  684MOL0     H92285  10.295   0.543   4.442 -1.3735  0.3274 -1.2045
  684MOL0     H92286  10.270   0.678   4.331 -1.0141  0.5523  1.7567
  684MOL0     H92287  10.458   0.632   4.207 -4.3610  1.7740 -0.5141
  684MOL0     H92288  10.560   0.576   4.332 -0.3442  0.4963  1.1431
  684MOL0     H92289  10.415   0.357   4.352  1.1949  1.3307  1.6088
  684MOL0     H92290  10.493   0.384   4.196  0.8798  0.5291 -0.5280
  684MOL0     H92291  10.122   0.389   4.330 -2.7561 -2.2025 -1.8922
  684MOL0     H92292   9.881   0.371   4.045  0.2380 -1.2683  1.4460
  684MOL0     H92293   9.923   0.336   4.208 -2.6243 -1.5939 -0.8204
  684MOL0     H92294   9.891   0.591   4.047  1.8727  2.1815 -0.1953
  684MOL0     H92295   9.940   0.615   4.221 -0.6661  1.2607 -2.2476
  684MOL0     H92296   9.762   0.482   4.306 -0.3994  0.4197  0.1703
  684MOL0     H92297   9.675   0.504   4.162 -0.4474  0.2474 -0.1713
  684MOL0     H92298   9.765   0.726   4.346  1.9454 -2.4396 -1.3273
  684MOL0     H92299   9.599   0.674   4.313  0.3681  1.4240  2.9960
  684MOL0     H92300   9.540   0.912   4.001 -0.6021  0.4575  1.1175
  684MOL0     H92301   9.461   1.079   3.905  2.7490  0.4875 -2.1637
  684MOL0     H92302   9.375   1.198   4.009  0.4086  0.3716 -1.4042
  684MOL0     H92303   9.537   1.231   3.933  0.3118  1.0115  0.1322
  684MOL0     H92304   9.722   1.536   4.447  1.1377  1.8470  1.1582
  684MOL0     H92305   9.651   1.757   4.559 -0.8665  0.2941  1.1122
  684MOL0     H92306   9.261   1.902   4.550 -0.8813 -0.3175  0.5311
  684MOL0     H92307   9.228   1.840   4.721  1.2507 -2.2669 -0.3432
  684MOL0     H92308   9.379   1.983   4.819 -0.9063  0.1177  0.8011
  684MOL0     H92309   9.421   2.048   4.659  0.6122 -2.8608 -0.9169
  684MOL0     H92310   9.141   2.034   4.796  2.2982 -0.9866  1.9245
  684MOL0     H92311   9.177   2.124   4.651  1.3563 -0.2057 -0.9729
  684MOL0     H92312   9.270   2.190   4.930 -4.2835 -3.4963 -0.2278
  684MOL0     H92313   9.358   2.248   4.778  1.4680  0.3042  1.7717
  684MOL0     H92314   9.063   2.270   4.856  2.4162 -3.0766  2.7734
  684MOL0     H92315   9.117   2.359   4.720  2.4247  1.6711  0.7685
  684MOL0     H92316   9.252   2.503   4.906 -0.4450 -0.1850  0.2381
  684MOL0     H92317   9.076   2.498   4.907 -0.6260 -1.3583 -0.6299
  684MOL0     H92318   9.259   2.333   5.096 -0.1598 -2.1699  0.3923
  684MOL0     H92319   9.087   2.328   5.086  0.2750  0.1082 -2.5692
  684MOL0     H92320   9.180   2.480   5.275  0.2133 -2.7728 -0.9030
  684MOL0     H92321   9.083   2.566   5.175 -2.1871 -3.2336  2.8624
  684MOL0     H92322   9.241   1.656   4.517 -0.2287  0.2090  0.8820
  684MOL0     H92323   9.309   1.432   4.415  1.3123 -1.2875 -1.2242
  684MOL0     H92324   9.695   1.128   4.409  3.9621 -2.6658 -0.6386
  684MOL0     H92325   9.757   0.941   4.377  0.0894 -0.1232  0.1495
  684MOL0     H92326  10.622   1.467   4.569  1.1456 -0.2514 -3.8653
  684MOL0     H92327  10.778   1.614   4.633  1.2683  0.7177 -1.2080
  684MOL0     H92328  10.983   1.914   4.963 -0.3679  1.5124 -1.4945
  684MOL0     H92329  11.162   2.066   4.989 -0.2232 -0.1599 -0.1904
  684MOL0     H92330  11.341   2.129   5.076  0.1389  3.3791  0.5028
  684MOL0     H92331  11.506   2.163   5.042 -1.5694 -4.0226  2.2984
  684MOL0     H92332  11.339   2.349   4.965 -6.0012  0.7683 -1.5190
  684MOL0     H92333  11.244   2.235   4.887 -1.1904  2.2810  1.2557
  684MOL0     H92334  11.401   2.223   4.703  0.3495 -1.5773  1.7350
  684MOL0     H92335  11.539   2.245   4.799  0.7962  2.6421 -2.4498
  684MOL0     H92336  11.494   2.447   4.652  0.1274 -1.0325  0.3985
  684MOL0     H92337  11.475   2.502   4.818  0.7281  1.1267 -0.2008
  684MOL0     H92338  11.070   2.541   4.666 -0.3436  1.2391  3.1933
  684MOL0     H92339  11.433   1.800   4.793 -0.2519  0.2817  1.9792
  684MOL0     H92340  11.246   1.635   4.775  3.2507  0.0811  1.1079
  685MOL0     O92341   3.959   5.486   1.948  0.2206 -0.7368  0.6786
  685MOL0     C92342   4.029   5.548   1.870  0.6512  0.5779  1.0773
  685MOL0     O92343   4.015   5.534   1.737 -0.5897 -0.6990 -0.2187
  685MOL0     C92344   3.954   5.429   1.671  0.5755  0.7869  0.6942
  685MOL0     C92345   3.852   5.342   1.714  0.3932 -0.4909  0.8820
  685MOL0     C92346   3.811   5.237   1.630 -0.3559 -0.4158 -0.0348
  685MOL0     C92347   3.866   5.226   1.505  0.0976 -0.8814  0.7466
  685MOL0     O92348   3.825   5.133   1.415  0.0440  0.9033  0.3102
  685MOL0     C92349   3.761   5.007   1.471 -0.0662 -1.3741 -1.1678
  685MOL0     C92350   3.782   4.886   1.380  1.1468 -0.4668  0.4077
  685MOL0     C92351   3.922   4.855   1.317  0.5107 -0.3949 -1.0777
  685MOL0     C92352   4.006   4.772   1.408  0.5499  0.4122  0.4339
  685MOL0     C92353   4.138   4.720   1.336 -1.3525 -0.2909  0.1215
  685MOL0     C92354   4.183   4.599   1.420 -1.1730  0.1863 -0.3535
  685MOL0     C92355   4.335   4.571   1.413  0.8348  0.5422 -0.1612
  685MOL0     C92356   4.361   4.489   1.287 -0.2887  0.7466 -0.8974
  685MOL0     N92357   4.509   4.495   1.264  0.0172 -0.7006 -0.3215
  685MOL0     C92358   4.567   4.455   1.153 -0.3830 -0.5054  1.4594
  685MOL0     C92359   4.697   4.420   1.178  0.8576 -0.2989 -1.3119
  685MOL0     C92360   4.801   4.363   1.096 -0.1340  0.6234  0.2964
  685MOL0     C92361   4.812   4.432   0.960 -0.7507  0.0139  0.0378
  685MOL0     C92362   4.940   4.374   0.885  0.3454  0.1232 -0.4017
  685MOL0     C92363   4.964   4.460   0.760 -0.7787  0.0020  0.0940
  685MOL0     O92364   4.837   4.504   0.716  0.3187  0.1952 -0.1108
  685MOL0     C92365   4.832   4.592   0.610 -0.1782 -0.6059  0.5105
  685MOL0     C92366   4.941   4.643   0.536 -0.3747 -1.0579 -0.0628
  685MOL0     C92367   4.931   4.723   0.413 -0.6837  0.8291  0.1537
  685MOL0     C92368   5.056   4.785   0.347 -0.6756  0.3643  0.9333
  685MOL0     C92369   4.799   4.751   0.374  0.3517  0.0055 -0.5173
  685MOL0     C92370   4.765   4.828   0.253  0.8380  0.2185  0.4591
  685MOL0     O92371   4.642   4.819   0.192  1.4520  0.0486  0.1514
  685MOL0     C92372   4.617   4.926   0.110 -0.5564 -0.7029  0.3654
  685MOL0     C92373   4.673   4.957  -0.007 -0.7528 -0.2874  0.2948
  685MOL0     C92374   4.652   5.069  -0.076  1.0837 -0.2398 -0.4721
  685MOL0     C92375   4.568   5.167  -0.020  0.1563 -0.2697 -0.7864
  685MOL0     O92376   4.524   5.292  -0.063 -0.1568  0.0195 -0.6843
  685MOL0     C92377   4.565   5.319  -0.197 -0.0529  0.1830 -0.0417
  685MOL0     C92378   4.478   5.429  -0.267 -0.7237  0.0065  0.3883
  685MOL0     C92379   4.337   5.384  -0.260 -0.1513  0.9686  0.4444
  685MOL0     C92380   4.252   5.505  -0.307 -0.4332  0.4203 -0.0886
  685MOL0     C92381   4.106   5.474  -0.286  0.3276  0.2036 -0.2593
  685MOL0     C92382   4.021   5.565  -0.365 -0.3269  0.8542  0.6770
  685MOL0     C92383   3.875   5.528  -0.358  0.9128  0.0380  0.0026
  685MOL0     C92384   3.791   5.648  -0.396 -0.4600 -0.6541 -0.4666
  685MOL0    Cl92385   3.773   5.650  -0.576  0.7202  0.0431  0.2470
  685MOL0     C92386   4.516   5.146   0.101  0.4752  0.3511 -0.4772
  685MOL0     C92387   4.537   5.027   0.165  0.3180  0.3505 -0.2538
  685MOL0     O92388   4.834   4.927   0.240  0.8017  0.1546 -0.7672
  685MOL0     C92389   4.686   4.707   0.450  0.8975  0.2022 -0.3628
  685MOL0     C92390   4.703   4.625   0.565  0.5505  0.0313 -0.3270
  685MOL0     N92391   4.713   4.440   1.313 -0.1369  1.2777 -0.4445
  685MOL0     N92392   4.607   4.490   1.366 -0.4487  0.3264 -1.0594
  685MOL0     C92393   3.960   5.313   1.456  1.0291  0.2257  0.1401
  685MOL0     C92394   4.004   5.413   1.538  0.0961 -0.5314  0.7914
  685MOL0     C92395   4.102   5.673   1.917 -0.2910 -0.8915 -0.1453
  685MOL0     C92396   4.106   5.711   2.056  0.2153 -0.5603  0.9123
  685MOL0     C92397   4.172   5.828   2.097 -0.2238  0.1045  0.6166
  685MOL0     C92398   4.233   5.913   2.005 -0.9873 -0.8117  0.9251
  685MOL0     O92399   4.291   6.030   2.052 -0.3868  0.0587  1.1173
  685MOL0     C92400   4.221   6.152   2.037  0.2286  0.7240 -0.2216
  685MOL0     C92401   4.262   6.218   1.905  0.2654 -0.0035 -0.6224
  685MOL0     C92402   4.406   6.244   1.902 -0.5407 -0.0384 -0.9328
  685MOL0     C92403   4.444   6.319   1.778 -0.0461  0.6947  0.9454
  685MOL0     C92404   4.590   6.346   1.788 -0.7242 -0.7674  0.0389
  685MOL0     C92405   4.705   6.370   1.805 -0.6194  0.1154  0.3241
  685MOL0     C92406   4.219   5.879   1.870 -0.3040 -0.6734 -0.4721
  685MOL0     C92407   4.159   5.758   1.828 -0.6800 -0.1442 -0.0507
  685MOL0     H92408   3.800   5.346   1.809  2.0708  3.7664  1.8413
  685MOL0     H92409   3.741   5.162   1.665  3.2513 -3.4661  1.3132
  685MOL0     H92410   3.817   4.978   1.561  2.2458 -1.6541 -2.6263
  685MOL0     H92411   3.658   5.034   1.496  0.7833  0.7327  0.3188
  685MOL0     H92412   3.734   4.794   1.415 -0.0320  0.3916  1.1341
  685MOL0     H92413   3.727   4.916   1.290  2.5994 -0.8748 -0.6380
  685MOL0     H92414   3.918   4.820   1.214  0.9163  0.0256 -1.2375
  685MOL0     H92415   3.963   4.956   1.319 -1.0331  0.3614  2.9167
  685MOL0     H92416   4.035   4.827   1.498  2.8160 -0.6221  0.3939
  685MOL0     H92417   3.949   4.681   1.432  0.8416 -0.0055 -0.4142
  685MOL0     H92418   4.126   4.700   1.229  0.7642 -3.7637  0.3807
  685MOL0     H92419   4.222   4.789   1.330 -0.8489 -0.5248  2.9447
  685MOL0     H92420   4.169   4.618   1.527 -0.4905 -0.2612 -0.1822
  685MOL0     H92421   4.120   4.513   1.395  0.1750 -0.8004 -0.4743
  685MOL0     H92422   4.384   4.669   1.402 -1.1756  1.8237  1.4968
  685MOL0     H92423   4.365   4.516   1.502  0.8694  0.6787 -0.0875
  685MOL0     H92424   4.306   4.526   1.200 -4.5463 -1.2870  0.6915
  685MOL0     H92425   4.329   4.386   1.302 -1.0171  1.1643  0.6965
  685MOL0     H92426   4.514   4.442   1.059  1.0487 -0.8201  0.6783
  685MOL0     H92427   4.897   4.391   1.142  0.6025  1.0762 -1.4569
  685MOL0     H92428   4.788   4.255   1.095  1.3721  0.4267  0.4642
  685MOL0     H92429   4.843   4.536   0.971  0.2033 -0.4367  2.0249
  685MOL0     H92430   4.720   4.417   0.902 -1.6929 -0.5813  1.6066
  685MOL0     H92431   4.920   4.271   0.854 -0.5381  0.0853  0.2505
  685MOL0     H92432   5.029   4.371   0.948  0.2725 -0.8068 -0.3339
  685MOL0     H92433   5.023   4.398   0.691 -2.6782 -0.5178 -1.1424
  685MOL0     H92434   5.022   4.550   0.782 -0.2086 -0.6661  1.4546
  685MOL0     H92435   5.048   4.629   0.549 -0.2192 -0.5415 -0.7379
  685MOL0     H92436   5.143   4.759   0.407  0.1137 -2.7715 -1.2894
  685MOL0     H92437   5.054   4.752   0.243 -1.9922 -2.0888  1.6630
  685MOL0     H92438   5.063   4.894   0.344 -1.1679  0.3960  0.8509
  685MOL0     H92439   4.756   4.897  -0.043  1.6925  1.4321  2.6788
  685MOL0     H92440   4.718   5.083  -0.161  2.2964  0.0319  0.4977
  685MOL0     H92441   4.668   5.357  -0.201 -0.4398  1.4286  1.0873
  685MOL0     H92442   4.554   5.235  -0.267 -0.4205  1.6681 -1.8405
  685MOL0     H92443   4.485   5.524  -0.213  1.7849 -0.7230  1.4600
  685MOL0     H92444   4.511   5.433  -0.371  1.0508  0.5193  0.9470
  685MOL0     H92445   4.303   5.367  -0.157 -0.0715 -0.7781  0.2116
  685MOL0     H92446   4.322   5.299  -0.327  1.1349  1.2395 -0.2067
  685MOL0     H92447   4.283   5.587  -0.242  0.7662 -0.1819  0.1291
  685MOL0     H92448   4.274   5.539  -0.409 -2.1465 -0.2787 -0.7338
  685MOL0     H92449   4.086   5.486  -0.180  4.1341 -0.5658  0.6972
  685MOL0     H92450   4.082   5.369  -0.307  0.3967  0.3093 -0.8855
  685MOL0     H92451   4.044   5.666  -0.330 -0.5329  0.9444  0.5554
  685MOL0     H92452   4.055   5.556  -0.468  1.6307 -2.3324  1.4441
  685MOL0     H92453   3.860   5.507  -0.251  1.4445  2.0561  0.5242
  685MOL0     H92454   3.844   5.437  -0.410  0.5358  1.1975 -1.9069
  685MOL0     H92455   3.827   5.742  -0.354 -3.6015  1.2250 -1.6015
  685MOL0     H92456   3.696   5.632  -0.345 -0.7307 -1.6312 -1.2379
  685MOL0     H92457   4.445   5.215   0.147 -1.4642 -3.5613  3.0250
  685MOL0     H92458   4.490   5.026   0.263 -2.7812  1.5786 -1.5984
  685MOL0     H92459   4.588   4.733   0.410  0.7228 -0.2266 -0.2221
  685MOL0     H92460   4.618   4.595   0.625  1.3127  0.4261  0.9891
  685MOL0     H92461   3.988   5.304   1.352 -1.0158  1.3950 -0.5793
  685MOL0     H92462   4.076   5.477   1.488  0.9329 -4.2681 -3.3492
  685MOL0     H92463   4.052   5.654   2.131 -1.2526 -0.7880 -0.2625
  685MOL0     H92464   4.179   5.857   2.201 -0.2412  1.3404  0.2928
  685MOL0     H92465   4.113   6.141   2.050  0.4330  0.4497  1.4741
  685MOL0     H92466   4.254   6.217   2.118  0.3022 -1.0333  1.2177
  685MOL0     H92467   4.212   6.315   1.909  2.4236  1.1748 -0.9254
  685MOL0     H92468   4.229   6.168   1.813 -1.4791  0.6053 -0.3685
  685MOL0     H92469   4.450   6.144   1.904  1.2495  0.7165  0.4062
  685MOL0     H92470   4.439   6.295   1.993 -0.4135 -0.2680 -0.8513
  685MOL0     H92471   4.400   6.418   1.758  0.6308  0.4481 -2.3405
  685MOL0     H92472   4.412   6.261   1.691  0.4821  2.0137 -0.1728
  685MOL0     H92473   4.805   6.398   1.830 -1.1053  3.1763 -0.7428
  685MOL0     H92474   4.259   5.948   1.796 -1.4753 -0.6651 -1.1260
  685MOL0     H92475   4.165   5.739   1.721 -1.6401  0.3943 -0.2027
  686MOL0     O92476   8.730  10.721   2.508  0.2187 -0.4516 -0.8983
  686MOL0     C92477   8.705  10.756   2.623  0.9434 -0.4134 -0.3709
  686MOL0     O92478   8.576  10.780   2.674  0.3159  0.1758  0.1293
  686MOL0     C92479   8.454  10.749   2.606 -0.7741  0.6745 -0.8480
  686MOL0     C92480   8.437  10.699   2.473  0.7828  0.6533 -0.5762
  686MOL0     C92481   8.314  10.670   2.419 -0.8444 -0.0341  0.2053
  686MOL0     C92482   8.201  10.693   2.487 -0.2305 -0.2265  0.6670
  686MOL0     O92483   8.082  10.649   2.449  0.3817 -0.3777  0.2911
  686MOL0     C92484   8.031  10.690   2.319  0.2135 -0.2042  0.4592
  686MOL0     C92485   7.908  10.788   2.332  0.5993 -0.5103  0.1974
  686MOL0     C92486   7.847  10.836   2.201 -1.1384 -0.6384 -0.6256
  686MOL0     C92487   7.721  10.920   2.227  0.5389 -0.0920  0.4518
  686MOL0     C92488   7.692  11.007   2.106 -0.0515  0.6463 -0.9558
  686MOL0     C92489   7.560  11.091   2.113 -0.9193 -0.3782 -0.5458
  686MOL0     C92490   7.519  11.119   1.965 -0.3219 -0.9285 -0.0449
  686MOL0     C92491   7.396  11.211   1.964  0.1595  0.8221 -0.3625
  686MOL0     N92492   7.425  11.338   2.025  1.4325 -0.5579 -0.4868
  686MOL0     C92493   7.369  11.381   2.145 -0.1804 -0.1814  0.4155
  686MOL0     C92494   7.401  11.512   2.144 -1.2790 -0.0730  0.0238
  686MOL0     C92495   7.369  11.620   2.239 -0.3736  0.1923 -0.9489
  686MOL0     C92496   7.490  11.650   2.337  0.1856  0.1110  0.1840
  686MOL0     C92497   7.544  11.537   2.426  0.5406  1.1575 -0.3586
  686MOL0     C92498   7.484  11.514   2.572  0.2407  0.1873  0.7893
  686MOL0     O92499   7.519  11.381   2.611 -0.8184 -1.0327  0.0777
  686MOL0     C92500   7.560  11.345   2.735  0.5341  0.2681  0.7531
  686MOL0     C92501   7.629  11.227   2.743  0.8790  0.3505  0.8168
  686MOL0     C92502   7.680  11.177   2.862 -0.4699 -0.1308 -0.7673
  686MOL0     C92503   7.761  11.060   2.844 -0.6323  0.4335 -0.5685
  686MOL0     C92504   7.671  11.258   2.973 -0.9900  0.3843  0.3329
  686MOL0     C92505   7.726  11.224   3.105 -0.2212 -1.3455  0.1377
  686MOL0     O92506   7.744  11.329   3.197  0.4619 -0.3569  0.3413
  686MOL0     C92507   7.809  11.300   3.311 -0.7072 -0.4339  0.6318
  686MOL0     C92508   7.925  11.365   3.340 -0.4746  0.8182  0.4117
  686MOL0     C92509   7.991  11.339   3.464  0.8234  0.3462 -0.2392
  686MOL0     C92510   7.934  11.242   3.559 -0.0507  0.8294  0.2637
  686MOL0     O92511   7.991  11.229   3.684 -0.0296  0.1040 -0.5145
  686MOL0     C92512   8.019  11.097   3.735 -0.0933  0.9299  1.0504
  686MOL0     C92513   8.004  11.083   3.887  0.2648 -0.0457  0.0760
  686MOL0     C92514   7.869  11.130   3.935  0.4717  0.4884  0.1575
  686MOL0     C92515   7.840  11.090   4.080  0.1183  0.2454 -1.2015
  686MOL0     C92516   7.693  11.119   4.116 -0.2491 -0.6830  0.5277
  686MOL0     C92517   7.654  11.104   4.260  0.1544  0.6238  0.1992
  686MOL0     C92518   7.506  11.081   4.280  0.8165  0.1946 -0.5608
  686MOL0     C92519   7.461  10.942   4.340  0.1185 -0.7458 -0.5469
  686MOL0    Cl92520   7.468  10.820   4.219 -0.0405  0.4661  0.1282
  686MOL0     C92521   7.814  11.172   3.525 -0.0290 -0.1240  0.4465
  686MOL0     C92522   7.758  11.198   3.400  0.2291 -1.0136 -0.5085
  686MOL0     O92523   7.766  11.110   3.118 -0.1326 -0.3762 -0.1604
  686MOL0     C92524   7.601  11.381   2.969 -0.1149 -0.2543  0.7330
  686MOL0     C92525   7.549  11.423   2.853 -0.1375 -0.0997  0.4406
  686MOL0     N92526   7.465  11.540   2.022 -0.1556 -0.2969 -0.3934
  686MOL0     N92527   7.468  11.436   1.953 -0.7013  0.5776  0.1910
  686MOL0     C92528   8.213  10.757   2.610 -0.1495  0.0282 -0.5411
  686MOL0     C92529   8.336  10.780   2.671  0.4726 -0.6454 -0.4715
  686MOL0     C92530   8.818  10.801   2.707  0.7700 -0.3722  0.3202
  686MOL0     C92531   8.799  10.871   2.826  0.0674  0.1654 -1.5943
  686MOL0     C92532   8.906  10.928   2.901  0.1273  0.5600 -0.9488
  686MOL0     C92533   9.037  10.904   2.871 -0.6221 -0.6745  1.1272
  686MOL0     O92534   9.142  10.919   2.955 -0.4070 -0.3386 -1.0144
  686MOL0     C92535   9.122  10.897   3.101 -0.4999  0.1167  0.5309
  686MOL0     C92536   9.229  10.823   3.167  0.0837 -1.0583 -0.3192
  686MOL0     C92537   9.369  10.860   3.115 -0.1862  0.6494 -1.0442
  686MOL0     C92538   9.483  10.769   3.172 -0.0014  0.0097  0.2155
  686MOL0     C92539   9.504  10.769   3.316  0.2525 -0.6849  0.4250
  686MOL0     C92540   9.515  10.743   3.432  0.1714  1.2192 -0.7451
  686MOL0     C92541   9.064  10.835   2.747  0.6157 -0.6823  0.1156
  686MOL0     C92542   8.954  10.786   2.668 -0.1845  0.4162  0.0716
  686MOL0     H92543   8.530  10.697   2.416  1.8424 -0.4910  1.1212
  686MOL0     H92544   8.312  10.644   2.314 -2.0549 -2.9220  0.8535
  686MOL0     H92545   8.098  10.755   2.262 -2.6772  1.0614 -1.7749
  686MOL0     H92546   7.991  10.601   2.269 -0.6498 -1.2249  2.7913
  686MOL0     H92547   7.830  10.729   2.381  0.7388 -4.1118 -3.3630
  686MOL0     H92548   7.939  10.876   2.389 -0.1236  0.1796 -0.4453
  686MOL0     H92549   7.927  10.894   2.154 -0.9251 -1.2914 -1.0906
  686MOL0     H92550   7.825  10.748   2.140  1.8318 -2.8047  1.1219
  686MOL0     H92551   7.626  10.869   2.249  1.1585 -2.0522 -1.1063
  686MOL0     H92552   7.731  10.989   2.311 -3.2209  1.1020  0.1255
  686MOL0     H92553   7.785  11.063   2.088  2.4900 -2.1224  2.0735
  686MOL0     H92554   7.690  10.930   2.029  0.1900  0.8036 -1.1203
  686MOL0     H92555   7.481  11.033   2.160  0.3424 -2.0313 -0.3583
  686MOL0     H92556   7.572  11.171   2.186  1.8061 -0.2864 -0.9772
  686MOL0     H92557   7.608  11.167   1.922  0.2703 -1.0626  1.0016
  686MOL0     H92558   7.495  11.027   1.911 -2.4011 -0.9736  0.8657
  686MOL0     H92559   7.318  11.169   2.029  0.2877 -1.4248 -1.5621
  686MOL0     H92560   7.358  11.230   1.864  0.4937  2.2314 -0.2328
  686MOL0     H92561   7.309  11.308   2.199 -1.6503  0.5978 -0.1086
  686MOL0     H92562   7.324  11.707   2.190 -2.1584  1.3776  2.4639
  686MOL0     H92563   7.291  11.572   2.299 -0.2537 -1.3550 -1.9968
  686MOL0     H92564   7.452  11.731   2.400 -2.5271 -1.8883  1.3488
  686MOL0     H92565   7.577  11.678   2.278  2.1898 -2.2772  1.7531
  686MOL0     H92566   7.649  11.561   2.447  1.0676 -0.7920 -0.5722
  686MOL0     H92567   7.545  11.442   2.372 -1.0962  1.0353 -0.2181
  686MOL0     H92568   7.377  11.537   2.581  0.3824  0.8777  0.7815
  686MOL0     H92569   7.532  11.583   2.642  0.0294  0.9903  0.1586
  686MOL0     H92570   7.649  11.181   2.647 -1.3694 -0.8985  0.8802
  686MOL0     H92571   7.766  11.041   2.737 -2.5180 -0.7044 -0.4848
  686MOL0     H92572   7.865  11.072   2.878 -0.5775 -0.4885 -0.3891
  686MOL0     H92573   7.714  10.971   2.887 -2.2253  1.4533 -0.1191
  686MOL0     H92574   7.957  11.446   3.275  0.0737  1.0598  0.9647
  686MOL0     H92575   8.066  11.408   3.498  0.5373  0.1955  0.7212
  686MOL0     H92576   7.950  11.020   3.699  0.6706  0.1325  1.2573
  686MOL0     H92577   8.114  11.063   3.692 -0.5563  1.5350 -0.5125
  686MOL0     H92578   8.038  10.986   3.923  3.4014  0.6620 -0.7043
  686MOL0     H92579   8.075  11.155   3.929  0.2206  0.4330 -0.6738
  686MOL0     H92580   7.802  11.086   3.861  3.1221 -0.6045 -1.7654
  686MOL0     H92581   7.865  11.239   3.929 -1.4838  0.4435  0.1740
  686MOL0     H92582   7.867  10.985   4.099 -0.0144  0.3605 -0.3408
  686MOL0     H92583   7.898  11.152   4.149  0.3489  1.1997 -2.2418
  686MOL0     H92584   7.644  11.050   4.047  0.3625  0.3394 -0.9728
  686MOL0     H92585   7.666  11.215   4.072  2.0638 -0.3991 -0.4209
  686MOL0     H92586   7.722  11.024   4.288 -0.0660 -1.0204 -3.4113
  686MOL0     H92587   7.679  11.199   4.308  2.4147  0.8003 -1.2016
  686MOL0     H92588   7.460  11.087   4.181  1.6845 -1.5173 -1.1105
  686MOL0     H92589   7.467  11.165   4.339  1.1698  2.2890 -3.0802
  686MOL0     H92590   7.357  10.949   4.371  0.0234 -0.3445 -0.9440
  686MOL0     H92591   7.506  10.914   4.436 -3.2506 -1.0995  1.0815
  686MOL0     H92592   7.767  11.099   3.589  1.6837  1.3945  3.6735
  686MOL0     H92593   7.665  11.146   3.377 -0.1316 -0.6378  0.0837
  686MOL0     H92594   7.584  11.446   3.054 -1.2369  3.4232 -2.0590
  686MOL0     H92595   7.502  11.520   2.861 -1.4637 -0.7861  1.1921
  686MOL0     H92596   8.122  10.799   2.651 -1.3205 -0.2707 -2.6480
  686MOL0     H92597   8.333  10.833   2.766  0.4009  0.4686 -1.0781
  686MOL0     H92598   8.709  10.893   2.882  0.0085 -2.1781 -0.6268
  686MOL0     H92599   8.892  10.974   2.998 -0.1513 -3.3279  1.0385
  686MOL0     H92600   9.104  10.990   3.156 -0.8684  0.8718 -0.8318
  686MOL0     H92601   9.033  10.833   3.108  0.0103 -0.8688 -1.3279
  686MOL0     H92602   9.235  10.714   3.161  3.6587 -1.0822  1.2877
  686MOL0     H92603   9.223  10.847   3.273  0.3491 -1.4040 -0.2210
  686MOL0     H92604   9.386  10.965   3.141 -4.2473  1.8079 -2.2759
  686MOL0     H92605   9.375  10.842   3.008 -4.0620 -1.4973 -1.0621
  686MOL0     H92606   9.572  10.799   3.116 -1.4519  0.9505 -1.7001
  686MOL0     H92607   9.475  10.663   3.147  0.4232 -0.6728  2.7009
  686MOL0     H92608   9.548  10.729   3.533  0.7990  0.6581 -1.0187
  686MOL0     H92609   9.165  10.806   2.722 -0.1952 -2.3984 -1.3647
  686MOL0     H92610   8.980  10.729   2.580  1.0045 -0.4195  0.9218
  687MOL0     O92611   7.733   1.854   2.591  0.5143 -0.2535  0.0471
  687MOL0     C92612   7.690   1.909   2.490  1.6205 -0.2514 -0.4764
  687MOL0     O92613   7.769   1.980   2.398 -0.2264  0.9647 -0.5569
  687MOL0     C92614   7.900   2.016   2.428 -0.7367  0.6776 -0.0278
  687MOL0     C92615   7.993   1.922   2.462 -1.3645 -0.0211  0.2975
  687MOL0     C92616   8.129   1.971   2.470  1.2199 -0.7661  0.7022
  687MOL0     C92617   8.156   2.109   2.457  0.4825  0.3915 -0.0543
  687MOL0     O92618   8.283   2.139   2.447 -0.9796 -0.8769  0.4807
  687MOL0     C92619   8.391   2.085   2.539 -0.1053  0.3913  0.0531
  687MOL0     C92620   8.509   2.181   2.515 -0.0783  0.1495 -0.5018
  687MOL0     C92621   8.552   2.181   2.365  0.2286  0.3210 -0.7805
  687MOL0     C92622   8.529   2.318   2.290 -0.8046  0.0152  0.1296
  687MOL0     C92623   8.633   2.413   2.345 -0.8926 -0.2979  0.4384
  687MOL0     C92624   8.641   2.533   2.258 -0.1846 -0.0638 -0.0935
  687MOL0     C92625   8.506   2.595   2.229 -0.1314  0.7236 -0.0151
  687MOL0     C92626   8.527   2.750   2.214  0.6352  0.9282  0.0227
  687MOL0     N92627   8.397   2.817   2.178 -0.2568 -0.2552  0.7700
  687MOL0     C92628   8.363   2.852   2.045  0.2918  0.7101 -0.5318
  687MOL0     C92629   8.229   2.877   2.048  0.4288  0.3135 -0.0983
  687MOL0     C92630   8.141   2.936   1.935  1.0717 -0.2966  0.1894
  687MOL0     C92631   8.221   2.999   1.811 -1.5506  0.0951 -0.4876
  687MOL0     C92632   8.319   3.120   1.826  0.1356 -0.3005  0.1541
  687MOL0     C92633   8.269   3.223   1.934 -0.0545  0.0515 -0.2289
  687MOL0     O92634   8.378   3.296   1.991  0.2528  0.0995  0.1772
  687MOL0     C92635   8.473   3.347   1.911  0.3859  0.5036 -0.4555
  687MOL0     C92636   8.442   3.419   1.796 -1.5462  0.6653 -2.0035
  687MOL0     C92637   8.536   3.481   1.714 -0.7554 -0.3899 -0.4618
  687MOL0     C92638   8.487   3.564   1.594  0.4951 -0.0660 -0.1261
  687MOL0     C92639   8.680   3.475   1.750  0.1926  0.5433  0.3402
  687MOL0     C92640   8.778   3.524   1.659 -0.4155  0.2752  0.5702
  687MOL0     O92641   8.752   3.546   1.520 -0.8439 -0.0254 -0.6027
  687MOL0     C92642   8.853   3.606   1.452  0.6756 -0.2056  0.1756
  687MOL0     C92643   8.885   3.743   1.472 -0.5954 -0.8069  0.3722
  687MOL0     C92644   8.987   3.808   1.397  0.6954  0.3939  0.2153
  687MOL0     C92645   9.063   3.731   1.313  0.7337  0.2333 -0.0018
  687MOL0     O92646   9.166   3.778   1.242 -0.1765  0.3358 -0.8465
  687MOL0     C92647   9.246   3.875   1.318  0.6780  0.2275 -0.1655
  687MOL0     C92648   9.383   3.885   1.256 -0.0599 -0.6298  0.1146
  687MOL0     C92649   9.462   3.756   1.251  0.2428  0.7996  0.0032
  687MOL0     C92650   9.495   3.708   1.108 -0.0424  0.7479  0.8331
  687MOL0     C92651   9.566   3.572   1.105 -0.0380 -0.1483 -0.0766
  687MOL0     C92652   9.476   3.440   1.070  1.1214  0.3292 -0.7292
  687MOL0     C92653   9.403   3.387   1.197 -1.2887 -1.2082 -0.5081
  687MOL0     C92654   9.338   3.251   1.149  0.0231 -0.1414  0.0161
  687MOL0    Cl92655   9.245   3.185   1.287  0.4587  0.4322  0.2733
  687MOL0     C92656   9.043   3.594   1.289  0.0753  0.0889  0.1341
  687MOL0     C92657   8.930   3.535   1.357 -0.3112 -0.7504 -0.0277
  687MOL0     O92658   8.890   3.533   1.710 -0.1163  0.0779  0.7498
  687MOL0     C92659   8.710   3.406   1.872 -0.1892  0.6906  0.8298
  687MOL0     C92660   8.610   3.339   1.939 -0.2894  0.1868 -0.0526
  687MOL0     N92661   8.187   2.851   2.183 -0.3972 -0.3984  0.9107
  687MOL0     N92662   8.283   2.814   2.259 -0.6570  0.1259 -0.6060
  687MOL0     C92663   8.057   2.197   2.434  0.2310  0.2506 -0.5206
  687MOL0     C92664   7.921   2.152   2.426 -0.8144  0.1676 -0.0691
  687MOL0     C92665   7.541   1.896   2.489  0.1291  0.2098 -0.0764
  687MOL0     C92666   7.461   1.833   2.585 -0.3249 -0.2825  1.2181
  687MOL0     C92667   7.324   1.811   2.559  0.7616  0.7932 -0.1494
  687MOL0     C92668   7.262   1.864   2.447  0.1967 -1.5574 -1.0131
  687MOL0     O92669   7.128   1.876   2.428  0.0416  0.6024 -0.0274
  687MOL0     C92670   7.042   1.777   2.502 -0.4966 -0.0808  0.4007
  687MOL0     C92671   6.888   1.784   2.488  0.3983 -1.1942  0.6109
  687MOL0     C92672   6.823   1.643   2.478 -0.5395  0.1864  0.7940
  687MOL0     C92673   6.688   1.647   2.408  0.9049 -0.3356 -0.1396
  687MOL0     C92674   6.584   1.679   2.508 -0.5265 -1.0141 -1.0642
  687MOL0     C92675   6.499   1.682   2.596  0.3351  0.1483  0.0320
  687MOL0     C92676   7.344   1.933   2.354 -0.3769 -0.7531  0.5751
  687MOL0     C92677   7.477   1.944   2.374  0.3277  0.7798 -0.0069
  687MOL0     H92678   7.968   1.817   2.475 -0.0032 -0.3006  0.9556
  687MOL0     H92679   8.206   1.898   2.494  1.1134 -0.8970  0.6459
  687MOL0     H92680   8.348   2.078   2.639 -0.2772  3.3960  0.2586
  687MOL0     H92681   8.428   1.988   2.504 -1.0886  1.3944 -4.4658
  687MOL0     H92682   8.476   2.280   2.547  2.6582  1.0020 -0.0285
  687MOL0     H92683   8.589   2.159   2.587 -0.0730  2.9979  0.4869
  687MOL0     H92684   8.655   2.145   2.359  1.1766  2.7879 -0.4450
  687MOL0     H92685   8.490   2.108   2.312  1.2889 -0.3643 -1.1048
  687MOL0     H92686   8.526   2.300   2.183 -1.5493  2.8599 -0.3900
  687MOL0     H92687   8.430   2.359   2.309  0.1186  2.1316  0.6921
  687MOL0     H92688   8.604   2.443   2.446 -0.2693 -0.1213  0.5701
  687MOL0     H92689   8.728   2.360   2.355 -1.5466 -1.3159  1.4122
  687MOL0     H92690   8.699   2.605   2.317  2.3367 -1.1948 -1.0470
  687MOL0     H92691   8.701   2.511   2.169 -0.8902  0.5671 -0.7321
  687MOL0     H92692   8.452   2.552   2.145 -2.7216  4.8383 -0.7414
  687MOL0     H92693   8.435   2.566   2.307 -2.4618 -1.6735 -2.7830
  687MOL0     H92694   8.599   2.752   2.132  1.7691  0.7786  0.9970
  687MOL0     H92695   8.584   2.779   2.302  2.5481 -1.0976 -0.4549
  687MOL0     H92696   8.432   2.858   1.962 -0.8082 -0.8197 -1.6242
  687MOL0     H92697   8.065   2.866   1.898 -1.3682  2.7609 -1.0493
  687MOL0     H92698   8.084   3.021   1.974  0.4792 -0.3589 -0.5327
  687MOL0     H92699   8.159   3.017   1.723  3.1175  1.1225 -4.0222
  687MOL0     H92700   8.271   2.908   1.774 -1.4783 -0.1933  0.2934
  687MOL0     H92701   8.339   3.172   1.732  3.3305  1.2424  1.5501
  687MOL0     H92702   8.420   3.088   1.853  0.7361 -0.7507 -2.4413
  687MOL0     H92703   8.225   3.175   2.022  2.1613  0.1890  1.0028
  687MOL0     H92704   8.198   3.298   1.896 -0.0391  0.9127  1.3922
  687MOL0     H92705   8.334   3.419   1.780 -2.1257 -0.4245  1.1216
  687MOL0     H92706   8.494   3.672   1.612  0.4499  0.3290 -2.3037
  687MOL0     H92707   8.535   3.539   1.499 -0.8770  0.1430 -0.8989
  687MOL0     H92708   8.380   3.540   1.595  0.2692  0.7262  2.0497
  687MOL0     H92709   8.811   3.804   1.523 -4.1608 -4.8271  0.5059
  687MOL0     H92710   8.995   3.915   1.414 -0.3384  0.2750  1.6268
  687MOL0     H92711   9.202   3.974   1.334  3.4715  1.3192  1.3700
  687MOL0     H92712   9.256   3.830   1.418  0.1956 -3.3931 -1.6101
  687MOL0     H92713   9.376   3.934   1.158  1.5494  0.4098  0.4786
  687MOL0     H92714   9.441   3.954   1.319 -0.7386  0.6009 -0.5655
  687MOL0     H92715   9.400   3.677   1.294  1.2167  0.7582  1.4218
  687MOL0     H92716   9.552   3.773   1.311 -0.1790  0.1800  0.8258
  687MOL0     H92717   9.403   3.702   1.049  0.6697 -0.7627 -0.1799
  687MOL0     H92718   9.563   3.779   1.062 -1.8350  2.3465  0.5489
  687MOL0     H92719   9.621   3.548   1.197 -0.4056 -5.7114 -0.9742
  687MOL0     H92720   9.651   3.582   1.036  2.6530  2.3216  3.2209
  687MOL0     H92721   9.401   3.453   0.991  0.1253 -1.4504 -0.1420
  687MOL0     H92722   9.538   3.359   1.028 -0.1209 -0.8848 -0.2918
  687MOL0     H92723   9.337   3.465   1.236  1.1023  0.9738 -0.5274
  687MOL0     H92724   9.464   3.360   1.284 -1.9394 -0.9049  0.0459
  687MOL0     H92725   9.413   3.178   1.115  0.6508 -0.0692  1.1688
  687MOL0     H92726   9.269   3.267   1.066 -2.6740 -3.2167  1.4490
  687MOL0     H92727   9.104   3.528   1.227 -3.6207 -4.7249  1.0376
  687MOL0     H92728   8.918   3.428   1.351 -0.6979 -0.7784  1.0369
  687MOL0     H92729   8.813   3.398   1.905  0.1558 -1.4637 -0.5980
  687MOL0     H92730   8.642   3.275   2.020  0.8150  3.2685  2.1295
  687MOL0     H92731   8.094   2.298   2.420  1.2591 -0.2649 -1.7237
  687MOL0     H92732   7.849   2.232   2.413  0.5305  1.6848  1.4127
  687MOL0     H92733   7.503   1.788   2.674 -0.5694 -1.5028  0.7392
  687MOL0     H92734   7.266   1.755   2.632  2.9899 -1.3131  0.1471
  687MOL0     H92735   7.078   1.679   2.468  2.6557  1.5836 -1.5583
  687MOL0     H92736   7.068   1.787   2.608 -0.4761  1.6976  0.2595
  687MOL0     H92737   6.858   1.857   2.412 -1.1123  0.5539  2.7649
  687MOL0     H92738   6.845   1.838   2.573  2.3509  5.3411 -1.9661
  687MOL0     H92739   6.822   1.585   2.571 -0.5224 -2.2691 -0.6407
  687MOL0     H92740   6.876   1.591   2.397 -1.6591  0.9203 -0.4400
  687MOL0     H92741   6.677   1.547   2.364  0.2294  0.0660 -0.9134
  687MOL0     H92742   6.696   1.725   2.332  2.6719  1.6985  1.9751
  687MOL0     H92743   6.417   1.696   2.662 -1.0091  0.5578 -1.6505
  687MOL0     H92744   7.316   1.985   2.263  2.0824  0.7959  0.6024
  687MOL0     H92745   7.536   1.994   2.297  0.5933  1.5334  0.6775
  688MOL0     O92746   3.642  10.664   4.640  0.7586 -0.2267 -0.1798
  688MOL0     C92747   3.539  10.621   4.609  0.9053  1.1592  0.8465
  688MOL0     O92748   3.487  10.585   4.488 -0.8720 -0.0433 -0.5240
  688MOL0     C92749   3.566  10.580   4.370  0.6164  0.4864  0.0278
  688MOL0     C92750   3.553  10.474   4.279 -0.2888  0.6427  0.0380
  688MOL0     C92751   3.624  10.481   4.166 -0.1419  0.2272 -0.0183
  688MOL0     C92752   3.721  10.581   4.142 -0.3273  0.1292  0.4023
  688MOL0     O92753   3.797  10.554   4.026  0.6912 -0.3952 -0.0131
  688MOL0     C92754   3.877  10.660   3.955 -0.3209  0.0423 -0.0547
  688MOL0     C92755   4.016  10.654   4.005 -0.4819  0.2074  0.2449
  688MOL0     C92756   4.102  10.770   3.959 -0.5768 -0.2948  0.1109
  688MOL0     C92757   4.247  10.768   4.016  0.4755  0.0291  0.2026
  688MOL0     C92758   4.256  10.825   4.155  0.1849 -0.7715  0.7973
  688MOL0     C92759   4.407  10.838   4.197  0.1239 -0.3035 -1.3934
  688MOL0     C92760   4.498  10.716   4.166  0.0415 -0.3072  0.8535
  688MOL0     C92761   4.474  10.587   4.236  0.1351  0.0341 -0.4197
  688MOL0     N92762   4.578  10.484   4.188  1.1915  0.2602  0.4701
  688MOL0     C92763   4.638  10.475   4.067  0.4604  0.0565  1.1032
  688MOL0     C92764   4.716  10.365   4.079 -0.3209  0.7060 -0.2027
  688MOL0     C92765   4.784  10.329   3.953  0.9967 -0.7792  0.7100
  688MOL0     C92766   4.837  10.192   3.935 -0.2984 -0.2543 -0.3315
  688MOL0     C92767   4.943  10.156   4.040  0.2096  0.0627  0.2829
  688MOL0     C92768   5.000  10.009   4.024  0.2074  0.4108  0.1748
  688MOL0     O92769   5.085   9.991   3.912 -0.1066 -0.5505 -0.5673
  688MOL0     C92770   5.104   9.869   3.858  1.1212  0.7918 -0.2206
  688MOL0     C92771   5.106   9.854   3.716 -1.1601  0.5052 -0.4870
  688MOL0     C92772   5.144   9.729   3.657  0.5236  0.6702 -0.3843
  688MOL0     C92773   5.141   9.725   3.509  0.0492  0.0135 -0.9544
  688MOL0     C92774   5.164   9.615   3.745  1.3249 -0.0077  0.1803
  688MOL0     C92775   5.225   9.489   3.697  0.3968  0.0246  1.7695
  688MOL0     O92776   5.197   9.372   3.767 -0.2674 -0.9837  0.2982
  688MOL0     C92777   5.240   9.257   3.710 -0.9438 -0.5016  0.0354
  688MOL0     C92778   5.379   9.232   3.700  0.0487 -1.0379  0.9827
  688MOL0     C92779   5.432   9.112   3.633 -0.0745 -0.6240  0.4811
  688MOL0     C92780   5.345   9.012   3.598  0.0216 -0.4083 -0.7118
  688MOL0     O92781   5.396   8.897   3.551 -0.0017  0.0749 -0.2062
  688MOL0     C92782   5.345   8.774   3.605  1.1328 -0.6138 -0.2314
  688MOL0     C92783   5.461   8.668   3.598 -0.6182  0.1507  0.0131
  688MOL0     C92784   5.477   8.608   3.458  0.2877  0.9274  0.0940
  688MOL0     C92785   5.570   8.481   3.465  0.1501 -0.0549 -0.1686
  688MOL0     C92786   5.497   8.352   3.512 -0.2975  0.8582  0.3071
  688MOL0     C92787   5.576   8.217   3.468  0.0706  0.5588  0.0608
  688MOL0     C92788   5.523   8.083   3.509  0.8652  0.6666  0.5267
  688MOL0     C92789   5.601   7.963   3.458  0.9387 -0.1323 -0.1488
  688MOL0    Cl92790   5.515   7.807   3.484 -0.1215 -0.1272 -0.0140
  688MOL0     C92791   5.204   9.031   3.618 -0.1195 -0.2520  0.0869
  688MOL0     C92792   5.156   9.155   3.662 -0.3012 -1.2105  0.1203
  688MOL0     O92793   5.313   9.497   3.609 -0.8161 -0.5705  0.5872
  688MOL0     C92794   5.145   9.626   3.884  0.1680 -0.2962 -0.1678
  688MOL0     C92795   5.110   9.746   3.934  0.6987 -0.1652 -1.1451
  688MOL0     N92796   4.706  10.309   4.204 -0.9440  0.1864 -0.0350
  688MOL0     N92797   4.616  10.375   4.267 -0.1338  0.3575  0.5645
  688MOL0     C92798   3.737  10.683   4.230  1.7655  0.2371  1.3971
  688MOL0     C92799   3.659  10.682   4.349 -0.5283  0.8601  1.2172
  688MOL0     C92800   3.433  10.612   4.724 -0.1353  0.0439  0.7190
  688MOL0     C92801   3.301  10.566   4.707 -0.7062 -0.4358  0.1205
  688MOL0     C92802   3.213  10.567   4.810 -0.0330  1.0233 -0.1006
  688MOL0     C92803   3.243  10.605   4.941 -0.0836  0.8124  0.5767
  688MOL0     O92804   3.177  10.574   5.060 -0.4602 -0.8591  0.0083
  688MOL0     C92805   3.049  10.509   5.056  1.0363 -0.4900  0.0491
  688MOL0     C92806   3.059  10.365   5.097 -0.2254 -0.3020  0.3772
  688MOL0     C92807   3.090  10.346   5.245 -0.0763  0.8591 -0.4122
  688MOL0     C92808   3.002  10.234   5.311 -0.6211  0.7755  0.2803
  688MOL0     C92809   3.048  10.195   5.438  0.2483  0.5588  0.0859
  688MOL0     C92810   3.103  10.168   5.536  0.4724  0.0918 -0.3085
  688MOL0     C92811   3.367  10.667   4.954 -0.2245  0.4304  0.0859
  688MOL0     C92812   3.471  10.657   4.852  0.5199 -0.2806  0.2805
  688MOL0     H92813   3.500  10.384   4.308 -1.4739 -0.1020 -3.8772
  688MOL0     H92814   3.612  10.397   4.099 -0.0464 -1.2825  1.7657
  688MOL0     H92815   3.878  10.654   3.846 -1.0560  1.2081 -0.1439
  688MOL0     H92816   3.824  10.755   3.967 -1.6529 -0.8267  1.2555
  688MOL0     H92817   4.024  10.647   4.113  1.8222  2.7240  0.3593
  688MOL0     H92818   4.060  10.569   3.951  2.2083  2.1793 -0.9789
  688MOL0     H92819   4.118  10.762   3.851  0.7794  1.2226  0.1573
  688MOL0     H92820   4.052  10.864   3.984 -1.0544 -0.5811  0.2318
  688MOL0     H92821   4.280  10.664   4.015 -1.4070 -0.6211 -0.7313
  688MOL0     H92822   4.314  10.822   3.948  0.0956  0.5433  0.2243
  688MOL0     H92823   4.215  10.927   4.150 -2.1566 -1.5663  2.3966
  688MOL0     H92824   4.182  10.769   4.212 -4.3062 -1.1724 -4.5366
  688MOL0     H92825   4.456  10.909   4.130 -1.1219  0.2153 -1.7871
  688MOL0     H92826   4.411  10.862   4.304 -3.2812 -0.5150 -1.1082
  688MOL0     H92827   4.513  10.719   4.058  0.8464  1.3508  0.9759
  688MOL0     H92828   4.592  10.748   4.213 -1.0305  5.3294 -0.0926
  688MOL0     H92829   4.373  10.553   4.214  0.7682 -0.6966 -2.5545
  688MOL0     H92830   4.488  10.611   4.342  0.0048  0.7758 -0.5666
  688MOL0     H92831   4.630  10.543   3.983 -0.0031 -0.1741  0.9589
  688MOL0     H92832   4.716  10.335   3.867  0.6620  1.7835  1.0549
  688MOL0     H92833   4.861  10.404   3.931  1.6980 -2.0213 -1.2412
  688MOL0     H92834   4.885  10.186   3.837 -1.0492  0.7447 -0.7665
  688MOL0     H92835   4.757  10.119   3.944  0.6748 -1.4064 -0.7734
  688MOL0     H92836   4.893  10.164   4.137  0.3090 -1.9996  0.5551
  688MOL0     H92837   5.027  10.224   4.024  0.9533 -1.5946 -4.7155
  688MOL0     H92838   4.914   9.940   4.024 -0.7252  1.5400  0.1736
  688MOL0     H92839   5.057   9.976   4.111  5.1350  1.9546 -2.1570
  688MOL0     H92840   5.103   9.946   3.657  0.5625  1.5225  0.9033
  688MOL0     H92841   5.244   9.746   3.479  0.7692 -0.6227  0.9124
  688MOL0     H92842   5.117   9.624   3.472 -1.4143  0.8324 -2.3789
  688MOL0     H92843   5.067   9.792   3.465  1.7119  2.5619 -0.0635
  688MOL0     H92844   5.440   9.319   3.721 -1.9786  0.5944  0.4825
  688MOL0     H92845   5.540   9.115   3.624  0.2594 -0.5883  3.4758
  688MOL0     H92846   5.306   8.806   3.702 -2.3013  1.8972 -2.2025
  688MOL0     H92847   5.256   8.736   3.554  1.1348 -4.2926  2.1119
  688MOL0     H92848   5.558   8.712   3.625  1.3735 -2.8455 -1.6742
  688MOL0     H92849   5.444   8.582   3.663  0.9749 -0.5129 -0.3946
  688MOL0     H92850   5.525   8.668   3.380  2.0780 -2.6538 -1.8182
  688MOL0     H92851   5.390   8.575   3.402  2.2117  0.9409 -3.1735
  688MOL0     H92852   5.602   8.454   3.364  0.2215 -1.0023  0.0945
  688MOL0     H92853   5.653   8.502   3.533 -0.9391 -0.5618  1.3816
  688MOL0     H92854   5.395   8.348   3.472 -1.3707  1.3546  2.7607
  688MOL0     H92855   5.497   8.361   3.622  1.5371  0.3856  0.3728
  688MOL0     H92856   5.586   8.215   3.359 -0.5468 -0.6847  0.0100
  688MOL0     H92857   5.679   8.219   3.503  0.7998  2.9558 -1.9043
  688MOL0     H92858   5.417   8.072   3.484  0.4022  3.9923  0.5362
  688MOL0     H92859   5.528   8.093   3.618 -0.6087  1.8404  0.5246
  688MOL0     H92860   5.702   7.958   3.500  1.0722 -0.5004 -0.5096
  688MOL0     H92861   5.624   7.979   3.352 -1.1793  0.2812 -0.5802
  688MOL0     H92862   5.133   8.953   3.594 -2.1590  0.5853  2.8206
  688MOL0     H92863   5.050   9.176   3.673 -0.9838 -2.7090 -2.7285
  688MOL0     H92864   5.175   9.550   3.956 -0.6618 -1.2645 -0.8170
  688MOL0     H92865   5.108   9.742   4.042 -0.2467 -0.7824 -1.1675
  688MOL0     H92866   3.800  10.770   4.215  0.0469  1.1477 -1.4622
  688MOL0     H92867   3.673  10.764   4.418 -4.0022  2.3677  0.3425
  688MOL0     H92868   3.268  10.536   4.607  0.9666  0.9548 -0.9002
  688MOL0     H92869   3.110  10.538   4.789 -1.3611  1.3490  4.7295
  688MOL0     H92870   2.989  10.562   5.131  2.1180  4.1909 -2.0424
  688MOL0     H92871   3.001  10.518   4.959 -0.2940  1.8171  0.8540
  688MOL0     H92872   3.136  10.319   5.034 -0.6288 -1.1682  0.5009
  688MOL0     H92873   2.969  10.311   5.066  1.3374 -1.4320 -2.5673
  688MOL0     H92874   3.076  10.438   5.302 -1.6817  0.2352  0.2746
  688MOL0     H92875   3.197  10.324   5.244 -0.3761 -0.7010 -0.5744
  688MOL0     H92876   3.019  10.147   5.246  4.0277  2.7266 -1.6445
  688MOL0     H92877   2.898  10.266   5.307 -1.2648 -0.8316  2.5731
  688MOL0     H92878   3.149  10.151   5.632 -0.5187  1.8589  0.5259
  688MOL0     H92879   3.406  10.696   5.051  1.1251 -2.6615  0.5847
  688MOL0     H92880   3.569  10.700   4.869  1.6037 -1.5378 -2.2269
  689MOL0     O92881   4.372   0.177   8.426  0.3017  0.1202  0.4773
  689MOL0     C92882   4.294   0.122   8.352 -0.8378  0.9739 -0.7588
  689MOL0     O92883   4.277   0.160   8.227 -0.6287 -0.6058 -0.5673
  689MOL0     C92884   4.373   0.199   8.139 -1.3659 -0.1394 -0.8523
  689MOL0     C92885   4.517   0.184   8.149 -0.5283 -0.1094 -0.3443
  689MOL0     C92886   4.591   0.204   8.034 -0.1766 -0.3575  0.1446
  689MOL0     C92887   4.539   0.249   7.911  0.1511 -0.0894  0.2433
  689MOL0     O92888   4.633   0.275   7.814 -0.1513 -0.2628 -0.1407
  689MOL0     C92889   4.596   0.333   7.693 -0.1681  0.7488  0.3011
  689MOL0     C92890   4.724   0.333   7.600 -0.5014  0.2531  1.1257
  689MOL0     C92891   4.765   0.196   7.542 -0.3259  0.2242  0.2316
  689MOL0     C92892   4.679   0.067   7.561  0.5119 -0.0925  0.1855
  689MOL0     C92893   4.729  -0.054   7.481  0.3015 -0.1512 -0.5402
  689MOL0     C92894   4.665  -0.176   7.535  0.6890  0.0218 -0.6706
  689MOL0     C92895   4.688  -0.293   7.450  0.2016  0.9163 -0.8892
  689MOL0     C92896   4.830  -0.351   7.470  0.6821  0.0398 -0.1427
  689MOL0     N92897   4.849  -0.473   7.378  0.5171 -0.0135 -0.2766
  689MOL0     C92898   4.820  -0.605   7.412  0.2773  0.6888  0.0578
  689MOL0     C92899   4.861  -0.678   7.308 -0.5031 -0.6144  0.1586
  689MOL0     C92900   4.857  -0.821   7.296  0.6085  0.8802 -0.4403
  689MOL0     C92901   4.964  -0.881   7.205  0.4082 -0.1445 -0.7466
  689MOL0     C92902   4.959  -1.037   7.200  0.6614 -0.5520  0.2760
  689MOL0     C92903   5.092  -1.107   7.172 -0.6730 -2.0979 -0.4387
  689MOL0     O92904   5.129  -1.180   7.290 -0.1604  0.6465 -0.2388
  689MOL0     C92905   5.267  -1.199   7.331  0.5402 -0.5108  0.7469
  689MOL0     C92906   5.369  -1.114   7.309 -0.8219 -0.8529  0.2784
  689MOL0     C92907   5.503  -1.133   7.356  0.0654 -0.0472 -0.2905
  689MOL0     C92908   5.606  -1.026   7.317  0.1436  0.6791 -0.4651
  689MOL0     C92909   5.526  -1.250   7.430  0.7993 -1.0170  0.6401
  689MOL0     C92910   5.657  -1.278   7.483 -0.4161  0.3132  0.5621
  689MOL0     O92911   5.694  -1.407   7.488 -0.2207  0.3406 -0.5233
  689MOL0     C92912   5.778  -1.450   7.593  0.1697 -0.1104  0.6307
  689MOL0     C92913   5.914  -1.457   7.591 -0.4571  0.0598  0.3312
  689MOL0     C92914   5.981  -1.504   7.701 -0.4889 -0.1174 -0.8544
  689MOL0     C92915   5.910  -1.563   7.807 -0.1748  0.9081 -0.7209
  689MOL0     O92916   5.979  -1.614   7.911 -0.6970  0.8254 -0.2529
  689MOL0     C92917   6.020  -1.757   7.893 -1.0470  0.2770  0.5622
  689MOL0     C92918   6.176  -1.774   7.917 -0.4045  0.1611 -0.0903
  689MOL0     C92919   6.231  -1.698   8.034  0.1115 -1.0116  1.3095
  689MOL0     C92920   6.383  -1.697   8.031 -0.3659 -1.1096 -1.2588
  689MOL0     C92921   6.437  -1.675   8.172 -0.6564 -0.0373 -0.2906
  689MOL0     C92922   6.590  -1.674   8.172  0.4478  0.7242 -0.2449
  689MOL0     C92923   6.661  -1.544   8.171 -0.1761 -0.2311  0.3894
  689MOL0     C92924   6.633  -1.458   8.052 -0.2974 -0.5616 -0.6509
  689MOL0    Cl92925   6.689  -1.546   7.915  0.1808  0.4062  0.2341
  689MOL0     C92926   5.769  -1.573   7.797 -0.2007  0.4358 -1.6437
  689MOL0     C92927   5.705  -1.509   7.692  0.0894 -0.9686 -0.3689
  689MOL0     O92928   5.703  -1.188   7.552 -0.1896 -0.4553  0.1420
  689MOL0     C92929   5.420  -1.343   7.453  0.0683 -1.1031  0.9431
  689MOL0     C92930   5.291  -1.313   7.406  0.0295 -0.0777 -0.6989
  689MOL0     N92931   4.908  -0.592   7.216  0.9297  0.4022  0.3205
  689MOL0     N92932   4.899  -0.469   7.255 -0.2126 -0.4465  0.1787
  689MOL0     C92933   4.407   0.250   7.895 -0.4002 -0.3594  1.3378
  689MOL0     C92934   4.323   0.221   8.009  0.8459 -0.1890  0.0164
  689MOL0     C92935   4.196   0.025   8.408 -1.3681  0.2232  0.2879
  689MOL0     C92936   4.089  -0.020   8.330  0.0255  0.5838  0.6515
  689MOL0     C92937   4.003  -0.116   8.379  0.0839  0.1988 -0.0026
  689MOL0     C92938   4.019  -0.172   8.511  0.2041 -0.4547  0.8017
  689MOL0     O92939   3.937  -0.266   8.576 -0.0460  0.0052  0.0093
  689MOL0     C92940   3.804  -0.295   8.527 -1.4066 -0.6458 -0.3509
  689MOL0     C92941   3.713  -0.198   8.602  1.2615 -0.0117  0.2700
  689MOL0     C92942   3.580  -0.206   8.510  0.3042  0.8621  0.5896
  689MOL0     C92943   3.489  -0.330   8.533  0.2599 -0.0344 -0.4190
  689MOL0     C92944   3.372  -0.338   8.448  1.6172 -0.0534 -0.7503
  689MOL0     C92945   3.259  -0.335   8.415 -0.0955 -0.8318  0.8745
  689MOL0     C92946   4.130  -0.123   8.591  0.1883  0.3640  0.4930
  689MOL0     C92947   4.210  -0.021   8.545 -0.3871  0.3530  0.2013
  689MOL0     H92948   4.556   0.143   8.242 -0.3320  3.2497  1.2020
  689MOL0     H92949   4.699   0.189   8.040 -0.0862 -2.0847 -3.5815
  689MOL0     H92950   4.517   0.275   7.645  0.4798  1.4596 -1.7182
  689MOL0     H92951   4.561   0.436   7.694 -1.0411  0.4794  2.5905
  689MOL0     H92952   4.714   0.398   7.513  4.0466  0.8767  0.8570
  689MOL0     H92953   4.803   0.374   7.664 -1.0616  1.5397  1.0091
  689MOL0     H92954   4.774   0.211   7.434  0.3117  2.0375  0.4945
  689MOL0     H92955   4.870   0.172   7.560  0.2788  2.0367 -0.6254
  689MOL0     H92956   4.667   0.046   7.668 -0.2108 -2.9638 -0.3869
  689MOL0     H92957   4.576   0.075   7.525  0.8823  2.7886 -0.4690
  689MOL0     H92958   4.711  -0.039   7.374  0.0038 -0.8327 -0.5866
  689MOL0     H92959   4.837  -0.061   7.494  0.1937 -0.4707  0.2229
  689MOL0     H92960   4.684  -0.198   7.640 -1.1256  1.6445  0.0525
  689MOL0     H92961   4.558  -0.155   7.531  0.4679 -1.2269 -2.2035
  689MOL0     H92962   4.605  -0.359   7.477  2.1041 -1.7992 -1.2563
  689MOL0     H92963   4.658  -0.274   7.347 -3.1408  1.3001  0.0184
  689MOL0     H92964   4.839  -0.375   7.576  1.6375 -0.6546 -0.3743
  689MOL0     H92965   4.905  -0.275   7.445  0.4643 -0.0931 -1.2362
  689MOL0     H92966   4.782  -0.636   7.508  0.1373 -0.6453 -0.4024
  689MOL0     H92967   4.878  -0.863   7.395  0.5328  3.7921  0.9174
  689MOL0     H92968   4.754  -0.835   7.261  0.2571  3.2344 -0.5295
  689MOL0     H92969   5.059  -0.851   7.250 -0.8574  0.4006  1.7700
  689MOL0     H92970   4.956  -0.849   7.101  4.3393  3.7667 -0.1332
  689MOL0     H92971   4.887  -1.062   7.122  0.4122 -4.1538  1.4534
  689MOL0     H92972   4.926  -1.074   7.297  0.8643 -3.0654 -0.5354
  689MOL0     H92973   5.164  -1.027   7.150 -2.5512  1.5781  4.6869
  689MOL0     H92974   5.074  -1.172   7.087  1.2166 -0.6535 -2.0606
  689MOL0     H92975   5.340  -1.025   7.255 -1.3307 -1.3924 -0.3523
  689MOL0     H92976   5.703  -1.071   7.294 -1.0639 -2.4208  0.1024
  689MOL0     H92977   5.579  -0.967   7.229 -0.3821  0.7599 -0.2505
  689MOL0     H92978   5.634  -0.961   7.400  0.1188 -0.4829  0.4710
  689MOL0     H92979   5.978  -1.406   7.520 -0.7741  0.3928  0.2846
  689MOL0     H92980   6.089  -1.505   7.707 -0.4749  2.5044  1.3974
  689MOL0     H92981   5.973  -1.819   7.970 -0.2506  0.3296  1.1020
  689MOL0     H92982   6.012  -1.798   7.792 -0.1355 -1.1536  1.0346
  689MOL0     H92983   6.202  -1.877   7.943  3.1542  0.7324 -0.7620
  689MOL0     H92984   6.215  -1.739   7.820 -0.8998 -2.2655 -1.2278
  689MOL0     H92985   6.185  -1.735   8.125 -1.5934  0.2681  1.0266
  689MOL0     H92986   6.192  -1.595   8.031  3.6339  0.5249 -3.1159
  689MOL0     H92987   6.407  -1.789   7.977  1.4373 -0.1543 -2.1744
  689MOL0     H92988   6.408  -1.608   7.973  1.9819 -0.1023  1.0615
  689MOL0     H92989   6.399  -1.765   8.222  0.4402 -1.6094 -2.1479
  689MOL0     H92990   6.406  -1.583   8.221  1.4563  0.9859 -0.7497
  689MOL0     H92991   6.607  -1.720   8.270  0.0621  1.1404  0.0202
  689MOL0     H92992   6.631  -1.743   8.098 -0.8153 -0.2321 -0.0890
  689MOL0     H92993   6.765  -1.574   8.181 -0.1231 -0.4157 -0.6097
  689MOL0     H92994   6.639  -1.494   8.266 -0.0130  0.6213 -0.0140
  689MOL0     H92995   6.683  -1.361   8.059 -0.8417 -0.3190 -0.0295
  689MOL0     H92996   6.526  -1.444   8.032 -0.9849 -2.6753  1.2118
  689MOL0     H92997   5.720  -1.616   7.885  2.2718 -0.0584 -0.4349
  689MOL0     H92998   5.597  -1.498   7.701 -0.0267 -3.3732  2.7376
  689MOL0     H92999   5.456  -1.442   7.479  0.9902 -1.1805 -0.4692
  689MOL0     H93000   5.213  -1.388   7.417  1.1349 -1.2650 -0.7410
  689MOL0     H93001   4.360   0.297   7.809  3.0385 -2.1255 -1.8101
  689MOL0     H93002   4.218   0.216   7.980  1.0474 -1.4455 -0.5743
  689MOL0     H93003   4.087   0.019   8.229  1.0776 -1.5668 -0.2905
  689MOL0     H93004   3.919  -0.141   8.316 -0.4292 -1.9734  1.4511
  689MOL0     H93005   3.794  -0.291   8.419 -3.4228  0.7288 -0.1832
  689MOL0     H93006   3.795  -0.398   8.562  4.9060 -0.9859  1.5236
  689MOL0     H93007   3.745  -0.094   8.596 -0.5006  0.6895  1.9326
  689MOL0     H93008   3.700  -0.227   8.707 -1.2970  1.2365  0.3659
  689MOL0     H93009   3.611  -0.194   8.406  1.4808 -0.0976  0.8114
  689MOL0     H93010   3.516  -0.121   8.538  0.4314  1.4516 -0.8305
  689MOL0     H93011   3.470  -0.336   8.640  1.5548 -0.8422 -0.2081
  689MOL0     H93012   3.533  -0.424   8.499 -0.5843 -0.2441 -0.9637
  689MOL0     H93013   3.157  -0.336   8.382  0.3048  0.4266 -0.5186
  689MOL0     H93014   4.145  -0.117   8.699 -0.8271  1.8772  0.5912
  689MOL0     H93015   4.289   0.019   8.608 -0.3737 -1.1194  1.1506
  690MOL0     O93016   3.402   4.571   4.482  0.0854 -0.5151  0.9325
  690MOL0     C93017   3.299   4.521   4.503  0.2519 -0.4893  0.1668
  690MOL0     O93018   3.262   4.393   4.474 -0.2174  0.5156  0.0508
  690MOL0     C93019   3.360   4.297   4.459  0.1379 -0.7027  0.1504
  690MOL0     C93020   3.389   4.256   4.333  0.7389 -0.5777  0.4217
  690MOL0     C93021   3.478   4.160   4.302  0.6894  0.8021  0.2160
  690MOL0     C93022   3.553   4.096   4.406  0.5033  0.1090 -0.3685
  690MOL0     O93023   3.645   3.989   4.390 -0.3411  0.0113 -0.4694
  690MOL0     C93024   3.715   4.007   4.271 -0.7019  1.1586  1.3528
  690MOL0     C93025   3.849   3.928   4.253 -0.6835 -0.2797  0.1178
  690MOL0     C93026   3.833   3.773   4.285 -0.2984 -0.1370 -1.0426
  690MOL0     C93027   3.960   3.713   4.229 -0.2927 -0.7576 -0.0448
  690MOL0     C93028   3.970   3.565   4.233 -0.7368 -0.5379 -0.2458
  690MOL0     C93029   4.084   3.525   4.136  0.6765 -0.0300  0.5593
  690MOL0     C93030   4.131   3.382   4.147 -0.1734 -0.3323 -0.2089
  690MOL0     C93031   4.242   3.351   4.042  0.1536  0.4085 -0.6592
  690MOL0     N93032   4.364   3.421   4.085  0.2253  0.1008 -0.4773
  690MOL0     C93033   4.415   3.527   4.030  0.5011  0.2200  0.7319
  690MOL0     C93034   4.526   3.558   4.101 -0.0252 -0.6130  0.2890
  690MOL0     C93035   4.636   3.654   4.075 -0.7610  0.4203 -0.0331
  690MOL0     C93036   4.737   3.586   3.987 -0.7120 -0.1463  0.1322
  690MOL0     C93037   4.868   3.660   3.976 -0.5898  0.8507  1.0943
  690MOL0     C93038   4.974   3.589   3.885  0.3812  0.1479 -0.0269
  690MOL0     O93039   5.096   3.660   3.865  0.1461  0.3916 -0.7759
  690MOL0     C93040   5.189   3.632   3.957  0.0861  0.0229  0.0641
  690MOL0     C93041   5.304   3.552   3.918  0.4040  0.5765  0.5511
  690MOL0     C93042   5.409   3.516   4.002 -0.0450 -0.3137  0.9482
  690MOL0     C93043   5.516   3.432   3.937  0.2806  0.0282 -0.4286
  690MOL0     C93044   5.413   3.564   4.130 -0.6559 -0.6764  0.4855
  690MOL0     C93045   5.525   3.555   4.223  0.3825 -0.8133 -0.1567
  690MOL0     O93046   5.575   3.670   4.289  0.9272 -0.6822 -0.8517
  690MOL0     C93047   5.677   3.661   4.380 -0.4469  0.4176 -0.1414
  690MOL0     C93048   5.806   3.613   4.349  0.0239 -0.8990  0.6049
  690MOL0     C93049   5.908   3.612   4.443  1.0828  0.6788 -0.0724
  690MOL0     C93050   5.889   3.676   4.566  0.5611  0.2713 -0.2818
  690MOL0     O93051   5.990   3.702   4.655  0.0313 -0.8340  0.7153
  690MOL0     C93052   6.120   3.740   4.609  0.4695  0.4238 -0.2232
  690MOL0     C93053   6.217   3.751   4.731 -0.5310 -0.1169 -0.3657
  690MOL0     C93054   6.232   3.616   4.803 -0.1710 -1.1049  0.8698
  690MOL0     C93055   6.324   3.610   4.919  0.5069 -0.0144  0.9524
  690MOL0     C93056   6.473   3.610   4.885  0.0326  1.1556  0.9464
  690MOL0     C93057   6.548   3.654   5.016 -0.0515  0.0479 -0.3808
  690MOL0     C93058   6.551   3.538   5.113 -0.2214 -0.5184  0.0641
  690MOL0     C93059   6.675   3.444   5.091  0.6102 -0.5543  0.8187
  690MOL0    Cl93060   6.831   3.537   5.125 -0.2523 -0.1766  0.2516
  690MOL0     C93061   5.759   3.732   4.594  0.0001 -0.7741  0.2303
  690MOL0     C93062   5.659   3.718   4.505 -0.1457 -0.0262  0.4093
  690MOL0     O93063   5.578   3.444   4.240  0.2312 -0.0575 -0.1323
  690MOL0     C93064   5.308   3.648   4.171 -0.0036 -0.9103  0.5088
  690MOL0     C93065   5.190   3.676   4.092  0.0284  0.4992  0.4077
  690MOL0     N93066   4.529   3.469   4.206 -0.6636 -0.6057  0.0933
  690MOL0     N93067   4.426   3.396   4.198 -0.0163  0.1194  0.1490
  690MOL0     C93068   3.533   4.156   4.534  0.2488 -0.0922  0.1483
  690MOL0     C93069   3.444   4.262   4.557  0.5988  0.3989 -0.9442
  690MOL0     C93070   3.191   4.598   4.584  0.2146  0.5622  0.6698
  690MOL0     C93071   3.077   4.525   4.632 -0.0872 -1.4615 -0.1745
  690MOL0     C93072   2.987   4.594   4.699  0.8116 -0.3871 -0.6494
  690MOL0     C93073   3.003   4.728   4.737  0.1755 -0.9699  0.5662
  690MOL0     O93074   2.917   4.790   4.830  0.3783 -0.2945  0.6194
  690MOL0     C93075   2.778   4.796   4.795 -0.5886  0.1342 -0.8053
  690MOL0     C93076   2.695   4.799   4.921  0.1031 -0.2714 -0.5089
  690MOL0     C93077   2.707   4.927   4.999 -0.3282 -0.1904 -0.2356
  690MOL0     C93078   2.662   5.054   4.926  0.0383 -0.3692  0.0198
  690MOL0     C93079   2.529   5.048   4.863 -1.9926  0.0479 -0.1757
  690MOL0     C93080   2.427   5.039   4.803 -0.7503 -0.6571 -0.4745
  690MOL0     C93081   3.118   4.801   4.695 -0.3105  0.9130 -0.1051
  690MOL0     C93082   3.209   4.734   4.611 -0.1075  0.6464 -0.9824
  690MOL0     H93083   3.329   4.297   4.252  1.2262 -0.6068  0.0397
  690MOL0     H93084   3.490   4.134   4.198  3.4942  1.9193  0.1523
  690MOL0     H93085   3.656   3.967   4.188  2.3303  0.2124 -0.5061
  690MOL0     H93086   3.742   4.112   4.259  3.0341  0.2613  0.3970
  690MOL0     H93087   3.876   3.935   4.147 -0.5743  0.8455  0.2034
  690MOL0     H93088   3.935   3.972   4.305  0.7011 -2.7002  0.0398
  690MOL0     H93089   3.817   3.750   4.391  1.2692 -0.0161 -0.7536
  690MOL0     H93090   3.747   3.729   4.235 -1.0189  0.2654 -0.1944
  690MOL0     H93091   3.964   3.741   4.123 -4.6718  1.0179  0.0107
  690MOL0     H93092   4.043   3.767   4.274  1.0903 -1.2605 -1.8907
  690MOL0     H93093   3.985   3.540   4.339 -2.0936  2.4711  0.7922
  690MOL0     H93094   3.874   3.525   4.198 -1.5398  0.4353  0.7479
  690MOL0     H93095   4.047   3.539   4.034  0.2100  1.4771  0.9166
  690MOL0     H93096   4.155   3.607   4.154 -0.6289  0.7500  2.5190
  690MOL0     H93097   4.169   3.365   4.248  4.4803  3.1251 -1.0303
  690MOL0     H93098   4.048   3.311   4.135  1.2507 -2.0994 -0.0537
  690MOL0     H93099   4.195   3.387   3.950 -2.8073  0.9729  0.9480
  690MOL0     H93100   4.255   3.244   4.024 -1.6303  0.2800 -1.3338
  690MOL0     H93101   4.380   3.573   3.938 -0.4091 -2.6354 -0.4325
  690MOL0     H93102   4.596   3.740   4.020 -2.1109  2.4816  3.7755
  690MOL0     H93103   4.680   3.688   4.169 -0.7385 -0.7531  0.3938
  690MOL0     H93104   4.699   3.579   3.884  1.8911  1.6516 -1.0670
  690MOL0     H93105   4.764   3.490   4.033  0.9363  0.8179  1.2610
  690MOL0     H93106   4.907   3.671   4.078 -2.4883 -1.9164  2.2007
  690MOL0     H93107   4.846   3.760   3.937  2.8251  1.2740 -0.1484
  690MOL0     H93108   4.937   3.578   3.783  3.7712 -0.1425 -1.3877
  690MOL0     H93109   5.004   3.492   3.926 -1.5538 -0.1932  0.6900
  690MOL0     H93110   5.293   3.523   3.814 -0.0384  0.5178  0.6125
  690MOL0     H93111   5.541   3.341   3.993 -1.2015 -0.1892 -0.0786
  690MOL0     H93112   5.473   3.392   3.845 -3.3312  2.0871  0.1773
  690MOL0     H93113   5.606   3.493   3.930  0.8831 -0.6097  1.2490
  690MOL0     H93114   5.820   3.567   4.251 -0.1018 -1.2964  0.7685
  690MOL0     H93115   6.008   3.577   4.415  0.9360  0.2855 -0.1199
  690MOL0     H93116   6.165   3.656   4.555 -2.4082  0.9227 -3.7092
  690MOL0     H93117   6.121   3.826   4.541 -0.2382 -0.0587 -0.8604
  690MOL0     H93118   6.313   3.784   4.689 -1.3952  2.2731 -0.6512
  690MOL0     H93119   6.174   3.820   4.804 -0.6088 -1.4550  0.8878
  690MOL0     H93120   6.270   3.553   4.721 -3.6703 -1.5510 -0.6051
  690MOL0     H93121   6.137   3.568   4.830  0.0851 -2.0296  0.1917
  690MOL0     H93122   6.311   3.694   4.988  2.5666  1.4586 -0.3370
  690MOL0     H93123   6.298   3.514   4.963  1.1406 -0.4033  0.4950
  690MOL0     H93124   6.488   3.682   4.804  2.2570  0.1092  0.3453
  690MOL0     H93125   6.507   3.515   4.844  0.5180  2.2031 -1.2327
  690MOL0     H93126   6.647   3.694   4.990 -1.0161  1.9760 -1.2806
  690MOL0     H93127   6.498   3.743   5.056  3.4146  3.2479 -2.4836
  690MOL0     H93128   6.465   3.473   5.097  2.1147 -3.3612 -1.9686
  690MOL0     H93129   6.546   3.570   5.218  0.6050 -2.2461  0.6697
  690MOL0     H93130   6.668   3.396   4.993 -1.3890 -2.7042  1.9215
  690MOL0     H93131   6.673   3.363   5.164 -1.9803 -0.8469  0.5255
  690MOL0     H93132   5.731   3.779   4.687  1.7504  3.2597 -1.0578
  690MOL0     H93133   5.568   3.739   4.560  1.6187 -1.2138  4.1138
  690MOL0     H93134   5.316   3.707   4.262 -3.4687 -0.1550  0.4829
  690MOL0     H93135   5.114   3.753   4.107 -1.3893 -1.1219  2.0225
  690MOL0     H93136   3.588   4.117   4.619 -1.2962  1.3551  1.8685
  690MOL0     H93137   3.423   4.257   4.663  1.6949 -2.6042 -0.7740
  690MOL0     H93138   3.045   4.423   4.614 -1.4231 -1.1961  0.5792
  690MOL0     H93139   2.904   4.531   4.729  0.5196  0.1341 -0.3318
  690MOL0     H93140   2.752   4.879   4.728  0.7506 -1.4042 -3.3698
  690MOL0     H93141   2.739   4.709   4.743 -1.2341  0.3689 -0.7259
  690MOL0     H93142   2.733   4.711   4.974  0.2875 -0.6886 -1.3168
  690MOL0     H93143   2.589   4.783   4.900  0.8616 -2.2450 -3.4782
  690MOL0     H93144   2.807   4.933   5.043 -1.1427 -3.1469  2.3796
  690MOL0     H93145   2.654   4.921   5.094  2.6037 -0.5948  1.5186
  690MOL0     H93146   2.744   5.091   4.865  1.4126  1.2298  2.6514
  690MOL0     H93147   2.656   5.139   4.995  0.6908  1.4274 -2.0412
  690MOL0     H93148   2.326   5.041   4.767 -0.0133 -2.4368 -2.8763
  690MOL0     H93149   3.123   4.908   4.714 -3.7600  1.0396  0.8294
  690MOL0     H93150   3.294   4.785   4.567 -0.6164  2.6778  0.2168
  691MOL0     O93151   5.276   0.430   8.104  0.4425  0.6148  0.2370
  691MOL0     C93152   5.384   0.385   8.098 -1.2225  0.1882  0.2822
  691MOL0     O93153   5.427   0.254   8.112  0.3603 -0.3272  0.1340
  691MOL0     C93154   5.342   0.154   8.140 -0.1360  0.4179 -0.6261
  691MOL0     C93155   5.385   0.028   8.092 -0.0079 -0.4432 -0.8593
  691MOL0     C93156   5.306  -0.087   8.103  0.4588  1.0831 -0.4996
  691MOL0     C93157   5.179  -0.079   8.170 -1.2070 -0.6162  0.7103
  691MOL0     O93158   5.096  -0.187   8.194 -1.0994  0.0892  0.6886
  691MOL0     C93159   5.144  -0.328   8.195  0.3373 -0.2541 -0.3847
  691MOL0     C93160   5.026  -0.419   8.207  0.7238 -0.3844  0.2809
  691MOL0     C93161   5.057  -0.571   8.220  1.4297 -0.0830  0.8798
  691MOL0     C93162   5.117  -0.603   8.345  0.7750  0.0232  0.0751
  691MOL0     C93163   5.183  -0.741   8.361  0.5218  0.3019  0.4207
  691MOL0     C93164   5.217  -0.773   8.499 -0.1148  0.4558  0.2783
  691MOL0     C93165   5.277  -0.916   8.527 -0.6736  0.2154  0.2067
  691MOL0     C93166   5.297  -0.931   8.678  0.1858 -0.0350  0.9003
  691MOL0     N93167   5.360  -1.056   8.706  0.0608  0.1433  0.0339
  691MOL0     C93168   5.319  -1.181   8.669  0.2155  0.4989  0.1364
  691MOL0     C93169   5.405  -1.266   8.729 -0.7881  0.9623  0.1112
  691MOL0     C93170   5.436  -1.407   8.691  0.0725 -0.3254  0.1870
  691MOL0     C93171   5.458  -1.490   8.812  0.3096 -0.1874 -0.0340
  691MOL0     C93172   5.323  -1.548   8.859 -0.1346 -0.2622  0.8194
  691MOL0     C93173   5.256  -1.641   8.757 -0.2867  0.7616  0.1817
  691MOL0     O93174   5.147  -1.589   8.677  0.6937  0.3808 -0.4666
  691MOL0     C93175   5.066  -1.680   8.614  0.1081  0.0964  0.0847
  691MOL0     C93176   5.098  -1.802   8.579  0.1366  0.4549  0.6643
  691MOL0     C93177   4.993  -1.885   8.527  0.4831 -0.6956  0.2368
  691MOL0     C93178   5.032  -2.030   8.505  0.4095 -0.7295 -0.3145
  691MOL0     C93179   4.855  -1.838   8.519  0.2374 -0.2540  0.2911
  691MOL0     C93180   4.731  -1.918   8.478 -0.6221  0.0084 -1.0455
  691MOL0     O93181   4.640  -1.850   8.404 -0.4021 -0.4140  0.2116
  691MOL0     C93182   4.509  -1.899   8.408  0.2787  0.4676 -0.6747
  691MOL0     C93183   4.436  -1.949   8.300 -0.2171  0.3783  0.2845
  691MOL0     C93184   4.308  -1.997   8.313  0.6526  0.3038  0.3848
  691MOL0     C93185   4.227  -1.966   8.432 -0.1106  0.7735  0.1365
  691MOL0     O93186   4.087  -1.998   8.436  0.6307  0.5099  0.2444
  691MOL0     C93187   4.008  -1.981   8.559  0.9630  0.2423 -0.1491
  691MOL0     C93188   3.854  -1.997   8.537  0.0628 -0.0735 -0.8924
  691MOL0     C93189   3.779  -1.975   8.661  0.0551  0.4693 -0.4261
  691MOL0     C93190   3.729  -1.833   8.682  0.3879 -0.4047  0.2714
  691MOL0     C93191   3.665  -1.828   8.827  0.3166  0.1633  0.1247
  691MOL0     C93192   3.578  -1.707   8.862 -1.0135  0.1779  0.1838
  691MOL0     C93193   3.658  -1.578   8.843 -0.1963  0.1629  0.1043
  691MOL0     C93194   3.608  -1.489   8.726  0.5086  0.0386  0.4961
  691MOL0    Cl93195   3.445  -1.450   8.751 -0.1125 -0.0955 -0.1339
  691MOL0     C93196   4.296  -1.902   8.546  0.2084 -1.0797  0.7076
  691MOL0     C93197   4.436  -1.877   8.535 -0.3184 -0.0149  0.8659
  691MOL0     O93198   4.726  -2.038   8.497  0.5553 -0.2123  0.4689
  691MOL0     C93199   4.833  -1.703   8.548 -1.4595  0.3299  0.4113
  691MOL0     C93200   4.943  -1.623   8.590 -0.0534  0.0559 -0.6009
  691MOL0     N93201   5.487  -1.194   8.813  0.4111  0.1350 -0.0865
  691MOL0     N93202   5.465  -1.073   8.792  0.2675 -1.0936  0.5738
  691MOL0     C93203   5.140   0.047   8.219 -0.5052 -0.3235 -0.7103
  691MOL0     C93204   5.219   0.162   8.213 -1.0279  0.5993 -0.3406
  691MOL0     C93205   5.488   0.491   8.075  0.6625 -0.3843  0.7016
  691MOL0     C93206   5.442   0.621   8.055  0.1934 -0.1049 -0.4539
  691MOL0     C93207   5.531   0.724   8.050 -0.2267  0.3784  1.0463
  691MOL0     C93208   5.671   0.699   8.059  0.2057 -0.1139  0.9420
  691MOL0     O93209   5.746   0.810   8.060  0.0595  0.2281 -0.7489
  691MOL0     C93210   5.890   0.796   8.060 -0.1288  0.3421 -0.0463
  691MOL0     C93211   5.964   0.744   8.177 -0.9442  0.7334 -0.6992
  691MOL0     C93212   6.044   0.846   8.254 -0.8419 -0.5904  0.7608
  691MOL0     C93213   6.087   0.802   8.389  0.3369  0.6702 -0.8068
  691MOL0     C93214   6.113   0.663   8.394 -1.6506  0.5824 -0.2953
  691MOL0     C93215   6.137   0.541   8.382 -0.1376 -0.0659 -0.0830
  691MOL0     C93216   5.712   0.566   8.067  0.1413 -0.6283 -1.0373
  691MOL0     C93217   5.626   0.462   8.080  0.5985  0.5112 -0.8742
  691MOL0     H93218   5.479   0.038   8.039 -0.3627  0.0162 -1.4186
  691MOL0     H93219   5.340  -0.184   8.071 -0.7427  1.0406 -1.7111
  691MOL0     H93220   5.204  -0.359   8.109  2.6406  0.0596  1.0398
  691MOL0     H93221   5.210  -0.349   8.279  1.8479 -0.7924 -1.6688
  691MOL0     H93222   4.951  -0.386   8.279 -0.4014  0.5253 -1.2547
  691MOL0     H93223   4.961  -0.416   8.119  0.2782 -1.1269  0.5662
  691MOL0     H93224   4.964  -0.628   8.207  0.5381  1.6613 -1.0513
  691MOL0     H93225   5.119  -0.607   8.138  0.4607  0.5867 -0.1909
  691MOL0     H93226   5.192  -0.528   8.372  1.2170 -0.9744  1.7367
  691MOL0     H93227   5.038  -0.586   8.418  0.9415  1.4719 -0.0452
  691MOL0     H93228   5.113  -0.817   8.328  1.2902 -1.5085  2.6859
  691MOL0     H93229   5.268  -0.754   8.294 -0.7494 -3.5149 -0.6547
  691MOL0     H93230   5.301  -0.706   8.521 -0.2386  1.5400 -2.1912
  691MOL0     H93231   5.132  -0.758   8.566 -1.6523  6.2707 -2.3462
  691MOL0     H93232   5.212  -0.993   8.483  1.2405 -1.5809  0.3633
  691MOL0     H93233   5.383  -0.926   8.502 -0.6145  0.5146  0.3279
  691MOL0     H93234   5.204  -0.929   8.736 -1.2876 -2.2478 -1.1713
  691MOL0     H93235   5.368  -0.853   8.706  0.3609  0.6658 -1.3340
  691MOL0     H93236   5.244  -1.206   8.594 -0.2074 -0.1945  0.7851
  691MOL0     H93237   5.354  -1.450   8.632  0.1877 -1.4379  0.8118
  691MOL0     H93238   5.526  -1.402   8.629 -0.9559  0.7513 -1.2862
  691MOL0     H93239   5.483  -1.426   8.897  0.6331 -2.2889  1.5193
  691MOL0     H93240   5.534  -1.567   8.797  1.9431  1.2021  0.7437
  691MOL0     H93241   5.256  -1.462   8.867  0.7921  0.7751 -1.4319
  691MOL0     H93242   5.326  -1.599   8.955 -1.2275 -2.0301 -0.0373
  691MOL0     H93243   5.222  -1.726   8.817  3.5859 -0.6017  0.7058
  691MOL0     H93244   5.332  -1.679   8.688 -1.9783  0.3394 -1.5459
  691MOL0     H93245   5.193  -1.849   8.602 -1.0909 -2.4618  0.2434
  691MOL0     H93246   5.064  -2.049   8.402  0.9746 -2.0919  0.0785
  691MOL0     H93247   5.103  -2.063   8.582 -1.1673  2.8190  2.9784
  691MOL0     H93248   4.947  -2.092   8.534  0.1518  0.7707  2.4512
  691MOL0     H93249   4.482  -1.953   8.201  1.1366 -0.0706  0.9109
  691MOL0     H93250   4.250  -2.046   8.235  2.6307  1.0973 -1.7292
  691MOL0     H93251   4.044  -2.057   8.628 -0.4041 -1.1938 -0.9324
  691MOL0     H93252   4.016  -1.874   8.582 -0.7895  0.7516 -1.6694
  691MOL0     H93253   3.826  -1.924   8.461 -3.1694  0.1383  0.3373
  691MOL0     H93254   3.820  -2.091   8.493 -0.9049 -0.9686  1.5942
  691MOL0     H93255   3.843  -2.004   8.744 -0.2030 -0.3449 -0.5081
  691MOL0     H93256   3.696  -2.047   8.661 -3.5390  4.0645  2.6398
  691MOL0     H93257   3.809  -1.759   8.675  0.5313 -0.2855  2.4638
  691MOL0     H93258   3.653  -1.821   8.604 -2.5598 -2.8730  2.4807
  691MOL0     H93259   3.747  -1.832   8.899 -1.3305 -2.4845  2.0495
  691MOL0     H93260   3.613  -1.922   8.850 -0.5234 -0.8986 -4.9610
  691MOL0     H93261   3.495  -1.702   8.791  0.6538  1.6914 -1.7775
  691MOL0     H93262   3.527  -1.698   8.959 -5.1649  2.7338 -1.9501
  691MOL0     H93263   3.763  -1.602   8.827 -0.8245 -2.9786 -0.0089
  691MOL0     H93264   3.657  -1.515   8.932 -1.1781  4.2572 -2.5162
  691MOL0     H93265   3.628  -1.542   8.632 -0.3691  0.3858  0.0991
  691MOL0     H93266   3.662  -1.394   8.728 -0.1193  0.3888  1.1265
  691MOL0     H93267   4.251  -1.895   8.644 -2.0704 -0.7974 -0.2851
  691MOL0     H93268   4.498  -1.838   8.615 -0.5584 -1.2734  1.7067
  691MOL0     H93269   4.737  -1.655   8.536 -0.7059  1.4031 -1.8469
  691MOL0     H93270   4.925  -1.524   8.630  2.5896 -0.7939  3.2410
  691MOL0     H93271   5.042   0.059   8.263 -0.5520 -1.3479 -0.5149
  691MOL0     H93272   5.190   0.257   8.256 -0.3176 -0.0794  1.7544
  691MOL0     H93273   5.337   0.647   8.048  0.4446  1.1569  0.2619
  691MOL0     H93274   5.497   0.826   8.032  0.7151  0.3010 -1.5295
  691MOL0     H93275   5.909   0.724   7.980 -4.0812 -2.1651  1.0130
  691MOL0     H93276   5.927   0.896   8.036  0.3418  0.4979  1.2338
  691MOL0     H93277   6.036   0.674   8.133 -1.1546 -0.0979  0.2549
  691MOL0     H93278   5.898   0.686   8.242  0.8829 -2.1430 -1.2195
  691MOL0     H93279   5.982   0.936   8.260  0.0891  0.0779  0.5959
  691MOL0     H93280   6.134   0.864   8.194 -0.3948 -4.8032 -0.1354
  691MOL0     H93281   5.998   0.826   8.448  1.6285  1.2070  1.0046
  691MOL0     H93282   6.170   0.862   8.426  1.3650  0.1035 -2.1005
  691MOL0     H93283   6.150   0.439   8.354 -1.3083 -0.5934  1.1632
  691MOL0     H93284   5.819   0.543   8.066 -0.0340 -1.6769  0.3620
  691MOL0     H93285   5.665   0.363   8.101  0.3481  0.5485 -0.1964
  692MOL0     O93286   0.773   6.318   5.128 -0.0101 -0.3674 -0.0112
  692MOL0     C93287   0.683   6.347   5.205 -0.6458  0.0545 -0.1338
  692MOL0     O93288   0.556   6.374   5.166  0.5803  0.8203  1.0107
  692MOL0     C93289   0.518   6.423   5.036 -0.1875 -0.3581 -0.5915
  692MOL0     C93290   0.596   6.441   4.922  0.3087  1.0275 -0.2505
  692MOL0     C93291   0.540   6.500   4.806  0.2974 -0.2622 -0.4717
  692MOL0     C93292   0.412   6.544   4.793  0.1263  0.3283 -0.2301
  692MOL0     O93293   0.361   6.601   4.678  0.2908 -0.2403 -0.0953
  692MOL0     C93294   0.396   6.548   4.543 -0.9983 -0.1451  0.5266
  692MOL0     C93295   0.329   6.625   4.435  0.3274 -0.7739  1.0044
  692MOL0     C93296   0.416   6.751   4.389  0.1541 -0.4183  0.3565
  692MOL0     C93297   0.393   6.865   4.498 -0.6555  0.1096 -0.2137
  692MOL0     C93298   0.501   6.980   4.516 -0.1895 -0.6457  1.0401
  692MOL0     C93299   0.605   6.921   4.614  0.0677 -0.6636 -0.3845
  692MOL0     C93300   0.729   7.008   4.635  0.4509  0.2472 -1.1988
  692MOL0     C93301   0.815   7.028   4.509 -0.3307  0.6168  0.3607
  692MOL0     N93302   0.950   7.031   4.543  0.1971  0.4719 -0.9073
  692MOL0     C93303   1.019   6.934   4.609  0.9307  0.2448  0.5676
  692MOL0     C93304   1.135   6.995   4.651  0.8506  0.6668  0.5728
  692MOL0     C93305   1.243   6.943   4.740 -0.2097 -1.4004 -0.5603
  692MOL0     C93306   1.352   6.869   4.653  0.1165  0.4493  0.0030
  692MOL0     C93307   1.465   6.830   4.751  0.4650  0.6246  0.9810
  692MOL0     C93308   1.562   6.756   4.672 -0.0874 -0.1501  0.1467
  692MOL0     O93309   1.664   6.711   4.764  0.6206 -0.0057  0.2827
  692MOL0     C93310   1.672   6.570   4.786 -0.2002 -0.0040 -0.1698
  692MOL0     C93311   1.772   6.526   4.883  0.5426 -0.1038  0.6837
  692MOL0     C93312   1.801   6.388   4.904 -0.0197 -0.2828 -0.7512
  692MOL0     C93313   1.898   6.360   5.000 -0.8590 -0.1173  0.9707
  692MOL0     C93314   1.725   6.291   4.836 -0.0008 -0.2667 -0.1777
  692MOL0     C93315   1.732   6.139   4.865 -0.0283  0.1076  1.9319
  692MOL0     O93316   1.823   6.070   4.934 -0.0560 -0.0799  0.1690
  692MOL0     C93317   1.792   5.930   4.954  0.3009 -0.0421  0.2812
  692MOL0     C93318   1.841   5.823   4.873 -0.2136 -0.4300 -0.2130
  692MOL0     C93319   1.803   5.695   4.911  0.2988  0.7549 -0.2746
  692MOL0     C93320   1.703   5.659   5.002 -0.3156  0.3359 -0.3474
  692MOL0     O93321   1.682   5.524   5.029  0.0101 -0.0004  0.3428
  692MOL0     C93322   1.543   5.476   5.033 -0.0497 -0.5202  1.4905
  692MOL0     C93323   1.537   5.341   4.982  0.0825  0.5011  0.2157
  692MOL0     C93324   1.548   5.247   5.106 -0.9710  0.5359 -0.5616
  692MOL0     C93325   1.572   5.100   5.071  0.1602  0.2403 -0.1025
  692MOL0     C93326   1.519   5.016   5.194 -0.0087 -0.2219  0.0697
  692MOL0     C93327   1.565   4.876   5.188  0.5139  0.1258 -0.0929
  692MOL0     C93328   1.508   4.786   5.302 -0.5270 -0.6527 -0.1047
  692MOL0     C93329   1.613   4.680   5.352  0.6890  0.9014  0.0201
  692MOL0    Cl93330   1.667   4.579   5.214  0.2521  0.1771  0.1501
  692MOL0     C93331   1.658   5.760   5.080  0.5422 -0.4683 -0.0371
  692MOL0     C93332   1.705   5.895   5.061  0.1246 -0.5032  0.6800
  692MOL0     O93333   1.627   6.084   4.820  0.6719 -0.1452 -0.7405
  692MOL0     C93334   1.631   6.331   4.738  0.1548 -0.0553 -0.3820
  692MOL0     C93335   1.602   6.468   4.714  0.3441 -0.2623 -0.2634
  692MOL0     N93336   1.127   7.121   4.598  0.2221 -0.8709  0.4274
  692MOL0     N93337   1.024   7.144   4.527 -0.8349  0.2087 -0.6007
  692MOL0     C93338   0.331   6.527   4.911 -1.1011  0.1551  0.5246
  692MOL0     C93339   0.386   6.464   5.025  0.5061 -0.5836 -0.2668
  692MOL0     C93340   0.711   6.332   5.360  0.3022 -0.1378  0.3483
  692MOL0     C93341   0.809   6.243   5.412  0.2199  0.8966 -0.2349
  692MOL0     C93342   0.824   6.236   5.549 -0.3124 -0.0789 -0.5713
  692MOL0     C93343   0.751   6.314   5.638  0.2317 -0.5648 -0.3239
  692MOL0     O93344   0.752   6.302   5.773 -0.7360 -0.0328 -0.5866
  692MOL0     C93345   0.800   6.180   5.838 -0.3386 -0.5393  0.1399
  692MOL0     C93346   0.683   6.127   5.931 -0.2363 -0.4521 -0.3125
  692MOL0     C93347   0.539   6.135   5.885  0.0380 -0.7846 -0.5138
  692MOL0     C93348   0.453   6.045   5.991 -0.3959 -0.6654  0.9598
  692MOL0     C93349   0.312   6.020   5.950  0.3747  0.3039 -1.0968
  692MOL0     C93350   0.200   6.016   5.928 -0.0300  0.7875  0.4333
  692MOL0     C93351   0.659   6.411   5.583 -0.5504  0.3559  0.7616
  692MOL0     C93352   0.643   6.419   5.444 -1.4438  0.0109  0.5290
  692MOL0     H93353   0.700   6.410   4.922 -0.4279 -2.7637  4.7440
  692MOL0     H93354   0.601   6.518   4.718  4.3733  2.6396  2.5548
  692MOL0     H93355   0.504   6.544   4.528 -0.8062  1.2858  1.2728
  692MOL0     H93356   0.356   6.447   4.548  1.1644 -0.9969  3.1513
  692MOL0     H93357   0.325   6.560   4.347  0.3851 -0.7490  0.9834
  692MOL0     H93358   0.231   6.652   4.475  0.5791  0.1736  0.9905
  692MOL0     H93359   0.522   6.725   4.385  0.2584 -0.0044  0.3635
  692MOL0     H93360   0.377   6.793   4.296 -1.5863 -0.2269  1.1335
  692MOL0     H93361   0.298   6.918   4.482 -1.4479 -1.3186 -0.3798
  692MOL0     H93362   0.384   6.812   4.593  3.4362 -1.3376 -0.4614
  692MOL0     H93363   0.557   7.002   4.424 -0.0097 -2.6727  0.6145
  692MOL0     H93364   0.455   7.071   4.555 -0.9150 -1.5428  2.3539
  692MOL0     H93365   0.558   6.913   4.712  2.2641 -2.4891  0.6219
  692MOL0     H93366   0.635   6.825   4.573  2.4769  1.1215 -3.1644
  692MOL0     H93367   0.698   7.103   4.680 -0.4253 -0.4026 -0.3723
  692MOL0     H93368   0.784   6.956   4.714 -4.2345 -1.5648  1.3232
  692MOL0     H93369   0.772   7.114   4.457 -1.2682 -1.9944 -3.6145
  692MOL0     H93370   0.798   6.942   4.445 -0.0793 -1.0778  2.4416
  692MOL0     H93371   0.976   6.834   4.615 -4.0805  2.0490 -0.3322
  692MOL0     H93372   1.298   7.021   4.793  0.4413 -2.5553  0.5279
  692MOL0     H93373   1.201   6.882   4.820 -0.9735 -0.2668 -0.0731
  692MOL0     H93374   1.384   6.933   4.570  1.3665 -0.4640 -0.2434
  692MOL0     H93375   1.288   6.788   4.620  0.8885  0.3848 -1.4263
  692MOL0     H93376   1.422   6.761   4.824 -2.0535  0.5001 -0.5072
  692MOL0     H93377   1.514   6.914   4.802 -1.8391  3.3604 -1.0090
  692MOL0     H93378   1.614   6.833   4.614  0.9096  1.2211  2.6938
  692MOL0     H93379   1.514   6.691   4.598 -0.6890  2.4344 -1.8980
  692MOL0     H93380   1.813   6.607   4.943 -2.4249 -0.3507  3.3821
  692MOL0     H93381   1.848   6.313   5.086 -0.9915 -1.0053  0.4182
  692MOL0     H93382   1.963   6.278   4.967 -2.7622 -1.7297  1.0958
  692MOL0     H93383   1.958   6.443   5.040 -0.0471 -1.9083  3.7618
  692MOL0     H93384   1.910   5.842   4.791 -1.9136  0.6894 -1.4471
  692MOL0     H93385   1.830   5.614   4.844  1.3176  1.5375 -0.8411
  692MOL0     H93386   1.521   5.483   5.140  1.2770 -1.7567  1.8838
  692MOL0     H93387   1.481   5.539   4.969  0.3669 -2.4837 -1.0381
  692MOL0     H93388   1.439   5.322   4.937 -0.6619  2.8747  0.7093
  692MOL0     H93389   1.614   5.315   4.908 -1.0681  1.0572 -1.2319
  692MOL0     H93390   1.451   5.248   5.156 -0.8973  1.0353 -0.4237
  692MOL0     H93391   1.625   5.284   5.175 -1.5394 -2.1503  1.6601
  692MOL0     H93392   1.515   5.073   4.981 -2.2241 -0.1968  1.4407
  692MOL0     H93393   1.677   5.071   5.061 -0.1728 -2.5458  2.9341
  692MOL0     H93394   1.410   5.019   5.209 -0.0087 -3.7692  1.5209
  692MOL0     H93395   1.555   5.058   5.288 -3.4638  0.3478  1.2991
  692MOL0     H93396   1.531   4.827   5.096  0.4505 -1.1911  0.6115
  692MOL0     H93397   1.674   4.867   5.180  0.2860 -1.2853 -5.2823
  692MOL0     H93398   1.415   4.738   5.273 -0.6278  0.0342 -0.9874
  692MOL0     H93399   1.487   4.853   5.385  0.0713 -0.4524 -0.1072
  692MOL0     H93400   1.572   4.618   5.432 -1.1047  1.3562 -0.4861
  692MOL0     H93401   1.698   4.724   5.404 -1.2251  0.0679  4.3469
  692MOL0     H93402   1.587   5.732   5.158  2.2781 -2.5513  0.8970
  692MOL0     H93403   1.658   5.972   5.121 -1.8693 -2.3367  1.6308
  692MOL0     H93404   1.569   6.267   4.676  3.2538 -3.2738 -0.4621
  692MOL0     H93405   1.521   6.500   4.648  0.0242 -1.1093 -0.2902
  692MOL0     H93406   0.226   6.554   4.909 -1.4415 -1.0688 -1.6832
  692MOL0     H93407   0.318   6.449   5.108  2.1256 -2.5259  0.7920
  692MOL0     H93408   0.876   6.177   5.358  0.6616 -0.2635  1.6483
  692MOL0     H93409   0.895   6.168   5.593  1.4077  0.6529 -2.0803
  692MOL0     H93410   0.819   6.102   5.764 -1.5259 -1.7450  1.0626
  692MOL0     H93411   0.894   6.204   5.889 -0.3961 -2.2138  1.0983
  692MOL0     H93412   0.697   6.198   6.014 -0.0318 -1.0408  0.1604
  692MOL0     H93413   0.706   6.028   5.971  1.1427  0.1901  0.5759
  692MOL0     H93414   0.512   6.102   5.784 -1.3695  1.9931 -1.1666
  692MOL0     H93415   0.502   6.238   5.886  0.5409 -0.6130  0.1551
  692MOL0     H93416   0.449   6.080   6.094 -3.0837 -2.6856  1.6676
  692MOL0     H93417   0.491   5.943   6.000  0.6629 -0.0763  4.8356
  692MOL0     H93418   0.093   6.023   5.921  0.0875  1.0662 -4.2599
  692MOL0     H93419   0.612   6.474   5.657  0.0383  1.2338  0.4107
  692MOL0     H93420   0.574   6.487   5.395 -1.4084 -2.3026 -3.1362
  693MOL0     O93421   0.214   7.718   5.416 -0.3994 -0.1484 -0.0612
  693MOL0     C93422   0.095   7.717   5.435 -0.6234 -0.0483 -0.7090
  693MOL0     O93423   0.002   7.821   5.400  0.3246  0.1581 -0.5097
  693MOL0     C93424   0.051   7.925   5.321  0.0314 -0.3365  1.0108
  693MOL0     C93425   0.043   7.921   5.178 -0.1734 -0.3585 -0.1767
  693MOL0     C93426   0.098   8.027   5.111  1.3019  0.3857  0.7059
  693MOL0     C93427   0.165   8.134   5.169 -0.5395 -0.4088 -0.2835
  693MOL0     O93428   0.199   8.249   5.100  0.8425 -0.3907 -0.0639
  693MOL0     C93429   0.287   8.220   4.994 -0.1369  0.4313 -0.3338
  693MOL0     C93430   0.370   8.344   4.952  0.6354  0.0394  0.7450
  693MOL0     C93431   0.363   8.360   4.799  0.5406  0.8107 -0.5198
  693MOL0     C93432   0.483   8.440   4.740  0.3795  0.4662 -0.0164
  693MOL0     C93433   0.484   8.585   4.786 -0.2683 -0.1799 -0.0301
  693MOL0     C93434   0.374   8.673   4.716  0.2115 -0.7066 -0.6532
  693MOL0     C93435   0.358   8.674   4.574  0.2459  0.2680  0.4537
  693MOL0     C93436   0.247   8.773   4.519 -0.0230  0.4067  1.0445
  693MOL0     N93437   0.136   8.779   4.610 -0.0144 -0.8430 -0.2213
  693MOL0     C93438   0.029   8.699   4.618 -1.1034 -0.1509 -0.5418
  693MOL0     C93439  -0.026   8.744   4.734 -0.4582  0.6657 -0.0764
  693MOL0     C93440  -0.154   8.686   4.789 -0.5280 -0.6681 -1.4195
  693MOL0     C93441  -0.286   8.725   4.732 -0.6214  0.3826  1.3176
  693MOL0     C93442  -0.318   8.651   4.594 -0.1928  0.7124 -0.2956
  693MOL0     C93443  -0.466   8.625   4.569 -0.6840  0.1083 -0.1164
  693MOL0     O93444  -0.468   8.537   4.450  0.5405  0.5891  0.4748
  693MOL0     C93445  -0.450   8.582   4.316  0.4034 -0.5389 -1.3151
  693MOL0     C93446  -0.430   8.482   4.227 -0.7731  0.9189  0.8961
  693MOL0     C93447  -0.422   8.510   4.090  0.2915 -0.5631  0.4563
  693MOL0     C93448  -0.389   8.392   4.002 -0.1412  0.4402  0.4240
  693MOL0     C93449  -0.449   8.644   4.041  0.0012 -0.0552  0.7437
  693MOL0     C93450  -0.430   8.692   3.897 -0.0756 -0.1025  0.6068
  693MOL0     O93451  -0.480   8.821   3.874 -0.0772 -0.5488 -0.0792
  693MOL0     C93452  -0.470   8.867   3.743  0.3061  1.0703 -0.0682
  693MOL0     C93453  -0.584   8.888   3.661  0.1220  0.0298  0.7947
  693MOL0     C93454  -0.577   8.954   3.534 -0.3656 -0.8658  0.0599
  693MOL0     C93455  -0.441   8.995   3.490  0.5286  0.5187  0.7868
  693MOL0     O93456  -0.407   9.050   3.367 -0.0191  0.3268  0.0728
  693MOL0     C93457  -0.515   9.072   3.274  0.8137  0.0392 -0.9378
  693MOL0     C93458  -0.603   9.194   3.315 -0.0600  0.9084  0.3330
  693MOL0     C93459  -0.533   9.336   3.342 -0.2354 -0.3000 -0.3865
  693MOL0     C93460  -0.633   9.415   3.444 -0.6754 -0.9747 -0.3986
  693MOL0     C93461  -0.564   9.553   3.489  0.4072 -0.5782  0.0352
  693MOL0     C93462  -0.585   9.662   3.376 -0.0186  0.4382 -0.2365
  693MOL0     C93463  -0.551   9.805   3.406 -0.0423 -0.1199  0.4300
  693MOL0     C93464  -0.398   9.825   3.433 -0.3402  0.7770 -0.3101
  693MOL0    Cl93465  -0.371   9.791   3.606 -0.1562  0.1334  0.3225
  693MOL0     C93466  -0.330   8.964   3.573  0.5978  0.4302 -0.4572
  693MOL0     C93467  -0.350   8.901   3.693  0.0340 -0.4579  0.2718
  693MOL0     O93468  -0.359   8.630   3.818  0.9480 -0.0117 -0.2067
  693MOL0     C93469  -0.472   8.748   4.141  0.2060  0.4904  0.5763
  693MOL0     C93470  -0.470   8.717   4.278  0.6422 -0.3322 -0.4272
  693MOL0     N93471   0.048   8.838   4.791 -0.4662  0.7431 -0.2491
  693MOL0     N93472   0.146   8.869   4.712  0.5789  0.6408  0.1837
  693MOL0     C93473   0.175   8.134   5.309 -0.2829 -0.4378  0.3274
  693MOL0     C93474   0.108   8.033   5.383 -0.2965 -0.2283  0.1039
  693MOL0     C93475   0.035   7.608   5.501  0.7092  0.6124 -0.0279
  693MOL0     C93476   0.106   7.485   5.525  0.7384  0.1535  0.5403
  693MOL0     C93477   0.045   7.386   5.605 -0.1690  0.5002  0.0031
  693MOL0     C93478  -0.086   7.397   5.664 -0.9566 -0.0093  0.3446
  693MOL0     O93479  -0.127   7.302   5.751  0.3328 -0.4481 -0.2096
  693MOL0     C93480  -0.249   7.330   5.826  0.1126  0.0434 -0.8860
  693MOL0     C93481  -0.265   7.216   5.927 -1.0544  0.1440 -0.4481
  693MOL0     C93482  -0.279   7.077   5.857  0.2100  0.2080 -0.2315
  693MOL0     C93483  -0.277   6.970   5.949  0.3220  1.1743  1.0027
  693MOL0     C93484  -0.285   6.828   5.898 -0.4049  0.4867  1.1652
  693MOL0     C93485  -0.266   6.718   5.842  0.1902 -0.2143  0.7552
  693MOL0     C93486  -0.155   7.513   5.638 -0.5631  0.8305  1.5702
  693MOL0     C93487  -0.091   7.610   5.563  0.2261 -0.7004  0.4297
  693MOL0     H93488  -0.021   7.849   5.129 -1.8849 -0.6523  2.3200
  693MOL0     H93489   0.070   8.022   5.006 -0.1240 -1.8216  1.1281
  693MOL0     H93490   0.359   8.144   5.025 -1.9342 -0.1416  2.9198
  693MOL0     H93491   0.234   8.171   4.912  0.9610 -0.1806 -0.6980
  693MOL0     H93492   0.314   8.431   4.988  2.6287  1.2685  1.0074
  693MOL0     H93493   0.470   8.361   4.992 -0.5943  2.3986  3.2144
  693MOL0     H93494   0.364   8.256   4.764  4.4436  0.1036  1.0915
  693MOL0     H93495   0.269   8.405   4.766 -0.4183  2.4207  3.7478
  693MOL0     H93496   0.565   8.383   4.785  0.2589  0.7789  0.6032
  693MOL0     H93497   0.478   8.434   4.631 -1.7250 -1.7790  0.1158
  693MOL0     H93498   0.483   8.600   4.894 -1.4625 -2.3215  0.3227
  693MOL0     H93499   0.580   8.630   4.761  0.2866 -1.2934  0.0266
  693MOL0     H93500   0.280   8.648   4.766 -0.9249 -0.4499 -2.5615
  693MOL0     H93501   0.399   8.777   4.742  1.0655 -1.7179  3.2377
  693MOL0     H93502   0.452   8.693   4.520 -0.7047  1.7566 -0.7600
  693MOL0     H93503   0.319   8.579   4.537 -1.1782  0.8980  0.2798
  693MOL0     H93504   0.217   8.735   4.421  0.4091 -0.9571  1.4136
  693MOL0     H93505   0.286   8.872   4.493  2.5685 -1.0038 -0.9536
  693MOL0     H93506  -0.005   8.617   4.556 -0.0038  1.1406 -2.9959
  693MOL0     H93507  -0.148   8.576   4.793 -0.2158 -0.6155  1.8655
  693MOL0     H93508  -0.156   8.709   4.896  1.0813  0.2662 -1.5672
  693MOL0     H93509  -0.295   8.834   4.730 -1.2129  0.4219  3.3320
  693MOL0     H93510  -0.367   8.701   4.802 -1.7160  0.1240  0.0090
  693MOL0     H93511  -0.249   8.568   4.575 -0.7850  0.2806 -0.6107
  693MOL0     H93512  -0.289   8.719   4.513 -0.7944  0.6510 -0.5670
  693MOL0     H93513  -0.522   8.718   4.560 -0.1775  0.3950 -0.4026
  693MOL0     H93514  -0.495   8.575   4.662  1.8731  3.3621  2.6961
  693MOL0     H93515  -0.422   8.379   4.264  1.8538  1.2467  1.4382
  693MOL0     H93516  -0.463   8.380   3.922 -0.3183  0.7532  0.5406
  693MOL0     H93517  -0.288   8.398   3.962  0.3953 -1.4322  1.3603
  693MOL0     H93518  -0.389   8.296   4.054  1.0802 -1.1908 -2.3555
  693MOL0     H93519  -0.677   8.855   3.707  1.1832 -1.4831  1.9678
  693MOL0     H93520  -0.665   8.981   3.476 -0.4806 -3.1529 -0.9322
  693MOL0     H93521  -0.482   9.099   3.173 -0.7717  1.7022 -1.0605
  693MOL0     H93522  -0.576   8.983   3.255  0.0239  1.0243 -3.4501
  693MOL0     H93523  -0.677   9.205   3.235 -0.7937 -1.3667  0.6257
  693MOL0     H93524  -0.665   9.168   3.401 -1.3228 -0.9419 -1.0525
  693MOL0     H93525  -0.529   9.390   3.248 -2.2059 -2.7543 -2.0102
  693MOL0     H93526  -0.433   9.340   3.387  0.7386 -0.2809 -2.4506
  693MOL0     H93527  -0.728   9.448   3.403  0.0067  0.9812 -0.5386
  693MOL0     H93528  -0.650   9.364   3.540  2.7258  2.7188  2.5729
  693MOL0     H93529  -0.457   9.537   3.505 -0.0705 -3.2260  1.1061
  693MOL0     H93530  -0.608   9.597   3.579  2.8509  0.6788  0.7151
  693MOL0     H93531  -0.518   9.625   3.298 -0.1614 -1.1345  0.3615
  693MOL0     H93532  -0.684   9.662   3.331  0.7463  3.9720 -2.3919
  693MOL0     H93533  -0.596   9.843   3.498  2.2198  1.5203  0.9483
  693MOL0     H93534  -0.577   9.861   3.316  0.3953 -2.6382 -1.3691
  693MOL0     H93535  -0.369   9.929   3.417 -1.7527  1.0723 -1.0688
  693MOL0     H93536  -0.341   9.755   3.371 -0.8015 -0.1628  0.2965
  693MOL0     H93537  -0.233   8.991   3.532 -0.2841  3.9688 -0.6096
  693MOL0     H93538  -0.266   8.883   3.759  0.7598 -3.6595 -1.3084
  693MOL0     H93539  -0.487   8.853   4.120 -3.8851  0.7092  3.3790
  693MOL0     H93540  -0.481   8.796   4.350 -1.4152 -0.7821 -0.1841
  693MOL0     H93541   0.192   8.225   5.366  1.0227  0.0966 -0.8603
  693MOL0     H93542   0.113   8.028   5.491 -2.5857 -0.1588  0.2559
  693MOL0     H93543   0.204   7.473   5.480  1.0170  3.8647 -0.1970
  693MOL0     H93544   0.097   7.294   5.633 -2.8699 -1.5659 -1.2386
  693MOL0     H93545  -0.243   7.426   5.877 -1.2573 -0.0030 -0.5822
  693MOL0     H93546  -0.339   7.320   5.765 -1.5448  0.4341  1.3323
  693MOL0     H93547  -0.359   7.228   5.980 -2.1860 -0.3109 -2.2745
  693MOL0     H93548  -0.187   7.215   6.004  2.6473  2.0865 -3.7471
  693MOL0     H93549  -0.196   7.048   5.792 -2.2713 -3.4274 -2.1548
  693MOL0     H93550  -0.368   7.083   5.794 -1.1136  2.0336  1.6943
  693MOL0     H93551  -0.364   6.983   6.014  1.2666 -0.0666  2.6008
  693MOL0     H93552  -0.186   6.960   6.009  0.3035 -0.7601  0.7847
  693MOL0     H93553  -0.252   6.629   5.784  3.0782  0.5551  0.1069
  693MOL0     H93554  -0.258   7.532   5.667 -1.7885  0.5701 -2.0588
  693MOL0     H93555  -0.143   7.703   5.545  1.2521 -0.4495 -1.4468
  694MOL0     O93556   1.237   3.899   9.724  0.2048  0.1997 -0.1941
  694MOL0     C93557   1.194   3.893   9.610 -1.2992  1.0071  0.5385
  694MOL0     O93558   1.084   3.827   9.553  0.0828 -0.2065 -1.1595
  694MOL0     C93559   0.982   3.810   9.645  0.8950  0.1570 -0.7800
  694MOL0     C93560   0.937   3.910   9.730  0.4179  0.0650  0.3072
  694MOL0     C93561   0.827   3.892   9.812  1.0961  0.3777 -0.5228
  694MOL0     C93562   0.762   3.763   9.815  0.0216 -0.4081  0.2567
  694MOL0     O93563   0.666   3.736   9.908  0.3917 -0.4462  0.6810
  694MOL0     C93564   0.707   3.724  10.046  1.1651 -0.4903  0.0213
  694MOL0     C93565   0.577   3.712  10.137 -0.2253  0.5676 -0.1184
  694MOL0     C93566   0.633   3.727  10.275  0.3940 -0.0100  0.1561
  694MOL0     C93567   0.542   3.661  10.374  0.3106 -0.4067  0.2259
  694MOL0     C93568   0.583   3.690  10.520  0.5846 -0.1776  0.4434
  694MOL0     C93569   0.476   3.634  10.620  0.0324  0.5685  0.5871
  694MOL0     C93570   0.467   3.712  10.749  0.3211  0.8822  0.0662
  694MOL0     C93571   0.328   3.678  10.813 -0.2918 -1.0188 -0.9446
  694MOL0     N93572   0.214   3.727  10.731  0.4866  0.0037 -0.5049
  694MOL0     C93573   0.139   3.640  10.654 -0.7606  0.2421 -0.6800
  694MOL0     C93574   0.036   3.714  10.629 -0.1985 -0.3420  0.1972
  694MOL0     C93575  -0.086   3.664  10.549  0.5657 -0.3387 -0.3836
  694MOL0     C93576  -0.078   3.711  10.405 -0.5260  0.1640 -1.0830
  694MOL0     C93577  -0.149   3.622  10.313 -0.1200 -0.6440 -0.2088
  694MOL0     C93578  -0.120   3.640  10.161 -0.4925 -0.3486 -0.6052
  694MOL0     O93579   0.016   3.620  10.124  0.1521 -0.2276 -0.6472
  694MOL0     C93580   0.070   3.658  10.007 -0.6957  0.1498 -0.6337
  694MOL0     C93581   0.003   3.714   9.903  0.0219 -0.7338 -0.0072
  694MOL0     C93582   0.066   3.765   9.788  0.3282  0.7548  0.7709
  694MOL0     C93583  -0.016   3.824   9.677 -0.3615  0.1089  0.0382
  694MOL0     C93584   0.208   3.762   9.777  1.2290  0.3001  0.4687
  694MOL0     C93585   0.282   3.832   9.658  0.4582  0.6693 -1.0035
  694MOL0     O93586   0.421   3.823   9.679  0.7738 -0.1001  0.0775
  694MOL0     C93587   0.494   3.874   9.574  0.4751 -0.3874 -0.3213
  694MOL0     C93588   0.474   4.001   9.524  0.2395 -0.3562  0.8184
  694MOL0     C93589   0.557   4.052   9.425 -0.4760 -0.1322  0.5676
  694MOL0     C93590   0.654   3.968   9.369  0.4686 -0.4264  0.5587
  694MOL0     O93591   0.697   4.017   9.244 -0.5026 -0.1384 -0.0861
  694MOL0     C93592   0.846   4.018   9.224  1.0294 -0.3378  0.1977
  694MOL0     C93593   0.873   4.092   9.097 -1.2402 -0.2392  0.2892
  694MOL0     C93594   1.029   4.112   9.083 -0.4900 -0.1762  0.9159
  694MOL0     C93595   1.057   4.148   8.938 -0.6524  0.7541 -0.2473
  694MOL0     C93596   1.205   4.207   8.921  0.2391 -0.1379 -0.2556
  694MOL0     C93597   1.223   4.233   8.772  0.0099  0.2730 -0.2600
  694MOL0     C93598   1.365   4.265   8.727  0.2905 -0.0601 -0.4203
  694MOL0     C93599   1.361   4.293   8.579  0.7040 -0.6113  0.2801
  694MOL0    Cl93600   1.516   4.347   8.505  0.1816 -0.0258 -0.0779
  694MOL0     C93601   0.686   3.841   9.425  1.3032  0.2024 -0.4083
  694MOL0     C93602   0.601   3.794   9.528 -0.3443 -0.4793 -0.0003
  694MOL0     O93603   0.221   3.847   9.553 -1.1028 -0.0963  0.8631
  694MOL0     C93604   0.283   3.686   9.867 -0.3463  0.4496 -0.2879
  694MOL0     C93605   0.215   3.633   9.978  0.4611 -0.0345 -0.0826
  694MOL0     N93606   0.055   3.848  10.669  0.5976  0.8093  0.1248
  694MOL0     N93607   0.154   3.846  10.740 -0.0510 -0.0749 -0.3663
  694MOL0     C93608   0.800   3.667   9.725 -0.8732 -0.2035  0.1970
  694MOL0     C93609   0.908   3.689   9.643 -0.3284 -1.0116  0.7006
  694MOL0     C93610   1.289   3.949   9.510 -0.3085  0.0471 -1.2268
  694MOL0     C93611   1.272   3.915   9.380  0.1909  0.8624  0.0315
  694MOL0     C93612   1.354   3.980   9.278  0.0235 -2.1150 -0.8790
  694MOL0     C93613   1.452   4.069   9.327  0.1992  1.3328  0.0554
  694MOL0     O93614   1.490   4.151   9.231 -0.5266 -0.1475  0.0768
  694MOL0     C93615   1.593   4.245   9.248  0.0047 -0.3593 -0.4641
  694MOL0     C93616   1.628   4.314   9.115 -0.2863 -0.1710 -0.2173
  694MOL0     C93617   1.682   4.222   9.001  0.8308  0.2154 -0.8626
  694MOL0     C93618   1.750   4.291   8.878 -0.3691  1.3354  0.6369
  694MOL0     C93619   1.796   4.195   8.774  0.4948  0.6652 -0.3959
  694MOL0     C93620   1.831   4.118   8.685 -0.3899 -1.5426 -0.1939
  694MOL0     C93621   1.467   4.100   9.464  1.1267  0.2524  0.6314
  694MOL0     C93622   1.389   4.041   9.557 -0.4558 -0.2055 -0.6406
  694MOL0     H93623   0.983   4.008   9.726  1.8547 -0.6212 -1.2799
  694MOL0     H93624   0.782   3.972   9.869  0.8209  3.5248 -4.6750
  694MOL0     H93625   0.751   3.626  10.066  1.2269 -0.3933  0.3650
  694MOL0     H93626   0.766   3.810  10.079 -3.2999  3.3750 -1.1232
  694MOL0     H93627   0.517   3.802  10.120  0.4203  0.5155 -3.2371
  694MOL0     H93628   0.516   3.624  10.117 -1.2720  1.4634 -1.0487
  694MOL0     H93629   0.739   3.701  10.282  0.0243 -1.7599 -0.3443
  694MOL0     H93630   0.636   3.835  10.294  1.7070  0.4731 -2.3688
  694MOL0     H93631   0.439   3.694  10.358  0.3359 -0.4066  0.0665
  694MOL0     H93632   0.567   3.555  10.360  3.5429 -0.3422  3.7107
  694MOL0     H93633   0.687   3.656  10.531  0.3455 -1.2639 -0.4515
  694MOL0     H93634   0.570   3.795  10.548 -0.2286 -0.1857  0.1149
  694MOL0     H93635   0.375   3.625  10.578  0.5350 -0.7815 -0.4072
  694MOL0     H93636   0.504   3.533  10.649 -1.1064 -0.2278 -0.8947
  694MOL0     H93637   0.551   3.682  10.813 -0.9305  1.8069  2.2437
  694MOL0     H93638   0.455   3.820  10.736 -0.6579  1.1070  2.3739
  694MOL0     H93639   0.319   3.706  10.919 -0.4935  2.8404 -1.8316
  694MOL0     H93640   0.331   3.569  10.815 -0.9085 -1.0331 -0.5762
  694MOL0     H93641   0.160   3.539  10.619 -1.2530  0.0115 -0.3185
  694MOL0     H93642  -0.075   3.555  10.546  0.6859 -0.3265 -0.3917
  694MOL0     H93643  -0.180   3.700  10.590  1.2729  1.4967 -0.2722
  694MOL0     H93644   0.028   3.696  10.381 -0.7395 -1.1688 -1.2535
  694MOL0     H93645  -0.099   3.817  10.387  1.0700  0.5812 -0.6977
  694MOL0     H93646  -0.256   3.633  10.331  0.0505  0.1343  0.3481
  694MOL0     H93647  -0.117   3.518  10.325  1.8564 -0.3099 -2.0129
  694MOL0     H93648  -0.150   3.738  10.122  1.5979  0.1627 -1.0571
  694MOL0     H93649  -0.183   3.569  10.107 -0.2320  0.2868 -1.7791
  694MOL0     H93650  -0.104   3.713   9.923  0.3033 -1.5996  1.6470
  694MOL0     H93651  -0.004   3.758   9.590 -0.9389  1.2604 -0.9494
  694MOL0     H93652  -0.120   3.822   9.710  0.2155 -0.8037  1.9166
  694MOL0     H93653   0.025   3.926   9.677 -0.0571  0.0055 -1.1875
  694MOL0     H93654   0.398   4.070   9.558 -2.3706 -3.2288  1.1832
  694MOL0     H93655   0.543   4.151   9.382 -2.4303 -1.1694 -1.3970
  694MOL0     H93656   0.893   4.068   9.309  0.7803 -0.7784  0.6009
  694MOL0     H93657   0.872   3.912   9.211 -3.2578 -1.6761  0.7181
  694MOL0     H93658   0.828   4.044   9.010  0.7390 -2.2979  0.2890
  694MOL0     H93659   0.831   4.190   9.122  0.4372  0.5587  0.1004
  694MOL0     H93660   1.079   4.020   9.114  1.9343  0.9594  0.5723
  694MOL0     H93661   1.064   4.186   9.156  0.9319 -1.9107  2.0489
  694MOL0     H93662   1.033   4.055   8.885 -1.1198 -0.0346  1.2966
  694MOL0     H93663   0.984   4.223   8.906  0.5164  2.3812  0.7581
  694MOL0     H93664   1.275   4.124   8.934  0.4157  0.1551  0.6492
  694MOL0     H93665   1.225   4.299   8.975 -4.0296  0.5559  0.5363
  694MOL0     H93666   1.187   4.150   8.710  1.5084  0.7039 -1.7960
  694MOL0     H93667   1.154   4.313   8.747 -3.6912 -3.0653 -1.7835
  694MOL0     H93668   1.427   4.175   8.737  0.9897 -0.5831 -6.1728
  694MOL0     H93669   1.406   4.356   8.770 -0.0469 -1.0013  2.0518
  694MOL0     H93670   1.292   4.377   8.570 -1.3385 -2.1816  0.6110
  694MOL0     H93671   1.316   4.206   8.531 -0.6874 -0.0584  0.5265
  694MOL0     H93672   0.763   3.772   9.391  2.7229  0.4515  2.0569
  694MOL0     H93673   0.600   3.699   9.580 -0.0358 -0.6533 -0.3170
  694MOL0     H93674   0.389   3.664   9.871 -0.9602 -2.9758  2.8110
  694MOL0     H93675   0.268   3.584  10.059  2.8574  2.1308 -0.2243
  694MOL0     H93676   0.750   3.570   9.728  1.0442 -1.2568 -0.4303
  694MOL0     H93677   0.933   3.608   9.575  0.2641  0.4905 -0.9302
  694MOL0     H93678   1.188   3.851   9.355 -1.4053  1.5021  3.2308
  694MOL0     H93679   1.311   3.967   9.180  0.5819  2.8964 -2.0683
  694MOL0     H93680   1.560   4.320   9.321 -0.8501 -1.2467  0.0755
  694MOL0     H93681   1.679   4.195   9.293  1.5655  1.6645 -1.0554
  694MOL0     H93682   1.704   4.391   9.132 -0.4035 -0.1438  0.2155
  694MOL0     H93683   1.538   4.363   9.078 -1.4703 -1.1128  1.2822
  694MOL0     H93684   1.605   4.153   8.964  2.1242 -1.5389 -0.3857
  694MOL0     H93685   1.747   4.143   9.037  2.0375  1.8830  0.7975
  694MOL0     H93686   1.840   4.339   8.917  0.5536 -1.5601  2.3877
  694MOL0     H93687   1.682   4.362   8.830 -3.3611 -1.8628 -0.3554
  694MOL0     H93688   1.856   4.053   8.603 -1.2535 -0.8444 -1.0316
  694MOL0     H93689   1.521   4.187   9.501  0.6775 -0.2357  2.5278
  694MOL0     H93690   1.403   4.048   9.664  1.7179 -2.8886 -0.6245
  695MOL0     O93691   3.557   3.657   3.318 -0.1516  0.6412  0.0906
  695MOL0     C93692   3.602   3.712   3.217  0.6513  0.1430 -0.7652
  695MOL0     O93693   3.730   3.733   3.179  0.1395  0.1688 -1.1840
  695MOL0     C93694   3.836   3.685   3.254 -0.6329 -0.5782 -0.0040
  695MOL0     C93695   3.941   3.776   3.270 -0.3896  0.7004  0.4290
  695MOL0     C93696   4.044   3.742   3.358  0.4710 -0.1069  0.5863
  695MOL0     C93697   4.052   3.621   3.429 -0.4167  1.1159  0.1909
  695MOL0     O93698   4.158   3.574   3.506  0.2282  0.1492  0.7219
  695MOL0     C93699   4.286   3.621   3.482  0.1336 -0.8560 -0.0140
  695MOL0     C93700   4.300   3.720   3.595  0.0754 -0.5677 -0.2941
  695MOL0     C93701   4.399   3.842   3.546  0.2052  0.5240  0.0844
  695MOL0     C93702   4.461   3.916   3.660 -0.1772  0.7744  0.5680
  695MOL0     C93703   4.601   3.984   3.642 -0.2370 -0.7240 -0.8847
  695MOL0     C93704   4.656   4.037   3.779 -0.6622  1.2221  0.8571
  695MOL0     C93705   4.791   4.111   3.753  0.1050  0.9339  0.4622
  695MOL0     C93706   4.849   4.140   3.887 -0.2865 -0.3119 -0.6711
  695MOL0     N93707   4.978   4.210   3.876 -0.1731 -0.5534 -0.1959
  695MOL0     C93708   4.994   4.338   3.815  0.5322  1.0765 -0.0103
  695MOL0     C93709   5.123   4.364   3.815  0.3617  0.6438 -0.5556
  695MOL0     C93710   5.198   4.484   3.750  0.2237 -0.0435  0.4174
  695MOL0     C93711   5.280   4.459   3.629 -0.1544 -0.2738  0.4882
  695MOL0     C93712   5.336   4.593   3.582 -0.5446  0.2383  0.5184
  695MOL0     C93713   5.465   4.628   3.656 -0.9858  0.1500  0.7371
  695MOL0     O93714   5.569   4.531   3.627  0.1179 -0.5362 -0.4896
  695MOL0     C93715   5.657   4.515   3.729 -0.3013 -0.5319  0.3846
  695MOL0     C93716   5.712   4.610   3.816  0.5381  0.0364  0.2042
  695MOL0     C93717   5.804   4.579   3.927 -0.5242  0.2658  1.1881
  695MOL0     C93718   5.849   4.696   4.007 -0.1726 -0.1763  0.1095
  695MOL0     C93719   5.844   4.451   3.938 -0.8495  0.1444  0.7022
  695MOL0     C93720   5.937   4.403   4.048  1.1348  0.1895 -0.3029
  695MOL0     O93721   6.021   4.489   4.123 -0.1011  0.6220 -0.2791
  695MOL0     C93722   6.107   4.417   4.204  0.1596  0.4173 -0.2514
  695MOL0     C93723   6.094   4.436   4.340 -0.1984  0.2272  1.2709
  695MOL0     C93724   6.175   4.357   4.417 -0.2359 -0.4458 -0.4186
  695MOL0     C93725   6.279   4.276   4.371 -0.1771  0.5765 -0.1888
  695MOL0     O93726   6.357   4.209   4.455  0.1372  0.8599 -0.7937
  695MOL0     C93727   6.315   4.173   4.590 -0.1407 -0.2440 -0.2180
  695MOL0     C93728   6.418   4.083   4.647 -0.3585 -0.8741 -0.4027
  695MOL0     C93729   6.546   4.163   4.685  0.1552 -0.0466 -0.3685
  695MOL0     C93730   6.662   4.082   4.751  0.9316  0.7004  0.2151
  695MOL0     C93731   6.797   4.148   4.795  0.6446 -0.5238 -0.1552
  695MOL0     C93732   6.885   4.050   4.859  0.0500  0.3855  1.0158
  695MOL0     C93733   6.823   3.958   4.969  0.6646  0.3773 -0.1321
  695MOL0     C93734   6.782   4.016   5.117  0.0682  0.8831  0.8137
  695MOL0    Cl93735   6.771   3.883   5.234 -0.0280  0.3534 -0.1323
  695MOL0     C93736   6.304   4.269   4.236 -0.3444  0.6004  0.3576
  695MOL0     C93737   6.215   4.331   4.148 -0.3246 -0.2542 -0.3733
  695MOL0     O93738   5.912   4.286   4.078  0.0676  0.3409 -0.0504
  695MOL0     C93739   5.802   4.355   3.843 -0.3176  0.1673  0.2216
  695MOL0     C93740   5.717   4.389   3.738  0.4850 -1.1976 -0.4494
  695MOL0     N93741   5.180   4.265   3.897  0.5212  0.6665 -0.2954
  695MOL0     N93742   5.095   4.166   3.920 -0.8402  0.0809  0.7729
  695MOL0     C93743   3.943   3.530   3.412 -0.1513  0.0361  0.4258
  695MOL0     C93744   3.843   3.560   3.323  1.1723 -1.0946  0.3536
  695MOL0     C93745   3.487   3.774   3.133  0.0099 -0.2209  0.8783
  695MOL0     C93746   3.358   3.770   3.180  0.2151 -0.1502 -0.2333
  695MOL0     C93747   3.270   3.833   3.098  0.4288 -0.3283  0.2527
  695MOL0     C93748   3.294   3.883   2.965  0.0321  0.5470  1.0418
  695MOL0     O93749   3.187   3.928   2.887  0.1569 -1.1438 -0.2383
  695MOL0     C93750   3.204   3.973   2.751  0.1174 -0.6619 -0.1593
  695MOL0     C93751   3.191   3.849   2.660  0.5959 -1.0049  0.0319
  695MOL0     C93752   3.041   3.803   2.662 -0.3287  0.2805 -0.6104
  695MOL0     C93753   3.017   3.662   2.596  1.1477 -0.6092  0.1183
  695MOL0     C93754   3.035   3.653   2.454  0.1731  0.1520 -0.5325
  695MOL0     C93755   3.065   3.637   2.338 -0.7503 -0.1544 -0.4028
  695MOL0     C93756   3.433   3.886   2.918  0.8825  0.5586 -0.5024
  695MOL0     C93757   3.527   3.831   3.007  0.1382 -0.4166  1.2366
  695MOL0     H93758   3.955   3.874   3.226 -1.7217  0.2630 -1.0427
  695MOL0     H93759   4.125   3.812   3.373  0.5156 -0.1749  0.6638
  695MOL0     H93760   4.365   3.545   3.484 -0.9001 -1.9401  0.7000
  695MOL0     H93761   4.296   3.673   3.387  3.4428 -0.3647  0.4698
  695MOL0     H93762   4.202   3.763   3.620  0.0532 -1.5536  1.4293
  695MOL0     H93763   4.339   3.664   3.680  2.3525 -1.3263 -1.7304
  695MOL0     H93764   4.486   3.804   3.491  1.3365 -0.7589  2.6038
  695MOL0     H93765   4.351   3.917   3.482  1.5450  3.6736  2.5018
  695MOL0     H93766   4.386   3.982   3.704 -0.0589 -1.2728  4.3063
  695MOL0     H93767   4.487   3.840   3.735 -1.9786  0.0076  0.4761
  695MOL0     H93768   4.674   3.913   3.602  4.3670  1.4458  2.6793
  695MOL0     H93769   4.602   4.065   3.569 -0.5823  1.7121  1.6576
  695MOL0     H93770   4.588   4.109   3.826 -1.2717  2.1485 -1.3091
  695MOL0     H93771   4.683   3.955   3.846  1.2612 -0.0157 -1.2700
  695MOL0     H93772   4.859   4.053   3.690 -1.3824  2.3370 -2.6142
  695MOL0     H93773   4.776   4.190   3.680 -0.7004 -3.7377 -5.1231
  695MOL0     H93774   4.859   4.044   3.938 -2.2593  0.5827  1.5937
  695MOL0     H93775   4.790   4.206   3.952  1.3591  0.2684  0.3105
  695MOL0     H93776   4.925   4.406   3.766  1.6481  1.4819 -1.0672
  695MOL0     H93777   5.123   4.556   3.718  2.9694  2.7034 -0.3265
  695MOL0     H93778   5.245   4.535   3.835  0.3259  0.1652  0.2382
  695MOL0     H93779   5.217   4.411   3.553 -0.3964 -2.6660  2.0994
  695MOL0     H93780   5.362   4.392   3.657  1.5286  1.9053  1.0334
  695MOL0     H93781   5.261   4.672   3.592 -0.2893  0.4160  1.0734
  695MOL0     H93782   5.366   4.583   3.477  1.1012 -0.0712  0.9867
  695MOL0     H93783   5.458   4.645   3.764  2.6296 -3.2980  1.7539
  695MOL0     H93784   5.503   4.721   3.611  0.3336 -2.1569 -3.5342
  695MOL0     H93785   5.672   4.710   3.811  1.1133  0.3485  1.4894
  695MOL0     H93786   5.927   4.748   3.950 -0.4110  0.3379  0.2402
  695MOL0     H93787   5.762   4.763   4.011 -2.5234 -2.9996 -0.7929
  695MOL0     H93788   5.878   4.666   4.108 -1.3558 -2.6307 -0.2037
  695MOL0     H93789   6.030   4.507   4.391 -1.3463 -1.3487  2.0910
  695MOL0     H93790   6.164   4.378   4.523  0.4252 -4.8399  0.7271
  695MOL0     H93791   6.306   4.257   4.660 -2.7377 -1.5083  1.1174
  695MOL0     H93792   6.222   4.116   4.596 -1.4065  1.8215  1.4513
  695MOL0     H93793   6.379   4.040   4.740 -0.0695  2.6148  1.4894
  695MOL0     H93794   6.438   4.006   4.572  0.5675 -1.2981  0.2524
  695MOL0     H93795   6.521   4.253   4.744  0.7154  0.0267 -0.2434
  695MOL0     H93796   6.579   4.195   4.586 -0.6150 -1.3257 -1.0654
  695MOL0     H93797   6.616   4.044   4.844  0.2980  3.0348  0.9272
  695MOL0     H93798   6.683   4.001   4.680 -0.9481  0.0764  0.3042
  695MOL0     H93799   6.771   4.235   4.856 -0.9832 -0.1518 -1.3138
  695MOL0     H93800   6.859   4.179   4.710  2.6419 -2.4667  0.4945
  695MOL0     H93801   6.921   3.989   4.776  3.9684 -0.2867  2.9838
  695MOL0     H93802   6.972   4.096   4.907  0.7975 -0.2760  0.3162
  695MOL0     H93803   6.895   3.880   4.993  2.0259  1.5884 -0.1542
  695MOL0     H93804   6.735   3.903   4.936 -0.9287  1.1196  2.5752
  695MOL0     H93805   6.689   4.069   5.097 -0.1342 -0.0076 -0.8172
  695MOL0     H93806   6.854   4.091   5.150  3.2011  0.4129 -4.0195
  695MOL0     H93807   6.383   4.215   4.185 -1.6036 -1.4964  0.5260
  695MOL0     H93808   6.228   4.312   4.042 -1.7646 -0.9027 -0.4654
  695MOL0     H93809   5.841   4.254   3.847  0.1643  0.3386 -0.0998
  695MOL0     H93810   5.691   4.310   3.669  0.1469  0.1420 -1.9284
  695MOL0     H93811   3.933   3.435   3.463 -3.8742  0.5864  0.9715
  695MOL0     H93812   3.757   3.493   3.321 -0.4490  0.8104  1.4708
  695MOL0     H93813   3.339   3.742   3.283 -0.0516  5.0231  1.4438
  695MOL0     H93814   3.164   3.826   3.122  0.0926 -2.9590 -1.5375
  695MOL0     H93815   3.135   4.042   2.703  0.9235 -2.2538 -3.9647
  695MOL0     H93816   3.302   4.020   2.739 -0.5772  1.0591  0.5658
  695MOL0     H93817   3.268   3.776   2.686  2.0580 -0.1780 -1.7401
  695MOL0     H93818   3.187   3.885   2.557 -2.7905 -0.9037  0.0759
  695MOL0     H93819   2.977   3.879   2.617 -0.9814 -0.5629 -1.1322
  695MOL0     H93820   3.012   3.798   2.767 -2.1782 -0.5172 -1.1303
  695MOL0     H93821   2.914   3.636   2.621  0.6479  2.1896  1.2677
  695MOL0     H93822   3.085   3.588   2.641 -0.3087 -0.8857  1.9829
  695MOL0     H93823   3.101   3.624   2.237 -2.0065 -0.2187 -0.8640
  695MOL0     H93824   3.462   3.931   2.824 -0.5341  1.5625 -0.4852
  695MOL0     H93825   3.625   3.834   2.961  0.2577  0.2470  1.5216
  696MOL0     O93826   0.793   3.665   7.726  0.0943 -0.4681  0.1175
  696MOL0     C93827   0.729   3.754   7.666 -0.1469 -0.2162  0.6882
  696MOL0     O93828   0.594   3.772   7.668  1.0613 -0.1706  0.5863
  696MOL0     C93829   0.517   3.667   7.712 -0.6231 -0.2710  1.8044
  696MOL0     C93830   0.525   3.541   7.663  0.9377  0.6087  0.1146
  696MOL0     C93831   0.431   3.439   7.711  0.6611  0.9339  1.6154
  696MOL0     C93832   0.338   3.465   7.812  0.7629 -0.1946  0.0913
  696MOL0     O93833   0.262   3.358   7.850  0.1853 -0.0833  0.3023
  696MOL0     C93834   0.134   3.380   7.922 -0.0138 -0.4326 -0.3609
  696MOL0     C93835   0.048   3.252   7.932  0.8459  0.0723  0.9196
  696MOL0     C93836   0.129   3.138   7.991 -1.0220 -0.3047 -0.5549
  696MOL0     C93837   0.046   3.012   7.990 -0.0810 -0.3272 -0.1691
  696MOL0     C93838   0.114   2.902   8.075  0.1967 -0.2183  0.2551
  696MOL0     C93839   0.008   2.788   8.095 -0.4898  0.5598 -0.0014
  696MOL0     C93840   0.043   2.699   8.209  0.4774 -0.0818  0.2952
  696MOL0     C93841   0.036   2.555   8.173  1.2956 -0.6287 -0.1453
  696MOL0     N93842   0.037   2.460   8.298 -0.1433  0.4518  0.4966
  696MOL0     C93843   0.037   2.502   8.429 -0.1753 -0.3164 -0.5518
  696MOL0     C93844   0.075   2.390   8.499 -1.1823  1.0563  0.2621
  696MOL0     C93845   0.090   2.372   8.645 -0.2571 -0.5517 -0.7916
  696MOL0     C93846  -0.029   2.299   8.698 -0.0467  0.9423 -0.8222
  696MOL0     C93847  -0.013   2.269   8.846  0.1623  0.7469 -0.1930
  696MOL0     C93848  -0.138   2.194   8.892 -0.0566  0.1611  0.3755
  696MOL0     O93849  -0.110   2.148   9.031 -0.4672  0.3579  0.1193
  696MOL0     C93850  -0.158   2.024   9.050 -0.4697  1.1411 -0.1671
  696MOL0     C93851  -0.297   2.002   9.030  0.4411  0.4187  0.6003
  696MOL0     C93852  -0.357   1.873   9.035  0.1154 -0.1377 -0.2562
  696MOL0     C93853  -0.503   1.860   9.007 -0.1162  0.1746 -0.3364
  696MOL0     C93854  -0.270   1.764   9.073 -0.3463 -0.0894  0.6275
  696MOL0     C93855  -0.322   1.629   9.091  0.3302  0.1302 -0.2683
  696MOL0     O93856  -0.293   1.566   9.204 -0.6095 -0.1278  0.3376
  696MOL0     C93857  -0.342   1.440   9.233  0.4444 -0.9210  1.1847
  696MOL0     C93858  -0.424   1.409   9.339 -0.2430  0.4267 -0.4417
  696MOL0     C93859  -0.477   1.282   9.348  0.3299 -0.6290  0.2523
  696MOL0     C93860  -0.425   1.178   9.265 -1.1793  0.3271  0.4160
  696MOL0     O93861  -0.478   1.059   9.274  0.2814  0.3499 -1.0068
  696MOL0     C93862  -0.388   0.949   9.318  0.0757 -0.3128  1.5006
  696MOL0     C93863  -0.429   0.866   9.439 -0.4867  0.0533  0.9618
  696MOL0     C93864  -0.436   0.941   9.568 -0.6147 -0.2820 -1.0560
  696MOL0     C93865  -0.301   0.986   9.615  0.5184 -0.3671 -0.3894
  696MOL0     C93866  -0.316   1.037   9.757 -0.0418  0.0527 -0.1740
  696MOL0     C93867  -0.212   1.145   9.794  0.3535  0.1175 -0.5424
  696MOL0     C93868  -0.216   1.272   9.712 -0.2122 -0.4547  0.1107
  696MOL0     C93869  -0.106   1.380   9.751  0.0949  0.5829  0.1005
  696MOL0    Cl93870  -0.105   1.518   9.648  0.2520  0.1618 -0.1641
  696MOL0     C93871  -0.340   1.218   9.157 -0.3720 -0.1446  0.2109
  696MOL0     C93872  -0.295   1.346   9.145 -0.4118  0.9699  0.6609
  696MOL0     O93873  -0.374   1.567   8.988 -0.4649 -0.2215 -0.4942
  696MOL0     C93874  -0.142   1.794   9.115 -0.2275 -0.1402  0.7268
  696MOL0     C93875  -0.078   1.916   9.103  0.2292 -0.2072 -0.0972
  696MOL0     N93876   0.097   2.290   8.408 -0.9498 -0.0560  0.3923
  696MOL0     N93877   0.078   2.329   8.283  0.9648  0.2521 -0.1683
  696MOL0     C93878   0.316   3.593   7.843  0.4441 -0.3066  0.3410
  696MOL0     C93879   0.406   3.692   7.786  0.2217 -0.7907 -0.5576
  696MOL0     C93880   0.811   3.863   7.602 -0.9141 -0.0605 -0.3386
  696MOL0     C93881   0.752   3.985   7.561 -0.1738 -0.4035 -0.5343
  696MOL0     C93882   0.810   4.086   7.497 -0.5926  0.5650  0.2543
  696MOL0     C93883   0.945   4.072   7.462 -0.2955 -0.3043 -0.4966
  696MOL0     O93884   1.021   4.158   7.387  0.1496  0.0895  0.0238
  696MOL0     C93885   1.003   4.297   7.411 -0.6999  0.5450  0.0387
  696MOL0     C93886   1.124   4.375   7.358 -0.0139  0.5891 -0.5306
  696MOL0     C93887   1.262   4.331   7.398  0.9249  0.2727 -0.7251
  696MOL0     C93888   1.367   4.419   7.318 -0.4098  0.5165 -0.1253
  696MOL0     C93889   1.350   4.559   7.363  0.3446 -0.3016 -0.1945
  696MOL0     C93890   1.352   4.679   7.395  0.1154  0.4448 -0.2786
  696MOL0     C93891   1.019   3.954   7.505 -0.2780  0.5454  0.2185
  696MOL0     C93892   0.949   3.846   7.568  0.0514 -0.1960  0.4596
  696MOL0     H93893   0.595   3.524   7.582  0.7999 -0.9935  0.2866
  696MOL0     H93894   0.429   3.338   7.670  0.7156  0.9280  1.6270
  696MOL0     H93895   0.162   3.407   8.024  0.3097  1.2979 -0.8720
  696MOL0     H93896   0.075   3.465   7.885 -0.9807 -1.0475 -0.2772
  696MOL0     H93897  -0.042   3.292   7.979 -1.2252  1.6787 -3.8182
  696MOL0     H93898   0.018   3.225   7.830 -0.2235  1.2461  0.8972
  696MOL0     H93899   0.224   3.128   7.937  0.3712  2.9101  1.0720
  696MOL0     H93900   0.158   3.152   8.095 -2.6855 -0.2532 -0.0708
  696MOL0     H93901  -0.054   3.040   8.023  1.7618  4.9436  2.0647
  696MOL0     H93902   0.049   2.984   7.884 -0.1306 -0.4294 -0.1434
  696MOL0     H93903   0.210   2.867   8.036  0.2725  0.5443 -0.2694
  696MOL0     H93904   0.125   2.961   8.166  2.2482  1.1214 -0.7882
  696MOL0     H93905  -0.096   2.817   8.108 -1.3357 -1.4168 -1.7547
  696MOL0     H93906   0.010   2.728   8.003  0.2045 -0.4117  0.6155
  696MOL0     H93907   0.144   2.721   8.243  0.2334 -1.4469  2.0649
  696MOL0     H93908  -0.020   2.726   8.294 -1.5675 -1.1246 -0.8064
  696MOL0     H93909   0.121   2.530   8.107  1.8512  1.6323 -0.3767
  696MOL0     H93910  -0.057   2.532   8.121  1.7599 -3.4513  0.0627
  696MOL0     H93911   0.020   2.602   8.469  0.9873 -0.7342  1.1020
  696MOL0     H93912   0.182   2.329   8.685 -2.1975 -1.9646  2.5503
  696MOL0     H93913   0.093   2.472   8.691 -3.1286 -1.6181  2.0979
  696MOL0     H93914  -0.032   2.199   8.653  1.7093  0.4422  0.0623
  696MOL0     H93915  -0.120   2.356   8.679  0.4029  2.2913  0.9022
  696MOL0     H93916   0.011   2.361   8.901  0.9300 -0.2013  1.1373
  696MOL0     H93917   0.070   2.200   8.862 -1.1519 -1.4770 -2.2850
  696MOL0     H93918  -0.167   2.116   8.821  0.5756  0.5575 -0.3346
  696MOL0     H93919  -0.217   2.269   8.884  1.4253  1.6271 -1.3465
  696MOL0     H93920  -0.364   2.078   8.990 -0.2782  0.9668  2.7434
  696MOL0     H93921  -0.526   1.756   8.981  0.6332 -0.0188 -0.2375
  696MOL0     H93922  -0.549   1.878   9.105  0.4221  0.7733 -0.1946
  696MOL0     H93923  -0.543   1.934   8.938  0.7117  1.0752  0.1316
  696MOL0     H93924  -0.442   1.489   9.410  3.1782  1.3230 -0.4323
  696MOL0     H93925  -0.543   1.259   9.431 -0.0774 -1.3715 -0.2604
  696MOL0     H93926  -0.390   0.884   9.230 -2.8618  1.8210 -0.1827
  696MOL0     H93927  -0.283   0.980   9.328  0.4616 -0.7097 -0.7885
  696MOL0     H93928  -0.524   0.814   9.422 -0.2058 -0.1986  0.1025
  696MOL0     H93929  -0.358   0.783   9.452  0.4893  1.2755  4.3780
  696MOL0     H93930  -0.476   0.880   9.650  2.8213 -0.7232  0.4746
  696MOL0     H93931  -0.507   1.023   9.551 -1.8558 -1.1334 -0.1356
  696MOL0     H93932  -0.232   0.902   9.600  1.6936  0.5770 -0.3818
  696MOL0     H93933  -0.243   1.053   9.551  1.9272  0.1062  1.2990
  696MOL0     H93934  -0.307   0.957   9.832  0.4343 -0.3709 -0.6746
  696MOL0     H93935  -0.412   1.089   9.759 -0.2699 -0.2819  3.0557
  696MOL0     H93936  -0.249   1.170   9.894 -3.4585 -3.0104 -0.9084
  696MOL0     H93937  -0.112   1.102   9.792 -0.6299 -2.5766  1.7918
  696MOL0     H93938  -0.309   1.329   9.716 -0.0467 -0.1230 -0.6375
  696MOL0     H93939  -0.205   1.239   9.608  1.0799 -2.6075  0.8729
  696MOL0     H93940  -0.009   1.332   9.737  0.5247  1.0054  1.4788
  696MOL0     H93941  -0.120   1.404   9.857 -3.1558 -1.2373  0.2169
  696MOL0     H93942  -0.311   1.138   9.090  1.2551  1.0185 -0.5203
  696MOL0     H93943  -0.221   1.364   9.067  0.5788  0.6038  1.4947
  696MOL0     H93944  -0.070   1.722   9.152  1.3987  1.4108  0.7062
  696MOL0     H93945   0.028   1.933   9.118 -0.1424  2.4635 -0.0115
  696MOL0     H93946   0.226   3.620   7.898  1.1584  2.6467  0.2072
  696MOL0     H93947   0.397   3.795   7.818  0.2870 -1.6325  2.5587
  696MOL0     H93948   0.655   4.014   7.600  1.5122  3.4699  1.2838
  696MOL0     H93949   0.757   4.178   7.478  1.8037  1.4692 -2.7434
  696MOL0     H93950   0.909   4.343   7.378 -2.1314 -1.0693  1.6433
  696MOL0     H93951   1.007   4.315   7.519  1.1255 -4.1738  0.9881
  696MOL0     H93952   1.106   4.474   7.402 -1.7690  0.4746 -0.9297
  696MOL0     H93953   1.100   4.380   7.252  0.8161 -0.0611 -0.7546
  696MOL0     H93954   1.261   4.229   7.358 -3.9125  0.7004 -2.3077
  696MOL0     H93955   1.268   4.329   7.507 -2.0853  0.1099 -0.4842
  696MOL0     H93956   1.346   4.416   7.211 -0.8900  3.3374 -0.1633
  696MOL0     H93957   1.468   4.378   7.330 -0.6705 -1.3166 -3.1174
  696MOL0     H93958   1.381   4.770   7.445  3.7873 -1.7165  2.0707
  696MOL0     H93959   1.123   3.952   7.473  0.6656 -1.7722  3.0646
  696MOL0     H93960   0.988   3.748   7.593  0.2070 -0.1930  0.2263
  697MOL0     O93961   2.866   4.468   5.101  0.4609 -0.2304 -0.4278
  697MOL0     C93962   2.925   4.446   5.202  0.1121  0.3321  0.0830
  697MOL0     O93963   2.872   4.465   5.332 -0.4002 -0.0927  0.6680
  697MOL0     C93964   2.759   4.539   5.359 -0.1952 -0.0830  0.0107
  697MOL0     C93965   2.716   4.648   5.284  0.1699 -0.1002 -0.0667
  697MOL0     C93966   2.613   4.732   5.338  0.1831 -0.1682 -0.3423
  697MOL0     C93967   2.548   4.695   5.452 -0.3044  0.4415  0.3682
  697MOL0     O93968   2.447   4.762   5.492  0.2269 -0.4805  0.5442
  697MOL0     C93969   2.455   4.811   5.623  0.4435 -0.0135 -0.1602
  697MOL0     C93970   2.354   4.926   5.642  0.1517  0.1365 -1.0375
  697MOL0     C93971   2.207   4.889   5.670  0.0087 -0.0838 -0.0494
  697MOL0     C93972   2.160   4.756   5.604  0.1032 -0.5093 -0.2781
  697MOL0     C93973   2.017   4.705   5.628 -0.2929 -0.2054  0.4031
  697MOL0     C93974   2.000   4.547   5.604 -1.0275 -0.1638 -0.5980
  697MOL0     C93975   1.888   4.489   5.698  0.2765 -1.0250 -0.0806
  697MOL0     C93976   1.761   4.445   5.632 -0.5111  0.0543 -0.0468
  697MOL0     N93977   1.781   4.311   5.566 -1.3706 -0.4437 -0.7388
  697MOL0     C93978   1.790   4.287   5.433 -0.1153 -0.0883 -0.3128
  697MOL0     C93979   1.800   4.155   5.420  0.3081 -0.6609  0.3400
  697MOL0     C93980   1.780   4.074   5.290  0.6063  0.4551  0.8030
  697MOL0     C93981   1.681   4.127   5.179  0.0743 -0.9091  0.5179
  697MOL0     C93982   1.757   4.231   5.092  0.6607  0.6643  0.9430
  697MOL0     C93983   1.782   4.176   4.949  0.6622  0.7266  0.2256
  697MOL0     O93984   1.836   4.281   4.866 -0.0757  0.1530  0.5723
  697MOL0     C93985   1.757   4.378   4.808 -1.0762  0.2285 -0.4504
  697MOL0     C93986   1.672   4.349   4.708  0.3396 -0.0730 -0.5130
  697MOL0     C93987   1.608   4.442   4.629  1.4856 -0.6520 -0.1740
  697MOL0     C93988   1.526   4.405   4.510 -0.1873  0.3552  0.3025
  697MOL0     C93989   1.608   4.579   4.676 -0.4608  0.9168 -0.2003
  697MOL0     C93990   1.517   4.679   4.640 -0.8635  0.1434  1.0906
  697MOL0     O93991   1.461   4.757   4.737  0.6444 -0.3550 -0.0566
  697MOL0     C93992   1.391   4.866   4.687 -0.3062  0.1156 -0.7865
  697MOL0     C93993   1.450   4.987   4.707  0.5279  0.2702 -0.4271
  697MOL0     C93994   1.385   5.104   4.673 -0.5348  0.3786  1.0770
  697MOL0     C93995   1.272   5.103   4.599  0.4723 -0.8913 -0.2351
  697MOL0     O93996   1.224   5.227   4.556 -0.0728 -0.1933 -0.8145
  697MOL0     C93997   1.092   5.226   4.511 -0.2724  0.6082 -0.1025
  697MOL0     C93998   1.058   5.369   4.450 -1.0431  0.0789  0.2762
  697MOL0     C93999   1.151   5.396   4.333  0.5347 -0.3403  0.0577
  697MOL0     C94000   1.122   5.535   4.273  0.2913  0.3537 -0.1714
  697MOL0     C94001   1.231   5.559   4.162  0.6546 -0.1015  1.0224
  697MOL0     C94002   1.189   5.654   4.048  0.5998  0.0908  0.1675
  697MOL0     C94003   1.292   5.659   3.939 -0.0115 -0.8161 -0.8623
  697MOL0     C94004   1.437   5.700   3.973 -0.0678 -1.6085  0.7563
  697MOL0    Cl94005   1.482   5.826   3.859  0.5153 -0.3309 -0.3679
  697MOL0     C94006   1.211   4.980   4.574 -0.3761 -0.5162 -0.2914
  697MOL0     C94007   1.265   4.865   4.617  0.1473 -0.2252 -0.3818
  697MOL0     O94008   1.486   4.682   4.514  0.1973  0.1287 -0.1383
  697MOL0     C94009   1.691   4.606   4.782 -0.8542 -0.6447  0.9497
  697MOL0     C94010   1.763   4.507   4.851 -0.3240  0.1609  0.0619
  697MOL0     N94011   1.804   4.108   5.543 -0.1085  0.6805  0.2309
  697MOL0     N94012   1.802   4.195   5.636  0.5070 -0.7335 -0.5019
  697MOL0     C94013   2.576   4.571   5.512 -0.8049  0.4139 -0.0117
  697MOL0     C94014   2.682   4.498   5.469  0.4727  0.8371 -0.5645
  697MOL0     C94015   3.057   4.376   5.189  0.1889  0.0417 -0.4729
  697MOL0     C94016   3.120   4.374   5.066  0.3992  0.1231  0.3886
  697MOL0     C94017   3.231   4.293   5.057  0.0987  0.7345 -0.8702
  697MOL0     C94018   3.294   4.238   5.167 -0.3161  0.3933  0.1289
  697MOL0     O94019   3.414   4.174   5.169  0.2018 -0.1908  0.1703
  697MOL0     C94020   3.525   4.246   5.105 -0.3372  0.1989 -0.0192
  697MOL0     C94021   3.588   4.190   4.974  0.2655 -0.1417 -0.9505
  697MOL0     C94022   3.633   4.034   4.981  0.1160 -0.4620 -0.5081
  697MOL0     C94023   3.772   4.017   5.039 -0.0114  0.9217  0.4533
  697MOL0     C94024   3.797   3.875   5.020 -0.4066 -0.6652 -0.5363
  697MOL0     C94025   3.835   3.759   4.994 -0.9514 -0.5259 -0.2224
  697MOL0     C94026   3.236   4.257   5.293  0.0007  0.1159 -0.2477
  697MOL0     C94027   3.116   4.322   5.306  0.0210 -0.2599  0.0159
  697MOL0     H94028   2.769   4.685   5.197  0.5744  1.2541  0.7196
  697MOL0     H94029   2.578   4.819   5.285 -3.9816 -1.2658  0.2332
  697MOL0     H94030   2.425   4.729   5.690  0.1974  0.0476 -0.1955
  697MOL0     H94031   2.556   4.844   5.648 -0.5411  1.5758  2.0222
  697MOL0     H94032   2.391   4.999   5.714 -2.9944  1.0402 -0.1817
  697MOL0     H94033   2.371   4.986   5.552 -0.2484  0.6983 -0.7429
  697MOL0     H94034   2.197   4.905   5.778  2.9604  4.0878 -0.1777
  697MOL0     H94035   2.151   4.972   5.626 -0.4288  0.0775  0.7900
  697MOL0     H94036   2.166   4.776   5.496 -0.3799  1.1321 -0.0251
  697MOL0     H94037   2.225   4.672   5.632 -1.1914 -1.2724  0.5341
  697MOL0     H94038   2.009   4.718   5.736  3.1883  2.3588  0.5006
  697MOL0     H94039   1.942   4.762   5.571 -0.8699  0.4904  1.8037
  697MOL0     H94040   1.966   4.538   5.500 -1.5439  0.6545 -0.5147
  697MOL0     H94041   2.094   4.492   5.608 -1.3224 -1.0857 -3.7528
  697MOL0     H94042   1.935   4.407   5.754  1.9687  0.2353  0.4214
  697MOL0     H94043   1.857   4.570   5.764 -0.6324 -0.0509 -1.6525
  697MOL0     H94044   1.749   4.523   5.556 -1.1837  3.9423  3.6619
  697MOL0     H94045   1.673   4.439   5.697 -2.0984  1.4439 -1.9627
  697MOL0     H94046   1.768   4.354   5.350 -0.9936 -0.6621 -0.5509
  697MOL0     H94047   1.870   4.035   5.241 -1.6069 -3.3438 -0.6346
  697MOL0     H94048   1.738   3.985   5.336  2.3145 -0.2950  0.9930
  697MOL0     H94049   1.595   4.181   5.218 -0.1030 -1.8640  1.5319
  697MOL0     H94050   1.650   4.042   5.118 -1.0033 -0.3581  0.2699
  697MOL0     H94051   1.859   4.249   5.126  0.9253  2.9469 -0.7956
  697MOL0     H94052   1.703   4.326   5.088  2.8706  1.9611 -0.0556
  697MOL0     H94053   1.683   4.146   4.914  1.1521  1.1702 -1.6173
  697MOL0     H94054   1.834   4.080   4.951 -0.7784 -0.2165 -2.7464
  697MOL0     H94055   1.654   4.247   4.675 -1.1323 -0.2225  0.6330
  697MOL0     H94056   1.574   4.450   4.422 -0.7258 -0.9518 -0.7057
  697MOL0     H94057   1.524   4.298   4.485  1.1863  0.8673 -2.5000
  697MOL0     H94058   1.426   4.446   4.524 -0.9544 -1.8558  1.8821
  697MOL0     H94059   1.545   5.005   4.756  0.4873 -0.7400  0.0415
  697MOL0     H94060   1.426   5.201   4.702 -1.2828  1.2842 -0.6721
  697MOL0     H94061   1.070   5.143   4.442  0.1027  1.8230 -1.7519
  697MOL0     H94062   1.017   5.221   4.590  0.0755  1.5375  0.2960
  697MOL0     H94063   0.953   5.371   4.420 -0.4111  1.7511 -2.0957
  697MOL0     H94064   1.075   5.451   4.520  0.0794  0.0511  0.0620
  697MOL0     H94065   1.134   5.320   4.255  2.6444  0.5182 -1.3325
  697MOL0     H94066   1.255   5.378   4.360  0.3188 -1.3969  0.2307
  697MOL0     H94067   1.019   5.534   4.235  0.2669 -1.3461 -0.1444
  697MOL0     H94068   1.138   5.607   4.353 -0.4685  0.6008 -0.2329
  697MOL0     H94069   1.254   5.466   4.109 -0.9000  0.6330 -1.0758
  697MOL0     H94070   1.319   5.612   4.200  0.0593 -0.8383  3.6255
  697MOL0     H94071   1.096   5.620   4.002  0.8826  1.1649 -1.2313
  697MOL0     H94072   1.167   5.752   4.091  0.8135  0.8074 -1.3032
  697MOL0     H94073   1.258   5.740   3.874  1.3432 -0.6176 -1.3753
  697MOL0     H94074   1.293   5.568   3.879  4.2686 -1.3178 -0.3910
  697MOL0     H94075   1.510   5.620   3.957  1.9791  0.5473 -1.4371
  697MOL0     H94076   1.458   5.739   4.073  1.0781  1.5082 -0.5857
  697MOL0     H94077   1.120   4.959   4.519 -0.7105  3.0933 -1.3865
  697MOL0     H94078   1.209   4.776   4.590  2.3538 -1.0254 -2.7525
  697MOL0     H94079   1.687   4.707   4.822 -1.0510 -0.6642  0.9784
  697MOL0     H94080   1.829   4.540   4.931  1.3679  1.6825 -1.8167
  697MOL0     H94081   2.529   4.537   5.604 -0.6107 -0.4148 -0.2136
  697MOL0     H94082   2.725   4.423   5.534  1.9114  0.1165 -2.2701
  697MOL0     H94083   3.069   4.410   4.977 -0.0395  3.5724  1.8845
  697MOL0     H94084   3.262   4.261   4.958  1.4790  0.1438 -0.2655
  697MOL0     H94085   3.489   4.348   5.093 -1.2718 -0.3442 -2.4523
  697MOL0     H94086   3.613   4.255   5.169 -0.2442 -2.2113  0.2868
  697MOL0     H94087   3.671   4.256   4.949 -1.0855  1.2909 -1.8523
  697MOL0     H94088   3.515   4.198   4.893 -0.8984  0.7046  0.1245
  697MOL0     H94089   3.658   4.012   4.876  2.0178 -1.0038  0.0157
  697MOL0     H94090   3.553   3.970   5.018 -1.7978  2.1802  0.2630
  697MOL0     H94091   3.778   4.042   5.145  0.0596  0.2464  0.6119
  697MOL0     H94092   3.842   4.073   4.976 -1.2997  0.2147 -1.7052
  697MOL0     H94093   3.865   3.657   4.979  0.9076 -0.9510  4.6461
  697MOL0     H94094   3.265   4.205   5.384  0.0884  2.5010  1.1799
  697MOL0     H94095   3.075   4.326   5.406 -2.3183  5.9978 -0.7542
  698MOL0     O94096  11.115   6.674   4.451 -0.2638 -0.0045  0.0746
  698MOL0     C94097  11.159   6.790   4.475 -0.1059  0.6337 -0.6188
  698MOL0     O94098  11.229   6.820   4.585 -0.2092 -0.4826 -0.4017
  698MOL0     C94099  11.263   6.718   4.675  0.1261 -0.0158 -0.1858
  698MOL0     C94100  11.165   6.654   4.750 -0.1696 -0.7274 -0.0188
  698MOL0     C94101  11.198   6.542   4.823 -0.3426  0.3923 -0.4690
  698MOL0     C94102  11.331   6.484   4.827  0.4653  0.0166  0.0025
  698MOL0     O94103  11.357   6.355   4.874  0.6880 -0.6696  0.5772
  698MOL0     C94104  11.256   6.255   4.860  0.1632 -0.5362  0.9704
  698MOL0     C94105  11.180   6.220   4.990  0.5532 -0.3320  0.2086
  698MOL0     C94106  11.237   6.255   5.118 -0.1770  0.3649 -0.7165
  698MOL0     C94107  11.151   6.183   5.234 -1.0014 -0.0269  0.4517
  698MOL0     C94108  11.196   6.227   5.373 -0.5052  1.0825  0.2331
  698MOL0     C94109  11.346   6.189   5.407  0.7652  0.2315  0.0135
  698MOL0     C94110  11.374   6.165   5.560 -0.2876 -0.3384 -0.3108
  698MOL0     C94111  11.521   6.126   5.598  0.6518 -0.3595  0.5926
  698MOL0     N94112  11.549   5.981   5.558  0.3904 -0.5028  1.1929
  698MOL0     C94113  11.567   5.874   5.635 -0.2073  0.7241 -0.4673
  698MOL0     C94114  11.596   5.773   5.553 -0.5272  1.1069 -0.3019
  698MOL0     C94115  11.617   5.622   5.581  0.4803 -0.1374 -0.5844
  698MOL0     C94116  11.743   5.581   5.661  0.2440 -0.2205 -0.1966
  698MOL0     C94117  11.747   5.619   5.811  0.5713  0.7608 -0.0823
  698MOL0     C94118  11.648   5.528   5.901  0.5900 -0.7922  0.5864
  698MOL0     O94119  11.645   5.578   6.038  0.6311 -0.8452  0.2705
  698MOL0     C94120  11.764   5.555   6.108 -0.3926 -0.3740  1.2042
  698MOL0     C94121  11.848   5.438   6.104  0.4067  1.1997 -0.6266
  698MOL0     C94122  11.965   5.424   6.173 -0.2581 -0.4229  0.0992
  698MOL0     C94123  12.044   5.292   6.173 -0.8509 -0.2266 -0.6732
  698MOL0     C94124  12.007   5.531   6.255  0.0649  0.9458  0.3091
  698MOL0     C94125  12.119   5.529   6.357 -0.3540  0.2666 -0.3382
  698MOL0     O94126  12.150   5.654   6.411 -0.8292  1.1219  0.0432
  698MOL0     C94127  12.193   5.671   6.534  0.0710  0.2487 -0.3401
  698MOL0     C94128  12.218   5.798   6.579 -1.3791 -0.2833 -0.3561
  698MOL0     C94129  12.263   5.834   6.713  0.8226 -0.6987  0.8368
  698MOL0     C94130  12.264   5.734   6.808  0.0911 -0.5466 -0.8967
  698MOL0     O94131  12.304   5.778   6.939  0.0820  0.7469  0.2903
  698MOL0     C94132  12.257   5.697   7.052  0.1405  0.3189 -0.5643
  698MOL0     C94133  12.384   5.680   7.138  0.2002 -0.7474  0.0942
  698MOL0     C94134  12.513   5.634   7.064  0.8362  0.3641 -0.5476
  698MOL0     C94135  12.507   5.482   7.021 -0.1576 -0.0851  0.0109
  698MOL0     C94136  12.623   5.430   6.939  0.0035  0.0234  0.6882
  698MOL0     C94137  12.618   5.499   6.810  0.2607  0.0406  0.1280
  698MOL0     C94138  12.712   5.441   6.706  0.6036 -0.5387  0.1717
  698MOL0     C94139  12.666   5.503   6.571 -0.4426  0.1973  0.3711
  698MOL0    Cl94140  12.809   5.503   6.465 -0.0669 -0.2482  0.4993
  698MOL0     C94141  12.240   5.598   6.766 -0.3869 -0.8558  0.3336
  698MOL0     C94142  12.203   5.568   6.632 -0.2780 -0.2947  0.4036
  698MOL0     O94143  12.186   5.429   6.382  0.0909  0.1034  0.3295
  698MOL0     C94144  11.937   5.658   6.252 -1.2132 -0.4154  0.8875
  698MOL0     C94145  11.814   5.661   6.179 -1.5309 -0.6282  0.2241
  698MOL0     N94146  11.597   5.828   5.426 -0.4133  0.6132 -0.6060
  698MOL0     N94147  11.596   5.949   5.436 -0.0043 -0.4343  0.3341
  698MOL0     C94148  11.423   6.551   4.751 -0.1178 -0.9959 -0.5984
  698MOL0     C94149  11.385   6.666   4.674 -1.1405  0.2239  0.0432
  698MOL0     C94150  11.126   6.895   4.374 -0.2751  0.0644  0.3090
  698MOL0     C94151  11.165   7.029   4.377  0.3523  0.1579 -0.1786
  698MOL0     C94152  11.125   7.130   4.284 -0.2775  0.3262  1.1642
  698MOL0     C94153  11.061   7.093   4.163 -0.5671  1.0187  1.0992
  698MOL0     O94154  11.006   7.188   4.078  0.3026  0.5170  0.1519
  698MOL0     C94155  10.931   7.150   3.967 -0.1983 -0.0869  0.2499
  698MOL0     C94156  10.784   7.138   4.007 -0.7705 -0.3425  0.5988
  698MOL0     C94157  10.702   7.053   3.905 -0.0078 -0.4813 -0.5633
  698MOL0     C94158  10.683   7.115   3.764  0.7801 -0.4441  0.2640
  698MOL0     C94159  10.661   7.008   3.670 -0.1025 -0.2804 -0.0044
  698MOL0     C94160  10.657   6.917   3.595 -0.1242  0.7458  0.1404
  698MOL0     C94161  11.023   6.953   4.153  0.2571  0.2140 -0.0095
  698MOL0     C94162  11.063   6.859   4.251  0.2413 -0.6578  0.1927
  698MOL0     H94163  11.061   6.686   4.748  0.0859  0.1927  0.6346
  698MOL0     H94164  11.114   6.501   4.879 -2.4105  0.6990 -3.1487
  698MOL0     H94165  11.192   6.288   4.778 -0.3209 -0.3690  1.4121
  698MOL0     H94166  11.300   6.164   4.819 -0.3409  0.3539 -1.7026
  698MOL0     H94167  11.081   6.267   4.983  0.3414 -0.8397 -0.2413
  698MOL0     H94168  11.176   6.111   4.991  2.7042 -0.4605 -0.2468
  698MOL0     H94169  11.342   6.222   5.118  0.3922  2.0091  1.4936
  698MOL0     H94170  11.237   6.362   5.138 -1.3820 -0.1690  2.6172
  698MOL0     H94171  11.046   6.206   5.215 -0.4368  1.7254 -0.8425
  698MOL0     H94172  11.153   6.074   5.222  0.4965  0.1773 -1.7988
  698MOL0     H94173  11.168   6.331   5.393 -2.5926 -0.0316  4.2633
  698MOL0     H94174  11.138   6.169   5.446 -1.2835  2.4691  0.7771
  698MOL0     H94175  11.381   6.098   5.357  1.3290  1.2649 -1.5311
  698MOL0     H94176  11.410   6.272   5.376  0.6859  0.1654 -0.3364
  698MOL0     H94177  11.356   6.262   5.608 -2.1397 -0.8592  0.1190
  698MOL0     H94178  11.301   6.092   5.594  0.1127  0.4194  2.4123
  698MOL0     H94179  11.526   6.144   5.706 -3.1489  2.4062  0.5086
  698MOL0     H94180  11.596   6.193   5.555  0.9364 -1.0565 -0.0322
  698MOL0     H94181  11.542   5.849   5.738  1.7098 -0.9769 -0.3539
  698MOL0     H94182  11.522   5.588   5.625 -0.7272  3.6713  0.2181
  698MOL0     H94183  11.617   5.579   5.481  4.4989  0.7107 -1.0983
  698MOL0     H94184  11.830   5.624   5.611  1.4447 -0.0397  1.9595
  698MOL0     H94185  11.765   5.474   5.651 -0.5004 -0.3611 -0.4076
  698MOL0     H94186  11.745   5.729   5.814 -1.5012  0.9436 -3.1648
  698MOL0     H94187  11.842   5.595   5.860 -0.0032  0.2939  0.8106
  698MOL0     H94188  11.673   5.422   5.904  0.3202 -1.1442 -3.3812
  698MOL0     H94189  11.545   5.520   5.864  0.3135  0.8737  0.9109
  698MOL0     H94190  11.821   5.344   6.057 -0.0142  1.4045 -0.7987
  698MOL0     H94191  12.014   5.231   6.087  1.5018 -1.4772 -0.7076
  698MOL0     H94192  12.146   5.324   6.146 -1.5467  1.3605 -1.5441
  698MOL0     H94193  12.045   5.227   6.262 -4.2113 -0.8917 -1.0012
  698MOL0     H94194  12.209   5.881   6.509  3.3403  1.6156  0.9269
  698MOL0     H94195  12.300   5.935   6.728  1.3333 -0.4407 -1.7088
  698MOL0     H94196  12.181   5.754   7.107  2.2310  1.0394  1.8148
  698MOL0     H94197  12.219   5.598   7.026  2.9099 -0.5485 -1.7025
  698MOL0     H94198  12.411   5.774   7.187 -0.2747 -0.8147  0.4901
  698MOL0     H94199  12.360   5.610   7.218 -0.4864  0.5178  1.0314
  698MOL0     H94200  12.596   5.646   7.134  0.5694  2.2027 -0.5141
  698MOL0     H94201  12.540   5.708   6.988 -0.2435  2.9640  1.4472
  698MOL0     H94202  12.508   5.427   7.116 -1.2676  2.0814  1.3496
  698MOL0     H94203  12.409   5.458   6.980 -0.8274 -0.0514  1.5273
  698MOL0     H94204  12.609   5.322   6.929 -0.3148  0.1515 -0.3838
  698MOL0     H94205  12.717   5.447   6.993 -0.5941  0.1744  1.7023
  698MOL0     H94206  12.522   5.498   6.758  2.2388  0.4716 -3.9754
  698MOL0     H94207  12.650   5.602   6.828 -2.4951  0.7465  1.5649
  698MOL0     H94208  12.700   5.333   6.698  0.1288 -0.7758  3.0383
  698MOL0     H94209  12.813   5.467   6.739  0.0652 -0.2395  1.6908
  698MOL0     H94210  12.627   5.604   6.588  0.0844  0.8741 -2.1068
  698MOL0     H94211  12.591   5.431   6.540 -1.2497 -0.3987  3.3759
  698MOL0     H94212  12.249   5.516   6.836  0.2793 -1.1445 -0.0842
  698MOL0     H94213  12.206   5.463   6.605  1.3538  0.0943 -1.0820
  698MOL0     H94214  11.968   5.742   6.313  0.0737 -0.5088  0.3819
  698MOL0     H94215  11.764   5.757   6.176 -2.4154 -1.0746  0.1940
  698MOL0     H94216  11.519   6.502   4.756  0.6556  0.5680  1.4027
  698MOL0     H94217  11.456   6.719   4.611  0.5773  2.4463  3.5094
  698MOL0     H94218  11.215   7.064   4.467  0.5682 -0.6786  0.0345
  698MOL0     H94219  11.149   7.233   4.309 -1.0841  0.9995 -0.6722
  698MOL0     H94220  10.939   7.235   3.900  0.9341 -1.0249 -0.8529
  698MOL0     H94221  10.962   7.061   3.912  0.2072 -1.2324  2.2360
  698MOL0     H94222  10.753   7.243   4.011 -4.3381 -1.2732  0.6332
  698MOL0     H94223  10.782   7.097   4.108  0.6886  0.2195  0.8832
  698MOL0     H94224  10.604   7.044   3.951  0.4655 -2.9899  0.1061
  698MOL0     H94225  10.763   6.962   3.895  1.4867  0.6878 -3.1775
  698MOL0     H94226  10.775   7.171   3.741  0.3909  0.0422 -0.1416
  698MOL0     H94227  10.606   7.193   3.768  3.1125  2.1819 -1.9073
  698MOL0     H94228  10.638   6.838   3.525  2.3491 -1.0845  1.3874
  698MOL0     H94229  10.963   6.922   4.068 -1.6232  4.2098 -0.3723
  698MOL0     H94230  11.040   6.754   4.240  2.1646 -1.1407  0.5312
  699MOL0     O94231   7.014   0.469   6.506  0.1673  0.2991 -0.4184
  699MOL0     C94232   7.058   0.394   6.421  0.4868 -0.6228 -1.1329
  699MOL0     O94233   7.156   0.437   6.335  1.0719  0.2208 -0.0879
  699MOL0     C94234   7.196   0.570   6.342  0.5943 -0.4759 -0.0494
  699MOL0     C94235   7.331   0.601   6.381  0.9955  0.8533  0.6533
  699MOL0     C94236   7.369   0.736   6.394  0.2751  0.2924 -0.0336
  699MOL0     C94237   7.279   0.841   6.364  0.7958 -0.1714  0.3016
  699MOL0     O94238   7.326   0.967   6.384  0.0980 -0.7903  0.7006
  699MOL0     C94239   7.286   1.066   6.284 -0.1483 -1.0810 -1.2546
  699MOL0     C94240   7.393   1.172   6.279 -0.2408  0.2357  0.7159
  699MOL0     C94241   7.528   1.099   6.238 -0.0363 -0.3161 -0.4245
  699MOL0     C94242   7.655   1.177   6.271 -0.0599 -0.5751  0.2829
  699MOL0     C94243   7.772   1.139   6.175  0.4708 -0.2887  0.1699
  699MOL0     C94244   7.758   1.194   6.026 -0.2227 -0.1281  0.0198
  699MOL0     C94245   7.857   1.133   5.924 -0.3288 -0.2963  0.8057
  699MOL0     C94246   7.850   1.206   5.791  0.2334 -0.1725  0.3058
  699MOL0     N94247   7.916   1.153   5.672 -0.8282 -0.2569  0.2907
  699MOL0     C94248   7.887   1.032   5.614 -0.9862 -0.0536 -0.1521
  699MOL0     C94249   7.966   1.028   5.501 -0.5703 -0.0132  0.6056
  699MOL0     C94250   7.978   0.922   5.401  0.7768 -0.1176  0.1002
  699MOL0     C94251   8.119   0.862   5.392  0.9966  0.6350 -0.5609
  699MOL0     C94252   8.169   0.787   5.521  0.1237  0.4488  0.7762
  699MOL0     C94253   8.097   0.658   5.547  0.2353  0.1958 -0.8965
  699MOL0     O94254   7.974   0.682   5.611 -0.1299 -0.5116  0.4791
  699MOL0     C94255   7.865   0.614   5.566 -0.0916 -0.9066 -0.8829
  699MOL0     C94256   7.863   0.515   5.467  0.1870 -0.8056 -0.0328
  699MOL0     C94257   7.741   0.469   5.410  0.6981  0.9616 -0.0787
  699MOL0     C94258   7.754   0.376   5.291  0.0090 -1.0026  0.3236
  699MOL0     C94259   7.621   0.525   5.459  0.7797 -0.1128 -0.1065
  699MOL0     C94260   7.486   0.496   5.395  0.5085 -0.3224 -0.4703
  699MOL0     O94261   7.378   0.491   5.475  0.3322 -0.4120 -0.6591
  699MOL0     C94262   7.264   0.453   5.411  0.4700 -0.2982 -0.0181
  699MOL0     C94263   7.235   0.330   5.350 -1.2027  1.0718 -0.7570
  699MOL0     C94264   7.112   0.297   5.302 -0.1155 -0.2642  0.7286
  699MOL0     C94265   7.008   0.391   5.312 -0.0588  0.2378 -0.8214
  699MOL0     O94266   6.884   0.347   5.285 -0.6326 -0.7514 -0.2930
  699MOL0     C94267   6.797   0.430   5.203  1.0618 -0.5578 -0.2918
  699MOL0     C94268   6.660   0.366   5.188  0.7330  0.5685  0.2194
  699MOL0     C94269   6.561   0.469   5.135  0.3176 -0.6595  0.3410
  699MOL0     C94270   6.417   0.417   5.107 -0.9954  0.2600 -0.5755
  699MOL0     C94271   6.360   0.340   5.224  0.9496  1.3719  0.2003
  699MOL0     C94272   6.352   0.408   5.365  0.2701  0.8925  0.0729
  699MOL0     C94273   6.270   0.537   5.379  0.3792 -1.0133  1.0266
  699MOL0     C94274   6.126   0.480   5.383  0.0020 -0.2426 -0.0411
  699MOL0    Cl94275   6.025   0.617   5.341  0.1607  0.1544  0.0108
  699MOL0     C94276   7.034   0.511   5.374 -0.4283 -0.1230  0.1988
  699MOL0     C94277   7.163   0.549   5.421 -0.1131  0.3333  0.2300
  699MOL0     O94278   7.479   0.495   5.272 -0.3335 -0.2260  0.8678
  699MOL0     C94279   7.624   0.623   5.559  0.5936  0.1277 -0.5235
  699MOL0     C94280   7.747   0.678   5.606  0.6685 -0.3703 -0.0901
  699MOL0     N94281   8.047   1.146   5.504 -0.4389 -0.5735 -0.8829
  699MOL0     N94282   8.020   1.211   5.617 -0.3025 -0.0253 -0.1795
  699MOL0     C94283   7.162   0.809   6.302  0.5746 -0.7577 -0.6302
  699MOL0     C94284   7.110   0.683   6.299  0.2334  0.5024 -0.4674
  699MOL0     C94285   6.993   0.264   6.413 -0.4467  0.7996  1.0142
  699MOL0     C94286   7.036   0.170   6.325 -0.0153  0.7425  0.0093
  699MOL0     C94287   6.963   0.050   6.312 -0.0023  0.7014 -0.3806
  699MOL0     C94288   6.842   0.027   6.381 -0.0283 -0.6388  0.3496
  699MOL0     O94289   6.758  -0.078   6.374 -0.3425  0.1162 -0.2833
  699MOL0     C94290   6.809  -0.199   6.303 -0.0892 -0.0336 -0.5349
  699MOL0     C94291   6.753  -0.319   6.375  0.0445  0.3177  0.7009
  699MOL0     C94292   6.827  -0.353   6.508  0.0200 -0.1213  0.5715
  699MOL0     C94293   6.764  -0.463   6.573 -0.0003  0.0564 -0.6242
  699MOL0     C94294   6.628  -0.425   6.617  0.2634 -0.1496  0.4077
  699MOL0     C94295   6.514  -0.405   6.652  1.0584  0.4293  0.9003
  699MOL0     C94296   6.796   0.121   6.466 -0.4826  0.1715 -1.1596
  699MOL0     C94297   6.884   0.234   6.488 -1.0934 -0.1375  0.0906
  699MOL0     H94298   7.394   0.513   6.392  0.6622  0.7494  1.8596
  699MOL0     H94299   7.460   0.777   6.438  0.7830  0.8518 -1.5349
  699MOL0     H94300   7.261   1.020   6.188  1.7517 -3.2331 -0.8013
  699MOL0     H94301   7.195   1.116   6.320  1.0319  2.6451 -2.9553
  699MOL0     H94302   7.362   1.238   6.198  0.7790 -1.3467 -1.0327
  699MOL0     H94303   7.417   1.210   6.379  1.1484 -0.7769  0.7961
  699MOL0     H94304   7.548   1.007   6.294  1.5653  1.1780  1.5969
  699MOL0     H94305   7.512   1.075   6.133 -2.5123 -2.1774  0.2808
  699MOL0     H94306   7.644   1.284   6.255  2.9936  0.0604  1.6789
  699MOL0     H94307   7.682   1.151   6.373 -0.4674  0.2229  0.6006
  699MOL0     H94308   7.847   1.210   6.211  2.4945 -1.0753 -2.1981
  699MOL0     H94309   7.820   1.043   6.196  2.4135  0.4432 -0.6867
  699MOL0     H94310   7.660   1.162   5.988  1.0785 -3.2748 -1.0604
  699MOL0     H94311   7.780   1.301   6.033  3.0111 -0.7398  0.8982
  699MOL0     H94312   7.955   1.155   5.967  0.8072 -1.6911 -0.8961
  699MOL0     H94313   7.851   1.024   5.926  0.7877 -0.3557  2.0737
  699MOL0     H94314   7.895   1.303   5.813  1.9708 -0.4556 -1.7107
  699MOL0     H94315   7.745   1.219   5.764 -0.2907 -2.5328  0.9332
  699MOL0     H94316   7.816   0.954   5.640  1.8864 -2.4154  1.2488
  699MOL0     H94317   7.896   0.849   5.403 -0.0484  0.7923  1.6386
  699MOL0     H94318   7.978   0.979   5.308 -0.0982  1.2802  0.9235
  699MOL0     H94319   8.192   0.942   5.373 -1.0376  2.5671 -0.6722
  699MOL0     H94320   8.108   0.798   5.305 -3.7324  1.2498 -0.6921
  699MOL0     H94321   8.184   0.847   5.610  4.7449 -2.9392  2.7263
  699MOL0     H94322   8.271   0.754   5.497 -0.0238 -2.1340  3.2388
  699MOL0     H94323   8.160   0.603   5.617 -0.4894  1.7862  1.1073
  699MOL0     H94324   8.098   0.608   5.449 -1.7859  2.2393 -2.0568
  699MOL0     H94325   7.953   0.472   5.424  2.0778  1.2999  1.5846
  699MOL0     H94326   7.655   0.338   5.267 -1.4408  2.5315  0.1202
  699MOL0     H94327   7.790   0.422   5.198  0.8181 -3.8547 -0.8879
  699MOL0     H94328   7.831   0.303   5.319  3.8153  1.8235 -1.8176
  699MOL0     H94329   7.318   0.260   5.344 -1.3808  0.9393 -1.8087
  699MOL0     H94330   7.091   0.196   5.268  2.9874 -0.4432 -1.0401
  699MOL0     H94331   6.782   0.523   5.259 -1.7617 -2.9104  3.3013
  699MOL0     H94332   6.835   0.449   5.102 -1.7868  1.2255 -1.1492
  699MOL0     H94333   6.654   0.273   5.130 -2.3772  2.0254 -2.1060
  699MOL0     H94334   6.631   0.335   5.289  0.8601  1.0911  0.4213
  699MOL0     H94335   6.606   0.506   5.042  0.9881 -3.1768 -0.4385
  699MOL0     H94336   6.560   0.549   5.209 -2.2145  0.2428 -0.5627
  699MOL0     H94337   6.347   0.493   5.072  0.0221 -0.1350 -3.9084
  699MOL0     H94338   6.434   0.351   5.021  2.6465  0.4919 -0.1931
  699MOL0     H94339   6.404   0.241   5.240 -1.4132  0.7308  3.8812
  699MOL0     H94340   6.263   0.306   5.186  1.0040 -0.8656  1.8559
  699MOL0     H94341   6.318   0.344   5.446 -3.1193  3.3639  0.7839
  699MOL0     H94342   6.456   0.440   5.380  2.7086 -4.9478 -1.4461
  699MOL0     H94343   6.291   0.614   5.305  1.9930 -1.2063  1.2365
  699MOL0     H94344   6.294   0.591   5.471 -1.3733  3.1985 -0.7769
  699MOL0     H94345   6.102   0.444   5.484 -0.3364 -1.3317 -0.4952
  699MOL0     H94346   6.102   0.392   5.323  0.8686 -2.0826  2.1259
  699MOL0     H94347   6.954   0.580   5.397 -0.7075 -0.2586 -0.3662
  699MOL0     H94348   7.193   0.644   5.463  0.8903 -0.1239  0.5710
  699MOL0     H94349   7.528   0.668   5.582  0.8939  0.2038  0.6344
  699MOL0     H94350   7.744   0.768   5.668  1.4677  2.3690 -3.6858
  699MOL0     H94351   7.101   0.894   6.270  1.3446 -0.0666 -0.3040
  699MOL0     H94352   7.006   0.666   6.273  0.5437 -1.0952 -0.7886
  699MOL0     H94353   7.120   0.191   6.261  0.2852 -1.0483 -0.2451
  699MOL0     H94354   7.002  -0.016   6.236 -1.3070  0.2242 -0.6545
  699MOL0     H94355   6.779  -0.193   6.198  0.6622 -0.2613 -0.7691
  699MOL0     H94356   6.917  -0.206   6.316 -0.3844 -0.1616  2.7367
  699MOL0     H94357   6.749  -0.401   6.302 -2.3318  0.8977  0.0952
  699MOL0     H94358   6.648  -0.294   6.392  0.0697  2.2057 -1.4750
  699MOL0     H94359   6.835  -0.262   6.568  3.6153 -0.8537  1.3810
  699MOL0     H94360   6.927  -0.388   6.483 -1.4480 -3.3996 -1.4594
  699MOL0     H94361   6.839  -0.476   6.652  2.0222  0.8573 -2.2968
  699MOL0     H94362   6.762  -0.549   6.505 -1.2691  0.8398 -1.6237
  699MOL0     H94363   6.418  -0.400   6.698 -0.4314  0.6689 -1.9712
  699MOL0     H94364   6.699   0.103   6.511  0.4368 -1.3821  0.3006
  699MOL0     H94365   6.863   0.313   6.559  3.5186  2.0226 -0.5960
  700MOL0     O94366   3.497   6.774   7.868 -0.1516  0.5379  0.0846
  700MOL0     C94367   3.527   6.702   7.772  0.0959  0.3020  0.2410
  700MOL0     O94368   3.474   6.709   7.650 -0.4519 -0.2246  0.7927
  700MOL0     C94369   3.354   6.768   7.624  0.5058 -0.5103 -0.0176
  700MOL0     C94370   3.334   6.831   7.502 -0.5800  0.8535 -0.2882
  700MOL0     C94371   3.214   6.883   7.462 -0.0266  0.2406 -0.1548
  700MOL0     C94372   3.102   6.873   7.549 -1.2014 -0.3799  0.1249
  700MOL0     O94373   2.981   6.924   7.522 -0.7041  0.1375 -0.5234
  700MOL0     C94374   2.920   6.915   7.393  0.2064 -0.0415 -0.2660
  700MOL0     C94375   2.828   7.034   7.351 -0.0796  0.5790 -1.0065
  700MOL0     C94376   2.901   7.168   7.331  0.6741 -0.8133  1.6211
  700MOL0     C94377   2.939   7.189   7.190  0.6376  0.4811 -0.4193
  700MOL0     C94378   3.032   7.304   7.171 -0.8781  0.0615  0.0478
  700MOL0     C94379   3.060   7.352   7.014  0.5771  0.0621 -1.0964
  700MOL0     C94380   3.126   7.235   6.936  0.0345  0.0312  1.0662
  700MOL0     C94381   3.238   7.279   6.839 -0.2678  0.5214  0.0083
  700MOL0     N94382   3.369   7.330   6.894  0.2407 -0.2861  0.8264
  700MOL0     C94383   3.401   7.459   6.933 -0.4134 -0.9853 -0.5780
  700MOL0     C94384   3.533   7.453   6.962 -0.5060  0.1061 -0.7586
  700MOL0     C94385   3.626   7.576   7.000  0.1896  1.0843 -0.0075
  700MOL0     C94386   3.583   7.631   7.136  0.2917  0.2600 -0.0607
  700MOL0     C94387   3.713   7.680   7.202 -0.0073 -0.6206 -0.3144
  700MOL0     C94388   3.703   7.749   7.341 -0.2970 -0.2898  0.5062
  700MOL0     O94389   3.832   7.799   7.364 -0.0603  0.6486  0.2381
  700MOL0     C94390   3.841   7.877   7.474  0.0344 -1.2574 -0.0793
  700MOL0     C94391   3.802   8.011   7.474 -0.7519 -1.1200  0.4741
  700MOL0     C94392   3.819   8.103   7.588  0.4570  0.7308  0.8351
  700MOL0     C94393   3.781   8.245   7.561 -0.1272 -0.5587 -0.9731
  700MOL0     C94394   3.897   8.055   7.702  0.6117 -0.7919 -0.2361
  700MOL0     C94395   3.936   8.131   7.822  0.0611 -1.3644  0.6890
  700MOL0     O94396   3.868   8.245   7.847  0.2442 -0.3704  0.3174
  700MOL0     C94397   3.934   8.333   7.931  0.6793  0.2163 -0.9549
  700MOL0     C94398   3.871   8.365   8.050 -0.5546  1.2004  0.4136
  700MOL0     C94399   3.941   8.443   8.144 -0.2333 -0.2354  0.2611
  700MOL0     C94400   4.074   8.483   8.129 -0.5434 -0.7072  0.8132
  700MOL0     O94401   4.155   8.542   8.220 -0.3422  0.0580  0.1132
  700MOL0     C94402   4.111   8.622   8.333 -0.0151  0.2067 -0.0213
  700MOL0     C94403   4.107   8.768   8.281 -0.5308 -0.6125 -0.2923
  700MOL0     C94404   4.017   8.873   8.356  0.1565  0.2802  0.9380
  700MOL0     C94405   4.036   8.864   8.503  0.1758  0.2510  0.1051
  700MOL0     C94406   3.957   8.974   8.564 -0.3151  0.3765  0.0402
  700MOL0     C94407   3.979   8.989   8.714  0.3996 -0.4602  1.1233
  700MOL0     C94408   3.874   9.082   8.781 -0.9515 -0.7960  0.8540
  700MOL0     C94409   3.874   9.054   8.925 -0.6434 -0.1493 -0.0621
  700MOL0    Cl94410   3.790   9.185   8.995  1.0094 -0.3151 -0.3684
  700MOL0     C94411   4.132   8.442   8.002  0.8873 -0.0960 -0.0086
  700MOL0     C94412   4.056   8.375   7.908  0.4694  0.6649  0.4022
  700MOL0     O94413   4.029   8.090   7.891  0.1428  0.0856  0.1282
  700MOL0     C94414   3.936   7.922   7.705  0.7532  0.3553  0.3039
  700MOL0     C94415   3.907   7.837   7.591 -0.2290 -0.4909  0.1999
  700MOL0     N94416   3.577   7.331   6.932 -0.5125 -0.5682 -0.5722
  700MOL0     N94417   3.485   7.259   6.887  0.5357 -0.5108 -0.1452
  700MOL0     C94418   3.125   6.812   7.669 -0.0683  0.5822 -0.0117
  700MOL0     C94419   3.243   6.751   7.705 -0.0851  0.9335 -0.3013
  700MOL0     C94420   3.654   6.627   7.778 -0.6028  0.3946  0.1868
  700MOL0     C94421   3.704   6.552   7.666 -0.2317 -0.7719 -0.3863
  700MOL0     C94422   3.824   6.479   7.681  0.9038  0.6938  0.1754
  700MOL0     C94423   3.909   6.495   7.784 -0.0708  0.0716  0.6064
  700MOL0     O94424   4.036   6.443   7.784  0.6117 -0.8955  0.4648
  700MOL0     C94425   4.127   6.430   7.894 -0.6606 -0.1526 -0.9554
  700MOL0     C94426   4.070   6.341   8.008 -0.4311  0.4209 -0.9573
  700MOL0     C94427   4.154   6.345   8.139 -0.3966 -0.6191  0.7945
  700MOL0     C94428   4.299   6.286   8.125  0.5764 -0.0500 -0.6006
  700MOL0     C94429   4.368   6.278   8.253  0.5428  0.5579  1.0852
  700MOL0     C94430   4.406   6.268   8.371  0.2809 -1.1817  0.4180
  700MOL0     C94431   3.868   6.575   7.885  0.0100 -0.2360  0.6978
  700MOL0     C94432   3.732   6.627   7.895 -0.1477 -0.2765  0.9168
  700MOL0     H94433   3.420   6.844   7.437  0.7616 -2.1696  0.7071
  700MOL0     H94434   3.211   6.950   7.377 -1.6184  2.7836  1.7619
  700MOL0     H94435   2.998   6.904   7.317 -0.3198 -2.4620 -0.5247
  700MOL0     H94436   2.849   6.832   7.392 -0.9273  0.8884  0.3164
  700MOL0     H94437   2.762   7.012   7.267 -2.4641 -0.9929  1.1239
  700MOL0     H94438   2.750   7.044   7.427  1.0413  0.0689  0.2447
  700MOL0     H94439   2.831   7.250   7.353 -1.5458 -0.8222 -3.7685
  700MOL0     H94440   2.995   7.168   7.386  0.8662 -1.9632  1.3147
  700MOL0     H94441   2.999   7.104   7.157  0.9567  0.8489 -0.7893
  700MOL0     H94442   2.843   7.181   7.139  0.4902  0.3552 -0.1295
  700MOL0     H94443   2.993   7.384   7.234  0.9324  0.5712  0.5820
  700MOL0     H94444   3.130   7.273   7.208 -0.3393 -0.0353 -1.3822
  700MOL0     H94445   2.964   7.371   6.966 -0.4135 -1.4101  0.1754
  700MOL0     H94446   3.124   7.441   7.007 -0.0069  0.3902 -2.6083
  700MOL0     H94447   3.178   7.166   7.004 -1.6280  0.9582  3.3933
  700MOL0     H94448   3.048   7.182   6.881  1.1714 -2.3920  1.6294
  700MOL0     H94449   3.198   7.351   6.767 -0.7928  1.0797  0.8421
  700MOL0     H94450   3.262   7.191   6.778 -2.6221  0.2165 -0.5873
  700MOL0     H94451   3.340   7.548   6.940 -2.6750 -2.5366  2.5009
  700MOL0     H94452   3.727   7.533   7.007 -0.4789 -0.4831  0.6219
  700MOL0     H94453   3.625   7.659   6.929  3.8657 -0.2690 -1.9420
  700MOL0     H94454   3.533   7.559   7.201  0.1326  2.5927  2.5515
  700MOL0     H94455   3.516   7.716   7.118 -1.0277 -1.4098 -4.6953
  700MOL0     H94456   3.785   7.745   7.152  1.2131  0.0783  2.1841
  700MOL0     H94457   3.777   7.592   7.216  0.9885 -0.5716 -3.6866
  700MOL0     H94458   3.682   7.685   7.426 -2.3906  0.0376  0.2934
  700MOL0     H94459   3.627   7.828   7.348  0.1745  0.4459 -1.6741
  700MOL0     H94460   3.760   8.063   7.389  1.0116  0.0624  0.2692
  700MOL0     H94461   3.718   8.303   7.629 -2.5527  0.3383 -3.7691
  700MOL0     H94462   3.875   8.298   7.540 -1.9234  2.8652 -1.1073
  700MOL0     H94463   3.716   8.241   7.473  0.2224  2.8491 -1.5181
  700MOL0     H94464   3.773   8.325   8.073 -0.5718 -0.9597 -2.7393
  700MOL0     H94465   3.896   8.462   8.240  2.7099 -1.3290  1.9820
  700MOL0     H94466   4.013   8.589   8.369  1.2429 -0.0633  3.5601
  700MOL0     H94467   4.175   8.625   8.421  0.4262  2.2788 -0.3509
  700MOL0     H94468   4.211   8.800   8.270 -0.8138 -0.4405 -3.3472
  700MOL0     H94469   4.067   8.763   8.179 -1.7566 -2.5177  0.2168
  700MOL0     H94470   3.915   8.848   8.323  1.2500 -1.8662 -1.2017
  700MOL0     H94471   4.030   8.977   8.325  0.1953 -0.0682 -0.2842
  700MOL0     H94472   3.989   8.771   8.537  1.0427 -0.8063 -1.4510
  700MOL0     H94473   4.138   8.872   8.542  0.2289  2.3795 -0.3570
  700MOL0     H94474   3.850   8.983   8.542 -0.2100  0.8982 -0.2727
  700MOL0     H94475   4.013   9.061   8.528  0.8808 -0.2401  0.3601
  700MOL0     H94476   3.965   8.885   8.745  0.0607 -0.4900  0.8751
  700MOL0     H94477   4.081   9.023   8.734  0.6992 -1.2848  1.0495
  700MOL0     H94478   3.775   9.051   8.745 -1.6833 -1.8180  3.4950
  700MOL0     H94479   3.895   9.188   8.766 -0.9502 -1.0033 -0.6861
  700MOL0     H94480   3.974   9.052   8.970 -0.1250 -1.7078 -1.2224
  700MOL0     H94481   3.835   8.954   8.945  0.3022 -0.2485  1.5075
  700MOL0     H94482   4.239   8.458   7.991  0.9005 -0.6568 -0.7752
  700MOL0     H94483   4.105   8.347   7.815  0.0384  1.7589 -0.1797
  700MOL0     H94484   3.978   7.879   7.796  1.8202  0.8496  0.0682
  700MOL0     H94485   3.927   7.731   7.586 -2.4567 -1.2611  3.8625
  700MOL0     H94486   3.039   6.812   7.735  0.2086  1.4248  0.3696
  700MOL0     H94487   3.254   6.708   7.804 -1.5574  0.3343 -0.3835
  700MOL0     H94488   3.637   6.544   7.581 -0.3499 -0.0747 -0.3688
  700MOL0     H94489   3.856   6.394   7.621  2.1054  0.4923  1.0534
  700MOL0     H94490   4.217   6.377   7.863 -0.1033 -1.6901  2.7950
  700MOL0     H94491   4.157   6.531   7.924  1.4734 -1.2179  0.7385
  700MOL0     H94492   4.077   6.241   7.963  1.8296  1.1911 -2.4652
  700MOL0     H94493   3.967   6.370   8.034  0.7999  4.2892  0.1496
  700MOL0     H94494   4.106   6.282   8.214 -2.0350 -1.1138 -0.5964
  700MOL0     H94495   4.150   6.447   8.178  2.4934 -0.9180  2.0871
  700MOL0     H94496   4.351   6.343   8.048 -2.5621 -0.1909 -3.0671
  700MOL0     H94497   4.289   6.184   8.087 -0.8068  0.1144 -0.7351
  700MOL0     H94498   4.438   6.264   8.473  1.5728  1.1749  0.1985
  700MOL0     H94499   3.927   6.583   7.975  1.0330 -2.6056  0.3109
  700MOL0     H94500   3.692   6.678   7.982  0.0536 -1.4524  1.7249
  701MOL0     O94501  11.134   9.529   1.332 -0.2291  0.7523 -0.0098
  701MOL0     C94502  11.039   9.450   1.319 -0.0865 -0.2029 -0.1052
  701MOL0     O94503  11.004   9.393   1.189 -0.6158 -0.2542 -0.1546
  701MOL0     C94504  11.042   9.439   1.064  0.2847 -0.7369  0.1605
  701MOL0     C94505  11.102   9.566   1.035  0.0283 -0.0578  0.2177
  701MOL0     C94506  11.147   9.593   0.905 -0.8245 -0.3461  1.2626
  701MOL0     C94507  11.138   9.496   0.803 -0.0353  0.5079  1.4076
  701MOL0     O94508  11.188   9.505   0.680  0.5552  0.7208  0.7153
  701MOL0     C94509  11.107   9.593   0.605  0.5544 -0.2237 -0.2724
  701MOL0     C94510  11.043   9.530   0.486  0.1380  0.3098 -0.4052
  701MOL0     C94511  11.150   9.483   0.380 -0.3221  0.0739  0.0803
  701MOL0     C94512  11.075   9.486   0.251  0.0501  0.3249 -0.5905
  701MOL0     C94513  11.139   9.393   0.144 -1.1752  0.3736 -0.1271
  701MOL0     C94514  11.069   9.391   0.009  0.4325  0.1766  1.1173
  701MOL0     C94515  11.149   9.326  -0.104 -0.2325  0.4244 -0.0027
  701MOL0     C94516  11.121   9.170  -0.111 -0.3036 -0.5314 -0.0732
  701MOL0     N94517  11.256   9.113  -0.147 -0.5275  0.2409  1.0571
  701MOL0     C94518  11.322   9.136  -0.271  0.9807 -0.1632 -0.3530
  701MOL0     C94519  11.447   9.078  -0.259 -0.1035  0.2863  0.0482
  701MOL0     C94520  11.568   9.085  -0.343 -0.4781 -0.9738 -0.5491
  701MOL0     C94521  11.668   9.197  -0.304  0.0798 -0.3220  0.7930
  701MOL0     C94522  11.714   9.189  -0.155 -0.1276 -0.6607  1.2149
  701MOL0     C94523  11.860   9.214  -0.132  0.0514  0.7127 -0.0361
  701MOL0     O94524  11.943   9.093  -0.133  0.0962  0.1915  0.2697
  701MOL0     C94525  11.961   9.018  -0.014  0.4028 -0.5839  1.0217
  701MOL0     C94526  11.882   9.031   0.103 -0.4365  0.6185 -0.1613
  701MOL0     C94527  11.904   8.961   0.215  0.7808  0.0009 -0.4033
  701MOL0     C94528  11.798   8.971   0.324  0.8407  0.1729  0.3806
  701MOL0     C94529  12.020   8.877   0.228 -1.2002 -0.3632  0.6278
  701MOL0     C94530  12.055   8.794   0.344  0.0949 -0.0253 -0.5567
  701MOL0     O94531  12.182   8.746   0.359 -0.2863 -0.6197  0.0649
  701MOL0     C94532  12.193   8.647   0.451 -0.2713 -0.5337  0.6427
  701MOL0     C94533  12.228   8.519   0.414 -1.0744  0.6920  0.8066
  701MOL0     C94534  12.256   8.422   0.511 -0.1877 -0.0004  0.9791
  701MOL0     C94535  12.257   8.456   0.650  0.5322  0.4413  0.4773
  701MOL0     O94536  12.294   8.373   0.754 -0.9763 -0.6017 -0.3177
  701MOL0     C94537  12.289   8.230   0.734 -0.5076 -0.7638 -0.0032
  701MOL0     C94538  12.357   8.163   0.855  0.2113  0.3029  0.4348
  701MOL0     C94539  12.267   8.177   0.983 -0.3087  0.5034  0.2540
  701MOL0     C94540  12.331   8.106   1.105  0.0469  0.4769 -0.0499
  701MOL0     C94541  12.258   8.137   1.238  0.2221 -0.6840  0.9615
  701MOL0     C94542  12.134   8.045   1.251  0.2352 -0.1491 -0.7537
  701MOL0     C94543  12.080   8.053   1.402 -0.6639  0.5924  0.6888
  701MOL0     C94544  11.967   7.953   1.411  0.5298 -0.4786 -0.9697
  701MOL0    Cl94545  11.867   7.991   1.561 -0.3166 -0.0856  0.3815
  701MOL0     C94546  12.232   8.586   0.691 -0.5167  0.1666  0.2702
  701MOL0     C94547  12.209   8.677   0.588  0.2657 -0.2928  0.5214
  701MOL0     O94548  11.972   8.786   0.433  0.2509 -0.6510 -0.8061
  701MOL0     C94549  12.108   8.870   0.124  0.2382  0.8452  0.1409
  701MOL0     C94550  12.074   8.940   0.002 -0.0135  0.2711 -0.0180
  701MOL0     N94551  11.437   8.988  -0.154  0.7505 -0.4564  0.2084
  701MOL0     N94552  11.327   9.009  -0.088  0.1157  1.2537  0.3361
  701MOL0     C94553  11.067   9.380   0.828  0.8084 -0.6437  0.0178
  701MOL0     C94554  11.019   9.351   0.958  0.6378 -0.2364 -0.7497
  701MOL0     C94555  10.961   9.403   1.431  0.3871 -0.2420 -0.1679
  701MOL0     C94556  10.825   9.357   1.418  0.1702  0.3684  0.8543
  701MOL0     C94557  10.761   9.299   1.530 -0.6094 -0.2564  0.7827
  701MOL0     C94558  10.827   9.291   1.653  0.5400  0.0422  0.5562
  701MOL0     O94559  10.768   9.229   1.754  0.2150  0.9654  0.3747
  701MOL0     C94560  10.715   9.301   1.864 -0.6050 -0.5892  0.1501
  701MOL0     C94561  10.585   9.374   1.826  0.1097  0.3766  0.0453
  701MOL0     C94562  10.519   9.470   1.929 -0.4318  0.1109 -0.0426
  701MOL0     C94563  10.495   9.383   2.055  0.5904  0.2714  0.4793
  701MOL0     C94564  10.422   9.453   2.162  0.7298  1.0271  0.7577
  701MOL0     C94565  10.356   9.504   2.246 -0.5702  0.3521  1.1441
  701MOL0     C94566  10.950   9.358   1.676 -0.4578 -0.5100  0.3147
  701MOL0     C94567  11.016   9.412   1.563 -0.1568  0.5539  1.2597
  701MOL0     H94568  11.130   9.641   1.109  4.7206 -0.0514 -1.2338
  701MOL0     H94569  11.218   9.675   0.899 -0.1320 -1.0678 -1.5191
  701MOL0     H94570  11.026   9.631   0.668  0.3919 -2.2271  0.8191
  701MOL0     H94571  11.160   9.681   0.567 -1.1301  0.1389 -1.9344
  701MOL0     H94572  10.983   9.442   0.511  0.9641 -0.7842 -2.1117
  701MOL0     H94573  10.973   9.596   0.432  1.9251  2.0001 -0.7702
  701MOL0     H94574  11.247   9.532   0.387 -0.0709 -0.4104 -0.0097
  701MOL0     H94575  11.172   9.381   0.410 -0.3445  0.7433  2.5500
  701MOL0     H94576  10.976   9.442   0.266  0.9200 -1.2693  0.8350
  701MOL0     H94577  11.072   9.590   0.217  2.0003  0.6666  0.1140
  701MOL0     H94578  11.242   9.425   0.129 -0.5211 -2.3513 -2.4483
  701MOL0     H94579  11.139   9.291   0.183 -0.6896  0.4838  0.1635
  701MOL0     H94580  10.962   9.366   0.018 -0.2754  1.7733 -1.7530
  701MOL0     H94581  11.063   9.494  -0.027  2.2589 -0.0845 -0.0382
  701MOL0     H94582  11.102   9.362  -0.196 -1.3149 -1.9557 -0.4570
  701MOL0     H94583  11.253   9.361  -0.095 -0.0719  0.0537 -0.3997
  701MOL0     H94584  11.050   9.143  -0.190 -0.3801 -2.1349  0.5165
  701MOL0     H94585  11.103   9.126  -0.013  1.3565  1.8491  1.4212
  701MOL0     H94586  11.291   9.197  -0.356  2.9275 -1.7201 -2.3076
  701MOL0     H94587  11.624   8.990  -0.343 -0.9819 -1.2972 -2.2026
  701MOL0     H94588  11.536   9.105  -0.445 -0.0730 -0.7958 -0.6456
  701MOL0     H94589  11.627   9.294  -0.332 -0.4861 -0.4343  1.2023
  701MOL0     H94590  11.753   9.189  -0.372 -0.8908  3.7390 -1.2412
  701MOL0     H94591  11.682   9.094  -0.110  1.0908 -1.3816  0.6040
  701MOL0     H94592  11.659   9.264  -0.098 -0.6759  2.1516 -2.6006
  701MOL0     H94593  11.875   9.256  -0.032 -1.7195 -1.2092  1.0980
  701MOL0     H94594  11.913   9.282  -0.200  4.0650 -1.4404  0.6215
  701MOL0     H94595  11.795   9.095   0.098 -1.0145 -0.1078  0.4756
  701MOL0     H94596  11.716   9.037   0.297  1.0108  0.8365  1.4137
  701MOL0     H94597  11.756   8.871   0.343 -0.4897  0.7404  0.5091
  701MOL0     H94598  11.846   9.008   0.415 -1.3584 -2.4829  2.8118
  701MOL0     H94599  12.234   8.500   0.307  0.0760  2.3751  0.5495
  701MOL0     H94600  12.289   8.321   0.488 -0.0115  0.6950 -2.2885
  701MOL0     H94601  12.183   8.206   0.725 -0.3494 -1.3485 -0.3176
  701MOL0     H94602  12.340   8.200   0.642 -1.4278 -1.4049 -0.3140
  701MOL0     H94603  12.367   8.059   0.825 -0.0311  0.4407 -0.1417
  701MOL0     H94604  12.455   8.210   0.868  0.0624  1.0995 -1.0840
  701MOL0     H94605  12.173   8.127   0.957 -0.0373 -0.1772  0.5641
  701MOL0     H94606  12.246   8.284   0.996 -1.3539  0.3521 -0.1416
  701MOL0     H94607  12.321   7.999   1.086  0.1347  0.3190  0.8014
  701MOL0     H94608  12.433   8.142   1.119  2.2125 -4.5573 -0.8528
  701MOL0     H94609  12.211   8.236   1.237 -1.3226 -1.3962  0.7767
  701MOL0     H94610  12.319   8.119   1.327 -3.3068 -1.9148  3.2995
  701MOL0     H94611  12.060   8.075   1.176 -0.6977 -1.2342 -0.3001
  701MOL0     H94612  12.162   7.940   1.237 -4.0613 -1.6064 -0.0496
  701MOL0     H94613  12.043   8.155   1.419  0.7979  0.8384  2.8590
  701MOL0     H94614  12.158   8.047   1.478  0.0416  0.9107  0.0013
  701MOL0     H94615  12.008   7.853   1.425 -0.7037 -0.6522  2.6920
  701MOL0     H94616  11.904   7.964   1.322 -1.4606 -0.4209  0.3629
  701MOL0     H94617  12.235   8.615   0.795 -1.2999 -0.8709  0.6021
  701MOL0     H94618  12.203   8.781   0.615  0.2087 -0.2290  0.2705
  701MOL0     H94619  12.201   8.816   0.137 -1.1886 -2.2015 -1.1875
  701MOL0     H94620  12.155   8.933  -0.071  0.1612 -2.9011  0.3329
  701MOL0     H94621  11.037   9.314   0.746  1.3278 -2.3835  1.1587
  701MOL0     H94622  10.966   9.260   0.983 -2.7587  1.8259  0.1468
  701MOL0     H94623  10.772   9.358   1.324  1.5966 -0.0050  0.0155
  701MOL0     H94624  10.658   9.268   1.516 -0.6333 -0.4962  1.4360
  701MOL0     H94625  10.692   9.236   1.949 -2.6379  0.6138  0.5707
  701MOL0     H94626  10.790   9.378   1.887  0.2667 -2.1116  2.8904
  701MOL0     H94627  10.515   9.295   1.798 -0.6678  1.6529 -1.8095
  701MOL0     H94628  10.612   9.434   1.738  1.1642  0.5891  0.4903
  701MOL0     H94629  10.425   9.497   1.879 -1.4472  1.1156  2.2586
  701MOL0     H94630  10.579   9.558   1.955 -0.0784 -0.3494  0.7462
  701MOL0     H94631  10.591   9.358   2.101 -0.1716 -1.6250  1.1259
  701MOL0     H94632  10.445   9.291   2.024 -0.6744  0.3513  2.1607
  701MOL0     H94633  10.309   9.563   2.322  0.6236  1.8536  0.7686
  701MOL0     H94634  10.986   9.383   1.775 -2.7821 -2.0016  1.6386
  701MOL0     H94635  11.112   9.460   1.577  0.0043  0.2339  1.2731
  702MOL0     O94636   2.960   9.686   7.299  0.2605 -0.2068 -0.4180
  702MOL0     C94637   2.863   9.695   7.226 -0.1869 -0.6019 -0.5482
  702MOL0     O94638   2.737   9.725   7.259  0.9404 -0.3573 -0.4354
  702MOL0     C94639   2.706   9.766   7.392  0.0624  0.8465 -0.4888
  702MOL0     C94640   2.779   9.851   7.479 -0.7947 -0.5294  1.6348
  702MOL0     C94641   2.740   9.882   7.607  0.1261 -0.3120  1.0292
  702MOL0     C94642   2.630   9.824   7.657 -0.4880 -0.5824  0.2356
  702MOL0     O94643   2.569   9.865   7.775 -0.1455  0.1123 -0.3000
  702MOL0     C94644   2.600   9.996   7.836 -0.1279 -0.6003  0.1275
  702MOL0     C94645   2.699   9.998   7.947 -0.5154  0.0771  1.2944
  702MOL0     C94646   2.695   9.888   8.040 -0.1652  0.2091 -0.8132
  702MOL0     C94647   2.843   9.877   8.105 -0.0535 -0.7536  0.1437
  702MOL0     C94648   2.843   9.805   8.246  0.3660  0.7268  1.1507
  702MOL0     C94649   2.745   9.683   8.270 -0.0594  0.2422  0.5897
  702MOL0     C94650   2.775   9.624   8.409  0.2222 -0.3225 -0.2475
  702MOL0     C94651   2.896   9.529   8.408  0.4689 -0.0461 -0.2002
  702MOL0     N94652   2.874   9.415   8.314 -0.1543  0.0565  0.2314
  702MOL0     C94653   2.953   9.355   8.221  0.4680  0.1584 -0.0705
  702MOL0     C94654   2.885   9.253   8.163 -0.7328  0.3885 -0.2338
  702MOL0     C94655   2.918   9.175   8.040 -0.2828  0.1524 -0.1902
  702MOL0     C94656   3.013   9.061   8.071  0.3727  0.3129  0.0162
  702MOL0     C94657   2.949   8.956   8.161 -0.0848 -0.5196  0.3451
  702MOL0     C94658   3.027   8.825   8.154 -0.2864  0.8139 -0.3102
  702MOL0     O94659   2.944   8.708   8.212 -0.4990 -0.1403  0.4530
  702MOL0     C94660   2.932   8.705   8.349 -0.5109  0.4245 -0.0997
  702MOL0     C94661   3.034   8.741   8.448 -0.2005 -0.5005 -0.6896
  702MOL0     C94662   3.010   8.719   8.590 -0.0735 -0.0638  0.0052
  702MOL0     C94663   3.132   8.755   8.680  0.0513  0.2124 -0.1638
  702MOL0     C94664   2.893   8.654   8.628  0.3876  0.1384  0.0065
  702MOL0     C94665   2.863   8.624   8.763 -0.6875  0.8803 -0.2065
  702MOL0     O94666   2.862   8.496   8.803 -0.3673  0.9189  0.9111
  702MOL0     C94667   2.826   8.456   8.927  1.1890 -0.5025  0.1176
  702MOL0     C94668   2.899   8.345   8.977  0.7359  1.0900  0.0272
  702MOL0     C94669   2.875   8.312   9.111  0.2309 -0.8301  0.9373
  702MOL0     C94670   2.767   8.374   9.183 -0.2711 -0.1471 -0.6096
  702MOL0     O94671   2.729   8.333   9.309  0.0283 -0.5165  0.2842
  702MOL0     C94672   2.799   8.223   9.375 -0.5387  0.8924 -0.5007
  702MOL0     C94673   2.741   8.191   9.514 -0.5185 -0.5533  0.1094
  702MOL0     C94674   2.755   8.313   9.602 -0.1574  0.6759 -0.1393
  702MOL0     C94675   2.639   8.409   9.594 -0.7483 -0.5678 -0.3474
  702MOL0     C94676   2.657   8.531   9.684 -0.1526  0.7902 -0.6939
  702MOL0     C94677   2.552   8.642   9.659  0.3317  0.1690  0.0771
  702MOL0     C94678   2.547   8.748   9.766  0.4415 -0.1308 -0.4096
  702MOL0     C94679   2.674   8.832   9.778 -0.3318  0.2470 -0.9042
  702MOL0    Cl94680   2.683   8.953   9.643  0.4493 -0.2898 -0.1233
  702MOL0     C94681   2.681   8.467   9.118 -0.7987  0.3839  0.7005
  702MOL0     C94682   2.717   8.506   8.990  0.2326 -0.4572  0.3888
  702MOL0     O94683   2.809   8.715   8.820 -1.0927 -0.0966  1.0500
  702MOL0     C94684   2.792   8.615   8.529 -0.1136  0.6201  0.5986
  702MOL0     C94685   2.817   8.649   8.397  0.4077  0.5931  0.5561
  702MOL0     N94686   2.761   9.251   8.231  0.1328  0.5363  0.0204
  702MOL0     N94687   2.762   9.341   8.325 -0.6348  0.1554 -0.3919
  702MOL0     C94688   2.559   9.740   7.573 -0.7964 -0.0200 -0.2561
  702MOL0     C94689   2.594   9.716   7.445  0.6424  0.5084 -0.3308
  702MOL0     C94690   2.883   9.649   7.088 -0.6571  0.8441 -0.4154
  702MOL0     C94691   2.770   9.588   7.019 -0.3355  0.9724 -0.2462
  702MOL0     C94692   2.780   9.539   6.890  1.1331 -0.3375  0.5671
  702MOL0     C94693   2.908   9.541   6.824 -1.0775 -0.0095 -0.1444
  702MOL0     O94694   2.939   9.499   6.696 -1.1143  0.4847 -0.4276
  702MOL0     C94695   2.820   9.444   6.628  0.6437 -0.1531 -0.0919
  702MOL0     C94696   2.856   9.391   6.488  0.3119 -0.9222  0.0408
  702MOL0     C94697   2.969   9.284   6.482 -0.0852  0.1504 -0.2079
  702MOL0     C94698   2.961   9.193   6.602 -0.2855  0.0142  0.0252
  702MOL0     C94699   3.053   9.083   6.575  1.0352  0.6199  0.1056
  702MOL0     C94700   3.120   8.983   6.569  0.5283 -0.5211 -0.1072
  702MOL0     C94701   3.012   9.607   6.894 -0.4800 -0.1912  0.0125
  702MOL0     C94702   2.998   9.666   7.020  0.8911  0.0570  0.4699
  702MOL0     H94703   2.867   9.904   7.448 -1.8242 -0.5858 -1.6954
  702MOL0     H94704   2.790   9.962   7.660 -0.5339  0.3063  0.7420
  702MOL0     H94705   2.639  10.073   7.770 -2.4366  2.0259  1.5948
  702MOL0     H94706   2.510  10.036   7.883  0.8984  4.3460 -1.5243
  702MOL0     H94707   2.803  10.009   7.913 -0.0490 -1.3712  2.1737
  702MOL0     H94708   2.677  10.093   7.996  1.6529  0.6993  1.2097
  702MOL0     H94709   2.628   9.906   8.125  0.6272  4.0956 -0.8346
  702MOL0     H94710   2.662   9.796   7.990  0.9282  0.1283 -1.4088
  702MOL0     H94711   2.913   9.829   8.036 -0.6491 -0.7672 -0.4558
  702MOL0     H94712   2.885   9.977   8.118 -2.3586  0.0923  1.5847
  702MOL0     H94713   2.946   9.775   8.265 -0.8112 -3.8680  1.4960
  702MOL0     H94714   2.817   9.877   8.324 -0.2281  0.4281  1.2320
  702MOL0     H94715   2.644   9.723   8.280  0.3752  1.7180 -0.5538
  702MOL0     H94716   2.746   9.607   8.191 -5.2237  1.5340 -1.1027
  702MOL0     H94717   2.778   9.699   8.489  1.5327  0.5738 -1.0941
  702MOL0     H94718   2.688   9.570   8.447 -1.6551  3.3421  1.2304
  702MOL0     H94719   2.935   9.497   8.505  4.9439  2.5472 -0.8746
  702MOL0     H94720   2.984   9.578   8.366  0.2587  1.4442  1.0177
  702MOL0     H94721   3.048   9.393   8.183  0.7789 -0.3947  0.1548
  702MOL0     H94722   2.825   9.155   7.986 -1.9739  0.0650  2.6067
  702MOL0     H94723   2.972   9.245   7.974  0.3403 -2.4783 -2.6929
  702MOL0     H94724   3.101   9.101   8.123 -0.7468  0.9141  1.5291
  702MOL0     H94725   3.062   9.014   7.985 -1.6576  1.5627 -1.9433
  702MOL0     H94726   2.854   8.934   8.113  0.1232  2.5768 -1.7609
  702MOL0     H94727   2.926   9.001   8.259 -0.4088  0.6498 -0.2490
  702MOL0     H94728   3.128   8.833   8.193  2.2096 -3.4083 -4.7430
  702MOL0     H94729   3.044   8.797   8.049 -0.6749  0.4616 -0.2835
  702MOL0     H94730   3.130   8.770   8.407 -1.0875  2.7860 -0.7664
  702MOL0     H94731   3.135   8.688   8.767 -2.2868  0.8515  0.4824
  702MOL0     H94732   3.228   8.753   8.628 -1.0211  2.3965 -2.4013
  702MOL0     H94733   3.124   8.853   8.727 -2.2189 -0.2344  0.5667
  702MOL0     H94734   2.976   8.296   8.918 -1.1509 -1.4653 -0.4938
  702MOL0     H94735   2.954   8.251   9.156 -0.0785 -2.4589 -0.6229
  702MOL0     H94736   2.777   8.129   9.323  0.3984 -0.3789  1.3003
  702MOL0     H94737   2.906   8.243   9.384 -0.6450  1.9935 -1.4099
  702MOL0     H94738   2.634   8.168   9.516 -0.1138 -2.8173 -1.3433
  702MOL0     H94739   2.797   8.108   9.557 -0.6428 -0.7125 -0.0358
  702MOL0     H94740   2.840   8.365   9.557  3.3808 -4.0856  0.3841
  702MOL0     H94741   2.762   8.287   9.708  0.9196 -0.0588 -0.3828
  702MOL0     H94742   2.631   8.442   9.490 -0.0527  0.0701 -0.2048
  702MOL0     H94743   2.553   8.352   9.630 -1.0359  0.0499 -0.0318
  702MOL0     H94744   2.758   8.573   9.682  0.3080 -0.1922  0.4754
  702MOL0     H94745   2.635   8.498   9.786 -0.5582 -2.9427 -1.8318
  702MOL0     H94746   2.578   8.686   9.562 -0.4440 -3.1385 -1.8075
  702MOL0     H94747   2.452   8.597   9.660  0.1572  0.5292  1.9716
  702MOL0     H94748   2.526   8.705   9.864  1.4505 -0.1936 -0.2114
  702MOL0     H94749   2.480   8.832   9.746  2.9400  1.8083 -1.1994
  702MOL0     H94750   2.768   8.778   9.788 -1.2317 -0.9868  1.8657
  702MOL0     H94751   2.665   8.891   9.870 -1.9794 -0.8988 -0.2810
  702MOL0     H94752   2.598   8.517   9.167 -1.2890  0.8008 -0.5130
  702MOL0     H94753   2.659   8.593   8.959 -0.3232 -0.7656  0.5313
  702MOL0     H94754   2.715   8.551   8.570  0.1620 -0.0246  0.1169
  702MOL0     H94755   2.739   8.614   8.329 -0.6024 -1.3164  2.5871
  702MOL0     H94756   2.467   9.704   7.618 -0.0861  1.8611  3.0541
  702MOL0     H94757   2.529   9.657   7.382  0.1020  1.6832 -0.8994
  702MOL0     H94758   2.672   9.579   7.065 -1.7445  0.3296 -3.1592
  702MOL0     H94759   2.697   9.493   6.837  1.4603  0.3372 -0.5941
  702MOL0     H94760   2.783   9.355   6.681  0.4042 -1.7410 -2.7801
  702MOL0     H94761   2.741   9.519   6.619 -1.4246 -2.2506 -0.5038
  702MOL0     H94762   2.864   9.467   6.410 -2.5368 -2.6134 -2.1073
  702MOL0     H94763   2.767   9.331   6.466 -2.5199  1.8725  2.7102
  702MOL0     H94764   3.065   9.336   6.473  0.3268 -0.3870  0.8432
  702MOL0     H94765   2.944   9.223   6.395  0.0395 -1.0932  0.6138
  702MOL0     H94766   2.861   9.151   6.614  0.0835 -1.3702 -1.3887
  702MOL0     H94767   3.001   9.242   6.691 -1.0781  0.0475  0.3660
  702MOL0     H94768   3.187   8.900   6.556 -1.5154 -1.8514 -4.2016
  702MOL0     H94769   3.110   9.601   6.848 -0.0276  1.0611  0.7681
  702MOL0     H94770   3.085   9.718   7.061  0.8910  0.3921  0.0634
  703MOL0     O94771   8.942   1.093   6.188 -0.0542 -0.2327  0.2872
  703MOL0     C94772   8.891   1.083   6.081 -0.3057  0.1906 -0.4923
  703MOL0     O94773   8.833   0.962   6.030  0.8510  0.3681  0.2767
  703MOL0     C94774   8.776   0.873   6.121  0.0235  0.1588 -0.5889
  703MOL0     C94775   8.793   0.740   6.105 -0.1630 -0.3920  0.5817
  703MOL0     C94776   8.768   0.648   6.213  0.1005 -1.2443  0.4372
  703MOL0     C94777   8.717   0.694   6.330  0.5819 -0.0756  0.1533
  703MOL0     O94778   8.703   0.600   6.427 -0.0710  1.0573  0.3672
  703MOL0     C94779   8.729   0.645   6.556 -0.7316 -1.1935  0.4821
  703MOL0     C94780   8.768   0.523   6.639  0.1181  0.8014  0.0595
  703MOL0     C94781   8.913   0.476   6.640 -0.0338 -0.2640  0.0786
  703MOL0     C94782   8.965   0.442   6.494 -0.5825  0.1286  0.1520
  703MOL0     C94783   9.110   0.384   6.502 -0.0973 -0.0113  0.5551
  703MOL0     C94784   9.162   0.323   6.368 -0.7076  0.7422 -0.5837
  703MOL0     C94785   9.093   0.189   6.345 -0.4069  0.2115  0.0564
  703MOL0     C94786   9.180   0.104   6.244  0.1632  0.1772  0.6839
  703MOL0     N94787   9.300   0.050   6.308  0.0954 -0.6824  0.4008
  703MOL0     C94788   9.426   0.105   6.288 -0.3691  0.4786  0.7768
  703MOL0     C94789   9.505   0.010   6.327 -0.3386 -0.6474  0.8383
  703MOL0     C94790   9.657   0.018   6.323  1.0538 -0.2940 -0.1696
  703MOL0     C94791   9.710   0.075   6.193  0.1011  0.0664  0.2070
  703MOL0     C94792   9.864   0.114   6.200 -0.5334  0.2833 -0.3532
  703MOL0     C94793   9.925   0.136   6.055  0.1539  0.9151  0.1497
  703MOL0     O94794   9.861   0.252   6.000  0.0721  0.3058  0.7640
  703MOL0     C94795   9.946   0.329   5.925 -1.0368  0.2964  0.9645
  703MOL0     C94796  10.032   0.410   5.988  0.2999  0.0288 -0.4075
  703MOL0     C94797  10.124   0.494   5.920 -0.1985 -0.1695  0.1089
  703MOL0     C94798  10.201   0.595   6.013 -0.8079  1.3928  0.4045
  703MOL0     C94799  10.116   0.506   5.773  0.0308 -0.6289 -0.1435
  703MOL0     C94800  10.200   0.600   5.697 -0.4857 -0.0354  0.3128
  703MOL0     O94801  10.170   0.620   5.564 -0.1424  0.1975 -0.6117
  703MOL0     C94802  10.262   0.688   5.483  0.9023  0.3468 -0.7317
  703MOL0     C94803  10.292   0.828   5.508 -0.2188  0.0999  0.4756
  703MOL0     C94804  10.388   0.895   5.421  0.6165 -0.0730 -0.2446
  703MOL0     C94805  10.434   0.819   5.309 -0.9777  0.7361 -0.0832
  703MOL0     O94806  10.538   0.861   5.227  0.4354  0.8800  0.4802
  703MOL0     C94807  10.634   0.954   5.278  0.1553 -0.8823 -0.7004
  703MOL0     C94808  10.763   0.957   5.180 -0.1668 -0.2460 -0.2500
  703MOL0     C94809  10.859   1.069   5.227 -0.4099 -0.9723  0.1776
  703MOL0     C94810  10.992   1.061   5.155  0.1913  0.0173  0.2274
  703MOL0     C94811  11.082   1.176   5.191 -0.4727  0.6191  1.6771
  703MOL0     C94812  11.227   1.140   5.127  0.2221  0.3034 -0.7636
  703MOL0     C94813  11.351   1.224   5.170  0.3059  0.8342 -0.5561
  703MOL0     C94814  11.367   1.223   5.319  0.4921 -0.3370 -0.7237
  703MOL0    Cl94815  11.336   1.063   5.391  0.5930 -0.2369 -0.3243
  703MOL0     C94816  10.393   0.686   5.290 -0.3279  1.2359 -0.5120
  703MOL0     C94817  10.311   0.623   5.372 -0.2174 -0.0676  0.4231
  703MOL0     O94818  10.299   0.649   5.746  0.6991 -0.2785 -1.6028
  703MOL0     C94819  10.013   0.420   5.706 -0.4086  0.0066  0.9169
  703MOL0     C94820   9.934   0.331   5.785  0.2338  1.3571  0.5331
  703MOL0     N94821   9.429  -0.099   6.377 -0.0452 -0.3054 -0.1572
  703MOL0     N94822   9.303  -0.074   6.369  0.5923 -0.4503 -0.1352
  703MOL0     C94823   8.689   0.826   6.347  0.8633  0.3385 -0.4795
  703MOL0     C94824   8.722   0.913   6.247  0.1779  0.3874 -0.8848
  703MOL0     C94825   8.942   1.165   5.980  1.0646 -0.5366  0.5945
  703MOL0     C94826   9.083   1.187   5.964 -0.6725  0.8118 -0.0115
  703MOL0     C94827   9.145   1.256   5.860  0.4201 -0.6268 -0.0729
  703MOL0     C94828   9.056   1.293   5.761  0.4589 -0.7682 -0.6617
  703MOL0     O94829   9.093   1.345   5.645 -0.3581 -0.4761 -0.1103
  703MOL0     C94830   9.227   1.340   5.596  1.0757 -0.4726  0.6833
  703MOL0     C94831   9.239   1.401   5.456  0.5505  0.2353 -0.1946
  703MOL0     C94832   9.366   1.362   5.385 -0.2687  0.5962  0.6010
  703MOL0     C94833   9.382   1.433   5.248 -0.1790  0.1800  0.0605
  703MOL0     C94834   9.507   1.391   5.186 -0.0037 -0.2099 -0.5745
  703MOL0     C94835   9.618   1.391   5.139  0.8619  0.2376  0.0055
  703MOL0     C94836   8.922   1.278   5.767 -0.1741 -0.0744  0.3583
  703MOL0     C94837   8.858   1.221   5.880 -0.5318  0.7750 -0.1108
  703MOL0     H94838   8.844   0.693   6.021  0.3192 -0.6595  1.0206
  703MOL0     H94839   8.787   0.543   6.195  0.3387 -1.0871 -0.2839
  703MOL0     H94840   8.819   0.705   6.571 -0.9585 -1.0273  1.2203
  703MOL0     H94841   8.643   0.696   6.600  0.3165 -0.5204  1.8355
  703MOL0     H94842   8.727   0.534   6.740 -2.9323  0.7233 -1.0525
  703MOL0     H94843   8.712   0.439   6.598  0.2765 -0.1587  1.7200
  703MOL0     H94844   8.970   0.556   6.688 -2.8025  0.9403  1.6309
  703MOL0     H94845   8.919   0.385   6.701 -1.2250 -1.4128 -1.4375
  703MOL0     H94846   8.897   0.370   6.447  0.8834 -1.1048 -0.1737
  703MOL0     H94847   8.963   0.533   6.433  2.2140  0.6486  0.6981
  703MOL0     H94848   9.176   0.467   6.529  2.2055 -2.3959  2.9432
  703MOL0     H94849   9.132   0.308   6.578  1.1974 -2.2336 -1.8868
  703MOL0     H94850   9.147   0.382   6.277 -1.0256  1.3443 -0.1502
  703MOL0     H94851   9.268   0.300   6.379 -1.0457  0.2282  3.3691
  703MOL0     H94852   9.087   0.126   6.434  2.1637 -0.8244 -0.4091
  703MOL0     H94853   8.994   0.206   6.301  0.1508 -1.2414 -1.9254
  703MOL0     H94854   9.206   0.162   6.155 -0.9403  1.5672  1.2213
  703MOL0     H94855   9.127   0.017   6.205  1.6276  0.8367 -3.2750
  703MOL0     H94856   9.455   0.193   6.232 -1.8756 -0.6635 -2.0456
  703MOL0     H94857   9.694   0.087   6.399 -1.2675  1.4404 -0.5241
  703MOL0     H94858   9.698  -0.083   6.331  0.9512 -0.5265 -2.1385
  703MOL0     H94859   9.659   0.164   6.155 -0.9504 -1.6001 -2.6415
  703MOL0     H94860   9.692   0.003   6.113 -0.6768  0.9023 -0.3886
  703MOL0     H94861   9.930   0.043   6.250 -1.1490 -0.1321 -0.1109
  703MOL0     H94862   9.870   0.206   6.259 -1.1437 -1.1686  2.0827
  703MOL0     H94863   9.919   0.046   5.994  0.4178  1.3540 -0.5414
  703MOL0     H94864  10.033   0.151   6.063  0.5241 -1.8460  1.3119
  703MOL0     H94865  10.031   0.416   6.096  1.9943 -1.1577 -0.2910
  703MOL0     H94866  10.288   0.543   6.052 -2.0585 -0.2885  1.0739
  703MOL0     H94867  10.233   0.692   5.973  0.4786  1.0872  0.6411
  703MOL0     H94868  10.137   0.626   6.096  0.3269  1.9339  1.0921
  703MOL0     H94869  10.247   0.879   5.593  1.0997  1.7443  0.2416
  703MOL0     H94870  10.428   0.989   5.457 -0.8268 -0.2653  2.1005
  703MOL0     H94871  10.581   1.048   5.293  1.3462 -0.6109  2.4154
  703MOL0     H94872  10.664   0.928   5.380 -0.9960 -1.9222 -0.5947
  703MOL0     H94873  10.813   0.861   5.194 -0.3816  0.1259  4.7389
  703MOL0     H94874  10.724   0.969   5.079 -3.9931  1.6688  1.2489
  703MOL0     H94875  10.872   1.066   5.335 -0.3160  0.9996  0.2607
  703MOL0     H94876  10.823   1.169   5.201  0.9307 -0.7997 -1.1469
  703MOL0     H94877  11.034   0.966   5.188  0.9355 -0.9692 -3.1137
  703MOL0     H94878  10.973   1.049   5.048  0.3676  2.5330 -0.1513
  703MOL0     H94879  11.080   1.172   5.300 -0.5462 -0.7629  1.6421
  703MOL0     H94880  11.043   1.266   5.143  2.1131  0.2792 -1.3650
  703MOL0     H94881  11.243   1.036   5.157 -1.9266  0.2119  0.2333
  703MOL0     H94882  11.226   1.142   5.018 -2.5365 -0.7741 -0.8271
  703MOL0     H94883  11.338   1.321   5.122 -1.7389  0.4890 -0.8112
  703MOL0     H94884  11.439   1.174   5.131  0.5599  1.3607 -0.6675
  703MOL0     H94885  11.293   1.295   5.356  0.1324  0.7689 -3.3618
  703MOL0     H94886  11.471   1.246   5.342 -0.0973 -0.2365  2.2146
  703MOL0     H94887  10.437   0.636   5.204 -4.3109 -3.0799 -0.4678
  703MOL0     H94888  10.295   0.518   5.348  0.6441  0.2718 -1.8457
  703MOL0     H94889  10.012   0.426   5.598 -3.2947  4.7224  0.9172
  703MOL0     H94890   9.864   0.272   5.726  0.8540 -0.4529  1.5237
  703MOL0     H94891   8.650   0.861   6.442  1.6860 -0.4476  0.1783
  703MOL0     H94892   8.727   1.017   6.278 -0.3940 -0.0866  0.9062
  703MOL0     H94893   9.138   1.154   6.052 -1.9312  4.0849  2.1841
  703MOL0     H94894   9.252   1.272   5.854  0.2736  0.0056 -1.2677
  703MOL0     H94895   9.304   1.378   5.663 -0.6857  1.9683  1.4742
  703MOL0     H94896   9.243   1.233   5.577  0.5337 -0.1786 -1.8912
  703MOL0     H94897   9.239   1.510   5.465  2.7238  0.3800 -1.2864
  703MOL0     H94898   9.152   1.368   5.399 -0.0336  1.9351 -0.3448
  703MOL0     H94899   9.360   1.255   5.366  0.0099  0.0729  3.1512
  703MOL0     H94900   9.446   1.399   5.449  2.4452  0.0302 -2.2522
  703MOL0     H94901   9.369   1.541   5.259  0.6828  0.1935  1.1058
  703MOL0     H94902   9.303   1.397   5.182  0.8719 -1.1224 -0.5533
  703MOL0     H94903   9.722   1.400   5.113  1.8986  1.0010  3.7184
  703MOL0     H94904   8.874   1.299   5.672  0.0249 -3.6226 -0.6687
  703MOL0     H94905   8.752   1.197   5.887 -0.3529 -0.2103 -0.6835
  704MOL0     O94906   7.941   5.928   8.559 -0.3354  0.1116 -0.2588
  704MOL0     C94907   8.020   5.889   8.473  0.1085  1.1638 -1.0634
  704MOL0     O94908   8.139   5.952   8.444  0.0856  0.6113  0.3163
  704MOL0     C94909   8.169   6.059   8.519  0.5332 -0.6096 -0.1540
  704MOL0     C94910   8.222   6.041   8.655  0.0371  0.6591  0.2571
  704MOL0     C94911   8.258   6.148   8.735  0.1556 -0.3371 -0.5224
  704MOL0     C94912   8.247   6.275   8.679  1.3249 -0.2042 -0.1543
  704MOL0     O94913   8.268   6.393   8.752 -0.0540  0.0452  0.2717
  704MOL0     C94914   8.356   6.401   8.862 -0.9350 -0.3620  0.2653
  704MOL0     C94915   8.507   6.374   8.810  0.9502  0.3989 -0.5781
  704MOL0     C94916   8.561   6.508   8.759  0.4441 -1.0727  0.8417
  704MOL0     C94917   8.706   6.488   8.714  0.0336  0.1218  0.0323
  704MOL0     C94918   8.755   6.623   8.677 -0.6773 -0.2769 -0.0367
  704MOL0     C94919   8.877   6.640   8.589 -0.4626 -0.1926 -0.4341
  704MOL0     C94920   8.860   6.586   8.454 -0.8287 -0.6435 -0.6510
  704MOL0     C94921   8.984   6.612   8.357 -0.9369 -0.5007  0.1986
  704MOL0     N94922   8.963   6.748   8.298  0.3411  0.0491 -0.7166
  704MOL0     C94923   8.849   6.785   8.239  1.0536  0.3941 -0.1706
  704MOL0     C94924   8.872   6.918   8.212  0.2101  0.1066 -0.2012
  704MOL0     C94925   8.790   7.014   8.121 -0.1534 -0.0471 -0.0690
  704MOL0     C94926   8.648   7.050   8.159 -0.2912 -0.5318 -0.0721
  704MOL0     C94927   8.632   7.090   8.307 -0.8019  0.0584  0.2710
  704MOL0     C94928   8.481   7.135   8.333 -0.4071  0.7144  0.4294
  704MOL0     O94929   8.449   7.261   8.275  0.2309 -0.2431  0.2954
  704MOL0     C94930   8.355   7.343   8.323 -0.9249 -1.2898  0.9084
  704MOL0     C94931   8.241   7.287   8.377  0.7882  0.6305 -0.3332
  704MOL0     C94932   8.153   7.364   8.450 -0.3742  0.7172 -0.0802
  704MOL0     C94933   8.032   7.306   8.511 -0.0393 -0.1132  0.0588
  704MOL0     C94934   8.170   7.504   8.447  0.5132  0.6933 -0.1364
  704MOL0     C94935   8.068   7.596   8.502  0.7018  0.6216 -0.4478
  704MOL0     O94936   8.118   7.709   8.561 -0.8365  0.5498  0.3891
  704MOL0     C94937   8.028   7.808   8.604  0.3131  0.0243 -0.2448
  704MOL0     C94938   7.929   7.865   8.530 -0.9045 -0.5767 -0.1853
  704MOL0     C94939   7.881   7.984   8.572 -0.1534  0.1108 -1.2932
  704MOL0     C94940   7.893   8.034   8.698  0.0469  0.1539 -0.4623
  704MOL0     O94941   7.830   8.146   8.724 -0.8810  0.0360  0.2535
  704MOL0     C94942   7.833   8.203   8.857 -0.4925  0.0125  0.0213
  704MOL0     C94943   7.754   8.328   8.843  0.1171 -1.3124 -0.4089
  704MOL0     C94944   7.699   8.370   8.978 -1.0898 -0.5342  0.4376
  704MOL0     C94945   7.632   8.505   8.970  0.2207 -0.6343 -0.1543
  704MOL0     C94946   7.602   8.575   9.101 -0.5955 -0.6143 -0.1950
  704MOL0     C94947   7.552   8.721   9.079  0.6837 -0.1369 -0.2332
  704MOL0     C94948   7.542   8.794   9.225 -0.4001 -0.1253  0.0614
  704MOL0     C94949   7.467   8.922   9.216 -0.0979 -0.7330 -0.6486
  704MOL0    Cl94950   7.387   8.955   9.378  0.3595 -0.0597 -0.3858
  704MOL0     C94951   7.981   7.968   8.791 -0.8193 -0.5046 -0.1728
  704MOL0     C94952   8.062   7.858   8.739  0.1535 -0.2917 -0.4609
  704MOL0     O94953   7.952   7.586   8.479  0.1879  0.0268  0.6001
  704MOL0     C94954   8.270   7.552   8.377 -0.1875 -0.1806 -0.1818
  704MOL0     C94955   8.368   7.479   8.312  0.2547  0.6450  0.0333
  704MOL0     N94956   8.991   6.957   8.268 -1.1162 -0.3197  0.2529
  704MOL0     N94957   9.047   6.852   8.316 -0.0145  0.2187  0.1451
  704MOL0     C94958   8.195   6.290   8.546 -0.1942  0.1475 -0.2002
  704MOL0     C94959   8.153   6.193   8.464  0.0777 -0.0374 -0.8241
  704MOL0     C94960   7.982   5.771   8.385  1.0481 -0.4478 -0.6433
  704MOL0     C94961   7.852   5.775   8.348 -0.0927 -0.4843 -0.5066
  704MOL0     C94962   7.807   5.673   8.262  0.3511 -0.0581 -0.9600
  704MOL0     C94963   7.899   5.575   8.208  0.6811  1.0036 -1.0505
  704MOL0     O94964   7.864   5.467   8.130  0.8869 -0.2780 -0.5210
  704MOL0     C94965   7.729   5.440   8.096 -0.4184  0.7614  0.8093
  704MOL0     C94966   7.648   5.380   8.218  0.4393  0.7012  0.0539
  704MOL0     C94967   7.717   5.248   8.274 -0.1576  0.0327  0.4471
  704MOL0     C94968   7.628   5.162   8.352 -0.6200  1.0967  0.0488
  704MOL0     C94969   7.556   5.237   8.455  1.3824  0.4492 -1.2690
  704MOL0     C94970   7.506   5.311   8.535  0.6126 -0.1345 -0.1935
  704MOL0     C94971   8.033   5.590   8.244 -0.1719 -0.4838 -0.5238
  704MOL0     C94972   8.082   5.689   8.334  0.1443 -0.1204  0.4622
  704MOL0     H94973   8.240   5.943   8.697  0.5702 -0.8006 -3.0847
  704MOL0     H94974   8.288   6.118   8.835 -1.6912  0.7268  0.4266
  704MOL0     H94975   8.364   6.500   8.909 -0.1335  0.8031 -2.1502
  704MOL0     H94976   8.330   6.313   8.920  3.1210 -0.2743  2.5775
  704MOL0     H94977   8.573   6.357   8.896  0.8192  1.0787 -0.3422
  704MOL0     H94978   8.499   6.295   8.734  0.7819 -1.4101  1.2252
  704MOL0     H94979   8.500   6.549   8.678  2.9486 -1.2193 -1.2936
  704MOL0     H94980   8.553   6.572   8.847 -6.0483 -1.5660  1.0752
  704MOL0     H94981   8.770   6.456   8.797 -0.5223  1.7994  1.1667
  704MOL0     H94982   8.711   6.417   8.631  0.5644 -1.5722  1.4418
  704MOL0     H94983   8.671   6.681   8.636 -0.3943 -0.0139 -0.2495
  704MOL0     H94984   8.780   6.669   8.774 -0.6849  2.6260 -1.2917
  704MOL0     H94985   8.890   6.748   8.589  0.2466 -0.2759  0.1304
  704MOL0     H94986   8.972   6.598   8.624  0.6063  2.3685 -0.0739
  704MOL0     H94987   8.857   6.477   8.455 -3.3381 -0.6304 -0.7001
  704MOL0     H94988   8.767   6.628   8.413 -0.3641  0.6960 -0.3831
  704MOL0     H94989   8.999   6.534   8.283 -1.1734 -1.0120  0.6791
  704MOL0     H94990   9.069   6.607   8.426 -0.4880 -2.4170 -0.4414
  704MOL0     H94991   8.777   6.718   8.192  0.2596  1.9897 -1.3083
  704MOL0     H94992   8.842   7.110   8.114 -0.9752  0.4385  0.2552
  704MOL0     H94993   8.800   6.978   8.018  0.9957 -0.8005  0.2918
  704MOL0     H94994   8.578   6.968   8.139 -0.8504  0.4071 -2.2438
  704MOL0     H94995   8.610   7.130   8.095  0.3062  0.4011  0.7056
  704MOL0     H94996   8.705   7.170   8.324 -0.2083 -0.8888  2.5959
  704MOL0     H94997   8.657   7.001   8.366 -0.9197 -2.4646 -3.1668
  704MOL0     H94998   8.468   7.130   8.441 -2.0044 -0.1257  0.2189
  704MOL0     H94999   8.417   7.057   8.291  0.0093 -1.0195  2.8348
  704MOL0     H95000   8.224   7.180   8.388  0.1577  0.8056  0.4949
  704MOL0     H95001   7.944   7.327   8.450 -1.0588 -1.3205  1.0628
  704MOL0     H95002   8.026   7.198   8.523 -0.3845 -0.1294 -0.2516
  704MOL0     H95003   8.020   7.352   8.610 -0.4576 -1.9518  0.9079
  704MOL0     H95004   7.900   7.832   8.431 -2.6128 -0.5723  0.2909
  704MOL0     H95005   7.822   8.046   8.505  0.2166 -0.0358 -1.7642
  704MOL0     H95006   7.783   8.128   8.919  2.7208 -1.9404  0.4917
  704MOL0     H95007   7.931   8.231   8.897  0.0166  2.1922 -2.4763
  704MOL0     H95008   7.826   8.405   8.811 -3.3527  3.7572  2.5417
  704MOL0     H95009   7.677   8.329   8.765 -1.2610  3.5692  0.6385
  704MOL0     H95010   7.776   8.378   9.055 -0.1317  1.5104 -0.6591
  704MOL0     H95011   7.623   8.297   9.004 -0.3189 -0.3850  3.4879
  704MOL0     H95012   7.694   8.563   8.900 -0.6332  0.8660  0.2960
  704MOL0     H95013   7.532   8.490   8.929 -0.3552 -1.6044  1.5001
  704MOL0     H95014   7.685   8.575   9.172  0.1875 -0.6147 -1.0987
  704MOL0     H95015   7.533   8.507   9.152  3.0081 -1.9101  3.4749
  704MOL0     H95016   7.625   8.772   9.015  2.2207  1.3002  2.4788
  704MOL0     H95017   7.450   8.722   9.042 -0.0291 -0.1445  1.6103
  704MOL0     H95018   7.638   8.812   9.274 -1.0605 -1.9939  2.1748
  704MOL0     H95019   7.484   8.729   9.290 -0.6753 -0.2827 -0.3355
  704MOL0     H95020   7.388   8.919   9.141 -0.2313 -1.1146 -0.4929
  704MOL0     H95021   7.535   9.004   9.191 -2.4434  2.2191  1.7972
  704MOL0     H95022   7.989   8.003   8.893  0.1607  0.4853 -0.5694
  704MOL0     H95023   8.145   7.820   8.797  2.0176  1.0692 -2.1422
  704MOL0     H95024   8.284   7.660   8.384  0.6309 -0.2990  0.1715
  704MOL0     H95025   8.427   7.529   8.236 -0.0635  1.5514  0.3696
  704MOL0     H95026   8.189   6.388   8.498 -1.4552  0.8088  1.2067
  704MOL0     H95027   8.125   6.199   8.360  0.9342 -0.5758 -1.0976
  704MOL0     H95028   7.778   5.848   8.379  0.6423  0.4569 -0.9318
  704MOL0     H95029   7.707   5.684   8.221  1.2687  4.5738 -2.5223
  704MOL0     H95030   7.681   5.528   8.053 -0.3049 -0.8242 -3.0230
  704MOL0     H95031   7.728   5.360   8.021  3.0410 -0.8060  2.2229
  704MOL0     H95032   7.547   5.355   8.182 -1.0053  3.5354  1.8199
  704MOL0     H95033   7.648   5.441   8.308  1.1626  3.1894 -1.5354
  704MOL0     H95034   7.805   5.268   8.336  3.2882 -1.4880 -3.5037
  704MOL0     H95035   7.763   5.182   8.201 -0.4201 -0.3504  0.6257
  704MOL0     H95036   7.672   5.078   8.407  1.0625  2.8175  1.4770
  704MOL0     H95037   7.555   5.117   8.285 -1.9995  2.5489  0.5088
  704MOL0     H95038   7.446   5.382   8.589  1.4782 -1.0126  2.0352
  704MOL0     H95039   8.102   5.511   8.218  2.8114  0.9258  2.3993
  704MOL0     H95040   8.182   5.710   8.369 -0.9003  0.0558  3.6138
  705MOL0     O95041   4.389  10.149   8.670 -0.2250 -0.4601 -0.0461
  705MOL0     C95042   4.354  10.051   8.734  0.0556 -0.7503  0.4789
  705MOL0     O95043   4.235   9.985   8.730 -0.2179 -0.1082  0.4914
  705MOL0     C95044   4.120  10.013   8.650  0.2815  0.1625  0.6303
  705MOL0     C95045   4.042  10.123   8.671  0.4479 -1.3812  0.5277
  705MOL0     C95046   3.923  10.150   8.590 -0.4822  0.3090  0.3598
  705MOL0     C95047   3.891  10.058   8.484  0.3824  0.4643 -1.0175
  705MOL0     O95048   3.786  10.083   8.407  0.0452  0.0439 -0.4842
  705MOL0     C95049   3.742  10.218   8.385  0.6693 -0.3620 -1.2341
  705MOL0     C95050   3.635  10.223   8.279 -0.9242 -0.4543  0.9903
  705MOL0     C95051   3.679  10.192   8.139  0.3163 -0.9226  0.8548
  705MOL0     C95052   3.558  10.173   8.046 -0.3410  0.6003 -0.2816
  705MOL0     C95053   3.592  10.181   7.900 -0.6270  0.2324  0.0354
  705MOL0     C95054   3.484  10.163   7.783 -0.0908  0.0528 -0.7574
  705MOL0     C95055   3.433  10.022   7.765  0.1604  0.4897  0.6078
  705MOL0     C95056   3.360   9.996   7.636  0.6283  0.1722  0.1656
  705MOL0     N95057   3.246  10.089   7.616 -0.0177 -0.4142 -0.1834
  705MOL0     C95058   3.253  10.207   7.554  0.2363 -0.6173 -0.4854
  705MOL0     C95059   3.130  10.267   7.582 -0.3546 -0.6429  0.5053
  705MOL0     C95060   3.089  10.404   7.529  0.8379 -0.3529 -0.7509
  705MOL0     C95061   3.113  10.518   7.624  0.1240 -1.2197  0.1028
  705MOL0     C95062   3.250  10.537   7.682  0.0073 -1.0329 -0.5641
  705MOL0     C95063   3.273  10.687   7.735  0.5937 -0.0521  0.2903
  705MOL0     O95064   3.347  10.671   7.861  0.2614 -0.6523  0.4838
  705MOL0     C95065   3.482  10.629   7.849 -0.1885  1.8107  0.4565
  705MOL0     C95066   3.559  10.601   7.737  0.7076  0.1079 -0.1933
  705MOL0     C95067   3.701  10.561   7.744 -0.3058  0.2193 -0.4691
  705MOL0     C95068   3.768  10.541   7.607  0.4739  0.5332  0.0650
  705MOL0     C95069   3.762  10.538   7.865 -0.3131  0.0904 -1.1262
  705MOL0     C95070   3.904  10.487   7.872  0.5070 -0.4925 -0.2750
  705MOL0     O95071   3.931  10.417   7.987 -0.6976 -0.3068  0.6837
  705MOL0     C95072   4.051  10.397   8.039  0.2889  0.1505 -1.2341
  705MOL0     C95073   4.053  10.303   8.149  0.3612 -0.5627 -0.3795
  705MOL0     C95074   4.172  10.274   8.221  0.4199  0.6219  0.9727
  705MOL0     C95075   4.291  10.355   8.199 -0.6763 -0.4056  0.4160
  705MOL0     O95076   4.394  10.354   8.287  0.6800  0.1004  0.3712
  705MOL0     C95077   4.370  10.388   8.421 -0.7413 -0.3314  0.2217
  705MOL0     C95078   4.383  10.536   8.437 -0.6451  0.6086 -0.2479
  705MOL0     C95079   4.342  10.581   8.578 -0.5303  0.1656  0.1785
  705MOL0     C95080   4.446  10.553   8.691  0.0138  1.0334 -0.0451
  705MOL0     C95081   4.384  10.602   8.819  0.2995  1.0828 -0.9089
  705MOL0     C95082   4.484  10.624   8.925 -0.0999 -0.1094  0.2789
  705MOL0     C95083   4.408  10.664   9.054 -0.9512  0.0500  0.1259
  705MOL0     C95084   4.515  10.710   9.163  0.3694 -0.3489 -0.1252
  705MOL0    Cl95085   4.634  10.824   9.106  0.2042  0.0734  0.2139
  705MOL0     C95086   4.291  10.440   8.093  0.3239  0.4378  0.2648
  705MOL0     C95087   4.173  10.459   8.013  0.4745 -0.5554 -0.3573
  705MOL0     O95088   3.982  10.532   7.792 -1.2755 -0.4529  0.7029
  705MOL0     C95089   3.679  10.548   7.977 -0.6282 -0.0573 -0.9318
  705MOL0     C95090   3.546  10.587   7.965 -0.9087  0.6295 -0.4051
  705MOL0     N95091   3.054  10.178   7.659  1.0178 -0.1793  0.8465
  705MOL0     N95092   3.123  10.073   7.669  0.5642 -0.3333 -0.9147
  705MOL0     C95093   3.970   9.949   8.461  0.1165 -1.3797  1.1716
  705MOL0     C95094   4.079   9.923   8.546 -0.3432  0.8390 -0.7431
  705MOL0     C95095   4.450   9.999   8.832 -0.7855 -0.1280  0.3464
  705MOL0     C95096   4.584  10.013   8.810 -0.1062  0.0854  0.1962
  705MOL0     C95097   4.680   9.973   8.906  0.7358 -1.2903  1.0243
  705MOL0     C95098   4.642   9.946   9.036  0.4050  0.0425 -0.0128
  705MOL0     O95099   4.741   9.919   9.128  0.4172  0.4895 -0.1343
  705MOL0     C95100   4.724   9.811   9.223 -0.0295 -0.4357  0.4181
  705MOL0     C95101   4.737   9.672   9.167 -0.5288  0.6605  0.3174
  705MOL0     C95102   4.833   9.660   9.042  0.9508  0.9318 -0.7079
  705MOL0     C95103   4.863   9.520   9.021 -0.4577  0.2361  0.7594
  705MOL0     C95104   4.758   9.452   8.946 -0.0766  0.7609  0.6972
  705MOL0     C95105   4.673   9.403   8.866  0.7355 -0.0437 -0.9620
  705MOL0     C95106   4.498   9.926   9.046 -0.9780  0.1397 -0.0872
  705MOL0     C95107   4.408   9.954   8.947 -0.8242  0.9628 -0.4675
  705MOL0     H95108   4.082  10.201   8.736 -1.7784  0.8575 -0.6146
  705MOL0     H95109   3.867  10.236   8.626 -3.2587 -2.1289  2.3491
  705MOL0     H95110   3.702  10.255   8.480  2.1759 -0.9110 -0.3547
  705MOL0     H95111   3.826  10.284   8.363  1.1793  1.1202  3.9556
  705MOL0     H95112   3.553  10.156   8.307 -1.8168 -0.4701 -1.4385
  705MOL0     H95113   3.589  10.322   8.281 -0.8005 -0.3064 -1.4667
  705MOL0     H95114   3.729  10.282   8.103 -1.4696  0.0213  0.5803
  705MOL0     H95115   3.746  10.106   8.132  0.7000 -0.6309 -6.5884
  705MOL0     H95116   3.507  10.079   8.068  0.1474  0.4613  0.2805
  705MOL0     H95117   3.475  10.242   8.068  0.4555  1.8808 -1.1550
  705MOL0     H95118   3.628  10.282   7.875  0.6166  0.0852  1.1336
  705MOL0     H95119   3.670  10.106   7.887 -2.6154 -1.9389  0.0011
  705MOL0     H95120   3.406  10.237   7.808 -0.7802 -0.7397 -0.4938
  705MOL0     H95121   3.529  10.198   7.691  0.0101  2.2107  0.0536
  705MOL0     H95122   3.513   9.949   7.781 -2.4383 -2.1978  2.2606
  705MOL0     H95123   3.355  10.004   7.839 -0.3778 -2.5998 -0.5509
  705MOL0     H95124   3.326   9.893   7.624 -1.4893  0.6198  1.6666
  705MOL0     H95125   3.440  10.008   7.562  1.8525  2.2907  1.7314
  705MOL0     H95126   3.331  10.246   7.489  0.0344  0.9090  0.1609
  705MOL0     H95127   3.141  10.409   7.433 -3.4609 -0.2735 -3.3568
  705MOL0     H95128   2.983  10.392   7.502 -0.1992 -1.3716  3.1540
  705MOL0     H95129   3.039  10.512   7.704  0.0028 -0.4341  0.0559
  705MOL0     H95130   3.079  10.598   7.558 -2.3477 -1.8451  0.5304
  705MOL0     H95131   3.327  10.532   7.605  0.9078 -1.1143  0.3193
  705MOL0     H95132   3.271  10.467   7.764 -0.0420  1.1706  1.4456
  705MOL0     H95133   3.177  10.737   7.751  0.5842 -0.7357  2.8903
  705MOL0     H95134   3.326  10.745   7.660 -0.8721 -0.5259 -1.1803
  705MOL0     H95135   3.519  10.623   7.638 -0.6102 -1.4685 -0.0519
  705MOL0     H95136   3.858  10.603   7.612  2.2992 -1.9653 -0.3167
  705MOL0     H95137   3.796  10.437   7.588 -0.5608  0.0466  1.0911
  705MOL0     H95138   3.703  10.576   7.526 -0.7874  0.4859  1.0071
  705MOL0     H95139   3.953  10.267   8.175 -1.3913  3.7362 -0.4331
  705MOL0     H95140   4.174  10.214   8.312  2.0043  1.1888  1.3484
  705MOL0     H95141   4.271  10.350   8.449 -1.2435  1.8684  1.6946
  705MOL0     H95142   4.442  10.338   8.487 -0.4174 -3.5226 -2.3129
  705MOL0     H95143   4.485  10.562   8.410 -1.2269 -0.0876 -3.5272
  705MOL0     H95144   4.312  10.579   8.365 -1.5166  0.3956  0.4681
  705MOL0     H95145   4.239  10.550   8.598 -0.8910  0.8863 -0.5273
  705MOL0     H95146   4.341  10.688   8.557 -1.0463 -0.0548 -0.9787
  705MOL0     H95147   4.487  10.452   8.691  4.0435  2.4521  0.2876
  705MOL0     H95148   4.537  10.611   8.673  0.7361 -0.5932 -1.9375
  705MOL0     H95149   4.318  10.524   8.856  0.4712  1.5513  0.4114
  705MOL0     H95150   4.331  10.696   8.802 -0.2921  0.4286 -3.0718
  705MOL0     H95151   4.529  10.525   8.929  0.8668  0.2330 -1.1090
  705MOL0     H95152   4.562  10.693   8.892  0.1872 -0.5982 -0.0748
  705MOL0     H95153   4.356  10.575   9.091 -0.8628  0.0778  0.3165
  705MOL0     H95154   4.342  10.748   9.032 -0.5211 -0.4101 -3.7001
  705MOL0     H95155   4.580  10.625   9.182 -1.8264 -1.9443  0.5536
  705MOL0     H95156   4.461  10.745   9.252 -0.4451 -0.7670 -0.4489
  705MOL0     H95157   4.384  10.494   8.078  0.0896  0.8589  0.3385
  705MOL0     H95158   4.181  10.527   7.930  0.2107 -0.3133 -0.1862
  705MOL0     H95159   3.726  10.529   8.072  1.2432  1.8666 -1.4031
  705MOL0     H95160   3.475  10.604   8.045 -0.7140 -0.6929  0.0746
  705MOL0     H95161   3.933   9.880   8.386  0.6213 -0.1577 -0.2515
  705MOL0     H95162   4.143   9.837   8.529 -1.3563 -0.3649  1.1729
  705MOL0     H95163   4.622  10.047   8.714 -2.3753 -1.4166 -1.3545
  705MOL0     H95164   4.786   9.963   8.883  0.8813 -0.1031  1.1156
  705MOL0     H95165   4.810   9.817   9.290  0.3919  0.2445 -0.1637
  705MOL0     H95166   4.632   9.829   9.280 -0.2092 -2.3721  0.8142
  705MOL0     H95167   4.638   9.636   9.138 -1.2697  3.2315 -0.6140
  705MOL0     H95168   4.770   9.605   9.247 -1.0326  0.0677  0.0360
  705MOL0     H95169   4.917   9.730   9.050  1.4141  0.3312 -0.2691
  705MOL0     H95170   4.770   9.696   8.959 -1.6768 -2.9527 -0.6671
  705MOL0     H95171   4.892   9.469   9.114  0.5364  0.1725  0.4341
  705MOL0     H95172   4.954   9.521   8.960 -0.5948  1.1445  0.5635
  705MOL0     H95173   4.597   9.346   8.816 -2.5684  2.4706  0.7803
  705MOL0     H95174   4.466   9.904   9.147  2.9404  0.3194  1.3604
  705MOL0     H95175   4.306   9.946   8.982  0.2404 -1.1294  2.6676
  706MOL0     O95176   7.224   7.776   2.909  0.3258  0.2582 -0.5480
  706MOL0     C95177   7.220   7.898   2.935  0.0494 -0.3383  0.7057
  706MOL0     O95178   7.216   7.956   3.056  0.2987  0.3814  1.3355
  706MOL0     C95179   7.233   7.878   3.161 -0.8006  0.6794 -0.0487
  706MOL0     C95180   7.151   7.896   3.269 -0.0549  0.1306 -1.4575
  706MOL0     C95181   7.168   7.833   3.392 -0.4979  0.8759  0.3225
  706MOL0     C95182   7.283   7.739   3.406 -0.3422  0.0036  0.0104
  706MOL0     O95183   7.306   7.675   3.524  0.4721 -0.0966  0.0614
  706MOL0     C95184   7.449   7.673   3.557  0.1183  0.7287 -0.4262
  706MOL0     C95185   7.478   7.624   3.703 -0.0827 -0.1048 -0.4468
  706MOL0     C95186   7.453   7.474   3.734  0.3534 -0.2142  0.8558
  706MOL0     C95187   7.426   7.432   3.881 -0.6341  0.0560 -0.2228
  706MOL0     C95188   7.407   7.285   3.882  0.1278  0.0698 -1.5305
  706MOL0     C95189   7.373   7.219   4.030 -0.3413  0.6969 -0.5275
  706MOL0     C95190   7.466   7.244   4.143  1.2538  0.4120  0.6148
  706MOL0     C95191   7.610   7.203   4.120 -0.7462  0.5225  0.3728
  706MOL0     N95192   7.693   7.264   4.221 -0.2486  0.3360  0.3734
  706MOL0     C95193   7.690   7.216   4.348 -0.1875  0.4587  0.7298
  706MOL0     C95194   7.758   7.312   4.424 -0.5477 -0.4659 -0.8225
  706MOL0     C95195   7.791   7.312   4.573  0.3735 -0.3160 -0.5257
  706MOL0     C95196   7.935   7.278   4.614 -1.3984  0.5401 -0.2383
  706MOL0     C95197   7.967   7.128   4.576  0.1204 -0.8875  0.4891
  706MOL0     C95198   8.125   7.135   4.572  1.2094 -0.2177  0.1622
  706MOL0     O95199   8.188   7.000   4.571 -0.5044 -0.8634 -0.0883
  706MOL0     C95200   8.324   6.988   4.551 -0.6575  0.2787 -1.0174
  706MOL0     C95201   8.406   7.088   4.499  0.0828 -0.4435  0.2759
  706MOL0     C95202   8.544   7.077   4.496 -1.2354 -0.2389  0.5365
  706MOL0     C95203   8.629   7.195   4.436  0.1268 -0.1778  0.9146
  706MOL0     C95204   8.610   6.961   4.542 -0.0826  0.3989  0.2675
  706MOL0     C95205   8.760   6.926   4.524 -0.4073 -0.4518 -0.4469
  706MOL0     O95206   8.841   7.029   4.491 -0.5739 -0.6387  0.0486
  706MOL0     C95207   8.968   7.036   4.543 -0.2848 -0.3625 -0.2148
  706MOL0     C95208   9.017   6.969   4.659  0.5658  1.0092 -0.0702
  706MOL0     C95209   9.151   6.987   4.701 -0.2255  0.2087  0.3795
  706MOL0     C95210   9.232   7.077   4.633  0.4454  0.3512 -0.5219
  706MOL0     O95211   9.365   7.117   4.665  0.0845 -0.0902  0.7193
  706MOL0     C95212   9.396   7.118   4.798  0.3127 -0.0706  0.5784
  706MOL0     C95213   9.424   7.259   4.851  0.1605 -0.2169 -0.6422
  706MOL0     C95214   9.548   7.308   4.782  0.2276  0.7758  0.0110
  706MOL0     C95215   9.663   7.241   4.856 -0.8120 -0.0895 -0.4816
  706MOL0     C95216   9.790   7.325   4.903  0.7978  0.8328  0.5408
  706MOL0     C95217   9.902   7.236   4.946 -0.7168 -0.2751  0.6043
  706MOL0     C95218   9.871   7.135   5.066 -0.4745 -0.2516  0.3904
  706MOL0     C95219   9.995   7.052   5.099 -0.1398  0.5343 -0.1236
  706MOL0    Cl95220   9.966   6.939   5.230  0.1082  0.2108 -0.3382
  706MOL0     C95221   9.189   7.144   4.520 -0.7754 -0.5145 -1.0400
  706MOL0     C95222   9.056   7.126   4.479 -0.4654  0.5567  0.0129
  706MOL0     O95223   8.801   6.814   4.554 -0.0132  0.1498  0.8845
  706MOL0     C95224   8.521   6.861   4.600  0.0365 -0.0016  0.5401
  706MOL0     C95225   8.380   6.877   4.608  0.1466 -0.5866 -0.7201
  706MOL0     N95226   7.811   7.403   4.337  0.4990  0.2820 -0.7442
  706MOL0     N95227   7.764   7.386   4.215 -0.6078 -0.2223 -0.0255
  706MOL0     C95228   7.367   7.723   3.297  0.2249 -0.4746  0.8162
  706MOL0     C95229   7.344   7.796   3.172 -0.0378  0.2569 -0.0303
  706MOL0     C95230   7.211   7.984   2.821 -0.8165  0.4481 -0.5878
  706MOL0     C95231   7.242   8.121   2.827 -0.7744 -0.4842 -0.0569
  706MOL0     C95232   7.212   8.200   2.715 -0.2233 -0.0810  0.0972
  706MOL0     C95233   7.163   8.138   2.598  0.5629  0.2109  0.6235
  706MOL0     O95234   7.144   8.214   2.487 -0.1562 -0.0394  0.1658
  706MOL0     C95235   7.249   8.273   2.416 -0.0294 -0.4218  0.0595
  706MOL0     C95236   7.196   8.319   2.275  1.0897  0.6611  0.2172
  706MOL0     C95237   7.134   8.209   2.183 -0.3208 -0.2854  0.3234
  706MOL0     C95238   6.984   8.208   2.176 -0.7300  0.3541 -0.7130
  706MOL0     C95239   6.945   8.096   2.081 -0.7849 -0.5069  0.1631
  706MOL0     C95240   6.934   7.989   2.026 -0.0421  0.2021  0.1702
  706MOL0     C95241   7.154   8.005   2.579 -0.5048  0.6214 -0.4605
  706MOL0     C95242   7.154   7.930   2.698  0.0240  0.0106 -0.2318
  706MOL0     H95243   7.063   7.958   3.264  0.5315  1.5339  2.1500
  706MOL0     H95244   7.103   7.849   3.478 -0.3810  0.0971  0.5679
  706MOL0     H95245   7.501   7.596   3.499  2.6205  0.5643  1.8409
  706MOL0     H95246   7.496   7.767   3.527  1.0975 -0.3411 -2.4538
  706MOL0     H95247   7.581   7.647   3.730 -0.0368 -0.9018  0.1057
  706MOL0     H95248   7.419   7.673   3.781  0.3193 -1.4740  0.7668
  706MOL0     H95249   7.371   7.437   3.672  1.5839  0.8761 -1.5546
  706MOL0     H95250   7.535   7.415   3.693 -1.2568 -1.1864 -1.1528
  706MOL0     H95251   7.510   7.456   3.946 -0.7749 -1.7776  0.6968
  706MOL0     H95252   7.352   7.503   3.921  0.1002  1.4569 -1.2668
  706MOL0     H95253   7.330   7.258   3.810 -1.9106  1.7311 -0.1097
  706MOL0     H95254   7.502   7.243   3.848  0.8219  0.5335 -0.2298
  706MOL0     H95255   7.279   7.267   4.058 -0.6950 -0.5678  0.5917
  706MOL0     H95256   7.344   7.114   4.022 -1.0316  0.5865  2.2014
  706MOL0     H95257   7.461   7.350   4.170  0.9988  0.2729  1.1257
  706MOL0     H95258   7.420   7.196   4.230  2.7892 -1.4425  0.4709
  706MOL0     H95259   7.657   7.231   4.025 -0.3495  1.3720  0.8023
  706MOL0     H95260   7.611   7.094   4.129 -2.3797  0.3887 -0.7147
  706MOL0     H95261   7.628   7.144   4.401 -1.4111  1.4296  0.6726
  706MOL0     H95262   7.780   7.414   4.612 -1.0732 -1.1252  1.3612
  706MOL0     H95263   7.717   7.256   4.630  1.4547  0.1846  1.4556
  706MOL0     H95264   7.936   7.281   4.724 -0.1934 -0.2535 -0.2086
  706MOL0     H95265   7.989   7.361   4.566 -3.6820  0.6264 -2.8788
  706MOL0     H95266   7.932   7.106   4.474 -4.2114 -0.3122  1.6690
  706MOL0     H95267   7.933   7.059   4.653 -1.2136 -2.1649 -1.1677
  706MOL0     H95268   8.165   7.188   4.659  0.8629  2.5874 -1.2791
  706MOL0     H95269   8.151   7.194   4.484 -1.9438 -0.5543 -1.0967
  706MOL0     H95270   8.352   7.176   4.465 -1.3797 -2.5504 -3.4578
  706MOL0     H95271   8.578   7.281   4.390  5.2080  0.8026 -4.0727
  706MOL0     H95272   8.691   7.241   4.513 -0.0282  0.5799  0.5937
  706MOL0     H95273   8.704   7.170   4.360 -1.6546  1.3620 -1.5305
  706MOL0     H95274   8.948   6.905   4.714  1.1694 -1.0359 -1.5808
  706MOL0     H95275   9.178   6.942   4.796 -1.8553 -0.3928  0.5907
  706MOL0     H95276   9.315   7.082   4.863 -3.2338  0.9326 -2.9108
  706MOL0     H95277   9.488   7.060   4.805 -0.3842 -1.0702  1.8300
  706MOL0     H95278   9.341   7.328   4.831 -0.5793 -0.9564 -0.1540
  706MOL0     H95279   9.426   7.252   4.960  0.1213 -2.1912 -0.7411
  706MOL0     H95280   9.558   7.417   4.788  0.6408  0.6739  1.7478
  706MOL0     H95281   9.556   7.283   4.676  0.0400 -1.0093  0.3933
  706MOL0     H95282   9.623   7.204   4.950 -1.8561  4.3974  1.0805
  706MOL0     H95283   9.700   7.158   4.794  2.1083  2.5976 -2.6348
  706MOL0     H95284   9.777   7.398   4.985 -3.1634  1.0775 -0.1253
  706MOL0     H95285   9.832   7.389   4.825  2.2592  0.9299  1.3609
  706MOL0     H95286   9.916   7.168   4.862 -1.3235  1.4565 -0.9653
  706MOL0     H95287  10.000   7.283   4.959 -0.1432 -1.3712  0.3413
  706MOL0     H95288   9.781   7.075   5.052 -1.3502  0.6369  1.9631
  706MOL0     H95289   9.859   7.200   5.153 -1.3152  0.2541 -0.0924
  706MOL0     H95290  10.068   7.128   5.126 -1.3531  2.8069 -2.7333
  706MOL0     H95291  10.029   6.993   5.013  1.2757 -0.7703  1.2591
  706MOL0     H95292   9.265   7.210   4.478  0.4215 -0.7956  0.5671
  706MOL0     H95293   9.012   7.175   4.393  0.1276  1.4767  0.2151
  706MOL0     H95294   8.567   6.772   4.642 -0.9769 -0.7299  0.1402
  706MOL0     H95295   8.324   6.793   4.647  2.0919 -2.0707 -0.9959
  706MOL0     H95296   7.468   7.685   3.301  1.2215  2.0988  2.1070
  706MOL0     H95297   7.424   7.783   3.100  0.3962 -0.8870  0.6269
  706MOL0     H95298   7.272   8.169   2.919 -1.8824 -3.4529  2.0308
  706MOL0     H95299   7.232   8.306   2.723 -0.6071 -0.1476  5.0460
  706MOL0     H95300   7.277   8.365   2.468  0.1486  0.0777 -0.8949
  706MOL0     H95301   7.342   8.220   2.399  1.4912  2.2311 -0.5344
  706MOL0     H95302   7.283   8.357   2.221 -0.3186  1.2635 -1.7372
  706MOL0     H95303   7.125   8.403   2.275  0.7245  0.5416 -4.0398
  706MOL0     H95304   7.160   8.112   2.226  1.2621 -0.2635 -0.5312
  706MOL0     H95305   7.181   8.221   2.085  0.5892  1.0821  0.8931
  706MOL0     H95306   6.948   8.302   2.134  1.3427  2.5419  2.0276
  706MOL0     H95307   6.941   8.194   2.275  3.6478  2.2104  1.7279
  706MOL0     H95308   6.923   7.899   1.969  0.2380  0.2498  0.0385
  706MOL0     H95309   7.120   7.961   2.485 -1.8963  3.2444 -1.2754
  706MOL0     H95310   7.128   7.825   2.689  0.9281 -0.1341 -1.6009
  707MOL0     O95311   9.971  10.627   3.601  0.1176  0.0935 -0.3199
  707MOL0     C95312  10.026  10.543   3.534  0.1132  0.9476 -0.2290
  707MOL0     O95313  10.153  10.492   3.556 -0.7037 -0.1320  0.5623
  707MOL0     C95314  10.212  10.542   3.673 -0.5475 -0.3405 -0.2185
  707MOL0     C95315  10.280  10.657   3.665  1.0380  0.4359 -0.1445
  707MOL0     C95316  10.362  10.702   3.778  0.3993 -0.6640  1.2056
  707MOL0     C95317  10.360  10.642   3.901  0.4489  0.2050 -0.0811
  707MOL0     O95318  10.428  10.686   4.013 -0.4756 -0.1378  0.9220
  707MOL0     C95319  10.399  10.644   4.147 -0.0328 -0.7436  0.2543
  707MOL0     C95320  10.480  10.721   4.248 -0.1994 -0.6691  0.5878
  707MOL0     C95321  10.624  10.670   4.235 -0.1686 -0.2338 -0.6988
  707MOL0     C95322  10.708  10.740   4.341  0.1343  0.4970 -0.1826
  707MOL0     C95323  10.862  10.706   4.350 -0.1160  1.4085 -0.0339
  707MOL0     C95324  10.943  10.689   4.219  0.1515 -0.7128 -0.2198
  707MOL0     C95325  11.090  10.642   4.248  0.1984  0.3158  0.0063
  707MOL0     C95326  11.174  10.764   4.291  0.1857  0.0776  0.1807
  707MOL0     N95327  11.266  10.744   4.407 -0.8829 -1.1366 -0.1525
  707MOL0     C95328  11.392  10.688   4.401 -0.1498  0.3095 -0.3477
  707MOL0     C95329  11.430  10.684   4.535  0.1330 -1.3639  0.1161
  707MOL0     C95330  11.555  10.611   4.586  0.5762  0.4760 -0.4861
  707MOL0     C95331  11.682  10.690   4.562 -0.3904  0.1336 -0.3383
  707MOL0     C95332  11.706  10.795   4.666  0.1889 -0.2926 -0.1051
  707MOL0     C95333  11.839  10.862   4.645 -0.7096  0.7685  0.6270
  707MOL0     O95334  11.940  10.752   4.634  0.7983  0.6991  0.6392
  707MOL0     C95335  12.069  10.794   4.624  0.3753  0.0526 -1.2414
  707MOL0     C95336  12.151  10.702   4.560  0.3950  1.3650  0.8150
  707MOL0     C95337  12.296  10.727   4.548 -0.4664 -0.0520 -0.1196
  707MOL0     C95338  12.387  10.646   4.452  0.0637  0.3369  0.2739
  707MOL0     C95339  12.349  10.840   4.622  0.2098  0.4717  0.2385
  707MOL0     C95340  12.500  10.871   4.630  0.2178  0.5121  0.1790
  707MOL0     O95341  12.582  10.769   4.653  0.1833  1.0562  0.3232
  707MOL0     C95342  12.714  10.776   4.627 -0.9628  0.6684  0.4139
  707MOL0     C95343  12.789  10.754   4.747 -0.6605  0.9564  1.1243
  707MOL0     C95344  12.930  10.768   4.748 -0.0535  0.2909  0.7548
  707MOL0     C95345  12.995  10.807   4.622  0.0001 -0.0637  0.4412
  707MOL0     O95346  13.133  10.817   4.612 -0.2774 -0.2119 -0.2119
  707MOL0     C95347  13.220  10.728   4.682 -0.4223 -0.3310  0.0819
  707MOL0     C95348  13.300  10.657   4.592 -0.0875  1.2806 -0.2633
  707MOL0     C95349  13.231  10.522   4.553 -0.8185  0.1556  0.5314
  707MOL0     C95350  13.301  10.438   4.443  0.0296 -0.2121 -0.5244
  707MOL0     C95351  13.440  10.383   4.489  1.3669 -0.1480  0.0278
  707MOL0     C95352  13.518  10.319   4.378 -0.2785 -0.1710  0.0527
  707MOL0     C95353  13.452  10.207   4.312 -0.5745  0.5008 -0.1916
  707MOL0     C95354  13.413  10.074   4.401 -0.7880 -0.3743  0.0722
  707MOL0    Cl95355  13.578  10.014   4.458  0.0447  0.3889  0.1960
  707MOL0     C95356  12.921  10.831   4.506  0.5088  0.6345 -0.6641
  707MOL0     C95357  12.779  10.816   4.505  0.8783  0.2037 -0.7696
  707MOL0     O95358  12.530  10.987   4.606  0.1890  0.6296  0.6526
  707MOL0     C95359  12.258  10.940   4.674  0.2800 -0.3563  0.0288
  707MOL0     C95360  12.121  10.921   4.682  0.1484  0.5367  0.3905
  707MOL0     N95361  11.339  10.755   4.611  0.2788  0.2159 -0.5225
  707MOL0     N95362  11.246  10.796   4.535  0.1111  0.6708  0.0785
  707MOL0     C95363  10.285  10.519   3.910  0.5531 -0.0128  0.6208
  707MOL0     C95364  10.204  10.475   3.797  0.4791  0.9631 -0.1367
  707MOL0     C95365   9.958  10.523   3.405  0.4944  0.8990 -0.8894
  707MOL0     C95366  10.022  10.440   3.318 -0.0092  0.1241  0.4079
  707MOL0     C95367   9.963  10.413   3.192 -0.3636  0.2387  0.6398
  707MOL0     C95368   9.844  10.471   3.145  0.3221 -0.2728 -0.1778
  707MOL0     O95369   9.798  10.431   3.021  0.3378 -0.9221  0.1019
  707MOL0     C95370   9.695  10.507   2.960  0.2019 -0.2156 -0.1156
  707MOL0     C95371   9.625  10.402   2.872 -0.0527  0.5349  0.3027
  707MOL0     C95372   9.518  10.460   2.785 -1.1647 -0.9194  0.0176
  707MOL0     C95373   9.413  10.538   2.865 -0.0041 -0.2767 -0.7415
  707MOL0     C95374   9.287  10.551   2.800  0.5484  0.2239  0.6414
  707MOL0     C95375   9.172  10.549   2.762 -0.5719  0.1174  0.3880
  707MOL0     C95376   9.785  10.555   3.233 -0.3713  0.1313  0.3479
  707MOL0     C95377   9.839  10.582   3.362 -1.3205  0.3242  0.8147
  707MOL0     H95378  10.294  10.707   3.569 -0.2913  1.6469  0.2499
  707MOL0     H95379  10.416  10.795   3.769  0.4159 -0.4916  2.7798
  707MOL0     H95380  10.292  10.664   4.164  1.1500  3.5721  5.4253
  707MOL0     H95381  10.419  10.537   4.156  1.3530 -0.5458 -0.2593
  707MOL0     H95382  10.476  10.826   4.220 -1.3789 -0.3803  1.7367
  707MOL0     H95383  10.441  10.718   4.351  0.4097  2.7210  1.0420
  707MOL0     H95384  10.634  10.561   4.232 -2.3853 -0.4829 -0.7794
  707MOL0     H95385  10.652  10.715   4.140  1.1054  1.7280  0.5267
  707MOL0     H95386  10.704  10.849   4.327 -3.1063  0.7197  1.5010
  707MOL0     H95387  10.672  10.719   4.442 -0.1313 -0.6585 -0.5019
  707MOL0     H95388  10.905  10.785   4.412 -0.5381  1.8765 -0.3213
  707MOL0     H95389  10.867  10.609   4.400 -1.2663  1.4172  0.1117
  707MOL0     H95390  10.884  10.622   4.156  2.0096 -0.3196 -2.5296
  707MOL0     H95391  10.937  10.781   4.160 -2.6702 -0.9260 -0.3623
  707MOL0     H95392  11.074  10.579   4.336 -3.0742 -0.8617 -1.2563
  707MOL0     H95393  11.125  10.582   4.163  0.7454  2.4288 -1.3596
  707MOL0     H95394  11.108  10.849   4.313  2.6943  1.5129  2.7618
  707MOL0     H95395  11.232  10.788   4.201  1.1719 -2.7634 -0.0448
  707MOL0     H95396  11.437  10.646   4.311 -0.1665  0.0436 -0.2335
  707MOL0     H95397  11.542  10.587   4.692 -2.7308  0.6667 -0.7444
  707MOL0     H95398  11.557  10.515   4.535 -2.1167  0.2155 -0.2514
  707MOL0     H95399  11.672  10.739   4.465  1.8070 -2.4760 -2.0367
  707MOL0     H95400  11.761  10.616   4.544 -1.2694 -1.1621  0.8506
  707MOL0     H95401  11.695  10.745   4.763 -0.9402 -3.5619 -1.8005
  707MOL0     H95402  11.636  10.879   4.664  1.5602  1.0016  1.7957
  707MOL0     H95403  11.856  10.929   4.730  0.5439  1.3294 -0.0423
  707MOL0     H95404  11.824  10.919   4.553  1.3826 -1.5976 -1.3081
  707MOL0     H95405  12.108  10.621   4.502  3.8744  1.8000 -2.8243
  707MOL0     H95406  12.322  10.574   4.402 -0.5009 -2.2480  4.2726
  707MOL0     H95407  12.432  10.700   4.368  1.4554 -1.2136 -0.0396
  707MOL0     H95408  12.458  10.576   4.497  1.7913  1.6984 -0.1973
  707MOL0     H95409  12.727  10.735   4.834 -3.1822  1.3258 -0.4610
  707MOL0     H95410  12.985  10.750   4.840  0.6123 -0.1805  0.2720
  707MOL0     H95411  13.286  10.788   4.745 -0.3195  0.8485 -1.1141
  707MOL0     H95412  13.157  10.664   4.745 -0.2131  0.0927  0.7305
  707MOL0     H95413  13.313  10.724   4.507 -0.2949  1.9955  0.2589
  707MOL0     H95414  13.401  10.641   4.633 -0.7619 -1.9150  0.4707
  707MOL0     H95415  13.131  10.542   4.514 -0.1934  2.6066  0.0197
  707MOL0     H95416  13.220  10.458   4.641  2.8482  0.1903  1.1663
  707MOL0     H95417  13.238  10.351   4.423  0.5802 -0.5645 -0.7658
  707MOL0     H95418  13.317  10.495   4.351 -2.3708  2.7643  0.7499
  707MOL0     H95419  13.434  10.316   4.576  2.1641  3.3094  2.9882
  707MOL0     H95420  13.501  10.463   4.529  0.2366  0.8526 -0.1804
  707MOL0     H95421  13.543  10.390   4.299  0.5362 -1.1029 -0.5604
  707MOL0     H95422  13.617  10.289   4.413 -0.0128  1.0729  0.3879
  707MOL0     H95423  13.518  10.180   4.229 -0.4613  2.0086 -0.6094
  707MOL0     H95424  13.358  10.242   4.269 -0.5734 -0.0276 -0.6330
  707MOL0     H95425  13.363  10.006   4.331  0.0220 -4.6025  3.2454
  707MOL0     H95426  13.344  10.103   4.481 -3.7772  1.0497 -2.7692
  707MOL0     H95427  12.986  10.862   4.425  1.7553  2.4773  0.9305
  707MOL0     H95428  12.715  10.832   4.418  0.8519  1.5385 -0.5355
  707MOL0     H95429  12.288  11.033   4.721 -0.8577  0.0328  0.0243
  707MOL0     H95430  12.054  10.989   4.733 -1.9999 -0.2316 -1.2449
  707MOL0     H95431  10.291  10.443   3.987 -1.8366 -2.7242 -1.6493
  707MOL0     H95432  10.150  10.381   3.798  1.3322  0.4066 -1.7628
  707MOL0     H95433  10.113  10.384   3.341  0.8373  0.5561 -1.6329
  707MOL0     H95434  10.004  10.344   3.119  1.7259  0.9470  1.0777
  707MOL0     H95435   9.615  10.540   3.027 -0.5432  2.2273 -2.0383
  707MOL0     H95436   9.737  10.593   2.908 -0.1135 -0.4534 -0.7701
  707MOL0     H95437   9.574  10.329   2.935 -1.6869  0.6505 -0.8384
  707MOL0     H95438   9.691  10.335   2.816 -0.5212  0.8206 -0.6044
  707MOL0     H95439   9.490  10.373   2.725 -0.4647 -2.9272  2.4278
  707MOL0     H95440   9.566  10.525   2.710  1.0211 -0.8070  1.4199
  707MOL0     H95441   9.453  10.637   2.892  1.9267 -0.8370 -1.3452
  707MOL0     H95442   9.386  10.485   2.957  0.7262 -0.8124 -0.8293
  707MOL0     H95443   9.081  10.552   2.704 -0.3882  0.6232  0.1235
  707MOL0     H95444   9.697  10.606   3.194  2.2381  4.6794 -0.3208
  707MOL0     H95445   9.800  10.657   3.430  0.1394  1.1083  0.8250
  708MOL0     O95446   1.119  11.293   8.235  0.5120  0.3061  0.5491
  708MOL0     C95447   1.040  11.247   8.150  0.7184  0.0204 -0.1112
  708MOL0     O95448   0.922  11.298   8.102 -0.5307  0.1619  0.3920
  708MOL0     C95449   0.873  11.405   8.168 -0.7742  0.3822  0.7068
  708MOL0     C95450   0.781  11.388   8.271 -0.5948 -0.4448 -0.8062
  708MOL0     C95451   0.715  11.494   8.332  0.3304  0.2545 -0.8306
  708MOL0     C95452   0.744  11.628   8.301  0.4324  0.4543  1.0229
  708MOL0     O95453   0.663  11.725   8.353  0.4143 -0.4885 -0.1374
  708MOL0     C95454   0.745  11.842   8.376 -0.6344  0.0030  0.1753
  708MOL0     C95455   0.712  11.910   8.507  0.0741 -1.2765 -0.1723
  708MOL0     C95456   0.728  11.815   8.628 -0.0588  0.3991  0.3756
  708MOL0     C95457   0.870  11.751   8.635  0.7139  0.2357  0.6484
  708MOL0     C95458   0.891  11.686   8.777 -0.2387 -0.0938 -0.1125
  708MOL0     C95459   0.808  11.561   8.795 -0.4176 -0.2344 -0.7633
  708MOL0     C95460   0.811  11.500   8.932  0.2030  1.0814 -0.1767
  708MOL0     C95461   0.758  11.361   8.935  0.6508  0.5714 -0.2873
  708MOL0     N95462   0.739  11.312   9.074 -0.0129  0.3764 -0.2101
  708MOL0     C95463   0.852  11.313   9.163  0.8732  0.0009  0.4938
  708MOL0     C95464   0.798  11.292   9.284  0.1828 -0.9974 -1.0797
  708MOL0     C95465   0.873  11.262   9.408  0.4302 -0.5117  0.0059
  708MOL0     C95466   0.982  11.157   9.397 -0.5744 -0.1178 -0.2093
  708MOL0     C95467   1.017  11.096   9.541  0.6041 -1.3622 -1.1424
  708MOL0     C95468   1.132  10.991   9.531 -1.2655 -0.9182  1.0167
  708MOL0     O95469   1.201  11.000   9.655  0.0009 -0.3280  0.4589
  708MOL0     C95470   1.295  10.901   9.692  0.6709 -0.2589  0.8645
  708MOL0     C95471   1.343  10.799   9.610  0.3681 -0.8678  0.8733
  708MOL0     C95472   1.454  10.721   9.640 -0.2558 -0.6053  0.4905
  708MOL0     C95473   1.503  10.614   9.533  0.5468  0.5505 -0.4683
  708MOL0     C95474   1.524  10.756   9.757  0.2945  0.0327  0.0145
  708MOL0     C95475   1.649  10.682   9.805 -0.9868  0.8636  0.1761
  708MOL0     O95476   1.710  10.722   9.919 -0.5068  0.7863 -0.6630
  708MOL0     C95477   1.810  10.657   9.982 -0.4084 -0.1400 -0.2004
  708MOL0     C95478   1.939  10.705   9.972 -0.0010  1.2654  0.2431
  708MOL0     C95479   2.045  10.638  10.045 -0.1215 -0.5093 -0.7181
  708MOL0     C95480   2.019  10.530  10.125 -1.3920 -0.3834  0.7264
  708MOL0     O95481   2.113  10.457  10.194 -0.6298  0.2114  0.0804
  708MOL0     C95482   2.244  10.503  10.214 -0.7764 -0.3197 -1.4662
  708MOL0     C95483   2.323  10.400  10.299  0.0857 -0.4311  0.6069
  708MOL0     C95484   2.464  10.442  10.309  0.7259  0.6870  0.2810
  708MOL0     C95485   2.534  10.396  10.435  0.9564 -0.0165  1.3224
  708MOL0     C95486   2.682  10.433  10.431  0.5830 -0.5198 -0.5334
  708MOL0     C95487   2.774  10.404  10.308 -0.2109  0.3359  0.5996
  708MOL0     C95488   2.795  10.261  10.265  0.0866 -1.1149 -0.1143
  708MOL0     C95489   2.876  10.236  10.133  0.6226 -0.6552 -0.4533
  708MOL0    Cl95490   2.884  10.044  10.123 -0.4081 -0.0210 -0.2917
  708MOL0     C95491   1.884  10.478  10.129 -0.2087  0.4225  0.1460
  708MOL0     C95492   1.778  10.549  10.061 -0.7200 -0.0718  0.0298
  708MOL0     O95493   1.693  10.582   9.740  0.0852  0.7500 -0.8048
  708MOL0     C95494   1.470  10.856   9.842 -0.4432  0.2475  0.2896
  708MOL0     C95495   1.368  10.939   9.801 -0.4648  0.1721 -0.0151
  708MOL0     N95496   0.661  11.280   9.262  0.4001 -0.9383 -0.1478
  708MOL0     N95497   0.625  11.277   9.138 -0.2778  0.9856 -0.2045
  708MOL0     C95498   0.851  11.646   8.208  0.5266  0.4314  0.4389
  708MOL0     C95499   0.908  11.534   8.132  0.2953 -0.2243 -0.9110
  708MOL0     C95500   1.067  11.120   8.080  0.0665  0.3520 -0.3634
  708MOL0     C95501   1.171  11.038   8.135 -0.0686  0.4664 -0.2485
  708MOL0     C95502   1.180  10.909   8.091  0.0549  0.9792 -0.6954
  708MOL0     C95503   1.116  10.853   7.979 -0.7671 -0.0079 -0.3038
  708MOL0     O95504   1.147  10.732   7.929 -0.2890 -0.8329  0.5600
  708MOL0     C95505   1.207  10.724   7.797 -0.2394  0.2860  0.1240
  708MOL0     C95506   1.354  10.780   7.795  0.1953  0.3909  0.1590
  708MOL0     C95507   1.460  10.729   7.885 -0.1396  0.4637 -0.0655
  708MOL0     C95508   1.598  10.796   7.851 -0.0179  0.1332  0.4443
  708MOL0     C95509   1.619  10.943   7.874  0.7951 -1.2917  0.9070
  708MOL0     C95510   1.626  11.067   7.887 -0.6465  0.8813 -0.2610
  708MOL0     C95511   1.029  10.941   7.917  0.4539 -0.8744  0.4816
  708MOL0     C95512   0.988  11.068   7.968 -0.6062 -0.1718 -0.3945
  708MOL0     H95513   0.771  11.288   8.311 -0.7458  0.1232  0.6308
  708MOL0     H95514   0.624  11.477   8.387  0.5575 -3.6757 -1.4291
  708MOL0     H95515   0.852  11.817   8.378 -0.5381  0.4414  1.0582
  708MOL0     H95516   0.732  11.915   8.295 -1.5639 -0.6426 -0.2698
  708MOL0     H95517   0.771  12.001   8.521 -0.2521 -0.8042 -1.6737
  708MOL0     H95518   0.608  11.944   8.506  0.1781 -0.9183 -1.9082
  708MOL0     H95519   0.702  11.872   8.718  0.7620  0.5471  0.5289
  708MOL0     H95520   0.655  11.735   8.620  1.4079 -0.9051 -0.6680
  708MOL0     H95521   0.885  11.681   8.553  0.4048  2.5138 -1.4603
  708MOL0     H95522   0.937  11.837   8.626  0.1855  0.4156 -3.9389
  708MOL0     H95523   0.994  11.653   8.791  0.2467  0.6862 -1.5712
  708MOL0     H95524   0.862  11.754   8.858 -0.3019  1.2613 -1.2276
  708MOL0     H95525   0.700  11.572   8.783 -1.1321 -4.1900  0.3459
  708MOL0     H95526   0.835  11.490   8.716 -0.7087  0.1853 -1.2408
  708MOL0     H95527   0.912  11.502   8.975  0.4258 -0.5584 -0.5524
  708MOL0     H95528   0.740  11.561   8.988 -0.5081  0.9403 -0.9159
  708MOL0     H95529   0.826  11.289   8.889 -2.0283 -3.1107  1.0530
  708MOL0     H95530   0.667  11.342   8.875  1.1421 -1.9643 -0.3235
  708MOL0     H95531   0.958  11.310   9.142  0.5536  0.4680 -1.3636
  708MOL0     H95532   0.927  11.347   9.449 -1.3216  0.5596  0.2181
  708MOL0     H95533   0.803  11.232   9.486  0.1070 -1.3230 -0.5721
  708MOL0     H95534   1.070  11.186   9.339 -1.0302 -0.2357 -0.9621
  708MOL0     H95535   0.938  11.071   9.345  1.8151 -0.3682 -1.9778
  708MOL0     H95536   0.927  11.050   9.582 -1.8641  3.2669 -0.6250
  708MOL0     H95537   1.055  11.168   9.614 -2.2572 -1.5117  0.6513
  708MOL0     H95538   1.203  11.006   9.448 -4.8962  3.0187 -1.7920
  708MOL0     H95539   1.092  10.892   9.508  3.6642 -2.8866 -0.4414
  708MOL0     H95540   1.282  10.770   9.525  0.3235  0.2932  0.5055
  708MOL0     H95541   1.593  10.648   9.482  2.1680 -1.9745  0.5274
  708MOL0     H95542   1.510  10.515   9.579 -0.5118  0.3438 -0.7119
  708MOL0     H95543   1.428  10.610   9.453 -1.3141 -1.0434  1.2366
  708MOL0     H95544   1.966  10.790   9.910  1.5728 -1.0238 -2.5168
  708MOL0     H95545   2.138  10.695  10.041  0.2120 -0.9918 -0.0328
  708MOL0     H95546   2.299  10.524  10.121  4.3723 -1.4893  0.9584
  708MOL0     H95547   2.240  10.600  10.263  2.3777 -1.2334  0.9580
  708MOL0     H95548   2.282  10.406  10.401 -1.0363  0.7575  0.1156
  708MOL0     H95549   2.299  10.302  10.258  1.8128 -0.5766 -0.1521
  708MOL0     H95550   2.466  10.550  10.295 -3.4616  0.9574  0.3027
  708MOL0     H95551   2.512  10.402  10.220 -3.4276 -0.3420 -1.7407
  708MOL0     H95552   2.490  10.433  10.528  0.0439  1.8137  0.2097
  708MOL0     H95553   2.525  10.287  10.434 -1.0587  0.1092  1.8596
  708MOL0     H95554   2.735  10.397  10.520  0.3914 -1.5331 -0.8110
  708MOL0     H95555   2.680  10.537  10.465 -1.9548 -1.0678  1.3230
  708MOL0     H95556   2.733  10.454  10.220  1.0188  2.3312  1.1147
  708MOL0     H95557   2.873  10.448  10.320 -0.1453  0.1940  0.5886
  708MOL0     H95558   2.690  10.229  10.264 -0.8400  1.5084  1.9347
  708MOL0     H95559   2.853  10.215  10.346  2.1793  1.8353  0.2106
  708MOL0     H95560   2.973  10.284  10.147 -0.5157  1.1895  1.7280
  708MOL0     H95561   2.816  10.282  10.054 -1.2692 -3.0704 -0.5449
  708MOL0     H95562   1.867  10.391  10.191  0.4696  1.0018  1.1723
  708MOL0     H95563   1.673  10.521  10.067 -1.0444  1.3063  1.1034
  708MOL0     H95564   1.525  10.881   9.933 -0.1689 -1.7516  0.7066
  708MOL0     H95565   1.324  11.016   9.863  1.3611 -0.1688  1.8311
  708MOL0     H95566   0.894  11.746   8.196  1.0211  0.2261  0.4556
  708MOL0     H95567   0.988  11.561   8.063  0.5727  1.2783 -0.0494
  708MOL0     H95568   1.233  11.065   8.220  0.6245 -1.4402 -0.1139
  708MOL0     H95569   1.261  10.857   8.141  0.5535  0.7391 -1.7321
  708MOL0     H95570   1.218  10.619   7.769  0.9622  1.0722 -2.7180
  708MOL0     H95571   1.150  10.789   7.729  1.6159  2.9012  0.9144
  708MOL0     H95572   1.334  10.883   7.824 -1.3256 -0.0769  0.8743
  708MOL0     H95573   1.381  10.779   7.689 -1.7213  2.4180 -0.4340
  708MOL0     H95574   1.471  10.625   7.854  1.0334  1.0879 -1.9695
  708MOL0     H95575   1.435  10.731   7.991 -3.9600 -0.4255 -0.7995
  708MOL0     H95576   1.617  10.789   7.744  2.4485 -1.3792  0.8900
  708MOL0     H95577   1.681  10.751   7.906  2.1592  1.3332 -1.6680
  708MOL0     H95578   1.622  11.173   7.903  1.1701  1.0733 -0.8954
  708MOL0     H95579   0.971  10.909   7.831  1.1966 -0.0086 -0.3620
  708MOL0     H95580   0.902  11.107   7.916 -0.6899 -0.3766 -0.4093
  709MOL0     O95581   8.608   5.594   8.035  0.9844 -0.0894 -1.0954
  709MOL0     C95582   8.665   5.536   7.945 -0.1622 -0.3625 -0.7105
  709MOL0     O95583   8.730   5.421   7.961  0.0544  0.3534  0.6445
  709MOL0     C95584   8.701   5.336   8.068 -0.4244 -0.4671  0.1575
  709MOL0     C95585   8.641   5.219   8.038  0.0882  0.5395 -0.8120
  709MOL0     C95586   8.599   5.126   8.132  0.1498 -0.5999 -0.3994
  709MOL0     C95587   8.595   5.173   8.266  0.0513  0.9900 -1.6074
  709MOL0     O95588   8.524   5.094   8.359 -0.8834 -0.2740 -0.1303
  709MOL0     C95589   8.451   5.173   8.448 -0.3883  1.2682 -0.0170
  709MOL0     C95590   8.357   5.085   8.518  0.4430  0.6467 -0.4874
  709MOL0     C95591   8.432   4.980   8.601 -0.1029  0.1049  0.1822
  709MOL0     C95592   8.338   4.866   8.635  0.6767 -0.1243  0.0746
  709MOL0     C95593   8.399   4.737   8.703 -0.2538 -0.6689  0.7241
  709MOL0     C95594   8.300   4.626   8.725 -0.0317  0.0563  0.1262
  709MOL0     C95595   8.266   4.535   8.595 -0.5450  0.7160  0.1075
  709MOL0     C95596   8.382   4.452   8.533 -0.1006  0.5036 -0.3795
  709MOL0     N95597   8.334   4.347   8.440 -0.1641  0.3644 -0.4373
  709MOL0     C95598   8.291   4.366   8.313  0.4588  0.6293  0.1084
  709MOL0     C95599   8.291   4.236   8.267  0.2020  1.0959  0.8060
  709MOL0     C95600   8.250   4.185   8.131 -0.1721 -0.1169  0.4886
  709MOL0     C95601   8.373   4.193   8.024 -0.1005 -0.2204 -0.3620
  709MOL0     C95602   8.514   4.154   8.069 -0.8356 -0.8566  0.4758
  709MOL0     C95603   8.625   4.178   7.964  0.4995 -0.7521 -0.7649
  709MOL0     O95604   8.580   4.111   7.855 -0.6144 -0.3121  0.3354
  709MOL0     C95605   8.540   4.174   7.744  0.1808  0.0737 -0.0416
  709MOL0     C95606   8.432   4.133   7.665 -0.6608 -0.1263  0.1035
  709MOL0     C95607   8.381   4.199   7.552  0.4945  0.1917  0.6179
  709MOL0     C95608   8.252   4.139   7.487  0.0028 -0.5771 -0.6533
  709MOL0     C95609   8.443   4.319   7.523  0.4493  0.4517 -0.1343
  709MOL0     C95610   8.388   4.408   7.424  0.7509  0.2340  0.6551
  709MOL0     O95611   8.279   4.472   7.468 -0.0816 -0.0911  0.7291
  709MOL0     C95612   8.205   4.546   7.385 -0.0812  0.0052 -0.0023
  709MOL0     C95613   8.254   4.641   7.285  1.4084 -0.5986 -0.1063
  709MOL0     C95614   8.174   4.716   7.197  0.0259 -0.0984 -0.5486
  709MOL0     C95615   8.037   4.704   7.210 -1.1434 -0.1235  0.7675
  709MOL0     O95616   7.954   4.753   7.111  0.1420 -0.0537 -0.2558
  709MOL0     C95617   7.983   4.885   7.057 -0.4272 -0.0453 -0.7809
  709MOL0     C95618   7.897   4.933   6.947  1.2768 -0.3278 -0.1828
  709MOL0     C95619   7.746   4.942   6.991  0.8560 -0.1179  0.5108
  709MOL0     C95620   7.666   5.007   6.884 -0.0675 -0.4482 -0.4719
  709MOL0     C95621   7.519   5.028   6.918 -0.0405  0.3359  0.0521
  709MOL0     C95622   7.454   5.117   6.825 -0.4169  0.5204 -0.0059
  709MOL0     C95623   7.300   5.135   6.852 -0.3843  0.8368 -1.0885
  709MOL0     C95624   7.220   5.006   6.863  0.5206 -0.5299  0.2680
  709MOL0    Cl95625   7.181   4.950   6.702  0.2845 -0.0396  0.3029
  709MOL0     C95626   7.980   4.632   7.310 -1.0757 -0.4670  0.6023
  709MOL0     C95627   8.059   4.543   7.388 -0.9611 -0.2172  0.5986
  709MOL0     O95628   8.431   4.411   7.307  0.6203 -0.0364  0.0276
  709MOL0     C95629   8.565   4.352   7.586  0.4779 -0.0561  0.2822
  709MOL0     C95630   8.618   4.281   7.691 -0.2751  0.7193  0.2650
  709MOL0     N95631   8.338   4.150   8.363  0.0650  0.1417 -0.3573
  709MOL0     N95632   8.356   4.215   8.469  0.2760  0.4116 -0.7454
  709MOL0     C95633   8.657   5.287   8.300  0.8330  0.2619  0.1358
  709MOL0     C95634   8.715   5.374   8.208 -0.9476  0.1008  0.4153
  709MOL0     C95635   8.699   5.618   7.829  0.4956  0.1681  0.6999
  709MOL0     C95636   8.590   5.685   7.772  0.5564 -0.3403 -1.1110
  709MOL0     C95637   8.617   5.778   7.676 -0.6817 -0.5501  0.1826
  709MOL0     C95638   8.748   5.798   7.612 -0.1970  0.1181 -0.0062
  709MOL0     O95639   8.776   5.884   7.512 -0.8802  0.7450 -0.8292
  709MOL0     C95640   8.674   5.930   7.416 -0.1783 -0.0822  0.2422
  709MOL0     C95641   8.749   6.005   7.299  0.9588  0.4288 -0.1175
  709MOL0     C95642   8.723   5.932   7.163 -0.4896  0.4457 -0.3838
  709MOL0     C95643   8.777   6.014   7.051  0.7310  0.6929 -0.0575
  709MOL0     C95644   8.779   5.905   6.950 -0.5892 -0.8338 -0.1834
  709MOL0     C95645   8.813   5.812   6.871  0.7152 -0.9467  0.0145
  709MOL0     C95646   8.840   5.707   7.662  0.0582  1.1841  0.6019
  709MOL0     C95647   8.822   5.613   7.765 -0.1540 -0.0021  0.4362
  709MOL0     H95648   8.626   5.196   7.933  2.5338 -1.2700 -0.8572
  709MOL0     H95649   8.549   5.035   8.099 -1.1345 -0.2308  0.4500
  709MOL0     H95650   8.511   5.211   8.531  1.0165 -2.5399  0.8958
  709MOL0     H95651   8.391   5.249   8.398 -1.5652  0.5137  0.2307
  709MOL0     H95652   8.309   5.147   8.594  0.2120  1.3471 -1.1845
  709MOL0     H95653   8.281   5.050   8.447 -0.4352 -2.3195  1.7081
  709MOL0     H95654   8.519   4.933   8.555 -0.7861 -0.7390 -0.2655
  709MOL0     H95655   8.475   5.029   8.688  1.3595  0.2328 -0.5916
  709MOL0     H95656   8.257   4.904   8.698  0.9598  0.9418 -0.1798
  709MOL0     H95657   8.284   4.832   8.546  0.4987 -1.2716  0.5982
  709MOL0     H95658   8.483   4.710   8.638 -0.6773 -2.7920  0.9883
  709MOL0     H95659   8.456   4.757   8.794  1.5482  0.9126 -0.6542
  709MOL0     H95660   8.330   4.552   8.799 -3.3049 -1.6282 -0.0182
  709MOL0     H95661   8.210   4.675   8.763  2.3280  2.6091  2.9619
  709MOL0     H95662   8.194   4.459   8.628 -1.0097  0.0280 -2.3307
  709MOL0     H95663   8.211   4.596   8.523 -0.5015  0.4383 -0.1619
  709MOL0     H95664   8.430   4.396   8.614  0.2322 -2.6145 -2.5520
  709MOL0     H95665   8.467   4.504   8.487  0.6534 -0.6106 -0.2835
  709MOL0     H95666   8.263   4.459   8.265 -0.5797  0.4605  0.3499
  709MOL0     H95667   8.202   4.088   8.145  0.4386 -0.7621 -1.5748
  709MOL0     H95668   8.170   4.249   8.093 -0.1323  0.9500  2.0760
  709MOL0     H95669   8.371   4.294   7.982 -0.0745  0.5910  1.4618
  709MOL0     H95670   8.356   4.141   7.930  1.8559  2.0124 -2.0612
  709MOL0     H95671   8.506   4.047   8.094 -1.2103 -0.7179  0.9924
  709MOL0     H95672   8.549   4.222   8.147  2.4318  1.6987 -2.8826
  709MOL0     H95673   8.717   4.139   8.009  0.0484 -1.0222 -0.0610
  709MOL0     H95674   8.646   4.284   7.946  1.9934 -0.3559  2.5797
  709MOL0     H95675   8.381   4.045   7.702 -0.3307 -1.9498 -3.4112
  709MOL0     H95676   8.270   4.098   7.387 -1.7945 -1.5630 -0.6272
  709MOL0     H95677   8.215   4.052   7.543  0.7055  0.6366  1.8021
  709MOL0     H95678   8.171   4.212   7.477 -1.0659 -1.3176  1.7801
  709MOL0     H95679   8.361   4.658   7.270  0.8813  0.8934 -2.9084
  709MOL0     H95680   8.231   4.776   7.126  1.6113 -0.3166  0.4797
  709MOL0     H95681   7.995   4.948   7.146  5.1130  3.3121 -3.3369
  709MOL0     H95682   8.090   4.884   7.032 -0.1965 -2.0462  0.0926
  709MOL0     H95683   7.915   5.034   6.909 -0.8396  0.0869 -0.1994
  709MOL0     H95684   7.924   4.867   6.863  4.5263 -0.3563  0.7497
  709MOL0     H95685   7.737   5.009   7.077 -1.0000 -0.3086  0.5049
  709MOL0     H95686   7.699   4.845   7.014  0.7539 -0.1539  0.1545
  709MOL0     H95687   7.716   5.103   6.871 -0.0788  0.2347  3.4399
  709MOL0     H95688   7.666   4.951   6.790 -1.2876 -2.7249  0.7773
  709MOL0     H95689   7.502   5.081   7.013  3.7844 -0.2114  1.2062
  709MOL0     H95690   7.471   4.931   6.906 -0.1639  0.1639  1.7107
  709MOL0     H95691   7.509   5.211   6.820  1.3482 -0.5271 -3.3923
  709MOL0     H95692   7.463   5.092   6.719 -0.2495 -1.0898  0.3585
  709MOL0     H95693   7.251   5.200   6.779 -0.9295  1.3569 -0.2722
  709MOL0     H95694   7.295   5.192   6.946  1.8164  1.2403 -1.1634
  709MOL0     H95695   7.122   5.023   6.910  1.1631  2.7852  0.6871
  709MOL0     H95696   7.261   4.918   6.913  0.3083 -0.6983  0.1471
  709MOL0     H95697   7.875   4.653   7.328 -0.5450  1.7660  1.4509
  709MOL0     H95698   8.014   4.477   7.461 -0.2266 -1.8501 -0.3686
  709MOL0     H95699   8.632   4.430   7.551  0.5096  0.3146  1.1458
  709MOL0     H95700   8.718   4.300   7.729 -1.2162 -0.4412  3.6560
  709MOL0     H95701   8.667   5.326   8.401  3.9555  0.5462 -0.1735
  709MOL0     H95702   8.772   5.463   8.235 -0.0154 -0.1913 -0.5308
  709MOL0     H95703   8.498   5.677   7.828  1.5966  0.2223  0.7480
  709MOL0     H95704   8.529   5.835   7.646 -1.9609 -3.1675 -1.3746
  709MOL0     H95705   8.611   5.845   7.390 -1.1527  0.1850  1.6178
  709MOL0     H95706   8.607   6.008   7.453  0.7241  1.6134 -1.5326
  709MOL0     H95707   8.856   6.021   7.319  1.1019 -0.4121 -0.1887
  709MOL0     H95708   8.704   6.103   7.279 -0.4282 -0.4392 -1.4559
  709MOL0     H95709   8.619   5.897   7.154  0.2066 -3.0672  2.9293
  709MOL0     H95710   8.785   5.842   7.168 -1.7434 -0.3730  1.5829
  709MOL0     H95711   8.876   6.059   7.062  0.3656  1.1350  1.7036
  709MOL0     H95712   8.708   6.094   7.024  0.0377  0.6743  1.5428
  709MOL0     H95713   8.836   5.732   6.804 -1.9683 -1.6909 -0.1352
  709MOL0     H95714   8.941   5.715   7.625 -0.8210  2.1626 -1.8188
  709MOL0     H95715   8.899   5.553   7.813 -1.2941 -0.0401  2.3109
  710MOL0     O95716   3.428   7.759  11.421 -0.0018  0.0997  0.1581
  710MOL0     C95717   3.337   7.830  11.360 -0.0326  0.7852 -0.6770
  710MOL0     O95718   3.320   7.965  11.375  0.3629 -0.5624 -0.4975
  710MOL0     C95719   3.375   8.030  11.486  0.1212  0.5594 -0.0667
  710MOL0     C95720   3.451   8.145  11.466  0.0393  0.5051 -0.2587
  710MOL0     C95721   3.506   8.223  11.569 -0.3408  1.5754 -0.0804
  710MOL0     C95722   3.486   8.195  11.703 -0.1270 -0.0353 -0.5376
  710MOL0     O95723   3.557   8.272  11.791  1.3688 -0.1310  1.0242
  710MOL0     C95724   3.501   8.275  11.924 -0.4014 -0.0438 -0.1978
  710MOL0     C95725   3.605   8.346  12.008  0.2730 -0.1898 -0.4960
  710MOL0     C95726   3.617   8.488  11.965  0.8161  0.4960  1.1208
  710MOL0     C95727   3.705   8.565  12.071  0.0238 -0.2492  0.5055
  710MOL0     C95728   3.709   8.718  12.037  0.1946 -0.3968  0.3648
  710MOL0     C95729   3.592   8.794  12.113  0.7287  0.0473  0.2082
  710MOL0     C95730   3.598   8.947  12.124 -0.6136 -1.6043 -0.2902
  710MOL0     C95731   3.466   9.011  12.187 -0.0416 -0.2337  0.9368
  710MOL0     N95732   3.470   9.154  12.228  0.3175 -0.0268  1.0426
  710MOL0     C95733   3.536   9.258  12.171 -0.4761 -0.7240  0.8934
  710MOL0     C95734   3.497   9.368  12.241  0.1783 -0.5952  0.5353
  710MOL0     C95735   3.533   9.510  12.209  0.0657  0.4749 -1.0600
  710MOL0     C95736   3.682   9.529  12.222  0.4427 -0.5895 -0.2246
  710MOL0     C95737   3.722   9.685  12.219 -0.2301 -0.2486 -0.8261
  710MOL0     C95738   3.868   9.693  12.268  0.5553 -0.7797 -0.1389
  710MOL0     O95739   3.965   9.638  12.164  0.6017 -0.2076  0.4100
  710MOL0     C95740   4.073   9.586  12.231  0.2924 -0.6583  0.5729
  710MOL0     C95741   4.066   9.460  12.303 -0.8512 -0.4556 -0.6889
  710MOL0     C95742   4.181   9.392  12.356 -0.4403 -0.4149 -0.0470
  710MOL0     C95743   4.151   9.264  12.440 -1.2441  0.3880  1.7009
  710MOL0     C95744   4.306   9.454  12.346  0.4031  0.0597 -0.4236
  710MOL0     C95745   4.437   9.388  12.377 -0.5325  1.7031 -0.4809
  710MOL0     O95746   4.543   9.454  12.313 -0.8722  0.6601  0.2051
  710MOL0     C95747   4.664   9.399  12.327 -0.5956  0.8320 -0.0621
  710MOL0     C95748   4.723   9.382  12.457 -0.2975  0.2416  0.8791
  710MOL0     C95749   4.856   9.334  12.471 -0.4726 -0.3201  0.4100
  710MOL0     C95750   4.925   9.279  12.364 -0.3189 -0.2517  0.9627
  710MOL0     O95751   5.042   9.210  12.375  0.0891 -0.4017 -0.6807
  710MOL0     C95752   5.148   9.268  12.457 -0.0746 -0.6868  0.2902
  710MOL0     C95753   5.283   9.253  12.393 -1.0398  0.2208 -0.6167
  710MOL0     C95754   5.299   9.313  12.254  0.8376  0.2137  0.1919
  710MOL0     C95755   5.445   9.298  12.209 -0.1758 -0.0205  0.6977
  710MOL0     C95756   5.464   9.332  12.057  0.9489 -0.9322  0.1528
  710MOL0     C95757   5.481   9.480  12.035 -0.7208 -0.4429  0.7657
  710MOL0     C95758   5.430   9.518  11.889  0.8143 -0.0135  0.6744
  710MOL0     C95759   5.444   9.671  11.849  1.4136 -0.7013 -0.0378
  710MOL0    Cl95760   5.621   9.716  11.827  0.2240  0.0495 -0.0182
  710MOL0     C95761   4.872   9.295  12.230  0.8359  0.5806 -0.5687
  710MOL0     C95762   4.740   9.354  12.221 -0.6921  0.8947  0.5404
  710MOL0     O95763   4.451   9.302  12.458  0.3294 -0.1350  1.2353
  710MOL0     C95764   4.312   9.585  12.292  0.1897  0.7990 -0.6657
  710MOL0     C95765   4.205   9.644  12.221  0.3818  1.4642 -0.7044
  710MOL0     N95766   3.405   9.334  12.340  1.0066 -0.1321  0.1894
  710MOL0     N95767   3.389   9.208  12.324 -0.3031 -1.1478 -0.0607
  710MOL0     C95768   3.390   8.089  11.730  0.6668 -0.6844  0.5185
  710MOL0     C95769   3.342   8.006  11.627  0.8594 -0.7509 -0.8962
  710MOL0     C95770   3.252   7.760  11.269  0.5759  0.2540  1.2633
  710MOL0     C95771   3.280   7.627  11.221 -0.0258 -0.0095 -0.0570
  710MOL0     C95772   3.230   7.574  11.101  1.0922 -0.6026 -0.0322
  710MOL0     C95773   3.116   7.639  11.050 -0.2907  0.9874 -0.1557
  710MOL0     O95774   3.043   7.595  10.939 -0.4316 -0.2144  0.4618
  710MOL0     C95775   3.057   7.451  10.909  0.3099 -0.4412 -0.5810
  710MOL0     C95776   3.005   7.349  11.015  0.4315 -0.8274  0.6333
  710MOL0     C95777   3.035   7.199  10.969 -0.3220  0.1052 -0.1692
  710MOL0     C95778   2.957   7.092  11.055 -0.5586  0.3174  1.2082
  710MOL0     C95779   2.965   7.103  11.198 -0.0439 -0.1451 -0.3067
  710MOL0     C95780   2.948   7.133  11.321  0.0630  0.7650 -0.6384
  710MOL0     C95781   3.075   7.758  11.106  0.0829 -0.1466 -0.7951
  710MOL0     C95782   3.145   7.821  11.209  0.1520  0.1583 -0.1307
  710MOL0     H95783   3.478   8.157  11.362 -0.1720 -0.8061 -0.4819
  710MOL0     H95784   3.580   8.300  11.549  1.7822  0.2470  2.0814
  710MOL0     H95785   3.413   8.341  11.931  0.1321  0.6086  0.6766
  710MOL0     H95786   3.483   8.179  11.972 -1.3193  0.9921  1.6545
  710MOL0     H95787   3.572   8.341  12.112  1.0020 -0.4241 -0.2721
  710MOL0     H95788   3.702   8.301  11.985 -0.2456 -0.4175 -2.3927
  710MOL0     H95789   3.659   8.490  11.865 -0.2812 -1.8511  0.5426
  710MOL0     H95790   3.519   8.536  11.963 -1.5512 -3.8491  0.1055
  710MOL0     H95791   3.667   8.527  12.166  1.8540  0.1349  1.4419
  710MOL0     H95792   3.809   8.530  12.070  0.5010  0.7194  3.8919
  710MOL0     H95793   3.807   8.759  12.063 -2.3124  5.3563  2.5994
  710MOL0     H95794   3.707   8.736  11.930  0.4522  4.0839  0.9083
  710MOL0     H95795   3.494   8.758  12.082 -1.1592  0.4213  4.8710
  710MOL0     H95796   3.608   8.753  12.213  2.1520  1.5662  0.6500
  710MOL0     H95797   3.682   8.985  12.184 -1.0752 -0.1431 -0.5167
  710MOL0     H95798   3.612   8.982  12.021 -2.9061 -1.9644 -0.7725
  710MOL0     H95799   3.431   8.952  12.273  1.4500  1.6169  2.9471
  710MOL0     H95800   3.393   9.005  12.106  2.3892 -3.6073 -1.2360
  710MOL0     H95801   3.612   9.258  12.093  2.9751 -1.9491  3.9921
  710MOL0     H95802   3.509   9.551  12.111 -0.8674 -0.4134 -1.2262
  710MOL0     H95803   3.483   9.572  12.285 -0.8099 -2.2793  0.7883
  710MOL0     H95804   3.727   9.484  12.133 -2.6572 -1.1160 -1.6618
  710MOL0     H95805   3.722   9.489  12.316 -3.2091 -0.1449  1.6822
  710MOL0     H95806   3.658   9.738  12.289  1.5991 -2.3106  2.7472
  710MOL0     H95807   3.713   9.732  12.121  3.7480  1.3312 -0.6375
  710MOL0     H95808   3.878   9.641  12.363 -0.7966 -2.2554 -0.7634
  710MOL0     H95809   3.896   9.799  12.273  2.1746 -1.0716 -1.7219
  710MOL0     H95810   3.969   9.412  12.310 -1.6962  0.8717 -2.4522
  710MOL0     H95811   4.047   9.277  12.473 -0.2396  3.4008  4.1729
  710MOL0     H95812   4.179   9.185  12.370  1.5958  0.8628  2.1826
  710MOL0     H95813   4.221   9.270  12.524  0.8718  0.3511  0.0242
  710MOL0     H95814   4.668   9.414  12.545 -0.5182 -0.5173  1.0218
  710MOL0     H95815   4.892   9.329  12.573 -2.3491  2.5248  1.3206
  710MOL0     H95816   5.131   9.372  12.483  0.2860 -0.8955  1.4292
  710MOL0     H95817   5.143   9.220  12.555 -1.6041 -0.3354  0.3984
  710MOL0     H95818   5.365   9.294  12.452 -0.8542 -0.7179 -0.2189
  710MOL0     H95819   5.305   9.147  12.385  0.3564  0.4025  0.4966
  710MOL0     H95820   5.279   9.420  12.247  1.7994  0.2745 -3.2147
  710MOL0     H95821   5.235   9.271  12.176  0.4479  1.9744 -0.4788
  710MOL0     H95822   5.506   9.351  12.283  0.2240 -0.8548  0.9891
  710MOL0     H95823   5.482   9.195  12.222  0.4371 -0.0634 -1.0987
  710MOL0     H95824   5.381   9.294  11.998 -0.9511 -2.2041  3.3934
  710MOL0     H95825   5.556   9.285  12.020  0.3685 -2.7257  0.9140
  710MOL0     H95826   5.421   9.535  12.108 -3.1214 -0.5813 -0.9536
  710MOL0     H95827   5.581   9.518  12.053  0.0571 -2.1257  0.1791
  710MOL0     H95828   5.323   9.497  11.891  0.0584  3.1333 -0.7745
  710MOL0     H95829   5.476   9.449  11.817 -1.0704 -2.1037  1.3528
  710MOL0     H95830   5.395   9.741  11.917  0.8282  1.9140 -2.8981
  710MOL0     H95831   5.387   9.677  11.756  0.0391 -2.1136  0.6607
  710MOL0     H95832   4.918   9.266  12.136  1.9442  0.9375 -0.1502
  710MOL0     H95833   4.689   9.341  12.126 -0.2049 -2.4216  0.5905
  710MOL0     H95834   4.403   9.644  12.299  2.3174 -2.4402  1.1650
  710MOL0     H95835   4.226   9.742  12.181 -0.2044  2.3175  0.9668
  710MOL0     H95836   3.349   8.071  11.829 -2.1721 -0.6561 -0.5735
  710MOL0     H95837   3.276   7.925  11.655 -2.7007  2.2548  0.3302
  710MOL0     H95838   3.360   7.566  11.261 -0.7810 -0.5266  0.6972
  710MOL0     H95839   3.273   7.488  11.050  0.0753 -0.9007 -0.4108
  710MOL0     H95840   3.010   7.429  10.813  0.7037 -2.4530 -0.3504
  710MOL0     H95841   3.161   7.427  10.886 -0.1162 -3.0476 -0.0691
  710MOL0     H95842   2.897   7.362  11.026  0.2137  1.8769 -2.8058
  710MOL0     H95843   3.049   7.374  11.112  2.9659 -1.8181 -0.1617
  710MOL0     H95844   3.140   7.170  10.973 -0.3763 -0.0732  0.0283
  710MOL0     H95845   3.008   7.197  10.863 -2.6097  0.6932  0.3415
  710MOL0     H95846   2.993   6.994  11.023  0.2522  0.8153  0.5391
  710MOL0     H95847   2.851   7.090  11.030 -0.3758 -1.6914  0.3755
  710MOL0     H95848   2.954   7.161  11.425 -1.5182 -0.7882 -0.0712
  710MOL0     H95849   3.001   7.815  11.051 -0.3603 -0.3268 -0.3886
  710MOL0     H95850   3.121   7.926  11.226  0.8163  0.2921  0.0423
  711MOL0     O95851   8.083   9.516   5.718  0.0398 -0.8395  0.7308
  711MOL0     C95852   8.113   9.608   5.792  1.4200 -0.1550 -0.0927
  711MOL0     O95853   8.192   9.712   5.763 -0.2405  0.2102  0.3255
  711MOL0     C95854   8.284   9.690   5.661  1.0054 -0.0575  0.4467
  711MOL0     C95855   8.365   9.577   5.648 -0.3073  0.5438  0.2839
  711MOL0     C95856   8.459   9.571   5.546 -0.4121  0.3732  1.0980
  711MOL0     C95857   8.476   9.673   5.444 -0.1478  0.3430  0.5465
  711MOL0     O95858   8.551   9.640   5.337 -0.2301  0.6654  0.0276
  711MOL0     C95859   8.582   9.740   5.239 -0.2968  0.3583  0.5274
  711MOL0     C95860   8.643   9.677   5.107  0.4932 -0.6501 -0.0087
  711MOL0     C95861   8.544   9.577   5.043 -0.5312  0.1313 -1.0062
  711MOL0     C95862   8.583   9.538   4.907  0.7596  0.1521  0.9856
  711MOL0     C95863   8.473   9.443   4.848 -0.0075  0.8103  0.0254
  711MOL0     C95864   8.489   9.304   4.903  0.5797  0.5815  0.0114
  711MOL0     C95865   8.427   9.208   4.805 -0.6207  0.3057  0.9176
  711MOL0     C95866   8.407   9.067   4.861 -0.5224 -0.1239  0.2825
  711MOL0     N95867   8.539   8.997   4.882 -0.2947  0.0440 -0.7568
  711MOL0     C95868   8.630   9.015   4.986  0.5307  0.5419  0.5843
  711MOL0     C95869   8.717   8.914   4.979  1.5811  0.6460  0.1564
  711MOL0     C95870   8.816   8.881   5.092  0.0806  0.5529  0.4736
  711MOL0     C95871   8.767   8.755   5.164  0.5113  0.0005  0.0599
  711MOL0     C95872   8.859   8.725   5.284  0.7830 -0.3275  0.5082
  711MOL0     C95873   8.828   8.603   5.366  0.1793 -0.1559 -0.1350
  711MOL0     O95874   8.931   8.583   5.465  0.4363  1.7503 -0.6424
  711MOL0     C95875   8.902   8.500   5.575 -0.4037 -0.4848  1.0920
  711MOL0     C95876   9.004   8.481   5.655 -0.1176 -0.8978 -0.2846
  711MOL0     C95877   9.002   8.382   5.754 -0.7549  0.6945 -0.7367
  711MOL0     C95878   9.123   8.373   5.850  0.2780 -0.0976  0.6810
  711MOL0     C95879   8.891   8.291   5.769  0.2983 -0.5695  0.1915
  711MOL0     C95880   8.876   8.180   5.867 -0.2830  0.2173  1.2038
  711MOL0     O95881   8.773   8.093   5.849 -0.3633  0.1987 -0.0746
  711MOL0     C95882   8.752   7.985   5.934 -0.2758  0.2441 -0.3783
  711MOL0     C95883   8.761   7.995   6.078  0.5179 -0.1624 -0.6652
  711MOL0     C95884   8.738   7.884   6.162  0.4643 -0.2993  0.0554
  711MOL0     C95885   8.690   7.767   6.102  0.2616  1.0487  0.4809
  711MOL0     O95886   8.699   7.654   6.183  0.2029  0.1964 -0.1037
  711MOL0     C95887   8.589   7.564   6.186 -0.5481 -0.0239  0.0968
  711MOL0     C95888   8.457   7.636   6.204  0.1290 -0.3248 -0.1662
  711MOL0     C95889   8.434   7.733   6.334 -0.2190 -1.1901  0.6038
  711MOL0     C95890   8.285   7.768   6.337  0.5660  0.1498  0.0122
  711MOL0     C95891   8.244   7.858   6.454  0.1751  1.6791  0.3705
  711MOL0     C95892   8.290   8.009   6.424 -0.1034  1.1897  0.6170
  711MOL0     C95893   8.246   8.094   6.533 -0.5042 -0.1610 -0.1591
  711MOL0     C95894   8.105   8.109   6.567  0.2478  0.9006  0.3926
  711MOL0    Cl95895   8.089   8.228   6.704 -0.5302  0.2822  0.0960
  711MOL0     C95896   8.667   7.760   5.970  0.1109 -0.3236  0.4823
  711MOL0     C95897   8.699   7.866   5.881  0.1588 -0.1878  0.5138
  711MOL0     O95898   8.957   8.171   5.957 -0.1627 -0.7529  0.3076
  711MOL0     C95899   8.790   8.319   5.678 -0.0512  0.7147 -0.2641
  711MOL0     C95900   8.789   8.426   5.593  0.3084  0.4174 -1.2937
  711MOL0     N95901   8.685   8.837   4.871 -0.0692 -0.8804 -0.6104
  711MOL0     N95902   8.581   8.882   4.819  0.1393 -0.3824 -0.3071
  711MOL0     C95903   8.400   9.785   5.459 -0.0424 -1.3357 -0.0276
  711MOL0     C95904   8.299   9.788   5.563 -1.0150 -0.6000 -0.5056
  711MOL0     C95905   8.068   9.587   5.936  0.4601 -0.3598  0.8232
  711MOL0     C95906   8.034   9.462   5.985  0.1976  0.2698 -0.4141
  711MOL0     C95907   7.995   9.457   6.123  0.1852  0.5634  0.2172
  711MOL0     C95908   7.979   9.566   6.204  0.0664 -0.5286 -0.2644
  711MOL0     O95909   7.933   9.557   6.334  0.0721  0.2106 -0.3293
  711MOL0     C95910   7.881   9.670   6.402  0.1443 -0.4972  0.1413
  711MOL0     C95911   7.742   9.709   6.341  0.2773 -0.0311 -0.6970
  711MOL0     C95912   7.657   9.807   6.424 -0.6044 -0.0261 -0.0343
  711MOL0     C95913   7.504   9.795   6.386 -0.8493  0.5688  0.3549
  711MOL0     C95914   7.425   9.880   6.469  0.5276  0.6521  0.7997
  711MOL0     C95915   7.339   9.941   6.528 -0.0719  0.3121  0.5404
  711MOL0     C95916   8.011   9.690   6.148 -0.1910  0.3142 -0.1983
  711MOL0     C95917   8.048   9.697   6.013 -0.1768  1.0273  0.3947
  711MOL0     H95918   8.363   9.489   5.711  1.8046  0.3294  0.1295
  711MOL0     H95919   8.525   9.486   5.536  0.0938  0.8475  0.3124
  711MOL0     H95920   8.490   9.796   5.219 -0.8257 -0.1043  1.5714
  711MOL0     H95921   8.651   9.816   5.278  1.1077 -0.2065 -0.7703
  711MOL0     H95922   8.678   9.753   5.036  3.5906 -1.8181  0.1162
  711MOL0     H95923   8.733   9.619   5.128 -2.0225 -4.6443  0.6786
  711MOL0     H95924   8.532   9.480   5.093  0.4382  1.3052  1.6966
  711MOL0     H95925   8.444   9.622   5.049 -0.4325  0.1454  1.9185
  711MOL0     H95926   8.605   9.620   4.838  4.5700 -0.5127  1.2349
  711MOL0     H95927   8.675   9.480   4.899 -0.6054 -2.4710  2.9850
  711MOL0     H95928   8.372   9.480   4.866 -0.9524 -0.8589 -1.5397
  711MOL0     H95929   8.483   9.431   4.740 -0.5908  1.7462 -0.1466
  711MOL0     H95930   8.595   9.281   4.921  0.8126  0.4543 -1.4318
  711MOL0     H95931   8.435   9.297   4.998  0.9739 -2.0898  0.1090
  711MOL0     H95932   8.334   9.247   4.763 -2.1207 -3.9800 -0.2106
  711MOL0     H95933   8.491   9.191   4.718 -1.0928 -0.2730  0.6731
  711MOL0     H95934   8.365   9.001   4.784 -0.8204 -0.8090  1.0032
  711MOL0     H95935   8.338   9.071   4.946 -0.9944  5.4791  0.0181
  711MOL0     H95936   8.629   9.098   5.056  3.0548 -0.2450  1.6781
  711MOL0     H95937   8.913   8.856   5.049 -1.6866 -2.3512 -2.2082
  711MOL0     H95938   8.822   8.956   5.172 -1.3247  0.1587  0.9776
  711MOL0     H95939   8.764   8.670   5.095  0.1157  0.5726 -0.6516
  711MOL0     H95940   8.667   8.772   5.204  0.4698  0.6931 -0.3204
  711MOL0     H95941   8.857   8.815   5.345 -2.5335  1.4704 -1.9085
  711MOL0     H95942   8.963   8.711   5.254  0.1819 -0.4804 -1.7150
  711MOL0     H95943   8.833   8.517   5.298 -0.9058 -1.1686  1.0290
  711MOL0     H95944   8.724   8.594   5.400 -0.0215 -1.1649 -0.9688
  711MOL0     H95945   9.094   8.542   5.647 -1.6708  1.4595 -0.8984
  711MOL0     H95946   9.105   8.429   5.943 -1.6640  0.7909 -0.1691
  711MOL0     H95947   9.158   8.271   5.869 -0.6102 -0.2767  1.4728
  711MOL0     H95948   9.215   8.420   5.814 -1.4604  0.4105 -3.7187
  711MOL0     H95949   8.778   8.092   6.124 -1.9714 -0.1546  0.4035
  711MOL0     H95950   8.763   7.882   6.268  1.1687  1.6701 -0.0363
  711MOL0     H95951   8.583   7.498   6.099 -2.7486 -2.3232  1.8137
  711MOL0     H95952   8.604   7.504   6.277 -0.9572  1.8768  1.4871
  711MOL0     H95953   8.430   7.686   6.110 -0.0245  2.1668  1.1014
  711MOL0     H95954   8.390   7.551   6.217 -0.9587  0.7861  1.9204
  711MOL0     H95955   8.476   7.833   6.319 -4.9279  1.2247  1.5396
  711MOL0     H95956   8.469   7.675   6.420  0.2913 -0.4597  0.8926
  711MOL0     H95957   8.262   7.805   6.237 -0.1229 -1.2763 -0.3954
  711MOL0     H95958   8.226   7.675   6.336  0.9415 -0.0886 -1.2118
  711MOL0     H95959   8.300   7.827   6.543  1.1491 -3.6355 -1.7200
  711MOL0     H95960   8.140   7.841   6.483  0.8155 -0.7215  1.4575
  711MOL0     H95961   8.399   8.013   6.428 -0.0378  0.6749 -0.5168
  711MOL0     H95962   8.240   8.043   6.333 -0.6846  1.1144  0.9060
  711MOL0     H95963   8.297   8.189   6.517  1.6703 -1.6690 -3.1600
  711MOL0     H95964   8.290   8.055   6.626 -1.3043  2.2398  1.3019
  711MOL0     H95965   8.053   8.018   6.596  0.4402 -0.3473 -2.7318
  711MOL0     H95966   8.058   8.139   6.472  0.6006 -3.0023 -1.1940
  711MOL0     H95967   8.611   7.680   5.924  0.8108 -2.8541  3.6256
  711MOL0     H95968   8.680   7.856   5.775  2.5761  1.9834 -0.2198
  711MOL0     H95969   8.701   8.257   5.678  1.4912 -1.5857 -0.1718
  711MOL0     H95970   8.704   8.433   5.526  0.7343  0.4971 -1.8357
  711MOL0     H95971   8.398   9.857   5.378 -2.0512  1.8809  2.6150
  711MOL0     H95972   8.231   9.872   5.566 -2.9297 -2.0861  2.2940
  711MOL0     H95973   8.045   9.375   5.921  0.2429 -1.3521  1.6997
  711MOL0     H95974   7.957   9.361   6.158  0.8118 -0.0086 -0.6334
  711MOL0     H95975   7.866   9.644   6.507 -1.5527 -2.8687 -0.5876
  711MOL0     H95976   7.960   9.745   6.407 -0.9633  0.6923  0.4283
  711MOL0     H95977   7.691   9.616   6.317 -3.3311  1.2923  1.1003
  711MOL0     H95978   7.753   9.754   6.242 -2.6641  0.5255 -0.8512
  711MOL0     H95979   7.705   9.905   6.410  0.7336  0.0282  3.7133
  711MOL0     H95980   7.673   9.789   6.531  1.5983 -2.8162 -0.7059
  711MOL0     H95981   7.458   9.700   6.416 -1.5433  0.7962  0.0436
  711MOL0     H95982   7.483   9.835   6.287 -2.3969  0.8542  0.7720
  711MOL0     H95983   7.269   9.998   6.586 -0.3032  0.1873  0.3859
  711MOL0     H95984   8.018   9.784   6.203 -1.9259  0.9402 -0.9882
  711MOL0     H95985   8.085   9.788   5.967  1.0151 -0.7777 -2.5062
  712MOL0     O95986   2.394   3.747   4.677 -0.3527  0.2994  0.0761
  712MOL0     C95987   2.388   3.628   4.650 -0.0292 -0.1449 -0.4852
  712MOL0     O95988   2.401   3.576   4.518 -0.1912 -0.8632  0.3138
  712MOL0     C95989   2.375   3.672   4.408 -0.4620  0.6198  0.3588
  712MOL0     C95990   2.237   3.712   4.394 -0.1235  0.1384  0.9442
  712MOL0     C95991   2.214   3.821   4.313 -0.6091 -0.2300  0.0605
  712MOL0     C95992   2.315   3.883   4.233  0.1569  0.1683  0.3791
  712MOL0     O95993   2.288   3.987   4.149  0.0945 -0.5009 -0.2899
  712MOL0     C95994   2.157   4.040   4.151 -0.1020 -0.9586 -0.9620
  712MOL0     C95995   2.152   4.149   4.045  0.1098  0.4652  0.1873
  712MOL0     C95996   2.148   4.085   3.903  0.2759 -0.3008 -0.0394
  712MOL0     C95997   2.166   4.198   3.789  1.1538  0.2465 -0.9623
  712MOL0     C95998   2.040   4.288   3.795  0.6592 -0.1566 -1.1766
  712MOL0     C95999   2.037   4.380   3.671  0.0901 -0.1874  0.7565
  712MOL0     C96000   1.929   4.491   3.653 -0.0365 -0.9787 -1.0661
  712MOL0     C96001   1.787   4.436   3.655  0.2244 -0.6184 -0.5870
  712MOL0     N96002   1.682   4.536   3.619  0.0240 -0.1481  0.2845
  712MOL0     C96003   1.586   4.604   3.700 -0.4469 -0.6215  0.1189
  712MOL0     C96004   1.510   4.676   3.609 -0.8549  0.2066  0.0616
  712MOL0     C96005   1.404   4.769   3.646  0.5581  1.2234 -1.2707
  712MOL0     C96006   1.266   4.712   3.612 -0.1448 -0.2492 -0.7314
  712MOL0     C96007   1.163   4.819   3.647 -0.7339  0.6342 -0.1785
  712MOL0     C96008   1.038   4.747   3.687 -0.0540 -0.3327  0.0002
  712MOL0     O96009   0.996   4.652   3.585 -0.4553 -0.2086  0.4454
  712MOL0     C96010   0.887   4.579   3.609  0.7332 -0.1229 -0.0163
  712MOL0     C96011   0.832   4.491   3.513  0.6980  0.2156 -0.9000
  712MOL0     C96012   0.718   4.412   3.534 -0.5461  0.6295 -0.2275
  712MOL0     C96013   0.672   4.325   3.426 -0.4525  0.4927 -0.1812
  712MOL0     C96014   0.641   4.433   3.655  0.8668  0.5331 -0.0729
  712MOL0     C96015   0.505   4.367   3.681  0.4133  0.0876  0.8389
  712MOL0     O96016   0.477   4.359   3.814  0.2923  0.6357 -0.3117
  712MOL0     C96017   0.348   4.331   3.852  0.7406  0.1493  0.0058
  712MOL0     C96018   0.273   4.425   3.929  0.0431 -0.6542  0.5260
  712MOL0     C96019   0.158   4.395   3.999  0.3762 -0.6644  1.9128
  712MOL0     C96020   0.103   4.261   3.989  0.8371  0.2209 -0.5722
  712MOL0     O96021  -0.025   4.234   4.047 -0.5926  0.5118 -0.5450
  712MOL0     C96022  -0.110   4.166   3.944 -0.2300 -0.8783  0.0910
  712MOL0     C96023  -0.259   4.167   3.984 -0.5174 -0.5702 -0.0398
  712MOL0     C96024  -0.286   4.108   4.111  0.3503  0.4128 -0.7670
  712MOL0     C96025  -0.442   4.130   4.140 -0.2533  0.9385  0.6051
  712MOL0     C96026  -0.493   4.052   4.267 -0.0431  0.1055  0.0690
  712MOL0     C96027  -0.466   3.904   4.283  0.8939  0.4684  0.2183
  712MOL0     C96028  -0.532   3.819   4.168  0.1186 -0.2780 -0.3142
  712MOL0     C96029  -0.508   3.666   4.191 -0.0165 -1.1250 -0.6222
  712MOL0    Cl96030  -0.341   3.631   4.151 -0.4221 -0.1382  0.0484
  712MOL0     C96031   0.178   4.164   3.913 -0.9161  0.3698  0.2407
  712MOL0     C96032   0.295   4.199   3.853  0.3169 -0.3466  0.4473
  712MOL0     O96033   0.433   4.324   3.591  0.3743 -0.9884  0.4382
  712MOL0     C96034   0.692   4.528   3.753  0.0130  0.1937 -0.7968
  712MOL0     C96035   0.815   4.591   3.735  0.4431 -0.2645 -0.5012
  712MOL0     N96036   1.557   4.651   3.480 -0.2773 -0.6675 -0.4379
  712MOL0     N96037   1.666   4.572   3.489  0.7491  0.2127  0.2893
  712MOL0     C96038   2.445   3.830   4.244  0.5468  0.4647 -0.2113
  712MOL0     C96039   2.480   3.725   4.329  0.4688 -0.6140  0.7271
  712MOL0     C96040   2.388   3.533   4.766 -0.5610 -0.4929  0.7884
  712MOL0     C96041   2.377   3.397   4.730  0.9386  0.5189 -0.1239
  712MOL0     C96042   2.387   3.301   4.832  0.2534 -0.8344 -0.1309
  712MOL0     C96043   2.398   3.336   4.964  0.9420 -0.6410 -0.2188
  712MOL0     O96044   2.408   3.258   5.077  0.4475  0.1809 -0.1415
  712MOL0     C96045   2.418   3.118   5.064  0.1462 -0.4360 -0.7600
  712MOL0     C96046   2.435   3.045   5.198 -0.1369 -0.6719  0.6439
  712MOL0     C96047   2.549   3.109   5.273  0.5840 -0.1499  0.1897
  712MOL0     C96048   2.595   3.016   5.385 -0.5904  0.6308  1.0145
  712MOL0     C96049   2.661   2.901   5.324 -0.3225  0.7472  0.4905
  712MOL0     C96050   2.712   2.795   5.286  1.2490 -0.2651 -0.3376
  712MOL0     C96051   2.396   3.476   4.989  0.2462 -0.1687 -0.7559
  712MOL0     C96052   2.389   3.574   4.893 -0.6776 -0.1487 -0.6609
  712MOL0     H96053   2.166   3.668   4.463 -3.9341  3.8584 -0.2245
  712MOL0     H96054   2.112   3.859   4.309 -0.1457  0.9516 -0.9479
  712MOL0     H96055   2.080   3.965   4.133  1.3242 -1.9128 -3.4996
  712MOL0     H96056   2.123   4.092   4.242 -5.1717 -1.5488 -2.1953
  712MOL0     H96057   2.052   4.190   4.058  0.2984  1.9994 -2.5729
  712MOL0     H96058   2.223   4.232   4.048 -0.0744  0.7255 -1.6867
  712MOL0     H96059   2.229   4.012   3.898  3.4842  2.9259  0.7125
  712MOL0     H96060   2.050   4.038   3.889 -0.6340  2.2135 -3.7078
  712MOL0     H96061   2.252   4.264   3.803  1.4977 -0.8588  3.8822
  712MOL0     H96062   2.149   4.152   3.691 -3.6512 -0.0069 -0.2430
  712MOL0     H96063   1.951   4.224   3.796  1.2954 -1.1594  1.7106
  712MOL0     H96064   2.045   4.345   3.888  3.8435 -2.8404  0.5439
  712MOL0     H96065   2.131   4.431   3.650 -2.9625  5.1705 -2.0534
  712MOL0     H96066   2.032   4.320   3.579  0.6560  2.3654 -1.0313
  712MOL0     H96067   1.947   4.575   3.720  5.0579 -2.7867  0.3001
  712MOL0     H96068   1.959   4.543   3.562  0.7394 -0.1170 -0.3368
  712MOL0     H96069   1.762   4.384   3.748 -2.2595 -1.9364 -1.8747
  712MOL0     H96070   1.783   4.360   3.577  1.2763 -1.3524  0.0590
  712MOL0     H96071   1.577   4.626   3.805  1.7529  4.4667 -0.4290
  712MOL0     H96072   1.404   4.793   3.753  2.3040  2.4130 -1.4922
  712MOL0     H96073   1.414   4.856   3.582  2.9519  0.9620 -1.3455
  712MOL0     H96074   1.254   4.630   3.683  0.8192  0.3294  0.1159
  712MOL0     H96075   1.264   4.683   3.506  0.5376 -2.7181 -0.1497
  712MOL0     H96076   1.146   4.894   3.570  1.2033 -0.8603 -2.1912
  712MOL0     H96077   1.185   4.872   3.740 -1.1708  0.6258 -0.0695
  712MOL0     H96078   0.965   4.828   3.701  1.1001  1.5991 -3.7093
  712MOL0     H96079   1.057   4.697   3.783  1.2925 -1.1462 -0.6600
  712MOL0     H96080   0.891   4.479   3.423 -1.4909  2.4743 -2.7647
  712MOL0     H96081   0.616   4.236   3.455 -2.5259  2.1244  1.0825
  712MOL0     H96082   0.617   4.389   3.355 -1.6350 -0.5784 -0.2640
  712MOL0     H96083   0.756   4.279   3.374 -1.8286 -3.0916  0.5073
  712MOL0     H96084   0.319   4.524   3.929 -2.4416  0.6780 -2.4275
  712MOL0     H96085   0.123   4.471   4.068 -0.5224  0.3738  0.3599
  712MOL0     H96086  -0.097   4.215   3.846 -2.3787  0.4849  0.4032
  712MOL0     H96087  -0.082   4.062   3.923  2.6656 -0.0788 -0.4331
  712MOL0     H96088  -0.280   4.274   3.991 -0.9841 -0.5761 -1.1520
  712MOL0     H96089  -0.315   4.128   3.899 -0.7846  0.4427 -0.3331
  712MOL0     H96090  -0.220   4.156   4.184  0.7166  0.5041 -1.1588
  712MOL0     H96091  -0.248   4.006   4.119 -0.1202  0.3674  3.0067
  712MOL0     H96092  -0.459   4.238   4.141 -0.7699  0.8681  0.2801
  712MOL0     H96093  -0.492   4.094   4.049  0.7723  1.0479 -0.0089
  712MOL0     H96094  -0.600   4.072   4.265 -0.0200  0.2083 -0.2540
  712MOL0     H96095  -0.461   4.109   4.355  0.8914 -0.8713  0.3839
  712MOL0     H96096  -0.358   3.892   4.277  0.8927 -0.1899  1.2370
  712MOL0     H96097  -0.496   3.865   4.381  3.4163  1.2757  1.3715
  712MOL0     H96098  -0.485   3.837   4.071 -0.3756 -0.2456 -0.5529
  712MOL0     H96099  -0.638   3.845   4.165  0.1414  0.0514  1.3336
  712MOL0     H96100  -0.584   3.608   4.137 -2.0710 -2.0435  2.9133
  712MOL0     H96101  -0.542   3.636   4.291 -3.2411 -2.7611 -2.0345
  712MOL0     H96102   0.142   4.062   3.917 -0.5955  0.2744  2.9288
  712MOL0     H96103   0.347   4.126   3.793 -0.5787 -3.9643  3.6231
  712MOL0     H96104   0.643   4.554   3.846 -0.9218 -1.0865 -0.9173
  712MOL0     H96105   0.844   4.668   3.805  0.8745 -2.2743  1.6335
  712MOL0     H96106   2.521   3.871   4.176  1.0845  1.6146  1.0299
  712MOL0     H96107   2.583   3.695   4.345 -0.4699 -4.1115  1.0528
  712MOL0     H96108   2.362   3.357   4.630  0.9373  1.3781 -0.4740
  712MOL0     H96109   2.382   3.197   4.804 -0.3487 -0.2661 -2.2857
  712MOL0     H96110   2.324   3.086   5.017 -0.1131 -1.0160  0.1327
  712MOL0     H96111   2.503   3.096   4.998  0.3507  3.0557 -1.8867
  712MOL0     H96112   2.451   2.940   5.168  1.1020 -0.1498 -0.6496
  712MOL0     H96113   2.342   3.059   5.254 -0.9743  0.1552 -0.9126
  712MOL0     H96114   2.513   3.197   5.327 -2.1852 -0.3742 -1.1340
  712MOL0     H96115   2.632   3.136   5.207 -0.0192 -1.3096 -1.0923
  712MOL0     H96116   2.509   3.001   5.452 -1.8146  0.7021 -0.5041
  712MOL0     H96117   2.673   3.071   5.438  1.0960 -1.7962  1.2611
  712MOL0     H96118   2.775   2.720   5.242  1.2275  0.0656 -0.9442
  712MOL0     H96119   2.418   3.501   5.093  2.8815 -0.6388 -1.1273
  712MOL0     H96120   2.382   3.677   4.926  3.2664 -0.0241  0.3204
  713MOL0     O96121   8.806   1.405   5.079  0.2888  0.5112 -0.2815
  713MOL0     C96122   8.703   1.432   5.145  0.1552 -0.4004  0.0059
  713MOL0     O96123   8.572   1.405   5.102 -0.0676 -1.0535 -0.5915
  713MOL0     C96124   8.568   1.306   5.007  0.1321  0.6623 -0.1280
  713MOL0     C96125   8.575   1.165   5.043 -0.0453 -0.8028 -0.0799
  713MOL0     C96126   8.569   1.074   4.934  1.0783  0.1801 -0.1642
  713MOL0     C96127   8.549   1.110   4.793 -1.1704 -0.2349 -0.0954
  713MOL0     O96128   8.539   1.010   4.703 -0.3846 -0.8687  0.1255
  713MOL0     C96129   8.524   1.048   4.562 -0.7829  0.3095 -0.6962
  713MOL0     C96130   8.498   0.918   4.485 -0.1606  0.6314 -0.0215
  713MOL0     C96131   8.457   0.959   4.338 -0.2021 -0.4027 -0.4060
  713MOL0     C96132   8.469   0.840   4.246 -0.6555 -1.0091 -0.0012
  713MOL0     C96133   8.490   0.870   4.100  0.7160  1.1841  0.9061
  713MOL0     C96134   8.363   0.893   4.017 -1.2971  0.5909 -0.0454
  713MOL0     C96135   8.395   0.895   3.869 -0.5263 -0.3724  0.4591
  713MOL0     C96136   8.286   0.965   3.794  0.3094 -0.5515 -0.4159
  713MOL0     N96137   8.236   0.896   3.672 -0.7466 -0.4224 -0.1097
  713MOL0     C96138   8.301   0.863   3.556  0.0183  0.3422 -0.6207
  713MOL0     C96139   8.199   0.843   3.466  0.4975  0.7656 -1.9417
  713MOL0     C96140   8.196   0.810   3.329  0.2247  0.7212  0.2205
  713MOL0     C96141   8.229   0.649   3.326  0.0236  0.5768  0.5183
  713MOL0     C96142   8.387   0.632   3.344  0.7306  0.6070  0.0401
  713MOL0     C96143   8.483   0.680   3.231 -0.8173  0.0572 -0.7802
  713MOL0     O96144   8.419   0.655   3.109 -0.4283 -0.1285 -0.1301
  713MOL0     C96145   8.434   0.543   3.037  0.0583  0.5706 -0.3609
  713MOL0     C96146   8.376   0.556   2.908 -0.0204  1.0799  0.0965
  713MOL0     C96147   8.397   0.452   2.807 -0.5982  0.4679 -0.1095
  713MOL0     C96148   8.356   0.494   2.676  0.1196 -0.0517  0.2948
  713MOL0     C96149   8.456   0.328   2.840 -0.0042  0.7493  0.2240
  713MOL0     C96150   8.501   0.238   2.731  0.6991  0.0751 -0.3099
  713MOL0     O96151   8.412   0.208   2.639 -0.0643 -0.1283 -0.1912
  713MOL0     C96152   8.448   0.156   2.519 -0.6966  0.7112 -0.3432
  713MOL0     C96153   8.361   0.070   2.453 -0.6027  0.4452 -0.8368
  713MOL0     C96154   8.378   0.008   2.327 -0.6591 -0.1242 -0.5457
  713MOL0     C96155   8.508   0.028   2.265 -0.1216  0.0246 -0.7555
  713MOL0     O96156   8.536  -0.018   2.143  0.3959  0.4115 -0.5134
  713MOL0     C96157   8.533   0.094   2.050 -0.2071 -0.0888  0.4898
  713MOL0     C96158   8.528   0.026   1.905  0.2323 -0.7142 -0.3774
  713MOL0     C96159   8.574   0.131   1.802 -0.2184  0.1141 -0.0533
  713MOL0     C96160   8.526   0.103   1.656  0.1547 -0.9094  0.9628
  713MOL0     C96161   8.403   0.193   1.608 -0.2543 -0.3346  0.3701
  713MOL0     C96162   8.440   0.344   1.613 -0.3516  0.6441 -0.7020
  713MOL0     C96163   8.366   0.416   1.499 -0.1370 -0.6481 -0.5029
  713MOL0     C96164   8.417   0.549   1.473  0.4167 -0.4217  0.1447
  713MOL0    Cl96165   8.299   0.630   1.372 -0.1081  0.1735  0.4426
  713MOL0     C96166   8.598   0.122   2.330  0.0297  0.1183 -0.5405
  713MOL0     C96167   8.571   0.191   2.452  1.2109  0.8238 -0.4660
  713MOL0     O96168   8.610   0.187   2.741 -0.3431 -0.5356 -0.1127
  713MOL0     C96169   8.510   0.313   2.972  0.8048 -0.5290  0.5254
  713MOL0     C96170   8.502   0.418   3.068  0.5418 -0.6051  0.1877
  713MOL0     N96171   8.076   0.850   3.538 -0.3266 -0.2520 -1.3070
  713MOL0     N96172   8.104   0.887   3.660 -0.0367  1.2008  0.9126
  713MOL0     C96173   8.541   1.242   4.773  0.3911 -0.3632  0.6193
  713MOL0     C96174   8.535   1.338   4.876 -0.3497  0.4038  0.5840
  713MOL0     C96175   8.737   1.475   5.282  0.2043 -0.1270  0.5496
  713MOL0     C96176   8.872   1.512   5.326  0.2910  0.1275  0.7316
  713MOL0     C96177   8.900   1.550   5.453  0.0030  0.3851 -0.2377
  713MOL0     C96178   8.808   1.540   5.549  0.1140  0.3299  0.6168
  713MOL0     O96179   8.845   1.583   5.672  0.0987 -0.1278 -0.0590
  713MOL0     C96180   8.744   1.626   5.764 -0.1965  0.2226 -0.5637
  713MOL0     C96181   8.801   1.668   5.906  0.0257  0.1675 -0.5563
  713MOL0     C96182   8.703   1.749   5.992 -0.8939  0.1884  0.0407
  713MOL0     C96183   8.559   1.679   5.997 -0.8525 -0.6312 -0.0764
  713MOL0     C96184   8.570   1.543   6.035 -0.0597 -0.3633 -0.2725
  713MOL0     C96185   8.599   1.426   6.056  1.5059  0.8515 -0.5974
  713MOL0     C96186   8.679   1.508   5.517 -0.6108 -0.3194  0.9061
  713MOL0     C96187   8.643   1.474   5.383 -0.4673 -0.3353  0.0206
  713MOL0     H96188   8.579   1.144   5.149 -3.9224 -1.2126  0.0914
  713MOL0     H96189   8.559   0.967   4.950 -1.6986  0.6638  1.9307
  713MOL0     H96190   8.437   1.114   4.548 -1.5981 -0.3682  0.9152
  713MOL0     H96191   8.618   1.087   4.523  2.9816 -1.4774  5.2430
  713MOL0     H96192   8.573   0.840   4.497 -0.3830  0.8875  5.5314
  713MOL0     H96193   8.407   0.876   4.530 -0.1836  1.1011  0.3732
  713MOL0     H96194   8.357   1.005   4.334  0.1519  0.8111  2.3369
  713MOL0     H96195   8.528   1.035   4.305 -1.1988  0.4879 -0.5672
  713MOL0     H96196   8.550   0.771   4.274  1.9045  0.1327 -3.7947
  713MOL0     H96197   8.369   0.796   4.243 -1.2753  0.0822  2.5656
  713MOL0     H96198   8.565   0.949   4.086 -0.2139  1.9695  0.1886
  713MOL0     H96199   8.528   0.777   4.057  1.4177  1.6452  0.5106
  713MOL0     H96200   8.282   0.820   4.031 -1.0782 -0.0190 -1.8092
  713MOL0     H96201   8.323   0.990   4.050  0.1217  1.0988  0.2284
  713MOL0     H96202   8.483   0.959   3.865  0.2264 -1.0290  3.6265
  713MOL0     H96203   8.416   0.796   3.829 -0.1815 -0.1506  0.0870
  713MOL0     H96204   8.338   1.058   3.769  3.7535 -2.2260  0.0261
  713MOL0     H96205   8.210   0.994   3.868  0.5489 -2.8648  0.8535
  713MOL0     H96206   8.408   0.861   3.537  0.3514  1.3627  1.0094
  713MOL0     H96207   8.093   0.828   3.297 -1.1692 -2.1216  2.6553
  713MOL0     H96208   8.271   0.867   3.273  1.2368 -0.4387  0.3577
  713MOL0     H96209   8.196   0.593   3.237 -1.3245 -1.5024  2.2203
  713MOL0     H96210   8.176   0.598   3.407 -3.1163 -1.1033 -2.3256
  713MOL0     H96211   8.385   0.523   3.340 -0.5528  0.6371 -0.6340
  713MOL0     H96212   8.408   0.668   3.445 -1.6792 -2.7959  1.9732
  713MOL0     H96213   8.577   0.624   3.245  0.4977  2.4742  0.7321
  713MOL0     H96214   8.507   0.786   3.240  2.2939 -0.6171  0.1287
  713MOL0     H96215   8.313   0.642   2.892 -2.2261 -0.8641 -2.9751
  713MOL0     H96216   8.443   0.506   2.611 -0.5850 -3.4498 -1.5631
  713MOL0     H96217   8.273   0.429   2.645 -1.4526  2.1279 -0.3125
  713MOL0     H96218   8.323   0.598   2.682  2.5208  0.6833  2.7122
  713MOL0     H96219   8.274   0.053   2.516  1.5934 -1.2160  1.9852
  713MOL0     H96220   8.301  -0.059   2.291 -0.8592  0.4500 -1.1935
  713MOL0     H96221   8.443   0.154   2.065  0.6025  0.9251  1.5258
  713MOL0     H96222   8.624   0.154   2.059 -0.1473 -0.2829  1.2154
  713MOL0     H96223   8.581  -0.069   1.894  0.6189 -0.6451  0.8094
  713MOL0     H96224   8.424  -0.006   1.894 -1.1892  3.1448  0.3057
  713MOL0     H96225   8.683   0.132   1.807 -0.2556  2.4364  2.0990
  713MOL0     H96226   8.528   0.222   1.842 -2.8009 -1.4951  0.9385
  713MOL0     H96227   8.601   0.139   1.586 -0.8763 -1.2225 -0.3378
  713MOL0     H96228   8.508  -0.004   1.646 -1.8808 -0.6251  0.9719
  713MOL0     H96229   8.313   0.180   1.669  0.3369  0.6114  1.4764
  713MOL0     H96230   8.377   0.157   1.507  0.1656 -1.0729  0.5221
  713MOL0     H96231   8.401   0.382   1.708  1.3872  0.4890  0.1207
  713MOL0     H96232   8.547   0.363   1.624  0.8176 -4.3620 -0.8959
  713MOL0     H96233   8.260   0.407   1.523  0.1158 -1.0934  0.4706
  713MOL0     H96234   8.366   0.361   1.405  1.3741 -2.5207  0.5390
  713MOL0     H96235   8.517   0.552   1.428 -1.2654  2.1569 -4.0815
  713MOL0     H96236   8.424   0.598   1.571 -2.6257 -1.5578  1.0374
  713MOL0     H96237   8.698   0.137   2.290  1.0869 -0.2342  1.7747
  713MOL0     H96238   8.647   0.247   2.505  1.2150 -0.1183  0.5546
  713MOL0     H96239   8.576   0.228   2.988  0.9815 -0.2232  1.5065
  713MOL0     H96240   8.554   0.410   3.162 -0.5802  0.4248  0.9223
  713MOL0     H96241   8.512   1.276   4.674 -1.7663 -3.7165 -0.0815
  713MOL0     H96242   8.515   1.441   4.849  1.5911  0.8612  0.8083
  713MOL0     H96243   8.945   1.523   5.246 -0.8716  1.7185 -0.1721
  713MOL0     H96244   9.002   1.582   5.473  1.4471 -2.8289 -1.6885
  713MOL0     H96245   8.699   1.713   5.715 -0.4381  0.7144  0.5094
  713MOL0     H96246   8.674   1.543   5.774  2.7549 -2.2351  2.1029
  713MOL0     H96247   8.898   1.718   5.899  1.7381 -2.1511  3.5092
  713MOL0     H96248   8.829   1.572   5.952 -0.1746  0.4335  0.1245
  713MOL0     H96249   8.694   1.852   5.957  0.5588 -0.3365 -2.0331
  713MOL0     H96250   8.750   1.758   6.091 -0.8387  1.0416 -0.0578
  713MOL0     H96251   8.518   1.684   5.896  3.3309  1.5206 -1.8965
  713MOL0     H96252   8.486   1.734   6.058  0.5628  0.3114  0.8249
  713MOL0     H96253   8.605   1.323   6.085 -2.2956  0.1310 -1.8591
  713MOL0     H96254   8.591   1.509   5.581 -1.3721  0.4743 -0.1008
  713MOL0     H96255   8.543   1.433   5.382  0.6695 -3.4103 -2.4340
  714MOL0     O96256   0.598   7.490   9.303 -0.1629  0.1967 -0.5337
  714MOL0     C96257   0.714   7.464   9.275 -0.8195  1.1484 -0.4822
  714MOL0     O96258   0.819   7.504   9.348 -0.8362  0.4451 -0.2733
  714MOL0     C96259   0.810   7.582   9.459  0.2275  0.7841  1.0431
  714MOL0     C96260   0.715   7.577   9.558 -1.0921 -0.1737  0.0544
  714MOL0     C96261   0.719   7.654   9.679 -0.3598  0.3387  0.4619
  714MOL0     C96262   0.820   7.753   9.696  0.5982  0.9353 -0.9958
  714MOL0     O96263   0.806   7.827   9.813  0.3169  0.1838  0.2106
  714MOL0     C96264   0.890   7.938   9.842 -0.5970 -0.1161  0.0930
  714MOL0     C96265   0.857   8.055   9.746  0.6486 -0.3167 -0.2104
  714MOL0     C96266   0.715   8.103   9.776 -0.0594  0.1677  0.8438
  714MOL0     C96267   0.691   8.238   9.711 -0.1367  0.4435 -0.7013
  714MOL0     C96268   0.538   8.272   9.735 -0.6387 -0.6868 -0.4594
  714MOL0     C96269   0.511   8.421   9.722 -0.2766  0.8814 -0.9865
  714MOL0     C96270   0.385   8.464   9.790  0.0591  0.5256  0.0030
  714MOL0     C96271   0.346   8.606   9.767 -0.2585 -0.4273  0.1773
  714MOL0     N96272   0.248   8.658   9.873  0.4439 -0.1676  0.0849
  714MOL0     C96273   0.164   8.590   9.952  0.2568 -0.3566 -0.3963
  714MOL0     C96274   0.100   8.687  10.026  0.5224  0.0039  0.1847
  714MOL0     C96275  -0.024   8.673  10.106 -0.0449  1.1452 -1.1799
  714MOL0     C96276  -0.129   8.607  10.016 -0.2986 -0.1720  0.3656
  714MOL0     C96277  -0.259   8.565  10.077  0.6306 -0.4689 -0.0423
  714MOL0     C96278  -0.336   8.684  10.124  0.5503 -1.0519  0.9091
  714MOL0     O96279  -0.292   8.740  10.250  0.6270 -0.8877 -0.0164
  714MOL0     C96280  -0.319   8.666  10.362  1.2102  0.1078 -0.5214
  714MOL0     C96281  -0.220   8.595  10.423  0.0465 -0.2078 -0.3347
  714MOL0     C96282  -0.243   8.515  10.540  0.7046  0.9354 -0.0028
  714MOL0     C96283  -0.126   8.433  10.595  0.4000 -0.2143  1.0061
  714MOL0     C96284  -0.372   8.512  10.598  0.3665  0.2458 -0.0495
  714MOL0     C96285  -0.411   8.435  10.723 -0.6623 -0.2934 -0.2826
  714MOL0     O96286  -0.537   8.475  10.783 -0.9058 -0.3235  0.8456
  714MOL0     C96287  -0.585   8.409  10.886 -0.4303  0.0532  0.5163
  714MOL0     C96288  -0.601   8.268  10.882 -0.3431 -0.2901 -0.7796
  714MOL0     C96289  -0.658   8.198  10.993 -0.1522 -0.5295  0.1202
  714MOL0     C96290  -0.696   8.272  11.113 -0.4382  0.6260  0.6777
  714MOL0     O96291  -0.743   8.204  11.220  0.3712 -0.1028 -0.3553
  714MOL0     C96292  -0.783   8.283  11.336  0.3281  0.4472 -0.1549
  714MOL0     C96293  -0.790   8.192  11.452  0.2217  0.5672  0.0583
  714MOL0     C96294  -0.849   8.251  11.585 -1.3099  0.9432  0.7296
  714MOL0     C96295  -0.882   8.149  11.689  0.2849 -0.1049  0.6457
  714MOL0     C96296  -0.787   8.059  11.748  0.5676  0.2707  0.1029
  714MOL0     C96297  -0.845   7.930  11.821  0.2049  0.0512 -0.3181
  714MOL0     C96298  -0.734   7.821  11.817  0.7642 -0.2949 -0.1785
  714MOL0     C96299  -0.781   7.698  11.908 -0.5599  0.7811 -1.2443
  714MOL0    Cl96300  -0.647   7.583  11.893 -0.1329 -0.7730  0.5537
  714MOL0     C96301  -0.690   8.411  11.104  0.3676 -0.0052 -0.6800
  714MOL0     C96302  -0.635   8.477  10.997  0.5360 -0.3485  0.5456
  714MOL0     O96303  -0.328   8.352  10.770 -0.1927 -0.0581  0.2809
  714MOL0     C96304  -0.478   8.583  10.537  0.1612 -0.6885  0.0316
  714MOL0     C96305  -0.446   8.669  10.433 -1.1007  0.1106 -0.1587
  714MOL0     N96306   0.154   8.814  10.003  1.1731 -0.5175 -0.1352
  714MOL0     N96307   0.243   8.787   9.911 -0.5502  0.3240 -0.0316
  714MOL0     C96308   0.922   7.755   9.603  0.3004  0.7942 -0.1142
  714MOL0     C96309   0.915   7.679   9.480  0.5741  0.0632  0.2382
  714MOL0     C96310   0.736   7.375   9.162  0.2293  0.1509  0.2384
  714MOL0     C96311   0.629   7.324   9.084 -0.3207  1.1152 -0.1221
  714MOL0     C96312   0.654   7.240   8.973 -0.4906 -0.8850  0.0846
  714MOL0     C96313   0.794   7.208   8.940  0.3957  0.0003  0.1666
  714MOL0     O96314   0.830   7.137   8.829  0.1116 -0.0903 -0.1695
  714MOL0     C96315   0.876   7.012   8.869 -0.0209  0.9530  0.0204
  714MOL0     C96316   0.935   6.917   8.759  1.1135  0.2673  0.2164
  714MOL0     C96317   0.846   6.907   8.646  0.4662 -0.3587  0.0010
  714MOL0     C96318   0.907   6.821   8.541  0.9062 -0.0783  0.1086
  714MOL0     C96319   0.817   6.814   8.429 -0.3062 -0.1459  0.6440
  714MOL0     C96320   0.755   6.811   8.327  0.3958  0.1733 -0.6528
  714MOL0     C96321   0.898   7.261   9.017  0.1186 -0.2507 -0.1049
  714MOL0     C96322   0.869   7.337   9.130  0.9587  0.4014  0.1374
  714MOL0     H96323   0.627   7.517   9.536 -0.7807 -0.7760  0.4580
  714MOL0     H96324   0.654   7.628   9.762 -0.8219 -0.8501 -0.2616
  714MOL0     H96325   0.876   7.977   9.944  3.2869  2.2301 -0.0804
  714MOL0     H96326   0.995   7.910   9.835 -1.2570 -2.8354  0.1777
  714MOL0     H96327   0.921   8.140   9.771 -1.8994  2.0916 -1.3887
  714MOL0     H96328   0.872   8.033   9.640  0.3686  0.7628 -0.4868
  714MOL0     H96329   0.655   8.025   9.728  1.1159  1.3795 -2.9639
  714MOL0     H96330   0.693   8.110   9.883  4.3114  2.4644  1.8449
  714MOL0     H96331   0.742   8.322   9.760  0.8226  0.2627 -1.3638
  714MOL0     H96332   0.713   8.251   9.605 -1.7742  2.1497 -0.8849
  714MOL0     H96333   0.475   8.222   9.662 -1.3676  0.9392 -0.9848
  714MOL0     H96334   0.510   8.240   9.836 -1.4209 -0.6884 -0.6706
  714MOL0     H96335   0.593   8.457   9.785 -0.0774  0.3764 -0.9489
  714MOL0     H96336   0.527   8.455   9.619 -1.5681 -0.8847 -1.8499
  714MOL0     H96337   0.305   8.400   9.754 -0.0885 -0.2602  1.6174
  714MOL0     H96338   0.400   8.459   9.899  4.4671  3.7816 -0.1425
  714MOL0     H96339   0.301   8.624   9.669  2.1180  2.9140 -0.4478
  714MOL0     H96340   0.437   8.665   9.771  2.3709 -3.6242 -3.9183
  714MOL0     H96341   0.143   8.483   9.948  2.0070 -0.7602  0.1292
  714MOL0     H96342   0.003   8.601  10.184 -3.3009 -0.9228 -1.7703
  714MOL0     H96343  -0.060   8.765  10.154 -0.8655 -0.1157  0.7666
  714MOL0     H96344  -0.082   8.519   9.972  3.0294  2.0969 -0.9367
  714MOL0     H96345  -0.141   8.661   9.922 -2.0668  0.0469  0.6621
  714MOL0     H96346  -0.253   8.502  10.166  1.2678 -0.1079  0.1754
  714MOL0     H96347  -0.321   8.510  10.005 -3.4867 -0.2877  3.0043
  714MOL0     H96348  -0.443   8.661  10.135  0.7274 -1.4314  1.9877
  714MOL0     H96349  -0.327   8.763  10.049 -0.6113 -3.5404 -2.0590
  714MOL0     H96350  -0.116   8.606  10.393 -0.1013 -1.1648 -1.2684
  714MOL0     H96351  -0.104   8.447  10.702  4.3333  1.2834  0.1528
  714MOL0     H96352  -0.152   8.327  10.583 -0.4345 -0.1215  1.8166
  714MOL0     H96353  -0.034   8.440  10.538  0.4322 -1.6858  0.8285
  714MOL0     H96354  -0.583   8.205  10.795  1.0564 -0.3774 -0.4514
  714MOL0     H96355  -0.672   8.091  10.982  0.7597 -0.4297 -2.9335
  714MOL0     H96356  -0.721   8.365  11.372  0.0557  0.4569  0.3007
  714MOL0     H96357  -0.882   8.329  11.326 -0.9605 -0.9632  3.9718
  714MOL0     H96358  -0.854   8.107  11.428  1.0627  0.3903 -1.7139
  714MOL0     H96359  -0.691   8.149  11.471  0.1866  0.4225 -0.0981
  714MOL0     H96360  -0.934   8.317  11.564 -0.2996  1.6209 -1.5437
  714MOL0     H96361  -0.762   8.306  11.622  0.1121 -2.8341  3.5798
  714MOL0     H96362  -0.908   8.212  11.774 -3.4743 -1.2224  0.5135
  714MOL0     H96363  -0.968   8.086  11.666  1.5925 -1.4462 -0.8935
  714MOL0     H96364  -0.718   8.111  11.815  3.0157 -0.6741 -1.5477
  714MOL0     H96365  -0.723   8.009  11.675  1.2713 -0.2975  1.0861
  714MOL0     H96366  -0.867   7.959  11.924 -2.0171 -0.2774 -0.6371
  714MOL0     H96367  -0.932   7.881  11.776  1.2985 -0.0477 -2.4191
  714MOL0     H96368  -0.642   7.867  11.855  0.0019  0.1767  1.1431
  714MOL0     H96369  -0.728   7.784  11.714 -1.2524  1.3701 -0.9626
  714MOL0     H96370  -0.867   7.635  11.882 -0.0991 -1.9707  2.9216
  714MOL0     H96371  -0.801   7.721  12.013  1.2637  2.3719 -1.2070
  714MOL0     H96372  -0.719   8.467  11.192 -1.1050 -1.4311 -0.2091
  714MOL0     H96373  -0.618   8.583  11.009 -4.5534  0.8614 -0.6574
  714MOL0     H96374  -0.576   8.583  10.584  0.5052 -0.5382  0.7792
  714MOL0     H96375  -0.531   8.725  10.395 -0.6945  1.2037  0.4777
  714MOL0     H96376   1.006   7.824   9.602  1.3972 -0.4990 -1.5963
  714MOL0     H96377   0.999   7.676   9.411  0.2004  4.8975 -0.7975
  714MOL0     H96378   0.524   7.343   9.103 -1.6286 -1.7401 -3.3848
  714MOL0     H96379   0.577   7.202   8.907 -1.6723 -0.6768  1.3124
  714MOL0     H96380   0.960   7.026   8.938 -0.4987  2.9799  0.2516
  714MOL0     H96381   0.808   6.950   8.927  1.2355 -0.5110 -0.0254
  714MOL0     H96382   0.948   6.822   8.811 -3.9360 -0.7139  0.1695
  714MOL0     H96383   1.032   6.954   8.726 -0.0470  1.7647 -1.7621
  714MOL0     H96384   0.836   7.008   8.605  0.5875  0.9105  2.9258
  714MOL0     H96385   0.744   6.874   8.669 -0.1357  1.5990  0.3387
  714MOL0     H96386   0.929   6.721   8.579 -1.1149 -1.5336 -2.2909
  714MOL0     H96387   1.009   6.848   8.510  1.7282 -2.8315  0.1565
  714MOL0     H96388   0.691   6.788   8.244  1.9558 -3.2792 -1.0738
  714MOL0     H96389   1.003   7.269   8.988  0.1951  0.4903  0.3527
  714MOL0     H96390   0.957   7.364   9.187  1.2645 -0.1926 -0.0508
  715MOL0     O96391   9.116   8.596  10.261  0.3130  0.4308 -0.4029
  715MOL0     C96392   9.061   8.620  10.370 -0.3137  0.7189  0.5004
  715MOL0     O96393   8.948   8.708  10.386 -0.4608  0.0183 -0.3769
  715MOL0     C96394   8.894   8.789  10.284  0.2463  1.5065 -0.3815
  715MOL0     C96395   8.763   8.824  10.306 -0.0429  0.9169 -0.3413
  715MOL0     C96396   8.705   8.917  10.221  0.0573  0.2316 -0.0121
  715MOL0     C96397   8.778   8.987  10.123  0.4319  0.0422  0.5888
  715MOL0     O96398   8.712   9.090  10.053  0.2922  0.1499  0.3508
  715MOL0     C96399   8.790   9.173   9.972 -0.2066  0.9356  0.1294
  715MOL0     C96400   8.730   9.319   9.961  0.4942  0.6034  0.1586
  715MOL0     C96401   8.590   9.318   9.908 -0.4496  0.5484 -0.0309
  715MOL0     C96402   8.543   9.465   9.899 -0.6043 -0.0268  0.4191
  715MOL0     C96403   8.414   9.480   9.810  0.8134 -0.1600  0.5905
  715MOL0     C96404   8.301   9.387   9.856  0.2880 -0.3690 -0.2168
  715MOL0     C96405   8.158   9.431   9.826 -0.9845 -0.2367  0.2806
  715MOL0     C96406   8.114   9.361   9.699  0.0779  0.3255  0.3453
  715MOL0     N96407   8.064   9.220   9.736 -1.4469  0.0618  0.4841
  715MOL0     C96408   7.967   9.187   9.821 -0.9531 -0.0823  0.8656
  715MOL0     C96409   7.974   9.052   9.827 -0.0372 -0.1735  0.1032
  715MOL0     C96410   7.897   8.966   9.918  0.6345 -0.1562 -0.3549
  715MOL0     C96411   7.744   8.983   9.907  0.7548  1.2503  0.3930
  715MOL0     C96412   7.680   8.898   9.798  0.2159 -0.4909 -0.3605
  715MOL0     C96413   7.533   8.935   9.770  0.1225 -0.0307  0.8061
  715MOL0     O96414   7.455   8.908   9.884  0.5895 -0.3792 -0.6054
  715MOL0     C96415   7.314   8.928   9.885 -0.8518  0.4561  0.1885
  715MOL0     C96416   7.254   8.956  10.009 -1.1671 -0.0675 -0.3594
  715MOL0     C96417   7.114   8.989  10.019 -0.0135  0.6291 -0.4133
  715MOL0     C96418   7.064   9.018  10.160 -0.6154 -0.5517  0.6117
  715MOL0     C96419   7.035   8.962   9.904 -0.8111 -0.6948  0.5209
  715MOL0     C96420   6.888   8.980   9.892 -0.8297 -0.3430 -0.9881
  715MOL0     O96421   6.825   8.938   9.774  0.2269  0.0376  0.0529
  715MOL0     C96422   6.695   8.973   9.759 -0.2203 -0.8570  0.0399
  715MOL0     C96423   6.590   8.892   9.790  0.2642 -0.3051 -0.2949
  715MOL0     C96424   6.454   8.924   9.776  1.0306  0.5943  0.7142
  715MOL0     C96425   6.433   9.043   9.705 -0.4929 -0.0514  0.3208
  715MOL0     O96426   6.307   9.102   9.688 -0.1524 -0.2499  0.6524
  715MOL0     C96427   6.220   9.090   9.799 -0.0044  0.3941 -0.4412
  715MOL0     C96428   6.105   9.188   9.799 -0.2954 -0.3175 -0.4983
  715MOL0     C96429   6.021   9.158   9.674 -0.5771 -0.7509  0.7370
  715MOL0     C96430   5.910   9.267   9.667  0.1919 -0.5930 -0.2675
  715MOL0     C96431   5.844   9.264   9.530  0.6374 -0.3250  0.3391
  715MOL0     C96432   5.767   9.383   9.491 -0.2738 -0.2323  1.1114
  715MOL0     C96433   5.683   9.450   9.605  0.4209 -0.0318  0.8324
  715MOL0     C96434   5.603   9.571   9.552  0.1679 -0.0243 -0.1166
  715MOL0    Cl96435   5.461   9.529   9.452  0.4021  0.4682 -0.0925
  715MOL0     C96436   6.539   9.127   9.677 -0.0868  0.8556 -0.3113
  715MOL0     C96437   6.667   9.093   9.698 -1.2323 -0.7616 -0.3379
  715MOL0     O96438   6.824   9.028   9.989 -0.2192  0.3384  0.4203
  715MOL0     C96439   7.099   8.921   9.782 -0.5333  0.4822 -0.5787
  715MOL0     C96440   7.235   8.909   9.776  0.7214  0.0199 -0.2146
  715MOL0     N96441   8.079   9.002   9.752 -0.8142 -0.2160  0.0722
  715MOL0     N96442   8.127   9.107   9.687  0.2324  0.0970 -0.2130
  715MOL0     C96443   8.908   8.930  10.097  0.5998  0.1787 -0.1327
  715MOL0     C96444   8.971   8.827  10.173  1.6684  0.2468  0.7974
  715MOL0     C96445   9.107   8.542  10.491  0.3380 -1.0851  0.1653
  715MOL0     C96446   9.175   8.412  10.475 -0.3179  0.0634  0.1626
  715MOL0     C96447   9.208   8.344  10.593 -0.5351  0.7073 -0.2898
  715MOL0     C96448   9.163   8.382  10.712 -0.3177 -0.5608 -0.7350
  715MOL0     O96449   9.169   8.313  10.824  0.0084  0.6939  0.1108
  715MOL0     C96450   9.268   8.211  10.852 -0.5155 -0.6061 -0.3313
  715MOL0     C96451   9.200   8.103  10.930 -0.4426 -0.1452 -0.7329
  715MOL0     C96452   9.297   7.982  10.952 -0.4806  0.3662 -1.1127
  715MOL0     C96453   9.322   7.958  11.108  0.0790 -0.5261  0.0736
  715MOL0     C96454   9.427   8.045  11.164  0.1683  0.4469  0.5310
  715MOL0     C96455   9.520   8.103  11.228 -0.6702 -0.0350  0.1830
  715MOL0     C96456   9.079   8.492  10.734 -0.7120  0.6380  0.8622
  715MOL0     C96457   9.048   8.576  10.623 -0.6829  0.3073 -0.6667
  715MOL0     H96458   8.700   8.782  10.383 -0.4788 -3.2928 -2.6710
  715MOL0     H96459   8.600   8.944  10.227 -0.7106 -2.4595 -0.1562
  715MOL0     H96460   8.889   9.192  10.014  0.2700 -3.9059  1.8110
  715MOL0     H96461   8.801   9.133   9.870 -3.2343  0.2599 -0.0235
  715MOL0     H96462   8.726   9.364  10.060 -0.8018 -2.3998  1.5947
  715MOL0     H96463   8.792   9.375   9.890  2.5437 -2.6431 -0.8377
  715MOL0     H96464   8.590   9.279   9.806 -1.0402 -1.6696  0.7670
  715MOL0     H96465   8.520   9.248   9.954  0.1460  0.4996  0.8158
  715MOL0     H96466   8.537   9.500  10.002  1.4167 -1.5430  1.1235
  715MOL0     H96467   8.619   9.532   9.859 -1.1761  1.8218  2.3071
  715MOL0     H96468   8.380   9.583   9.825  0.1505 -0.5063  1.6176
  715MOL0     H96469   8.431   9.456   9.705 -2.4468  1.2936 -0.3987
  715MOL0     H96470   8.308   9.292   9.802  0.2608 -1.1390  1.0944
  715MOL0     H96471   8.296   9.370   9.964  2.5364 -0.8956 -0.1525
  715MOL0     H96472   8.095   9.408   9.912 -0.1546  0.9302  1.2344
  715MOL0     H96473   8.157   9.537   9.799  2.2465 -0.2942 -0.3922
  715MOL0     H96474   8.180   9.375   9.613 -2.6122  0.8937 -1.7642
  715MOL0     H96475   8.022   9.407   9.662  1.6279  0.9933 -2.9891
  715MOL0     H96476   7.899   9.246   9.882  1.4575  0.7926  2.8658
  715MOL0     H96477   7.915   8.860   9.901  1.8631  0.2911 -2.1388
  715MOL0     H96478   7.925   8.996  10.019 -1.4819  1.4667 -0.1701
  715MOL0     H96479   7.705   9.086   9.907 -4.1580 -0.2744  2.9716
  715MOL0     H96480   7.703   8.934   9.996  0.0991 -1.3062 -1.2269
  715MOL0     H96481   7.692   8.790   9.807  0.1422 -0.6827 -2.1336
  715MOL0     H96482   7.738   8.914   9.706  2.8558 -0.5977  1.1898
  715MOL0     H96483   7.507   8.872   9.685 -0.6877  0.8947  0.3464
  715MOL0     H96484   7.523   9.039   9.738  0.4493 -0.1688  0.2439
  715MOL0     H96485   7.318   8.954  10.097 -0.3841  1.4935 -0.8608
  715MOL0     H96486   6.987   9.096  10.168  2.8574  3.3945 -0.5946
  715MOL0     H96487   7.022   8.926  10.200 -0.9348 -0.4497  0.5122
  715MOL0     H96488   7.146   9.044  10.228 -0.3087  1.5308 -0.4642
  715MOL0     H96489   6.613   8.790   9.819  1.2906 -1.3472 -4.1854
  715MOL0     H96490   6.376   8.852   9.799 -0.3158  1.0854 -1.8808
  715MOL0     H96491   6.187   8.986   9.807  0.0540  0.5404  3.5610
  715MOL0     H96492   6.287   9.116   9.881  1.7054  2.4005 -2.3215
  715MOL0     H96493   6.039   9.185   9.887 -1.6137  0.0969 -1.4457
  715MOL0     H96494   6.150   9.288   9.793  0.3823 -0.6851 -2.0064
  715MOL0     H96495   5.970   9.062   9.672 -1.8156 -0.1908 -3.4401
  715MOL0     H96496   6.075   9.150   9.579 -0.6873 -0.6602  0.6653
  715MOL0     H96497   5.839   9.254   9.749  1.1199 -0.6788  0.5368
  715MOL0     H96498   5.947   9.370   9.673  0.1494 -0.5310 -0.9358
  715MOL0     H96499   5.768   9.186   9.536  1.6069 -1.2921  0.4149
  715MOL0     H96500   5.914   9.238   9.450 -0.4153 -2.0783 -0.0596
  715MOL0     H96501   5.831   9.457   9.442 -0.9712 -1.1958 -1.4436
  715MOL0     H96502   5.701   9.350   9.410  0.6740  0.8863 -0.1631
  715MOL0     H96503   5.747   9.495   9.681  1.0642  0.5719 -0.0473
  715MOL0     H96504   5.612   9.388   9.661 -0.3520 -0.2373 -0.3208
  715MOL0     H96505   5.671   9.639   9.500 -1.4998  1.5638 -0.3303
  715MOL0     H96506   5.568   9.626   9.640  3.5019  2.1882  0.0096
  715MOL0     H96507   6.517   9.218   9.622  0.0267  1.6260  0.8902
  715MOL0     H96508   6.738   9.171   9.675 -0.3833 -1.8654 -1.6311
  715MOL0     H96509   7.037   8.912   9.692 -0.1727 -0.4900 -0.7379
  715MOL0     H96510   7.277   8.898   9.677  0.2896  1.9972 -0.6607
  715MOL0     H96511   8.946   8.964  10.001  1.8966  0.2348  0.3864
  715MOL0     H96512   9.074   8.806  10.143  1.5499  2.1060 -1.1398
  715MOL0     H96513   9.207   8.383  10.376  2.9602  3.2602  0.0794
  715MOL0     H96514   9.266   8.253  10.576 -2.3594 -0.4225 -0.6623
  715MOL0     H96515   9.307   8.168  10.759 -0.9184 -0.5170 -0.5412
  715MOL0     H96516   9.353   8.248  10.910 -1.3248  3.1347 -1.2694
  715MOL0     H96517   9.110   8.068  10.879 -0.0040 -3.0032  0.2686
  715MOL0     H96518   9.173   8.141  11.029 -0.3567 -0.5625 -0.5467
  715MOL0     H96519   9.394   7.995  10.903  0.9159 -0.8014  1.1886
  715MOL0     H96520   9.245   7.890  10.924  1.2435 -0.5115 -1.5750
  715MOL0     H96521   9.354   7.853  11.108  2.6389  0.1500 -1.6591
  715MOL0     H96522   9.228   7.962  11.163 -0.6596  1.0279 -1.2254
  715MOL0     H96523   9.601   8.160  11.268 -0.3560  0.2069 -0.7622
  715MOL0     H96524   9.035   8.512  10.831 -5.0577 -3.3757  0.1047
  715MOL0     H96525   8.982   8.661  10.635  1.4333  2.3286 -2.4952
  716MOL0     O96526   8.235   4.223   3.741 -0.3289  0.3024  0.4049
  716MOL0     C96527   8.196   4.289   3.647  0.1373 -0.3816 -0.2125
  716MOL0     O96528   8.275   4.333   3.546  0.8440  0.5306 -0.2082
  716MOL0     C96529   8.406   4.305   3.536  0.6149  1.1014  0.3317
  716MOL0     C96530   8.504   4.273   3.635  0.9116  0.4588  0.6489
  716MOL0     C96531   8.636   4.262   3.598 -1.5402 -0.7139  0.1915
  716MOL0     C96532   8.679   4.306   3.461  0.0153  0.2229 -1.0742
  716MOL0     O96533   8.810   4.298   3.415 -1.2484 -0.3826 -0.0078
  716MOL0     C96534   8.923   4.302   3.510  0.0919 -0.4155  0.1652
  716MOL0     C96535   9.055   4.283   3.446 -0.1488 -0.4842  0.2585
  716MOL0     C96536   9.162   4.285   3.559 -0.8493  0.1251 -0.1721
  716MOL0     C96537   9.150   4.420   3.641  0.1498 -0.4202  0.3058
  716MOL0     C96538   9.279   4.447   3.711  0.1606  0.0183 -0.1802
  716MOL0     C96539   9.377   4.515   3.624 -0.4097 -0.1805 -0.6498
  716MOL0     C96540   9.520   4.509   3.684 -0.1689  1.0655  0.6535
  716MOL0     C96541   9.628   4.602   3.622  0.0100  0.4818  0.4545
  716MOL0     N96542   9.593   4.750   3.628  0.2348 -0.3269 -0.0835
  716MOL0     C96543   9.663   4.844   3.706 -1.1745  0.1916  0.3322
  716MOL0     C96544   9.584   4.957   3.703 -0.9947 -0.6575  0.2727
  716MOL0     C96545   9.632   5.094   3.768  0.8153  1.9176  0.6690
  716MOL0     C96546   9.657   5.075   3.921 -0.8175 -0.2107 -0.2669
  716MOL0     C96547   9.651   5.210   3.986 -0.1950 -0.8224  0.0491
  716MOL0     C96548   9.664   5.179   4.134 -0.4251  0.1860 -0.1143
  716MOL0     O96549   9.538   5.116   4.177 -0.7366 -0.3636 -0.3009
  716MOL0     C96550   9.498   5.102   4.307 -0.0582 -1.1120 -1.0220
  716MOL0     C96551   9.358   5.092   4.328  0.1222  0.2878  1.0872
  716MOL0     C96552   9.297   5.096   4.452  0.5729  0.8164 -0.5859
  716MOL0     C96553   9.143   5.101   4.445 -1.5089  0.2590 -0.8035
  716MOL0     C96554   9.376   5.121   4.562  0.8805  0.4720 -0.9672
  716MOL0     C96555   9.315   5.130   4.696 -0.7487 -0.7493 -0.1697
  716MOL0     O96556   9.368   5.057   4.793 -0.0634  1.0028  0.0619
  716MOL0     C96557   9.293   5.058   4.909  0.5429  0.2328  0.3239
  716MOL0     C96558   9.203   4.957   4.930 -0.1227 -0.9345 -1.1754
  716MOL0     C96559   9.124   4.954   5.047  0.5736 -0.5350  1.1271
  716MOL0     C96560   9.112   5.072   5.119 -0.6359  0.4943  0.0636
  716MOL0     O96561   9.036   5.080   5.231  0.1263  1.1893  0.0142
  716MOL0     C96562   8.926   4.990   5.258  0.7311 -0.7079  0.0821
  716MOL0     C96563   8.870   5.025   5.399  0.5725 -0.0449  0.4647
  716MOL0     C96564   8.821   5.171   5.405 -0.8461 -0.1721 -0.2538
  716MOL0     C96565   8.770   5.194   5.550  0.8557  0.4260  0.6103
  716MOL0     C96566   8.726   5.345   5.574  0.1562  0.0231  0.3420
  716MOL0     C96567   8.584   5.372   5.546 -1.0428 -0.1714  0.2478
  716MOL0     C96568   8.540   5.510   5.597  0.3752  0.4474  0.1650
  716MOL0     C96569   8.621   5.628   5.553  0.4368 -0.0249  0.4834
  716MOL0    Cl96570   8.674   5.621   5.386 -0.6174 -0.4139  0.8501
  716MOL0     C96571   9.198   5.175   5.094  0.1221 -0.9661 -0.0396
  716MOL0     C96572   9.297   5.169   4.994  0.6070  0.0258 -0.3132
  716MOL0     O96573   9.220   5.205   4.708 -0.5226  0.7179 -0.7265
  716MOL0     C96574   9.520   5.119   4.548  0.7471 -0.3223 -0.9026
  716MOL0     C96575   9.577   5.107   4.431  0.6806  0.2220  0.1193
  716MOL0     N96576   9.476   4.937   3.614 -0.3751  0.5559  0.1377
  716MOL0     N96577   9.481   4.812   3.579  0.7056  0.5554  0.2098
  716MOL0     C96578   8.588   4.349   3.368 -0.3062 -0.3667 -0.2011
  716MOL0     C96579   8.453   4.345   3.412  1.0099 -1.4568  0.0642
  716MOL0     C96580   8.051   4.316   3.643  0.1608  0.3071 -0.4592
  716MOL0     C96581   7.963   4.264   3.739 -0.2250  0.3574  0.8191
  716MOL0     C96582   7.827   4.302   3.737  0.3403  0.8834 -0.5499
  716MOL0     C96583   7.782   4.388   3.639  0.1254 -0.6770  0.4378
  716MOL0     O96584   7.646   4.432   3.625 -0.0828 -0.0367  0.3478
  716MOL0     C96585   7.552   4.402   3.727 -0.0299  0.7127  0.4858
  716MOL0     C96586   7.475   4.273   3.687 -0.4584  0.0093  0.5652
  716MOL0     C96587   7.364   4.240   3.783 -0.1188  0.4688 -1.1783
  716MOL0     C96588   7.297   4.113   3.743  0.6690  1.0131  0.3404
  716MOL0     C96589   7.205   4.074   3.852  0.0164 -0.2795 -0.1788
  716MOL0     C96590   7.123   4.048   3.938 -0.0654  0.1470 -0.1411
  716MOL0     C96591   7.870   4.433   3.542 -0.1799  0.0190 -0.0179
  716MOL0     C96592   8.009   4.402   3.539 -0.2797 -0.3442  0.5596
  716MOL0     H96593   8.474   4.266   3.739 -2.8785 -2.1313 -0.3990
  716MOL0     H96594   8.714   4.232   3.668  0.0514  1.5699 -0.4811
  716MOL0     H96595   8.922   4.402   3.554  0.7753 -0.4584  0.2905
  716MOL0     H96596   8.911   4.231   3.593  1.5158  0.0682  0.8186
  716MOL0     H96597   9.062   4.188   3.392 -0.2324  0.6229 -1.7984
  716MOL0     H96598   9.075   4.359   3.370 -1.3893  0.0163  0.4129
  716MOL0     H96599   9.171   4.193   3.617  1.8569  0.8974  0.7851
  716MOL0     H96600   9.260   4.293   3.509 -0.1530 -0.3322  1.0756
  716MOL0     H96601   9.115   4.507   3.585 -1.1742 -0.6824  0.6921
  716MOL0     H96602   9.073   4.410   3.718 -3.2923  1.6204 -2.5645
  716MOL0     H96603   9.265   4.490   3.810  0.6627 -2.7274  1.1861
  716MOL0     H96604   9.330   4.354   3.738  0.3004 -0.1218 -0.8836
  716MOL0     H96605   9.378   4.465   3.526 -1.5295 -1.7012  0.0786
  716MOL0     H96606   9.346   4.620   3.623 -1.8334 -0.5247  1.4326
  716MOL0     H96607   9.503   4.540   3.788 -2.9811 -0.1716  0.6452
  716MOL0     H96608   9.556   4.406   3.691  0.6838  1.3519  0.5347
  716MOL0     H96609   9.636   4.583   3.515 -1.3424  0.9913  0.2424
  716MOL0     H96610   9.722   4.579   3.672 -0.7524 -3.2909  0.4711
  716MOL0     H96611   9.745   4.830   3.775  0.1862  2.4507 -0.7243
  716MOL0     H96612   9.723   5.125   3.716 -0.5884  0.8100 -2.7712
  716MOL0     H96613   9.552   5.162   3.736  1.5188  1.3728 -2.6323
  716MOL0     H96614   9.759   5.041   3.939 -0.9986  0.5572  2.6806
  716MOL0     H96615   9.586   5.004   3.965 -0.0039 -1.3903 -0.8065
  716MOL0     H96616   9.563   5.267   3.956 -0.3593  0.0508  2.0217
  716MOL0     H96617   9.735   5.263   3.941  0.0477  0.2102  1.6408
  716MOL0     H96618   9.682   5.268   4.195 -0.6270  1.9478 -2.5230
  716MOL0     H96619   9.739   5.107   4.168  0.8689  1.5985  0.1020
  716MOL0     H96620   9.285   5.078   4.249 -2.0329  2.4803  2.5326
  716MOL0     H96621   9.114   5.198   4.487  4.0761  1.5907  0.7276
  716MOL0     H96622   9.106   5.111   4.342  1.5610  0.5559 -1.9844
  716MOL0     H96623   9.106   5.013   4.498 -2.0270 -0.8638 -2.9173
  716MOL0     H96624   9.195   4.874   4.861 -2.1465  0.8140 -3.2327
  716MOL0     H96625   9.059   4.868   5.054  0.2419 -0.4463 -0.4972
  716MOL0     H96626   8.843   4.994   5.186  0.3353  1.2223  0.5830
  716MOL0     H96627   8.953   4.884   5.270 -1.0133 -1.1300  0.4950
  716MOL0     H96628   8.783   4.958   5.404  0.0971 -0.0383 -3.9401
  716MOL0     H96629   8.941   5.015   5.482  0.9689  0.6593  0.2101
  716MOL0     H96630   8.745   5.203   5.333 -0.2070 -1.5180 -1.5806
  716MOL0     H96631   8.904   5.242   5.401 -2.1162  1.5426  1.7625
  716MOL0     H96632   8.674   5.141   5.555 -0.4252  1.7370 -4.2946
  716MOL0     H96633   8.848   5.172   5.623  3.7431  1.5104 -1.9071
  716MOL0     H96634   8.792   5.416   5.523  1.5088 -3.3417 -3.0413
  716MOL0     H96635   8.744   5.359   5.681  2.6745  2.0326 -0.2266
  716MOL0     H96636   8.569   5.370   5.437 -1.2544  1.0369  0.2391
  716MOL0     H96637   8.525   5.295   5.597 -1.3258  0.9748  1.7088
  716MOL0     H96638   8.549   5.503   5.705  0.8731 -3.4918  0.0292
  716MOL0     H96639   8.435   5.534   5.578 -0.4682 -2.1820  1.1048
  716MOL0     H96640   8.715   5.623   5.608  1.4636 -4.2247 -1.2208
  716MOL0     H96641   8.562   5.716   5.578  0.2493  0.5226 -1.7011
  716MOL0     H96642   9.182   5.268   5.148  1.8141  0.0240 -1.1404
  716MOL0     H96643   9.363   5.253   4.979 -1.0858  1.9983  2.4122
  716MOL0     H96644   9.579   5.137   4.638  0.4708  0.0657 -0.7973
  716MOL0     H96645   9.680   5.138   4.422  1.1322 -1.2900 -0.3351
  716MOL0     H96646   8.609   4.376   3.265 -0.2544 -0.4956 -0.2251
  716MOL0     H96647   8.376   4.393   3.352 -0.2270  0.2209  2.7835
  716MOL0     H96648   8.000   4.197   3.817 -0.8717  0.5081  1.2636
  716MOL0     H96649   7.755   4.259   3.806  0.9635  2.1982  0.9854
  716MOL0     H96650   7.589   4.391   3.829 -0.8861 -1.5427  0.6033
  716MOL0     H96651   7.486   4.489   3.734  0.6796  1.1808  1.6642
  716MOL0     H96652   7.543   4.188   3.680 -1.6547 -1.3049  3.3815
  716MOL0     H96653   7.437   4.283   3.585  2.1045  0.4383 -0.4233
  716MOL0     H96654   7.289   4.319   3.792 -0.5270 -0.1824  2.3688
  716MOL0     H96655   7.421   4.233   3.876  1.1670 -0.4982 -1.9894
  716MOL0     H96656   7.373   4.037   3.728  0.5119  0.7062  1.0447
  716MOL0     H96657   7.255   4.119   3.642  1.4985 -0.7015 -0.1314
  716MOL0     H96658   7.043   4.053   4.009 -0.6943  6.9350 -0.6080
  716MOL0     H96659   7.813   4.493   3.472 -1.9118  0.9599  2.0703
  716MOL0     H96660   8.057   4.449   3.454 -3.0906  2.0415  0.1171
  717MOL0     O96661   2.530   1.634   1.362 -0.1292 -0.2981  0.1355
  717MOL0     C96662   2.432   1.660   1.296  0.6113  0.1786  1.2389
  717MOL0     O96663   2.325   1.730   1.339  0.0924  0.0615  1.2726
  717MOL0     C96664   2.310   1.782   1.462 -0.5002 -0.6672 -0.7175
  717MOL0     C96665   2.415   1.821   1.556  0.5422  0.1425  0.4053
  717MOL0     C96666   2.395   1.901   1.675  0.8935  0.7965 -0.0315
  717MOL0     C96667   2.263   1.949   1.690 -0.7174  0.2201 -0.1670
  717MOL0     O96668   2.249   2.028   1.804 -0.1552 -0.3892  0.3484
  717MOL0     C96669   2.158   1.967   1.892  0.7010 -1.6529  0.4946
  717MOL0     C96670   2.102   2.080   1.984  0.2785  0.0230  0.0864
  717MOL0     C96671   2.015   2.185   1.906 -0.4348 -0.6435  0.6817
  717MOL0     C96672   1.980   2.306   1.994  0.1094 -0.2912  0.6086
  717MOL0     C96673   1.953   2.424   1.908 -0.2046 -0.9666 -0.1047
  717MOL0     C96674   1.910   2.551   1.981  0.5393 -0.5281 -0.4291
  717MOL0     C96675   1.761   2.547   2.022 -0.4245  0.2442 -0.6896
  717MOL0     C96676   1.672   2.576   1.908  0.5146  1.0449 -0.1736
  717MOL0     N96677   1.532   2.569   1.951  0.0582 -0.7051  1.5265
  717MOL0     C96678   1.437   2.647   1.884 -0.0057 -0.9376  0.3115
  717MOL0     C96679   1.321   2.602   1.936  0.2380 -0.3840 -0.0580
  717MOL0     C96680   1.181   2.647   1.906 -0.4594  0.2287  0.4812
  717MOL0     C96681   1.168   2.796   1.877  0.3865  0.6901 -0.2730
  717MOL0     C96682   1.034   2.823   1.800 -0.0644  0.3096 -0.2109
  717MOL0     C96683   0.912   2.835   1.889 -0.4664 -0.4905  0.0473
  717MOL0     O96684   0.866   2.717   1.966  0.3864 -0.3972 -0.1975
  717MOL0     C96685   0.813   2.602   1.899  0.3650 -0.9945  0.7231
  717MOL0     C96686   0.810   2.483   1.961 -0.3539  0.1055 -0.6283
  717MOL0     C96687   0.785   2.367   1.896  0.0714 -0.6507  0.8511
  717MOL0     C96688   0.775   2.248   1.983 -0.2611  1.2953 -1.1458
  717MOL0     C96689   0.735   2.356   1.763  1.2980 -0.4476 -0.0008
  717MOL0     C96690   0.673   2.242   1.677 -0.5572  0.0895 -0.1800
  717MOL0     O96691   0.642   2.280   1.550  0.2513 -0.4377  0.1530
  717MOL0     C96692   0.587   2.186   1.469 -1.0492  0.6419  1.4103
  717MOL0     C96693   0.467   2.123   1.494  0.8566 -0.0404  0.0936
  717MOL0     C96694   0.412   2.034   1.406  0.1257 -0.6824 -0.1302
  717MOL0     C96695   0.488   1.988   1.291  0.2733 -0.0029  0.2616
  717MOL0     O96696   0.456   1.887   1.210  0.0411 -0.1014 -0.1767
  717MOL0     C96697   0.351   1.801   1.255  0.0615 -0.8232 -0.8932
  717MOL0     C96698   0.376   1.666   1.189  0.0667 -0.6708 -1.2791
  717MOL0     C96699   0.267   1.566   1.238 -0.1958 -0.0133 -0.2259
  717MOL0     C96700   0.268   1.431   1.159  0.4431 -0.5329  0.1221
  717MOL0     C96701   0.155   1.341   1.189  0.6763 -0.0205 -0.4465
  717MOL0     C96702   0.146   1.272   1.327 -0.5729 -0.9862 -0.0512
  717MOL0     C96703   0.273   1.168   1.336 -0.1748  1.1508  0.0903
  717MOL0     C96704   0.243   1.049   1.249 -0.1266  0.8192 -0.3615
  717MOL0    Cl96705   0.371   0.923   1.253 -0.5612  0.1283  0.0525
  717MOL0     C96706   0.609   2.062   1.270  0.1030 -0.6826 -0.4468
  717MOL0     C96707   0.658   2.162   1.352  0.0350  0.0145  0.9423
  717MOL0     O96708   0.658   2.128   1.723  0.1363  0.2816  0.5036
  717MOL0     C96709   0.755   2.481   1.699  0.7665  1.0002 -0.0451
  717MOL0     C96710   0.777   2.603   1.766 -1.0505  0.4183  0.2174
  717MOL0     N96711   1.331   2.483   2.000 -1.0959  0.3329 -0.2616
  717MOL0     N96712   1.458   2.470   2.012 -0.9957  0.4722 -0.0933
  717MOL0     C96713   2.162   1.908   1.607  0.6709  0.5269  0.4264
  717MOL0     C96714   2.184   1.831   1.495  0.1710 -0.0506  0.9406
  717MOL0     C96715   2.416   1.602   1.159 -0.3137  0.4944 -0.1192
  717MOL0     C96716   2.531   1.557   1.099  0.3544  0.6106 -0.2417
  717MOL0     C96717   2.532   1.491   0.977  0.7749 -0.0681  0.3451
  717MOL0     C96718   2.408   1.467   0.909 -0.0717  0.3739 -0.6137
  717MOL0     O96719   2.399   1.399   0.793  0.6707  0.7816 -0.4576
  717MOL0     C96720   2.503   1.402   0.693 -0.4160  0.2290 -0.0365
  717MOL0     C96721   2.557   1.540   0.673  0.5141  0.2725  0.1252
  717MOL0     C96722   2.461   1.653   0.629 -0.6240  0.7257 -0.4213
  717MOL0     C96723   2.443   1.665   0.476 -0.2444 -0.0035  0.2373
  717MOL0     C96724   2.364   1.777   0.429  0.5323  0.1648  0.2130
  717MOL0     C96725   2.293   1.860   0.367  0.3771 -0.1650 -0.6488
  717MOL0     C96726   2.287   1.513   0.974 -0.2369  0.2885 -0.2953
  717MOL0     C96727   2.295   1.584   1.096 -0.1570  0.3751  0.1873
  717MOL0     H96728   2.513   1.786   1.524  0.9413  0.7828  0.9197
  717MOL0     H96729   2.470   1.923   1.750  0.3863  1.3033  0.3369
  717MOL0     H96730   2.070   1.920   1.846  0.1941 -0.9236  0.6927
  717MOL0     H96731   2.222   1.896   1.946  2.4648 -0.1363  0.4878
  717MOL0     H96732   2.028   2.029   2.046  0.7997 -2.0503 -0.9261
  717MOL0     H96733   2.172   2.125   2.055 -0.0483 -1.3132  1.3134
  717MOL0     H96734   2.068   2.197   1.812 -2.2046 -0.5643 -0.3454
  717MOL0     H96735   1.915   2.159   1.872 -0.3749  1.5946 -1.5341
  717MOL0     H96736   1.891   2.272   2.047 -0.1020 -2.8649 -1.2537
  717MOL0     H96737   2.053   2.335   2.071 -0.2702  0.9184  0.5371
  717MOL0     H96738   2.048   2.447   1.859  0.0718  2.8665  1.8924
  717MOL0     H96739   1.882   2.395   1.829  0.1781 -0.3771 -0.6695
  717MOL0     H96740   1.972   2.567   2.069 -0.0185 -1.6562  0.1950
  717MOL0     H96741   1.931   2.620   1.900 -2.2112  0.0146 -0.7736
  717MOL0     H96742   1.730   2.453   2.069  2.0530 -1.4845 -2.2393
  717MOL0     H96743   1.749   2.623   2.100 -3.3420 -2.1690  1.4737
  717MOL0     H96744   1.689   2.503   1.829  3.5044  2.3984 -0.9021
  717MOL0     H96745   1.690   2.671   1.858 -2.5079  1.3534 -0.8609
  717MOL0     H96746   1.451   2.734   1.821 -0.0415 -1.9061 -1.0794
  717MOL0     H96747   1.142   2.586   1.824  0.1689 -1.2820  1.2443
  717MOL0     H96748   1.110   2.615   1.983  1.0568 -0.3218  1.7126
  717MOL0     H96749   1.253   2.829   1.817 -1.2796  2.3511 -1.9026
  717MOL0     H96750   1.174   2.851   1.971 -2.2208  0.5464  0.0450
  717MOL0     H96751   1.008   2.748   1.724 -0.7470  2.2628 -1.9812
  717MOL0     H96752   1.054   2.915   1.744 -0.2457 -1.2526 -3.0321
  717MOL0     H96753   0.821   2.872   1.841 -0.0920 -0.6513 -0.8067
  717MOL0     H96754   0.943   2.911   1.961  2.6878 -1.5800  0.0011
  717MOL0     H96755   0.816   2.478   2.069  0.6062  1.7179 -0.5713
  717MOL0     H96756   0.669   2.222   1.984 -0.1275  0.5476 -2.6619
  717MOL0     H96757   0.829   2.162   1.941 -0.7686  0.1565  0.4294
  717MOL0     H96758   0.806   2.250   2.088 -1.7830  0.4091 -0.6589
  717MOL0     H96759   0.419   2.151   1.587  0.3867 -0.8029  0.0849
  717MOL0     H96760   0.311   2.001   1.427 -0.8732  1.4654 -1.2451
  717MOL0     H96761   0.344   1.786   1.363  1.1978  0.8068 -0.5489
  717MOL0     H96762   0.257   1.852   1.230  1.4447  0.7616 -3.2195
  717MOL0     H96763   0.370   1.670   1.080  0.6691 -3.6246 -1.4943
  717MOL0     H96764   0.472   1.621   1.217  0.8998  1.1184 -1.1227
  717MOL0     H96765   0.168   1.612   1.233  0.0249  0.3377 -3.0164
  717MOL0     H96766   0.287   1.556   1.345  0.1938 -2.0934 -0.4376
  717MOL0     H96767   0.255   1.467   1.056 -1.5311  1.0511  0.8483
  717MOL0     H96768   0.362   1.376   1.163  0.2712 -0.7753  1.4184
  717MOL0     H96769   0.146   1.259   1.118 -0.9184 -0.3606  0.1150
  717MOL0     H96770   0.060   1.395   1.184  1.7868  2.0713 -0.5504
  717MOL0     H96771   0.148   1.338   1.414 -0.0607 -1.4193  0.2771
  717MOL0     H96772   0.063   1.203   1.342  0.6594 -2.3113  1.0184
  717MOL0     H96773   0.274   1.145   1.443 -4.4933 -0.8644 -0.1101
  717MOL0     H96774   0.365   1.220   1.309  1.3992 -1.0873  0.8704
  717MOL0     H96775   0.238   1.083   1.145  2.9421 -1.0173 -1.2324
  717MOL0     H96776   0.144   1.007   1.272 -0.8608  3.4921  1.9733
  717MOL0     H96777   0.675   2.040   1.188 -0.0151  3.3816 -1.8608
  717MOL0     H96778   0.754   2.204   1.324 -0.4019 -1.4355 -3.5557
  717MOL0     H96779   0.723   2.490   1.595  0.5910  4.1125  0.1849
  717MOL0     H96780   0.775   2.688   1.699  0.2735  2.7195  2.9005
  717MOL0     H96781   2.060   1.944   1.616  0.0788 -0.0440 -2.7531
  717MOL0     H96782   2.103   1.802   1.429  1.2517 -0.9552 -0.0507
  717MOL0     H96783   2.627   1.571   1.147 -0.1495  1.2252  0.6073
  717MOL0     H96784   2.621   1.450   0.930  1.8130  0.6605  1.5942
  717MOL0     H96785   2.581   1.335   0.730  0.6590  0.5830 -1.5471
  717MOL0     H96786   2.476   1.361   0.595 -0.1959  1.4741 -0.6401
  717MOL0     H96787   2.639   1.540   0.601  0.3057  3.3239 -0.2505
  717MOL0     H96788   2.614   1.578   0.758  4.2720 -1.6117 -1.3431
  717MOL0     H96789   2.476   1.755   0.666 -1.7795  0.3643  1.1849
  717MOL0     H96790   2.366   1.622   0.675  1.4418  0.4250  4.2262
  717MOL0     H96791   2.393   1.574   0.441  0.9181 -1.7587  2.7927
  717MOL0     H96792   2.542   1.685   0.434 -0.8544  0.5999 -0.9684
  717MOL0     H96793   2.238   1.918   0.296  2.8157  0.6553 -1.9911
  717MOL0     H96794   2.189   1.476   0.947 -1.2984 -1.3220  4.7269
  717MOL0     H96795   2.212   1.608   1.161 -1.2177  0.3745 -1.1197
  718MOL0     O96796   6.257   8.304   5.309 -0.4755  0.0661 -0.1535
  718MOL0     C96797   6.271   8.279   5.429 -0.7956  0.4914 -0.4346
  718MOL0     O96798   6.328   8.166   5.484 -0.1083 -0.2462  0.6357
  718MOL0     C96799   6.383   8.075   5.397  0.3904  0.0630 -0.7469
  718MOL0     C96800   6.292   7.994   5.330 -0.1239  0.1861 -0.4859
  718MOL0     C96801   6.327   7.889   5.243 -0.5771  0.1092 -0.5643
  718MOL0     C96802   6.467   7.861   5.239 -0.5928 -0.3714 -0.2018
  718MOL0     O96803   6.513   7.752   5.172  0.6122 -0.1891  0.2664
  718MOL0     C96804   6.548   7.792   5.027  0.0219  0.0693  0.3763
  718MOL0     C96805   6.441   7.828   4.925 -0.4267  0.4855 -0.7390
  718MOL0     C96806   6.348   7.713   4.909  0.7457  0.4816  0.7143
  718MOL0     C96807   6.325   7.661   4.768 -0.3811  0.0544 -0.5189
  718MOL0     C96808   6.282   7.516   4.768 -0.1797 -0.5693  0.7752
  718MOL0     C96809   6.246   7.463   4.623 -0.6132  0.1302  0.0319
  718MOL0     C96810   6.375   7.470   4.533 -0.1393 -0.2290 -0.6495
  718MOL0     C96811   6.333   7.448   4.398 -1.3592 -0.0376 -0.6336
  718MOL0     N96812   6.275   7.570   4.333  0.4456 -0.0100 -0.4762
  718MOL0     C96813   6.333   7.693   4.311 -0.3135 -0.4869  0.4629
  718MOL0     C96814   6.255   7.748   4.206  0.2994 -0.6302 -0.2097
  718MOL0     C96815   6.287   7.882   4.135  0.0299  0.0291 -0.0454
  718MOL0     C96816   6.341   7.846   3.998 -0.2759  0.4310  0.2288
  718MOL0     C96817   6.481   7.796   4.020 -0.0225  0.4904  0.2944
  718MOL0     C96818   6.567   7.800   3.893 -0.2958 -0.7407 -0.2624
  718MOL0     O96819   6.533   7.705   3.795 -0.2111 -0.1815  0.2967
  718MOL0     C96820   6.584   7.752   3.678 -0.3644  0.0397  0.3372
  718MOL0     C96821   6.509   7.734   3.570  0.7915 -0.5053 -0.0993
  718MOL0     C96822   6.553   7.772   3.446  0.6782  0.2800 -0.0245
  718MOL0     C96823   6.455   7.769   3.324  0.3032  1.1443  0.4150
  718MOL0     C96824   6.677   7.834   3.419 -1.6977 -0.4846 -0.0643
  718MOL0     C96825   6.714   7.903   3.286 -0.8832  0.1222  0.4333
  718MOL0     O96826   6.646   7.878   3.173  0.0911 -0.4471 -0.2704
  718MOL0     C96827   6.676   7.966   3.078  0.2177 -0.4408 -0.2605
  718MOL0     C96828   6.797   7.979   3.028 -0.5077 -0.4871 -0.2725
  718MOL0     C96829   6.810   8.080   2.930 -0.6058 -1.0696  0.2872
  718MOL0     C96830   6.707   8.159   2.885  0.0667 -0.7725 -0.6721
  718MOL0     O96831   6.718   8.265   2.796 -0.5450  0.0922 -0.2337
  718MOL0     C96832   6.822   8.363   2.818 -0.1835 -0.3595  0.5476
  718MOL0     C96833   6.878   8.415   2.685  0.7048  1.1889  0.7756
  718MOL0     C96834   6.993   8.514   2.704  0.2688  0.4619 -0.0584
  718MOL0     C96835   7.047   8.545   2.573  0.1234  0.8569 -0.1247
  718MOL0     C96836   7.121   8.671   2.559 -0.1564 -0.8089 -0.0213
  718MOL0     C96837   7.239   8.677   2.652 -0.7200  0.3463  0.0789
  718MOL0     C96838   7.314   8.812   2.646 -0.4466  0.4401 -0.4205
  718MOL0     C96839   7.359   8.880   2.513  0.8553 -0.2440 -0.3632
  718MOL0    Cl96840   7.477   9.001   2.529  0.2790 -0.6297 -0.1484
  718MOL0     C96841   6.585   8.140   2.937 -0.6335 -0.2243  0.4203
  718MOL0     C96842   6.565   8.045   3.039  0.4216 -0.8726 -0.7048
  718MOL0     O96843   6.809   7.986   3.301 -0.0533  0.0633  0.2298
  718MOL0     C96844   6.766   7.825   3.536  0.0356  0.7325 -0.9220
  718MOL0     C96845   6.719   7.781   3.666  0.1015 -0.2095  0.3030
  718MOL0     N96846   6.142   7.678   4.193  0.6050  0.8893 -0.0510
  718MOL0     N96847   6.156   7.574   4.268  0.2303  0.6872  0.6703
  718MOL0     C96848   6.557   7.946   5.302 -0.3427  0.9151  0.2763
  718MOL0     C96849   6.514   8.056   5.377  0.1225  1.0287  0.2539
  718MOL0     C96850   6.211   8.376   5.526  0.5208 -0.1513 -0.3125
  718MOL0     C96851   6.227   8.365   5.662  0.8913 -0.5947 -0.2886
  718MOL0     C96852   6.162   8.438   5.759 -0.0245  0.2753 -0.1682
  718MOL0     C96853   6.099   8.559   5.717 -0.3170  0.0196 -0.5297
  718MOL0     O96854   6.039   8.651   5.802  0.4907 -0.0091  0.6088
  718MOL0     C96855   6.022   8.610   5.944 -0.2489 -0.0359 -0.2994
  718MOL0     C96856   5.999   8.730   6.048  0.3974 -0.1269  0.1536
  718MOL0     C96857   5.853   8.770   6.043  0.0186 -0.5148 -0.0310
  718MOL0     C96858   5.805   8.893   6.121  1.1635  0.4318  1.0062
  718MOL0     C96859   5.803   8.855   6.264  0.0711 -0.4421  0.3080
  718MOL0     C96860   5.819   8.835   6.387  0.9571 -0.7167  0.4930
  718MOL0     C96861   6.102   8.591   5.580  0.7764 -0.1799  0.0546
  718MOL0     C96862   6.145   8.496   5.492 -0.1996 -0.5209  0.9541
  718MOL0     H96863   6.189   8.026   5.336  0.9206  4.6840 -2.4633
  718MOL0     H96864   6.269   7.813   5.192 -2.5358 -0.8524  2.7924
  718MOL0     H96865   6.613   7.881   5.025 -1.7905  1.4408 -0.0787
  718MOL0     H96866   6.603   7.705   4.989  0.9774  1.2647 -1.1102
  718MOL0     H96867   6.390   7.920   4.957  1.3681  0.6140  2.1601
  718MOL0     H96868   6.477   7.861   4.828 -3.1958  0.7985 -1.7451
  718MOL0     H96869   6.386   7.626   4.964  4.8827 -1.0925 -3.8852
  718MOL0     H96870   6.253   7.757   4.940  0.7574  1.2814 -0.3331
  718MOL0     H96871   6.240   7.713   4.724 -2.0768  0.1409  2.6284
  718MOL0     H96872   6.414   7.687   4.710 -0.8942  3.2647 -0.0077
  718MOL0     H96873   6.367   7.459   4.807 -0.5840 -0.3874  1.9887
  718MOL0     H96874   6.203   7.505   4.844 -2.9096 -4.2747 -2.1992
  718MOL0     H96875   6.210   7.362   4.640  1.3540 -0.3415  1.7867
  718MOL0     H96876   6.167   7.518   4.571 -2.0851  0.8357  2.8063
  718MOL0     H96877   6.425   7.567   4.545  0.1586 -0.5002  0.4133
  718MOL0     H96878   6.443   7.390   4.566 -1.3590 -0.0707  2.6228
  718MOL0     H96879   6.257   7.369   4.396  0.9653 -2.4269 -1.0384
  718MOL0     H96880   6.412   7.417   4.329 -0.8006  0.1699 -0.0959
  718MOL0     H96881   6.427   7.735   4.346 -0.6913  0.1345  0.7607
  718MOL0     H96882   6.199   7.946   4.125  2.6366  3.8442 -1.1929
  718MOL0     H96883   6.346   7.933   4.212 -1.2909 -0.4787  1.3394
  718MOL0     H96884   6.332   7.941   3.944 -0.2979 -0.0351 -0.6109
  718MOL0     H96885   6.276   7.773   3.949  0.8649 -0.8866  0.6343
  718MOL0     H96886   6.477   7.691   4.053 -0.0486  0.4647  0.2103
  718MOL0     H96887   6.533   7.842   4.105 -1.0220 -0.6924  1.6115
  718MOL0     H96888   6.667   7.778   3.931  0.1099 -2.3288 -2.1114
  718MOL0     H96889   6.570   7.900   3.848  0.3021  0.4235  2.1768
  718MOL0     H96890   6.406   7.702   3.580  0.0246  1.6589 -0.4970
  718MOL0     H96891   6.448   7.870   3.281  0.6060  0.7225 -0.6598
  718MOL0     H96892   6.491   7.689   3.258 -3.8523  0.3907 -1.2264
  718MOL0     H96893   6.357   7.740   3.362 -0.0462 -1.0306 -1.9018
  718MOL0     H96894   6.880   7.914   3.055 -0.6982 -1.2969 -1.5484
  718MOL0     H96895   6.896   8.098   2.866 -1.5216  1.2583 -0.3860
  718MOL0     H96896   6.790   8.457   2.863  1.4102  0.5339 -0.1084
  718MOL0     H96897   6.901   8.324   2.883  1.3300  1.5429 -0.0597
  718MOL0     H96898   6.908   8.331   2.622 -0.9862  1.4895 -0.5056
  718MOL0     H96899   6.792   8.456   2.632 -1.9481  1.0664  4.6195
  718MOL0     H96900   7.070   8.463   2.762  1.2744  3.3720  1.3343
  718MOL0     H96901   6.953   8.603   2.754 -1.1599  0.6876 -1.4925
  718MOL0     H96902   7.120   8.467   2.547  1.0755  2.2081 -1.6652
  718MOL0     H96903   6.965   8.569   2.504 -1.2248  1.9400  1.7904
  718MOL0     H96904   7.052   8.752   2.584 -1.4652 -1.7075 -0.5889
  718MOL0     H96905   7.156   8.702   2.461 -0.4977 -0.5607 -0.0658
  718MOL0     H96906   7.208   8.647   2.752 -1.6358  0.8823 -0.0364
  718MOL0     H96907   7.308   8.600   2.615 -0.8043  0.5468 -0.5083
  718MOL0     H96908   7.399   8.809   2.715  0.7593 -0.9983 -1.8759
  718MOL0     H96909   7.254   8.888   2.698  0.1511 -0.3981  1.6119
  718MOL0     H96910   7.275   8.917   2.454  0.9929  2.1281  0.7990
  718MOL0     H96911   7.399   8.806   2.443  0.1193  0.5824 -1.6926
  718MOL0     H96912   6.499   8.204   2.920 -0.8394 -0.8567 -0.9918
  718MOL0     H96913   6.473   8.018   3.090 -0.0726  0.0113 -1.1009
  718MOL0     H96914   6.872   7.849   3.537  0.0214  0.8383  0.6639
  718MOL0     H96915   6.788   7.759   3.746  0.6920 -0.3780 -0.2377
  718MOL0     H96916   6.658   7.906   5.297 -1.7908 -3.0203 -2.4706
  718MOL0     H96917   6.583   8.121   5.430  2.7169  0.4016 -2.0834
  718MOL0     H96918   6.285   8.279   5.695  3.4430  2.2592  3.4618
  718MOL0     H96919   6.178   8.400   5.860 -1.1481  1.7457  0.6091
  718MOL0     H96920   5.931   8.549   5.947 -1.2182  1.2962  3.1996
  718MOL0     H96921   6.107   8.553   5.983  1.1901  0.4739 -2.5563
  718MOL0     H96922   6.067   8.812   6.026  2.6161 -2.4541 -2.3852
  718MOL0     H96923   6.013   8.691   6.149  0.1482 -2.7183 -0.7354
  718MOL0     H96924   5.786   8.693   6.083  0.0892 -0.2148  0.6767
  718MOL0     H96925   5.826   8.784   5.938 -1.0742  0.2037  0.3389
  718MOL0     H96926   5.704   8.931   6.100  0.7590 -0.9383  0.3318
  718MOL0     H96927   5.869   8.978   6.097  2.6057 -1.0602 -0.6501
  718MOL0     H96928   5.833   8.819   6.492  0.4497 -3.0397  0.2598
  718MOL0     H96929   6.072   8.692   5.554 -1.1686 -0.7445 -0.0291
  718MOL0     H96930   6.147   8.518   5.386  1.7491  2.0904  1.4250
  719MOL0     O96931   2.065   0.913   9.397  0.2011  0.4385  0.3646
  719MOL0     C96932   1.954   0.971   9.412 -0.3660  0.4852  0.6425
  719MOL0     O96933   1.895   0.997   9.529 -0.1310 -0.4500 -0.7362
  719MOL0     C96934   1.933   0.920   9.635 -1.2005 -0.5595 -0.7154
  719MOL0     C96935   2.006   0.986   9.731  0.2485  0.4571  0.5515
  719MOL0     C96936   2.048   0.919   9.843  0.2200 -0.5350  0.3131
  719MOL0     C96937   2.029   0.780   9.854  0.2755 -0.1097  0.0550
  719MOL0     O96938   2.086   0.726   9.965  0.7700 -0.1600 -0.8911
  719MOL0     C96939   2.092   0.586   9.994 -0.7706  0.0598  0.0874
  719MOL0     C96940   1.974   0.544  10.079 -0.4636 -0.5442  0.3442
  719MOL0     C96941   2.002   0.401  10.128  0.0441  0.8141 -0.5137
  719MOL0     C96942   1.905   0.373  10.251 -0.1245  0.1782 -0.5770
  719MOL0     C96943   1.928   0.239  10.313 -0.2960 -0.4349 -0.3387
  719MOL0     C96944   1.871   0.137  10.231  0.1070  0.0150  0.0549
  719MOL0     C96945   1.883  -0.005  10.277 -0.5890  0.2006 -0.4846
  719MOL0     C96946   2.024  -0.054  10.255  0.5479  0.0122  0.2806
  719MOL0     N96947   2.029  -0.198  10.286  0.1332 -0.0607 -0.2455
  719MOL0     C96948   2.066  -0.241  10.408 -0.3364  0.0507  0.4847
  719MOL0     C96949   2.121  -0.365  10.375  0.2928 -0.2629 -0.0667
  719MOL0     C96950   2.181  -0.472  10.467 -0.0893  0.5008 -0.6795
  719MOL0     C96951   2.076  -0.584  10.508  0.5426  0.1915 -0.2869
  719MOL0     C96952   2.151  -0.698  10.577  0.4429  1.0920 -0.3863
  719MOL0     C96953   2.062  -0.825  10.581 -0.4923 -1.3332  1.0393
  719MOL0     O96954   2.138  -0.933  10.632  0.3364 -0.9666  0.2132
  719MOL0     C96955   2.079  -1.054  10.606  0.2903  0.5875 -0.6614
  719MOL0     C96956   2.165  -1.167  10.644 -0.3209  0.2237  0.0433
  719MOL0     C96957   2.115  -1.295  10.630 -0.2573  0.2490 -0.2600
  719MOL0     C96958   2.202  -1.406  10.678 -0.1112  0.4920 -0.1829
  719MOL0     C96959   1.990  -1.326  10.564  0.0564 -0.1167 -0.8037
  719MOL0     C96960   1.955  -1.459  10.518 -0.2366  0.3994 -0.0728
  719MOL0     O96961   2.034  -1.549  10.449  0.0303 -0.1681  0.7353
  719MOL0     C96962   1.975  -1.657  10.387  1.0859 -0.2480 -0.1791
  719MOL0     C96963   1.845  -1.650  10.331 -0.9819  1.6050 -0.8699
  719MOL0     C96964   1.789  -1.759  10.266  0.1881 -0.0947 -1.4660
  719MOL0     C96965   1.856  -1.884  10.278  0.2050  0.0545  0.2139
  719MOL0     O96966   1.794  -1.988  10.206 -0.0787  0.6393 -0.3241
  719MOL0     C96967   1.824  -2.127  10.202  0.7350 -0.1289  0.4159
  719MOL0     C96968   1.810  -2.148  10.056 -0.0352  0.5324 -0.5708
  719MOL0     C96969   1.906  -2.081   9.964  0.3813  0.0079 -0.6187
  719MOL0     C96970   2.041  -2.156  10.003 -0.1329 -0.1181 -0.1724
  719MOL0     C96971   2.153  -2.140   9.896  0.0490  0.8717  0.5232
  719MOL0     C96972   2.178  -2.000   9.843 -0.0153 -0.7505 -0.0471
  719MOL0     C96973   2.273  -2.004   9.731 -1.7452 -0.0084 -0.2088
  719MOL0     C96974   2.336  -1.861   9.709  0.8253  0.5948  0.0304
  719MOL0    Cl96975   2.453  -1.806   9.828  0.3317 -0.4398  0.2978
  719MOL0     C96976   1.988  -1.889  10.331  0.2084 -0.0206 -0.5786
  719MOL0     C96977   2.048  -1.771  10.380 -0.5307  0.3090 -0.3799
  719MOL0     O96978   1.853  -1.489  10.568 -0.3184  0.2736  0.5809
  719MOL0     C96979   1.914  -1.214  10.520 -0.2050 -0.0693  0.3960
  719MOL0     C96980   1.951  -1.082  10.550 -0.0315 -0.1582  0.4069
  719MOL0     N96981   2.112  -0.393  10.237 -0.1072 -0.0297  0.7254
  719MOL0     N96982   2.057  -0.289  10.186 -0.1765  0.3002 -1.0242
  719MOL0     C96983   1.961   0.717   9.756  0.1195  0.0608 -0.0988
  719MOL0     C96984   1.908   0.781   9.639  0.2389 -0.0080 -1.4625
  719MOL0     C96985   1.862   0.995   9.295  0.2275  0.2351  0.3002
  719MOL0     C96986   1.732   1.057   9.311 -0.5579  0.5672 -1.0326
  719MOL0     C96987   1.643   1.060   9.205 -0.0522  0.9774 -0.6506
  719MOL0     C96988   1.684   1.017   9.083  0.2116  0.4098 -0.8030
  719MOL0     O96989   1.612   1.041   8.970  0.2480  0.5409  0.6131
  719MOL0     C96990   1.477   1.007   8.964 -0.6357  0.5118  0.3013
  719MOL0     C96991   1.412   1.133   8.909 -0.7517 -0.5138 -0.5158
  719MOL0     C96992   1.258   1.113   8.922  0.4100  0.4737 -0.2917
  719MOL0     C96993   1.179   1.238   8.895 -0.3781  0.0477 -0.0637
  719MOL0     C96994   1.032   1.223   8.893 -0.5613  0.8763 -0.6543
  719MOL0     C96995   0.920   1.209   8.868  0.1723  0.2372 -0.2981
  719MOL0     C96996   1.797   0.949   9.068 -0.5507  1.0850  0.2805
  719MOL0     C96997   1.889   0.934   9.170  0.6822 -0.5228 -0.6255
  719MOL0     H96998   2.034   1.091   9.721 -0.1344  0.7715  2.3053
  719MOL0     H96999   2.114   0.961   9.920 -3.3525 -1.6337  4.3646
  719MOL0     H97000   2.118   0.532   9.902 -0.1059  2.0825 -0.9824
  719MOL0     H97001   2.190   0.572  10.041 -0.6995  0.5430  0.0867
  719MOL0     H97002   1.955   0.610  10.164 -0.7682  2.0794 -1.6344
  719MOL0     H97003   1.879   0.547  10.025 -1.0988 -0.0560  1.4461
  719MOL0     H97004   1.998   0.334  10.042  2.7795 -0.0827 -0.0419
  719MOL0     H97005   2.100   0.397  10.177 -0.3845 -0.8689  0.2710
  719MOL0     H97006   1.917   0.447  10.330 -1.8494 -1.7275  1.6051
  719MOL0     H97007   1.798   0.371  10.230 -0.2299  0.5341 -0.0616
  719MOL0     H97008   2.036   0.220  10.309 -0.2286 -0.1252 -0.0063
  719MOL0     H97009   1.894   0.220  10.415  0.9721 -2.3440 -0.2076
  719MOL0     H97010   1.763   0.157  10.226  0.4413  2.0407  0.0146
  719MOL0     H97011   1.924   0.145  10.136  0.0066  0.2559  0.0183
  719MOL0     H97012   1.837  -0.011  10.376 -0.4957 -0.0317 -0.4534
  719MOL0     H97013   1.815  -0.065  10.217  0.5958  0.8651 -2.6073
  719MOL0     H97014   2.093   0.003  10.317  3.0222 -0.5168 -1.8116
  719MOL0     H97015   2.054  -0.032  10.152 -0.8414 -0.5836 -0.2858
  719MOL0     H97016   2.078  -0.191  10.503  4.4122  0.0585  0.1525
  719MOL0     H97017   2.267  -0.531  10.434  1.6803  0.9169  2.7312
  719MOL0     H97018   2.214  -0.420  10.557  2.3979  0.2181 -1.3672
  719MOL0     H97019   2.027  -0.630  10.422 -1.0268  2.8745 -0.9418
  719MOL0     H97020   2.001  -0.539  10.573 -2.7515 -0.8643 -3.0250
  719MOL0     H97021   2.181  -0.661  10.676 -2.0847 -0.5712  1.1063
  719MOL0     H97022   2.239  -0.728  10.520 -0.1337  1.2350 -1.3671
  719MOL0     H97023   2.027  -0.845  10.479 -1.5495  1.8568  0.6583
  719MOL0     H97024   1.972  -0.802  10.638  0.3010  3.7594  0.6856
  719MOL0     H97025   2.264  -1.148  10.684 -0.2116  0.1148 -0.1701
  719MOL0     H97026   2.146  -1.494  10.712  0.9141 -1.4536 -3.1291
  719MOL0     H97027   2.250  -1.431  10.583 -0.8201  0.7818 -0.6251
  719MOL0     H97028   2.272  -1.369  10.753 -0.2513 -1.3704  0.9272
  719MOL0     H97029   1.784  -1.560  10.332  0.2225  2.4544  0.4333
  719MOL0     H97030   1.692  -1.771  10.219  0.6475 -2.9315 -1.8746
  719MOL0     H97031   1.904  -2.167  10.265 -1.5152 -1.5940  2.5310
  719MOL0     H97032   1.734  -2.179  10.235 -1.1737  1.4089 -1.9606
  719MOL0     H97033   1.810  -2.256  10.036 -2.3333  0.3790 -0.0038
  719MOL0     H97034   1.707  -2.111  10.044  0.6346  2.4414 -0.8152
  719MOL0     H97035   1.934  -1.978   9.987  2.8411 -0.7505  0.1736
  719MOL0     H97036   1.884  -2.085   9.857 -1.8878 -0.0437 -0.1836
  719MOL0     H97037   2.094  -2.127  10.094 -1.6230  0.0834  0.6684
  719MOL0     H97038   2.028  -2.265  10.003 -5.1760  0.2606 -0.7694
  719MOL0     H97039   2.119  -2.199   9.811  2.5773  1.4374 -1.0094
  719MOL0     H97040   2.247  -2.186   9.928  0.8281  0.9098 -1.5808
  719MOL0     H97041   2.087  -1.946   9.814 -0.2468  0.7250  3.0319
  719MOL0     H97042   2.227  -1.948   9.926 -0.1658  0.3767 -0.6484
  719MOL0     H97043   2.230  -2.023   9.633 -1.0203 -2.9190 -0.0364
  719MOL0     H97044   2.350  -2.080   9.745 -0.3002  1.6435  1.2965
  719MOL0     H97045   2.258  -1.787   9.689  2.0208  2.0975  0.6605
  719MOL0     H97046   2.387  -1.878   9.613 -0.6931  1.8271 -1.0553
  719MOL0     H97047   2.045  -1.981  10.320 -0.0299 -0.2651  0.1380
  719MOL0     H97048   2.147  -1.765  10.426 -0.7685  1.3234  0.0389
  719MOL0     H97049   1.831  -1.222  10.452  0.6535  0.5085 -0.7580
  719MOL0     H97050   1.882  -0.999  10.539 -1.3411 -0.6034  3.9849
  719MOL0     H97051   1.950   0.609   9.760  1.6454 -0.0866  1.3393
  719MOL0     H97052   1.860   0.722   9.561 -0.2659  0.0049 -1.1705
  719MOL0     H97053   1.695   1.107   9.400 -0.9919 -0.9867 -0.3065
  719MOL0     H97054   1.539   1.083   9.227 -0.1520 -1.8817  2.7722
  719MOL0     H97055   1.457   0.921   8.900  0.0359  0.5262  0.0652
  719MOL0     H97056   1.436   0.990   9.064 -2.2068  1.2652 -0.1783
  719MOL0     H97057   1.437   1.160   8.806 -3.9156  0.6455 -1.0985
  719MOL0     H97058   1.451   1.218   8.965 -1.9015 -0.2596 -0.0744
  719MOL0     H97059   1.242   1.080   9.025 -0.8969  0.6774 -0.4016
  719MOL0     H97060   1.222   1.027   8.864 -0.3033  0.1885  0.5494
  719MOL0     H97061   1.207   1.276   8.796 -1.8731 -0.5844 -0.7547
  719MOL0     H97062   1.207   1.314   8.968 -0.4206  1.8749 -1.8425
  719MOL0     H97063   0.817   1.206   8.840 -0.0413 -1.6158  0.5083
  719MOL0     H97064   1.810   0.910   8.967 -1.5173 -2.7487  1.4723
  719MOL0     H97065   1.980   0.876   9.155  0.5032 -0.4751 -1.9666
  720MOL0     O97066   2.193   1.246   3.550  0.4158 -0.3345 -0.4669
  720MOL0     C97067   2.219   1.138   3.600  0.1372 -0.0049  0.4808
  720MOL0     O97068   2.170   1.013   3.553 -0.8743 -0.2398 -0.3504
  720MOL0     C97069   2.072   1.007   3.464  0.6165  0.1019 -0.1563
  720MOL0     C97070   2.093   0.918   3.362  1.1937  0.2473  0.4072
  720MOL0     C97071   1.988   0.898   3.262 -0.0910  0.1810  0.2944
  720MOL0     C97072   1.853   0.963   3.272  0.7106 -0.0105  0.0800
  720MOL0     O97073   1.733   0.938   3.201 -0.4753 -0.2325  0.1731
  720MOL0     C97074   1.732   0.868   3.074 -0.9432 -0.1147  0.0019
  720MOL0     C97075   1.594   0.825   3.076  0.3266 -1.0210 -0.1621
  720MOL0     C97076   1.564   0.751   2.940  0.3171  0.4740  0.2926
  720MOL0     C97077   1.414   0.761   2.912 -0.8635 -0.1707  0.9986
  720MOL0     C97078   1.393   0.697   2.779 -0.0172 -0.2670  0.4084
  720MOL0     C97079   1.244   0.683   2.740 -0.6497  0.1654  0.1304
  720MOL0     C97080   1.219   0.575   2.635 -0.2236  0.6157  0.2445
  720MOL0     C97081   1.204   0.612   2.487 -1.2142  0.6206 -0.2264
  720MOL0     N97082   1.333   0.670   2.432 -0.3467  0.7789  0.3758
  720MOL0     C97083   1.444   0.602   2.374  0.3514  1.4623  0.4436
  720MOL0     C97084   1.531   0.690   2.325  0.0683 -0.8843  0.2314
  720MOL0     C97085   1.666   0.691   2.260  0.0463 -0.4820 -0.1073
  720MOL0     C97086   1.667   0.648   2.098  0.3375  0.1153  0.3455
  720MOL0     C97087   1.798   0.710   2.032 -0.2293  0.1031  0.0562
  720MOL0     C97088   1.810   0.676   1.884  0.0832 -0.2480  0.5644
  720MOL0     O97089   1.935   0.720   1.841 -0.2471  0.3592  0.4625
  720MOL0     C97090   1.951   0.747   1.709 -0.5921  0.3580  0.0248
  720MOL0     C97091   1.855   0.814   1.623  0.5054 -0.6595  0.7060
  720MOL0     C97092   1.896   0.853   1.502  0.3074 -0.2909 -0.1614
  720MOL0     C97093   1.801   0.930   1.413  1.4718 -1.4036  1.0266
  720MOL0     C97094   2.027   0.831   1.453  0.0015  0.6011  0.0510
  720MOL0     C97095   2.089   0.897   1.338 -0.0792  0.0912 -0.1077
  720MOL0     O97096   2.086   0.846   1.208  0.0840 -0.4820 -0.8817
  720MOL0     C97097   1.983   0.772   1.163 -0.7394  0.2675  0.1263
  720MOL0     C97098   1.984   0.643   1.199  0.2683  0.4769 -0.0148
  720MOL0     C97099   1.882   0.557   1.156 -1.1292  0.3338 -0.3294
  720MOL0     C97100   1.778   0.607   1.071  0.1190  1.2080 -0.4250
  720MOL0     O97101   1.682   0.524   1.029 -0.3054  0.4528 -0.3126
  720MOL0     C97102   1.612   0.540   0.905 -0.4050 -0.3173 -0.1367
  720MOL0     C97103   1.595   0.406   0.829 -0.5933  0.1174 -0.1658
  720MOL0     C97104   1.731   0.329   0.816 -0.9561 -0.1860 -0.0283
  720MOL0     C97105   1.847   0.402   0.735  1.2671 -0.0053  0.4956
  720MOL0     C97106   1.983   0.317   0.729  0.8635 -0.0717  0.2786
  720MOL0     C97107   2.084   0.394   0.640 -0.0481  0.3063  0.4466
  720MOL0     C97108   2.191   0.290   0.587 -0.6707  0.6929  0.7575
  720MOL0     C97109   2.133   0.198   0.468 -0.3985  0.1317  0.2837
  720MOL0    Cl97110   2.234   0.239   0.326  0.0756  0.1228  0.1157
  720MOL0     C97111   1.790   0.733   1.026 -0.1100 -0.5489 -0.3667
  720MOL0     C97112   1.890   0.816   1.065 -0.5155 -1.0958  0.2225
  720MOL0     O97113   2.146   1.004   1.374  0.1254 -1.2138  0.5195
  720MOL0     C97114   2.112   0.758   1.536  0.0891  0.0896  0.2159
  720MOL0     C97115   2.072   0.709   1.658  0.7183 -0.9433  0.6547
  720MOL0     N97116   1.478   0.810   2.355  0.0110 -1.2801 -0.1559
  720MOL0     N97117   1.358   0.803   2.409  0.3425  0.2652 -0.3831
  720MOL0     C97118   1.842   1.057   3.375 -1.1813  0.8216 -0.0661
  720MOL0     C97119   1.952   1.079   3.468 -0.2747  1.3667 -1.1086
  720MOL0     C97120   2.310   1.137   3.712 -1.0364 -0.2481 -0.4177
  720MOL0     C97121   2.317   1.240   3.810  0.7227  0.1857  0.3277
  720MOL0     C97122   2.400   1.212   3.923  0.3150 -0.4592 -0.1866
  720MOL0     C97123   2.466   1.088   3.951 -0.1546 -0.0980 -0.4807
  720MOL0     O97124   2.538   1.082   4.071 -0.4141  0.9820 -0.0346
  720MOL0     C97125   2.599   0.951   4.084 -0.1399  0.5401  0.9497
  720MOL0     C97126   2.671   0.944   4.218 -0.3958 -0.6107  0.2793
  720MOL0     C97127   2.568   0.906   4.323  0.1619  0.9892  0.1589
  720MOL0     C97128   2.571   1.003   4.437 -0.1233 -0.1542  0.0266
  720MOL0     C97129   2.495   0.948   4.552  0.5071 -1.3958  0.4024
  720MOL0     C97130   2.469   0.895   4.650  0.2447  0.5334 -0.3457
  720MOL0     C97131   2.447   0.990   3.857 -1.0544 -0.4419  0.5844
  720MOL0     C97132   2.372   1.013   3.746 -0.6554  0.4973 -0.8606
  720MOL0     H97133   2.169   0.842   3.372  0.6531 -0.0319  3.1163
  720MOL0     H97134   1.997   0.814   3.194 -2.7082  1.0015 -1.2526
  720MOL0     H97135   1.747   0.928   2.984 -1.2196 -3.4109 -2.4308
  720MOL0     H97136   1.800   0.783   3.076 -0.4663  0.2635  1.7040
  720MOL0     H97137   1.575   0.760   3.162 -4.3042  1.6297  1.1354
  720MOL0     H97138   1.532   0.912   3.096  2.0276  0.2346 -0.1703
  720MOL0     H97139   1.617   0.796   2.856  1.0167 -0.0457  0.4466
  720MOL0     H97140   1.602   0.649   2.956 -1.1144  0.1423  1.9502
  720MOL0     H97141   1.359   0.705   2.988 -1.7725 -1.5511 -0.6014
  720MOL0     H97142   1.375   0.863   2.914 -0.1812  0.0842  1.6219
  720MOL0     H97143   1.428   0.759   2.696 -2.7201  1.2399  0.2699
  720MOL0     H97144   1.443   0.601   2.771 -1.5702 -1.0801  0.0909
  720MOL0     H97145   1.189   0.657   2.831  1.0818  0.6108  1.3444
  720MOL0     H97146   1.202   0.776   2.701 -0.4814 -0.3815 -1.4077
  720MOL0     H97147   1.301   0.503   2.641  0.4679  1.2404 -1.1356
  720MOL0     H97148   1.126   0.519   2.652 -1.1168  2.3541  1.3315
  720MOL0     H97149   1.132   0.693   2.479 -0.0174  1.6712 -0.5909
  720MOL0     H97150   1.187   0.517   2.435  4.6408 -0.4906 -0.8434
  720MOL0     H97151   1.442   0.494   2.363 -3.7186  1.1272  2.5055
  720MOL0     H97152   1.705   0.792   2.277  0.9005 -0.7059 -0.6475
  720MOL0     H97153   1.738   0.626   2.310 -1.0813 -0.5468  1.5167
  720MOL0     H97154   1.579   0.691   2.048 -0.4988  2.3725  3.4736
  720MOL0     H97155   1.669   0.539   2.103  0.3100  0.1764  3.4436
  720MOL0     H97156   1.884   0.670   2.087 -0.3891 -2.7198 -1.5690
  720MOL0     H97157   1.791   0.819   2.042 -0.9478  0.2277 -1.5652
  720MOL0     H97158   1.735   0.738   1.834  2.2113  0.9268 -1.3433
  720MOL0     H97159   1.796   0.572   1.852 -3.8527  1.1132 -3.0983
  720MOL0     H97160   1.756   0.833   1.664  0.1956  0.4008 -0.4748
  720MOL0     H97161   1.760   0.863   1.337  3.4361 -0.5366 -0.8870
  720MOL0     H97162   1.713   0.963   1.470  1.2862 -0.8832  0.4553
  720MOL0     H97163   1.846   1.019   1.368  0.5972 -2.4433 -2.1374
  720MOL0     H97164   2.060   0.597   1.262  1.4230  0.4086 -1.4147
  720MOL0     H97165   1.874   0.455   1.192  0.7995  0.2728  0.0336
  720MOL0     H97166   1.508   0.573   0.916 -0.7236  0.4261 -3.8668
  720MOL0     H97167   1.662   0.610   0.837  0.5918 -0.3384  0.5560
  720MOL0     H97168   1.531   0.335   0.882  3.5466 -3.7405  0.3078
  720MOL0     H97169   1.554   0.413   0.728  0.5337  0.5293 -0.6144
  720MOL0     H97170   1.707   0.238   0.760  0.4862  1.8421 -4.4004
  720MOL0     H97171   1.774   0.304   0.913 -0.5032 -1.0451 -0.4349
  720MOL0     H97172   1.813   0.417   0.632 -0.9460 -0.9291  1.0455
  720MOL0     H97173   1.863   0.499   0.784 -0.7359 -1.2559  3.9691
  720MOL0     H97174   1.968   0.216   0.688  3.2692  0.2682 -1.6854
  720MOL0     H97175   2.013   0.318   0.834 -1.3935  1.6405  0.9754
  720MOL0     H97176   2.030   0.448   0.562  1.5264 -0.8054 -1.5392
  720MOL0     H97177   2.137   0.465   0.704 -0.4267  1.0134 -0.0166
  720MOL0     H97178   2.224   0.225   0.669  0.6357 -0.4508 -0.6024
  720MOL0     H97179   2.286   0.335   0.557 -0.9934  1.0638  0.2982
  720MOL0     H97180   2.031   0.228   0.439 -0.1405 -0.8304 -1.7853
  720MOL0     H97181   2.134   0.090   0.485  1.4183  0.0096 -0.4690
  720MOL0     H97182   1.713   0.780   0.965 -0.8663 -0.6239  0.5173
  720MOL0     H97183   1.909   0.911   1.016  0.0986 -0.5543  1.4556
  720MOL0     H97184   2.214   0.740   1.506 -0.3937 -0.2120 -1.3412
  720MOL0     H97185   2.149   0.663   1.720 -0.1842 -2.6936  0.5506
  720MOL0     H97186   1.740   1.093   3.378 -1.8400 -0.9308 -0.2280
  720MOL0     H97187   1.933   1.139   3.556  0.7874 -1.7963  1.4580
  720MOL0     H97188   2.264   1.332   3.792 -1.1302 -0.9883 -0.5167
  720MOL0     H97189   2.412   1.294   3.992  2.1123  0.0878 -1.0905
  720MOL0     H97190   2.521   0.875   4.079  0.6097 -0.4446  2.9197
  720MOL0     H97191   2.666   0.925   4.001 -1.5286 -0.1235  0.0008
  720MOL0     H97192   2.736   1.031   4.235 -2.0401  0.7523 -0.1053
  720MOL0     H97193   2.740   0.861   4.205  0.2578 -0.1891  0.9996
  720MOL0     H97194   2.587   0.813   4.376 -2.6996  0.3942  0.2778
  720MOL0     H97195   2.468   0.898   4.279  0.1304 -1.4140  0.5923
  720MOL0     H97196   2.531   1.101   4.409 -0.7405 -0.0581  1.1653
  720MOL0     H97197   2.674   1.024   4.467  0.1795 -1.2454 -0.2080
  720MOL0     H97198   2.448   0.855   4.747 -0.9862 -1.5325 -1.4163
  720MOL0     H97199   2.495   0.892   3.865  0.5877  0.4309  2.1369
  720MOL0     H97200   2.348   0.938   3.671 -0.5476  1.3668 -1.7923
  721MOL0     O97201   3.059   9.066  10.146  0.6011  0.4204 -0.9218
  721MOL0     C97202   3.025   8.997  10.243  0.4548  0.1486 -0.8526
  721MOL0     O97203   2.917   9.024  10.327 -0.5126 -0.2060  0.3248
  721MOL0     C97204   2.843   9.138  10.303  0.0916  1.3688  0.4011
  721MOL0     C97205   2.726   9.116  10.229 -0.1396  0.3746  0.6969
  721MOL0     C97206   2.652   9.224  10.180  0.2057  0.2553  0.4442
  721MOL0     C97207   2.693   9.356  10.205  0.2119 -0.4694  0.0764
  721MOL0     O97208   2.624   9.463  10.155 -0.4265 -0.1765 -0.3135
  721MOL0     C97209   2.483   9.445  10.188  0.6626 -0.7057 -0.4447
  721MOL0     C97210   2.417   9.582  10.177  0.4211 -1.0862  0.7972
  721MOL0     C97211   2.425   9.655  10.322  0.7139 -0.5570 -0.5777
  721MOL0     C97212   2.431   9.817  10.316  0.8659 -0.8200  0.5861
  721MOL0     C97213   2.439   9.885  10.457 -0.7163  0.0437  0.6167
  721MOL0     C97214   2.542   9.813  10.555 -1.0276 -0.9598  0.1788
  721MOL0     C97215   2.696   9.814  10.501 -0.2403 -1.4827 -0.8883
  721MOL0     C97216   2.765   9.952  10.491 -0.8915 -0.4076  0.0530
  721MOL0     N97217   2.785  10.017  10.625  0.5239  0.5978 -0.2560
  721MOL0     C97218   2.701  10.104  10.677  0.0090  0.0463  0.3761
  721MOL0     C97219   2.736  10.116  10.814 -0.1796  0.3162  0.2266
  721MOL0     C97220   2.667  10.215  10.893 -0.1446 -0.8828 -0.6527
  721MOL0     C97221   2.673  10.348  10.826 -0.2232 -0.4100  0.3219
  721MOL0     C97222   2.647  10.471  10.909 -0.3931 -0.4781  0.1423
  721MOL0     C97223   2.500  10.472  10.915  0.5895  0.3250 -0.8470
  721MOL0     O97224   2.452  10.605  10.934 -0.2528  0.6396 -0.5209
  721MOL0     C97225   2.316  10.625  10.955 -0.5483 -0.2001  0.2108
  721MOL0     C97226   2.268  10.756  10.969  0.2158 -1.0923  0.7371
  721MOL0     C97227   2.138  10.785  10.973 -1.2428 -0.4912  0.4142
  721MOL0     C97228   2.112  10.930  10.998 -0.0848 -0.0950 -0.1053
  721MOL0     C97229   2.036  10.686  10.967 -0.4190 -0.5738 -0.5027
  721MOL0     C97230   1.891  10.721  10.950 -0.0111 -0.0524  0.3738
  721MOL0     O97231   1.802  10.633  11.014 -0.5306 -0.3340 -0.7822
  721MOL0     C97232   1.668  10.654  10.995 -0.6140 -0.0732 -0.4439
  721MOL0     C97233   1.610  10.586  10.892  0.5766  0.6519  1.2327
  721MOL0     C97234   1.466  10.590  10.876  0.6946  0.2514 -0.3594
  721MOL0     C97235   1.391  10.676  10.958 -0.3256 -0.5512 -0.8414
  721MOL0     O97236   1.253  10.665  10.961  0.4621  0.0923  0.3213
  721MOL0     C97237   1.182  10.743  11.061 -0.6576 -0.5093  0.4009
  721MOL0     C97238   1.034  10.714  11.051  0.4968  0.9279 -0.2432
  721MOL0     C97239   0.951  10.807  11.133  0.8646 -0.6298 -0.5056
  721MOL0     C97240   0.810  10.822  11.079  1.7284 -0.0053 -0.4071
  721MOL0     C97241   0.714  10.906  11.174 -0.5826 -0.3449 -0.6359
  721MOL0     C97242   0.679  10.825  11.298 -0.2962 -0.4796  0.5349
  721MOL0     C97243   0.586  10.914  11.383  0.4372 -0.4105  0.1068
  721MOL0     C97244   0.526  10.827  11.498  0.6469  0.5114  0.2003
  721MOL0    Cl97245   0.630  10.826  11.632  0.0435  0.3159 -0.0858
  721MOL0     C97246   1.456  10.749  11.059  0.0828  0.4451  0.0229
  721MOL0     C97247   1.592  10.734  11.084 -0.4776 -0.1202 -0.0460
  721MOL0     O97248   1.867  10.799  10.862  0.2003  0.6756  0.2263
  721MOL0     C97249   2.082  10.552  10.960 -0.6623  0.6835 -0.1031
  721MOL0     C97250   2.224  10.523  10.953  0.2260  0.7258 -0.5946
  721MOL0     N97251   2.854  10.053  10.825  1.0153  0.2421  0.6050
  721MOL0     N97252   2.885   9.997  10.716  0.3915  0.3416  0.3204
  721MOL0     C97253   2.807   9.377  10.284  0.8356 -0.6666  0.1577
  721MOL0     C97254   2.890   9.272  10.323  0.4025 -0.1545  1.0519
  721MOL0     C97255   3.114   8.874  10.271  0.2616  0.2368  0.0233
  721MOL0     C97256   3.065   8.778  10.361 -1.3696 -0.8714  0.4133
  721MOL0     C97257   3.118   8.652  10.374 -0.7195 -0.1346  0.8038
  721MOL0     C97258   3.238   8.618  10.303 -0.2949  0.3735 -0.7184
  721MOL0     O97259   3.287   8.493  10.309 -0.3483 -0.4000 -0.1659
  721MOL0     C97260   3.201   8.376  10.294  0.1516 -0.4123  0.5403
  721MOL0     C97261   3.260   8.280  10.191  0.7420 -0.7043 -0.3469
  721MOL0     C97262   3.153   8.177  10.153  0.0236 -0.8614  0.9807
  721MOL0     C97263   3.183   8.092  10.031  0.2045 -0.2434  0.0696
  721MOL0     C97264   3.125   8.121   9.902  0.0889 -0.3308  0.4848
  721MOL0     C97265   3.064   8.153   9.794  0.0394 -0.4941 -0.4989
  721MOL0     C97266   3.292   8.710  10.214  0.4699 -1.1442  0.0777
  721MOL0     C97267   3.237   8.842  10.199  0.5166  0.3522 -0.1540
  721MOL0     H97268   2.691   9.014  10.213  0.0223  0.3075  0.7601
  721MOL0     H97269   2.566   9.207  10.116 -1.0542  2.8905  1.2715
  721MOL0     H97270   2.434   9.371  10.125 -1.0212  0.6116 -0.7819
  721MOL0     H97271   2.468   9.406  10.289  1.0316 -1.3463 -0.6339
  721MOL0     H97272   2.456   9.645  10.097 -2.0033  1.9233  1.7689
  721MOL0     H97273   2.311   9.562  10.157  0.9248 -0.8598 -2.5875
  721MOL0     H97274   2.341   9.624  10.385  0.2111  3.6977  1.2168
  721MOL0     H97275   2.509   9.618  10.382 -0.5389  2.3651  3.3893
  721MOL0     H97276   2.511   9.845  10.247 -0.2984 -0.5888 -0.7265
  721MOL0     H97277   2.336   9.851  10.274  0.8341 -2.8165 -1.1080
  721MOL0     H97278   2.437   9.993  10.439 -0.2931  0.1607  1.2513
  721MOL0     H97279   2.344   9.858  10.503 -0.8407  1.4439  1.2053
  721MOL0     H97280   2.551   9.857  10.655 -1.7001  1.5353 -0.7793
  721MOL0     H97281   2.513   9.708  10.557 -1.5569 -0.8906 -1.6920
  721MOL0     H97282   2.752   9.747  10.568 -0.5480  0.3374  1.2892
  721MOL0     H97283   2.701   9.770  10.401  2.3776 -0.4480 -1.2969
  721MOL0     H97284   2.726  10.020  10.414  1.5382 -1.5652 -2.3841
  721MOL0     H97285   2.868   9.937  10.457 -1.6834 -1.0474 -2.2742
  721MOL0     H97286   2.621  10.161  10.629 -1.9169 -1.5191  1.5713
  721MOL0     H97287   2.560  10.198  10.907 -0.4637  0.2445 -1.5275
  721MOL0     H97288   2.699  10.224  10.997 -2.7099  3.2423  0.0313
  721MOL0     H97289   2.609  10.338  10.738  0.3407 -2.4112  0.0829
  721MOL0     H97290   2.770  10.374  10.782 -1.4642 -0.7495 -2.9084
  721MOL0     H97291   2.673  10.560  10.852  0.1803 -2.4118 -2.8381
  721MOL0     H97292   2.690  10.480  11.009 -0.6355  1.6650  0.0870
  721MOL0     H97293   2.464  10.406  10.995  2.4633 -0.0251 -0.2382
  721MOL0     H97294   2.458  10.429  10.824 -0.3929 -2.9616  0.9863
  721MOL0     H97295   2.345  10.831  10.985  2.3440 -2.9984 -0.1118
  721MOL0     H97296   2.022  10.961  11.052  0.0963 -0.3211  0.3290
  721MOL0     H97297   2.191  10.971  11.060 -1.4135  0.1091  1.5026
  721MOL0     H97298   2.114  10.977  10.899  3.3452 -0.6424 -0.4067
  721MOL0     H97299   1.676  10.520  10.837 -1.7826  1.4341 -2.9449
  721MOL0     H97300   1.437  10.528  10.791  0.2459  1.6251 -1.2478
  721MOL0     H97301   1.217  10.712  11.160  1.3015 -0.2767 -0.1774
  721MOL0     H97302   1.208  10.845  11.033  1.3639 -1.4272 -1.3566
  721MOL0     H97303   1.014  10.718  10.943  0.0625  1.4585 -0.1466
  721MOL0     H97304   1.017  10.609  11.078  1.1546  1.0550  0.7008
  721MOL0     H97305   0.998  10.905  11.141  1.8322 -1.2225  2.1923
  721MOL0     H97306   0.951  10.776  11.238  0.2670  0.3817 -0.1986
  721MOL0     H97307   0.821  10.877  10.985  3.1990 -0.7907 -0.7173
  721MOL0     H97308   0.762  10.728  11.051  4.1561 -2.0078  1.5772
  721MOL0     H97309   0.619  10.926  11.124  0.1991  1.7724 -1.3673
  721MOL0     H97310   0.767  11.001  11.190  2.2612 -1.8653 -0.3231
  721MOL0     H97311   0.631  10.736  11.258 -0.2408 -1.1669  1.9262
  721MOL0     H97312   0.775  10.803  11.347 -0.5394  0.4741  1.4836
  721MOL0     H97313   0.504  10.945  11.317 -0.0494  0.2451  0.9996
  721MOL0     H97314   0.633  11.005  11.421 -1.8460  0.5007  0.9523
  721MOL0     H97315   0.496  10.725  11.472  0.3638  0.4343  0.7956
  721MOL0     H97316   0.432  10.874  11.527 -0.4718 -1.8906  0.6435
  721MOL0     H97317   1.401  10.809  11.131 -2.7302 -3.7038  1.7583
  721MOL0     H97318   1.637  10.795  11.161  2.7670  1.0522 -2.6259
  721MOL0     H97319   2.014  10.470  10.975  0.7274 -0.7328 -1.2397
  721MOL0     H97320   2.254  10.419  10.947  0.9942  0.8431  0.7696
  721MOL0     H97321   2.834   9.478  10.312  3.7233 -1.9291  2.4931
  721MOL0     H97322   2.990   9.296  10.358 -0.1118  1.7830  1.2850
  721MOL0     H97323   2.986   8.812  10.427 -0.1635  1.5462  0.7157
  721MOL0     H97324   3.085   8.583  10.451 -1.1690  2.2195  2.8623
  721MOL0     H97325   3.198   8.323  10.390 -0.7959  0.7651  1.1831
  721MOL0     H97326   3.098   8.407  10.271 -0.4226 -2.0607  0.7266
  721MOL0     H97327   3.348   8.224  10.225  1.9279  1.2000 -0.1011
  721MOL0     H97328   3.291   8.331  10.099 -0.5297  0.3651 -0.2179
  721MOL0     H97329   3.063   8.232  10.126  0.4071 -1.8536 -2.9089
  721MOL0     H97330   3.141   8.104  10.233  5.5739 -3.4816 -0.0461
  721MOL0     H97331   3.158   7.989  10.056 -0.6883 -0.3946 -1.3180
  721MOL0     H97332   3.289   8.103  10.008 -0.3533  0.6022 -2.5820
  721MOL0     H97333   3.014   8.190   9.707 -2.9626 -0.2526  1.2016
  721MOL0     H97334   3.369   8.661  10.154  0.2468  0.0536 -1.2258
  721MOL0     H97335   3.267   8.899  10.111 -2.9384 -0.6148 -2.1321
  722MOL0     O97336   6.472  11.088  10.236 -0.1835  0.3787 -0.2893
  722MOL0     C97337   6.416  10.981  10.268 -1.5491 -0.9116  0.4129
  722MOL0     O97338   6.335  10.972  10.378 -0.6398  0.5120 -0.0254
  722MOL0     C97339   6.288  11.093  10.438 -0.7827 -0.7013 -0.0523
  722MOL0     C97340   6.259  11.081  10.571 -0.3724 -0.2918 -0.6925
  722MOL0     C97341   6.219  11.193  10.644 -0.3372  1.1477 -0.3496
  722MOL0     C97342   6.191  11.313  10.586  0.0657 -0.0393  0.3782
  722MOL0     O97343   6.148  11.409  10.667  0.2604 -0.2423 -0.6275
  722MOL0     C97344   6.075  11.517  10.599  0.1962  0.2448 -0.3420
  722MOL0     C97345   5.993  11.595  10.706  0.1930  0.2029 -0.0151
  722MOL0     C97346   5.895  11.510  10.781  0.3734 -0.6798 -0.8176
  722MOL0     C97347   5.850  11.594  10.903 -0.4210  0.2379 -0.4688
  722MOL0     C97348   5.723  11.555  10.966  0.1399 -0.6352  0.2085
  722MOL0     C97349   5.671  11.669  11.067 -0.3929  0.7447 -0.7669
  722MOL0     C97350   5.542  11.629  11.145 -0.2681  0.1691 -0.3710
  722MOL0     C97351   5.427  11.666  11.046  0.3927 -0.2429  0.0821
  722MOL0     N97352   5.327  11.558  11.030  0.5860  0.1320 -0.2146
  722MOL0     C97353   5.317  11.470  10.927  0.2994 -0.0246 -0.1208
  722MOL0     C97354   5.209  11.391  10.963 -1.2584  0.3200 -0.4945
  722MOL0     C97355   5.166  11.253  10.899 -1.0500 -1.0750 -0.8773
  722MOL0     C97356   5.114  11.160  10.995 -0.1387 -0.7866 -0.0262
  722MOL0     C97357   5.078  11.020  10.933  0.0572  0.2994 -0.5801
  722MOL0     C97358   5.032  10.923  11.039  0.5560 -0.9926  0.6608
  722MOL0     O97359   4.955  10.826  10.980 -1.1146 -0.1431 -0.3332
  722MOL0     C97360   4.848  10.768  11.041 -0.0068  0.2227 -0.4075
  722MOL0     C97361   4.807  10.809  11.166 -0.2660 -0.9177 -0.4783
  722MOL0     C97362   4.689  10.763  11.223 -0.4737 -1.4233 -0.7872
  722MOL0     C97363   4.675  10.784  11.379 -0.2818 -0.8768  0.5825
  722MOL0     C97364   4.598  10.682  11.147 -0.4604  0.4532  0.0394
  722MOL0     C97365   4.477  10.627  11.214 -0.4522 -0.2575 -0.1153
  722MOL0     O97366   4.423  10.528  11.143 -0.1447 -0.1272  0.3633
  722MOL0     C97367   4.301  10.480  11.178  0.9173 -0.0181 -0.3685
  722MOL0     C97368   4.187  10.564  11.164  0.1640 -0.5621  0.4493
  722MOL0     C97369   4.058  10.513  11.174  0.5253 -0.3930  0.7820
  722MOL0     C97370   4.040  10.381  11.196  0.3523 -0.8583 -0.0362
  722MOL0     O97371   3.906  10.342  11.203 -0.1339  0.6415 -0.2630
  722MOL0     C97372   3.855  10.220  11.276 -0.1993 -0.3868  0.8616
  722MOL0     C97373   3.796  10.125  11.175 -0.4081  0.0643  1.0284
  722MOL0     C97374   3.906  10.058  11.105 -0.4532  0.5436 -0.1104
  722MOL0     C97375   3.868   9.995  10.971 -0.0776 -0.4199  0.0316
  722MOL0     C97376   3.974   9.983  10.857  0.1257  0.1639 -0.1397
  722MOL0     C97377   4.109   9.908  10.895 -0.1345  0.8029 -0.2346
  722MOL0     C97378   4.226   9.914  10.790 -0.2779 -0.1129 -0.2606
  722MOL0     C97379   4.173   9.942  10.647 -0.8553 -0.7446  0.0505
  722MOL0    Cl97380   4.296   9.921  10.526  0.2757 -0.1635 -0.4489
  722MOL0     C97381   4.150  10.292  11.221 -0.0793 -0.8161 -0.1984
  722MOL0     C97382   4.279  10.348  11.203 -0.4396  0.4536 -0.2323
  722MOL0     O97383   4.429  10.671  11.316  0.1273 -0.3954  0.6331
  722MOL0     C97384   4.627  10.668  11.010 -0.3957  0.4010  1.0104
  722MOL0     C97385   4.753  10.700  10.955  0.2548 -0.3383  0.2599
  722MOL0     N97386   5.140  11.444  11.077 -0.0670  1.2125  0.1591
  722MOL0     N97387   5.207  11.547  11.102 -0.4249 -0.5104 -0.3223
  722MOL0     C97388   6.215  11.328  10.453 -0.5810 -0.0470 -1.0619
  722MOL0     C97389   6.265  11.221  10.378 -0.5030  0.2840  0.6264
  722MOL0     C97390   6.464  10.865  10.190 -0.1308 -1.0184  0.0289
  722MOL0     C97391   6.537  10.869  10.069 -0.1115 -0.1370 -0.0602
  722MOL0     C97392   6.567  10.762   9.993 -0.2038 -0.0190  0.5864
  722MOL0     C97393   6.529  10.632  10.030 -0.3336 -1.0358 -0.2656
  722MOL0     O97394   6.575  10.531   9.950 -0.0173 -0.5030 -0.2963
  722MOL0     C97395   6.585  10.413  10.014 -0.0270  0.2900 -0.0136
  722MOL0     C97396   6.615  10.299   9.915 -0.2918 -1.0581  0.4900
  722MOL0     C97397   6.482  10.232   9.869  0.1313  0.1608 -0.1584
  722MOL0     C97398   6.505  10.113   9.780 -0.3645  0.2684 -0.7423
  722MOL0     C97399   6.557   9.994   9.851 -0.5481  1.0486  0.2580
  722MOL0     C97400   6.611   9.900   9.912 -0.8353 -0.3394  1.0071
  722MOL0     C97401   6.467  10.624  10.156  0.3979  0.4453 -0.0477
  722MOL0     C97402   6.433  10.736  10.232  0.3858 -0.2824  0.7747
  722MOL0     H97403   6.268  10.989  10.628 -2.6191  0.0025  0.2143
  722MOL0     H97404   6.206  11.189  10.752  0.9297 -2.5103 -0.1888
  722MOL0     H97405   6.151  11.585  10.560 -0.1588 -0.2984 -2.0506
  722MOL0     H97406   6.007  11.480  10.522 -3.2057 -0.8257  2.8537
  722MOL0     H97407   6.058  11.651  10.774  1.5012  2.0953 -2.6370
  722MOL0     H97408   5.939  11.671  10.649  0.8987  1.5646  1.0699
  722MOL0     H97409   5.821  11.486  10.704 -1.2861 -2.8285  1.3155
  722MOL0     H97410   5.934  11.415  10.817  2.5869  1.0446  1.6822
  722MOL0     H97411   5.928  11.589  10.979 -0.0053  1.9140 -0.7438
  722MOL0     H97412   5.858  11.695  10.860  1.0541  0.7497  0.9225
  722MOL0     H97413   5.644  11.536  10.892 -2.3532 -0.7979  2.7376
  722MOL0     H97414   5.715  11.461  11.021 -1.4581 -1.6528 -1.6182
  722MOL0     H97415   5.753  11.674  11.140 -0.8199  1.6339 -0.3313
  722MOL0     H97416   5.678  11.772  11.030 -2.9704  1.6718  1.0302
  722MOL0     H97417   5.535  11.524  11.175 -2.6945  0.5533  0.6933
  722MOL0     H97418   5.544  11.693  11.234 -2.0013 -2.6630  1.9095
  722MOL0     H97419   5.461  11.674  10.943 -0.2470 -2.8147 -0.3997
  722MOL0     H97420   5.382  11.757  11.087 -2.3891 -0.2768 -2.5021
  722MOL0     H97421   5.377  11.456  10.838  0.1769 -0.6571 -0.1074
  722MOL0     H97422   5.105  11.277  10.812  1.0572  0.0573 -2.1208
  722MOL0     H97423   5.257  11.205  10.862  0.3415  0.3667  0.4711
  722MOL0     H97424   5.018  11.192  11.035  0.0649  1.7170 -1.3431
  722MOL0     H97425   5.187  11.149  11.076 -0.6524 -2.9151  0.2078
  722MOL0     H97426   5.166  10.981  10.882  1.1983  0.0793  1.4258
  722MOL0     H97427   4.991  11.030  10.867  0.3468 -0.4267 -1.0859
  722MOL0     H97428   4.967  10.987  11.100  1.6209 -1.8127  2.7696
  722MOL0     H97429   5.107  10.873  11.102  1.9274 -1.0399 -0.9421
  722MOL0     H97430   4.876  10.869  11.223 -0.1238 -1.1795 -0.3762
  722MOL0     H97431   4.590  10.851  11.399  1.1891  1.2922 -0.0403
  722MOL0     H97432   4.639  10.698  11.436 -1.3573 -0.3722  0.6916
  722MOL0     H97433   4.769  10.821  11.421 -0.3790 -1.4450  1.3087
  722MOL0     H97434   4.209  10.666  11.135 -0.2902 -1.3798 -3.2961
  722MOL0     H97435   3.980  10.587  11.164  0.9489 -0.0072  0.2291
  722MOL0     H97436   3.934  10.169  11.332 -0.7720  0.9575  3.0048
  722MOL0     H97437   3.785  10.258  11.350 -1.6058 -2.9110  0.9503
  722MOL0     H97438   3.735  10.048  11.222  0.2413 -0.9618  0.2468
  722MOL0     H97439   3.726  10.179  11.111 -0.2785 -3.2804 -2.2880
  722MOL0     H97440   3.954   9.982  11.168  0.8940  0.2873 -1.3827
  722MOL0     H97441   3.990  10.119  11.070 -0.0551 -1.5635 -3.3051
  722MOL0     H97442   3.809   9.904  10.984 -2.1080  1.0210  1.6735
  722MOL0     H97443   3.790  10.058  10.926 -1.4623 -2.4954 -0.6422
  722MOL0     H97444   4.006  10.086  10.837 -3.2397  1.3923  0.1606
  722MOL0     H97445   3.909   9.938  10.781 -1.3431  1.6899  0.1524
  722MOL0     H97446   4.148   9.946  10.990 -3.9385  1.0586  1.4079
  722MOL0     H97447   4.076   9.807  10.919  0.3912  0.5378 -0.5920
  722MOL0     H97448   4.287   9.824  10.787  4.2771  2.5828  1.1897
  722MOL0     H97449   4.283  10.005  10.810 -2.6649  1.9634 -2.1616
  722MOL0     H97450   4.146  10.047  10.629  2.2223  0.0184 -0.8284
  722MOL0     H97451   4.091   9.874  10.621 -1.7798  0.4725 -0.3071
  722MOL0     H97452   4.142  10.192  11.264 -1.0047 -1.4356 -1.7356
  722MOL0     H97453   4.359  10.277  11.219 -1.6728 -0.5451  2.0198
  722MOL0     H97454   4.553  10.642  10.935  0.1581  0.8405  0.3041
  722MOL0     H97455   4.773  10.665  10.854 -3.1887  1.8818 -1.3806
  722MOL0     H97456   6.214  11.427  10.410  1.8490  0.4369 -0.1857
  722MOL0     H97457   6.284  11.228  10.271 -0.3583  1.5417  0.7169
  722MOL0     H97458   6.573  10.965  10.033  0.4825 -0.4151 -0.2310
  722MOL0     H97459   6.627  10.768   9.903  0.5499 -2.1105  0.8848
  722MOL0     H97460   6.665  10.425  10.087  1.8073 -1.3245 -1.6283
  722MOL0     H97461   6.496  10.380  10.069  0.1782 -0.0790  0.0998
  722MOL0     H97462   6.685  10.235   9.969 -1.4816 -3.9336 -1.1909
  722MOL0     H97463   6.679  10.330   9.832  0.0014  0.1056  1.1233
  722MOL0     H97464   6.415  10.295   9.810 -1.3104  0.3513  1.6023
  722MOL0     H97465   6.423  10.204   9.956 -0.8268  0.2802 -0.7538
  722MOL0     H97466   6.578  10.124   9.699 -1.5421 -1.9061 -2.2079
  722MOL0     H97467   6.406  10.095   9.736 -0.1394  1.6782 -1.9070
  722MOL0     H97468   6.650   9.805   9.943  0.6148 -0.2026 -0.2633
  722MOL0     H97469   6.428  10.529  10.191 -1.9774  1.0556 -0.8137
  722MOL0     H97470   6.374  10.716  10.321 -0.1520  0.5070  0.6042
  723MOL0     O97471   7.369   3.146   9.304 -0.4064 -0.3974  0.4831
  723MOL0     C97472   7.458   3.220   9.352  0.1991 -0.5800 -0.0654
  723MOL0     O97473   7.581   3.184   9.396  0.5023 -0.1340  0.4482
  723MOL0     C97474   7.631   3.054   9.376  0.1081  0.1046 -0.2434
  723MOL0     C97475   7.558   2.939   9.378  0.9895  0.9875  0.1908
  723MOL0     C97476   7.619   2.814   9.343  0.7435  0.1058 -0.4988
  723MOL0     C97477   7.751   2.801   9.312 -0.3120 -0.5527 -0.3084
  723MOL0     O97478   7.803   2.671   9.284 -0.1794  0.1591 -0.2331
  723MOL0     C97479   7.931   2.657   9.224 -0.3985  0.1892  0.6772
  723MOL0     C97480   7.945   2.651   9.069  0.4663  0.9953 -0.7027
  723MOL0     C97481   7.869   2.765   8.995  0.4778 -0.6986  0.4902
  723MOL0     C97482   7.902   2.762   8.836  0.2463  0.0957 -1.0209
  723MOL0     C97483   7.798   2.834   8.752  0.1575  0.0898  0.1494
  723MOL0     C97484   7.853   2.865   8.609 -1.0617  0.0433  0.2980
  723MOL0     C97485   7.743   2.910   8.509  0.8192 -0.6942 -0.3307
  723MOL0     C97486   7.795   2.923   8.369  0.2070 -1.1761  0.2578
  723MOL0     N97487   7.817   2.792   8.310  0.2656  0.1439  0.6215
  723MOL0     C97488   7.721   2.728   8.237 -0.6789 -0.3918  0.5461
  723MOL0     C97489   7.775   2.640   8.157 -0.0448  1.1794 -0.5027
  723MOL0     C97490   7.690   2.557   8.061  0.3904  0.3509 -0.0836
  723MOL0     C97491   7.660   2.414   8.121  0.3057 -0.2314  0.0130
  723MOL0     C97492   7.786   2.343   8.151 -1.4567 -0.1760  0.0022
  723MOL0     C97493   7.746   2.198   8.184 -0.4854 -0.4447  0.1045
  723MOL0     O97494   7.737   2.107   8.077 -0.3639  0.4875  0.0314
  723MOL0     C97495   7.852   2.044   8.043  0.6538  0.0910  0.3616
  723MOL0     C97496   7.990   2.081   8.087 -0.6654 -0.3307  0.7272
  723MOL0     C97497   8.103   2.012   8.034  0.5500  1.0704  0.1819
  723MOL0     C97498   8.238   2.055   8.084 -0.4001 -0.8455 -0.5112
  723MOL0     C97499   8.080   1.906   7.938 -0.2149  0.3249 -0.4315
  723MOL0     C97500   8.180   1.841   7.850  0.0538 -0.3617 -0.1478
  723MOL0     O97501   8.145   1.720   7.794 -0.5303  0.3286  0.3113
  723MOL0     C97502   8.239   1.655   7.718 -0.8951 -1.1884  0.4784
  723MOL0     C97503   8.213   1.646   7.586 -0.3104 -0.5559 -0.6911
  723MOL0     C97504   8.304   1.595   7.495  0.0679 -0.0992 -0.1904
  723MOL0     C97505   8.411   1.516   7.542 -1.4458 -0.8671 -0.5286
  723MOL0     O97506   8.494   1.457   7.444  0.5253  0.0772 -0.8461
  723MOL0     C97507   8.631   1.459   7.477 -0.2117 -0.1747  0.3021
  723MOL0     C97508   8.710   1.405   7.360 -0.4654  0.2369  0.2221
  723MOL0     C97509   8.704   1.505   7.237  0.2076  0.2952 -1.2154
  723MOL0     C97510   8.639   1.426   7.117  0.2362 -1.1211 -0.3868
  723MOL0     C97511   8.721   1.306   7.082  0.0669  0.2487 -0.7884
  723MOL0     C97512   8.651   1.218   6.966 -0.3219 -0.2570 -0.2529
  723MOL0     C97513   8.725   1.090   6.941 -0.3873 -0.1461 -0.3171
  723MOL0     C97514   8.683   1.002   6.821 -0.1657 -0.1049  0.3257
  723MOL0    Cl97515   8.542   0.897   6.836 -0.1037  0.0779 -0.2245
  723MOL0     C97516   8.429   1.506   7.690 -0.3328  0.3267  0.8715
  723MOL0     C97517   8.337   1.569   7.769 -0.3689  0.9147 -0.4962
  723MOL0     O97518   8.286   1.901   7.826 -0.3741 -0.2007 -0.4015
  723MOL0     C97519   7.943   1.869   7.917 -0.9410  0.6469 -0.0779
  723MOL0     C97520   7.831   1.938   7.966 -0.7635  0.9606  0.0895
  723MOL0     N97521   7.907   2.639   8.183  0.3830 -0.0066 -0.7392
  723MOL0     N97522   7.929   2.743   8.257 -0.4007  1.2632 -0.0503
  723MOL0     C97523   7.828   2.919   9.325 -0.1115 -0.3345 -0.2933
  723MOL0     C97524   7.763   3.040   9.344 -1.1548 -0.1123  0.3973
  723MOL0     C97525   7.401   3.348   9.405  0.4055  0.6659  0.0756
  723MOL0     C97526   7.441   3.395   9.534  1.9083  0.0695  0.2344
  723MOL0     C97527   7.374   3.507   9.590  0.7075 -0.0016 -0.6213
  723MOL0     C97528   7.259   3.559   9.536  0.6727  0.5167  0.2015
  723MOL0     O97529   7.184   3.636   9.613 -0.6087 -1.1067  0.2683
  723MOL0     C97530   7.066   3.705   9.565  0.6824  0.4430  0.6352
  723MOL0     C97531   6.997   3.798   9.665  0.6533 -0.5257  0.2627
  723MOL0     C97532   7.091   3.887   9.756  0.1015 -0.3349  0.2910
  723MOL0     C97533   7.012   3.973   9.862  0.0532  0.2134  0.4097
  723MOL0     C97534   7.084   4.005   9.984 -0.1867  0.0886  0.2657
  723MOL0     C97535   7.155   4.030  10.079  0.3538  0.2665 -0.1677
  723MOL0     C97536   7.215   3.504   9.406 -0.3047  0.5493 -0.1507
  723MOL0     C97537   7.290   3.400   9.341  0.0748  0.5250  0.8214
  723MOL0     H97538   7.457   2.931   9.418  1.2662 -0.0484  0.7283
  723MOL0     H97539   7.569   2.718   9.341  1.7677 -0.4640 -0.0644
  723MOL0     H97540   8.003   2.725   9.272  0.3404 -0.0999  0.0023
  723MOL0     H97541   7.960   2.558   9.259  1.0347  0.5518  0.5841
  723MOL0     H97542   8.052   2.645   9.046  0.8684 -0.7564  1.2733
  723MOL0     H97543   7.891   2.560   9.043 -0.6056  1.1700  0.7535
  723MOL0     H97544   7.760   2.758   9.000  0.2252 -2.5635 -3.5590
  723MOL0     H97545   7.891   2.856   9.052 -1.3554  1.8317 -2.5200
  723MOL0     H97546   7.991   2.826   8.831  1.3115 -1.2209  0.0059
  723MOL0     H97547   7.902   2.659   8.800 -4.2344 -0.4827  0.0495
  723MOL0     H97548   7.712   2.766   8.757 -0.0680  0.3619  4.8552
  723MOL0     H97549   7.770   2.930   8.798 -0.4569  0.2890 -0.6212
  723MOL0     H97550   7.931   2.941   8.611 -1.5261  0.5245  0.3006
  723MOL0     H97551   7.903   2.776   8.570 -1.0082 -0.1041  0.6973
  723MOL0     H97552   7.653   2.847   8.513 -0.5627  1.2199  0.2485
  723MOL0     H97553   7.705   3.003   8.552  0.1291 -0.0918 -2.1183
  723MOL0     H97554   7.886   2.982   8.359 -1.4983  2.0763  2.0296
  723MOL0     H97555   7.719   2.980   8.314  0.9604 -0.0387  0.3660
  723MOL0     H97556   7.618   2.759   8.245 -0.3241  0.5873  1.9044
  723MOL0     H97557   7.593   2.604   8.044 -2.2470 -4.1283  1.0140
  723MOL0     H97558   7.750   2.538   7.972  0.3239 -1.6014  0.2549
  723MOL0     H97559   7.608   2.352   8.048  0.8021  2.0257 -2.4052
  723MOL0     H97560   7.607   2.416   8.217  3.8083 -6.9147  2.8082
  723MOL0     H97561   7.832   2.394   8.236 -0.4496  3.5390 -2.5243
  723MOL0     H97562   7.854   2.345   8.066  0.7396  2.7306  1.6237
  723MOL0     H97563   7.653   2.199   8.241  0.1301  0.5842  1.1523
  723MOL0     H97564   7.821   2.154   8.252  0.8611  1.2557 -0.1875
  723MOL0     H97565   8.015   2.173   8.138  1.9490 -1.2451  1.2550
  723MOL0     H97566   8.309   1.971   8.086  0.0134 -0.5244 -1.1925
  723MOL0     H97567   8.281   2.140   8.030  1.0499  1.4288  3.7969
  723MOL0     H97568   8.237   2.089   8.187  3.3547 -1.6238 -0.0856
  723MOL0     H97569   8.118   1.689   7.556  0.3663 -0.8179 -3.5423
  723MOL0     H97570   8.306   1.592   7.386  0.8992  0.8592 -0.2184
  723MOL0     H97571   8.664   1.561   7.502 -2.1567  0.2935  1.1581
  723MOL0     H97572   8.654   1.399   7.565  1.2036 -2.0180 -1.2534
  723MOL0     H97573   8.812   1.393   7.395 -0.1349 -0.1439 -0.8241
  723MOL0     H97574   8.679   1.301   7.345 -2.3317  0.9103 -0.9616
  723MOL0     H97575   8.802   1.550   7.217  0.1646  2.2040  2.1763
  723MOL0     H97576   8.637   1.590   7.251 -2.4468 -1.7901 -0.4111
  723MOL0     H97577   8.540   1.395   7.151 -0.3677 -1.1601 -2.0624
  723MOL0     H97578   8.637   1.493   7.030  3.3425  0.9680  0.9709
  723MOL0     H97579   8.733   1.236   7.165  1.4753 -1.0540 -2.0227
  723MOL0     H97580   8.822   1.328   7.046  0.8243 -0.1155  1.0389
  723MOL0     H97581   8.552   1.198   7.008 -0.2571 -0.0479  0.0060
  723MOL0     H97582   8.628   1.276   6.876 -0.1567 -0.8406 -0.6747
  723MOL0     H97583   8.738   1.026   7.029 -0.4506  2.2273  1.5005
  723MOL0     H97584   8.827   1.123   6.917 -0.7806  0.8515 -0.6730
  723MOL0     H97585   8.762   0.937   6.782 -2.3804 -1.1231 -2.8925
  723MOL0     H97586   8.662   1.072   6.740  2.7743  1.4658  0.7790
  723MOL0     H97587   8.508   1.444   7.730 -0.5184  0.3857  1.3333
  723MOL0     H97588   8.353   1.552   7.875 -0.6208  1.0104 -0.4419
  723MOL0     H97589   7.927   1.802   7.833 -0.9594  0.8155 -0.2093
  723MOL0     H97590   7.729   1.911   7.939 -1.9902  2.8801  2.4529
  723MOL0     H97591   7.934   2.914   9.303  1.0210  1.4652  3.7375
  723MOL0     H97592   7.831   3.124   9.335 -1.2889 -0.1991 -3.1004
  723MOL0     H97593   7.531   3.358   9.582  0.0457 -0.9409  3.2013
  723MOL0     H97594   7.398   3.543   9.690 -2.1762 -3.3618  1.5320
  723MOL0     H97595   7.102   3.758   9.476 -0.3852 -0.8342 -0.6085
  723MOL0     H97596   6.985   3.645   9.522  1.0510 -0.0897  0.6876
  723MOL0     H97597   6.939   3.736   9.733  2.1899 -2.1547  0.1469
  723MOL0     H97598   6.926   3.867   9.619 -1.7281 -1.2814  2.5543
  723MOL0     H97599   7.144   3.953   9.687 -0.3352  2.6051  2.5812
  723MOL0     H97600   7.162   3.823   9.809 -0.7320  1.4124  3.8133
  723MOL0     H97601   6.914   3.927   9.872 -1.0324  0.5119 -5.2856
  723MOL0     H97602   6.984   4.070   9.818 -0.3928 -0.9374 -2.0231
  723MOL0     H97603   7.208   4.051  10.169 -2.8253  0.0905  1.9290
  723MOL0     H97604   7.138   3.554   9.349 -1.1100 -0.6345 -0.1422
  723MOL0     H97605   7.266   3.363   9.242  1.3323 -2.3645  1.5085
  724MOL0     O97606   1.071   2.296   1.704 -0.8730 -0.0566 -0.0167
  724MOL0     C97607   1.130   2.196   1.742  0.4360 -0.2534 -0.0357
  724MOL0     O97608   1.156   2.096   1.666  0.0913  1.0952  0.2646
  724MOL0     C97609   1.168   2.099   1.531 -0.7039  0.5634  0.8236
  724MOL0     C97610   1.288   2.086   1.464  1.4484  0.2362  0.4461
  724MOL0     C97611   1.298   2.089   1.320  0.0856  0.5321  0.6473
  724MOL0     C97612   1.179   2.097   1.244  0.6101 -1.0246  0.9640
  724MOL0     O97613   1.166   2.103   1.107  0.1360 -0.6579 -0.1900
  724MOL0     C97614   1.278   2.099   1.028 -0.6810 -0.1654 -1.1748
  724MOL0     C97615   1.223   2.047   0.900  1.2201 -0.1294  0.2184
  724MOL0     C97616   1.139   2.150   0.836 -0.0056 -0.3628  1.0044
  724MOL0     C97617   1.085   2.096   0.707 -0.1555  1.4433  0.5188
  724MOL0     C97618   0.971   2.183   0.645  0.1804  0.1295 -0.5112
  724MOL0     C97619   0.879   2.111   0.546 -0.1715 -0.6251  0.1839
  724MOL0     C97620   0.763   2.046   0.626  0.6085 -0.8545  0.9302
  724MOL0     C97621   0.629   2.106   0.584  0.4558 -0.2458 -0.3348
  724MOL0     N97622   0.519   2.047   0.667  0.3562  0.3575  0.1624
  724MOL0     C97623   0.491   2.091   0.789  0.7318 -0.7368  0.7110
  724MOL0     C97624   0.380   2.012   0.813  1.1512  0.5337  0.4852
  724MOL0     C97625   0.304   2.002   0.945 -0.7042  1.1482 -0.5392
  724MOL0     C97626   0.156   2.029   0.945  0.3988  1.3590  0.1525
  724MOL0     C97627   0.118   2.163   0.875 -0.2758  0.3478 -0.1114
  724MOL0     C97628  -0.031   2.200   0.869  0.5295 -0.3821  0.1278
  724MOL0     O97629  -0.058   2.260   0.740  0.2910  0.2929 -0.3445
  724MOL0     C97630  -0.173   2.221   0.668 -0.0369  0.4712 -0.8075
  724MOL0     C97631  -0.221   2.088   0.669 -0.1438  0.6341 -0.5295
  724MOL0     C97632  -0.335   2.049   0.590 -0.4974 -0.2598  0.0281
  724MOL0     C97633  -0.373   1.896   0.597  0.2842 -0.4994 -0.2374
  724MOL0     C97634  -0.378   2.135   0.498  0.9646 -0.7473  0.6487
  724MOL0     C97635  -0.489   2.107   0.405 -0.2106 -0.6047 -0.3800
  724MOL0     O97636  -0.523   2.209   0.319  0.2774  0.4282 -0.1497
  724MOL0     C97637  -0.631   2.189   0.235 -0.3331  0.6244 -0.6053
  724MOL0     C97638  -0.746   2.253   0.273  1.0761 -0.4599  0.3141
  724MOL0     C97639  -0.863   2.225   0.200  0.5601  0.5628  0.9387
  724MOL0     C97640  -0.867   2.125   0.093 -0.2489 -0.4075 -0.8720
  724MOL0     O97641  -0.985   2.084   0.023 -0.0955 -0.0682 -0.7460
  724MOL0     C97642  -1.105   2.075   0.102  0.5597 -0.3205 -0.1092
  724MOL0     C97643  -1.125   1.975   0.216  0.5491  0.0732 -0.2809
  724MOL0     C97644  -1.059   2.005   0.351 -0.4644 -0.2912  0.0994
  724MOL0     C97645  -1.120   1.917   0.464 -0.2687  0.5088  0.6767
  724MOL0     C97646  -1.041   1.919   0.594 -0.3871  0.1954  0.4932
  724MOL0     C97647  -1.007   2.055   0.659 -0.2114  0.7395  0.5960
  724MOL0     C97648  -1.121   2.138   0.713  0.1106 -0.3862  0.3796
  724MOL0     C97649  -1.088   2.247   0.820 -0.2690  0.8422  0.4056
  724MOL0    Cl97650  -0.981   2.191   0.954 -0.4928  0.0730 -0.0629
  724MOL0     C97651  -0.743   2.057   0.066  0.0702 -0.0757 -0.6204
  724MOL0     C97652  -0.624   2.096   0.131 -0.1557  0.5457 -0.9257
  724MOL0     O97653  -0.549   2.007   0.410 -0.0341 -0.2605  0.1223
  724MOL0     C97654  -0.321   2.266   0.492  0.9150 -0.4322  1.3367
  724MOL0     C97655  -0.215   2.306   0.577  0.2773  0.1345  0.1045
  724MOL0     N97656   0.353   1.922   0.712 -0.0066  0.6181 -0.1027
  724MOL0     N97657   0.433   1.951   0.616 -0.0264  0.2677  0.7414
  724MOL0     C97658   1.065   2.115   1.313 -0.8468  0.1097  0.7441
  724MOL0     C97659   1.059   2.127   1.448 -0.0163  0.6188 -0.8946
  724MOL0     C97660   1.148   2.164   1.888  0.8929 -0.7512 -0.1245
  724MOL0     C97661   1.205   2.045   1.942  0.5105 -0.3152 -0.2241
  724MOL0     C97662   1.222   2.021   2.079 -0.3367  0.4746 -0.2944
  724MOL0     C97663   1.180   2.102   2.174  0.0413 -0.9090  0.9810
  724MOL0     O97664   1.194   2.066   2.308  0.0364 -0.5526 -0.0050
  724MOL0     C97665   1.219   2.175   2.397  0.5338  0.1781  0.4702
  724MOL0     C97666   1.216   2.125   2.542 -0.1562 -0.3928  0.0871
  724MOL0     C97667   1.297   2.224   2.636 -0.2849  0.6932 -0.5951
  724MOL0     C97668   1.226   2.359   2.654 -0.3750 -0.3189  0.5931
  724MOL0     C97669   1.297   2.433   2.752 -0.5832  0.4391  0.5747
  724MOL0     C97670   1.330   2.502   2.844  0.1135 -0.2427 -0.1103
  724MOL0     C97671   1.113   2.215   2.120 -0.3141  0.5543  0.5790
  724MOL0     C97672   1.097   2.251   1.987 -0.6159 -0.6319 -0.0217
  724MOL0     H97673   1.374   2.082   1.529 -0.3864 -1.4958  2.9729
  724MOL0     H97674   1.399   2.086   1.280 -0.5677 -0.0465 -1.0163
  724MOL0     H97675   1.323   2.198   1.019 -0.2120 -0.3442 -0.8595
  724MOL0     H97676   1.347   2.023   1.065 -0.4930 -0.3567 -1.9126
  724MOL0     H97677   1.284   2.017   0.815 -2.1128  1.0672 -2.8499
  724MOL0     H97678   1.158   1.962   0.922 -1.1471  1.3259 -0.7843
  724MOL0     H97679   1.062   2.191   0.903 -0.1039  2.0466 -0.4330
  724MOL0     H97680   1.212   2.226   0.807 -0.1670 -1.3152 -2.3853
  724MOL0     H97681   1.172   2.079   0.643 -1.8154 -0.6114 -1.3334
  724MOL0     H97682   1.052   1.994   0.726 -0.1533  0.5696 -3.3979
  724MOL0     H97683   0.924   2.233   0.730 -0.0540 -1.3143  0.2274
  724MOL0     H97684   1.021   2.268   0.596  0.7203 -1.1296 -2.2159
  724MOL0     H97685   0.840   2.183   0.473  3.5794  0.1444 -1.2672
  724MOL0     H97686   0.932   2.037   0.486  1.1800 -1.0155  1.7876
  724MOL0     H97687   0.756   1.938   0.610  1.9608 -0.6314 -1.8142
  724MOL0     H97688   0.786   2.067   0.731  0.4096  0.1487  0.7783
  724MOL0     H97689   0.605   2.086   0.479  0.1161  0.2963 -0.3645
  724MOL0     H97690   0.640   2.215   0.589 -1.2298 -0.0004 -1.4186
  724MOL0     H97691   0.542   2.169   0.844 -1.7658  3.0382 -1.7943
  724MOL0     H97692   0.318   1.902   0.988  3.9327 -1.0027 -5.8081
  724MOL0     H97693   0.357   2.071   1.011  3.6164 -1.8945 -0.3755
  724MOL0     H97694   0.125   2.035   1.049 -0.2258 -0.4010  0.0972
  724MOL0     H97695   0.113   1.945   0.890  5.2678 -1.1101 -0.4275
  724MOL0     H97696   0.149   2.176   0.771 -4.3016 -2.5093 -1.9608
  724MOL0     H97697   0.175   2.233   0.937  3.0182 -2.8382  0.8020
  724MOL0     H97698  -0.048   2.285   0.935  1.3934  2.0692 -2.5796
  724MOL0     H97699  -0.103   2.123   0.898  2.3962 -1.5245  2.0057
  724MOL0     H97700  -0.162   2.015   0.723  1.4202  3.1116  1.3590
  724MOL0     H97701  -0.323   1.842   0.678  1.9866 -0.5397 -1.2593
  724MOL0     H97702  -0.477   1.877   0.622  0.1297  1.4454  0.7548
  724MOL0     H97703  -0.344   1.842   0.506  3.2517 -1.3210  1.0678
  724MOL0     H97704  -0.743   2.324   0.355 -0.1164 -0.3908  0.3178
  724MOL0     H97705  -0.952   2.288   0.203 -1.1174 -1.6737  1.1781
  724MOL0     H97706  -1.134   2.169   0.148 -0.5275 -1.0284  0.7194
  724MOL0     H97707  -1.177   2.047   0.024  1.8116 -3.1964 -0.3470
  724MOL0     H97708  -1.232   1.965   0.234  1.0131 -2.6944  1.5113
  724MOL0     H97709  -1.084   1.879   0.184 -0.6758 -0.4355 -0.3745
  724MOL0     H97710  -1.054   2.113   0.366 -2.3457 -0.1206 -0.2845
  724MOL0     H97711  -0.956   1.970   0.344  0.4623  1.1673  3.8558
  724MOL0     H97712  -1.223   1.952   0.472  0.2172  1.6909  2.3524
  724MOL0     H97713  -1.128   1.811   0.435 -0.5145 -0.1726  3.0168
  724MOL0     H97714  -0.945   1.867   0.589 -0.4591 -0.4161  3.4312
  724MOL0     H97715  -1.104   1.870   0.669  0.1170 -1.2733  0.0007
  724MOL0     H97716  -0.943   2.022   0.742 -3.1733 -0.3897  2.6285
  724MOL0     H97717  -0.945   2.101   0.581  2.3922 -0.4634  1.8176
  724MOL0     H97718  -1.198   2.073   0.755 -1.0115  0.1311 -0.8148
  724MOL0     H97719  -1.160   2.179   0.619  0.6085 -1.5226 -0.3446
  724MOL0     H97720  -1.173   2.303   0.859 -0.6288  0.0582  0.7676
  724MOL0     H97721  -1.037   2.331   0.771 -0.1463  1.5560  1.7145
  724MOL0     H97722  -0.745   1.977  -0.008 -2.9376 -0.7925  0.0879
  724MOL0     H97723  -0.534   2.039   0.109  1.9593  2.8338  1.1533
  724MOL0     H97724  -0.355   2.347   0.428  3.6380  0.1648  0.4814
  724MOL0     H97725  -0.177   2.407   0.574 -1.3761  0.8077  0.5824
  724MOL0     H97726   0.976   2.141   1.257 -0.7957 -0.7180  0.2595
  724MOL0     H97727   0.967   2.150   1.502  0.5240  2.3471 -0.6849
  724MOL0     H97728   1.257   1.981   1.872  2.1895  1.1157 -0.3621
  724MOL0     H97729   1.288   1.939   2.106 -1.7139  0.4653  3.7517
  724MOL0     H97730   1.324   2.195   2.374  0.6421 -0.3585  0.4854
  724MOL0     H97731   1.160   2.266   2.388  1.0516  0.8496  3.1802
  724MOL0     H97732   1.251   2.021   2.543 -1.9323 -1.0541 -1.2169
  724MOL0     H97733   1.112   2.135   2.572 -1.0580 -0.7528 -2.6330
  724MOL0     H97734   1.393   2.250   2.593  2.0934 -0.2806  3.5277
  724MOL0     H97735   1.302   2.170   2.731 -0.3249  0.8603 -0.4977
  724MOL0     H97736   1.120   2.363   2.681 -0.5500 -1.3385  0.0998
  724MOL0     H97737   1.247   2.408   2.558  0.9540 -2.6886 -0.4392
  724MOL0     H97738   1.364   2.573   2.917  4.5791 -2.1833  0.0508
  724MOL0     H97739   1.066   2.291   2.182  2.6189  2.7160  0.3962
  724MOL0     H97740   1.046   2.342   1.955 -1.8969 -0.7358  1.5733
  725MOL0     O97741   2.956   8.785   6.030 -0.3915  0.2801 -1.2505
  725MOL0     C97742   2.848   8.840   6.008  0.1026  0.0847 -0.0005
  725MOL0     O97743   2.777   8.832   5.887  0.5219  0.0512  0.7237
  725MOL0     C97744   2.823   8.741   5.791 -0.5895 -0.5851 -0.1205
  725MOL0     C97745   2.775   8.612   5.774  0.0240 -0.7073 -0.0403
  725MOL0     C97746   2.835   8.523   5.690  0.7251  0.2113  0.8028
  725MOL0     C97747   2.931   8.560   5.598 -1.4754  0.1687  0.1129
  725MOL0     O97748   2.993   8.473   5.501 -0.4059  0.5196 -0.0389
  725MOL0     C97749   2.945   8.345   5.467 -0.7395  0.6235  0.0120
  725MOL0     C97750   2.845   8.367   5.353 -0.7869 -0.8237  0.0401
  725MOL0     C97751   2.779   8.239   5.325  0.3303  1.1687  0.6323
  725MOL0     C97752   2.865   8.133   5.241 -0.1933 -0.7684 -0.0875
  725MOL0     C97753   2.791   8.000   5.225  0.2171  0.1554  0.4654
  725MOL0     C97754   2.873   7.904   5.128 -0.6682 -0.3745 -0.7487
  725MOL0     C97755   2.814   7.761   5.130  0.2839 -0.3247 -0.0468
  725MOL0     C97756   2.678   7.780   5.074  0.3197  0.3702  0.3705
  725MOL0     N97757   2.637   7.653   5.017 -0.2080 -0.0645  0.1146
  725MOL0     C97758   2.636   7.639   4.882 -0.3175 -0.1489 -0.2588
  725MOL0     C97759   2.577   7.523   4.856  0.5069 -0.0807  0.3202
  725MOL0     C97760   2.571   7.454   4.729 -0.8740 -1.2724 -0.2986
  725MOL0     C97761   2.701   7.479   4.645  0.2301 -0.0482 -0.4993
  725MOL0     C97762   2.829   7.411   4.708 -1.5785 -0.0089  0.4616
  725MOL0     C97763   2.939   7.503   4.754 -0.2210 -0.5226 -0.2442
  725MOL0     O97764   3.066   7.439   4.800  0.5985 -0.5821  0.2729
  725MOL0     C97765   3.096   7.422   4.931 -0.3117 -0.0522  0.3017
  725MOL0     C97766   3.006   7.449   5.032  0.4429  1.0950 -0.2329
  725MOL0     C97767   3.035   7.425   5.164 -1.2376  0.7741  0.6138
  725MOL0     C97768   2.946   7.460   5.273 -0.0135 -0.0499  0.1215
  725MOL0     C97769   3.169   7.370   5.191  0.0153 -0.5241  0.8526
  725MOL0     C97770   3.220   7.343   5.324  0.3655  0.9044  0.7288
  725MOL0     O97771   3.353   7.351   5.344  0.2248 -0.7804 -0.1591
  725MOL0     C97772   3.419   7.355   5.462 -1.0969  0.1125 -0.2922
  725MOL0     C97773   3.395   7.447   5.557  0.0544 -0.6234 -1.0947
  725MOL0     C97774   3.455   7.450   5.687 -0.1750  0.3983 -0.3709
  725MOL0     C97775   3.551   7.349   5.716 -0.0749  0.5375 -0.1163
  725MOL0     O97776   3.603   7.342   5.845  0.9227 -0.0211  0.6045
  725MOL0     C97777   3.595   7.215   5.907 -0.8178  0.8196  0.0406
  725MOL0     C97778   3.572   7.245   6.048 -0.3814  0.6735 -0.8269
  725MOL0     C97779   3.690   7.340   6.110 -0.6170 -0.2271  0.3463
  725MOL0     C97780   3.635   7.405   6.239 -0.0662 -0.3734  0.0035
  725MOL0     C97781   3.731   7.513   6.283  0.0927 -0.9884 -0.9392
  725MOL0     C97782   3.678   7.581   6.414  0.3660 -0.0268 -0.4318
  725MOL0     C97783   3.755   7.716   6.420 -0.0344  0.5653 -0.9767
  725MOL0     C97784   3.725   7.802   6.533  0.9515 -0.3364  0.3881
  725MOL0    Cl97785   3.817   7.962   6.533 -0.0307  0.2070  0.1993
  725MOL0     C97786   3.580   7.246   5.616 -0.6687 -0.5606  0.4033
  725MOL0     C97787   3.514   7.253   5.489 -0.4913  0.3746 -0.1078
  725MOL0     O97788   3.134   7.311   5.401  0.9697  0.9226  0.6032
  725MOL0     C97789   3.257   7.347   5.086  0.6548  0.4051 -0.5268
  725MOL0     C97790   3.218   7.367   4.956 -0.5854  0.1404 -0.1168
  725MOL0     N97791   2.557   7.471   4.988  0.3457  0.5584  0.4618
  725MOL0     N97792   2.594   7.540   5.084 -0.0831  0.0007  0.0030
  725MOL0     C97793   2.987   8.687   5.610  0.0796 -0.0279  0.0240
  725MOL0     C97794   2.931   8.778   5.709 -0.3898  0.3828 -0.1764
  725MOL0     C97795   2.778   8.920   6.111 -0.4269 -0.7853  0.3222
  725MOL0     C97796   2.664   9.004   6.084 -0.5721  0.2746 -0.7268
  725MOL0     C97797   2.608   9.080   6.186 -0.2650 -0.3070  0.3506
  725MOL0     C97798   2.655   9.080   6.319 -1.1300  0.7428  1.0778
  725MOL0     O97799   2.588   9.147   6.413  0.0087  0.4287  0.0773
  725MOL0     C97800   2.558   9.062   6.528 -0.5710 -0.0086 -0.0875
  725MOL0     C97801   2.413   9.080   6.562  0.0500  0.0130  0.1903
  725MOL0     C97802   2.355   9.001   6.683  0.0126 -0.0826 -1.0282
  725MOL0     C97803   2.359   8.847   6.674  0.3328 -0.5864 -0.2643
  725MOL0     C97804   2.261   8.807   6.569 -1.0258 -1.0620  0.8487
  725MOL0     C97805   2.171   8.779   6.493 -0.8429 -0.3284  0.0300
  725MOL0     C97806   2.758   8.995   6.337 -0.2936  0.2565 -0.1096
  725MOL0     C97807   2.826   8.919   6.242  0.1627  0.9535 -0.8911
  725MOL0     H97808   2.690   8.575   5.831 -0.3047  1.7198  1.1816
  725MOL0     H97809   2.805   8.418   5.692 -1.2092  0.6203 -1.3227
  725MOL0     H97810   3.029   8.289   5.425 -1.5075 -0.5172 -0.0478
  725MOL0     H97811   2.907   8.293   5.556 -0.6792  0.3032 -0.1481
  725MOL0     H97812   2.777   8.449   5.378 -0.8179 -0.7818 -0.1716
  725MOL0     H97813   2.900   8.397   5.263  0.3914  0.9600  1.2840
  725MOL0     H97814   2.746   8.193   5.418 -0.3617 -0.2724 -0.2898
  725MOL0     H97815   2.692   8.258   5.260 -0.2127 -0.2898  0.8829
  725MOL0     H97816   2.878   8.164   5.137  0.0760  1.7055  0.6232
  725MOL0     H97817   2.963   8.129   5.290 -1.0782 -0.3403  1.8092
  725MOL0     H97818   2.773   7.960   5.325  0.7103  0.9515  0.8817
  725MOL0     H97819   2.694   8.026   5.183  0.4983 -1.2288 -1.1473
  725MOL0     H97820   2.878   7.933   5.023 -0.8146 -2.7944 -1.4947
  725MOL0     H97821   2.973   7.880   5.166 -0.2433 -0.7608 -2.0632
  725MOL0     H97822   2.876   7.695   5.069 -0.0264  0.0648 -0.7939
  725MOL0     H97823   2.821   7.720   5.231  4.0402  2.8815  1.2420
  725MOL0     H97824   2.674   7.851   4.991 -0.6039  0.9278  0.8692
  725MOL0     H97825   2.612   7.806   5.158  0.2398 -0.3788  0.5409
  725MOL0     H97826   2.663   7.716   4.810 -2.0587  0.3215 -0.4706
  725MOL0     H97827   2.569   7.346   4.746 -1.1781 -1.1004  0.7913
  725MOL0     H97828   2.482   7.487   4.673 -1.9210 -0.3157  1.8046
  725MOL0     H97829   2.713   7.588   4.639 -0.5850  0.3734  3.3183
  725MOL0     H97830   2.686   7.443   4.543  0.4819  0.7081 -0.8164
  725MOL0     H97831   2.871   7.346   4.631 -2.3779  1.0639 -0.9377
  725MOL0     H97832   2.798   7.352   4.795 -0.6768 -0.9926  0.1304
  725MOL0     H97833   2.904   7.575   4.830 -2.5296 -2.3265  0.5277
  725MOL0     H97834   2.957   7.564   4.665  0.5714 -1.9886 -1.1125
  725MOL0     H97835   2.905   7.483   5.012 -0.2553 -1.4059 -1.4041
  725MOL0     H97836   2.908   7.367   5.317 -0.7143  0.9173  1.6179
  725MOL0     H97837   2.988   7.519   5.355  2.1727  2.5332 -2.6175
  725MOL0     H97838   2.855   7.510   5.241 -2.0298 -3.3903  0.1039
  725MOL0     H97839   3.320   7.518   5.525 -2.6352 -2.9092 -0.2569
  725MOL0     H97840   3.420   7.509   5.771 -6.1812 -1.5226 -0.9872
  725MOL0     H97841   3.518   7.147   5.869 -0.1107  0.0232  0.0040
  725MOL0     H97842   3.677   7.145   5.892 -3.1056 -3.2584  4.0285
  725MOL0     H97843   3.476   7.297   6.053 -0.4081  0.8779 -2.7516
  725MOL0     H97844   3.570   7.153   6.107  0.9690  0.9754 -0.2705
  725MOL0     H97845   3.730   7.417   6.043 -0.4347  1.2656  2.0926
  725MOL0     H97846   3.780   7.279   6.120 -1.4965 -1.9727 -1.6342
  725MOL0     H97847   3.533   7.443   6.226 -0.6782 -0.9410  2.5238
  725MOL0     H97848   3.637   7.330   6.319  1.3540 -1.2828 -0.8426
  725MOL0     H97849   3.730   7.583   6.199  0.2550  0.4333  0.1981
  725MOL0     H97850   3.829   7.465   6.295  1.0172  0.9830 -0.0477
  725MOL0     H97851   3.574   7.602   6.388  0.0195  0.3829  1.1969
  725MOL0     H97852   3.683   7.525   6.508 -0.2592 -0.8311 -0.8656
  725MOL0     H97853   3.724   7.774   6.332 -4.8809  1.1033  0.7529
  725MOL0     H97854   3.858   7.681   6.427  0.3550  1.9461  4.4676
  725MOL0     H97855   3.743   7.749   6.627  2.6228 -2.1907 -0.9015
  725MOL0     H97856   3.619   7.824   6.548  0.5368 -0.5963 -1.8388
  725MOL0     H97857   3.659   7.176   5.639  1.9387  2.0967  0.2202
  725MOL0     H97858   3.525   7.184   5.405 -0.8003  0.1992 -0.0041
  725MOL0     H97859   3.359   7.316   5.106  0.0770 -1.2330  0.0394
  725MOL0     H97860   3.300   7.368   4.884 -1.7515  2.1344 -1.5363
  725MOL0     H97861   3.065   8.725   5.544  2.2871 -0.0573  2.4699
  725MOL0     H97862   2.967   8.880   5.718 -1.4439  0.8769 -1.2164
  725MOL0     H97863   2.617   8.997   5.986  0.0676  0.1110 -1.0282
  725MOL0     H97864   2.520   9.138   6.161  0.6508  0.5483 -1.0918
  725MOL0     H97865   2.576   8.955   6.511  0.0938 -0.0936  1.0497
  725MOL0     H97866   2.632   9.087   6.605  4.1712 -1.3156 -3.7593
  725MOL0     H97867   2.360   9.044   6.472  1.2871 -2.1510  0.2455
  725MOL0     H97868   2.404   9.188   6.576 -0.1002 -0.1644  1.5926
  725MOL0     H97869   2.259   9.048   6.704 -0.3002 -0.0481 -2.4149
  725MOL0     H97870   2.423   9.023   6.765  1.1806 -1.3581 -1.6075
  725MOL0     H97871   2.335   8.801   6.771 -4.1702  2.0258  0.1102
  725MOL0     H97872   2.456   8.804   6.645  1.1425  0.8586  0.2064
  725MOL0     H97873   2.086   8.769   6.429 -1.0254  1.4163 -0.0417
  725MOL0     H97874   2.798   9.003   6.437  1.0877  1.0557 -0.6870
  725MOL0     H97875   2.909   8.857   6.275  0.2613  1.6678  0.2738
  726MOL0     O97876  10.390   6.931   4.197  0.4080  0.2932  0.0543
  726MOL0     C97877  10.355   6.892   4.307  0.0831 -0.8772 -0.1226
  726MOL0     O97878  10.240   6.831   4.343 -0.0606 -0.6111  0.1106
  726MOL0     C97879  10.136   6.805   4.252  0.0339  0.2746 -1.4365
  726MOL0     C97880  10.163   6.756   4.121 -0.9484 -0.7147 -0.2445
  726MOL0     C97881  10.054   6.725   4.038 -0.0297  1.4424  0.1667
  726MOL0     C97882   9.924   6.730   4.079  0.3387 -1.0982  0.0157
  726MOL0     O97883   9.814   6.712   4.016  0.8545 -0.0765 -0.4609
  726MOL0     C97884   9.814   6.572   3.977 -0.7214 -0.2303  0.4328
  726MOL0     C97885   9.681   6.508   3.930 -0.1919 -0.3420  1.5049
  726MOL0     C97886   9.608   6.592   3.827  0.4577 -0.5980 -0.6873
  726MOL0     C97887   9.472   6.542   3.801 -0.2097 -0.4209  0.4248
  726MOL0     C97888   9.406   6.616   3.682 -0.0011  0.2969  1.1275
  726MOL0     C97889   9.272   6.547   3.664  0.9872  0.4340 -0.1628
  726MOL0     C97890   9.174   6.552   3.783  0.8059 -0.2512 -0.6161
  726MOL0     C97891   9.027   6.521   3.753  0.1159 -0.1815 -0.6758
  726MOL0     N97892   8.941   6.530   3.876 -0.2566  0.2576 -0.3111
  726MOL0     C97893   8.928   6.439   3.980 -0.0772 -0.3106  0.6900
  726MOL0     C97894   8.864   6.505   4.081  0.6701 -0.0957  0.0395
  726MOL0     C97895   8.832   6.442   4.212 -0.2045 -0.4138 -0.1789
  726MOL0     C97896   8.700   6.492   4.264  1.1431  0.1672  0.2323
  726MOL0     C97897   8.695   6.491   4.421  0.5132  0.1170  0.8520
  726MOL0     C97898   8.560   6.521   4.478 -0.7716 -0.5028 -0.4658
  726MOL0     O97899   8.462   6.438   4.420  0.6495  0.2437 -0.2658
  726MOL0     C97900   8.372   6.373   4.498 -0.1549  0.1895  1.4830
  726MOL0     C97901   8.335   6.233   4.477 -0.4199  1.4827 -0.7759
  726MOL0     C97902   8.240   6.161   4.546  0.0466 -0.0046  0.1868
  726MOL0     C97903   8.206   6.026   4.494 -0.1078 -0.5790 -0.3514
  726MOL0     C97904   8.187   6.216   4.662 -0.4044  0.0019 -0.0019
  726MOL0     C97905   8.084   6.151   4.751  0.8993  0.2870  0.7241
  726MOL0     O97906   8.076   6.207   4.871 -0.0692  0.4556  0.4789
  726MOL0     C97907   7.980   6.160   4.952 -0.1822 -0.7502 -0.3663
  726MOL0     C97908   7.842   6.185   4.925 -0.4533  1.2633  0.9176
  726MOL0     C97909   7.749   6.139   5.022  0.3301  0.9387  0.5956
  726MOL0     C97910   7.783   6.088   5.148  0.3268  0.5068  0.1529
  726MOL0     O97911   7.683   6.063   5.243 -0.3798  0.1643 -1.0320
  726MOL0     C97912   7.707   5.962   5.346  0.0312 -0.0378  0.4455
  726MOL0     C97913   7.671   6.032   5.487 -0.2471  0.3990  2.0574
  726MOL0     C97914   7.568   6.138   5.477 -0.5025  0.5751  0.0236
  726MOL0     C97915   7.494   6.182   5.605  0.2778  1.0323 -0.8781
  726MOL0     C97916   7.374   6.273   5.575 -0.2196 -0.2571  0.1249
  726MOL0     C97917   7.343   6.363   5.694  0.0132  0.1397  0.5134
  726MOL0     C97918   7.262   6.287   5.797 -0.3188  1.0882 -0.2633
  726MOL0     C97919   7.266   6.355   5.938 -0.2425 -1.6931  0.6952
  726MOL0    Cl97920   7.416   6.340   6.013 -0.3375  0.0497 -0.2175
  726MOL0     C97921   7.923   6.077   5.171 -0.2600  0.3612 -0.2249
  726MOL0     C97922   8.016   6.104   5.071 -0.8198  0.2344  0.4604
  726MOL0     O97923   8.009   6.057   4.711  0.2101 -0.7147 -0.5862
  726MOL0     C97924   8.236   6.342   4.700  0.1214  0.9612 -0.4020
  726MOL0     C97925   8.318   6.421   4.614 -0.2579 -0.2699 -0.4778
  726MOL0     N97926   8.836   6.627   4.023  0.4866 -0.5507 -0.4191
  726MOL0     N97927   8.882   6.642   3.901 -0.1862 -0.3754 -0.1399
  726MOL0     C97928   9.909   6.776   4.213 -0.2379 -0.5618  0.1755
  726MOL0     C97929  10.008   6.824   4.300 -0.0856 -0.9281 -0.1731
  726MOL0     C97930  10.458   6.879   4.410 -0.4036 -0.5783 -0.9917
  726MOL0     C97931  10.593   6.908   4.374 -0.0859 -0.3802  0.3460
  726MOL0     C97932  10.692   6.911   4.467  0.2814  0.1193 -0.4192
  726MOL0     C97933  10.664   6.888   4.600 -0.2189  0.5255 -0.0021
  726MOL0     O97934  10.759   6.881   4.705 -0.1180 -0.0233 -0.2108
  726MOL0     C97935  10.875   6.963   4.688  0.0604  0.1628  0.8014
  726MOL0     C97936  10.959   6.971   4.816  0.7938  0.4949  0.0207
  726MOL0     C97937  11.089   7.042   4.795 -0.3645 -0.3735  0.4952
  726MOL0     C97938  11.190   6.995   4.906 -0.0674 -0.4895  0.5930
  726MOL0     C97939  11.164   7.009   5.052  0.3205 -0.6199  0.2584
  726MOL0     C97940  11.125   7.021   5.164 -0.6057 -0.1783  0.1245
  726MOL0     C97941  10.535   6.850   4.639  0.4662  0.4622 -1.0431
  726MOL0     C97942  10.431   6.850   4.548 -0.4065 -0.0275  0.3290
  726MOL0     H97943  10.259   6.740   4.074 -0.5249 -2.2556  1.0440
  726MOL0     H97944  10.055   6.697   3.933 -0.4003  1.8326  0.0607
  726MOL0     H97945   9.887   6.557   3.896 -0.2574 -1.6272  1.0734
  726MOL0     H97946   9.844   6.500   4.054 -3.9942 -0.8337  1.3084
  726MOL0     H97947   9.709   6.412   3.887  2.4042  1.3381 -1.0007
  726MOL0     H97948   9.612   6.499   4.014 -0.5946 -0.3151  1.1821
  726MOL0     H97949   9.588   6.694   3.862 -3.5896 -0.9061 -1.5463
  726MOL0     H97950   9.679   6.601   3.744  0.5425  2.1666 -0.4173
  726MOL0     H97951   9.474   6.434   3.784 -1.7120 -0.3945 -0.1392
  726MOL0     H97952   9.408   6.573   3.885 -1.5131  2.3886 -1.4267
  726MOL0     H97953   9.394   6.721   3.709  1.7043  0.3766  1.6821
  726MOL0     H97954   9.468   6.607   3.592 -0.8037  1.3536  0.4436
  726MOL0     H97955   9.221   6.592   3.578 -0.0795  0.8439  0.6638
  726MOL0     H97956   9.281   6.442   3.635 -1.5377 -0.4175  1.8336
  726MOL0     H97957   9.202   6.483   3.863 -2.4194  0.6785  1.5353
  726MOL0     H97958   9.165   6.656   3.817  0.8517 -1.0699  2.1538
  726MOL0     H97959   9.007   6.425   3.704  0.0780 -2.7278  3.7737
  726MOL0     H97960   8.992   6.605   3.693  2.8078  2.7797  1.5053
  726MOL0     H97961   8.968   6.339   3.990 -4.2722 -2.7351 -3.2175
  726MOL0     H97962   8.842   6.334   4.199  0.0701 -0.2962 -1.0720
  726MOL0     H97963   8.913   6.476   4.277 -0.6554  1.2974 -0.4685
  726MOL0     H97964   8.621   6.430   4.222 -0.9745  0.9319  2.8589
  726MOL0     H97965   8.682   6.593   4.226  0.1170 -0.1982 -0.2870
  726MOL0     H97966   8.761   6.575   4.442  2.0526 -0.5388 -1.0721
  726MOL0     H97967   8.737   6.394   4.450 -0.7925 -1.7879 -3.0254
  726MOL0     H97968   8.534   6.625   4.457  0.5686 -0.5624 -2.7048
  726MOL0     H97969   8.567   6.502   4.585 -0.7282  2.2546  0.0877
  726MOL0     H97970   8.387   6.179   4.398 -3.3754 -0.3204 -1.6189
  726MOL0     H97971   8.284   5.983   4.430  0.7753 -0.4567  0.6082
  726MOL0     H97972   8.200   5.963   4.583  1.0092 -0.7488 -0.3803
  726MOL0     H97973   8.106   6.034   4.450 -0.7208 -0.0576  1.0990
  726MOL0     H97974   7.806   6.239   4.838  0.6756 -1.5163 -1.4446
  726MOL0     H97975   7.644   6.156   5.002  0.8871 -0.2111 -5.3340
  726MOL0     H97976   7.636   5.883   5.318  2.5193 -1.2954 -2.9889
  726MOL0     H97977   7.804   5.912   5.354  0.8695  1.8061  3.0022
  726MOL0     H97978   7.649   5.954   5.560  2.1288 -3.3519 -0.8114
  726MOL0     H97979   7.757   6.083   5.532  1.8429 -1.1360  0.0828
  726MOL0     H97980   7.493   6.094   5.411  2.0966  1.4660 -3.8568
  726MOL0     H97981   7.612   6.229   5.434  0.1851  1.0469  1.6147
  726MOL0     H97982   7.461   6.090   5.655 -1.1972  0.1944 -3.1819
  726MOL0     H97983   7.568   6.227   5.670  1.7282 -0.5762 -1.3443
  726MOL0     H97984   7.287   6.212   5.552 -1.1678  1.0565  0.1373
  726MOL0     H97985   7.395   6.334   5.487  2.9134 -0.1434  0.8261
  726MOL0     H97986   7.434   6.411   5.730 -0.2098  2.5316 -1.8541
  726MOL0     H97987   7.285   6.450   5.662 -0.1444  0.4625  1.6186
  726MOL0     H97988   7.301   6.185   5.802 -3.2623 -0.0849  1.9249
  726MOL0     H97989   7.156   6.286   5.769 -0.8145  7.4629 -0.0379
  726MOL0     H97990   7.187   6.303   5.994  2.5492 -4.7119  2.1666
  726MOL0     H97991   7.246   6.463   5.932 -0.9306 -1.8697 -1.1969
  726MOL0     H97992   7.965   6.050   5.267 -1.2247  0.6399  0.2877
  726MOL0     H97993   8.121   6.094   5.096 -0.7940 -0.0464  0.2347
  726MOL0     H97994   8.212   6.389   4.795 -0.5522  2.1100 -1.1196
  726MOL0     H97995   8.343   6.521   4.647  3.4135 -1.3850  0.7241
  726MOL0     H97996   9.809   6.789   4.254 -0.3194  4.0684 -0.8846
  726MOL0     H97997   9.980   6.848   4.402  3.0203 -0.3375  0.6364
  726MOL0     H97998  10.625   6.933   4.273  2.5304 -0.3541  1.1160
  726MOL0     H97999  10.789   6.951   4.441  0.1555  1.0942  0.5555
  726MOL0     H98000  10.936   6.925   4.606  1.2424 -0.5195  1.9469
  726MOL0     H98001  10.845   7.062   4.654  3.0385  0.7627 -0.3335
  726MOL0     H98002  10.975   6.873   4.863 -0.4218  2.1685  4.4274
  726MOL0     H98003  10.900   7.020   4.895  2.8002 -0.6483  2.3620
  726MOL0     H98004  11.081   7.151   4.801  0.0948 -0.3830  1.4535
  726MOL0     H98005  11.126   7.017   4.695  2.9205 -1.7225  1.9329
  726MOL0     H98006  11.282   7.052   4.896 -0.2537  0.1903  2.3947
  726MOL0     H98007  11.213   6.889   4.890  2.8536 -0.0054  1.1109
  726MOL0     H98008  11.077   7.007   5.258  0.8850  2.7152  1.4315
  726MOL0     H98009  10.499   6.822   4.738 -1.3959  0.3660 -1.7064
  726MOL0     H98010  10.333   6.832   4.589  0.3682  2.9083  4.0229
  727MOL0     O98011   7.686   2.966   5.996 -0.0017 -0.4136 -0.3203
  727MOL0     C98012   7.567   2.994   5.979 -1.0978 -0.9078  0.5970
  727MOL0     O98013   7.467   2.899   5.946  0.0082 -0.1308 -0.1397
  727MOL0     C98014   7.511   2.778   5.944  0.6929  0.8094  0.1367
  727MOL0     C98015   7.513   2.716   5.815  0.7447 -0.1220  0.2544
  727MOL0     C98016   7.528   2.578   5.790 -1.1210 -0.5274  0.0906
  727MOL0     C98017   7.560   2.497   5.902  0.4976  0.2323  0.8983
  727MOL0     O98018   7.595   2.372   5.866  0.2349 -0.3264 -0.1302
  727MOL0     C98019   7.646   2.285   5.971  0.0398 -0.2961 -0.2748
  727MOL0     C98020   7.696   2.162   5.888  0.8429  0.0101  0.3186
  727MOL0     C98021   7.813   2.191   5.785  0.1318  1.3121 -0.0308
  727MOL0     C98022   7.831   2.064   5.699 -0.4113 -0.4961 -0.2811
  727MOL0     C98023   7.979   2.035   5.674  0.3813  0.1496  1.0165
  727MOL0     C98024   8.052   2.151   5.601  0.4130  0.5480 -0.4127
  727MOL0     C98025   8.192   2.124   5.554 -0.5112 -0.3277  0.2543
  727MOL0     C98026   8.205   2.050   5.418 -0.0487 -0.1704  0.3582
  727MOL0     N98027   8.195   1.906   5.433  0.2318  0.3631  0.2163
  727MOL0     C98028   8.212   1.825   5.320 -0.1251 -0.4538 -0.0361
  727MOL0     C98029   8.258   1.708   5.366 -0.2834  0.7830 -0.2796
  727MOL0     C98030   8.293   1.584   5.280 -0.1025  0.1571 -0.0052
  727MOL0     C98031   8.205   1.457   5.315  1.0317 -0.0400 -0.0677
  727MOL0     C98032   8.208   1.360   5.205 -0.3959  0.7941 -0.5564
  727MOL0     C98033   8.104   1.254   5.218 -0.8123  0.8784  0.9364
  727MOL0     O98034   8.064   1.205   5.085 -0.5605  0.1521 -0.1346
  727MOL0     C98035   8.108   1.082   5.047 -0.0533 -0.3237 -0.8051
  727MOL0     C98036   8.015   0.976   5.024  0.7390  0.2269  0.7071
  727MOL0     C98037   8.060   0.847   4.971  0.5609  0.1887  0.4982
  727MOL0     C98038   7.965   0.728   4.959  0.7452 -0.5317 -0.0199
  727MOL0     C98039   8.188   0.850   4.909  0.7669 -0.0800 -0.5598
  727MOL0     C98040   8.240   0.737   4.820  0.0933  0.8618 -0.6607
  727MOL0     O98041   8.186   0.699   4.696  0.0972 -0.1533  0.0852
  727MOL0     C98042   8.203   0.575   4.648  0.5110 -0.4161 -0.8682
  727MOL0     C98043   8.089   0.496   4.638 -0.3004 -0.5838  0.7220
  727MOL0     C98044   8.096   0.370   4.570  0.0264  0.7238 -0.1292
  727MOL0     C98045   8.220   0.336   4.506 -0.1232  0.0701  0.4756
  727MOL0     O98046   8.246   0.210   4.445 -0.8310 -0.1334 -0.5810
  727MOL0     C98047   8.149   0.112   4.447  0.5849  0.4864 -1.1746
  727MOL0     C98048   8.207  -0.024   4.413 -0.5374 -0.4401 -0.4001
  727MOL0     C98049   8.136  -0.152   4.449  0.4749  0.0631 -0.0106
  727MOL0     C98050   8.192  -0.284   4.381  0.7672 -0.3521 -1.1402
  727MOL0     C98051   8.158  -0.403   4.463 -1.3420 -0.7770  0.1691
  727MOL0     C98052   8.001  -0.436   4.470 -0.5686 -0.3410  0.3062
  727MOL0     C98053   7.966  -0.551   4.563 -0.0911 -0.1145 -0.4706
  727MOL0     C98054   8.058  -0.682   4.558 -0.1370 -0.3272 -0.2855
  727MOL0    Cl98055   8.043  -0.749   4.725  0.0397 -0.1496 -0.5329
  727MOL0     C98056   8.333   0.419   4.523  0.1634  0.3831 -0.1041
  727MOL0     C98057   8.327   0.537   4.589 -0.2464 -0.3684 -0.4326
  727MOL0     O98058   8.345   0.682   4.865 -0.1170  0.5838  0.3093
  727MOL0     C98059   8.269   0.968   4.924 -0.2752 -0.3631  0.8147
  727MOL0     C98060   8.235   1.074   4.991 -0.0917 -1.2591  0.0198
  727MOL0     N98061   8.273   1.717   5.506 -0.1593 -0.1118  0.0383
  727MOL0     N98062   8.234   1.834   5.541 -0.6605  0.5586  0.3412
  727MOL0     C98063   7.557   2.552   6.034 -0.3996 -0.1096 -0.2290
  727MOL0     C98064   7.528   2.690   6.054  0.7729  0.5189 -0.3844
  727MOL0     C98065   7.527   3.138   6.005 -0.3791  0.2850  0.5176
  727MOL0     C98066   7.400   3.175   5.963  0.2403 -0.2144  0.4690
  727MOL0     C98067   7.352   3.295   6.015  0.9162  0.3699  0.8238
  727MOL0     C98068   7.439   3.388   6.071  0.6893  0.1204 -0.9119
  727MOL0     O98069   7.379   3.513   6.092  0.4197 -0.4177  0.1528
  727MOL0     C98070   7.460   3.632   6.109  0.6678  1.0419  0.9803
  727MOL0     C98071   7.479   3.646   6.257 -0.1808  0.6707 -1.6011
  727MOL0     C98072   7.372   3.721   6.329 -0.3041 -0.1928  1.0044
  727MOL0     C98073   7.360   3.869   6.286  0.5492 -0.5962  0.1233
  727MOL0     C98074   7.338   3.960   6.404 -0.3072 -0.3137  0.2492
  727MOL0     C98075   7.321   4.027   6.503 -0.3917  0.1493  1.4443
  727MOL0     C98076   7.570   3.355   6.089 -0.0224 -0.1400  0.3618
  727MOL0     C98077   7.620   3.227   6.056 -0.3017 -0.0930 -0.6860
  727MOL0     H98078   7.481   2.763   5.722  2.3646 -0.1655 -0.3492
  727MOL0     H98079   7.522   2.532   5.692 -2.9765  1.9915 -1.1033
  727MOL0     H98080   7.724   2.326   6.037  0.7832  0.1036 -1.3601
  727MOL0     H98081   7.560   2.256   6.031  0.2340 -2.8290 -1.1096
  727MOL0     H98082   7.736   2.101   5.969 -2.9045 -0.2795  2.1309
  727MOL0     H98083   7.613   2.116   5.834  1.1110  0.2986 -0.3527
  727MOL0     H98084   7.793   2.276   5.720 -0.1659  0.0029 -1.7218
  727MOL0     H98085   7.900   2.227   5.841  2.4258  0.3435 -2.7282
  727MOL0     H98086   7.791   1.976   5.751 -1.4634  0.1004 -0.0574
  727MOL0     H98087   7.775   2.075   5.606  0.0935 -2.1136 -0.8021
  727MOL0     H98088   8.028   2.006   5.767  0.4567  3.3513  2.0867
  727MOL0     H98089   7.991   1.947   5.609  0.2324  0.9666 -0.1518
  727MOL0     H98090   7.976   2.189   5.531 -3.1418 -1.2021  2.1526
  727MOL0     H98091   8.069   2.226   5.678  2.8465  0.4548 -0.7857
  727MOL0     H98092   8.248   2.218   5.552 -3.4109  1.5178  0.5710
  727MOL0     H98093   8.244   2.062   5.627 -0.3139 -0.8036 -0.2796
  727MOL0     H98094   8.301   2.084   5.377 -0.6004  2.4020  1.0026
  727MOL0     H98095   8.135   2.086   5.342 -0.3829 -0.3237  0.5889
  727MOL0     H98096   8.197   1.842   5.214  1.2676 -0.5987 -0.2796
  727MOL0     H98097   8.272   1.615   5.178 -1.9080  0.6440  0.4724
  727MOL0     H98098   8.399   1.570   5.304  0.6666 -0.0102 -3.0866
  727MOL0     H98099   8.097   1.478   5.316  0.8950 -0.6637 -0.8488
  727MOL0     H98100   8.247   1.404   5.401  3.1219 -0.6402 -1.3881
  727MOL0     H98101   8.301   1.307   5.182 -2.2655 -3.6019  0.9313
  727MOL0     H98102   8.173   1.413   5.116 -2.7957 -0.2289 -0.3109
  727MOL0     H98103   8.007   1.285   5.260 -1.9749 -0.3741 -0.6864
  727MOL0     H98104   8.139   1.170   5.279  2.3419  1.6315  0.2858
  727MOL0     H98105   7.911   0.975   5.053  0.4802 -3.4471  0.0954
  727MOL0     H98106   7.965   0.659   5.044 -1.4331 -1.6918 -0.8903
  727MOL0     H98107   7.866   0.773   4.953  0.7479 -0.3906  0.8299
  727MOL0     H98108   7.989   0.678   4.865  1.3718 -2.4458  1.0990
  727MOL0     H98109   7.993   0.543   4.659 -0.8190 -0.3451 -1.9090
  727MOL0     H98110   8.005   0.314   4.552  0.3145  0.2654 -0.1873
  727MOL0     H98111   8.100   0.094   4.543  2.3352  2.2073  0.0995
  727MOL0     H98112   8.075   0.134   4.370  2.1082  0.4692 -2.7014
  727MOL0     H98113   8.229  -0.029   4.306 -0.1283 -3.8582 -0.2529
  727MOL0     H98114   8.309  -0.029   4.454 -0.7236 -0.4772  0.0678
  727MOL0     H98115   8.034  -0.148   4.411  0.5503 -1.2766 -0.4154
  727MOL0     H98116   8.118  -0.170   4.556 -2.5943  1.6391 -0.1574
  727MOL0     H98117   8.140  -0.305   4.287  2.7488  0.1833 -2.4006
  727MOL0     H98118   8.301  -0.285   4.374  1.0909 -2.0524  2.1287
  727MOL0     H98119   8.186  -0.391   4.568 -2.4056  1.6267  0.2363
  727MOL0     H98120   8.210  -0.487   4.417  1.6227  1.3398 -0.6370
  727MOL0     H98121   7.948  -0.344   4.496  3.0050  2.6561 -2.0401
  727MOL0     H98122   7.972  -0.458   4.367  1.2848 -1.6410  0.0102
  727MOL0     H98123   7.861  -0.577   4.549 -0.3396  1.1965 -1.2569
  727MOL0     H98124   7.986  -0.506   4.662 -1.0836 -0.5647 -0.0524
  727MOL0     H98125   8.165  -0.663   4.545  0.6588 -2.1990  2.4985
  727MOL0     H98126   8.014  -0.753   4.488  1.1181 -2.6198  1.1101
  727MOL0     H98127   8.424   0.376   4.484 -0.1844 -0.0039 -0.5044
  727MOL0     H98128   8.407   0.607   4.607 -2.6947  2.2439  1.2406
  727MOL0     H98129   8.364   0.951   4.873 -2.0614 -2.5486 -2.1233
  727MOL0     H98130   8.309   1.154   4.993  0.4009 -1.3990 -3.9171
  727MOL0     H98131   7.570   2.491   6.123  1.5633  0.1072 -0.3176
  727MOL0     H98132   7.534   2.732   6.154 -2.7220 -1.1954  0.7256
  727MOL0     H98133   7.334   3.103   5.917  2.0105 -0.8477 -1.1890
  727MOL0     H98134   7.246   3.319   6.011  0.3068 -2.2304 -1.0562
  727MOL0     H98135   7.556   3.618   6.059  1.6150  0.0360  2.9712
  727MOL0     H98136   7.407   3.718   6.068  0.7822  0.5813 -0.1842
  727MOL0     H98137   7.576   3.695   6.267  2.2213 -3.7757 -0.5702
  727MOL0     H98138   7.489   3.550   6.308 -2.5846 -0.0049 -2.2613
  727MOL0     H98139   7.389   3.719   6.438 -2.2451 -0.1311  1.3310
  727MOL0     H98140   7.273   3.674   6.328 -1.5671  2.0432  4.4719
  727MOL0     H98141   7.289   3.883   6.203 -2.4542  0.0940  2.5874
  727MOL0     H98142   7.458   3.901   6.251  0.6544  0.8775  1.6433
  727MOL0     H98143   7.314   4.087   6.592  0.6329 -1.8868  2.9714
  727MOL0     H98144   7.643   3.433   6.110 -0.8205  1.4546 -2.3868
  727MOL0     H98145   7.724   3.201   6.069 -0.1001 -1.7369 -4.3174
  728MOL0     O98146   3.471   0.582   8.548 -0.4145  0.3153 -0.6222
  728MOL0     C98147   3.506   0.648   8.640 -0.0858  0.1030 -0.6640
  728MOL0     O98148   3.435   0.659   8.760  0.2104 -0.4138  0.2544
  728MOL0     C98149   3.325   0.590   8.802  0.2236 -0.0828 -0.0679
  728MOL0     C98150   3.264   0.472   8.741  0.4092 -0.0496  0.1159
  728MOL0     C98151   3.163   0.400   8.802  0.3316 -0.8062 -1.0515
  728MOL0     C98152   3.122   0.431   8.923  1.1764  0.6555 -0.0609
  728MOL0     O98153   3.041   0.343   8.978  0.2982  0.3848 -0.3640
  728MOL0     C98154   3.007   0.362   9.114  0.0081 -0.1540  0.6957
  728MOL0     C98155   2.890   0.466   9.111 -0.6962  0.4658 -0.6456
  728MOL0     C98156   2.830   0.486   9.250 -0.4190 -1.6170 -1.0532
  728MOL0     C98157   2.899   0.603   9.333 -0.9923 -0.3938  0.9696
  728MOL0     C98158   2.857   0.599   9.482  0.0606  0.1385 -0.2572
  728MOL0     C98159   2.934   0.713   9.556  0.0524 -0.0979 -0.5860
  728MOL0     C98160   2.877   0.769   9.681 -0.2252  0.0063  0.2680
  728MOL0     C98161   2.967   0.881   9.743 -1.0124 -1.7171 -0.3202
  728MOL0     N98162   2.980   0.999   9.642 -0.3467 -0.6179 -0.1775
  728MOL0     C98163   2.904   1.106   9.612 -0.2297  0.0994 -0.2230
  728MOL0     C98164   2.961   1.182   9.522  0.0290 -0.4882  0.0495
  728MOL0     C98165   2.927   1.306   9.450 -0.5139  0.2689 -0.2063
  728MOL0     C98166   2.834   1.264   9.327  0.0374 -0.3060  0.2370
  728MOL0     C98167   2.756   1.383   9.263 -0.4012  0.1552 -0.6696
  728MOL0     C98168   2.652   1.455   9.343 -0.8904  0.7297 -0.3459
  728MOL0     O98169   2.546   1.365   9.384  0.1775 -0.1104 -0.6434
  728MOL0     C98170   2.426   1.421   9.419  0.4034 -0.3580  0.3339
  728MOL0     C98171   2.323   1.335   9.400  0.7487  0.5225 -0.8293
  728MOL0     C98172   2.189   1.382   9.391  0.0416  0.1786 -1.0625
  728MOL0     C98173   2.077   1.284   9.351 -0.6879  0.9171  0.8541
  728MOL0     C98174   2.165   1.519   9.413 -0.2781  0.1129 -1.2221
  728MOL0     C98175   2.032   1.584   9.412  0.2372 -0.2402  1.0793
  728MOL0     O98176   1.928   1.511   9.426  0.7533 -0.0693  0.4992
  728MOL0     C98177   1.801   1.566   9.433  0.9310 -0.8937 -0.6121
  728MOL0     C98178   1.719   1.555   9.549  0.3651  0.1785 -0.6060
  728MOL0     C98179   1.595   1.604   9.559 -0.0185 -0.8186  0.2115
  728MOL0     C98180   1.540   1.661   9.445  0.9959  0.5054 -0.2077
  728MOL0     O98181   1.400   1.680   9.427 -0.2526 -0.8728 -0.4127
  728MOL0     C98182   1.317   1.678   9.541  0.3962 -0.5381 -0.7181
  728MOL0     C98183   1.180   1.730   9.494 -0.5684 -0.5311  0.6928
  728MOL0     C98184   1.196   1.872   9.455  0.4796 -0.4667 -0.3062
  728MOL0     C98185   1.062   1.947   9.454 -0.5867 -0.9290  0.4765
  728MOL0     C98186   0.989   1.931   9.314  0.4034 -0.0226 -0.6345
  728MOL0     C98187   0.886   2.038   9.280 -0.3619 -0.0866  0.2282
  728MOL0     C98188   0.834   2.042   9.138  0.0244 -1.1282 -1.0421
  728MOL0     C98189   0.759   1.924   9.089  0.1764  0.9738 -0.4086
  728MOL0    Cl98190   0.637   1.879   9.201  0.0438  0.3272 -0.3507
  728MOL0     C98191   1.617   1.689   9.334 -0.8606 -0.2944 -0.5048
  728MOL0     C98192   1.744   1.638   9.325  0.2630 -0.3979  0.1287
  728MOL0     O98193   2.028   1.705   9.398 -0.1141  0.3297 -0.2818
  728MOL0     C98194   2.276   1.609   9.440 -0.8825  0.3213  0.1231
  728MOL0     C98195   2.402   1.558   9.444  0.1358  0.6128 -0.2732
  728MOL0     N98196   3.084   1.113   9.495  0.3397 -0.4510  0.4129
  728MOL0     N98197   3.082   1.006   9.557 -0.8417  0.5764 -0.5819
  728MOL0     C98198   3.169   0.549   8.989 -0.3163  0.0126 -0.0467
  728MOL0     C98199   3.269   0.625   8.921  0.6886  0.7741 -0.1582
  728MOL0     C98200   3.634   0.725   8.616 -0.2732 -0.2801 -0.3618
  728MOL0     C98201   3.711   0.721   8.503  1.2824 -1.2058  0.3585
  728MOL0     C98202   3.833   0.779   8.506  0.3756 -0.3073 -0.4043
  728MOL0     C98203   3.881   0.855   8.607 -0.3027  0.4824 -0.3655
  728MOL0     O98204   4.000   0.935   8.608 -0.1660  0.2138  0.3948
  728MOL0     C98205   4.094   0.919   8.504 -0.2331 -0.2778 -0.5299
  728MOL0     C98206   4.202   1.025   8.516 -0.1862  0.4952 -0.4365
  728MOL0     C98207   4.277   0.987   8.634 -0.3488 -0.5249  0.4640
  728MOL0     C98208   4.370   1.085   8.694 -0.5868  0.1630 -0.2939
  728MOL0     C98209   4.294   1.179   8.779  0.0338  0.2818 -0.6014
  728MOL0     C98210   4.250   1.259   8.849  0.6394 -0.1100 -0.4937
  728MOL0     C98211   3.805   0.869   8.712  0.0062 -0.8460 -0.3620
  728MOL0     C98212   3.690   0.797   8.723 -0.1095  1.2775 -0.3421
  728MOL0     H98213   3.288   0.439   8.640  3.3048 -0.8579  0.9734
  728MOL0     H98214   3.111   0.313   8.763 -2.5696 -0.5747  1.8532
  728MOL0     H98215   2.982   0.261   9.147  2.4336 -0.7894  0.7283
  728MOL0     H98216   3.098   0.393   9.165  0.4309  2.7343 -1.4980
  728MOL0     H98217   2.928   0.563   9.078  1.8923 -0.2463 -0.0026
  728MOL0     H98218   2.811   0.435   9.043 -0.3595 -0.9421 -0.4329
  728MOL0     H98219   2.722   0.497   9.247 -0.3433 -1.0056 -1.8053
  728MOL0     H98220   2.847   0.402   9.317 -1.3741 -0.7041  0.3898
  728MOL0     H98221   3.006   0.583   9.324 -0.3655  2.8060  0.1684
  728MOL0     H98222   2.869   0.702   9.298 -3.4123 -1.0531  1.0247
  728MOL0     H98223   2.752   0.628   9.484 -0.1932 -0.7461  2.0605
  728MOL0     H98224   2.860   0.504   9.536  0.0630  0.4110  0.2255
  728MOL0     H98225   3.035   0.676   9.574 -0.9448 -2.5552  0.3500
  728MOL0     H98226   2.939   0.799   9.488 -0.8987  0.0903 -0.4340
  728MOL0     H98227   2.779   0.811   9.660  0.8947  3.0906  0.6506
  728MOL0     H98228   2.862   0.687   9.752 -3.2167  2.2461  2.4859
  728MOL0     H98229   3.065   0.846   9.778  0.8217  3.9873  1.2885
  728MOL0     H98230   2.918   0.925   9.831  0.0189 -0.0628 -0.5340
  728MOL0     H98231   2.809   1.131   9.657 -2.0436 -2.7825 -2.1031
  728MOL0     H98232   2.873   1.383   9.505  1.7536  1.2467  0.7658
  728MOL0     H98233   3.016   1.357   9.413 -2.2633  4.2399  0.5124
  728MOL0     H98234   2.765   1.188   9.364 -1.6619  0.1214 -1.8631
  728MOL0     H98235   2.885   1.213   9.244 -2.4875 -0.7446 -1.1382
  728MOL0     H98236   2.715   1.353   9.167 -0.7989 -3.5440  0.4796
  728MOL0     H98237   2.839   1.449   9.237 -1.2733  0.2442 -3.6007
  728MOL0     H98238   2.603   1.529   9.279 -3.1211  0.0227  0.4283
  728MOL0     H98239   2.694   1.500   9.434 -1.6376 -0.1171  0.4452
  728MOL0     H98240   2.339   1.232   9.373 -1.2737 -0.0083 -0.2399
  728MOL0     H98241   2.019   1.267   9.442 -1.3084  1.9860  0.6800
  728MOL0     H98242   2.025   1.336   9.270  1.1317  1.7000  0.1341
  728MOL0     H98243   2.121   1.194   9.308 -1.4289  0.0821  1.8072
  728MOL0     H98244   1.761   1.512   9.639  1.7861  2.7882  0.0921
  728MOL0     H98245   1.530   1.586   9.644 -1.4504  1.6819 -0.2935
  728MOL0     H98246   1.298   1.576   9.576 -0.8994  0.3212  1.2575
  728MOL0     H98247   1.361   1.740   9.620 -0.2547  0.3648 -1.0463
  728MOL0     H98248   1.149   1.672   9.406  0.3771  3.1722 -2.3312
  728MOL0     H98249   1.110   1.732   9.578 -3.6042  4.7399 -1.4301
  728MOL0     H98250   1.237   1.891   9.356  2.7772  2.6983  1.0965
  728MOL0     H98251   1.258   1.920   9.531  0.8825  1.0191 -1.5414
  728MOL0     H98252   0.997   1.915   9.536 -1.5912 -1.5077 -0.5275
  728MOL0     H98253   1.095   2.051   9.462  2.9116 -2.0177  2.1436
  728MOL0     H98254   0.935   1.836   9.319 -0.0701  0.3214  2.0653
  728MOL0     H98255   1.061   1.939   9.231 -1.0339 -2.3849 -2.2362
  728MOL0     H98256   0.798   2.029   9.345 -2.4473  2.5708 -1.9984
  728MOL0     H98257   0.926   2.138   9.299 -0.6128  0.3631 -1.4562
  728MOL0     H98258   0.913   2.082   9.074 -1.3351  0.1350 -1.9927
  728MOL0     H98259   0.762   2.124   9.131  0.7774 -0.4751 -1.3233
  728MOL0     H98260   0.836   1.848   9.073 -0.7408  0.4296 -2.6253
  728MOL0     H98261   0.708   1.948   8.995 -2.5021 -1.8449  0.1935
  728MOL0     H98262   1.575   1.748   9.253 -2.6179  0.0991  0.6335
  728MOL0     H98263   1.797   1.639   9.230 -0.4367 -0.8901 -0.2720
  728MOL0     H98264   2.262   1.712   9.473  0.7808 -0.3225  3.1971
  728MOL0     H98265   2.474   1.637   9.463 -2.4378  2.7228  1.3986
  728MOL0     H98266   3.130   0.592   9.081  0.8243  0.1342  0.3920
  728MOL0     H98267   3.311   0.712   8.971  0.3129 -0.2837  2.1166
  728MOL0     H98268   3.687   0.651   8.423 -0.6845  1.0921 -1.2069
  728MOL0     H98269   3.897   0.757   8.421  0.3118 -0.8038 -0.3222
  728MOL0     H98270   4.140   0.820   8.505  2.7001  0.9661  1.3118
  728MOL0     H98271   4.044   0.936   8.408 -0.9996  0.5196 -0.0101
  728MOL0     H98272   4.147   1.117   8.538 -3.8096 -2.2944  4.1041
  728MOL0     H98273   4.259   1.020   8.423 -2.0360 -0.4982 -1.5727
  728MOL0     H98274   4.327   0.897   8.598  1.2598  0.2824  0.5878
  728MOL0     H98275   4.209   0.957   8.714 -1.5759  2.1584  0.5517
  728MOL0     H98276   4.413   1.145   8.613  1.5338 -1.6816 -0.6190
  728MOL0     H98277   4.451   1.035   8.747 -0.0558 -1.8692 -2.7797
  728MOL0     H98278   4.220   1.318   8.933  1.9089  0.5133 -0.4505
  728MOL0     H98279   3.840   0.933   8.792 -1.9838  0.6391 -0.5824
  728MOL0     H98280   3.632   0.796   8.814 -0.1764  0.8592 -0.3859
  729MOL0     O98281   4.824   8.355   9.196 -0.8523  0.8024 -0.0924
  729MOL0     C98282   4.866   8.265   9.112 -0.2570 -0.2088 -0.2052
  729MOL0     O98283   4.950   8.283   8.999  1.4133 -0.0285 -0.5326
  729MOL0     C98284   4.985   8.408   8.970 -0.3633 -0.1825  0.3363
  729MOL0     C98285   4.943   8.482   8.854 -0.6734 -0.6542  0.8296
  729MOL0     C98286   4.964   8.616   8.851 -0.1264  0.0745 -0.5335
  729MOL0     C98287   5.037   8.688   8.952 -1.0154 -0.3558  0.2316
  729MOL0     O98288   5.062   8.820   8.944  0.4820 -0.3490  0.4692
  729MOL0     C98289   4.941   8.894   8.950  0.4832 -0.6340 -0.7180
  729MOL0     C98290   4.940   9.047   8.978  0.2504  0.7459 -0.1067
  729MOL0     C98291   5.019   9.068   9.099  0.1471 -0.8329 -0.0920
  729MOL0     C98292   5.005   9.212   9.162 -0.1259 -0.5052  0.4990
  729MOL0     C98293   5.096   9.230   9.291  0.5725 -0.0530  0.2848
  729MOL0     C98294   5.238   9.277   9.273  0.0508  0.0313  0.2373
  729MOL0     C98295   5.335   9.188   9.193 -0.3496  0.6405 -0.9882
  729MOL0     C98296   5.484   9.228   9.207 -0.5986 -0.1782 -0.0254
  729MOL0     N98297   5.571   9.120   9.138  0.2580 -0.3702 -0.4101
  729MOL0     C98298   5.598   9.095   9.012 -0.7442  1.2387  1.4487
  729MOL0     C98299   5.703   9.004   9.010 -0.3950 -0.0730  0.3734
  729MOL0     C98300   5.767   8.939   8.894 -0.5973  0.1748 -1.1789
  729MOL0     C98301   5.822   8.794   8.929 -0.4959  0.0633 -0.6500
  729MOL0     C98302   5.956   8.811   8.996  1.0177  0.6201  0.0953
  729MOL0     C98303   6.074   8.847   8.892  0.5234  0.0345 -0.5390
  729MOL0     O98304   6.184   8.821   8.987 -0.2303 -0.3136  0.4377
  729MOL0     C98305   6.258   8.930   9.018  0.2279 -0.1922  0.1635
  729MOL0     C98306   6.329   8.924   9.131 -0.5298 -0.1800 -0.6286
  729MOL0     C98307   6.420   9.024   9.165  0.8240  0.4249 -0.9777
  729MOL0     C98308   6.484   9.000   9.305 -0.4633 -1.1018  0.1604
  729MOL0     C98309   6.443   9.139   9.085  0.0761 -0.5679 -0.0735
  729MOL0     C98310   6.535   9.253   9.124 -0.7348 -0.6687  0.2109
  729MOL0     O98311   6.610   9.313   9.025  0.4554  0.7351 -0.7067
  729MOL0     C98312   6.674   9.429   9.065  0.2216  0.1532  0.2083
  729MOL0     C98313   6.620   9.561   9.039  0.0944  1.6003  0.1817
  729MOL0     C98314   6.695   9.678   9.062 -0.7179  0.3608  0.4250
  729MOL0     C98315   6.823   9.665   9.111 -0.5879  0.9684  0.3627
  729MOL0     O98316   6.886   9.777   9.145  0.7485 -0.7296 -0.7948
  729MOL0     C98317   7.010   9.775   9.215  1.0547 -0.1936  0.0426
  729MOL0     C98318   7.067   9.910   9.192  0.5977 -0.4828 -0.2880
  729MOL0     C98319   7.191   9.907   9.278  0.3852 -0.0034 -0.6388
  729MOL0     C98320   7.286  10.011   9.223 -0.7817  0.8840  0.7251
  729MOL0     C98321   7.409  10.048   9.307  0.3188  0.0120 -0.2313
  729MOL0     C98322   7.478   9.918   9.357 -0.6213 -0.2453 -0.3939
  729MOL0     C98323   7.603   9.956   9.447 -0.8344 -0.0991  0.2559
  729MOL0     C98324   7.700   9.842   9.445  0.7185  0.2693 -0.4701
  729MOL0    Cl98325   7.791   9.838   9.296  0.0544  0.0159  0.4742
  729MOL0     C98326   6.881   9.533   9.132 -0.0783  0.4593 -0.3373
  729MOL0     C98327   6.807   9.423   9.106 -0.4085  0.0741 -0.6779
  729MOL0     O98328   6.547   9.280   9.244  0.5982  0.0699  0.3924
  729MOL0     C98329   6.383   9.140   8.958 -0.9894 -0.6171 -0.3065
  729MOL0     C98330   6.293   9.035   8.929 -0.7790 -0.6748  0.5280
  729MOL0     N98331   5.734   8.984   9.139 -0.5232  0.3688  0.0346
  729MOL0     N98332   5.663   9.058   9.217  0.6483  0.0247  0.4155
  729MOL0     C98333   5.085   8.614   9.057 -0.1876  0.7472 -0.7419
  729MOL0     C98334   5.065   8.477   9.059 -0.7188  0.0946 -0.1773
  729MOL0     C98335   4.823   8.129   9.144 -0.0202  0.6864  0.2186
  729MOL0     C98336   4.772   8.059   9.033 -0.0841 -0.2256  0.3176
  729MOL0     C98337   4.757   7.919   9.049  0.0422 -0.0346  0.1513
  729MOL0     C98338   4.769   7.845   9.172  0.0846 -0.2192  0.8072
  729MOL0     O98339   4.741   7.712   9.193 -0.0950 -0.3998 -0.1198
  729MOL0     C98340   4.660   7.649   9.099 -0.3139 -1.0266 -0.4515
  729MOL0     C98341   4.644   7.502   9.150  0.2776  0.3578  0.4994
  729MOL0     C98342   4.589   7.411   9.040 -1.4191 -1.0384 -0.1276
  729MOL0     C98343   4.595   7.267   9.080  0.1702 -0.2195 -0.3776
  729MOL0     C98344   4.580   7.180   8.964  0.4229  0.0585  0.8351
  729MOL0     C98345   4.574   7.105   8.869  0.1176  0.5355  0.7481
  729MOL0     C98346   4.795   7.933   9.285 -0.2283  0.2639 -0.1971
  729MOL0     C98347   4.830   8.066   9.265  0.7106  0.0731  0.5172
  729MOL0     H98348   4.891   8.421   8.781 -0.7923  2.3958 -1.8079
  729MOL0     H98349   4.937   8.671   8.761 -2.3859 -2.3824 -1.4917
  729MOL0     H98350   4.898   8.884   8.850 -0.6406 -2.6241 -0.0928
  729MOL0     H98351   4.869   8.845   9.016 -1.7304  1.2038 -1.6368
  729MOL0     H98352   4.961   9.104   8.887  2.5010  0.5924  0.2767
  729MOL0     H98353   4.834   9.073   8.992 -0.3366 -0.4856 -1.8174
  729MOL0     H98354   4.999   8.993   9.176  1.5075 -1.2263 -0.1017
  729MOL0     H98355   5.123   9.048   9.072  0.6138 -0.2586  1.1691
  729MOL0     H98356   5.020   9.281   9.078 -0.3740 -0.9707  0.0713
  729MOL0     H98357   4.900   9.223   9.190  0.1175  1.1509  0.8601
  729MOL0     H98358   5.042   9.295   9.360  6.7547  2.5424  3.4698
  729MOL0     H98359   5.108   9.125   9.321  1.8423 -1.3800 -4.0972
  729MOL0     H98360   5.232   9.376   9.226 -1.1098  0.7271  1.7412
  729MOL0     H98361   5.279   9.293   9.373  0.3103  0.3258  0.0858
  729MOL0     H98362   5.330   9.088   9.238  0.3777  1.1138  0.1762
  729MOL0     H98363   5.308   9.181   9.087  0.4168 -0.9587 -1.1101
  729MOL0     H98364   5.509   9.231   9.313 -1.1590 -1.6207  0.1747
  729MOL0     H98365   5.505   9.325   9.161  0.3747  0.3894  1.5328
  729MOL0     H98366   5.561   9.134   8.917  2.0875 -0.8092 -0.7030
  729MOL0     H98367   5.698   8.933   8.809 -0.0421  0.8430 -1.6940
  729MOL0     H98368   5.848   8.999   8.852  0.0136  0.8674  0.8999
  729MOL0     H98369   5.842   8.735   8.839  1.3416 -1.5297  0.7103
  729MOL0     H98370   5.758   8.738   8.999 -2.6105  0.2482 -2.3473
  729MOL0     H98371   5.985   8.713   9.036  0.1436  0.5388  0.5414
  729MOL0     H98372   5.945   8.883   9.078  0.4705  1.1110 -0.4068
  729MOL0     H98373   6.059   8.953   8.869  1.8927  0.9857  2.5271
  729MOL0     H98374   6.066   8.776   8.809 -0.4701 -0.3731 -0.1121
  729MOL0     H98375   6.304   8.844   9.200 -0.4662  2.0540  2.2111
  729MOL0     H98376   6.421   9.063   9.369 -2.2942  0.0983 -2.5613
  729MOL0     H98377   6.493   8.895   9.332 -0.8417 -1.4926 -1.1343
  729MOL0     H98378   6.582   9.047   9.297 -1.2652  0.5251 -0.8909
  729MOL0     H98379   6.519   9.573   9.002 -1.0519  2.1278  3.1595
  729MOL0     H98380   6.670   9.783   9.054 -1.0773  0.2133 -0.5191
  729MOL0     H98381   6.991   9.745   9.318 -1.4082 -0.0241 -0.3057
  729MOL0     H98382   7.076   9.700   9.169  0.4242 -1.7067  1.4990
  729MOL0     H98383   7.074   9.923   9.084 -0.3240  2.5458 -0.0636
  729MOL0     H98384   6.993   9.982   9.226 -0.2805 -1.2749 -0.4984
  729MOL0     H98385   7.244   9.812   9.270  1.1765 -0.0348  3.2570
  729MOL0     H98386   7.164   9.934   9.380 -2.9659  0.4086 -1.5144
  729MOL0     H98387   7.318   9.972   9.127 -4.3205 -1.3893  0.2593
  729MOL0     H98388   7.227  10.103   9.207  0.7713  2.1853  2.1035
  729MOL0     H98389   7.381  10.115   9.389  0.5079 -1.0277  0.6852
  729MOL0     H98390   7.478  10.100   9.240 -1.3166  0.9917 -1.2433
  729MOL0     H98391   7.404   9.860   9.413  1.6648 -3.5839 -0.5656
  729MOL0     H98392   7.510   9.858   9.272 -0.7713 -2.0746  0.7911
  729MOL0     H98393   7.556   9.957   9.545 -2.3675 -2.9935 -0.3465
  729MOL0     H98394   7.658  10.042   9.408  2.2325 -2.8822 -2.1938
  729MOL0     H98395   7.643   9.752   9.472  1.8519  0.2342  2.1080
  729MOL0     H98396   7.770   9.863   9.526 -0.3042  3.2726 -0.2621
  729MOL0     H98397   6.971   9.515   9.190 -0.9823  0.7102  1.2195
  729MOL0     H98398   6.851   9.325   9.123  0.5002  0.9838  3.2666
  729MOL0     H98399   6.405   9.225   8.893  1.7135  1.2222  2.6865
  729MOL0     H98400   6.248   9.030   8.830  1.4353 -2.4032 -0.4930
  729MOL0     H98401   5.143   8.662   9.135 -0.3599  1.5216 -1.0792
  729MOL0     H98402   5.101   8.432   9.151 -2.4450  0.8977  0.9588
  729MOL0     H98403   4.735   8.105   8.942 -0.0556  1.9467  1.3535
  729MOL0     H98404   4.741   7.874   8.952  2.8901  0.8477 -0.8162
  729MOL0     H98405   4.565   7.703   9.089  1.4285  2.3040 -0.1789
  729MOL0     H98406   4.707   7.652   9.001  1.6997 -1.4562  0.4599
  729MOL0     H98407   4.575   7.508   9.235  1.3659 -0.4447  1.4642
  729MOL0     H98408   4.745   7.471   9.177 -0.2526 -2.0482 -0.0065
  729MOL0     H98409   4.651   7.437   8.954  0.6184  0.9987  1.8270
  729MOL0     H98410   4.487   7.449   9.029 -0.1666  2.9449  0.5421
  729MOL0     H98411   4.525   7.247   9.162  0.2658  2.3141  0.3999
  729MOL0     H98412   4.697   7.249   9.117  1.3862 -0.5212 -3.5886
  729MOL0     H98413   4.550   7.037   8.790  1.6870 -3.8888  3.6879
  729MOL0     H98414   4.799   7.892   9.386 -0.8099  1.3739  0.2875
  729MOL0     H98415   4.844   8.132   9.350 -0.8656 -0.2995  1.1051
  730MOL0     O98416   7.975   5.202   0.836  0.5629 -0.5150  0.1701
  730MOL0     C98417   8.079   5.160   0.802  0.6091 -0.8398  0.4133
  730MOL0     O98418   8.113   5.032   0.802 -0.4893 -0.0630  0.4896
  730MOL0     C98419   8.024   4.928   0.812  0.0821  1.4791 -0.2255
  730MOL0     C98420   8.046   4.814   0.900 -0.8998 -0.4648  0.6888
  730MOL0     C98421   7.943   4.726   0.943 -0.9853 -0.0266  0.8104
  730MOL0     C98422   7.814   4.729   0.888  0.7742  0.2603  0.7121
  730MOL0     O98423   7.719   4.648   0.931 -0.1468  0.4017 -0.5395
  730MOL0     C98424   7.595   4.621   0.869 -0.4989 -0.6819  0.8251
  730MOL0     C98425   7.510   4.543   0.975  0.2366 -0.1106  1.0222
  730MOL0     C98426   7.375   4.502   0.918  0.5068 -0.1136  0.6603
  730MOL0     C98427   7.299   4.408   1.015 -0.7734  0.6449  0.3934
  730MOL0     C98428   7.162   4.379   0.955  0.1358 -0.3267  0.6706
  730MOL0     C98429   7.080   4.283   1.030 -0.6502 -0.1928 -0.6797
  730MOL0     C98430   6.972   4.346   1.113  0.2539  0.6726  0.4211
  730MOL0     C98431   6.902   4.242   1.206  0.3080  0.7024  0.1017
  730MOL0     N98432   6.792   4.299   1.282 -0.1312 -0.1116  0.1404
  730MOL0     C98433   6.670   4.238   1.316  0.7673  0.4849 -0.2727
  730MOL0     C98434   6.613   4.314   1.413  0.7652  0.5824  0.5213
  730MOL0     C98435   6.498   4.281   1.509 -0.6484 -0.0198 -0.2397
  730MOL0     C98436   6.367   4.271   1.427  0.3265 -0.3744  0.1955
  730MOL0     C98437   6.325   4.400   1.359  0.9217  0.4190  0.9761
  730MOL0     C98438   6.223   4.366   1.243  0.1609 -0.3072  0.6024
  730MOL0     O98439   6.100   4.311   1.297 -0.3396 -0.0409 -0.5850
  730MOL0     C98440   6.013   4.252   1.211  0.8421 -0.0492 -0.1477
  730MOL0     C98441   5.941   4.134   1.244 -0.9776 -0.0138  0.2528
  730MOL0     C98442   5.857   4.067   1.158  1.0370  0.4760 -0.2736
  730MOL0     C98443   5.799   3.933   1.202  0.2115  0.3385  0.1537
  730MOL0     C98444   5.836   4.116   1.028  0.3441 -0.0555 -1.1114
  730MOL0     C98445   5.737   4.069   0.931  0.1871  0.7500  0.4554
  730MOL0     O98446   5.685   3.945   0.944 -0.3111 -0.5532  0.0789
  730MOL0     C98447   5.588   3.899   0.858 -0.0832 -0.3991  0.3901
  730MOL0     C98448   5.480   3.830   0.904 -0.7677 -0.3480  0.3795
  730MOL0     C98449   5.384   3.779   0.817  0.2955  0.2807 -0.4432
  730MOL0     C98450   5.401   3.790   0.680 -0.8110  0.1446  0.0159
  730MOL0     O98451   5.306   3.735   0.599  0.3733  0.8958 -0.2044
  730MOL0     C98452   5.336   3.730   0.456  0.5942  0.1741  0.0288
  730MOL0     C98453   5.217   3.667   0.368 -0.4705 -0.2892  0.2569
  730MOL0     C98454   5.094   3.752   0.377  0.2784 -0.7126  0.0890
  730MOL0     C98455   4.994   3.726   0.266  0.4169  0.6503  1.2605
  730MOL0     C98456   4.873   3.821   0.281 -0.7161 -0.2799 -0.4210
  730MOL0     C98457   4.767   3.805   0.168 -0.6496 -0.0908  0.7509
  730MOL0     C98458   4.805   3.871   0.038 -0.2367 -0.0703  1.3531
  730MOL0     C98459   4.728   3.817  -0.080 -0.2250  1.0074 -0.0309
  730MOL0    Cl98460   4.747   3.904  -0.221  0.3262  0.0885  0.3885
  730MOL0     C98461   5.514   3.853   0.632 -0.4964  0.3520 -0.4856
  730MOL0     C98462   5.611   3.914   0.717  0.2032 -0.3612  0.6386
  730MOL0     O98463   5.695   4.147   0.850  0.8012 -0.0668  0.2397
  730MOL0     C98464   5.908   4.228   0.990 -0.4251 -0.5664  1.2267
  730MOL0     C98465   5.998   4.299   1.073 -0.7952 -0.0014  0.1514
  730MOL0     N98466   6.688   4.429   1.430  0.3080  0.0354  0.8488
  730MOL0     N98467   6.796   4.415   1.358 -0.8645  0.4510  0.5509
  730MOL0     C98468   7.793   4.830   0.796  0.3528  0.6028  0.3856
  730MOL0     C98469   7.892   4.928   0.759  0.2056  0.6114 -0.3935
  730MOL0     C98470   8.183   5.263   0.770  0.1943  0.5432 -0.8511
  730MOL0     C98471   8.184   5.400   0.814  0.5021  0.7811  0.4276
  730MOL0     C98472   8.276   5.496   0.767 -0.2646  0.7060 -0.2473
  730MOL0     C98473   8.383   5.453   0.692  0.4679 -0.0314  0.1221
  730MOL0     O98474   8.482   5.539   0.643  0.1216 -1.1165  0.8575
  730MOL0     C98475   8.514   5.658   0.715  0.5754  0.8877  0.9201
  730MOL0     C98476   8.618   5.732   0.632  0.4766  0.2695  0.7122
  730MOL0     C98477   8.628   5.878   0.686 -0.0035  1.0798 -0.0431
  730MOL0     C98478   8.667   5.874   0.836 -0.7703 -0.5054 -0.7466
  730MOL0     C98479   8.723   6.000   0.874 -0.0746 -0.4626  0.3432
  730MOL0     C98480   8.797   6.088   0.909  0.0886  0.8655 -1.2623
  730MOL0     C98481   8.379   5.319   0.645 -0.1589 -0.2346  0.5920
  730MOL0     C98482   8.285   5.223   0.687 -0.1565 -0.3104 -0.4309
  730MOL0     H98483   8.135   4.802   0.961 -0.8063  3.1569  1.4946
  730MOL0     H98484   7.967   4.659   1.025  0.0596 -2.2111 -1.1451
  730MOL0     H98485   7.551   4.719   0.851  2.5620  0.6259 -0.1325
  730MOL0     H98486   7.616   4.559   0.781 -1.8367 -0.9044  0.6507
  730MOL0     H98487   7.563   4.454   1.009  1.3669  0.0044 -0.3348
  730MOL0     H98488   7.493   4.607   1.062  3.1494 -0.4985  1.9741
  730MOL0     H98489   7.317   4.595   0.909  0.7137 -0.1129 -1.0323
  730MOL0     H98490   7.381   4.462   0.816 -0.5060  2.6769 -0.5987
  730MOL0     H98491   7.361   4.320   1.037 -4.3522 -2.1571  0.3366
  730MOL0     H98492   7.277   4.458   1.110 -1.7156 -1.2755  1.2467
  730MOL0     H98493   7.110   4.475   0.953  2.9115  1.3396 -2.4147
  730MOL0     H98494   7.148   4.343   0.853 -0.2717 -1.2861  1.0575
  730MOL0     H98495   7.040   4.205   0.964 -4.0625  2.5556 -2.1792
  730MOL0     H98496   7.148   4.236   1.102 -0.2891  3.5462  1.7122
  730MOL0     H98497   7.012   4.427   1.173  0.9568  0.3725  0.3590
  730MOL0     H98498   6.891   4.380   1.047  0.8030 -0.1423 -0.7272
  730MOL0     H98499   6.979   4.196   1.270  2.3954 -0.8253 -3.2086
  730MOL0     H98500   6.869   4.166   1.135  1.0125  1.0374 -0.6019
  730MOL0     H98501   6.634   4.142   1.281 -0.2274  1.3323 -1.6521
  730MOL0     H98502   6.515   4.184   1.557  0.5187  0.4077  0.2279
  730MOL0     H98503   6.471   4.359   1.582  0.2909 -0.6642  0.8369
  730MOL0     H98504   6.292   4.238   1.499 -0.0552  0.8483  0.3759
  730MOL0     H98505   6.385   4.194   1.351  2.0566 -1.0857  1.2719
  730MOL0     H98506   6.415   4.454   1.328 -0.8758  2.7865 -0.4486
  730MOL0     H98507   6.271   4.467   1.427  0.9031  1.9508 -0.4590
  730MOL0     H98508   6.268   4.310   1.160  3.4948  0.4640  1.7280
  730MOL0     H98509   6.216   4.462   1.192  1.5516 -1.2359 -1.4610
  730MOL0     H98510   5.960   4.100   1.346 -1.7816  0.2485  0.4919
  730MOL0     H98511   5.852   3.885   1.284 -0.5422 -3.1332 -1.1956
  730MOL0     H98512   5.699   3.945   1.245  0.5811  0.7023  0.9247
  730MOL0     H98513   5.784   3.852   1.130 -0.0332 -0.1715  0.7709
  730MOL0     H98514   5.470   3.811   1.010  0.3516  0.1081  0.5761
  730MOL0     H98515   5.295   3.720   0.837  0.3784 -0.7646 -2.7931
  730MOL0     H98516   5.351   3.834   0.425  0.5955  0.5769  1.3316
  730MOL0     H98517   5.427   3.676   0.432  2.8674  1.4614  4.6200
  730MOL0     H98518   5.240   3.675   0.261 -0.5426  0.7050  0.3146
  730MOL0     H98519   5.203   3.562   0.397  2.6067 -1.0315 -0.5623
  730MOL0     H98520   5.111   3.859   0.364  0.4316 -0.6167  1.0012
  730MOL0     H98521   5.037   3.732   0.468  0.3226  0.1729  0.3144
  730MOL0     H98522   5.028   3.740   0.163 -0.8796  2.9288  1.0850
  730MOL0     H98523   4.950   3.626   0.278 -1.2814  1.2996  0.6240
  730MOL0     H98524   4.915   3.921   0.279 -2.7923  0.6608 -0.0249
  730MOL0     H98525   4.825   3.794   0.376  0.9343 -0.8747  0.2857
  730MOL0     H98526   4.749   3.702   0.138 -3.2049  0.3680  0.4945
  730MOL0     H98527   4.668   3.837   0.204 -0.9700  0.0587 -0.2460
  730MOL0     H98528   4.913   3.867   0.017  0.1372  1.1839  2.8421
  730MOL0     H98529   4.770   3.973   0.054 -2.0741 -0.6130  0.9718
  730MOL0     H98530   4.621   3.804  -0.061  0.0417 -0.9448  0.3330
  730MOL0     H98531   4.765   3.715  -0.095 -0.7081  1.1184 -2.2281
  730MOL0     H98532   5.546   3.844   0.529 -1.3067  0.2649 -0.7330
  730MOL0     H98533   5.697   3.966   0.677 -0.7788 -0.8655 -2.3091
  730MOL0     H98534   5.892   4.266   0.890 -4.6931  0.4941  2.0904
  730MOL0     H98535   6.069   4.370   1.032 -0.2948  1.1922  2.8689
  730MOL0     H98536   7.704   4.848   0.737  1.8128  1.0756 -1.8252
  730MOL0     H98537   7.867   5.011   0.693  1.5211  2.4430  1.2985
  730MOL0     H98538   8.095   5.425   0.871 -0.9239  0.0484 -1.3792
  730MOL0     H98539   8.265   5.602   0.787 -1.1820  1.1156 -2.6396
  730MOL0     H98540   8.424   5.720   0.717 -1.2215 -1.3826 -1.6634
  730MOL0     H98541   8.536   5.629   0.819  1.8045  1.0856  0.7356
  730MOL0     H98542   8.588   5.734   0.527  0.2414 -2.2624  0.6755
  730MOL0     H98543   8.710   5.674   0.642 -0.5138 -1.6893 -0.8168
  730MOL0     H98544   8.535   5.933   0.676 -2.0243 -2.4495 -2.9174
  730MOL0     H98545   8.689   5.929   0.611  0.3586  0.1991 -0.3651
  730MOL0     H98546   8.734   5.791   0.863 -1.6961 -0.5166  1.7795
  730MOL0     H98547   8.577   5.856   0.896  0.3820  3.5087  2.6448
  730MOL0     H98548   8.887   6.137   0.940  0.4220 -1.7331  2.6006
  730MOL0     H98549   8.467   5.292   0.588 -2.0442  0.2366 -2.8087
  730MOL0     H98550   8.293   5.131   0.631 -0.1753 -0.5675 -0.0175
  731MOL0     O98551  11.004   8.077   9.431 -0.6059  0.0717 -0.0283
  731MOL0     C98552  10.973   8.125   9.321 -0.7688  0.8251  0.5278
  731MOL0     O98553  10.841   8.153   9.279 -0.3022  0.1058 -0.7629
  731MOL0     C98554  10.739   8.078   9.336  0.8187 -0.4268 -0.6700
  731MOL0     C98555  10.639   8.135   9.414  0.4551  0.7352  0.3038
  731MOL0     C98556  10.523   8.055   9.448  0.1501 -0.4670 -0.6713
  731MOL0     C98557  10.508   7.932   9.402  0.0219  0.2234 -0.3991
  731MOL0     O98558  10.401   7.865   9.443 -0.4550  0.3439  0.5568
  731MOL0     C98559  10.408   7.740   9.514 -0.8340 -0.0084 -0.1807
  731MOL0     C98560  10.418   7.768   9.660 -0.5375  0.3223  0.1347
  731MOL0     C98561  10.390   7.644   9.740  0.0485 -0.7092  0.2573
  731MOL0     C98562  10.486   7.625   9.862  0.0844 -0.6412  1.2993
  731MOL0     C98563  10.476   7.486   9.917 -0.2928 -0.3255  0.4395
  731MOL0     C98564  10.564   7.482  10.041  0.4967  0.3215  0.7897
  731MOL0     C98565  10.582   7.333  10.093 -0.0582  0.2993 -0.8916
  731MOL0     C98566  10.672   7.343  10.221  0.7418  0.7446 -0.0471
  731MOL0     N98567  10.804   7.289  10.182 -0.3179 -0.3642 -0.3806
  731MOL0     C98568  10.914   7.367  10.217 -1.1401  0.3596  0.6066
  731MOL0     C98569  11.019   7.288  10.175  0.2026  0.0583  0.4568
  731MOL0     C98570  11.166   7.328  10.183  0.5471 -0.2451  0.0931
  731MOL0     C98571  11.224   7.336  10.042 -1.1941  0.4129  0.3087
  731MOL0     C98572  11.386   7.362  10.026  0.3622 -0.4197  0.4364
  731MOL0     C98573  11.408   7.412   9.886  0.4354  0.2686 -0.7614
  731MOL0     O98574  11.315   7.512   9.838  0.1482 -0.3864 -0.1890
  731MOL0     C98575  11.354   7.639   9.796  0.4479  1.1915 -0.0884
  731MOL0     C98576  11.309   7.694   9.682  0.2043 -0.5538 -0.7841
  731MOL0     C98577  11.335   7.831   9.649  0.0095  0.0477 -0.6548
  731MOL0     C98578  11.289   7.880   9.517  0.7254  0.9299 -0.3509
  731MOL0     C98579  11.426   7.908   9.725 -0.9371  0.4824  0.4305
  731MOL0     C98580  11.463   8.041   9.700  0.3641 -0.8449 -0.8357
  731MOL0     O98581  11.367   8.133   9.696 -0.8179 -0.0825 -0.2893
  731MOL0     C98582  11.371   8.263   9.675 -0.4751  0.0614  0.1106
  731MOL0     C98583  11.488   8.340   9.687  0.6222 -0.3875  0.1742
  731MOL0     C98584  11.473   8.477   9.674  0.3802  1.0818 -0.1397
  731MOL0     C98585  11.353   8.544   9.642  0.5422 -0.3187 -0.7897
  731MOL0     O98586  11.327   8.684   9.633 -0.2021  0.4337 -0.0167
  731MOL0     C98587  11.440   8.769   9.622  0.1270 -0.3476 -0.4415
  731MOL0     C98588  11.389   8.910   9.585  0.7697  0.1330  0.3424
  731MOL0     C98589  11.403   8.926   9.434 -0.5509  0.5433 -0.2045
  731MOL0     C98590  11.392   9.071   9.411  0.2263 -0.5107  1.0089
  731MOL0     C98591  11.451   9.113   9.285 -0.5217 -0.9674  1.0900
  731MOL0     C98592  11.367   9.061   9.164  0.3745 -0.2322 -1.0815
  731MOL0     C98593  11.421   9.102   9.018 -0.4913  0.2948  0.0409
  731MOL0     C98594  11.332   9.083   8.903 -0.3956 -1.0927  0.1440
  731MOL0    Cl98595  11.434   9.074   8.761  0.3002 -0.2663 -0.0996
  731MOL0     C98596  11.244   8.466   9.637  1.0462 -0.0114  0.4319
  731MOL0     C98597  11.247   8.330   9.665 -0.0416  0.6922  1.1992
  731MOL0     O98598  11.585   8.057   9.667 -0.2209 -0.1172 -0.1403
  731MOL0     C98599  11.486   7.843   9.836  0.1215  1.2705 -0.7003
  731MOL0     C98600  11.458   7.707   9.868 -0.6744 -0.2142 -0.7191
  731MOL0     N98601  10.965   7.168  10.128 -0.2474 -0.3044  0.5077
  731MOL0     N98602  10.840   7.171  10.138 -0.8265  0.7232  0.3803
  731MOL0     C98603  10.595   7.876   9.310 -0.4161  0.3828 -0.7311
  731MOL0     C98604  10.708   7.953   9.282 -0.9769 -0.4438 -0.1138
  731MOL0     C98605  11.086   8.183   9.229  0.2217 -0.2532 -0.0289
  731MOL0     C98606  11.198   8.094   9.192 -0.0384  0.1807 -0.3018
  731MOL0     C98607  11.276   8.118   9.085  0.6115 -0.7256 -0.6991
  731MOL0     C98608  11.255   8.237   9.005  0.0412 -0.2389 -0.4767
  731MOL0     O98609  11.319   8.268   8.891  0.3177 -0.2202  0.2002
  731MOL0     C98610  11.434   8.187   8.856 -0.9838  1.2238 -0.6003
  731MOL0     C98611  11.461   8.208   8.712 -0.1670 -0.7083  0.3299
  731MOL0     C98612  11.582   8.134   8.652  0.2999  0.4773  1.3361
  731MOL0     C98613  11.604   8.171   8.508 -0.2998 -0.0256 -0.8962
  731MOL0     C98614  11.726   8.105   8.464 -0.9113 -1.4733 -0.7291
  731MOL0     C98615  11.834   8.069   8.421 -0.2665 -0.3128  1.1353
  731MOL0     C98616  11.150   8.319   9.042  0.1915 -0.5843  0.4478
  731MOL0     C98617  11.058   8.300   9.149 -0.3106 -0.3335 -0.3175
  731MOL0     H98618  10.643   8.236   9.453  1.0568  1.4816 -1.5494
  731MOL0     H98619  10.451   8.099   9.516  1.5411 -0.3924  0.8307
  731MOL0     H98620  10.309   7.697   9.499 -1.7523  1.5229  1.2874
  731MOL0     H98621  10.490   7.673   9.485 -0.9591 -1.9798  3.4406
  731MOL0     H98622  10.519   7.797   9.691 -1.2136 -0.7397  3.9238
  731MOL0     H98623  10.354   7.849   9.698  1.6342  2.7736 -1.0741
  731MOL0     H98624  10.287   7.659   9.772 -0.2820 -1.8329 -0.2298
  731MOL0     H98625  10.400   7.555   9.678  1.7267 -0.2842 -0.1450
  731MOL0     H98626  10.588   7.644   9.830 -1.2464  2.3084 -1.8446
  731MOL0     H98627  10.464   7.708   9.931  1.1227 -0.4858  1.4552
  731MOL0     H98628  10.375   7.452   9.942 -0.0296 -0.2773  1.6340
  731MOL0     H98629  10.523   7.418   9.845  1.9042  0.3058  1.1955
  731MOL0     H98630  10.661   7.531  10.023 -0.1427  0.6700 -2.2494
  731MOL0     H98631  10.514   7.540  10.119 -0.2237 -1.4743  1.7291
  731MOL0     H98632  10.488   7.288  10.124  1.7489 -2.4917  1.0351
  731MOL0     H98633  10.615   7.272  10.009 -1.2298  0.6446 -1.6237
  731MOL0     H98634  10.628   7.283  10.301  2.5471  2.0203  2.0130
  731MOL0     H98635  10.684   7.445  10.259  1.6244  1.3194 -1.7566
  731MOL0     H98636  10.907   7.467  10.257 -0.1654  0.7955 -0.2512
  731MOL0     H98637  11.177   7.425  10.232 -0.7202 -0.2767  0.4810
  731MOL0     H98638  11.225   7.256  10.239  1.8175  1.5232  1.1184
  731MOL0     H98639  11.180   7.408   9.972  0.5631  1.1499 -0.1137
  731MOL0     H98640  11.213   7.236  10.001 -2.5328  0.5828  0.2154
  731MOL0     H98641  11.445   7.271  10.044  1.5947 -0.3050 -2.4389
  731MOL0     H98642  11.417   7.440  10.096  0.2017 -0.6244  0.7387
  731MOL0     H98643  11.373   7.329   9.823  1.0808  1.1119 -2.2907
  731MOL0     H98644  11.514   7.434   9.876  1.1470 -1.9996  1.0967
  731MOL0     H98645  11.250   7.629   9.617  1.2848 -3.6223  1.0612
  731MOL0     H98646  11.197   7.839   9.475  0.1307  1.9343 -0.0461
  731MOL0     H98647  11.281   7.987   9.498 -1.1948  0.8729 -0.0317
  731MOL0     H98648  11.370   7.843   9.452 -1.2134 -1.8398 -1.3922
  731MOL0     H98649  11.587   8.296   9.698  0.9567 -0.6408 -2.8220
  731MOL0     H98650  11.570   8.525   9.678  2.6165 -2.9101 -1.2348
  731MOL0     H98651  11.493   8.764   9.718 -2.2033 -1.7787  0.8512
  731MOL0     H98652  11.505   8.727   9.544  0.6124 -0.7223  0.1591
  731MOL0     H98653  11.285   8.925   9.616  0.0057 -0.5237 -1.7557
  731MOL0     H98654  11.450   8.981   9.642  2.8870 -1.6180  0.4055
  731MOL0     H98655  11.330   8.873   9.372 -2.1723 -0.7561  2.5862
  731MOL0     H98656  11.498   8.878   9.411 -0.4778  0.9088 -0.6557
  731MOL0     H98657  11.291   9.109   9.395  0.9542  2.3863  2.5922
  731MOL0     H98658  11.439   9.121   9.496 -3.5738  0.9923  2.4296
  731MOL0     H98659  11.553   9.074   9.272  0.2346  1.1576  0.1413
  731MOL0     H98660  11.470   9.221   9.282  3.6532 -1.5418 -0.8072
  731MOL0     H98661  11.365   8.952   9.164 -0.0430 -0.2557 -3.0560
  731MOL0     H98662  11.262   9.092   9.171  0.7478  1.7606 -3.0812
  731MOL0     H98663  11.509   9.038   9.013 -1.6012 -1.3506  0.6262
  731MOL0     H98664  11.462   9.203   9.026 -0.4596  0.4317 -1.5943
  731MOL0     H98665  11.265   9.169   8.895  0.9500  0.2192  2.1587
  731MOL0     H98666  11.273   8.991   8.906  2.3594 -2.9511  0.9177
  731MOL0     H98667  11.146   8.511   9.624  1.0597 -0.4304 -1.2916
  731MOL0     H98668  11.164   8.262   9.651  1.9973 -1.4089 -2.0482
  731MOL0     H98669  11.552   7.900   9.901 -0.7444 -1.2610  2.6607
  731MOL0     H98670  11.505   7.663   9.955 -3.1662 -3.0197 -0.6192
  731MOL0     H98671  10.578   7.775   9.274 -1.1767 -1.1459  3.2840
  731MOL0     H98672  10.768   7.913   9.201 -1.3577 -2.1005  0.3858
  731MOL0     H98673  11.209   7.998   9.241  0.1768  0.8404  0.9779
  731MOL0     H98674  11.361   8.052   9.072  1.8005  0.3108  1.2457
  731MOL0     H98675  11.516   8.222   8.919 -1.0593  3.2014 -1.5140
  731MOL0     H98676  11.408   8.081   8.864  2.4228  0.3374  0.1081
  731MOL0     H98677  11.466   8.317   8.704  0.8887 -0.2975  4.3781
  731MOL0     H98678  11.374   8.193   8.648  2.0214  0.8686 -3.3684
  731MOL0     H98679  11.566   8.026   8.657  0.9401  0.2783 -0.3090
  731MOL0     H98680  11.665   8.159   8.718 -1.2745 -2.9447  4.9756
  731MOL0     H98681  11.623   8.279   8.512  0.7882 -0.2277  0.2041
  731MOL0     H98682  11.527   8.150   8.433 -2.6764  2.5052  0.6259
  731MOL0     H98683  11.933   8.052   8.384 -1.4213  0.7985 -2.9997
  731MOL0     H98684  11.121   8.404   8.981 -0.5231  1.2534  3.1628
  731MOL0     H98685  10.971   8.365   9.148 -0.0724 -0.0120 -0.4887
  732MOL0     O98686   5.900  10.726  10.473 -0.3912 -0.0769 -0.6276
  732MOL0     C98687   6.018  10.719  10.511 -0.3009  0.1271  0.0445
  732MOL0     O98688   6.120  10.679  10.433  0.2149 -0.1107  0.0851
  732MOL0     C98689   6.100  10.637  10.301 -0.2922 -0.0635  0.2779
  732MOL0     C98690   6.170  10.515  10.255  0.3650 -0.0562 -0.0446
  732MOL0     C98691   6.159  10.471  10.126  0.0787 -0.7716  0.1510
  732MOL0     C98692   6.081  10.538  10.031  0.6473 -0.3854 -0.1660
  732MOL0     O98693   6.094  10.484   9.910 -0.2841  0.1868  0.5754
  732MOL0     C98694   5.964  10.449   9.850  0.2082 -0.1450 -0.2036
  732MOL0     C98695   5.985  10.408   9.711  0.0941  0.8183 -0.6269
  732MOL0     C98696   6.063  10.279   9.690 -0.1467 -0.5953 -0.7446
  732MOL0     C98697   6.205  10.306   9.648 -0.1686 -0.1899 -0.0039
  732MOL0     C98698   6.212  10.320   9.497  0.1901  0.1283 -1.0451
  732MOL0     C98699   6.356  10.356   9.450  0.4890  0.3234 -0.3497
  732MOL0     C98700   6.380  10.361   9.302 -0.3682  0.5373 -0.3608
  732MOL0     C98701   6.296  10.467   9.245  0.3936 -0.4291  0.5942
  732MOL0     N98702   6.278  10.442   9.101 -0.4637 -0.0735  0.1112
  732MOL0     C98703   6.359  10.493   9.005 -0.0954  0.2569 -0.2708
  732MOL0     C98704   6.305  10.450   8.886  0.4035 -0.6623 -0.0836
  732MOL0     C98705   6.359  10.502   8.751 -0.5459 -0.5290 -0.2889
  732MOL0     C98706   6.312  10.412   8.637  1.0568 -0.4030 -0.5928
  732MOL0     C98707   6.359  10.264   8.638 -0.0278 -0.3720 -0.8556
  732MOL0     C98708   6.287  10.184   8.520  0.4208  0.4399  0.0096
  732MOL0     O98709   6.146  10.180   8.539 -0.0137 -0.1175 -0.5050
  732MOL0     C98710   6.061  10.109   8.456  0.2695  0.4774  0.7475
  732MOL0     C98711   5.926  10.146   8.471  0.5782 -0.4584  0.5543
  732MOL0     C98712   5.824  10.089   8.393 -0.8956 -0.6044  0.0470
  732MOL0     C98713   5.677  10.144   8.414 -1.3873  0.0075  0.0422
  732MOL0     C98714   5.853   9.969   8.310  0.1608  0.3123  0.1195
  732MOL0     C98715   5.755   9.886   8.232  0.2952 -0.3281  0.0161
  732MOL0     O98716   5.641   9.954   8.190 -0.0602  0.0287 -0.5607
  732MOL0     C98717   5.516   9.892   8.196  0.3998  0.0599  0.5606
  732MOL0     C98718   5.434   9.918   8.084 -0.1558  0.6819  0.0975
  732MOL0     C98719   5.307   9.876   8.083 -0.5393  0.6486 -0.5091
  732MOL0     C98720   5.249   9.828   8.204 -0.4746  0.3474  0.0384
  732MOL0     O98721   5.115   9.778   8.203 -0.2221 -1.0234 -0.2843
  732MOL0     C98722   5.023   9.870   8.147  0.2431  0.5231 -0.1071
  732MOL0     C98723   4.886   9.809   8.153  1.0053 -0.8158 -0.3300
  732MOL0     C98724   4.782   9.886   8.073 -0.2609 -0.5780  0.4831
  732MOL0     C98725   4.647   9.878   8.150 -0.5323 -0.0404 -0.1251
  732MOL0     C98726   4.537   9.949   8.077  1.0344 -0.4408 -0.0430
  732MOL0     C98727   4.412   9.941   8.160  0.2343  0.6463  0.5973
  732MOL0     C98728   4.294  10.008   8.096 -0.7131 -0.6407  0.1175
  732MOL0     C98729   4.229   9.923   7.994  0.5790 -0.5366  0.4989
  732MOL0    Cl98730   4.052   9.956   8.030 -0.6771 -0.0451 -0.1245
  732MOL0     C98731   5.336   9.796   8.310  0.4112 -0.5217 -0.8933
  732MOL0     C98732   5.472   9.830   8.313  0.3443 -0.4810  0.3696
  732MOL0     O98733   5.782   9.770   8.192  0.1924  0.8605 -0.2409
  732MOL0     C98734   5.988   9.931   8.304  0.3333  0.1169 -0.3435
  732MOL0     C98735   6.090  10.002   8.368 -0.0472 -0.5493  0.2667
  732MOL0     N98736   6.198  10.360   8.918  0.1425 -0.3246 -0.0911
  732MOL0     N98737   6.195  10.347   9.048 -0.1639 -0.5721 -0.6822
  732MOL0     C98738   5.996  10.634  10.073  0.8112  0.2986 -0.6761
  732MOL0     C98739   6.002  10.680  10.207  0.3215 -1.0832  0.0911
  732MOL0     C98740   6.043  10.750  10.652  0.2865 -0.5204 -0.2821
  732MOL0     C98741   6.154  10.691  10.716 -0.2381 -0.5159 -0.1057
  732MOL0     C98742   6.183  10.722  10.850  0.1355  0.2753  0.5584
  732MOL0     C98743   6.103  10.810  10.915 -0.3307 -0.4395 -0.1371
  732MOL0     O98744   6.147  10.849  11.040  0.3237  1.1819  0.7204
  732MOL0     C98745   6.055  10.914  11.131 -0.7488  0.1527 -0.0438
  732MOL0     C98746   5.924  10.847  11.163 -1.1838  0.3192  0.3701
  732MOL0     C98747   5.951  10.711  11.230 -0.0518  0.3662  0.7236
  732MOL0     C98748   5.823  10.633  11.259  0.7144  0.4429  0.2164
  732MOL0     C98749   5.850  10.543  11.373 -1.4527  1.0332  0.5096
  732MOL0     C98750   5.892  10.467  11.455 -0.7163 -0.9926  0.1553
  732MOL0     C98751   5.991  10.871  10.852  0.0448  0.7035  1.5130
  732MOL0     C98752   5.956  10.843  10.721 -0.4532  0.6349  0.1648
  732MOL0     H98753   6.236  10.461  10.321  0.3057 -0.8018 -0.5918
  732MOL0     H98754   6.216  10.383  10.095  1.8929 -0.5789  2.6203
  732MOL0     H98755   5.919  10.368   9.907 -2.5659  0.1280 -1.8319
  732MOL0     H98756   5.881  10.520   9.854 -0.5489 -1.0651  1.4829
  732MOL0     H98757   5.893  10.386   9.657 -0.1892 -0.2344  0.2397
  732MOL0     H98758   6.032  10.489   9.655 -1.1849  1.3124 -1.0233
  732MOL0     H98759   6.055  10.228   9.787  1.9152 -0.8115 -0.6511
  732MOL0     H98760   6.017  10.211   9.618 -3.6967  1.8290 -1.0356
  732MOL0     H98761   6.252  10.391   9.698 -1.6192  0.8106 -0.2919
  732MOL0     H98762   6.266  10.219   9.673 -1.9476 -1.3917  0.3991
  732MOL0     H98763   6.186  10.231   9.439  0.4973  0.5021 -1.7831
  732MOL0     H98764   6.147  10.404   9.470  0.8800  2.0795  2.7263
  732MOL0     H98765   6.367  10.456   9.491 -2.0978  0.5147  0.0197
  732MOL0     H98766   6.419  10.285   9.504 -1.3007 -1.4554 -0.4794
  732MOL0     H98767   6.481  10.402   9.293 -1.0467  2.7773  1.2733
  732MOL0     H98768   6.365  10.259   9.264 -1.1177  0.9889 -1.3284
  732MOL0     H98769   6.333  10.566   9.272  3.1442 -1.4638  0.9138
  732MOL0     H98770   6.193  10.473   9.282 -0.1166  3.2795 -1.0590
  732MOL0     H98771   6.447  10.555   9.017 -0.0597  0.5469 -1.8789
  732MOL0     H98772   6.322  10.604   8.738  0.5904 -0.1524 -0.6689
  732MOL0     H98773   6.468  10.499   8.755 -0.5444 -1.9121 -0.8785
  732MOL0     H98774   6.342  10.463   8.545 -0.9552  0.9821 -0.5303
  732MOL0     H98775   6.203  10.415   8.640  1.0253  3.5620 -0.4326
  732MOL0     H98776   6.342  10.227   8.739  1.5009 -1.7278 -1.0639
  732MOL0     H98777   6.467  10.252   8.626  0.7092  3.2738  0.6430
  732MOL0     H98778   6.335  10.088   8.497  0.0467  0.4306 -0.7568
  732MOL0     H98779   6.308  10.244   8.430 -3.5246  1.2855 -0.5063
  732MOL0     H98780   5.906  10.237   8.527  0.8463  1.2201 -1.9139
  732MOL0     H98781   5.599  10.068   8.427 -1.2410 -0.6555 -2.4361
  732MOL0     H98782   5.680  10.214   8.497  2.7592 -1.6060  1.5143
  732MOL0     H98783   5.640  10.194   8.324 -4.2668 -2.7746 -0.5394
  732MOL0     H98784   5.483   9.958   7.996  1.2986  0.1555  0.6257
  732MOL0     H98785   5.252   9.887   7.990 -1.6019  0.5233  0.0957
  732MOL0     H98786   5.030   9.967   8.198  2.8602 -0.4498  1.5859
  732MOL0     H98787   5.049   9.879   8.041  1.1419  0.7832  0.1272
  732MOL0     H98788   4.876   9.702   8.134 -1.7584 -0.3180 -2.2475
  732MOL0     H98789   4.858   9.822   8.258  1.4600  0.1833 -0.3164
  732MOL0     H98790   4.756   9.846   7.974 -1.1725 -0.9460  0.8610
  732MOL0     H98791   4.809   9.992   8.063  0.6225 -0.9615 -1.8355
  732MOL0     H98792   4.632   9.774   8.181  1.0208 -0.1640  0.2571
  732MOL0     H98793   4.658   9.945   8.235 -0.5212  0.4521 -0.5143
  732MOL0     H98794   4.512   9.919   7.974 -1.4013  2.8325 -0.5716
  732MOL0     H98795   4.559  10.055   8.071  0.0282 -0.2873 -1.8148
  732MOL0     H98796   4.385   9.835   8.164  2.4853 -0.2503 -3.2160
  732MOL0     H98797   4.426   9.978   8.262 -0.4365  0.6001  0.7088
  732MOL0     H98798   4.316  10.107   8.056 -2.9793 -0.6932 -1.4454
  732MOL0     H98799   4.227  10.025   8.180  1.2944  2.9586  1.1854
  732MOL0     H98800   4.250   9.816   8.002  1.2890 -0.3930  0.5774
  732MOL0     H98801   4.264   9.962   7.898 -1.4106  1.7417  0.6042
  732MOL0     H98802   5.298   9.748   8.399  0.8000 -0.4491 -0.6891
  732MOL0     H98803   5.527   9.809   8.405 -0.2437  1.0796  1.1200
  732MOL0     H98804   6.008   9.846   8.240  0.0304  0.2992 -0.6862
  732MOL0     H98805   6.188   9.967   8.337 -0.9978 -1.1090 -2.3417
  732MOL0     H98806   5.915  10.674  10.012 -1.8303 -1.8886  1.1188
  732MOL0     H98807   5.939  10.764  10.230  0.4013  0.1448 -3.5301
  732MOL0     H98808   6.212  10.615  10.665  0.8697 -0.1604  0.5943
  732MOL0     H98809   6.267  10.685  10.908 -0.1287  0.5690  1.1410
  732MOL0     H98810   6.116  10.936  11.219 -1.3438 -1.4237  0.8123
  732MOL0     H98811   6.024  11.008  11.085 -3.7629 -0.6576  0.1092
  732MOL0     H98812   5.871  10.826  11.070 -0.7459 -1.5650  0.5088
  732MOL0     H98813   5.855  10.912  11.216 -0.6087  0.9099  0.4076
  732MOL0     H98814   6.010  10.737  11.318 -4.0717 -1.0800  4.1752
  732MOL0     H98815   6.014  10.644  11.170 -0.1869 -0.7739  1.8295
  732MOL0     H98816   5.795  10.573  11.172 -0.7674  0.4680  0.6460
  732MOL0     H98817   5.740  10.695  11.295  0.1630 -0.8405  1.2547
  732MOL0     H98818   5.951  10.396  11.510 -2.2237 -1.1055  1.7108
  732MOL0     H98819   5.930  10.944  10.904 -3.0567 -1.2116  0.7994
  732MOL0     H98820   5.864  10.893  10.691 -0.3980 -0.5550 -2.2859
  733MOL0     O98821   9.087   6.047   6.102 -0.4277  0.3456  0.1548
  733MOL0     C98822   8.991   5.995   6.037 -0.4375 -0.5687 -0.2531
  733MOL0     O98823   8.884   6.069   5.980  0.2547  0.6174 -0.0713
  733MOL0     C98824   8.884   6.204   6.002 -1.4837 -0.4216 -0.7728
  733MOL0     C98825   8.885   6.295   5.892  0.0146 -0.1690 -0.6282
  733MOL0     C98826   8.918   6.429   5.903 -0.5095 -0.3018 -0.2444
  733MOL0     C98827   8.939   6.480   6.031  0.6301  0.3120 -0.0531
  733MOL0     O98828   8.969   6.603   6.057 -0.1846 -0.2047  0.1981
  733MOL0     C98829   9.081   6.659   5.990  0.1685 -0.2133  0.5653
  733MOL0     C98830   9.116   6.804   6.024  0.1332  1.0015 -0.0867
  733MOL0     C98831   9.031   6.900   5.944  0.0487 -0.4169 -1.0148
  733MOL0     C98832   9.056   7.039   6.004  0.0995 -0.4949  0.0798
  733MOL0     C98833   8.963   7.151   5.964 -0.8707  0.2798 -0.1153
  733MOL0     C98834   8.985   7.179   5.812 -0.1030  0.5807 -0.4798
  733MOL0     C98835   8.887   7.294   5.771  0.2354 -0.3143  0.7511
  733MOL0     C98836   8.874   7.313   5.621 -0.1221  0.7106 -0.7992
  733MOL0     N98837   8.816   7.196   5.557 -0.0705 -0.5534 -0.1239
  733MOL0     C98838   8.731   7.099   5.601 -0.3042 -0.0778 -0.6639
  733MOL0     C98839   8.708   7.019   5.494  0.6474  0.3956 -0.3510
  733MOL0     C98840   8.641   6.877   5.496 -0.1461  0.0952 -0.3819
  733MOL0     C98841   8.738   6.758   5.479 -0.1217 -0.4801  0.3727
  733MOL0     C98842   8.669   6.624   5.446 -0.0818 -0.2881  0.7923
  733MOL0     C98843   8.771   6.505   5.418  0.3172  0.2451 -0.2695
  733MOL0     O98844   8.703   6.389   5.449  0.4110  0.6036  0.5551
  733MOL0     C98845   8.780   6.285   5.476  0.6725 -0.2297 -0.1200
  733MOL0     C98846   8.720   6.191   5.565 -0.3436 -0.5380  0.8103
  733MOL0     C98847   8.781   6.067   5.594  0.7673  0.0534 -0.0564
  733MOL0     C98848   8.691   5.981   5.679 -1.1258  0.2988 -0.6353
  733MOL0     C98849   8.908   6.033   5.541 -0.5587  0.1526  0.4451
  733MOL0     C98850   8.988   5.903   5.568  1.5673 -0.4890 -0.2048
  733MOL0     O98851   9.075   5.850   5.478  0.4415 -0.6181  0.1226
  733MOL0     C98852   9.136   5.723   5.493  0.8506  0.2086  0.4385
  733MOL0     C98853   9.272   5.693   5.465 -0.8371  0.1190  0.4021
  733MOL0     C98854   9.327   5.563   5.473  0.9026 -0.2933  0.2378
  733MOL0     C98855   9.251   5.451   5.512 -0.4997  0.4340  0.1554
  733MOL0     O98856   9.311   5.326   5.509  0.0608 -0.3919 -0.3153
  733MOL0     C98857   9.238   5.205   5.519  0.4157  0.6824  0.4374
  733MOL0     C98858   9.280   5.120   5.638 -0.4924  0.3834  0.0299
  733MOL0     C98859   9.428   5.073   5.610  0.1392  1.0912  0.7054
  733MOL0     C98860   9.443   4.923   5.555 -0.1040  0.3898  0.4698
  733MOL0     C98861   9.364   4.908   5.426  0.1298 -0.1525 -0.4490
  733MOL0     C98862   9.375   4.764   5.375 -0.1819  0.5814  0.1779
  733MOL0     C98863   9.317   4.732   5.238  0.3609  0.7291 -0.5589
  733MOL0     C98864   9.340   4.592   5.194  0.6590  0.1490 -0.2240
  733MOL0    Cl98865   9.197   4.487   5.220  0.0677 -0.2497 -0.0658
  733MOL0     C98866   9.121   5.483   5.558  0.0309  0.2957 -0.1062
  733MOL0     C98867   9.059   5.614   5.546  0.1912 -0.0887  1.0255
  733MOL0     O98868   8.961   5.858   5.683 -0.4705  0.4155  0.7769
  733MOL0     C98869   8.962   6.127   5.446  1.4050  0.4418 -0.0201
  733MOL0     C98870   8.901   6.253   5.413 -0.2374 -0.1354  0.4098
  733MOL0     N98871   8.781   7.068   5.398 -0.2265 -0.1781  0.9607
  733MOL0     N98872   8.838   7.175   5.426  0.2363 -0.2755 -0.3621
  733MOL0     C98873   8.915   6.396   6.146  0.2307 -1.4341 -0.1921
  733MOL0     C98874   8.888   6.262   6.129  0.4785  0.5602  1.1034
  733MOL0     C98875   8.983   5.847   6.045 -0.9332  0.4549  0.6390
  733MOL0     C98876   9.069   5.778   6.125  0.7617  0.1595 -0.7558
  733MOL0     C98877   9.063   5.636   6.105 -1.4601  0.4379 -0.7199
  733MOL0     C98878   8.960   5.561   6.048  0.8104 -0.5434 -0.6059
  733MOL0     O98879   8.939   5.432   6.082 -0.3034  0.0755 -0.6518
  733MOL0     C98880   9.040   5.344   6.034  0.3604 -0.4745 -0.1978
  733MOL0     C98881   8.994   5.304   5.897  0.2860 -0.3177 -0.4325
  733MOL0     C98882   8.990   5.147   5.883  0.6180  0.1776  0.3249
  733MOL0     C98883   8.865   5.084   5.942  0.8753  0.0349 -0.3995
  733MOL0     C98884   8.844   4.947   5.895 -0.5243 -0.4364  0.2286
  733MOL0     C98885   8.833   4.833   5.859  0.4502  0.3070  1.2332
  733MOL0     C98886   8.863   5.640   5.989  0.4592  0.7004 -0.5803
  733MOL0     C98887   8.884   5.784   5.967 -0.6497 -0.0854  0.5033
  733MOL0     H98888   8.853   6.267   5.792 -3.0185 -0.9477  0.4313
  733MOL0     H98889   8.914   6.497   5.819 -0.6000  0.8014  0.6305
  733MOL0     H98890   9.161   6.591   6.023  1.3876  0.7446 -0.3202
  733MOL0     H98891   9.078   6.642   5.882  1.7892  1.6758  0.1733
  733MOL0     H98892   9.091   6.807   6.131  0.9162 -1.8265  0.2418
  733MOL0     H98893   9.221   6.826   6.006  0.5531 -1.4516 -0.9295
  733MOL0     H98894   9.059   6.886   5.839  1.2212  1.6435 -1.0290
  733MOL0     H98895   8.926   6.885   5.971  0.4407  0.8190  1.4969
  733MOL0     H98896   9.052   7.024   6.113 -1.1587  1.0250  0.2682
  733MOL0     H98897   9.160   7.067   5.983  0.1790 -0.2065  0.8219
  733MOL0     H98898   8.859   7.126   5.984 -0.6428 -0.0615  0.7032
  733MOL0     H98899   8.981   7.245   6.016 -3.2127  1.0290 -0.5583
  733MOL0     H98900   9.092   7.196   5.800  0.5663 -1.9997  0.9214
  733MOL0     H98901   8.977   7.084   5.758  1.2683  0.3994 -0.3906
  733MOL0     H98902   8.783   7.277   5.800 -0.4547 -1.0957 -1.8751
  733MOL0     H98903   8.929   7.388   5.807  3.3200 -2.1402  2.3640
  733MOL0     H98904   8.975   7.327   5.580 -0.4206  0.1833 -1.7534
  733MOL0     H98905   8.806   7.394   5.593 -2.5150 -0.1585  2.0120
  733MOL0     H98906   8.681   7.089   5.696 -1.4369  1.8970 -1.0068
  733MOL0     H98907   8.596   6.863   5.594 -2.4873  2.8807 -0.9156
  733MOL0     H98908   8.565   6.880   5.418 -0.6959 -0.1152  0.1404
  733MOL0     H98909   8.798   6.745   5.570 -0.0559 -0.2993  0.3533
  733MOL0     H98910   8.800   6.791   5.396 -1.6126  3.2114  0.5348
  733MOL0     H98911   8.593   6.629   5.367 -0.4282 -1.8952  0.9796
  733MOL0     H98912   8.610   6.600   5.534 -0.6737  2.0311  1.0699
  733MOL0     H98913   8.865   6.516   5.474  2.0053 -1.2358 -2.5817
  733MOL0     H98914   8.801   6.511   5.313  1.6782 -1.2699 -0.0204
  733MOL0     H98915   8.629   6.233   5.605 -1.1127  2.7241 -3.6055
  733MOL0     H98916   8.704   5.878   5.646  1.0411  1.5126 -4.0840
  733MOL0     H98917   8.727   5.997   5.781 -0.6579  0.5432 -0.8386
  733MOL0     H98918   8.590   6.022   5.668 -0.6629  0.9254 -3.1714
  733MOL0     H98919   9.340   5.773   5.436 -0.0613 -0.0906  1.5687
  733MOL0     H98920   9.432   5.548   5.446  0.9243  0.0486  0.1348
  733MOL0     H98921   9.132   5.231   5.525  0.2851  0.2092  0.2174
  733MOL0     H98922   9.255   5.158   5.422 -1.6374  1.1148 -0.1866
  733MOL0     H98923   9.274   5.177   5.731 -1.1850  0.4956 -0.0842
  733MOL0     H98924   9.226   5.027   5.652 -1.0629  0.4575 -1.4674
  733MOL0     H98925   9.488   5.075   5.701  0.4003 -0.0276  0.5711
  733MOL0     H98926   9.480   5.140   5.540 -1.3577  1.7333  0.1512
  733MOL0     H98927   9.547   4.894   5.537 -0.3493  1.1892 -2.7702
  733MOL0     H98928   9.397   4.856   5.629 -2.5899  0.1807 -1.1539
  733MOL0     H98929   9.410   4.976   5.352  0.1970 -0.8925 -1.1016
  733MOL0     H98930   9.264   4.951   5.434  0.0443 -0.1136 -1.5717
  733MOL0     H98931   9.477   4.727   5.383 -1.0283 -1.5630  2.3079
  733MOL0     H98932   9.327   4.693   5.443  1.4483  0.4114  1.2010
  733MOL0     H98933   9.366   4.793   5.161 -0.0314  2.3112  0.4201
  733MOL0     H98934   9.208   4.733   5.229  0.0377 -5.7121 -2.8426
  733MOL0     H98935   9.423   4.551   5.253 -0.7078 -0.2477  1.4858
  733MOL0     H98936   9.365   4.590   5.088  1.8585 -0.9380  0.0528
  733MOL0     H98937   9.059   5.401   5.595  1.9842 -0.6038  1.3442
  733MOL0     H98938   8.953   5.636   5.552  0.2788  0.5008  0.4531
  733MOL0     H98939   9.060   6.113   5.400  0.5484  2.2537 -2.6208
  733MOL0     H98940   8.954   6.308   5.336  0.7670  1.9317  2.4859
  733MOL0     H98941   8.914   6.430   6.249 -1.4094 -4.0510  0.7522
  733MOL0     H98942   8.879   6.203   6.220  1.8471 -2.6885 -0.6758
  733MOL0     H98943   9.147   5.820   6.189 -1.0193  0.8110  1.0934
  733MOL0     H98944   9.137   5.577   6.157 -1.3991  0.2008 -1.0769
  733MOL0     H98945   9.140   5.387   6.032 -0.4480  1.5133 -0.2894
  733MOL0     H98946   9.045   5.254   6.095  0.3035 -0.7599 -0.6097
  733MOL0     H98947   9.063   5.340   5.820 -1.2576  0.0273 -1.7205
  733MOL0     H98948   8.894   5.344   5.880  1.2699  1.1287 -3.9332
  733MOL0     H98949   9.085   5.116   5.928 -0.9461 -1.4558  2.7333
  733MOL0     H98950   8.996   5.121   5.777  2.0818  2.6008 -0.2647
  733MOL0     H98951   8.772   5.134   5.914  1.6877  0.7347 -1.9788
  733MOL0     H98952   8.867   5.085   6.051  0.0234 -0.8951 -0.3587
  733MOL0     H98953   8.808   4.744   5.804 -2.6016  1.0789  1.2407
  733MOL0     H98954   8.781   5.583   5.948 -1.1345  0.2821  2.8610
  733MOL0     H98955   8.817   5.838   5.902 -1.9647 -1.1504  0.9318
  734MOL0     O98956   4.099   6.358   7.398 -0.0906 -0.4425 -1.3688
  734MOL0     C98957   4.011   6.398   7.316  0.2228  0.5393  0.1460
  734MOL0     O98958   3.933   6.315   7.239 -0.4458 -0.1318  0.6479
  734MOL0     C98959   3.924   6.181   7.272 -0.3360  0.5811 -0.0312
  734MOL0     C98960   4.032   6.089   7.251 -0.8242 -0.8146 -0.3685
  734MOL0     C98961   4.029   5.955   7.267  0.6752 -0.0490  0.2161
  734MOL0     C98962   3.913   5.889   7.320  0.3956  0.9687 -0.1653
  734MOL0     O98963   3.921   5.756   7.362  0.6401  0.5576 -0.4542
  734MOL0     C98964   3.853   5.670   7.269 -0.0477  1.2533  0.3050
  734MOL0     C98965   3.859   5.523   7.309  0.1069  0.0749 -0.3605
  734MOL0     C98966   3.735   5.473   7.373  0.3918  0.1060 -0.3621
  734MOL0     C98967   3.698   5.543   7.504  0.3537  0.6629 -0.9983
  734MOL0     C98968   3.759   5.475   7.631  0.2058  0.0019  0.1517
  734MOL0     C98969   3.727   5.557   7.752 -1.2133 -0.4270 -0.3640
  734MOL0     C98970   3.590   5.525   7.794 -0.0889 -0.6720 -0.7834
  734MOL0     C98971   3.562   5.584   7.925  0.2451 -0.2394 -0.8173
  734MOL0     N98972   3.420   5.586   7.969 -0.5891  0.4766  0.2941
  734MOL0     C98973   3.359   5.680   8.055  0.9545 -0.1666  0.6659
  734MOL0     C98974   3.224   5.657   8.043  0.2219  0.0868  0.3452
  734MOL0     C98975   3.097   5.718   8.097 -0.0123 -0.4599  0.0339
  734MOL0     C98976   2.974   5.729   8.006 -0.7954 -0.3364 -0.1480
  734MOL0     C98977   2.862   5.812   8.083  0.0591 -0.4749  0.3291
  734MOL0     C98978   2.734   5.815   8.002  0.2179 -0.0557  0.8896
  734MOL0     O98979   2.679   5.680   8.017 -0.3206 -0.1681  0.2783
  734MOL0     C98980   2.546   5.655   7.981  0.1505  0.0059  0.7911
  734MOL0     C98981   2.491   5.529   8.027  0.2303 -0.2762 -0.6138
  734MOL0     C98982   2.359   5.504   8.016  0.4623 -0.4903  1.5431
  734MOL0     C98983   2.297   5.386   8.086  0.6900  0.5192  0.4589
  734MOL0     C98984   2.285   5.592   7.933  0.6748  0.0503 -0.0955
  734MOL0     C98985   2.139   5.581   7.913  0.1972 -0.8289 -0.1039
  734MOL0     O98986   2.079   5.503   7.817 -0.1962  0.0903 -0.1154
  734MOL0     C98987   2.126   5.539   7.697 -0.7777  0.5483 -0.1234
  734MOL0     C98988   2.240   5.484   7.642 -0.2104 -0.0448  0.5837
  734MOL0     C98989   2.272   5.510   7.507 -0.3196  0.3048  0.2895
  734MOL0     C98990   2.197   5.602   7.440  0.6673 -0.0826  0.1727
  734MOL0     O98991   2.242   5.654   7.320 -0.3915  0.4548 -0.5089
  734MOL0     C98992   2.196   5.589   7.201 -0.5723  0.2418 -0.0849
  734MOL0     C98993   2.130   5.695   7.114  0.0559  1.0357 -0.2050
  734MOL0     C98994   2.213   5.805   7.060 -0.4674 -0.6265 -0.1018
  734MOL0     C98995   2.137   5.903   6.972  0.5576 -0.9300  0.4265
  734MOL0     C98996   2.094   5.855   6.840 -0.8210  0.8228 -0.4243
  734MOL0     C98997   2.221   5.829   6.750 -0.4962 -0.0423 -0.3923
  734MOL0     C98998   2.187   5.823   6.599  0.3703 -0.7731  0.1106
  734MOL0     C98999   2.129   5.694   6.545 -0.3655  0.2064 -0.0536
  734MOL0    Cl99000   1.955   5.675   6.590 -0.4623 -0.3831  0.0356
  734MOL0     C99001   2.079   5.661   7.494 -0.4951 -0.0152  0.3972
  734MOL0     C99002   2.047   5.628   7.624  0.1703  0.0267 -0.7135
  734MOL0     O99003   2.070   5.649   7.991  0.1379 -0.1585 -0.2082
  734MOL0     C99004   2.351   5.698   7.877  0.1153  0.4500  0.0475
  734MOL0     C99005   2.474   5.742   7.897 -0.5228 -0.4691 -0.0606
  734MOL0     N99006   3.211   5.541   7.962 -0.0595 -0.7733 -0.2580
  734MOL0     N99007   3.323   5.502   7.924 -0.2212 -0.1516  0.1994
  734MOL0     C99008   3.807   5.970   7.345 -0.1902 -0.6157  0.7233
  734MOL0     C99009   3.810   6.112   7.313  0.0355  0.1375 -0.4143
  734MOL0     C99010   3.965   6.540   7.317  0.6468 -0.7533  0.0684
  734MOL0     C99011   3.916   6.608   7.205  1.2386  0.1251 -0.3929
  734MOL0     C99012   3.892   6.751   7.197  0.5278  0.2197 -0.2682
  734MOL0     C99013   3.938   6.817   7.313 -0.6749  1.0320  0.3352
  734MOL0     O99014   3.915   6.950   7.335 -0.3321  0.5541  0.5079
  734MOL0     C99015   3.798   6.982   7.411 -0.1561 -0.3497  0.0248
  734MOL0     C99016   3.658   6.922   7.371 -0.6176  0.4796  0.3116
  734MOL0     C99017   3.595   6.977   7.237  0.2782  0.3425  0.1233
  734MOL0     C99018   3.590   7.129   7.229 -0.0748 -0.0469 -0.7024
  734MOL0     C99019   3.479   7.188   7.301  0.0288 -0.5317 -0.5444
  734MOL0     C99020   3.411   7.233   7.390  0.1538  1.7460 -0.1354
  734MOL0     C99021   3.989   6.757   7.425  0.0262  0.5313 -0.3312
  734MOL0     C99022   3.991   6.620   7.433  0.2784  0.0349  0.0344
  734MOL0     H99023   4.117   6.140   7.206 -3.0045  0.7342 -3.0716
  734MOL0     H99024   4.117   5.896   7.245  0.7733 -1.8696  4.4192
  734MOL0     H99025   3.749   5.700   7.259  0.4205  2.5856 -0.7844
  734MOL0     H99026   3.908   5.681   7.175 -0.2433 -2.3076 -0.3850
  734MOL0     H99027   3.882   5.467   7.218 -0.6451  0.1283 -0.5890
  734MOL0     H99028   3.934   5.504   7.386 -0.2256 -0.5155 -0.1791
  734MOL0     H99029   3.652   5.472   7.302  0.5662  0.4374 -0.5753
  734MOL0     H99030   3.737   5.366   7.397 -1.9319  0.5247  2.2506
  734MOL0     H99031   3.728   5.649   7.499  0.5099  0.7940  1.5732
  734MOL0     H99032   3.589   5.540   7.511  0.3254 -1.4632 -1.7978
  734MOL0     H99033   3.719   5.374   7.644 -2.8659  1.4133  3.6623
  734MOL0     H99034   3.866   5.479   7.612  0.1090  3.0326 -0.2412
  734MOL0     H99035   3.803   5.543   7.829 -0.5986  3.8523  0.0253
  734MOL0     H99036   3.726   5.660   7.716 -3.1676  0.1756  1.2144
  734MOL0     H99037   3.514   5.561   7.724 -2.0072 -1.2964  0.8646
  734MOL0     H99038   3.585   5.417   7.811  3.7982 -0.6682  1.5491
  734MOL0     H99039   3.599   5.687   7.933 -1.9430  0.4476  2.1566
  734MOL0     H99040   3.623   5.524   7.994  0.1384  0.5559 -0.0113
  734MOL0     H99041   3.401   5.762   8.113  1.0924 -0.7569  1.4149
  734MOL0     H99042   3.059   5.680   8.192  0.3361 -0.4966  0.1585
  734MOL0     H99043   3.133   5.816   8.129 -1.1843  0.4624 -1.3009
  734MOL0     H99044   2.940   5.627   7.985  1.3700 -1.3336  0.8399
  734MOL0     H99045   3.006   5.780   7.915 -0.1119 -2.2340 -1.0366
  734MOL0     H99046   2.905   5.912   8.088  0.1058 -0.3972 -1.1632
  734MOL0     H99047   2.839   5.773   8.183 -0.6122 -0.2001  0.2884
  734MOL0     H99048   2.757   5.836   7.897  1.5208  0.7168  1.3084
  734MOL0     H99049   2.663   5.890   8.036 -1.5625 -0.8672 -0.8409
  734MOL0     H99050   2.566   5.475   8.085 -0.1626 -0.5059 -0.3141
  734MOL0     H99051   2.296   5.405   8.193  0.6054  0.3513  0.4879
  734MOL0     H99052   2.198   5.354   8.053  0.9825 -0.3601  0.3774
  734MOL0     H99053   2.348   5.291   8.068 -1.6252 -0.9355  1.0951
  734MOL0     H99054   2.307   5.423   7.701  0.2665  0.2875  0.3994
  734MOL0     H99055   2.376   5.488   7.488 -0.5677 -2.0354  1.3415
  734MOL0     H99056   2.284   5.552   7.149  0.2967 -0.2316  1.6700
  734MOL0     H99057   2.129   5.506   7.226  0.9003 -1.4208 -1.4000
  734MOL0     H99058   2.094   5.641   7.026  2.4323  0.8655 -1.1758
  734MOL0     H99059   2.055   5.747   7.173 -1.4521 -1.9560  0.6716
  734MOL0     H99060   2.297   5.762   7.004 -0.5182 -0.1461 -0.5490
  734MOL0     H99061   2.257   5.864   7.141 -0.7217 -2.2832  1.3229
  734MOL0     H99062   2.051   5.944   7.026  0.0085  1.8209 -2.2153
  734MOL0     H99063   2.197   5.993   6.955 -1.5619  0.2387 -1.4521
  734MOL0     H99064   2.026   5.933   6.802  1.2516  3.8805  1.6519
  734MOL0     H99065   2.025   5.773   6.857 -0.1342  0.7952  2.9134
  734MOL0     H99066   2.286   5.915   6.768  0.8467 -1.1885  0.5427
  734MOL0     H99067   2.286   5.747   6.782 -0.9784 -0.0747  0.5445
  734MOL0     H99068   2.275   5.847   6.539 -1.5221  3.9366 -1.2979
  734MOL0     H99069   2.125   5.911   6.578  0.0501 -1.6010 -2.8837
  734MOL0     H99070   2.187   5.614   6.592 -1.8199  1.0425  3.4863
  734MOL0     H99071   2.151   5.695   6.438 -1.8836  1.6002 -0.3787
  734MOL0     H99072   2.021   5.725   7.428  1.3977 -0.8553 -2.2818
  734MOL0     H99073   1.960   5.669   7.674 -0.9646 -1.0712 -1.7180
  734MOL0     H99074   2.285   5.758   7.815 -2.1730 -0.2832  1.6456
  734MOL0     H99075   2.520   5.827   7.848  0.7493 -1.0597  0.0687
  734MOL0     H99076   3.715   5.918   7.369 -1.4116 -1.1132 -3.9010
  734MOL0     H99077   3.728   6.182   7.332  0.8961  0.7154  1.4773
  734MOL0     H99078   3.910   6.553   7.111  1.5889 -0.3208 -0.1600
  734MOL0     H99079   3.843   6.801   7.113  0.2008  0.8231  0.2703
  734MOL0     H99080   3.819   6.957   7.516 -0.7602 -0.9642  0.0038
  734MOL0     H99081   3.787   7.091   7.413  2.3681 -0.0504  0.2911
  734MOL0     H99082   3.596   6.947   7.457  1.2392 -1.8905  2.4768
  734MOL0     H99083   3.657   6.813   7.360  0.7915  0.4378  0.3151
  734MOL0     H99084   3.493   6.938   7.233 -1.5961  4.8031 -1.0725
  734MOL0     H99085   3.649   6.934   7.152  1.1816  0.0594  0.8142
  734MOL0     H99086   3.569   7.159   7.126 -1.6324  1.2432 -0.0583
  734MOL0     H99087   3.684   7.180   7.250 -2.4317  4.2022  0.7625
  734MOL0     H99088   3.335   7.249   7.464 -0.8497 -1.3617 -0.3479
  734MOL0     H99089   4.016   6.820   7.508  3.1485  0.2739 -1.0458
  734MOL0     H99090   4.026   6.574   7.525 -2.0037 -0.5473  0.6616
  735MOL0     O99091   0.882   3.909   1.982 -0.5581 -0.3618  0.0897
  735MOL0     C99092   0.769   3.938   1.956  0.1032 -0.4248 -0.0709
  735MOL0     O99093   0.673   3.853   1.956  1.4295  0.4387 -0.1549
  735MOL0     C99094   0.686   3.714   1.945 -0.1964 -0.6691  0.8341
  735MOL0     C99095   0.565   3.644   1.920  0.0451 -0.1650 -0.5072
  735MOL0     C99096   0.571   3.504   1.897 -0.1965  1.1520 -0.3483
  735MOL0     C99097   0.685   3.420   1.911  1.0091 -0.3601  0.5086
  735MOL0     O99098   0.706   3.288   1.863 -0.8421  0.2498  0.4227
  735MOL0     C99099   0.590   3.205   1.859 -0.0068  0.0234 -0.4254
  735MOL0     C99100   0.621   3.057   1.856  0.4928  0.0063  0.2050
  735MOL0     C99101   0.484   2.982   1.859  0.5476 -0.5435  0.2816
  735MOL0     C99102   0.501   2.834   1.862  0.1434 -0.5050 -0.4464
  735MOL0     C99103   0.368   2.760   1.900  1.0735 -0.0959  0.7761
  735MOL0     C99104   0.244   2.797   1.817  0.8529 -0.1229 -0.0551
  735MOL0     C99105   0.124   2.704   1.851  0.3684 -0.2823  0.6310
  735MOL0     C99106   0.010   2.719   1.757 -0.0350  0.2551  0.0587
  735MOL0     N99107  -0.075   2.835   1.794 -0.5707  0.5421  0.4641
  735MOL0     C99108  -0.187   2.821   1.864  0.3678  0.4061  0.4766
  735MOL0     C99109  -0.233   2.942   1.892  0.9001  0.5744  0.3668
  735MOL0     C99110  -0.366   2.952   1.974 -0.7477 -0.5172 -0.6055
  735MOL0     C99111  -0.473   2.871   1.922  0.3925  0.1922  0.1915
  735MOL0     C99112  -0.615   2.908   1.958  0.4764 -0.1325 -0.5292
  735MOL0     C99113  -0.718   2.829   1.891  0.5324 -0.0157  0.7721
  735MOL0     O99114  -0.844   2.898   1.884  0.7970  0.0145  0.0502
  735MOL0     C99115  -0.857   2.978   1.782  0.2071  0.5234 -0.0370
  735MOL0     C99116  -0.842   3.120   1.794  0.8615 -0.3297 -0.7788
  735MOL0     C99117  -0.846   3.203   1.682 -0.0694  1.0342 -0.0962
  735MOL0     C99118  -0.797   3.347   1.694  0.1929 -0.9610 -0.5446
  735MOL0     C99119  -0.888   3.147   1.559 -0.4969 -0.0500 -0.1275
  735MOL0     C99120  -0.911   3.228   1.436 -0.3875  0.7928  0.2193
  735MOL0     O99121  -0.945   3.358   1.448 -0.3690  0.1054 -0.0076
  735MOL0     C99122  -0.995   3.430   1.340  0.2457  0.2081 -0.7066
  735MOL0     C99123  -0.926   3.433   1.218  0.0172  0.0800 -0.3398
  735MOL0     C99124  -0.987   3.488   1.108  0.6366  0.3830  0.7336
  735MOL0     C99125  -1.117   3.539   1.117 -0.4780  0.6018  0.3722
  735MOL0     O99126  -1.187   3.597   1.016  1.0238  0.1726  0.7649
  735MOL0     C99127  -1.171   3.535   0.885 -0.1241 -1.6682  0.0202
  735MOL0     C99128  -1.303   3.559   0.810 -0.2358 -0.0454 -0.3664
  735MOL0     C99129  -1.425   3.495   0.884 -0.8085  0.4095  0.3957
  735MOL0     C99130  -1.396   3.355   0.935 -1.0302  0.1108 -0.2344
  735MOL0     C99131  -1.394   3.250   0.817  0.9322 -0.5537 -0.4678
  735MOL0     C99132  -1.259   3.184   0.787 -0.2941 -0.4844  0.5446
  735MOL0     C99133  -1.301   3.052   0.710  0.0193  0.9163 -0.3812
  735MOL0     C99134  -1.192   2.979   0.629  0.7906  0.3555 -0.0061
  735MOL0    Cl99135  -1.080   2.896   0.738 -0.2381  0.1572 -0.1180
  735MOL0     C99136  -1.190   3.535   1.236 -0.5816 -0.0645 -1.6030
  735MOL0     C99137  -1.125   3.489   1.352  0.3447 -0.0792  0.0178
  735MOL0     O99138  -0.890   3.173   1.326  0.1673 -0.4122 -0.0122
  735MOL0     C99139  -0.913   3.007   1.548 -0.7959 -0.0935  0.3475
  735MOL0     C99140  -0.893   2.925   1.655 -0.9701  0.6059 -0.0020
  735MOL0     N99141  -0.135   3.030   1.828  1.3275  0.1060  0.6833
  735MOL0     N99142  -0.037   2.960   1.781  0.1899  0.0058 -0.3245
  735MOL0     C99143   0.805   3.493   1.942  0.0408 -0.9328  0.2341
  735MOL0     C99144   0.807   3.636   1.967 -0.0668  0.2739  0.0944
  735MOL0     C99145   0.736   4.078   1.947  0.0507  0.3138  0.2539
  735MOL0     C99146   0.615   4.131   1.994 -0.4249 -0.3001  0.9461
  735MOL0     C99147   0.593   4.272   1.976 -1.0413  0.7950  0.3157
  735MOL0     C99148   0.680   4.352   1.902 -0.1298 -0.0838 -0.3526
  735MOL0     O99149   0.648   4.482   1.893  0.5361 -0.0323 -0.2039
  735MOL0     C99150   0.719   4.570   1.800 -0.0728  0.4295 -0.8237
  735MOL0     C99151   0.652   4.702   1.758  0.1752 -0.7575  0.2238
  735MOL0     C99152   0.613   4.797   1.875  0.3379  0.2036 -0.2036
  735MOL0     C99153   0.535   4.923   1.839  0.1537 -0.6576  0.6259
  735MOL0     C99154   0.625   5.019   1.773 -0.1995  0.1539 -0.3893
  735MOL0     C99155   0.698   5.098   1.717  0.6177 -0.3880 -0.6836
  735MOL0     C99156   0.796   4.287   1.848  0.2757 -0.6604 -1.0737
  735MOL0     C99157   0.834   4.163   1.892 -1.5125 -0.0492 -0.0223
  735MOL0     H99158   0.472   3.700   1.917  1.1606  2.6375  4.9411
  735MOL0     H99159   0.468   3.476   1.874 -0.2700 -0.7891  1.9719
  735MOL0     H99160   0.531   3.225   1.949  1.1493  6.3428 -0.5717
  735MOL0     H99161   0.520   3.238   1.782 -1.9895  1.6754  1.9146
  735MOL0     H99162   0.678   3.024   1.769  1.2556 -0.3364  0.8172
  735MOL0     H99163   0.670   3.035   1.952  0.5731  0.8783  0.3710
  735MOL0     H99164   0.429   3.007   1.950 -2.2487  1.1685 -1.7112
  735MOL0     H99165   0.414   3.018   1.783  0.4256 -0.3279  0.4949
  735MOL0     H99166   0.537   2.809   1.761  2.2167 -0.2175  0.1733
  735MOL0     H99167   0.574   2.810   1.940 -0.9492  0.8949  1.0629
  735MOL0     H99168   0.392   2.654   1.901  2.0666  0.1149  1.0513
  735MOL0     H99169   0.337   2.775   2.003 -0.8846 -0.5232  0.2749
  735MOL0     H99170   0.224   2.902   1.836  0.9279 -0.4890  2.3590
  735MOL0     H99171   0.266   2.780   1.711  0.2279 -3.7673  0.2588
  735MOL0     H99172   0.156   2.600   1.862  0.8866  0.0552  2.8284
  735MOL0     H99173   0.091   2.727   1.953 -1.9421 -1.5787  0.2414
  735MOL0     H99174  -0.045   2.624   1.754  2.7994 -1.5125  0.3412
  735MOL0     H99175   0.053   2.740   1.659  0.6922  1.4033  0.6113
  735MOL0     H99176  -0.230   2.727   1.895 -2.0301  1.1768 -0.2217
  735MOL0     H99177  -0.349   2.927   2.079 -1.4561  2.0055  0.1902
  735MOL0     H99178  -0.381   3.060   1.980 -3.1447 -0.7978 -0.5232
  735MOL0     H99179  -0.456   2.770   1.962  1.5777  0.1042 -0.4906
  735MOL0     H99180  -0.469   2.877   1.813  3.1279  2.5148  0.2978
  735MOL0     H99181  -0.634   3.016   1.950 -1.6644 -0.4678 -0.5542
  735MOL0     H99182  -0.623   2.886   2.064  2.1099  2.4149  0.2237
  735MOL0     H99183  -0.744   2.738   1.947 -1.6722  1.6783  2.7044
  735MOL0     H99184  -0.673   2.802   1.795 -0.9312 -0.3409  0.1548
  735MOL0     H99185  -0.819   3.162   1.892  1.2434 -2.2212 -0.0112
  735MOL0     H99186  -0.750   3.363   1.791  2.7205  0.7702 -1.9483
  735MOL0     H99187  -0.725   3.372   1.615  1.8627  1.6583  1.6434
  735MOL0     H99188  -0.890   3.404   1.683 -2.0426 -3.8998  1.6473
  735MOL0     H99189  -0.827   3.388   1.226 -1.1677 -2.3482  4.2812
  735MOL0     H99190  -0.939   3.492   1.011 -1.3318  0.9275 -0.2658
  735MOL0     H99191  -1.097   3.592   0.828 -1.2070  0.7981  0.9249
  735MOL0     H99192  -1.142   3.430   0.881 -1.7009 -2.1127 -0.8021
  735MOL0     H99193  -1.313   3.668   0.813  1.2682  0.0927  1.1233
  735MOL0     H99194  -1.304   3.521   0.707 -2.6601  0.3029 -0.5287
  735MOL0     H99195  -1.510   3.507   0.816 -1.0787  1.5861  0.9259
  735MOL0     H99196  -1.437   3.555   0.974 -0.8448  2.8546 -1.1607
  735MOL0     H99197  -1.314   3.341   1.006 -1.5719  1.5631  0.7152
  735MOL0     H99198  -1.492   3.327   0.978 -1.4270 -2.9407 -2.7950
  735MOL0     H99199  -1.451   3.292   0.733  0.8603  3.4782  1.3616
  735MOL0     H99200  -1.450   3.173   0.870 -0.5710  0.6976 -0.1701
  735MOL0     H99201  -1.196   3.254   0.732  1.2325 -0.6148  2.0230
  735MOL0     H99202  -1.206   3.166   0.881 -1.0484  2.0206  1.5199
  735MOL0     H99203  -1.377   3.076   0.635  1.0730  0.0185 -1.7849
  735MOL0     H99204  -1.344   2.982   0.782 -1.1882  0.3928 -1.5634
  735MOL0     H99205  -1.134   3.050   0.569 -0.0835  0.7768 -0.3573
  735MOL0     H99206  -1.245   2.904   0.570  0.1443  1.0157 -0.2760
  735MOL0     H99207  -1.292   3.572   1.236 -0.2518  1.3439  2.5157
  735MOL0     H99208  -1.179   3.474   1.444 -0.6435  0.0906 -0.5193
  735MOL0     H99209  -0.945   2.966   1.453 -1.1817  0.1272  0.3810
  735MOL0     H99210  -0.916   2.821   1.635 -2.0871  0.2384  2.6979
  735MOL0     H99211   0.899   3.439   1.956  0.4824  0.3511  2.8176
  735MOL0     H99212   0.897   3.672   2.015  0.1051 -1.5411  1.2162
  735MOL0     H99213   0.552   4.064   2.052 -1.8306  2.1622  2.4267
  735MOL0     H99214   0.501   4.313   2.017 -1.6849 -0.2015 -0.0934
  735MOL0     H99215   0.814   4.597   1.846  1.7958  2.9027 -5.4737
  735MOL0     H99216   0.743   4.515   1.708 -3.0101  0.8199 -1.9356
  735MOL0     H99217   0.557   4.671   1.713  0.1035  0.6045 -0.6156
  735MOL0     H99218   0.698   4.761   1.678 -1.4654 -0.9823 -0.9306
  735MOL0     H99219   0.703   4.833   1.926 -0.0045  2.0985 -0.8407
  735MOL0     H99220   0.557   4.737   1.947  1.0890 -0.3866 -0.0899
  735MOL0     H99221   0.488   4.976   1.922 -0.3834 -2.7176  1.6957
  735MOL0     H99222   0.463   4.885   1.765  2.1972 -2.7760 -0.4121
  735MOL0     H99223   0.764   5.170   1.673 -0.2512 -0.0891 -1.5447
  735MOL0     H99224   0.868   4.344   1.791  0.6677  1.2766  1.2054
  735MOL0     H99225   0.926   4.113   1.865 -2.5050 -3.4372  2.2674
  736MOL0     O99226   5.658   6.279   9.800 -0.1293 -0.7189 -0.3015
  736MOL0     C99227   5.681   6.181   9.874  0.0846 -1.0369  0.2116
  736MOL0     O99228   5.740   6.187  10.001  0.0660 -0.4941 -0.0141
  736MOL0     C99229   5.719   6.293  10.086  0.3877 -0.1998  0.1929
  736MOL0     C99230   5.783   6.287  10.208  0.7138 -0.0909  0.4866
  736MOL0     C99231   5.769   6.387  10.306  0.4530  0.5962 -0.3220
  736MOL0     C99232   5.674   6.487  10.291  0.0050 -0.2525  0.1123
  736MOL0     O99233   5.644   6.595  10.377 -0.0726  0.1132  0.2719
  736MOL0     C99234   5.685   6.595  10.513 -0.2689 -0.0065 -0.3185
  736MOL0     C99235   5.628   6.718  10.571  0.1567  0.2775  1.5151
  736MOL0     C99236   5.639   6.717  10.717 -0.5593  0.4563 -0.5448
  736MOL0     C99237   5.576   6.831  10.784  0.4580 -0.2451 -0.6792
  736MOL0     C99238   5.635   6.842  10.936  0.2373 -0.1667 -0.5003
  736MOL0     C99239   5.596   6.979  10.986  0.4026  0.3347 -0.0600
  736MOL0     C99240   5.703   7.034  11.089  0.0222 -0.6785 -0.1222
  736MOL0     C99241   5.664   7.170  11.158 -0.5078 -0.6852  0.0272
  736MOL0     N99242   5.638   7.279  11.061 -0.0697 -0.5117 -0.2453
  736MOL0     C99243   5.511   7.306  11.012  0.4821 -0.3721  0.6535
  736MOL0     C99244   5.524   7.404  10.924  0.0938  1.1640  0.0781
  736MOL0     C99245   5.415   7.467  10.833 -1.2333 -0.8289 -0.2463
  736MOL0     C99246   5.436   7.449  10.679  0.5498 -0.4285  0.1996
  736MOL0     C99247   5.439   7.303  10.640 -0.2895 -0.2430 -0.5631
  736MOL0     C99248   5.383   7.270  10.498  1.2138  0.3170 -0.9754
  736MOL0     O99249   5.425   7.132  10.472 -0.3706 -1.0679  0.0058
  736MOL0     C99250   5.335   7.047  10.427  0.1821  0.3475  0.7174
  736MOL0     C99251   5.194   7.037  10.444 -1.2312 -0.1997 -0.7448
  736MOL0     C99252   5.131   6.919  10.409 -0.8092  0.0878 -0.7590
  736MOL0     C99253   4.984   6.917  10.441 -0.1447 -0.7602  1.2679
  736MOL0     C99254   5.193   6.821  10.339  0.2240 -0.5354 -0.3719
  736MOL0     C99255   5.113   6.706  10.276  0.1368  0.8909 -0.3335
  736MOL0     O99256   5.175   6.582  10.269 -0.0269 -0.5443 -0.5256
  736MOL0     C99257   5.097   6.472  10.276 -0.2682  0.0233  0.5258
  736MOL0     C99258   4.963   6.457  10.319  1.1017 -0.4999  0.4887
  736MOL0     C99259   4.898   6.330  10.307  0.4080  0.2603 -0.0001
  736MOL0     C99260   4.967   6.218  10.259 -0.8184  0.3303  0.6327
  736MOL0     O99261   4.914   6.093  10.234 -0.1998 -0.6563 -0.3575
  736MOL0     C99262   4.806   6.056  10.315  0.5361  0.6925  0.8332
  736MOL0     C99263   4.832   5.929  10.387 -0.3848  0.4274  0.0114
  736MOL0     C99264   4.935   5.931  10.507 -0.1507 -0.4114  0.0251
  736MOL0     C99265   4.955   5.803  10.583 -1.3439 -0.8922  0.1146
  736MOL0     C99266   5.000   5.681  10.496 -0.7058  0.6925  0.0300
  736MOL0     C99267   5.071   5.577  10.577 -0.0082  0.4638 -0.1646
  736MOL0     C99268   5.088   5.447  10.488 -0.8460  0.2594 -0.6342
  736MOL0     C99269   5.183   5.359  10.566 -0.7392 -0.5978  0.3161
  736MOL0    Cl99270   5.111   5.277  10.697 -0.6205  0.2959  0.1181
  736MOL0     C99271   5.090   6.239  10.206 -0.0367  0.7660 -0.4229
  736MOL0     C99272   5.156   6.367  10.217 -0.2729 -0.5125 -1.2611
  736MOL0     O99273   5.005   6.726  10.230  0.5638 -0.1063  0.2546
  736MOL0     C99274   5.331   6.820  10.326 -1.4874 -0.4751  0.0141
  736MOL0     C99275   5.401   6.935  10.367  0.6452  0.2415 -0.1305
  736MOL0     N99276   5.656   7.446  10.921 -0.2206 -0.1675  1.1649
  736MOL0     N99277   5.725   7.365  10.996  0.0558 -0.1324  0.4380
  736MOL0     C99278   5.592   6.484  10.179  0.4826 -0.4078  0.7440
  736MOL0     C99279   5.611   6.387  10.067  0.2524 -0.2493 -0.7773
  736MOL0     C99280   5.619   6.063   9.810 -0.9373  1.4286  0.1327
  736MOL0     C99281   5.573   5.952   9.887 -0.8699 -0.3136 -0.3961
  736MOL0     C99282   5.510   5.843   9.828 -0.1361  0.2003 -1.0919
  736MOL0     C99283   5.495   5.837   9.685  0.0409  1.0776 -0.1878
  736MOL0     O99284   5.440   5.731   9.622 -0.1228  0.6937 -0.2203
  736MOL0     C99285   5.471   5.599   9.681 -1.0520 -0.6566  0.1210
  736MOL0     C99286   5.600   5.531   9.643 -0.1141 -0.5780 -0.3258
  736MOL0     C99287   5.614   5.507   9.492  0.5313  0.7181  0.1226
  736MOL0     C99288   5.761   5.494   9.445 -0.2109 -0.3876 -0.3582
  736MOL0     C99289   5.780   5.416   9.324  0.6478  0.0945 -0.0682
  736MOL0     C99290   5.785   5.346   9.226  0.3804  0.3825 -0.4132
  736MOL0     C99291   5.556   5.933   9.606  1.1841  0.2069 -0.5245
  736MOL0     C99292   5.611   6.050   9.668 -0.3958  0.0622 -1.3784
  736MOL0     H99293   5.858   6.210  10.218  0.4463 -0.7685 -2.0036
  736MOL0     H99294   5.833   6.380  10.394 -0.4864  0.6984  0.3835
  736MOL0     H99295   5.635   6.519  10.575 -3.1038  3.0946  1.4901
  736MOL0     H99296   5.793   6.595  10.533 -0.1274  0.3113 -1.0550
  736MOL0     H99297   5.682   6.799  10.522 -1.3239  0.8041  0.6868
  736MOL0     H99298   5.521   6.721  10.548  0.5604  2.3599 -0.3996
  736MOL0     H99299   5.580   6.628  10.743  1.2437 -0.5044  0.4054
  736MOL0     H99300   5.740   6.715  10.757 -0.7956  0.4675  0.0625
  736MOL0     H99301   5.613   6.926  10.745  2.9404 -0.6595  0.4584
  736MOL0     H99302   5.467   6.832  10.771  0.5185  0.5671 -1.1897
  736MOL0     H99303   5.591   6.771  11.007  2.0409  0.8490  1.7641
  736MOL0     H99304   5.744   6.828  10.938  0.1312 -2.1619 -2.8994
  736MOL0     H99305   5.593   7.060  10.913 -0.5733  1.5172  1.2416
  736MOL0     H99306   5.493   6.975  11.023 -0.6528 -0.4950 -2.7991
  736MOL0     H99307   5.724   6.964  11.171  0.3177 -2.0899 -1.3467
  736MOL0     H99308   5.799   7.051  11.040  0.1549  2.7336  1.0951
  736MOL0     H99309   5.748   7.206  11.218 -2.7533  1.3220  2.1882
  736MOL0     H99310   5.581   7.161  11.228  1.1256 -0.3049  2.1025
  736MOL0     H99311   5.423   7.252  11.044  0.1657  1.0953  2.3916
  736MOL0     H99312   5.315   7.427  10.849 -0.8337 -4.1069 -4.3322
  736MOL0     H99313   5.419   7.574  10.857 -0.0577 -1.2930  1.8453
  736MOL0     H99314   5.525   7.505  10.648  1.9795 -2.2581  0.8701
  736MOL0     H99315   5.341   7.479  10.634  0.6997 -0.1117  0.0928
  736MOL0     H99316   5.389   7.243  10.717  0.4975  0.2044  0.3196
  736MOL0     H99317   5.545   7.274  10.636  0.0455  1.0796 -3.1889
  736MOL0     H99318   5.425   7.338  10.423 -0.6414 -1.4050 -3.7359
  736MOL0     H99319   5.274   7.278  10.502  0.8924 -3.0754 -0.3547
  736MOL0     H99320   5.139   7.119  10.489  0.6324  1.6848 -1.6994
  736MOL0     H99321   4.958   6.933  10.546 -0.6009 -0.8464  1.1666
  736MOL0     H99322   4.945   6.996  10.377  0.7771 -0.6998  0.7635
  736MOL0     H99323   4.929   6.824  10.427 -3.1664  1.0853 -0.2061
  736MOL0     H99324   4.915   6.549  10.349  0.5206  0.0056 -1.7699
  736MOL0     H99325   4.789   6.326  10.308  0.4056 -0.1807  1.7106
  736MOL0     H99326   4.780   6.125  10.396 -2.9472  0.2082  0.2855
  736MOL0     H99327   4.720   6.023  10.257  1.6551  0.8350 -0.9891
  736MOL0     H99328   4.733   5.903  10.424 -0.2734 -1.0474 -0.6772
  736MOL0     H99329   4.863   5.857  10.311 -0.6003 -0.3421  0.6380
  736MOL0     H99330   4.905   6.008  10.579  0.7592 -0.1038  0.0875
  736MOL0     H99331   5.034   5.954  10.467 -1.2713  2.5407 -1.3708
  736MOL0     H99332   5.035   5.816  10.657  1.2515 -7.0750 -0.9198
  736MOL0     H99333   4.863   5.769  10.632  0.2202 -2.7463  1.9683
  736MOL0     H99334   5.065   5.701  10.410  1.2445 -1.3272  0.9141
  736MOL0     H99335   4.913   5.627  10.459  0.8073 -1.6788 -0.2776
  736MOL0     H99336   5.174   5.601  10.606  0.2066 -0.3046 -0.2617
  736MOL0     H99337   5.015   5.560  10.669  0.5548  0.0866  0.1167
  736MOL0     H99338   5.141   5.478  10.397  1.1402  0.9309  0.6975
  736MOL0     H99339   5.000   5.392  10.453 -0.8334 -0.8885  1.0333
  736MOL0     H99340   5.267   5.415  10.608 -0.9617 -0.4479  0.5659
  736MOL0     H99341   5.235   5.299  10.491  0.0410 -0.5118  0.7760
  736MOL0     H99342   5.139   6.161  10.150  1.2890  1.9435 -0.9796
  736MOL0     H99343   5.256   6.375  10.176  1.4167 -1.9233  2.1447
  736MOL0     H99344   5.391   6.743  10.279  0.6426  1.0139  0.1595
  736MOL0     H99345   5.507   6.935  10.344  0.7587  1.8478  0.2519
  736MOL0     H99346   5.522   6.563  10.157  1.6691 -0.0916 -2.4248
  736MOL0     H99347   5.567   6.412   9.971  2.5493 -0.3967 -1.9564
  736MOL0     H99348   5.584   5.962   9.994 -0.3648 -0.0924 -0.4654
  736MOL0     H99349   5.464   5.774   9.898 -1.0263  3.7278  2.1838
  736MOL0     H99350   5.474   5.596   9.790  0.1498 -0.9575  0.0907
  736MOL0     H99351   5.395   5.526   9.651 -1.7451 -0.3800  1.1682
  736MOL0     H99352   5.610   5.440   9.702 -1.5172  0.2056  1.2100
  736MOL0     H99353   5.675   5.601   9.683 -0.1628  1.1751 -3.0207
  736MOL0     H99354   5.562   5.587   9.438 -1.5129  0.0684  1.0623
  736MOL0     H99355   5.563   5.416   9.462 -0.0932  1.4647 -1.1500
  736MOL0     H99356   5.817   5.430   9.514 -0.3504  1.2767  1.4032
  736MOL0     H99357   5.822   5.585   9.454 -3.5745  1.9216  1.1941
  736MOL0     H99358   5.804   5.283   9.142 -0.3857 -0.7844  0.2587
  736MOL0     H99359   5.540   5.914   9.500 -4.6009  0.6004 -0.0386
  736MOL0     H99360   5.649   6.124   9.599 -0.8544 -0.2599 -1.9791
  737MOL0     O99361   4.698  10.535   1.200 -0.1088 -0.3756 -0.5778
  737MOL0     C99362   4.748  10.556   1.313 -0.2705 -0.0700  0.4172
  737MOL0     O99363   4.767  10.454   1.403 -0.7033  0.1323  0.1571
  737MOL0     C99364   4.786  10.329   1.360  0.3614 -0.6119 -0.7964
  737MOL0     C99365   4.731  10.238   1.453 -0.1355  0.6667 -0.2218
  737MOL0     C99366   4.758  10.106   1.432 -0.2872 -0.3911 -0.0558
  737MOL0     C99367   4.814  10.045   1.324 -0.5046  0.5426 -0.6024
  737MOL0     O99368   4.833   9.904   1.326  0.6147  0.0235  0.3145
  737MOL0     C99369   4.880   9.846   1.201  0.5663 -0.2711 -0.5293
  737MOL0     C99370   4.882   9.694   1.210 -0.3985 -0.4354  0.8994
  737MOL0     C99371   5.034   9.651   1.259  0.1260  0.7870  1.0159
  737MOL0     C99372   5.048   9.494   1.296 -0.2253 -0.2621  0.4807
  737MOL0     C99373   5.187   9.458   1.349  0.5657  1.0582 -0.7370
  737MOL0     C99374   5.187   9.310   1.400 -0.1065 -0.0428 -0.0998
  737MOL0     C99375   5.308   9.286   1.500 -0.0115  0.7449  0.4585
  737MOL0     C99376   5.274   9.352   1.635 -0.0023 -0.2028 -0.7129
  737MOL0     N99377   5.405   9.386   1.697 -0.2597 -0.0420 -0.4839
  737MOL0     C99378   5.495   9.292   1.748 -0.6605  0.3764  0.6214
  737MOL0     C99379   5.594   9.368   1.802  0.2287 -0.1181  0.0456
  737MOL0     C99380   5.713   9.314   1.875 -0.2296  0.4362  0.7373
  737MOL0     C99381   5.754   9.405   1.989  0.4230 -0.5128  0.5408
  737MOL0     C99382   5.879   9.343   2.053 -0.2056 -0.4063  0.8178
  737MOL0     C99383   5.927   9.441   2.162  0.5052  0.1129 -0.7128
  737MOL0     O99384   6.031   9.363   2.233 -0.4073 -1.0615  0.6525
  737MOL0     C99385   6.152   9.421   2.247  0.2395  0.3155 -0.6276
  737MOL0     C99386   6.181   9.536   2.324  1.0665  0.1342 -0.6316
  737MOL0     C99387   6.317   9.572   2.348  0.6087  0.2026  0.1860
  737MOL0     C99388   6.341   9.663   2.461 -0.6368 -0.7673  0.3625
  737MOL0     C99389   6.412   9.537   2.249 -1.3370  0.5516  0.6295
  737MOL0     C99390   6.560   9.572   2.247  0.0823 -0.6997 -0.0797
  737MOL0     O99391   6.616   9.581   2.122  0.0944  0.5393 -0.3126
  737MOL0     C99392   6.747   9.584   2.121  1.1765 -0.1487 -0.0484
  737MOL0     C99393   6.827   9.481   2.066 -0.0992  0.3142  0.2765
  737MOL0     C99394   6.959   9.502   2.041  0.6610  0.3249  0.2158
  737MOL0     C99395   7.023   9.613   2.101 -0.6419 -0.3403  0.3587
  737MOL0     O99396   7.154   9.638   2.071  0.1638 -0.3046  0.1498
  737MOL0     C99397   7.248   9.562   2.145 -0.2046  0.5445  0.4877
  737MOL0     C99398   7.363   9.516   2.051  0.1416  0.7698 -0.3848
  737MOL0     C99399   7.407   9.621   1.950 -0.7722 -0.7685  0.2720
  737MOL0     C99400   7.534   9.591   1.861 -0.2453  0.5731 -0.0228
  737MOL0     C99401   7.619   9.706   1.804 -0.5498  1.2082 -0.4290
  737MOL0     C99402   7.667   9.804   1.904 -0.1537  0.4131  0.0466
  737MOL0     C99403   7.778   9.889   1.854  0.1535  0.8187  0.8061
  737MOL0     C99404   7.830   9.995   1.949  0.3618 -0.1094 -0.0284
  737MOL0    Cl99405   7.920   9.910   2.075 -0.1480  0.3316 -0.2095
  737MOL0     C99406   6.953   9.713   2.159  0.2887 -0.2432  0.0993
  737MOL0     C99407   6.813   9.701   2.172 -0.3763  0.4321 -0.7801
  737MOL0     O99408   6.617   9.609   2.345  0.6594 -0.3039  0.0747
  737MOL0     C99409   6.377   9.432   2.152  0.1228  0.3179 -0.5795
  737MOL0     C99410   6.253   9.360   2.173  0.0188  0.1612 -0.4304
  737MOL0     N99411   5.565   9.509   1.778 -0.3120  0.3611 -0.5961
  737MOL0     N99412   5.449   9.512   1.726 -0.4769  0.3660 -0.4790
  737MOL0     C99413   4.868  10.132   1.227 -0.0319  0.0340 -0.3007
  737MOL0     C99414   4.858  10.274   1.251 -1.1176 -0.0290 -0.0172
  737MOL0     C99415   4.780  10.694   1.351 -0.4791 -0.1301  0.1675
  737MOL0     C99416   4.764  10.794   1.256 -0.3779  0.3411  0.3093
  737MOL0     C99417   4.799  10.925   1.298  0.6319 -0.7616 -0.0564
  737MOL0     C99418   4.845  10.954   1.428  0.4965 -0.1416  0.2971
  737MOL0     O99419   4.867  11.084   1.447 -0.0238  0.0506 -0.1940
  737MOL0     C99420   5.003  11.110   1.455  0.6699  0.0089 -0.1365
  737MOL0     C99421   5.024  11.233   1.368  0.0352  0.1152  1.0906
  737MOL0     C99422   5.023  11.199   1.212 -0.9119 -0.6444  0.2040
  737MOL0     C99423   5.105  11.299   1.136 -0.3703  0.8038 -0.3093
  737MOL0     C99424   5.124  11.269   1.000 -0.6099 -0.7510 -0.0657
  737MOL0     C99425   5.131  11.238   0.886  0.5621  0.0158 -0.1476
  737MOL0     C99426   4.866  10.856   1.526  0.3025  0.5883  0.4110
  737MOL0     C99427   4.827  10.725   1.491  0.9306 -0.6124  0.2459
  737MOL0     H99428   4.664  10.258   1.536 -3.1285 -2.1055 -1.7516
  737MOL0     H99429   4.720  10.034   1.505  1.6834 -2.3533 -0.8602
  737MOL0     H99430   4.805   9.867   1.125  1.2299 -1.5691 -1.5812
  737MOL0     H99431   4.982   9.870   1.169  0.6307 -0.7156 -0.6764
  737MOL0     H99432   4.802   9.660   1.275 -0.0705  1.6213  2.4574
  737MOL0     H99433   4.866   9.663   1.106 -2.8868  2.3842  0.3123
  737MOL0     H99434   5.110   9.668   1.183  0.9620  0.4742  1.7649
  737MOL0     H99435   5.063   9.709   1.347 -2.0572  0.1298  2.2459
  737MOL0     H99436   4.965   9.489   1.367 -0.9597 -1.5999 -0.4457
  737MOL0     H99437   5.026   9.434   1.207 -0.9662  1.0253 -0.2303
  737MOL0     H99438   5.258   9.458   1.265  1.7787 -2.4833  0.0737
  737MOL0     H99439   5.219   9.529   1.425 -3.2443  1.9551  0.2188
  737MOL0     H99440   5.097   9.277   1.454  0.0169 -0.9297 -0.4232
  737MOL0     H99441   5.190   9.250   1.309  0.7415 -2.0619  1.1959
  737MOL0     H99442   5.328   9.178   1.503 -1.1564  0.4351 -1.4886
  737MOL0     H99443   5.392   9.338   1.452 -1.7716  2.1839 -1.2176
  737MOL0     H99444   5.241   9.270   1.700  4.0821 -1.2382  0.3555
  737MOL0     H99445   5.207   9.438   1.632 -2.2610 -1.7982  0.6000
  737MOL0     H99446   5.504   9.185   1.733 -1.9625  0.1254  1.5119
  737MOL0     H99447   5.688   9.214   1.910  1.9798  0.2366  1.8637
  737MOL0     H99448   5.793   9.309   1.801 -1.0096 -0.8520 -0.0572
  737MOL0     H99449   5.675   9.421   2.063  2.7729 -0.5943  3.2539
  737MOL0     H99450   5.777   9.503   1.947 -1.6610 -1.1215 -2.3130
  737MOL0     H99451   5.962   9.345   1.983 -1.4437 -0.6848 -0.7095
  737MOL0     H99452   5.859   9.238   2.076 -1.0025 -1.4360 -3.7317
  737MOL0     H99453   5.852   9.465   2.238  2.2598  1.8077  0.5997
  737MOL0     H99454   5.968   9.531   2.116 -0.6951  0.9626 -0.1596
  737MOL0     H99455   6.102   9.565   2.393 -0.1252  1.3160 -2.4000
  737MOL0     H99456   6.377   9.762   2.432 -0.6765 -0.2477  1.9485
  737MOL0     H99457   6.250   9.690   2.514 -0.7727  0.9540 -0.6799
  737MOL0     H99458   6.408   9.620   2.537 -0.8801  0.7153  1.4588
  737MOL0     H99459   6.775   9.395   2.026  1.5325 -0.2157 -0.7839
  737MOL0     H99460   7.019   9.431   1.985  0.8823  1.6582 -1.3293
  737MOL0     H99461   7.300   9.631   2.213  2.1265 -0.3735 -0.2466
  737MOL0     H99462   7.208   9.477   2.200 -1.5073  0.2900 -0.7804
  737MOL0     H99463   7.434   9.485   2.128  0.5178  1.8830 -0.2536
  737MOL0     H99464   7.332   9.428   1.994  2.2251  0.6824 -1.4724
  737MOL0     H99465   7.437   9.699   2.020 -0.7254 -1.1702  0.7049
  737MOL0     H99466   7.332   9.665   1.884 -0.5843 -1.5839 -0.5113
  737MOL0     H99467   7.605   9.519   1.903  0.2406  0.6600 -0.6911
  737MOL0     H99468   7.499   9.526   1.780  0.3978  0.3129 -0.0954
  737MOL0     H99469   7.570   9.748   1.715  3.0629  2.3419 -2.0900
  737MOL0     H99470   7.702   9.657   1.752 -1.1638 -0.9235  0.4903
  737MOL0     H99471   7.586   9.877   1.917 -1.2725 -0.8171  0.2581
  737MOL0     H99472   7.684   9.763   2.004 -2.9025  1.4392  1.0407
  737MOL0     H99473   7.736   9.948   1.772 -2.7323  1.4534  2.6117
  737MOL0     H99474   7.860   9.822   1.826 -1.7228 -2.0428  1.7093
  737MOL0     H99475   7.741  10.046   1.988  1.1765  1.2424  0.1145
  737MOL0     H99476   7.896  10.071   1.906 -0.1611  0.1683 -0.3661
  737MOL0     H99477   6.999   9.800   2.203 -0.4974  0.4404 -0.3819
  737MOL0     H99478   6.759   9.777   2.228  0.1110 -0.5167  1.0539
  737MOL0     H99479   6.454   9.395   2.085  0.3443 -0.0943 -0.1071
  737MOL0     H99480   6.225   9.272   2.116  0.6029 -0.4234  0.1752
  737MOL0     H99481   4.923  10.105   1.137 -0.0589  2.3607 -1.0855
  737MOL0     H99482   4.891  10.339   1.170  2.0500 -2.6567 -1.0509
  737MOL0     H99483   4.727  10.770   1.157  3.1981 -0.7274 -0.9376
  737MOL0     H99484   4.782  11.009   1.231  4.1985 -0.2370 -0.4612
  737MOL0     H99485   5.029  11.127   1.560 -0.2834 -1.6144  0.3979
  737MOL0     H99486   5.069  11.029   1.422 -1.1671 -2.4975  1.8692
  737MOL0     H99487   5.117  11.284   1.393  1.2426 -1.4421 -0.0290
  737MOL0     H99488   4.948  11.310   1.386 -1.9241 -1.4736 -0.0036
  737MOL0     H99489   4.929  11.165   1.167 -0.1648  0.0990 -2.0345
  737MOL0     H99490   5.087  11.111   1.205 -1.7010 -1.1596 -0.8315
  737MOL0     H99491   5.208  11.310   1.172 -0.9783 -0.6631  2.0990
  737MOL0     H99492   5.048  11.392   1.146 -0.1411  1.0139 -0.9043
  737MOL0     H99493   5.157  11.218   0.784  1.5771  2.1331 -0.3650
  737MOL0     H99494   4.906  10.888   1.622  2.9762  1.0730 -0.7606
  737MOL0     H99495   4.842  10.635   1.550 -0.7887 -1.4887 -0.5637
  738MOL0     O99496   0.973   4.335   8.576  0.4521  0.6187  0.3769
  738MOL0     C99497   0.953   4.275   8.471  0.2155  0.0615 -0.2164
  738MOL0     O99498   0.940   4.329   8.347 -0.2918 -0.3739  0.3745
  738MOL0     C99499   0.966   4.473   8.343  0.8848  1.7097  1.0374
  738MOL0     C99500   1.094   4.520   8.346 -0.0333  0.5199 -0.5531
  738MOL0     C99501   1.119   4.651   8.313 -0.0381 -0.2425  0.2745
  738MOL0     C99502   1.004   4.740   8.303  0.0836  0.1940 -0.1569
  738MOL0     O99503   1.040   4.868   8.266  0.0196  0.1698 -0.1422
  738MOL0     C99504   0.941   4.977   8.272 -0.0746 -0.4400  0.6060
  738MOL0     C99505   0.933   5.016   8.427  0.2129  0.3034 -0.1450
  738MOL0     C99506   1.063   5.060   8.494 -0.3929  0.6850  0.3992
  738MOL0     C99507   1.035   5.106   8.639 -0.5727 -0.4960  0.2112
  738MOL0     C99508   1.152   5.093   8.733 -0.6740  0.4108 -0.9375
  738MOL0     C99509   1.111   5.139   8.876  0.0823 -0.1647 -0.0748
  738MOL0     C99510   0.997   5.078   8.951  0.0379 -0.3870  0.5440
  738MOL0     C99511   0.856   5.139   8.923  0.8592 -0.4942  0.7513
  738MOL0     N99512   0.753   5.065   9.007  0.0981 -0.9306  0.3557
  738MOL0     C99513   0.706   5.115   9.129  0.7702 -1.0753 -0.1488
  738MOL0     C99514   0.608   5.032   9.168  0.3491 -0.0857 -0.2633
  738MOL0     C99515   0.520   5.037   9.296  0.2250  0.4211 -0.1196
  738MOL0     C99516   0.395   4.955   9.293  0.4502  0.4083 -0.3445
  738MOL0     C99517   0.380   4.856   9.409  0.4154 -0.8169  0.7603
  738MOL0     C99518   0.389   4.915   9.551  0.5557 -0.3047  0.7562
  738MOL0     O99519   0.342   5.050   9.576  0.2646  0.7672  0.1527
  738MOL0     C99520   0.207   5.079   9.558  0.8446 -0.3202 -0.5868
  738MOL0     C99521   0.166   5.215   9.569 -0.0292 -0.2614  0.6509
  738MOL0     C99522   0.038   5.253   9.531 -0.2472  0.0802  0.8171
  738MOL0     C99523  -0.007   5.403   9.547  0.7931 -1.0532  0.3750
  738MOL0     C99524  -0.055   5.149   9.489 -0.7412  0.7183  0.7133
  738MOL0     C99525  -0.184   5.171   9.419  0.6566  1.0076 -0.2844
  738MOL0     O99526  -0.269   5.061   9.422 -0.5485 -0.2847 -0.5048
  738MOL0     C99527  -0.405   5.092   9.417 -0.3485 -0.2507  0.2993
  738MOL0     C99528  -0.505   4.993   9.396  0.0152  0.6337  0.2998
  738MOL0     C99529  -0.638   5.003   9.411  0.6394 -0.0968  0.7118
  738MOL0     C99530  -0.688   5.122   9.455 -0.5268 -1.0313 -0.3237
  738MOL0     O99531  -0.821   5.156   9.464 -0.3178  0.0764  0.2107
  738MOL0     C99532  -0.891   5.196   9.342 -0.6333 -0.0792  0.2181
  738MOL0     C99533  -1.033   5.241   9.371 -0.9842 -0.3168 -0.2970
  738MOL0     C99534  -1.090   5.343   9.279  0.4965 -0.8242  0.9370
  738MOL0     C99535  -1.151   5.274   9.152 -0.1938  1.4249 -0.9648
  738MOL0     C99536  -1.212   5.351   9.038 -1.2113 -1.3704  0.8723
  738MOL0     C99537  -1.109   5.446   8.960  0.4489 -0.5156 -0.2299
  738MOL0     C99538  -1.170   5.525   8.841  0.0565  0.1876  0.3044
  738MOL0     C99539  -1.074   5.622   8.768 -0.6227  0.6409  0.5164
  738MOL0    Cl99540  -1.055   5.770   8.872 -0.2103 -0.4042  0.4987
  738MOL0     C99541  -0.594   5.229   9.466  0.5366 -0.3664  0.7546
  738MOL0     C99542  -0.458   5.213   9.456 -0.4374 -0.2046  1.0935
  738MOL0     O99543  -0.186   5.262   9.339 -0.3722  0.1083 -0.7742
  738MOL0     C99544  -0.023   5.008   9.509 -0.0642  0.0861  0.6336
  738MOL0     C99545   0.113   4.976   9.527  0.6748 -0.2107  0.1640
  738MOL0     N99546   0.599   4.929   9.075  0.9868 -0.0316 -0.1434
  738MOL0     N99547   0.676   4.952   8.971  0.0980 -0.3414 -0.1895
  738MOL0     C99548   0.871   4.699   8.318  0.5627 -0.8236 -0.4597
  738MOL0     C99549   0.861   4.559   8.346 -0.4904  0.1706 -0.3936
  738MOL0     C99550   0.963   4.131   8.483  0.2327 -0.1919 -0.6701
  738MOL0     C99551   0.898   4.066   8.586  0.0209 -0.0614 -1.0845
  738MOL0     C99552   0.913   3.929   8.596 -0.4711 -0.3316 -0.9869
  738MOL0     C99553   0.993   3.858   8.509  0.8517  0.2066  0.2303
  738MOL0     O99554   1.015   3.728   8.510  0.4489  0.2943  0.3320
  738MOL0     C99555   0.899   3.639   8.534  0.4394  0.8951  0.4126
  738MOL0     C99556   0.801   3.639   8.411  0.0685 -0.5967 -0.2995
  738MOL0     C99557   0.705   3.524   8.391  0.1100 -0.4941 -0.5207
  738MOL0     C99558   0.768   3.407   8.318 -0.0762  0.4479 -0.0319
  738MOL0     C99559   0.799   3.434   8.172  0.0059  0.5627  0.6320
  738MOL0     C99560   0.810   3.475   8.062 -0.8324  0.4736  0.1629
  738MOL0     C99561   1.062   3.934   8.407  1.0243  0.7604 -0.1037
  738MOL0     C99562   1.045   4.073   8.382 -0.0429 -0.2176 -0.6510
  738MOL0     H99563   1.178   4.458   8.377 -1.7545 -3.1834 -2.6181
  738MOL0     H99564   1.220   4.691   8.316  0.5790 -1.7826  0.4529
  738MOL0     H99565   0.977   5.064   8.215  1.4984 -0.2272  1.8390
  738MOL0     H99566   0.847   4.952   8.223 -1.2401  1.8142  1.5053
  738MOL0     H99567   0.867   5.102   8.443 -2.2996 -1.5633  0.0637
  738MOL0     H99568   0.874   4.945   8.485  3.7586 -1.5850  1.4586
  738MOL0     H99569   1.127   4.971   8.489  2.2051  2.2829  2.5275
  738MOL0     H99570   1.116   5.145   8.449  1.3613  1.8721  4.2933
  738MOL0     H99571   1.018   5.214   8.643  1.6932 -0.1123  2.1081
  738MOL0     H99572   0.959   5.042   8.684  0.0812 -1.5257 -0.1197
  738MOL0     H99573   1.172   4.987   8.753 -4.4323 -0.4907 -1.1936
  738MOL0     H99574   1.234   5.160   8.704  0.1865  1.6563  3.6005
  738MOL0     H99575   1.204   5.124   8.932  0.5488  2.0900 -0.1553
  738MOL0     H99576   1.097   5.247   8.873 -0.3789 -0.2230 -0.1378
  738MOL0     H99577   1.009   4.971   8.932 -0.4221 -0.3147 -0.1549
  738MOL0     H99578   1.008   5.093   9.059 -0.1404  1.5763  0.3265
  738MOL0     H99579   0.827   5.128   8.818  0.5387  1.3442  0.5976
  738MOL0     H99580   0.834   5.245   8.940 -1.0965 -0.3001 -2.2713
  738MOL0     H99581   0.727   5.207   9.183  0.9401  1.5607 -4.2206
  738MOL0     H99582   0.591   5.012   9.376  0.2101  1.3278  0.1903
  738MOL0     H99583   0.503   5.144   9.309  0.2461  0.3974  0.1077
  738MOL0     H99584   0.382   4.900   9.200  2.9047 -4.3912  1.7887
  738MOL0     H99585   0.314   5.025   9.313 -2.1765 -2.9280  1.7225
  738MOL0     H99586   0.441   4.767   9.394  2.0131  0.1078  1.4688
  738MOL0     H99587   0.277   4.821   9.398 -0.0407  0.4455  0.7950
  738MOL0     H99588   0.488   4.938   9.591  1.1458  0.1542 -0.8960
  738MOL0     H99589   0.351   4.836   9.617 -0.6209 -1.2698 -0.9721
  738MOL0     H99590   0.251   5.278   9.593  0.3724 -0.5225 -0.0546
  738MOL0     H99591  -0.111   5.405   9.581  0.2997 -2.2322 -0.9824
  738MOL0     H99592   0.037   5.457   9.632 -4.1514  0.1318  2.5347
  738MOL0     H99593   0.003   5.469   9.461  0.8903  0.8070  1.7471
  738MOL0     H99594  -0.470   4.894   9.370 -1.0141  1.0348 -3.1641
  738MOL0     H99595  -0.709   4.923   9.398 -1.3480  1.8153 -0.8935
  738MOL0     H99596  -0.836   5.287   9.315  0.6885 -1.5173 -2.3161
  738MOL0     H99597  -0.880   5.123   9.262 -2.1984  1.6578 -1.6937
  738MOL0     H99598  -1.101   5.155   9.371 -4.1786  2.0174  1.6025
  738MOL0     H99599  -1.039   5.278   9.474 -0.1537  1.6076 -0.8885
  738MOL0     H99600  -1.001   5.399   9.248  1.8711 -1.9265  2.7402
  738MOL0     H99601  -1.157   5.415   9.326  1.3586  1.6410 -1.3725
  738MOL0     H99602  -1.066   5.212   9.123  2.3217  3.0879  2.2275
  738MOL0     H99603  -1.230   5.207   9.186 -1.2780  1.3488 -3.3942
  738MOL0     H99604  -1.303   5.408   9.058  0.1827  1.4312 -0.3044
  738MOL0     H99605  -1.241   5.268   8.973 -2.1094 -0.1688 -0.3170
  738MOL0     H99606  -1.052   5.509   9.029 -3.0220  2.3655  0.3147
  738MOL0     H99607  -1.046   5.374   8.906  2.4072  0.9523 -0.0120
  738MOL0     H99608  -1.263   5.566   8.879  2.3286  2.9534  3.4995
  738MOL0     H99609  -1.199   5.455   8.762 -1.1466  1.5471 -0.4941
  738MOL0     H99610  -1.121   5.647   8.672 -2.3794  2.4847  1.7710
  738MOL0     H99611  -0.973   5.587   8.744  0.4702  2.8526  1.5693
  738MOL0     H99612  -0.637   5.316   9.513 -1.1814 -3.0085  4.6070
  738MOL0     H99613  -0.396   5.295   9.490 -2.2393  0.1754  3.8075
  738MOL0     H99614  -0.093   4.926   9.497  1.6442 -1.4909  0.8516
  738MOL0     H99615   0.136   4.871   9.515  2.1641  0.1639 -0.4680
  738MOL0     H99616   0.783   4.761   8.325  0.4245 -1.2158  2.5583
  738MOL0     H99617   0.770   4.502   8.363 -0.0160 -0.5048 -0.0616
  738MOL0     H99618   0.858   4.122   8.670  0.3207  2.4080 -2.4972
  738MOL0     H99619   0.860   3.892   8.683 -0.5639  0.7293 -0.5858
  738MOL0     H99620   0.927   3.535   8.555 -0.9088  0.2790 -0.6795
  738MOL0     H99621   0.853   3.676   8.626 -3.6161 -0.0661 -1.0185
  738MOL0     H99622   0.862   3.651   8.321 -1.9546  1.7742 -1.5011
  738MOL0     H99623   0.745   3.733   8.419  2.6379  1.1092 -1.2552
  738MOL0     H99624   0.620   3.550   8.327  1.7991  0.9676 -2.2776
  738MOL0     H99625   0.677   3.494   8.493 -0.1426 -0.8947 -0.7022
  738MOL0     H99626   0.700   3.321   8.312  0.2526  0.2794 -2.4844
  738MOL0     H99627   0.856   3.371   8.372  0.1738  0.6543 -0.3009
  738MOL0     H99628   0.828   3.537   7.976 -3.7734  0.2007 -0.7880
  738MOL0     H99629   1.138   3.874   8.358  1.5254  1.6969 -0.4947
  738MOL0     H99630   1.097   4.129   8.304  3.2109 -1.2510  0.6008
  739MOL0     O99631   7.898   4.868   5.838 -0.3684 -0.8001 -0.2054
  739MOL0     C99632   7.940   4.801   5.747 -0.1713 -0.0632 -0.2034
  739MOL0     O99633   7.995   4.679   5.761 -0.3179 -0.6346  0.7352
  739MOL0     C99634   7.967   4.613   5.881  0.3508  0.2745 -0.1811
  739MOL0     C99635   8.080   4.588   5.958  0.1075  0.2626 -0.6889
  739MOL0     C99636   8.059   4.504   6.073  0.4413  0.1076  1.0444
  739MOL0     C99637   7.926   4.454   6.110 -0.3993 -1.8213  0.2384
  739MOL0     O99638   7.890   4.357   6.207  0.5290 -0.3033 -0.0114
  739MOL0     C99639   7.965   4.338   6.327 -0.4203 -0.1716  0.4209
  739MOL0     C99640   7.933   4.443   6.432 -0.9247 -0.2437  0.1742
  739MOL0     C99641   7.785   4.472   6.450 -0.0792 -0.2707 -0.2935
  739MOL0     C99642   7.696   4.351   6.505 -0.7011  1.1022 -0.3515
  739MOL0     C99643   7.546   4.362   6.493  0.5030 -0.8535 -0.0334
  739MOL0     C99644   7.510   4.368   6.345  0.9065  0.7246  0.7532
  739MOL0     C99645   7.360   4.382   6.321  0.2117 -0.4376 -0.8656
  739MOL0     C99646   7.316   4.440   6.184  0.2681 -0.4041  0.2422
  739MOL0     N99647   7.377   4.373   6.061 -1.0407  0.0507 -0.2205
  739MOL0     C99648   7.348   4.245   6.034  0.4632 -0.3750 -0.2696
  739MOL0     C99649   7.423   4.214   5.925 -0.6437 -0.1855 -0.9530
  739MOL0     C99650   7.446   4.073   5.879 -0.0062  0.0482 -0.3845
  739MOL0     C99651   7.539   3.997   5.972  0.6530  0.4128 -0.5767
  739MOL0     C99652   7.678   4.066   5.979  0.5239 -0.0690 -0.3770
  739MOL0     C99653   7.791   3.965   6.031  0.3305 -0.4788  0.6363
  739MOL0     O99654   7.914   4.027   6.029  0.0379  0.2213 -0.5875
  739MOL0     C99655   8.008   3.978   5.941 -0.4813  0.3397  0.3623
  739MOL0     C99656   8.107   3.893   5.984 -0.0594 -0.5769 -1.1463
  739MOL0     C99657   8.194   3.829   5.901  0.5408  0.7550 -0.3656
  739MOL0     C99658   8.308   3.758   5.965 -0.0533 -0.7701 -1.0439
  739MOL0     C99659   8.180   3.840   5.762 -0.6099 -0.0662  0.8169
  739MOL0     C99660   8.281   3.794   5.661 -0.5107  0.7860 -0.3129
  739MOL0     O99661   8.287   3.861   5.544 -0.7932 -0.3997  0.4858
  739MOL0     C99662   8.361   3.811   5.446 -0.1238 -0.6643 -0.1480
  739MOL0     C99663   8.496   3.833   5.461  0.2192  1.1300 -0.0543
  739MOL0     C99664   8.585   3.785   5.361  0.6210  0.6694  0.2206
  739MOL0     C99665   8.526   3.715   5.253 -0.1485 -0.1357  0.4993
  739MOL0     O99666   8.608   3.677   5.153 -0.0214 -0.4035  0.1489
  739MOL0     C99667   8.590   3.546   5.098  0.4726 -0.8769 -0.4593
  739MOL0     C99668   8.716   3.486   5.034 -0.0604 -0.0690  0.7975
  739MOL0     C99669   8.741   3.540   4.889  0.5896  0.1623 -0.2682
  739MOL0     C99670   8.885   3.492   4.835  0.4398 -0.5957 -0.7745
  739MOL0     C99671   8.994   3.590   4.877  0.0296 -0.9540 -0.9384
  739MOL0     C99672   9.130   3.579   4.796  0.5550  0.5797  0.2868
  739MOL0     C99673   9.196   3.710   4.779 -0.2341  0.0918  0.0256
  739MOL0     C99674   9.243   3.764   4.914 -0.1141  0.7158 -0.7479
  739MOL0    Cl99675   9.342   3.900   4.872 -0.2941 -0.4303 -0.2712
  739MOL0     C99676   8.394   3.683   5.243 -0.9092  0.8180 -0.0669
  739MOL0     C99677   8.311   3.730   5.342  0.6781 -0.1064 -0.0507
  739MOL0     O99678   8.348   3.687   5.679  0.0212 -1.0175 -0.1035
  739MOL0     C99679   8.092   3.941   5.719 -0.2973 -0.0415  0.7212
  739MOL0     C99680   7.999   4.005   5.798  0.2432 -0.1469 -0.7192
  739MOL0     N99681   7.485   4.330   5.879 -0.1443  0.7808 -1.3139
  739MOL0     N99682   7.454   4.425   5.960  0.0602 -0.5013 -0.5712
  739MOL0     C99683   7.825   4.506   6.032 -0.7480  0.0710 -1.1620
  739MOL0     C99684   7.842   4.572   5.914  0.4539 -0.3684  0.4860
  739MOL0     C99685   7.958   4.858   5.612  0.6136 -0.1792 -0.4695
  739MOL0     C99686   7.922   4.996   5.589  0.0891  1.2843  0.3096
  739MOL0     C99687   7.948   5.049   5.460 -0.0417  0.1945  0.2850
  739MOL0     C99688   8.015   4.974   5.367  0.8049 -0.3722 -0.0799
  739MOL0     O99689   8.045   5.026   5.244 -1.7878 -0.7485  0.3537
  739MOL0     C99690   7.957   5.119   5.182 -0.5346  0.5358  0.0109
  739MOL0     C99691   7.966   5.098   5.031 -0.5107  0.3745  0.0532
  739MOL0     C99692   7.941   5.234   4.959 -0.3025  0.0263 -0.2941
  739MOL0     C99693   7.886   5.222   4.816  0.4033  0.1040 -0.2601
  739MOL0     C99694   7.753   5.157   4.818 -0.3617 -0.2477  0.0642
  739MOL0     C99695   7.650   5.098   4.804 -0.1708  0.7825 -0.0261
  739MOL0     C99696   8.047   4.846   5.393 -0.2554  0.9133  0.0565
  739MOL0     C99697   8.014   4.784   5.509  0.6875  0.8685  0.8110
  739MOL0     H99698   8.177   4.636   5.955  0.4100  0.2424  3.5091
  739MOL0     H99699   8.137   4.481   6.144 -1.1534 -2.0344  2.2419
  739MOL0     H99700   7.944   4.240   6.370 -1.9328  0.6474  1.6217
  739MOL0     H99701   8.073   4.343   6.311  0.0035  3.6346  3.0880
  739MOL0     H99702   7.969   4.432   6.534 -1.1608  1.3958  0.4748
  739MOL0     H99703   7.976   4.535   6.391  2.4204 -1.9454 -0.5076
  739MOL0     H99704   7.774   4.563   6.511 -2.3729  0.1576 -1.2354
  739MOL0     H99705   7.750   4.510   6.354  2.7385  1.5053 -0.7324
  739MOL0     H99706   7.722   4.259   6.452 -2.2240  0.3759  0.1113
  739MOL0     H99707   7.726   4.330   6.608 -0.5713 -0.3584 -0.6711
  739MOL0     H99708   7.499   4.276   6.541 -1.9102  0.3299 -0.1608
  739MOL0     H99709   7.507   4.457   6.531 -0.1314 -1.7689  1.6912
  739MOL0     H99710   7.561   4.456   6.303  0.4523  1.3995  1.5871
  739MOL0     H99711   7.551   4.275   6.305 -2.9609 -1.0384  0.4258
  739MOL0     H99712   7.298   4.294   6.341  0.5279 -0.1735  1.5464
  739MOL0     H99713   7.316   4.443   6.400 -2.7210 -3.6610  0.2373
  739MOL0     H99714   7.334   4.548   6.178 -1.4841 -0.0492  0.9900
  739MOL0     H99715   7.208   4.429   6.183  0.4243 -2.5970  1.8368
  739MOL0     H99716   7.291   4.172   6.090 -0.0451 -1.9005 -2.6243
  739MOL0     H99717   7.346   4.029   5.883 -0.2474  0.7018  2.2009
  739MOL0     H99718   7.490   4.077   5.779 -2.0569 -3.0084 -1.5813
  739MOL0     H99719   7.544   3.893   5.940  0.7058  0.1611  0.2324
  739MOL0     H99720   7.507   3.995   6.076 -1.7611 -2.0266 -1.2224
  739MOL0     H99721   7.661   4.130   6.066 -2.5032 -3.1450  1.5264
  739MOL0     H99722   7.697   4.123   5.887 -2.8770  3.6088  0.8580
  739MOL0     H99723   7.792   3.884   5.957  1.5144  0.4282 -0.3819
  739MOL0     H99724   7.774   3.925   6.131  1.0753 -3.3340 -0.2768
  739MOL0     H99725   8.119   3.878   6.091  1.9771  2.7533 -0.7787
  739MOL0     H99726   8.276   3.725   6.064 -1.6045  1.7289 -0.6382
  739MOL0     H99727   8.336   3.668   5.909  0.1351 -0.5090 -1.3732
  739MOL0     H99728   8.398   3.819   5.979 -0.6149 -0.4826  1.8372
  739MOL0     H99729   8.518   3.910   5.535  0.9012  3.0579 -2.1214
  739MOL0     H99730   8.691   3.807   5.366  0.8612 -0.7934  3.5208
  739MOL0     H99731   8.565   3.469   5.171 -0.9374 -0.2326 -0.2329
  739MOL0     H99732   8.508   3.549   5.026  0.1434  2.2163 -0.0730
  739MOL0     H99733   8.800   3.499   5.104 -2.0147  1.1711  3.0684
  739MOL0     H99734   8.701   3.379   5.019 -0.7308  0.4351 -3.0899
  739MOL0     H99735   8.732   3.648   4.904  1.0946 -0.1294  2.6581
  739MOL0     H99736   8.667   3.506   4.815  0.3943  0.4930 -0.2242
  739MOL0     H99737   8.898   3.392   4.876 -4.4410 -0.6150  1.5375
  739MOL0     H99738   8.879   3.484   4.726 -2.1924 -0.2528 -0.7306
  739MOL0     H99739   9.024   3.590   4.983  1.2637  1.9181 -1.1856
  739MOL0     H99740   8.949   3.689   4.863 -2.4511 -2.1980 -2.2314
  739MOL0     H99741   9.198   3.509   4.845  2.3297  2.7065  1.0427
  739MOL0     H99742   9.118   3.530   4.699  1.3502 -0.0493  0.4999
  739MOL0     H99743   9.141   3.791   4.730  0.7033  0.3773 -0.5918
  739MOL0     H99744   9.279   3.691   4.710 -1.5466 -5.9881 -0.4044
  739MOL0     H99745   9.305   3.689   4.963 -0.0775  2.9869  3.1201
  739MOL0     H99746   9.154   3.797   4.968  1.8166  4.5653  0.5036
  739MOL0     H99747   8.351   3.629   5.159  0.3968 -2.6223  1.2816
  739MOL0     H99748   8.203   3.723   5.333  0.5800 -0.5478  1.3281
  739MOL0     H99749   8.082   3.954   5.612  0.3728  2.6566  0.9014
  739MOL0     H99750   7.928   4.076   5.758 -0.4172 -0.1342  0.4511
  739MOL0     H99751   7.726   4.468   6.057 -0.7519  0.4932 -0.5127
  739MOL0     H99752   7.752   4.606   5.863 -0.9501 -3.7406  0.4687
  739MOL0     H99753   7.878   5.064   5.661 -1.7542 -0.2140  0.6689
  739MOL0     H99754   7.927   5.151   5.429  0.0664  0.1041 -0.0917
  739MOL0     H99755   7.853   5.100   5.210 -0.8526  1.4470 -0.5041
  739MOL0     H99756   7.987   5.223   5.197  0.3985 -0.0936  3.4346
  739MOL0     H99757   7.912   5.014   4.986  2.6766 -1.3329 -0.8601
  739MOL0     H99758   8.068   5.067   5.006 -0.1963  0.3282  1.2990
  739MOL0     H99759   8.038   5.285   4.958 -1.3979  2.2356 -1.7128
  739MOL0     H99760   7.877   5.297   5.020 -1.8540 -2.2127  0.5345
  739MOL0     H99761   7.950   5.156   4.757  0.4947  1.2997 -1.5752
  739MOL0     H99762   7.872   5.326   4.783  0.7039  0.9038  1.9135
  739MOL0     H99763   7.559   5.045   4.782  0.5044  0.0694 -1.1938
  739MOL0     H99764   8.090   4.787   5.312 -2.2440 -0.3532 -0.1646
  739MOL0     H99765   8.024   4.677   5.522 -3.6925  0.2355  0.6208
  740MOL0     O99766   9.887   7.398   3.025 -0.1020 -0.1521  0.2360
  740MOL0     C99767   9.799   7.403   2.938 -0.3264  0.5443  0.5031
  740MOL0     O99768   9.832   7.397   2.801  0.2794 -0.0799 -0.5911
  740MOL0     C99769   9.957   7.366   2.754  0.0406  0.1104  0.2412
  740MOL0     C99770  10.078   7.320   2.814 -0.3598 -1.3341 -0.7715
  740MOL0     C99771  10.193   7.292   2.741 -0.7895  1.1507 -1.0505
  740MOL0     C99772  10.197   7.288   2.602 -1.0657  0.3644  0.0930
  740MOL0     O99773  10.325   7.275   2.547  0.0449 -0.1061  0.2544
  740MOL0     C99774  10.355   7.345   2.428 -0.0467 -0.6856 -0.0130
  740MOL0     C99775  10.496   7.333   2.383 -0.8014  0.0631  0.1213
  740MOL0     C99776  10.514   7.448   2.286 -0.0999 -0.7168  1.2391
  740MOL0     C99777  10.469   7.423   2.141  0.5080  0.0509 -0.7523
  740MOL0     C99778  10.496   7.550   2.058 -0.1249 -0.5409  0.2484
  740MOL0     C99779  10.639   7.593   2.032  0.4497 -0.5669 -0.6052
  740MOL0     C99780  10.625   7.711   1.941  1.3608 -0.2589  0.0370
  740MOL0     C99781  10.760   7.756   1.880  0.1571 -0.4038 -0.2527
  740MOL0     N99782  10.835   7.827   1.976 -0.3177  0.5950  0.2764
  740MOL0     C99783  10.796   7.937   2.051  0.7494 -0.0642  0.2541
  740MOL0     C99784  10.897   7.955   2.141  1.2571  0.6057  0.1063
  740MOL0     C99785  10.895   8.048   2.261 -0.2033 -0.3127 -0.8582
  740MOL0     C99786  11.031   8.103   2.295 -0.6355 -0.4768 -0.8037
  740MOL0     C99787  11.096   8.204   2.190  0.8657 -0.0235  0.4246
  740MOL0     C99788  11.239   8.239   2.217 -0.0590  0.3193 -0.2729
  740MOL0     O99789  11.303   8.314   2.110 -0.7121  0.3196 -0.6361
  740MOL0     C99790  11.384   8.422   2.140  0.5423 -0.7967  0.7325
  740MOL0     C99791  11.499   8.431   2.061 -1.2557  0.1476  0.3691
  740MOL0     C99792  11.607   8.527   2.075 -1.3117  0.3589  0.5828
  740MOL0     C99793  11.730   8.516   1.983  0.1738  0.0320  0.1251
  740MOL0     C99794  11.591   8.632   2.168 -0.6557 -0.8735 -0.3146
  740MOL0     C99795  11.693   8.736   2.199  0.0307 -0.1130  0.0145
  740MOL0     O99796  11.811   8.726   2.140 -0.2580  0.7631  0.6613
  740MOL0     C99797  11.894   8.836   2.139  0.1152  0.3535  0.2361
  740MOL0     C99798  11.966   8.859   2.259 -0.3174  0.1259  0.3001
  740MOL0     C99799  12.062   8.960   2.279  1.1190  0.1124 -0.6641
  740MOL0     C99800  12.089   9.051   2.168 -0.3591  2.0312  0.4020
  740MOL0     O99801  12.171   9.161   2.172 -0.0659 -0.4545  0.3366
  740MOL0     C99802  12.260   9.164   2.284  0.2985  0.4953 -0.5908
  740MOL0     C99803  12.348   9.293   2.287  0.1347 -0.7317 -0.1784
  740MOL0     C99804  12.424   9.330   2.416 -0.2762 -0.0316  0.7105
  740MOL0     C99805  12.525   9.219   2.446 -0.9433 -0.1200 -0.0340
  740MOL0     C99806  12.655   9.281   2.501 -0.3080 -0.2006  0.5858
  740MOL0     C99807  12.623   9.357   2.623  0.3159 -0.0770 -0.1253
  740MOL0     C99808  12.745   9.357   2.714  0.3618  0.1621  1.4700
  740MOL0     C99809  12.727   9.449   2.833 -0.2514  0.2277  0.6789
  740MOL0    Cl99810  12.617   9.374   2.936  0.1461  0.7378  0.1270
  740MOL0     C99811  12.019   9.027   2.048 -0.3607 -0.4388  0.2865
  740MOL0     C99812  11.916   8.927   2.030 -1.6295 -1.5270 -0.4593
  740MOL0     O99813  11.661   8.818   2.277 -0.0002 -0.3105 -0.0798
  740MOL0     C99814  11.467   8.636   2.237  0.7781 -0.0031  0.5753
  740MOL0     C99815  11.367   8.534   2.226  0.4335  0.1808  0.1881
  740MOL0     N99816  10.991   7.867   2.119 -1.1441  0.3418  0.8512
  740MOL0     N99817  10.958   7.791   2.024  0.8394 -0.8188  0.5327
  740MOL0     C99818  10.083   7.332   2.537 -0.7588 -0.2247 -0.0631
  740MOL0     C99819   9.968   7.375   2.610 -0.1995 -0.6387 -0.7494
  740MOL0     C99820   9.660   7.411   2.980 -0.1928 -0.2580  0.1177
  740MOL0     C99821   9.606   7.343   3.088  0.1018  0.4198  0.0890
  740MOL0     C99822   9.461   7.330   3.098 -0.6289  0.4492 -0.6250
  740MOL0     C99823   9.374   7.384   2.996  0.5707  0.6053  0.9569
  740MOL0     O99824   9.235   7.362   2.982 -0.0910  0.6840 -0.1801
  740MOL0     C99825   9.160   7.305   3.078 -0.3934 -0.5532  0.0971
  740MOL0     C99826   9.013   7.332   3.057 -0.2677  0.6536 -0.9360
  740MOL0     C99827   8.912   7.244   3.135  0.3429  0.6357 -0.9163
  740MOL0     C99828   8.921   7.090   3.104  1.1195  0.2658  0.0237
  740MOL0     C99829   8.891   7.075   2.965  0.3796 -0.7384  1.0363
  740MOL0     C99830   8.858   7.069   2.844  0.0670 -0.6335  0.2550
  740MOL0     C99831   9.444   7.451   2.895  0.2941  0.0613  0.7412
  740MOL0     C99832   9.572   7.481   2.896 -0.2691  0.2846  0.9472
  740MOL0     H99833  10.079   7.298   2.920 -0.3446  0.7986 -0.2739
  740MOL0     H99834  10.284   7.268   2.796 -1.1708  2.4158  0.2074
  740MOL0     H99835  10.283   7.318   2.350  1.9735 -0.0617 -2.2204
  740MOL0     H99836  10.329   7.449   2.451 -1.0758 -0.8829 -0.2259
  740MOL0     H99837  10.557   7.346   2.473  2.8699 -0.3017 -2.1060
  740MOL0     H99838  10.525   7.238   2.338 -0.5709 -0.9457  2.2733
  740MOL0     H99839  10.466   7.539   2.322  1.3760  0.3131  0.6918
  740MOL0     H99840  10.620   7.474   2.279 -0.6991  1.9330  1.0080
  740MOL0     H99841  10.517   7.332   2.105 -0.5821 -0.3421 -1.2587
  740MOL0     H99842  10.360   7.412   2.149  0.3937  1.7824  0.8308
  740MOL0     H99843  10.450   7.534   1.960 -0.2391 -0.9063  0.3608
  740MOL0     H99844  10.459   7.639   2.109  0.4045  1.3019 -2.3811
  740MOL0     H99845  10.692   7.623   2.123  0.2932  3.5713 -1.6561
  740MOL0     H99846  10.692   7.511   1.982 -0.0698  0.0326 -2.1997
  740MOL0     H99847  10.570   7.685   1.851 -1.3968  2.2408  0.8344
  740MOL0     H99848  10.568   7.796   1.982 -0.0607  1.8509 -5.4487
  740MOL0     H99849  10.746   7.839   1.810  0.4449  1.5941  1.9337
  740MOL0     H99850  10.816   7.675   1.832  0.3882 -1.0432  1.0440
  740MOL0     H99851  10.705   7.995   2.037  1.9592  1.8363 -0.0840
  740MOL0     H99852  10.825   8.131   2.249 -1.5217 -0.7911  2.2891
  740MOL0     H99853  10.872   7.992   2.353 -0.7289 -0.8009 -1.2746
  740MOL0     H99854  11.086   8.010   2.314  0.2726  0.3948  1.1732
  740MOL0     H99855  11.044   8.158   2.389  2.4249 -3.4076  0.7132
  740MOL0     H99856  11.037   8.296   2.179 -0.0650 -0.8364 -2.1013
  740MOL0     H99857  11.084   8.147   2.098 -0.7594 -1.0988  1.2561
  740MOL0     H99858  11.304   8.154   2.239  0.7023  0.9676  0.0806
  740MOL0     H99859  11.247   8.292   2.313 -0.2373  2.8556 -1.5676
  740MOL0     H99860  11.507   8.346   1.994 -0.9890  0.4231  0.0422
  740MOL0     H99861  11.754   8.607   1.929  2.4120  1.0906  2.6628
  740MOL0     H99862  11.817   8.494   2.046  0.1479  0.6732  0.3879
  740MOL0     H99863  11.726   8.435   1.910 -1.7384  1.0002 -0.9360
  740MOL0     H99864  11.946   8.789   2.340 -0.7373  0.3057  0.3496
  740MOL0     H99865  12.108   8.961   2.377 -2.7497  0.4510  1.3633
  740MOL0     H99866  12.211   9.154   2.381 -0.9932  0.1326 -1.2697
  740MOL0     H99867  12.321   9.073   2.286 -3.8276 -2.5371 -0.2844
  740MOL0     H99868  12.418   9.286   2.203 -0.0210 -0.6318 -0.3170
  740MOL0     H99869  12.294   9.381   2.250  1.5304  1.2888  2.2607
  740MOL0     H99870  12.365   9.334   2.508  4.4471 -1.4318  4.2048
  740MOL0     H99871  12.477   9.423   2.395  1.7169 -0.9836  1.2624
  740MOL0     H99872  12.484   9.147   2.518 -0.4447  1.1648  1.5974
  740MOL0     H99873  12.539   9.169   2.350 -1.4389 -0.3729  0.0190
  740MOL0     H99874  12.688   9.360   2.432 -2.8146 -1.4382 -2.2569
  740MOL0     H99875  12.734   9.206   2.510 -1.0765 -1.2832 -1.1892
  740MOL0     H99876  12.589   9.460   2.608 -3.8002 -0.5075  3.9469
  740MOL0     H99877  12.542   9.308   2.678 -1.2782  2.5462  0.0332
  740MOL0     H99878  12.829   9.403   2.660 -0.2591  0.6975  0.9403
  740MOL0     H99879  12.765   9.255   2.747 -2.0488  0.0915  2.9302
  740MOL0     H99880  12.684   9.546   2.804 -1.6430 -0.5210  0.1421
  740MOL0     H99881  12.819   9.462   2.890  0.4069 -3.6144  0.7288
  740MOL0     H99882  12.039   9.100   1.970  2.5771 -0.2485  1.1228
  740MOL0     H99883  11.863   8.907   1.938  0.8842  1.2727 -2.7006
  740MOL0     H99884  11.450   8.723   2.300 -2.6457 -0.8967  1.1122
  740MOL0     H99885  11.278   8.553   2.284  0.3645  0.8263 -0.1153
  740MOL0     H99886  10.086   7.345   2.430  0.3589 -1.5298 -0.2155
  740MOL0     H99887   9.880   7.397   2.550  0.0579 -3.3165 -2.2714
  740MOL0     H99888   9.665   7.300   3.168  0.4785 -2.6044 -1.6763
  740MOL0     H99889   9.420   7.275   3.182  0.5159  0.9882  0.3332
  740MOL0     H99890   9.178   7.198   3.067  3.1742  0.1248 -1.8412
  740MOL0     H99891   9.197   7.331   3.177 -2.5880 -2.7649  1.6335
  740MOL0     H99892   8.998   7.328   2.949 -0.9727 -1.4088 -0.7916
  740MOL0     H99893   8.994   7.430   3.104 -2.0576 -0.4113  0.7318
  740MOL0     H99894   8.807   7.277   3.133 -1.5563 -4.0683  1.9163
  740MOL0     H99895   8.941   7.241   3.241 -0.0230 -0.7461 -0.8299
  740MOL0     H99896   8.865   7.017   3.165 -1.6715  1.7400 -0.5853
  740MOL0     H99897   9.024   7.053   3.106  1.0382 -0.5634 -3.5430
  740MOL0     H99898   8.820   7.056   2.745 -3.1553  1.6218  1.0279
  740MOL0     H99899   9.377   7.487   2.817  0.6709 -5.5708 -2.7983
  740MOL0     H99900   9.604   7.539   2.810 -3.7098  1.0439  0.0458
  741MOL0     O99901   3.061   5.885   7.394 -0.5186 -0.1081 -0.1072
  741MOL0     C99902   3.121   5.798   7.456  0.7314 -0.4009  0.0914
  741MOL0     O99903   3.263   5.788   7.480  0.1332  0.1885  0.4012
  741MOL0     C99904   3.345   5.849   7.390 -0.3955 -0.2222  0.1226
  741MOL0     C99905   3.409   5.765   7.294 -0.1898 -0.6983  0.7538
  741MOL0     C99906   3.476   5.820   7.183 -0.5208 -0.4085 -1.4300
  741MOL0     C99907   3.500   5.960   7.172  0.4246 -0.5332 -0.1728
  741MOL0     O99908   3.569   6.015   7.072  0.9123 -0.5346  0.2559
  741MOL0     C99909   3.662   5.941   6.991  0.5380  0.7913  0.3105
  741MOL0     C99910   3.782   6.024   6.962  0.6322 -0.6370 -0.4192
  741MOL0     C99911   3.770   6.102   6.830 -0.3905 -1.0159  0.1151
  741MOL0     C99912   3.674   6.219   6.835 -0.2768 -1.0106  0.4511
  741MOL0     C99913   3.727   6.347   6.894 -0.8117  0.5665  0.6641
  741MOL0     C99914   3.624   6.451   6.948  0.1994  0.0521 -0.3055
  741MOL0     C99915   3.560   6.399   7.079 -0.3121  0.8100 -0.7339
  741MOL0     C99916   3.600   6.477   7.207  0.9004 -0.5711  0.3332
  741MOL0     N99917   3.504   6.458   7.312  0.5783 -0.4698  0.1072
  741MOL0     C99918   3.377   6.517   7.316 -0.3802 -0.3785 -0.0536
  741MOL0     C99919   3.323   6.458   7.429  0.5492 -0.0867  0.7574
  741MOL0     C99920   3.193   6.484   7.501  0.4498  0.1802  0.1846
  741MOL0     C99921   3.099   6.357   7.513 -0.3611  0.9967  0.8387
  741MOL0     C99922   2.969   6.359   7.591 -0.2936 -0.7824  0.6628
  741MOL0     C99923   2.881   6.478   7.572 -0.5691  0.2755  0.3373
  741MOL0     O99924   2.781   6.482   7.676  0.8545  0.0909 -0.3265
  741MOL0     C99925   2.779   6.596   7.752  0.6548 -0.0556  1.0403
  741MOL0     C99926   2.748   6.724   7.696 -0.4762  0.6089 -0.4771
  741MOL0     C99927   2.724   6.837   7.770  0.6438  0.2980  1.0096
  741MOL0     C99928   2.654   6.948   7.692 -0.4497  0.4481  0.3577
  741MOL0     C99929   2.730   6.821   7.908 -0.0466  0.0573 -0.3702
  741MOL0     C99930   2.708   6.934   7.992  0.0878  0.2238 -0.9885
  741MOL0     O99931   2.679   6.909   8.128  0.5827 -0.3248 -0.6153
  741MOL0     C99932   2.597   6.999   8.197 -0.0724  0.3777 -0.2838
  741MOL0     C99933   2.478   6.935   8.236  0.8949 -0.9352 -0.9607
  741MOL0     C99934   2.393   7.018   8.323  0.2816 -0.1991 -0.1145
  741MOL0     C99935   2.437   7.145   8.365 -1.5322 -0.3730 -0.3918
  741MOL0     O99936   2.368   7.226   8.445 -0.0737 -0.4071 -0.0949
  741MOL0     C99937   2.280   7.171   8.551  0.1509 -0.3584 -0.4075
  741MOL0     C99938   2.186   7.274   8.613 -0.6675  0.1995 -0.7549
  741MOL0     C99939   2.259   7.415   8.633  0.4904  1.3078  0.0674
  741MOL0     C99940   2.219   7.479   8.759  0.0006 -0.0945 -0.2041
  741MOL0     C99941   2.257   7.626   8.772  0.2538  0.2180  0.1586
  741MOL0     C99942   2.198   7.666   8.913 -0.2737  0.0817 -0.6861
  741MOL0     C99943   2.191   7.819   8.930 -0.6415 -0.0040 -0.2399
  741MOL0     C99944   2.121   7.861   9.062  0.3494 -0.0126 -0.7288
  741MOL0    Cl99945   2.132   8.038   9.063 -0.2757  0.2845  0.0349
  741MOL0     C99946   2.557   7.200   8.312  0.2195 -0.2633 -0.0113
  741MOL0     C99947   2.640   7.124   8.232 -0.4134  0.5676  0.6547
  741MOL0     O99948   2.732   7.051   7.949 -0.0724  0.1961  0.1498
  741MOL0     C99949   2.770   6.695   7.971  1.0010 -0.3752 -0.9624
  741MOL0     C99950   2.779   6.579   7.895 -0.2341 -0.4579 -0.0372
  741MOL0     N99951   3.420   6.365   7.485  0.6249 -0.4381  1.0979
  741MOL0     N99952   3.520   6.366   7.409 -0.0319  0.6581  0.4448
  741MOL0     C99953   3.422   6.038   7.264 -0.4557 -0.0321 -0.6015
  741MOL0     C99954   3.351   5.986   7.376  0.2793 -0.0805 -0.4950
  741MOL0     C99955   3.040   5.700   7.520 -0.7854 -0.5784  0.2327
  741MOL0     C99956   2.909   5.678   7.493 -0.2482 -0.3028 -0.3168
  741MOL0     C99957   2.833   5.575   7.544  0.4388 -0.5459 -0.7207
  741MOL0     C99958   2.891   5.487   7.633 -1.0501 -0.0647  0.7094
  741MOL0     O99959   2.807   5.389   7.686 -0.6243  0.4424 -0.4622
  741MOL0     C99960   2.868   5.304   7.781  0.3428 -0.2256  0.0213
  741MOL0     C99961   2.777   5.180   7.805  0.7548  0.1391 -0.5613
  741MOL0     C99962   2.627   5.211   7.801 -0.1758 -0.0095 -1.3142
  741MOL0     C99963   2.524   5.102   7.854 -0.2975  0.4705  0.8912
  741MOL0     C99964   2.385   5.138   7.825 -0.0298  0.1064 -0.6201
  741MOL0     C99965   2.269   5.158   7.797 -0.8519  0.0467 -0.7818
  741MOL0     C99966   3.018   5.509   7.677 -0.8420 -0.9103 -0.7494
  741MOL0     C99967   3.093   5.608   7.618 -0.5009 -0.0194  0.7207
  741MOL0     H99968   3.391   5.658   7.295 -2.0687 -0.4684 -1.4447
  741MOL0     H99969   3.529   5.765   7.106  0.6649  0.6190 -1.3948
  741MOL0     H99970   3.696   5.846   7.032  0.9110  0.5162 -0.6075
  741MOL0     H99971   3.602   5.919   6.902  0.8575 -0.0458  0.2967
  741MOL0     H99972   3.803   6.087   7.049  3.1657 -0.7934 -0.8446
  741MOL0     H99973   3.874   5.968   6.945  1.1763  0.8559 -2.8597
  741MOL0     H99974   3.871   6.131   6.801 -1.1693  1.4322 -0.3763
  741MOL0     H99975   3.734   6.028   6.758 -2.8436  1.1613 -1.0632
  741MOL0     H99976   3.640   6.249   6.735 -0.3068 -1.0337  0.4545
  741MOL0     H99977   3.579   6.185   6.877 -1.3496  1.8995  0.6452
  741MOL0     H99978   3.790   6.323   6.981  1.3329 -1.4856 -1.2866
  741MOL0     H99979   3.797   6.408   6.836  1.8054 -1.5724  1.3622
  741MOL0     H99980   3.675   6.545   6.971 -0.1343  0.0416  0.5054
  741MOL0     H99981   3.556   6.462   6.863  1.2581 -1.5865 -1.4225
  741MOL0     H99982   3.452   6.394   7.059 -0.3269 -0.0228 -0.5121
  741MOL0     H99983   3.603   6.299   7.091  1.5972  1.4421 -1.8989
  741MOL0     H99984   3.618   6.581   7.179 -0.7191 -0.2458  0.3865
  741MOL0     H99985   3.698   6.438   7.235  2.1502  0.2738 -2.4655
  741MOL0     H99986   3.335   6.589   7.246  0.0379  0.6125  0.6891
  741MOL0     H99987   3.236   6.510   7.598  3.1802 -2.0833 -0.2900
  741MOL0     H99988   3.142   6.574   7.464  1.1363  0.4504 -0.1502
  741MOL0     H99989   3.158   6.277   7.559 -0.7164  0.4048  0.2827
  741MOL0     H99990   3.076   6.323   7.412  0.5575 -0.5443  1.1216
  741MOL0     H99991   2.994   6.340   7.696 -5.0090  0.6756  2.3108
  741MOL0     H99992   2.907   6.271   7.571 -0.8432 -0.3939  0.6074
  741MOL0     H99993   2.834   6.464   7.474  0.8199  1.7611 -0.5862
  741MOL0     H99994   2.946   6.565   7.570  2.3546 -1.7652 -0.4714
  741MOL0     H99995   2.734   6.723   7.589  0.4788 -2.5494 -0.6884
  741MOL0     H99996   2.710   7.040   7.670 -2.1248  1.4536  0.0843
  741MOL0     H99997   2.619   6.904   7.599  1.9910 -0.8829 -0.0170
  741MOL0     H99998   2.571   6.980   7.756 -0.4361 -2.1378  1.8176
  741MOL0     H99999   2.453   6.833   8.210 -0.4353 -0.8295 -0.2099
  741MOL0     H    0   2.294   6.976   8.343  0.4257 -0.4695  0.0340
  741MOL0     H    1   2.204   7.107   8.506 -0.6070 -0.3096  0.7516
  741MOL0     H    2   2.337   7.120   8.630 -0.9658 -2.0315 -0.6391
  741MOL0     H    3   2.101   7.276   8.545 -0.0572  1.3086 -1.5178
  741MOL0     H    4   2.165   7.244   8.716 -1.6825 -1.2323 -1.3574
  741MOL0     H    5   2.240   7.467   8.538  3.7936 -3.3307 -3.5857
  741MOL0     H    6   2.366   7.395   8.639  0.1385 -2.4134 -2.7454
  741MOL0     H    7   2.110   7.480   8.766 -0.0023  3.6752  1.1181
  741MOL0     H    8   2.254   7.432   8.851 -2.1431  0.0794  0.7507
  741MOL0     H    9   2.208   7.681   8.691 -1.8896 -0.9473  0.6039
  741MOL0     H   10   2.364   7.649   8.773 -0.2090  2.7231  2.1280
  741MOL0     H   11   2.095   7.631   8.923  0.2236 -0.5424  4.1015
  741MOL0     H   12   2.255   7.618   8.992 -1.8666  1.9759  1.7777
  741MOL0     H   13   2.137   7.862   8.845 -1.7651 -0.1064  0.4062
  741MOL0     H   14   2.295   7.852   8.938 -0.7752  1.8939 -4.0705
  741MOL0     H   15   2.168   7.817   9.151  1.9468  2.0254 -0.4891
  741MOL0     H   16   2.013   7.845   9.067  0.6261 -1.8854  0.7506
  741MOL0     H   17   2.574   7.300   8.351 -1.7428 -0.7404  2.3175
  741MOL0     H   18   2.728   7.165   8.184  0.6123 -0.1939  1.8432
  741MOL0     H   19   2.787   6.690   8.078  0.7402  2.8381 -0.6872
  741MOL0     H   20   2.794   6.479   7.935  1.7026  0.7106  2.4566
  741MOL0     H   21   3.412   6.144   7.248 -1.9823 -0.2346 -1.1682
  741MOL0     H   22   3.280   6.041   7.438 -2.6184 -2.6193 -1.3339
  741MOL0     H   23   2.857   5.744   7.425  0.1845 -0.8721 -1.2205
  741MOL0     H   24   2.731   5.564   7.508  0.0503 -0.7153  0.3988
  741MOL0     H   25   2.958   5.253   7.745  1.3247  0.1490  1.8526
  741MOL0     H   26   2.880   5.355   7.877 -2.1535  1.4473 -0.4661
  741MOL0     H   27   2.795   5.144   7.907  1.8744  2.1089 -0.0116
  741MOL0     H   28   2.801   5.091   7.747 -2.4530 -0.8108 -0.5952
  741MOL0     H   29   2.600   5.231   7.697  1.1007  0.5443 -1.5509
  741MOL0     H   30   2.617   5.294   7.872 -2.5718 -1.0774 -0.2823
  741MOL0     H   31   2.551   5.084   7.958  0.5019  0.1490  0.6409
  741MOL0     H   32   2.537   5.017   7.786  0.4063  1.4637 -0.2667
  741MOL0     H   33   2.164   5.170   7.781 -1.0833  2.1952  1.6648
  741MOL0     H   34   3.065   5.447   7.753 -1.0797 -0.9561 -0.6376
  741MOL0     H   35   3.194   5.613   7.657 -0.4909  1.1446  0.5774
  742MOL0     O   36   0.979   6.642   4.786  0.2949  0.0169 -0.0738
  742MOL0     C   37   1.076   6.576   4.765  0.3571  0.6967  0.3525
  742MOL0     O   38   1.090   6.489   4.650  0.3288  0.2981  0.3245
  742MOL0     C   39   1.002   6.515   4.544 -0.3594  0.5762 -0.3102
  742MOL0     C   40   0.868   6.475   4.549  0.0645  0.1949 -0.5428
  742MOL0     C   41   0.782   6.498   4.443  0.6056 -0.3503 -0.2851
  742MOL0     C   42   0.832   6.559   4.328  0.8307  0.1308 -0.3922
  742MOL0     O   43   0.770   6.585   4.206  0.0560 -0.3616 -0.1616
  742MOL0     C   44   0.639   6.515   4.193  0.0700 -0.7802  0.2465
  742MOL0     C   45   0.585   6.541   4.048  0.6176 -0.1953  0.5434
  742MOL0     C   46   0.557   6.684   4.010 -0.0507  0.4887  0.6791
  742MOL0     C   47   0.501   6.685   3.865  0.3871 -0.1820 -0.1313
  742MOL0     C   48   0.482   6.826   3.804 -0.2841 -0.6253  0.6972
  742MOL0     C   49   0.615   6.880   3.736 -0.3514  0.0418  0.1180
  742MOL0     C   50   0.604   7.020   3.671 -0.1246  0.0401 -0.4435
  742MOL0     C   51   0.739   7.060   3.601 -0.8378  0.4154 -0.1621
  742MOL0     N   52   0.721   7.204   3.548 -0.4166  0.1238 -0.0326
  742MOL0     C   53   0.622   7.255   3.470 -0.2493 -0.5036 -0.4453
  742MOL0     C   54   0.656   7.388   3.449 -0.5473 -0.0798  1.0341
  742MOL0     C   55   0.594   7.462   3.329  0.3331 -0.6147 -1.1779
  742MOL0     C   56   0.652   7.407   3.197  0.3776 -0.5182  0.1366
  742MOL0     C   57   0.789   7.466   3.160 -0.4512  0.3989 -0.5076
  742MOL0     C   58   0.774   7.592   3.064  0.1692  0.5170  0.6073
  742MOL0     O   59   0.877   7.686   3.078 -0.3184  0.3009  0.0586
  742MOL0     C   60   1.007   7.656   3.048  0.3444 -0.0512 -0.1337
  742MOL0     C   61   1.106   7.750   3.076  0.1073 -1.0282  0.0342
  742MOL0     C   62   1.239   7.750   3.036 -0.4853 -0.0126 -0.2572
  742MOL0     C   63   1.314   7.880   3.058  1.0674  0.1592 -0.1679
  742MOL0     C   64   1.284   7.653   2.951  0.8585  0.0972  0.4375
  742MOL0     C   65   1.416   7.638   2.886 -0.0624  0.3577  0.1601
  742MOL0     O   66   1.482   7.747   2.865  0.1124  0.4789 -0.1023
  742MOL0     C   67   1.617   7.742   2.859 -0.8985 -0.8732 -0.0066
  742MOL0     C   68   1.697   7.718   2.976  0.9936 -0.4377  0.1912
  742MOL0     C   69   1.832   7.717   2.951 -0.3192 -0.1918 -0.3281
  742MOL0     C   70   1.886   7.771   2.833 -0.3030 -0.4476 -1.5541
  742MOL0     O   71   2.019   7.772   2.831 -0.6600 -0.8687 -0.8326
  742MOL0     C   72   2.094   7.845   2.733  0.1432 -0.0594  0.2389
  742MOL0     C   73   2.239   7.809   2.743 -1.6020 -0.3937  0.2702
  742MOL0     C   74   2.324   7.935   2.707 -0.1935  0.4043  0.0369
  742MOL0     C   75   2.411   7.998   2.820  0.1005  1.2460 -0.6035
  742MOL0     C   76   2.346   8.038   2.955 -0.3656  0.0124 -0.5579
  742MOL0     C   77   2.447   8.022   3.074  0.3267  1.0970  0.7646
  742MOL0     C   78   2.587   8.084   3.046 -0.3714 -0.7932 -1.2918
  742MOL0     C   79   2.573   8.225   2.992  0.4341 -0.3466 -0.1158
  742MOL0    Cl   80   2.461   8.314   3.102  0.1273 -0.2989  0.5832
  742MOL0     C   81   1.807   7.801   2.727 -0.7508  0.2116  0.0714
  742MOL0     C   82   1.676   7.764   2.735  0.1377 -0.2363  0.8057
  742MOL0     O   83   1.454   7.528   2.845 -0.6274  0.8283  0.1840
  742MOL0     C   84   1.188   7.550   2.922 -0.1746 -1.1430  0.3402
  742MOL0     C   85   1.053   7.553   2.965  0.8117  0.0024 -0.1225
  742MOL0     N   86   0.764   7.420   3.534  0.8230  0.0084  0.4168
  742MOL0     N   87   0.796   7.312   3.596  1.1185  0.3694  0.3448
  742MOL0     C   88   0.962   6.604   4.327 -0.9620  0.7741  0.7103
  742MOL0     C   89   1.047   6.583   4.434  0.0981  0.1885  0.5471
  742MOL0     C   90   1.179   6.575   4.867  0.0285 -0.2036  0.6989
  742MOL0     C   91   1.287   6.480   4.870 -0.5878  0.4777 -0.6821
  742MOL0     C   92   1.366   6.463   4.988 -0.3220  0.3466  0.0836
  742MOL0     C   93   1.360   6.559   5.087  0.1006  0.3091 -0.3384
  742MOL0     O   94   1.441   6.565   5.200  0.3610  0.3831 -0.2677
  742MOL0     C   95   1.554   6.487   5.212 -0.6634 -0.5959 -0.5441
  742MOL0     C   96   1.610   6.499   5.351  0.4816  0.0260 -0.6132
  742MOL0     C   97   1.688   6.631   5.366  0.3039 -0.0621  0.1323
  742MOL0     C   98   1.806   6.675   5.276  0.1757  0.2734 -0.4188
  742MOL0     C   99   1.927   6.592   5.305 -0.3641 -0.1600 -0.1719
  742MOL0     C  100   2.034   6.539   5.325 -0.4358  0.0787  0.3018
  742MOL0     C  101   1.268   6.658   5.081  0.2832  0.4716  0.2494
  742MOL0     C  102   1.175   6.664   4.980 -0.1254 -0.7718  1.0506
  742MOL0     H  103   0.825   6.427   4.636  1.7021  0.3866  0.3977
  742MOL0     H  104   0.685   6.451   4.433  1.1381 -2.1282  2.0398
  742MOL0     H  105   0.660   6.407   4.193 -0.2292 -0.8530 -0.7834
  742MOL0     H  106   0.572   6.543   4.274 -2.6323 -2.4119 -1.2800
  742MOL0     H  107   0.658   6.506   3.974 -1.3605 -1.7670 -0.7850
  742MOL0     H  108   0.492   6.486   4.033 -0.4924  1.6040  0.5492
  742MOL0     H  109   0.470   6.708   4.072  0.5485 -1.3394  2.3320
  742MOL0     H  110   0.641   6.752   4.028  0.2056  1.9791 -4.4840
  742MOL0     H  111   0.551   6.617   3.795  1.5140  0.7623 -0.2739
  742MOL0     H  112   0.401   6.640   3.862  1.0108 -1.6707  0.4353
  742MOL0     H  113   0.408   6.829   3.724 -1.3384  0.3093  1.6752
  742MOL0     H  114   0.445   6.895   3.881 -0.0222  0.8507 -0.4503
  742MOL0     H  115   0.695   6.887   3.810 -0.8121 -4.5577  1.3683
  742MOL0     H  116   0.654   6.799   3.673 -1.2677 -0.6310  0.3998
  742MOL0     H  117   0.520   7.024   3.600 -1.0372 -0.5755  0.5686
  742MOL0     H  118   0.590   7.086   3.757  1.1814 -0.0446 -0.1452
  742MOL0     H  119   0.773   6.992   3.523  0.4013 -0.0016  0.7189
  742MOL0     H  120   0.821   7.062   3.673  2.0135 -1.9269 -3.0578
  742MOL0     H  121   0.529   7.208   3.439 -0.4717  0.2956 -1.0288
  742MOL0     H  122   0.485   7.457   3.320  0.4123 -1.0441 -2.0025
  742MOL0     H  123   0.619   7.567   3.348 -0.1152 -0.1139 -3.1152
  742MOL0     H  124   0.580   7.448   3.125  1.2931  0.3191 -0.3433
  742MOL0     H  125   0.644   7.299   3.183  1.2922 -0.6503  0.5955
  742MOL0     H  126   0.851   7.394   3.107  1.1938  0.6335  0.9855
  742MOL0     H  127   0.845   7.492   3.251 -1.3019  0.0051  0.1442
  742MOL0     H  128   0.684   7.643   3.100 -0.9902 -0.9268 -0.1123
  742MOL0     H  129   0.756   7.556   2.962  1.7561 -1.0184  0.8174
  742MOL0     H  130   1.057   7.830   3.131  0.1290  0.1815 -1.6288
  742MOL0     H  131   1.246   7.943   3.116 -0.0633 -1.4298  0.2858
  742MOL0     H  132   1.400   7.862   3.124  1.3542  1.3098 -0.2034
  742MOL0     H  133   1.340   7.936   2.967 -3.7329 -0.7036 -2.3877
  742MOL0     H  134   1.653   7.705   3.074  0.5632  1.0258  0.2198
  742MOL0     H  135   1.913   7.692   3.019  2.3116  0.0534 -3.1395
  742MOL0     H  136   2.066   7.819   2.631  0.7131 -2.2375  0.6005
  742MOL0     H  137   2.081   7.954   2.741 -1.7699 -0.3414  1.7418
  742MOL0     H  138   2.279   7.779   2.840 -0.6860  1.2205  0.4282
  742MOL0     H  139   2.264   7.722   2.681 -1.5382 -0.4363  0.3552
  742MOL0     H  140   2.261   8.014   2.665 -0.8506  0.9063  1.8463
  742MOL0     H  141   2.378   7.902   2.618  0.7025  2.1108 -0.1064
  742MOL0     H  142   2.482   7.920   2.850 -0.9569  0.8187  0.9613
  742MOL0     H  143   2.467   8.074   2.765  1.3496 -0.2013 -1.4149
  742MOL0     H  144   2.259   7.976   2.977 -0.4646  0.1172 -0.6478
  742MOL0     H  145   2.319   8.143   2.941  0.8251  0.5997  1.1834
  742MOL0     H  146   2.388   8.071   3.152 -1.8766  1.0961 -0.8184
  742MOL0     H  147   2.448   7.915   3.099 -0.4314  0.2574 -2.3643
  742MOL0     H  148   2.643   8.020   2.977  0.6952 -0.8757 -0.3812
  742MOL0     H  149   2.638   8.092   3.142 -0.4983  2.2533 -1.4018
  742MOL0     H  150   2.539   8.218   2.888 -3.8171 -2.7494  1.1788
  742MOL0     H  151   2.675   8.263   3.003  1.4659 -2.9147 -0.0688
  742MOL0     H  152   1.853   7.842   2.638 -5.5603  0.1889 -2.7419
  742MOL0     H  153   1.600   7.779   2.658  0.5363  1.1724  0.6443
  742MOL0     H  154   1.224   7.454   2.888 -0.3288 -1.6187  1.4395
  742MOL0     H  155   1.000   7.464   2.933  2.1093 -0.8205 -0.0619
  742MOL0     H  156   1.001   6.645   4.234  0.5155  0.9366  1.3694
  742MOL0     H  157   1.154   6.601   4.423  0.3853 -0.7574  1.5648
  742MOL0     H  158   1.285   6.397   4.800 -1.0281 -1.3229  1.3601
  742MOL0     H  159   1.432   6.377   4.989 -1.9311 -0.9520  1.4330
  742MOL0     H  160   1.546   6.387   5.170  0.8692 -0.1609 -1.9923
  742MOL0     H  161   1.628   6.529   5.144  0.2986 -1.1878  0.1053
  742MOL0     H  162   1.685   6.419   5.346  1.0221  0.5969 -3.2444
  742MOL0     H  163   1.536   6.496   5.431 -0.2546 -0.4992 -1.3000
  742MOL0     H  164   1.740   6.621   5.461  3.3102 -1.4725 -1.5292
  742MOL0     H  165   1.615   6.713   5.366 -1.1728 -1.2129 -2.8966
  742MOL0     H  166   1.834   6.778   5.303  4.4023 -0.8054 -0.1021
  742MOL0     H  167   1.770   6.670   5.173 -0.0842  1.6402 -0.4203
  742MOL0     H  168   2.111   6.468   5.347 -0.1436  0.3680  0.2224
  742MOL0     H  169   1.273   6.742   5.150  1.1746  0.3740  0.3170
  742MOL0     H  170   1.099   6.741   4.983 -1.6354 -2.1957  1.0229
  743MOL0     O  171  10.405  10.594   5.491 -0.8760 -0.4338 -0.5934
  743MOL0     C  172  10.348  10.629   5.386  0.3407 -0.7846 -0.4300
  743MOL0     O  173  10.240  10.573   5.331  0.8412  0.3665  0.0821
  743MOL0     C  174  10.160  10.473   5.390  0.0475 -0.2413  0.8008
  743MOL0     C  175  10.060  10.416   5.311  1.6113  0.0432  0.2334
  743MOL0     C  176   9.995  10.292   5.350 -0.8688  0.1599 -0.9497
  743MOL0     C  177  10.030  10.232   5.475  0.2282 -0.9233 -0.3726
  743MOL0     O  178  10.004  10.116   5.544  0.9360  0.4369  0.6371
  743MOL0     C  179   9.891  10.041   5.498  0.6160 -0.8150 -0.3137
  743MOL0     C  180   9.846   9.943   5.609 -0.6915  0.5695  1.0400
  743MOL0     C  181   9.839  10.007   5.752 -0.0476 -0.9513  0.6618
  743MOL0     C  182   9.752  10.131   5.760 -0.3484  0.6156  0.8832
  743MOL0     C  183   9.617  10.139   5.685 -0.0052 -0.0640 -0.1135
  743MOL0     C  184   9.583  10.286   5.669  0.4138 -0.6941  0.1362
  743MOL0     C  185   9.577  10.381   5.794  0.1488  0.3006 -0.3514
  743MOL0     C  186   9.532  10.534   5.765 -0.6106 -0.4019 -0.5689
  743MOL0     N  187   9.586  10.596   5.640 -0.2682 -0.7835  0.1116
  743MOL0     C  188   9.718  10.645   5.633 -0.8196  0.1951 -0.3013
  743MOL0     C  189   9.737  10.657   5.498  0.3601  1.3687  0.4039
  743MOL0     C  190   9.879  10.699   5.441 -0.0537  0.0746 -1.1905
  743MOL0     C  191   9.928  10.846   5.459 -0.3529 -0.5232  1.2543
  743MOL0     C  192  10.074  10.876   5.410  0.1327  0.5759 -0.4413
  743MOL0     C  193  10.123  11.017   5.447 -0.2874 -0.9451  0.4631
  743MOL0     O  194  10.050  11.107   5.362 -0.7054  0.0841 -0.3450
  743MOL0     C  195  10.090  11.234   5.382  1.0451 -0.8072  0.3327
  743MOL0     C  196  10.204  11.279   5.327 -0.2933 -1.0975 -0.3165
  743MOL0     C  197  10.255  11.410   5.347 -0.5164  0.4571  0.3697
  743MOL0     C  198  10.398  11.429   5.288  0.1382 -0.8212 -0.6550
  743MOL0     C  199  10.183  11.501   5.424 -0.2473 -0.3512  0.8999
  743MOL0     C  200  10.238  11.631   5.456  0.3540  0.4120 -0.7322
  743MOL0     O  201  10.349  11.676   5.407 -0.2764 -0.0619  0.8196
  743MOL0     C  202  10.432  11.745   5.490  0.1663  0.3702 -1.1782
  743MOL0     C  203  10.527  11.828   5.438 -0.0022 -0.7661 -0.4067
  743MOL0     C  204  10.594  11.928   5.512  0.6155 -0.3578 -0.1702
  743MOL0     C  205  10.588  11.929   5.649  0.0704 -0.3484  0.3324
  743MOL0     O  206  10.661  12.026   5.713  0.5163 -0.4650  0.0640
  743MOL0     C  207  10.605  12.061   5.834 -0.3415 -0.6275  0.1280
  743MOL0     C  208  10.595  12.207   5.859  0.2579 -0.1723  1.0880
  743MOL0     C  209  10.730  12.288   5.886 -0.5980 -0.3035 -0.8918
  743MOL0     C  210  10.781  12.268   6.031 -1.4910 -0.3923 -0.0602
  743MOL0     C  211  10.890  12.370   6.067 -0.1293  0.2591 -0.2542
  743MOL0     C  212  10.966  12.335   6.199 -0.6198  0.0480 -0.5845
  743MOL0     C  213  11.077  12.444   6.227 -0.1541 -0.7581  0.8775
  743MOL0     C  214  11.186  12.396   6.323  0.8498 -1.0778  0.0690
  743MOL0    Cl  215  11.097  12.333   6.468  0.5333  0.1158  0.0930
  743MOL0     C  216  10.513  11.824   5.711  0.0790  0.1128 -0.2213
  743MOL0     C  217  10.432  11.737   5.634  0.2697 -0.4488 -0.5489
  743MOL0     O  218  10.170  11.693   5.538  0.2713  0.2028 -0.8934
  743MOL0     C  219  10.050  11.464   5.467 -0.5116  0.1290 -0.4462
  743MOL0     C  220  10.009  11.334   5.447 -0.5665  1.0420  0.1324
  743MOL0     N  221   9.620  10.638   5.423  0.3896 -0.0909 -0.4736
  743MOL0     N  222   9.528  10.600   5.508  0.2629  0.3309  0.0940
  743MOL0     C  223  10.121  10.303   5.550  0.7144 -0.4855 -0.2391
  743MOL0     C  224  10.184  10.414   5.516 -0.8070 -0.0347  0.9181
  743MOL0     C  225  10.382  10.756   5.320 -1.2577  0.7236 -0.0906
  743MOL0     C  226  10.476  10.849   5.373 -0.4293  0.7545 -0.1986
  743MOL0     C  227  10.514  10.967   5.306  0.9897 -0.0078 -0.7836
  743MOL0     C  228  10.447  10.987   5.185 -0.5621 -0.7622  0.5317
  743MOL0     O  229  10.473  11.116   5.132  0.0403 -0.3389  0.2852
  743MOL0     C  230  10.448  11.135   4.987 -0.2967  0.0044  0.6994
  743MOL0     C  231  10.504  11.263   4.932 -0.3070 -0.2565  0.2815
  743MOL0     C  232  10.652  11.289   4.956 -0.1994  0.9178  0.0899
  743MOL0     C  233  10.706  11.424   4.907  0.3704 -0.2467 -0.0038
  743MOL0     C  234  10.705  11.423   4.757 -0.6986  0.4383 -0.4470
  743MOL0     C  235  10.696  11.408   4.633  0.9301 -0.0758 -0.5827
  743MOL0     C  236  10.355  10.901   5.127  0.3431  0.6875  0.1130
  743MOL0     C  237  10.331  10.780   5.198  0.2834 -0.9287  0.3807
  743MOL0     H  238  10.042  10.467   5.217  2.2179 -0.7208 -0.3167
  743MOL0     H  239   9.914  10.250   5.292  0.5413 -4.4914  0.0698
  743MOL0     H  240   9.810  10.109   5.468  0.5509  0.4902  2.5202
  743MOL0     H  241   9.912   9.991   5.403 -0.9127  0.3420 -1.3207
  743MOL0     H  242   9.754   9.894   5.574  0.2724 -2.4969  2.4271
  743MOL0     H  243   9.917   9.861   5.622 -2.4343 -0.9748  1.2442
  743MOL0     H  244   9.793   9.936   5.821  0.3894 -1.8467  0.0607
  743MOL0     H  245   9.940  10.036   5.783  1.4533  1.6368 -5.1857
  743MOL0     H  246   9.745  10.143   5.868 -0.1712 -0.6190  1.0486
  743MOL0     H  247   9.817  10.212   5.724  1.9682 -2.2665 -2.0894
  743MOL0     H  248   9.619  10.098   5.584 -1.6528  0.3048 -0.3249
  743MOL0     H  249   9.543  10.089   5.748 -1.1391  0.5712 -0.8970
  743MOL0     H  250   9.651  10.336   5.598  0.4431 -0.5708  0.2495
  743MOL0     H  251   9.487  10.292   5.616 -0.2046  3.1125  1.3731
  743MOL0     H  252   9.505  10.345   5.868  3.2723 -0.4265  2.6439
  743MOL0     H  253   9.676  10.378   5.841  0.7423 -1.5480 -1.6096
  743MOL0     H  254   9.560  10.594   5.852 -1.1053 -2.0071  0.7401
  743MOL0     H  255   9.423  10.524   5.759 -0.6182 -2.1212  1.3014
  743MOL0     H  256   9.783  10.653   5.719 -1.1360  2.1167 -0.2016
  743MOL0     H  257   9.948  10.638   5.500  0.3606  2.1405  0.5618
  743MOL0     H  258   9.891  10.674   5.335  3.2153  2.2901 -1.4611
  743MOL0     H  259   9.905  10.882   5.559 -1.4904  2.4705  0.0348
  743MOL0     H  260   9.859  10.898   5.392  0.0110 -1.7540 -0.1533
  743MOL0     H  261  10.082  10.868   5.302 -0.0497 -0.1223 -0.4074
  743MOL0     H  262  10.139  10.799   5.451 -1.5179 -0.8817 -0.4099
  743MOL0     H  263  10.230  11.014   5.425 -0.6898 -2.2692 -1.5946
  743MOL0     H  264  10.103  11.038   5.553 -0.5654  1.7221 -0.0406
  743MOL0     H  265  10.266  11.217   5.264  0.4348 -1.2325  0.5028
  743MOL0     H  266  10.399  11.524   5.233 -2.6544  0.3567  1.0648
  743MOL0     H  267  10.458  11.435   5.380 -0.8090 -4.0868  0.2944
  743MOL0     H  268  10.438  11.345   5.231 -0.8861  0.5583 -3.6359
  743MOL0     H  269  10.537  11.823   5.330  2.7936 -2.6760 -0.1576
  743MOL0     H  270  10.660  12.002   5.466  1.0314 -0.3911  0.3566
  743MOL0     H  271  10.502  12.027   5.851 -0.7691  1.3915  2.0395
  743MOL0     H  272  10.669  12.021   5.913 -0.2608  0.9771  0.9061
  743MOL0     H  273  10.545  12.254   5.774  0.8294 -1.8206 -0.2226
  743MOL0     H  274  10.519  12.218   5.937 -1.5523  1.8263 -0.8305
  743MOL0     H  275  10.713  12.394   5.864 -3.3367 -0.1400  1.4530
  743MOL0     H  276  10.805  12.240   5.823  1.7959 -0.3243  1.8002
  743MOL0     H  277  10.698  12.267   6.101 -2.2633  3.0889 -0.7143
  743MOL0     H  278  10.841  12.177   6.041  2.5138  2.0749  0.7297
  743MOL0     H  279  10.848  12.470   6.080  1.4072  1.3793 -3.0586
  743MOL0     H  280  10.966  12.376   5.989 -1.0991  1.9442 -1.1362
  743MOL0     H  281  10.901  12.343   6.286  1.1164  0.6398  0.7051
  743MOL0     H  282  11.019  12.239   6.200  1.3097  0.9796  2.9825
  743MOL0     H  283  11.032  12.532   6.273  0.2196 -0.0747 -0.0310
  743MOL0     H  284  11.129  12.475   6.136  0.2502  0.4823  1.5202
  743MOL0     H  285  11.255  12.468   6.368  0.0025 -2.1285  3.3611
  743MOL0     H  286  11.248  12.321   6.274 -2.2000 -2.0323 -2.6424
  743MOL0     H  287  10.518  11.819   5.819  0.2900  1.7567 -0.1276
  743MOL0     H  288  10.361  11.685   5.697 -1.8913  2.8790  0.0622
  743MOL0     H  289   9.989  11.536   5.519 -1.7332  1.6803 -3.7484
  743MOL0     H  290   9.927  11.280   5.494 -0.9233  2.3369  1.0793
  743MOL0     H  291  10.141  10.267   5.651  1.2233  1.0961  0.2590
  743MOL0     H  292  10.259  10.441   5.590 -0.8199  0.7176  0.6659
  743MOL0     H  293  10.520  10.834   5.471 -0.9191 -1.0782 -0.2265
  743MOL0     H  294  10.592  11.033   5.343  0.8030 -1.3629  2.3613
  743MOL0     H  295  10.482  11.051   4.926 -3.5726 -2.1337  1.5409
  743MOL0     H  296  10.342  11.150   4.965 -0.8675 -2.5879  1.4283
  743MOL0     H  297  10.445  11.346   4.971 -3.1272 -0.7390 -2.4538
  743MOL0     H  298  10.464  11.267   4.830 -0.9031 -0.2957  0.5052
  743MOL0     H  299  10.706  11.210   4.904  1.6011  0.9200  1.8693
  743MOL0     H  300  10.671  11.287   5.063  1.3619  0.1269 -0.1891
  743MOL0     H  301  10.803  11.441   4.955  2.0554  0.4888 -3.3656
  743MOL0     H  302  10.644  11.507   4.944 -0.8153 -2.0378  2.2410
  743MOL0     H  303  10.676  11.401   4.528 -0.4407  3.9674 -0.7885
  743MOL0     H  304  10.301  10.923   5.035  0.4732  0.8400  0.0728
  743MOL0     H  305  10.276  10.701   5.148  1.0310 -2.0207  1.2507
  744MOL0     O  306   5.231   5.731   0.703 -0.6586  0.3765 -0.5428
  744MOL0     C  307   5.118   5.750   0.751  0.3389 -0.7379 -0.5057
  744MOL0     O  308   5.032   5.822   0.690 -0.1458  0.0316  0.8026
  744MOL0     C  309   5.063   5.915   0.595  0.1376 -0.2514  0.6092
  744MOL0     C  310   4.978   5.902   0.480 -0.6761  0.4732 -0.0920
  744MOL0     C  311   4.977   6.011   0.391 -0.3356  0.1968 -0.0772
  744MOL0     C  312   5.066   6.116   0.407  0.5958 -0.3316 -0.0053
  744MOL0     O  313   5.065   6.221   0.318  0.3124  0.3157 -0.1772
  744MOL0     C  314   5.192   6.260   0.263 -0.6457 -0.2136 -0.2669
  744MOL0     C  315   5.167   6.276   0.114 -0.0731  0.1964  0.5998
  744MOL0     C  316   5.291   6.304   0.028  0.2113  0.4860  0.1197
  744MOL0     C  317   5.270   6.262  -0.119 -0.1426  0.2907  0.6184
  744MOL0     C  318   5.286   6.102  -0.151 -0.3352 -0.3194 -0.3853
  744MOL0     C  319   5.170   6.046  -0.225  1.1312  0.0889 -0.2975
  744MOL0     C  320   5.152   6.097  -0.368  0.4348  0.1034  0.7231
  744MOL0     C  321   5.021   6.059  -0.426 -0.2795 -0.1550  0.2224
  744MOL0     N  322   4.968   6.140  -0.537 -0.1494 -0.5610 -0.7157
  744MOL0     C  323   5.015   6.263  -0.593  0.3846  0.2147 -0.2426
  744MOL0     C  324   4.958   6.277  -0.710 -0.6285 -0.3247 -0.1369
  744MOL0     C  325   4.988   6.376  -0.814  0.2916 -0.1159  0.4701
  744MOL0     C  326   4.874   6.476  -0.819 -0.5591 -0.5544  0.4055
  744MOL0     C  327   4.870   6.566  -0.698 -0.8703 -0.1404 -0.4855
  744MOL0     C  328   4.775   6.684  -0.715 -0.4936 -1.5219  0.0012
  744MOL0     O  329   4.762   6.763  -0.593  0.6591  0.1893 -0.4380
  744MOL0     C  330   4.866   6.836  -0.535 -0.1208 -0.7593  0.4240
  744MOL0     C  331   4.966   6.894  -0.614  0.3498 -1.2144  0.1587
  744MOL0     C  332   5.053   6.992  -0.549 -0.3212  0.3164  0.1350
  744MOL0     C  333   5.152   7.058  -0.645  0.0820  0.6231 -0.0437
  744MOL0     C  334   5.067   6.995  -0.410  0.5103 -0.5524 -0.0927
  744MOL0     C  335   5.170   7.077  -0.338  0.4026 -0.1036 -0.3264
  744MOL0     O  336   5.145   7.105  -0.208  0.0449  0.2561 -0.6529
  744MOL0     C  337   5.230   7.172  -0.126  0.5241  0.1119  0.5704
  744MOL0     C  338   5.229   7.166   0.018  0.2915 -0.3464  0.6651
  744MOL0     C  339   5.306   7.254   0.096  0.5383  0.4061  0.2618
  744MOL0     C  340   5.383   7.354   0.033  0.1542  0.3946 -0.6228
  744MOL0     O  341   5.468   7.433   0.100  0.2923 -0.3432 -0.4843
  744MOL0     C  342   5.469   7.447   0.251  0.5532  0.1650  0.7327
  744MOL0     C  343   5.328   7.495   0.310  0.1623  0.1209  0.9048
  744MOL0     C  344   5.322   7.638   0.363  0.2938 -0.1740 -0.9967
  744MOL0     C  345   5.185   7.671   0.435 -0.8283  0.0180 -0.0138
  744MOL0     C  346   5.170   7.824   0.460  0.1799  0.3259 -0.5538
  744MOL0     C  347   5.047   7.878   0.528  1.2341 -0.0932  0.3517
  744MOL0     C  348   4.924   7.880   0.440  0.4597  0.4367 -0.0598
  744MOL0     C  349   4.818   7.970   0.497  0.2179 -0.1653  0.7089
  744MOL0    Cl  350   4.749   7.885   0.634 -0.3428  0.1820 -0.0744
  744MOL0     C  351   5.384   7.362  -0.104  0.3435 -0.1122 -0.0102
  744MOL0     C  352   5.310   7.276  -0.184  0.6889 -0.3781 -0.2175
  744MOL0     O  353   5.282   7.072  -0.388  0.4156 -0.5112 -0.9407
  744MOL0     C  354   4.960   6.936  -0.342 -0.9123  1.3315 -0.7440
  744MOL0     C  355   4.864   6.857  -0.401  0.7489 -0.3305 -0.6296
  744MOL0     N  356   4.862   6.176  -0.729 -0.1478 -0.1133  0.4404
  744MOL0     N  357   4.867   6.099  -0.622 -0.1233 -0.1275 -0.0542
  744MOL0     C  358   5.146   6.129   0.519 -0.2814  0.1306  0.1747
  744MOL0     C  359   5.151   6.023   0.608 -0.2061 -0.6936 -0.0913
  744MOL0     C  360   5.079   5.691   0.880  0.5107 -0.7641  0.2731
  744MOL0     C  361   4.954   5.727   0.938  0.3204  0.3334  0.8019
  744MOL0     C  362   4.923   5.698   1.070  0.1893  0.8475 -0.1840
  744MOL0     C  363   5.008   5.614   1.134 -0.0162  0.2760 -0.5821
  744MOL0     O  364   4.992   5.582   1.271 -0.1421  0.5711 -0.2823
  744MOL0     C  365   4.914   5.649   1.375 -0.3490 -0.5163  0.0474
  744MOL0     C  366   5.014   5.662   1.490 -0.1404  0.6402 -0.3725
  744MOL0     C  367   4.947   5.702   1.616 -0.4350  0.2169  0.4404
  744MOL0     C  368   5.042   5.765   1.720  0.5600 -0.5036  0.2789
  744MOL0     C  369   5.149   5.676   1.761  0.2078  0.0928 -0.0533
  744MOL0     C  370   5.240   5.615   1.814  0.0032 -0.5693  0.4215
  744MOL0     C  371   5.113   5.550   1.074 -0.5440 -0.1110 -0.7917
  744MOL0     C  372   5.162   5.600   0.947 -0.6846 -0.3999 -0.4385
  744MOL0     H  373   4.911   5.816   0.483 -0.7667  0.5669  2.6086
  744MOL0     H  374   4.906   6.012   0.309 -0.9721  3.2823  0.3874
  744MOL0     H  375   5.215   6.361   0.299 -3.5489  0.9791 -1.4522
  744MOL0     H  376   5.281   6.201   0.288 -0.2584 -0.0653 -1.2535
  744MOL0     H  377   5.118   6.180   0.092 -0.7800 -0.0222  2.9067
  744MOL0     H  378   5.095   6.355   0.092  0.6799  1.8116  3.5347
  744MOL0     H  379   5.317   6.411   0.027 -3.0164  1.3785  1.0584
  744MOL0     H  380   5.379   6.248   0.058  0.7575  0.9648 -0.5402
  744MOL0     H  381   5.171   6.288  -0.157 -0.7022 -1.9933  0.3618
  744MOL0     H  382   5.342   6.317  -0.181  1.0265  0.2513  1.9020
  744MOL0     H  383   5.373   6.074  -0.211  2.1585  0.8614  2.4253
  744MOL0     H  384   5.300   6.036  -0.064 -1.8859 -1.6038 -1.0626
  744MOL0     H  385   5.195   5.940  -0.228  0.9301 -0.0077  0.9355
  744MOL0     H  386   5.076   6.039  -0.170  0.6709 -1.2317 -1.1947
  744MOL0     H  387   5.156   6.206  -0.374  0.6938  0.1581  1.7147
  744MOL0     H  388   5.242   6.057  -0.416  0.5033 -0.3482  1.2202
  744MOL0     H  389   4.945   6.056  -0.348 -0.4748  0.2860  0.0546
  744MOL0     H  390   5.026   5.959  -0.470 -1.1750  0.6804 -1.9229
  744MOL0     H  391   5.096   6.320  -0.549 -0.8351  1.5450  0.3665
  744MOL0     H  392   5.080   6.430  -0.788  1.6140 -0.1061 -3.4724
  744MOL0     H  393   5.015   6.324  -0.906 -2.0975  0.3257 -0.5658
  744MOL0     H  394   4.778   6.424  -0.830  0.1578 -1.5605 -1.5225
  744MOL0     H  395   4.892   6.541  -0.905  0.6749  1.8384  2.3438
  744MOL0     H  396   4.971   6.597  -0.671 -1.8831  2.6402  0.4215
  744MOL0     H  397   4.832   6.506  -0.615 -2.3386  0.8932 -0.3628
  744MOL0     H  398   4.674   6.648  -0.738 -1.1094  0.5381 -0.7069
  744MOL0     H  399   4.810   6.754  -0.791 -2.1395  2.2010  2.3911
  744MOL0     H  400   4.964   6.881  -0.722  1.3953  0.3896 -0.0772
  744MOL0     H  401   5.245   7.001  -0.654  1.4619  2.4882  1.6260
  744MOL0     H  402   5.107   7.063  -0.745  0.6760 -3.9866 -0.7841
  744MOL0     H  403   5.177   7.155  -0.602 -1.0788 -0.1949  2.6527
  744MOL0     H  404   5.156   7.101   0.065  0.3757 -0.3234  0.8310
  744MOL0     H  405   5.301   7.240   0.204  0.7645  3.8902  0.8536
  744MOL0     H  406   5.492   7.350   0.297  0.3273  0.9357  2.5189
  744MOL0     H  407   5.544   7.522   0.273  1.5910  0.4061 -2.8784
  744MOL0     H  408   5.246   7.480   0.238 -0.4501  1.9808  1.1635
  744MOL0     H  409   5.301   7.417   0.382  0.7182 -1.4341 -0.4974
  744MOL0     H  410   5.329   7.709   0.280 -1.5936  1.5362  0.2379
  744MOL0     H  411   5.414   7.648   0.422  0.7202  1.9745 -1.9222
  744MOL0     H  412   5.106   7.645   0.364 -2.8820  2.9113  1.0375
  744MOL0     H  413   5.174   7.611   0.525  1.9546 -3.0513 -1.4739
  744MOL0     H  414   5.175   7.877   0.365  0.8632 -0.4389 -0.9582
  744MOL0     H  415   5.257   7.851   0.522  0.2469 -0.3952 -0.3305
  744MOL0     H  416   5.032   7.822   0.622  2.1458 -0.1963  0.4435
  744MOL0     H  417   5.064   7.982   0.557 -2.8085  0.7486  0.2286
  744MOL0     H  418   4.887   7.778   0.432  1.8311 -0.1572  0.7598
  744MOL0     H  419   4.951   7.917   0.341  0.9770 -0.6969 -0.3578
  744MOL0     H  420   4.742   7.983   0.419 -0.7859  1.2174  1.8646
  744MOL0     H  421   4.865   8.067   0.514 -1.5490  1.1981 -1.4994
  744MOL0     H  422   5.451   7.439  -0.142  0.3808  0.3806  1.0382
  744MOL0     H  423   5.298   7.296  -0.290 -1.4997 -0.5860 -0.0542
  744MOL0     H  424   4.948   6.933  -0.235 -0.4857 -1.2514 -0.7065
  744MOL0     H  425   4.792   6.808  -0.337  1.9973  0.7432  1.6962
  744MOL0     H  426   5.213   6.211   0.540  0.7547 -0.4783 -0.6521
  744MOL0     H  427   5.208   6.048   0.696  0.9678  0.5513 -1.1492
  744MOL0     H  428   4.884   5.790   0.883  0.9082  0.5444  0.2903
  744MOL0     H  429   4.851   5.759   1.123  2.2955  2.8798  0.5122
  744MOL0     H  430   4.892   5.751   1.342 -1.3864  0.3808  3.1107
  744MOL0     H  431   4.822   5.601   1.411 -1.0840 -0.5086 -1.7485
  744MOL0     H  432   5.074   5.744   1.452 -1.2955  3.2367  2.8919
  744MOL0     H  433   5.064   5.567   1.513  1.3377  1.5530  0.3439
  744MOL0     H  434   4.905   5.611   1.659 -0.9932 -0.8609 -2.1951
  744MOL0     H  435   4.863   5.765   1.583  0.2743  0.1300 -1.6717
  744MOL0     H  436   4.986   5.816   1.799  0.5553 -0.5782  0.3257
  744MOL0     H  437   5.089   5.845   1.663 -1.8387 -1.7083 -3.8402
  744MOL0     H  438   5.319   5.567   1.868  1.7710 -0.4139 -1.8898
  744MOL0     H  439   5.164   5.489   1.147 -1.2822 -0.2488 -0.3755
  744MOL0     H  440   5.255   5.568   0.902 -1.9962 -0.5588 -3.2257
  745MOL0     O  441  10.147   4.150   5.967 -1.4287  0.1188 -0.2982
  745MOL0     C  442  10.222   4.128   6.063  0.2251  0.0043 -1.0997
  745MOL0     O  443  10.287   4.016   6.093 -0.5390 -0.2001 -0.3282
  745MOL0     C  444  10.290   3.909   6.002 -0.8691 -0.4444 -0.2110
  745MOL0     C  445  10.398   3.913   5.911 -0.1752 -0.5982  0.2255
  745MOL0     C  446  10.407   3.799   5.825  0.3412 -0.6205  0.6919
  745MOL0     C  447  10.303   3.705   5.812  0.4792  0.5425  0.6153
  745MOL0     O  448  10.314   3.598   5.728 -0.0608  0.4977  0.0615
  745MOL0     C  449  10.445   3.543   5.701  1.2317  0.3294 -1.0299
  745MOL0     C  450  10.484   3.456   5.834  0.7418 -0.4547 -0.0039
  745MOL0     C  451  10.369   3.394   5.916  1.1447 -0.0654 -0.2358
  745MOL0     C  452  10.421   3.282   6.004  0.3469 -0.0724 -1.2009
  745MOL0     C  453  10.325   3.199   6.084  0.9662 -0.3338  0.1883
  745MOL0     C  454  10.388   3.075   6.154 -0.1575 -0.2274 -0.0208
  745MOL0     C  455  10.313   3.028   6.274  0.4126  0.1433  0.9566
  745MOL0     C  456  10.358   2.897   6.337 -0.6264  0.2388  0.0505
  745MOL0     N  457  10.265   2.866   6.448 -1.3936 -0.4154  0.6570
  745MOL0     C  458  10.266   2.945   6.562 -0.6383 -0.1963 -0.2146
  745MOL0     C  459  10.161   2.896   6.626 -1.1468  0.8918  0.2333
  745MOL0     C  460  10.112   2.936   6.760  0.3649  0.2829  0.1102
  745MOL0     C  461  10.000   3.037   6.750  0.2043  0.1448 -0.7694
  745MOL0     C  462   9.928   3.028   6.889  0.2128 -0.0862 -0.8745
  745MOL0     C  463   9.806   3.127   6.895 -0.8350  0.1768  0.1200
  745MOL0     O  464   9.727   3.087   7.018 -0.4810  1.0145 -0.4189
  745MOL0     C  465   9.777   3.120   7.144  0.3342  0.1432 -0.7218
  745MOL0     C  466   9.727   3.040   7.244 -0.3974 -0.3656  0.0679
  745MOL0     C  467   9.761   3.057   7.376  0.1095  1.0729  0.1468
  745MOL0     C  468   9.679   2.974   7.467 -0.2169  1.0976 -0.5619
  745MOL0     C  469   9.837   3.167   7.416 -0.0324 -0.2457  1.2723
  745MOL0     C  470   9.864   3.212   7.554 -0.3684  0.0593  0.1284
  745MOL0     O  471   9.945   3.328   7.570  0.5428 -0.6059 -0.7883
  745MOL0     C  472   9.987   3.368   7.696  0.5039 -0.0682  0.8823
  745MOL0     C  473  10.000   3.504   7.733 -0.3202  0.0543  0.0956
  745MOL0     C  474  10.043   3.538   7.865  0.0666  0.4182  0.7549
  745MOL0     C  475  10.070   3.438   7.955 -0.0715 -0.2957  0.1477
  745MOL0     O  476  10.129   3.456   8.075 -0.0786  0.8681  0.1618
  745MOL0     C  477  10.092   3.578   8.139  0.2571 -0.3303  0.4569
  745MOL0     C  478  10.177   3.697   8.108  0.6193  0.5513 -0.2020
  745MOL0     C  479  10.292   3.702   8.203 -1.2677  0.1411  0.1718
  745MOL0     C  480  10.391   3.826   8.194  0.2731  0.3792  0.2172
  745MOL0     C  481  10.502   3.839   8.298  0.0013  0.1860  0.0721
  745MOL0     C  482  10.589   3.712   8.305  0.2156  0.1903 -0.2838
  745MOL0     C  483  10.718   3.727   8.377 -0.2592 -1.1497 -0.2794
  745MOL0     C  484  10.791   3.589   8.384  0.8058  0.4190 -0.0870
  745MOL0    Cl  485  10.821   3.509   8.224  0.1127 -0.5079  0.3975
  745MOL0     C  486  10.067   3.306   7.912  0.1966 -0.4155  0.8867
  745MOL0     C  487  10.023   3.270   7.786  0.7166 -0.8229 -1.2624
  745MOL0     O  488   9.819   3.152   7.647  0.5583 -0.0668  0.1454
  745MOL0     C  489   9.904   3.242   7.309  0.0256  0.4086  0.1976
  745MOL0     C  490   9.863   3.224   7.173 -0.3160 -0.2516 -0.0783
  745MOL0     N  491  10.106   2.783   6.566 -0.3971  0.8348  0.7215
  745MOL0     N  492  10.172   2.770   6.454  0.4827  0.0229  1.0353
  745MOL0     C  493  10.196   3.717   5.897  0.2351 -0.4412 -0.5457
  745MOL0     C  494  10.191   3.810   5.999  0.6330  0.4608 -0.5999
  745MOL0     C  495  10.234   4.245   6.150 -0.1209 -1.3922 -0.4122
  745MOL0     C  496  10.345   4.254   6.242 -0.0148 -0.2933  0.2295
  745MOL0     C  497  10.359   4.367   6.315  0.3108  0.3430 -0.6270
  745MOL0     C  498  10.262   4.472   6.306 -0.0136 -1.2717 -0.0113
  745MOL0     O  499  10.270   4.589   6.383 -0.4904  0.3805  0.6433
  745MOL0     C  500  10.400   4.640   6.402 -0.6383  0.1730 -0.0744
  745MOL0     C  501  10.444   4.740   6.302 -0.2340  0.0886  0.0661
  745MOL0     C  502  10.419   4.706   6.158  0.1607 -0.1297  0.4340
  745MOL0     C  503  10.468   4.808   6.062  0.0585 -0.5343 -0.4360
  745MOL0     C  504  10.410   4.796   5.920  0.5755 -0.1584  0.0876
  745MOL0     C  505  10.347   4.775   5.816 -0.6847 -0.9446  0.3538
  745MOL0     C  506  10.152   4.468   6.216 -0.7049  0.0873  0.5581
  745MOL0     C  507  10.143   4.351   6.136 -0.5399  1.0699 -0.0025
  745MOL0     H  508  10.476   3.987   5.928 -1.3124  0.2407  2.0639
  745MOL0     H  509  10.494   3.804   5.761  0.9023  2.2342  1.5204
  745MOL0     H  510  10.431   3.477   5.615 -1.8019 -0.4338 -0.0674
  745MOL0     H  511  10.526   3.612   5.674  4.5872 -1.6329  2.9594
  745MOL0     H  512  10.546   3.372   5.801  1.8812  0.6238 -0.6799
  745MOL0     H  513  10.552   3.515   5.896  1.7905 -1.1002 -0.5235
  745MOL0     H  514  10.341   3.468   5.991 -0.1949 -2.2156  1.4929
  745MOL0     H  515  10.284   3.360   5.856  1.6440 -1.1270 -0.3679
  745MOL0     H  516  10.478   3.217   5.937  1.8965 -1.5927  1.4394
  745MOL0     H  517  10.487   3.333   6.074 -1.0377 -0.7672  0.6895
  745MOL0     H  518  10.287   3.266   6.162 -0.0473 -2.8848  2.0377
  745MOL0     H  519  10.239   3.171   6.022  1.1393  0.0269 -0.2191
  745MOL0     H  520  10.397   2.999   6.076  0.7346  1.7159 -1.9281
  745MOL0     H  521  10.488   3.107   6.187 -0.6004 -0.2907  1.4744
  745MOL0     H  522  10.309   3.106   6.350 -0.8417  1.2057 -0.1416
  745MOL0     H  523  10.208   3.018   6.243 -1.2539  5.1871  3.8278
  745MOL0     H  524  10.464   2.894   6.363 -0.1357  0.2903 -1.8051
  745MOL0     H  525  10.341   2.815   6.266 -2.2985  1.3324 -0.8770
  745MOL0     H  526  10.324   3.030   6.598 -1.9633 -0.1546  2.0218
  745MOL0     H  527  10.074   2.847   6.811  0.2838  1.0031  1.3763
  745MOL0     H  528  10.198   2.978   6.815 -1.6194  3.5697  0.9713
  745MOL0     H  529   9.933   3.020   6.665  0.3953  1.7892 -1.2854
  745MOL0     H  530  10.026   3.140   6.725  1.6094 -0.8931 -4.1005
  745MOL0     H  531   9.977   3.054   6.983 -2.0256 -3.7027  1.4960
  745MOL0     H  532   9.893   2.926   6.906 -3.0666  1.0760 -0.0414
  745MOL0     H  533   9.750   3.119   6.802  0.7370  0.7640 -0.9054
  745MOL0     H  534   9.828   3.234   6.899 -3.0782  0.7194 -0.7362
  745MOL0     H  535   9.660   2.961   7.211 -0.3089 -1.3609  2.1059
  745MOL0     H  536   9.628   3.031   7.546  2.0113  0.6713  1.2962
  745MOL0     H  537   9.610   2.901   7.424  1.0424 -1.4415  1.4343
  745MOL0     H  538   9.743   2.899   7.514 -3.1121 -1.4812 -0.4424
  745MOL0     H  539   9.987   3.585   7.661 -1.1485 -2.2089 -2.4851
  745MOL0     H  540  10.054   3.643   7.892  0.0579  0.8647 -0.8440
  745MOL0     H  541   9.986   3.592   8.115 -0.2171 -2.1877  1.2681
  745MOL0     H  542  10.073   3.585   8.247 -1.3873  2.9926  0.0756
  745MOL0     H  543  10.213   3.691   8.005 -1.2621 -0.4493 -0.8452
  745MOL0     H  544  10.117   3.786   8.130 -0.7408 -0.4351  0.2008
  745MOL0     H  545  10.345   3.607   8.196 -3.7521 -1.2840 -0.4273
  745MOL0     H  546  10.264   3.699   8.309  2.9581 -0.7723  1.4356
  745MOL0     H  547  10.437   3.812   8.096 -1.1319 -2.4096 -0.1481
  745MOL0     H  548  10.336   3.920   8.206 -0.2662 -0.0632  1.3616
  745MOL0     H  549  10.464   3.884   8.390 -2.7377  0.8980 -1.3029
  745MOL0     H  550  10.559   3.919   8.251 -2.4159  1.0424 -1.6141
  745MOL0     H  551  10.543   3.624   8.351  1.2083 -0.5162 -0.5947
  745MOL0     H  552  10.618   3.694   8.201 -1.7287 -0.2241 -0.8108
  745MOL0     H  553  10.688   3.754   8.479  1.7609  3.4473 -0.6392
  745MOL0     H  554  10.786   3.806   8.344  0.8902 -2.3001 -0.7478
  745MOL0     H  555  10.723   3.519   8.433  0.0143  0.3937 -1.1727
  745MOL0     H  556  10.871   3.609   8.456  0.3356  2.8445 -0.1389
  745MOL0     H  557  10.075   3.230   7.990 -0.4922 -0.8910  0.4975
  745MOL0     H  558  10.017   3.165   7.756 -1.6407 -0.6779 -1.5613
  745MOL0     H  559   9.988   3.310   7.319 -0.0488  0.3771  1.0770
  745MOL0     H  560   9.891   3.295   7.096 -2.1418  0.4843 -0.1155
  745MOL0     H  561  10.118   3.642   5.895 -2.2769  2.0218 -0.9808
  745MOL0     H  562  10.113   3.800   6.073  0.5733 -1.3125 -0.8542
  745MOL0     H  563  10.424   4.185   6.270  2.3443  1.2739 -2.0974
  745MOL0     H  564  10.447   4.359   6.378 -0.9521 -1.5046  1.0457
  745MOL0     H  565  10.399   4.685   6.502  2.0281  1.8158 -0.6856
  745MOL0     H  566  10.480   4.565   6.408  0.6940  1.6155  1.0290
  745MOL0     H  567  10.553   4.747   6.297 -0.2153 -0.4904 -0.5156
  745MOL0     H  568  10.413   4.841   6.328 -1.5217  0.1820 -1.6385
  745MOL0     H  569  10.310   4.700   6.145  0.4635  0.0162 -2.8389
  745MOL0     H  570  10.469   4.609   6.147 -1.3267 -0.9624  0.6673
  745MOL0     H  571  10.578   4.803   6.058  0.5726 -0.0178  5.0777
  745MOL0     H  572  10.439   4.904   6.106  2.5008  1.2224 -2.3865
  745MOL0     H  573  10.307   4.768   5.717  0.2865  0.7747 -0.2096
  745MOL0     H  574  10.078   4.547   6.204  0.0973  0.4355 -3.3885
  745MOL0     H  575  10.056   4.350   6.070  1.2946  1.8904 -2.5751
  746MOL0     O  576   5.798   3.392   1.356  0.6929 -0.3029  0.2317
  746MOL0     C  577   5.875   3.483   1.333 -0.1609 -0.5556  0.3060
  746MOL0     O  578   5.847   3.586   1.248 -0.1745 -0.0100 -0.0200
  746MOL0     C  579   5.720   3.592   1.203  0.2736 -0.9399 -0.6688
  746MOL0     C  580   5.621   3.647   1.278 -0.3723  0.0981  0.5329
  746MOL0     C  581   5.483   3.644   1.238  1.0643 -0.3150 -0.3058
  746MOL0     C  582   5.448   3.578   1.115 -0.5162 -0.0388 -0.5568
  746MOL0     O  583   5.322   3.568   1.071 -0.1462 -0.0561  0.0114
  746MOL0     C  584   5.218   3.523   1.162  0.4273 -1.3482  0.1864
  746MOL0     C  585   5.251   3.388   1.226 -0.0257  0.6750 -0.0872
  746MOL0     C  586   5.138   3.322   1.314  0.5868 -0.3191 -0.0211
  746MOL0     C  587   5.003   3.331   1.249  0.4024  0.5884  0.0124
  746MOL0     C  588   4.886   3.282   1.335  0.2568 -0.5555  1.5020
  746MOL0     C  589   4.909   3.145   1.409  0.1932 -0.8263  0.5881
  746MOL0     C  590   4.791   3.080   1.479  0.7889 -0.4209 -0.9372
  746MOL0     C  591   4.753   3.173   1.596 -0.5526  0.1404 -0.5296
  746MOL0     N  592   4.849   3.228   1.690 -0.5508  0.0609  1.0730
  746MOL0     C  593   4.825   3.332   1.778 -0.2457  0.6427  0.5615
  746MOL0     C  594   4.923   3.327   1.867 -0.6706  0.0730  0.3610
  746MOL0     C  595   4.926   3.431   1.978  0.1815  0.1648 -0.6053
  746MOL0     C  596   5.021   3.550   1.974  0.1057  0.1188 -0.3904
  746MOL0     C  597   4.982   3.662   1.880 -0.3908 -0.2939  0.3378
  746MOL0     C  598   5.049   3.795   1.929 -0.0131  0.4556  0.2074
  746MOL0     O  599   5.184   3.786   1.906 -0.8581 -0.1592 -0.2568
  746MOL0     C  600   5.270   3.826   2.007  0.5136  0.3891  0.1398
  746MOL0     C  601   5.370   3.735   2.048 -0.2230 -0.5661  0.0786
  746MOL0     C  602   5.463   3.774   2.145 -0.3683  0.2180  0.9252
  746MOL0     C  603   5.567   3.671   2.207 -0.8672  0.0862  0.0598
  746MOL0     C  604   5.459   3.910   2.190  0.2152 -0.6919  0.0387
  746MOL0     C  605   5.557   3.971   2.288  0.6538 -0.2661 -0.2487
  746MOL0     O  606   5.506   4.067   2.366  0.1180  0.1390  0.1376
  746MOL0     C  607   5.581   4.092   2.478 -0.9543  0.1965  0.2536
  746MOL0     C  608   5.674   4.197   2.479 -0.6933  1.3157 -0.1556
  746MOL0     C  609   5.737   4.234   2.597 -0.3051  0.1031  0.4468
  746MOL0     C  610   5.718   4.165   2.720  0.0915 -0.3167  0.8906
  746MOL0     O  611   5.794   4.181   2.838 -0.2145 -0.4346  0.0709
  746MOL0     C  612   5.734   4.245   2.950 -0.3839 -0.2490  0.6694
  746MOL0     C  613   5.851   4.272   3.044  0.0928  0.2070 -0.3662
  746MOL0     C  614   5.807   4.336   3.178 -1.5040  0.0781  0.6793
  746MOL0     C  615   5.774   4.480   3.173 -0.5705 -0.0082 -0.1543
  746MOL0     C  616   5.746   4.550   3.310  0.3953 -0.0364 -0.2827
  746MOL0     C  617   5.640   4.670   3.299  0.8262 -0.8788 -0.1497
  746MOL0     C  618   5.659   4.763   3.178 -1.6700 -0.1052  0.9549
  746MOL0     C  619   5.779   4.859   3.208 -0.3122 -0.9875 -0.7272
  746MOL0    Cl  620   5.813   4.986   3.088 -0.1164  0.0991 -0.0755
  746MOL0     C  621   5.631   4.055   2.705 -0.2660 -0.3914  0.0909
  746MOL0     C  622   5.577   4.016   2.593 -1.2239  0.2397  0.5054
  746MOL0     O  623   5.672   3.939   2.283 -0.1414  0.2646 -0.3200
  746MOL0     C  624   5.344   3.986   2.162 -0.0042  0.6446 -0.0492
  746MOL0     C  625   5.252   3.953   2.062  0.0346  0.2751 -0.1331
  746MOL0     N  626   5.007   3.216   1.842  1.1605  1.2117  0.7792
  746MOL0     N  627   4.958   3.152   1.737  0.3172 -0.2748  0.0922
  746MOL0     C  628   5.555   3.537   1.025 -0.3823  0.2040 -0.3110
  746MOL0     C  629   5.692   3.547   1.076 -0.8230 -1.3192  0.5938
  746MOL0     C  630   5.995   3.488   1.410  0.3713 -0.3048 -0.1079
  746MOL0     C  631   6.096   3.587   1.387  0.1239  0.0839 -0.0078
  746MOL0     C  632   6.217   3.582   1.458  0.0616 -0.4086 -0.3306
  746MOL0     C  633   6.240   3.500   1.564  0.3492 -0.9196 -0.1502
  746MOL0     O  634   6.362   3.506   1.624 -0.4934  0.6022  0.1333
  746MOL0     C  635   6.380   3.413   1.739  0.0446 -0.0614  0.5836
  746MOL0     C  636   6.509   3.409   1.812 -0.5182  0.2356 -0.5858
  746MOL0     C  637   6.601   3.324   1.719 -0.5957 -0.3503 -0.7385
  746MOL0     C  638   6.742   3.335   1.770 -0.5040 -0.3501  0.1185
  746MOL0     C  639   6.797   3.475   1.771  0.0148 -0.1040  0.0601
  746MOL0     C  640   6.835   3.587   1.798 -0.1655 -0.4061  1.0018
  746MOL0     C  641   6.139   3.407   1.592  0.5497 -0.2804  0.2306
  746MOL0     C  642   6.021   3.409   1.525  0.3742 -0.0907 -0.8526
  746MOL0     H  643   5.647   3.689   1.375  0.1298  2.4212 -0.5544
  746MOL0     H  644   5.411   3.695   1.300 -1.9161 -1.0651 -2.9008
  746MOL0     H  645   5.190   3.607   1.226 -1.3600  1.8616 -4.2650
  746MOL0     H  646   5.133   3.503   1.096  2.1105  1.0863 -3.0192
  746MOL0     H  647   5.273   3.310   1.152  0.8770 -0.6490  1.5170
  746MOL0     H  648   5.341   3.389   1.289 -1.4696  1.0910  2.0526
  746MOL0     H  649   5.163   3.216   1.323  0.5647 -0.2956  0.3391
  746MOL0     H  650   5.143   3.367   1.414  2.6144  0.6367 -0.4839
  746MOL0     H  651   4.984   3.436   1.225 -1.1175  0.3477  0.0767
  746MOL0     H  652   4.989   3.270   1.159 -0.2541  0.8226 -0.0517
  746MOL0     H  653   4.863   3.365   1.402 -1.9154  0.8580 -0.8083
  746MOL0     H  654   4.790   3.278   1.282  0.9432 -3.5629  0.2707
  746MOL0     H  655   4.955   3.079   1.334  0.3049  2.4526 -2.4955
  746MOL0     H  656   4.985   3.176   1.482 -0.7601  2.4967  0.3110
  746MOL0     H  657   4.706   3.072   1.410 -0.0775 -1.0046  0.1575
  746MOL0     H  658   4.813   2.980   1.518 -4.3287 -1.7078 -0.5205
  746MOL0     H  659   4.687   3.107   1.652  1.6731 -3.3866 -1.7490
  746MOL0     H  660   4.711   3.269   1.565  1.5681  0.9625 -1.0346
  746MOL0     H  661   4.744   3.402   1.762  0.5635  1.5830  0.4782
  746MOL0     H  662   4.825   3.473   1.982 -1.2486 -3.0568  0.6659
  746MOL0     H  663   4.939   3.367   2.066 -3.1843 -0.2322 -0.2346
  746MOL0     H  664   5.123   3.521   1.948  0.5331  2.2323 -1.2732
  746MOL0     H  665   5.036   3.592   2.074  2.2219 -0.9564 -0.2057
  746MOL0     H  666   4.874   3.679   1.882 -0.1115  1.6392  2.0173
  746MOL0     H  667   5.016   3.645   1.778 -0.0113 -0.8315  0.5497
  746MOL0     H  668   5.030   3.810   2.036  1.4968 -0.8760  0.7055
  746MOL0     H  669   5.008   3.875   1.868  0.1482 -0.9429 -1.8087
  746MOL0     H  670   5.396   3.643   1.996  0.4393  1.5216 -3.6887
  746MOL0     H  671   5.521   3.573   2.196  0.4625 -1.0361  3.2993
  746MOL0     H  672   5.659   3.667   2.148  1.0097  0.7945  2.7534
  746MOL0     H  673   5.595   3.690   2.311  0.4372  0.5719 -0.3664
  746MOL0     H  674   5.689   4.250   2.385  1.5451 -0.0607 -0.6565
  746MOL0     H  675   5.816   4.308   2.602  1.9248 -2.0918 -0.6072
  746MOL0     H  676   5.675   4.332   2.922  3.0282  1.4184 -2.0784
  746MOL0     H  677   5.669   4.171   2.999  0.7882 -1.9974 -0.2932
  746MOL0     H  678   5.881   4.177   3.089 -3.4970 -0.3562  1.2168
  746MOL0     H  679   5.943   4.314   3.001  0.3103 -0.1017 -0.2079
  746MOL0     H  680   5.882   4.328   3.257 -0.4534  0.2276 -0.2774
  746MOL0     H  681   5.717   4.286   3.215 -0.7217 -1.0966  1.0453
  746MOL0     H  682   5.863   4.528   3.132  0.1957 -2.1074 -1.1116
  746MOL0     H  683   5.689   4.507   3.109  1.0568  2.2202 -1.4970
  746MOL0     H  684   5.846   4.573   3.347  0.6419 -1.7072  0.1700
  746MOL0     H  685   5.709   4.476   3.382  1.6779  2.2499  2.9888
  746MOL0     H  686   5.539   4.628   3.297  0.4138 -0.1074  1.7359
  746MOL0     H  687   5.648   4.749   3.375  1.8930 -1.0387 -0.0781
  746MOL0     H  688   5.575   4.823   3.141  1.1021  2.4943 -1.7922
  746MOL0     H  689   5.698   4.701   3.097 -0.2916  1.2320  0.5333
  746MOL0     H  690   5.868   4.801   3.237 -0.4254 -0.6663  0.2932
  746MOL0     H  691   5.764   4.905   3.306  0.0874 -1.1426 -0.5906
  746MOL0     H  692   5.616   3.994   2.794  1.1008 -1.4270 -0.3548
  746MOL0     H  693   5.517   3.926   2.598 -1.4200  0.1682 -1.9208
  746MOL0     H  694   5.331   4.088   2.197 -1.7172 -0.0186  1.3667
  746MOL0     H  695   5.180   4.029   2.037 -0.2323 -0.0250 -0.2818
  746MOL0     H  696   5.536   3.513   0.921  0.5000  3.4735 -1.3503
  746MOL0     H  697   5.771   3.512   1.010 -1.0388  0.0998 -0.4581
  746MOL0     H  698   6.086   3.663   1.310 -2.9571 -0.5856 -0.4014
  746MOL0     H  699   6.301   3.651   1.449  0.3047 -0.4945  1.0656
  746MOL0     H  700   6.303   3.440   1.812  1.3534  3.7720  0.7864
  746MOL0     H  701   6.349   3.323   1.686  0.5198  1.8049 -3.1339
  746MOL0     H  702   6.495   3.362   1.910  0.7003  0.3915 -0.3249
  746MOL0     H  703   6.557   3.505   1.828  2.1933 -0.4890 -3.4275
  746MOL0     H  704   6.595   3.366   1.618 -1.7487  3.2000  0.6602
  746MOL0     H  705   6.562   3.222   1.717 -0.5718 -0.4908  2.0042
  746MOL0     H  706   6.809   3.278   1.704  0.7346  0.4984  0.5877
  746MOL0     H  707   6.742   3.292   1.870 -0.1920 -1.3050 -0.2787
  746MOL0     H  708   6.877   3.685   1.810  1.4183 -0.5160 -2.5257
  746MOL0     H  709   6.159   3.336   1.672  3.7025  0.4874  0.2300
  746MOL0     H  710   5.944   3.349   1.570  0.8422  2.1876  3.5123
  747MOL0     O  711   6.876   1.898   9.240 -0.0576  0.0748  0.1488
  747MOL0     C  712   6.878   2.024   9.257 -0.4356  1.0886  1.1833
  747MOL0     O  713   6.767   2.101   9.288  0.0548 -0.2945 -0.0498
  747MOL0     C  714   6.637   2.063   9.294 -0.3055  0.1947 -0.3907
  747MOL0     C  715   6.556   2.151   9.376 -0.0360 -0.1127 -0.2931
  747MOL0     C  716   6.428   2.110   9.415 -0.9554 -0.3581  0.9051
  747MOL0     C  717   6.377   1.995   9.359  0.2480 -0.4655 -0.5733
  747MOL0     O  718   6.253   1.961   9.390 -0.4119  0.4467 -0.3593
  747MOL0     C  719   6.162   2.064   9.422  0.9547 -0.2690 -1.1864
  747MOL0     C  720   6.045   2.001   9.508  0.6988  1.0863  0.8129
  747MOL0     C  721   5.927   2.102   9.503 -0.2006  0.1569 -0.3720
  747MOL0     C  722   5.962   2.245   9.545 -0.5204 -0.5077  0.4359
  747MOL0     C  723   5.844   2.300   9.630  0.3251  0.1759  1.0674
  747MOL0     C  724   5.859   2.443   9.687 -0.2957  0.5567 -0.5714
  747MOL0     C  725   5.758   2.472   9.789  0.3434  0.2201  0.4579
  747MOL0     C  726   5.815   2.561   9.903 -0.8663 -0.0182 -0.2581
  747MOL0     N  727   5.904   2.673   9.851  0.1075  0.3971 -0.0778
  747MOL0     C  728   5.855   2.773   9.768  0.0750  0.0972 -1.0168
  747MOL0     C  729   5.952   2.870   9.767  0.4213 -0.3093 -0.5667
  747MOL0     C  730   5.926   3.011   9.719  0.1184  0.4340 -0.2217
  747MOL0     C  731   6.055   3.109   9.709  0.7098 -0.6056  0.0751
  747MOL0     C  732   6.021   3.236   9.634  0.2624 -0.1531  0.7681
  747MOL0     C  733   6.151   3.311   9.607  0.3021 -0.5263  0.6931
  747MOL0     O  734   6.117   3.445   9.578 -0.8867 -0.3156 -0.6250
  747MOL0     C  735   6.218   3.541   9.561  1.2498  0.5057 -0.0447
  747MOL0     C  736   6.176   3.673   9.593  0.4632  0.6751 -0.8215
  747MOL0     C  737   6.257   3.785   9.580 -0.0062 -0.0620  0.5140
  747MOL0     C  738   6.209   3.915   9.647  0.5271 -0.2505  0.3840
  747MOL0     C  739   6.393   3.764   9.525  0.1633  0.4537  0.9936
  747MOL0     C  740   6.494   3.865   9.517  0.2058  0.8119 -0.2722
  747MOL0     O  741   6.452   3.998   9.537 -0.4549 -0.0388 -0.2943
  747MOL0     C  742   6.548   4.096   9.543  0.0594 -0.7477  0.0483
  747MOL0     C  743   6.663   4.093   9.620  0.3559  0.1105  0.4990
  747MOL0     C  744   6.750   4.201   9.621 -0.2019 -0.9278 -0.2553
  747MOL0     C  745   6.739   4.312   9.542  0.2466  0.7233 -0.8002
  747MOL0     O  746   6.825   4.411   9.549 -0.3172  0.5513 -0.3044
  747MOL0     C  747   6.894   4.448   9.430 -0.0378  0.4643  0.0004
  747MOL0     C  748   7.048   4.432   9.458 -0.4339 -0.0468  0.1073
  747MOL0     C  749   7.130   4.485   9.333  0.4247  0.2033 -0.1629
  747MOL0     C  750   7.197   4.613   9.355 -0.5008 -0.0501  0.1859
  747MOL0     C  751   7.085   4.713   9.376  0.4071 -1.0756  0.0149
  747MOL0     C  752   7.144   4.849   9.342 -0.2532  0.9192 -0.3073
  747MOL0     C  753   7.036   4.951   9.354  0.5519  0.2127 -1.0339
  747MOL0     C  754   7.094   5.094   9.346  0.4921 -0.1896  0.2221
  747MOL0    Cl  755   6.955   5.209   9.319 -0.0485  0.2589 -0.6446
  747MOL0     C  756   6.632   4.319   9.449  0.1882 -0.2871  0.7980
  747MOL0     C  757   6.539   4.207   9.450  0.6612  0.0706  0.2707
  747MOL0     O  758   6.613   3.829   9.504  0.2982  0.4383 -0.2035
  747MOL0     C  759   6.424   3.633   9.486 -0.0470 -0.9389  0.3281
  747MOL0     C  760   6.347   3.521   9.510  0.6398 -0.4651 -0.4858
  747MOL0     N  761   6.069   2.825   9.831  0.4292  0.2321  0.5555
  747MOL0     N  762   6.034   2.707   9.874  0.5801  0.7602  0.1048
  747MOL0     C  763   6.450   1.914   9.279 -0.5712 -0.5044 -0.0604
  747MOL0     C  764   6.588   1.939   9.250  0.0689 -0.7166  0.5050
  747MOL0     C  765   7.009   2.091   9.235 -0.3989  0.2598  0.1177
  747MOL0     C  766   7.054   2.184   9.325 -0.2460 -0.2292  0.4166
  747MOL0     C  767   7.172   2.253   9.298  0.4704 -0.5471 -0.0723
  747MOL0     C  768   7.254   2.217   9.190 -0.8269  0.1971  0.6750
  747MOL0     O  769   7.369   2.261   9.152 -0.6418 -1.5528 -0.2092
  747MOL0     C  770   7.419   2.378   9.216  1.1924  0.2290 -0.0812
  747MOL0     C  771   7.561   2.423   9.163 -0.4837  0.2274  0.3983
  747MOL0     C  772   7.578   2.440   9.016  0.0712  0.7229  0.7110
  747MOL0     C  773   7.501   2.536   8.931 -0.0334  0.1625 -0.4008
  747MOL0     C  774   7.478   2.670   9.002  0.0230  0.4958  0.3351
  747MOL0     C  775   7.476   2.780   9.050  0.8442  0.1537 -0.7643
  747MOL0     C  776   7.212   2.115   9.108 -0.5174 -0.0372 -0.7162
  747MOL0     C  777   7.089   2.046   9.129 -0.2333 -0.3169 -0.5873
  747MOL0     H  778   6.597   2.245   9.412 -0.3086  0.5347 -1.6053
  747MOL0     H  779   6.381   2.172   9.490 -1.3614 -0.5924  0.8415
  747MOL0     H  780   6.190   2.143   9.491 -1.0308 -1.3024  0.9484
  747MOL0     H  781   6.127   2.116   9.332  2.0651 -1.6652 -2.4920
  747MOL0     H  782   6.015   1.907   9.460  1.9773  1.4455 -0.7628
  747MOL0     H  783   6.078   1.971   9.608  0.2953  1.6282  1.1125
  747MOL0     H  784   5.876   2.100   9.406 -0.5684 -1.6250 -0.1709
  747MOL0     H  785   5.857   2.055   9.572  0.7193 -3.5969 -1.7533
  747MOL0     H  786   6.057   2.238   9.599 -1.5121 -1.1412  2.1894
  747MOL0     H  787   5.971   2.307   9.456 -1.1033 -1.3312 -0.2208
  747MOL0     H  788   5.754   2.282   9.571  2.7311  0.6375 -3.0942
  747MOL0     H  789   5.841   2.242   9.723 -2.2278 -0.3419  0.7328
  747MOL0     H  790   5.963   2.453   9.721 -0.4457  0.9165 -0.2108
  747MOL0     H  791   5.843   2.511   9.603 -2.9839  1.6183  0.7006
  747MOL0     H  792   5.679   2.530   9.740  0.0082  2.1211  3.0446
  747MOL0     H  793   5.717   2.377   9.826 -0.4403  0.9800  1.6390
  747MOL0     H  794   5.878   2.494   9.963  3.2603  2.0456 -1.8472
  747MOL0     H  795   5.742   2.598   9.975  1.5229  1.7610  1.4045
  747MOL0     H  796   5.753   2.784   9.732 -0.7273 -1.1055  0.7116
  747MOL0     H  797   5.887   2.992   9.618  0.0461 -2.4753  0.2599
  747MOL0     H  798   5.838   3.045   9.774 -0.7510  0.8026 -1.7737
  747MOL0     H  799   6.129   3.063   9.642 -0.3982 -1.2665 -0.7315
  747MOL0     H  800   6.087   3.136   9.810 -3.0820  1.4813  0.9047
  747MOL0     H  801   5.957   3.296   9.698 -2.0108  0.7575 -2.1673
  747MOL0     H  802   5.973   3.210   9.539 -3.5007  1.6704  2.0118
  747MOL0     H  803   6.192   3.264   9.518  0.3976  3.2487 -1.4619
  747MOL0     H  804   6.236   3.310   9.675  1.7091 -2.1394 -1.0105
  747MOL0     H  805   6.080   3.692   9.639  0.6261  0.1001 -0.2328
  747MOL0     H  806   6.119   3.906   9.708  0.5017  1.1190  0.5961
  747MOL0     H  807   6.290   3.952   9.712  0.4110 -1.5243  1.2779
  747MOL0     H  808   6.180   3.988   9.571  0.1243 -0.0101  0.7619
  747MOL0     H  809   6.683   4.006   9.682 -2.2438 -3.0715 -2.7117
  747MOL0     H  810   6.833   4.220   9.688 -1.2889  1.2766  0.5689
  747MOL0     H  811   6.866   4.380   9.349  2.1082 -1.6069  0.8587
  747MOL0     H  812   6.877   4.553   9.407  0.7331  0.4830 -0.5385
  747MOL0     H  813   7.092   4.483   9.544 -1.1605 -0.4410  0.7258
  747MOL0     H  814   7.061   4.324   9.464 -1.2423 -0.2277 -1.0011
  747MOL0     H  815   7.066   4.481   9.244  3.2914 -2.0231 -2.3362
  747MOL0     H  816   7.216   4.419   9.314  0.3981  0.2840 -0.5632
  747MOL0     H  817   7.243   4.603   9.454  0.4932 -0.4457 -0.3085
  747MOL0     H  818   7.267   4.645   9.278  1.3599 -1.1874  1.3247
  747MOL0     H  819   7.046   4.715   9.479  0.5046 -2.2750  0.0844
  747MOL0     H  820   7.001   4.697   9.308  0.2237  0.3271 -0.1117
  747MOL0     H  821   7.233   4.884   9.394 -0.8054  0.5767  0.9287
  747MOL0     H  822   7.173   4.850   9.237 -0.7516 -0.1899 -0.4729
  747MOL0     H  823   6.981   4.936   9.447 -0.1041 -2.4174 -1.7620
  747MOL0     H  824   6.968   4.931   9.271  0.4117  1.0853 -1.1330
  747MOL0     H  825   7.165   5.084   9.264  0.9578 -0.6110  0.6668
  747MOL0     H  826   7.151   5.128   9.433  1.7207 -0.7080 -0.3612
  747MOL0     H  827   6.641   4.391   9.369  2.0604 -2.1908 -0.8443
  747MOL0     H  828   6.475   4.188   9.364 -3.2840 -0.5256  3.0437
  747MOL0     H  829   6.519   3.602   9.444 -0.0705  1.9613 -2.2965
  747MOL0     H  830   6.379   3.418   9.500  1.5395 -0.4902  1.9638
  747MOL0     H  831   6.400   1.826   9.240 -1.4561 -1.0358  2.1276
  747MOL0     H  832   6.618   1.867   9.174 -3.8722  0.8779 -2.9535
  747MOL0     H  833   7.002   2.195   9.420  0.0443  0.1623  0.5334
  747MOL0     H  834   7.210   2.322   9.373 -0.8265  0.6972 -0.5246
  747MOL0     H  835   7.353   2.461   9.191  3.0474  1.1280 -2.3002
  747MOL0     H  836   7.432   2.368   9.325 -0.2577 -4.7410 -0.1295
  747MOL0     H  837   7.635   2.347   9.187  1.5746  1.4171 -1.8155
  747MOL0     H  838   7.572   2.521   9.211 -5.5208  2.2043 -1.7587
  747MOL0     H  839   7.578   2.344   8.963  6.0344  0.4655  0.5367
  747MOL0     H  840   7.685   2.454   8.999  0.0239 -0.4317 -0.7754
  747MOL0     H  841   7.413   2.484   8.892  0.3892 -0.8953  0.0130
  747MOL0     H  842   7.552   2.562   8.838  0.1167  2.7303  0.3142
  747MOL0     H  843   7.481   2.875   9.100  1.5536 -1.4017  2.3450
  747MOL0     H  844   7.282   2.071   9.038  2.8778  0.6334  2.0252
  747MOL0     H  845   7.058   1.962   9.069 -3.4793  1.5176 -1.7433
  748MOL0     O  846   6.817   0.760   3.760 -0.0878 -0.8939  1.0707
  748MOL0     C  847   6.796   0.875   3.793 -0.2465 -0.6206 -0.0133
  748MOL0     O  848   6.676   0.950   3.771 -0.5325 -0.1783  0.4905
  748MOL0     C  849   6.569   0.894   3.707  0.4921 -0.5200 -0.5955
  748MOL0     C  850   6.520   0.954   3.598  0.3914  0.5039  1.0551
  748MOL0     C  851   6.418   0.901   3.524  0.3094  0.0856 -1.4878
  748MOL0     C  852   6.353   0.782   3.572 -1.0235  0.0161 -0.9952
  748MOL0     O  853   6.252   0.722   3.504 -0.1184 -0.1150 -0.7008
  748MOL0     C  854   6.126   0.767   3.474  0.2411 -0.3245 -0.5770
  748MOL0     C  855   6.123   0.806   3.321 -0.0503 -0.4405 -0.4902
  748MOL0     C  856   6.107   0.684   3.223  0.4186 -0.2533  0.4421
  748MOL0     C  857   5.953   0.649   3.205  0.9601  0.4997  0.1705
  748MOL0     C  858   5.930   0.551   3.088  0.1176  1.1795 -0.0670
  748MOL0     C  859   5.813   0.590   2.993  0.0435  0.2458  0.9655
  748MOL0     C  860   5.818   0.502   2.867 -0.6899 -0.3167  0.0293
  748MOL0     C  861   5.712   0.516   2.755 -0.6418 -0.7949  0.0743
  748MOL0     N  862   5.726   0.659   2.703 -0.1619 -0.5496 -0.3160
  748MOL0     C  863   5.660   0.762   2.751  0.5314  0.3705 -0.4087
  748MOL0     C  864   5.720   0.873   2.702  0.1245 -0.1259  0.0827
  748MOL0     C  865   5.683   1.014   2.740  0.0363 -0.0718 -0.2031
  748MOL0     C  866   5.635   1.096   2.617  0.3272  1.0352 -0.8184
  748MOL0     C  867   5.650   1.249   2.632  0.0635  0.1693  0.2742
  748MOL0     C  868   5.534   1.295   2.719 -0.5680  0.6010 -0.4041
  748MOL0     O  869   5.531   1.435   2.740 -0.4261  0.9202  1.0884
  748MOL0     C  870   5.602   1.488   2.841 -0.4975 -0.5257  0.1318
  748MOL0     C  871   5.740   1.521   2.827  0.5937  0.0720  0.6786
  748MOL0     C  872   5.813   1.587   2.925  0.3865 -0.4710 -0.3145
  748MOL0     C  873   5.945   1.657   2.890  0.8407 -0.5529 -0.2119
  748MOL0     C  874   5.741   1.609   3.046  0.9911 -0.3306  0.3848
  748MOL0     C  875   5.800   1.670   3.169 -0.8641  0.6715  0.5885
  748MOL0     O  876   5.703   1.680   3.277  0.2023 -0.2191 -0.5731
  748MOL0     C  877   5.743   1.728   3.401 -0.5486  0.2224  1.1610
  748MOL0     C  878   5.834   1.831   3.415  0.4894 -0.7403 -0.0320
  748MOL0     C  879   5.877   1.880   3.533 -1.0672  0.2396 -0.4257
  748MOL0     C  880   5.814   1.830   3.645 -0.9340 -1.5489 -1.0703
  748MOL0     O  881   5.843   1.873   3.770  0.3194 -0.1056  0.0468
  748MOL0     C  882   5.935   1.790   3.847 -0.9065 -0.2009  0.0820
  748MOL0     C  883   5.874   1.655   3.882 -0.0850  0.4850  0.1728
  748MOL0     C  884   5.953   1.579   3.989 -0.2629  0.1124 -0.0655
  748MOL0     C  885   6.010   1.663   4.118  0.6312 -0.0668  0.4280
  748MOL0     C  886   6.092   1.579   4.220 -0.3258 -1.0613  1.1549
  748MOL0     C  887   6.131   1.671   4.345  0.5824 -0.5501 -0.8546
  748MOL0     C  888   6.260   1.638   4.417  0.3284 -0.0744  0.2722
  748MOL0     C  889   6.297   1.733   4.527  0.1898 -1.2372  0.1069
  748MOL0    Cl  890   6.466   1.773   4.502 -0.1520  0.2582 -0.3834
  748MOL0     C  891   5.703   1.748   3.630  0.3364  0.0901  0.1803
  748MOL0     C  892   5.675   1.686   3.511 -0.0561  0.0645 -0.3474
  748MOL0     O  893   5.923   1.685   3.182 -0.8031 -0.1512 -0.5750
  748MOL0     C  894   5.609   1.564   3.061  1.1147 -0.0406 -0.3134
  748MOL0     C  895   5.536   1.510   2.960  0.4805  0.1359 -0.0526
  748MOL0     N  896   5.822   0.826   2.620 -0.9713  0.4133  0.1608
  748MOL0     N  897   5.817   0.704   2.612 -0.6346 -0.1008 -0.6385
  748MOL0     C  898   6.396   0.728   3.690 -0.9163  1.3712 -0.2737
  748MOL0     C  899   6.507   0.781   3.761 -0.1932 -0.2188  0.6544
  748MOL0     C  900   6.904   0.948   3.863 -0.0943 -0.6620  0.1406
  748MOL0     C  901   7.027   0.892   3.899 -0.0103 -0.5818 -1.1506
  748MOL0     C  902   7.129   0.964   3.966 -0.3652  0.3049 -0.3976
  748MOL0     C  903   7.111   1.093   3.999  0.4414  0.7971  0.1937
  748MOL0     O  904   7.187   1.168   4.074 -0.4537 -0.6139 -0.0774
  748MOL0     C  905   7.318   1.111   4.121  0.2680  0.3365 -0.1387
  748MOL0     C  906   7.404   1.224   4.180 -0.2079 -1.2341  0.7258
  748MOL0     C  907   7.350   1.311   4.298 -0.7340 -0.0572 -0.7385
  748MOL0     C  908   7.323   1.219   4.418 -0.9725 -0.7578  0.3642
  748MOL0     C  909   7.292   1.298   4.537  0.6039  0.1737 -0.2200
  748MOL0     C  910   7.273   1.349   4.646  0.2687  0.2498  0.5117
  748MOL0     C  911   6.989   1.152   3.964  0.3001 -0.1258  0.4271
  748MOL0     C  912   6.892   1.085   3.892  0.2188 -0.5716 -0.2440
  748MOL0     H  913   6.575   1.043   3.570  0.0875  0.0274 -1.2426
  748MOL0     H  914   6.390   0.940   3.427 -1.6611 -1.7532 -1.7488
  748MOL0     H  915   6.046   0.697   3.499 -2.0620  2.0692 -0.8684
  748MOL0     H  916   6.109   0.853   3.539  0.6947 -0.0710 -0.7872
  748MOL0     H  917   6.051   0.882   3.290 -0.0784  0.0358  0.6751
  748MOL0     H  918   6.216   0.854   3.288 -0.9092  0.1990 -2.0601
  748MOL0     H  919   6.153   0.710   3.128  0.5736 -1.2476  0.2355
  748MOL0     H  920   6.167   0.597   3.255  0.8300 -0.0249  0.2953
  748MOL0     H  921   5.915   0.625   3.304  0.3092 -0.7079 -0.3421
  748MOL0     H  922   5.903   0.743   3.180 -2.3365 -1.6692 -2.3059
  748MOL0     H  923   6.019   0.567   3.027 -0.8330 -0.9931 -2.2319
  748MOL0     H  924   5.938   0.446   3.118  2.3096  1.8212  1.8510
  748MOL0     H  925   5.721   0.567   3.048 -0.4752  1.9636  0.8732
  748MOL0     H  926   5.821   0.697   2.976 -2.3675  0.6473  1.9550
  748MOL0     H  927   5.919   0.506   2.825 -1.3562  0.6473 -1.5938
  748MOL0     H  928   5.814   0.397   2.898 -1.4372 -0.3818 -0.2702
  748MOL0     H  929   5.609   0.491   2.780 -1.1041 -0.7862 -1.6833
  748MOL0     H  930   5.734   0.452   2.669 -1.8708  1.0073 -1.6602
  748MOL0     H  931   5.578   0.755   2.821 -1.7476 -0.0741 -2.9370
  748MOL0     H  932   5.613   1.004   2.823  0.9045 -2.3799  0.3150
  748MOL0     H  933   5.776   1.063   2.772 -2.0140  2.9381  1.6623
  748MOL0     H  934   5.530   1.080   2.590  0.7478 -4.2115 -0.3873
  748MOL0     H  935   5.698   1.074   2.531 -0.8969 -0.8990 -1.2776
  748MOL0     H  936   5.645   1.287   2.530  1.3337  0.1412  0.1879
  748MOL0     H  937   5.742   1.275   2.685  2.0569  0.0160 -2.9015
  748MOL0     H  938   5.522   1.242   2.813 -3.2227 -0.2667 -1.1518
  748MOL0     H  939   5.440   1.267   2.671 -0.0118 -1.5236 -0.3523
  748MOL0     H  940   5.780   1.503   2.727 -1.0807  1.1383 -0.2435
  748MOL0     H  941   5.953   1.675   2.783 -3.5038  2.7226 -0.2469
  748MOL0     H  942   5.952   1.757   2.932 -0.0083 -1.0943  1.3020
  748MOL0     H  943   6.022   1.591   2.932  0.3767 -1.7263 -1.1532
  748MOL0     H  944   5.883   1.878   3.331 -2.8194  1.6705 -0.8043
  748MOL0     H  945   5.968   1.937   3.543 -2.1075  1.7484  0.8939
  748MOL0     H  946   6.033   1.805   3.801 -0.3144  2.0113  1.8585
  748MOL0     H  947   5.949   1.850   3.937 -2.4514 -0.9015  0.8111
  748MOL0     H  948   5.767   1.654   3.907  0.1609 -4.1298  2.0200
  748MOL0     H  949   5.874   1.595   3.791 -0.1865  1.5104 -0.5159
  748MOL0     H  950   6.031   1.524   3.936 -1.1410 -2.9718  1.5965
  748MOL0     H  951   5.898   1.497   4.036 -2.4783 -0.3208 -3.0841
  748MOL0     H  952   6.073   1.733   4.064  1.7967 -0.0587  1.7507
  748MOL0     H  953   5.928   1.705   4.177 -0.8744 -2.5814  0.2743
  748MOL0     H  954   6.191   1.567   4.174 -0.0889 -1.1416  1.6758
  748MOL0     H  955   6.056   1.482   4.254 -1.3394 -0.9062  0.5607
  748MOL0     H  956   6.137   1.778   4.324  1.8506 -0.5747 -0.7019
  748MOL0     H  957   6.041   1.666   4.408 -0.0791 -0.2547 -1.7593
  748MOL0     H  958   6.336   1.643   4.338 -0.4280  4.4102 -0.4170
  748MOL0     H  959   6.241   1.538   4.457 -1.9571  0.1655 -0.0546
  748MOL0     H  960   6.295   1.687   4.627 -2.4022 -0.1362  0.6426
  748MOL0     H  961   6.230   1.819   4.530  1.7670  0.1125 -1.3493
  748MOL0     H  962   5.645   1.736   3.721 -1.0080 -2.7561 -0.9236
  748MOL0     H  963   5.591   1.619   3.498  0.6424 -0.5574 -1.8353
  748MOL0     H  964   5.535   1.581   3.139  0.2078 -0.9364 -0.9433
  748MOL0     H  965   5.433   1.478   2.967  0.2511  0.8943  0.0989
  748MOL0     H  966   6.347   0.641   3.733 -0.4013  0.4292 -1.5335
  748MOL0     H  967   6.543   0.741   3.855 -2.1213 -4.0081 -0.0087
  748MOL0     H  968   7.042   0.785   3.882 -1.2532 -1.1415  0.8699
  748MOL0     H  969   7.216   0.914   4.007 -1.7146 -3.0387 -1.2826
  748MOL0     H  970   7.305   1.029   4.193  2.2413 -1.5426 -1.7616
  748MOL0     H  971   7.363   1.069   4.031 -0.7898 -1.9761  0.3264
  748MOL0     H  972   7.410   1.287   4.091 -2.0677  1.4882  2.3601
  748MOL0     H  973   7.508   1.196   4.199  0.7490  0.7180 -1.1827
  748MOL0     H  974   7.261   1.363   4.260  0.6015  2.9636 -0.0069
  748MOL0     H  975   7.422   1.391   4.313 -0.8903  0.3332 -1.9388
  748MOL0     H  976   7.420   1.171   4.432 -0.0427  1.0437  0.3216
  748MOL0     H  977   7.247   1.140   4.412  0.0921 -1.8896  1.2581
  748MOL0     H  978   7.266   1.393   4.744 -1.1772  1.8213 -0.2287
  748MOL0     H  979   6.989   1.259   3.982  1.9412  0.7371 -3.7387
  748MOL0     H  980   6.801   1.141   3.872  0.3406 -1.1579 -2.7922
  749MOL0     O  981   2.158   0.505   4.471  1.0455 -0.3967 -0.0405
  749MOL0     C  982   2.204   0.611   4.440 -0.3047  0.1093 -0.4601
  749MOL0     O  983   2.297   0.629   4.348 -0.2847 -0.0686 -0.1332
  749MOL0     C  984   2.346   0.528   4.277  0.2733  0.5018  0.3302
  749MOL0     C  985   2.267   0.420   4.223  0.0062 -1.0180 -0.1073
  749MOL0     C  986   2.332   0.327   4.148 -0.1208  0.4208 -0.1342
  749MOL0     C  987   2.471   0.335   4.127 -0.4181  0.0492  0.0985
  749MOL0     O  988   2.547   0.229   4.070  0.5912  0.1585 -0.3092
  749MOL0     C  989   2.480   0.100   4.056 -1.0067 -0.1457 -0.6265
  749MOL0     C  990   2.593   0.000   4.026 -0.0383  0.6123 -0.1843
  749MOL0     C  991   2.555  -0.147   4.045 -0.2723  0.1353  0.9665
  749MOL0     C  992   2.525  -0.214   3.912 -0.5594 -0.1244  0.9751
  749MOL0     C  993   2.483  -0.362   3.927 -0.1634 -0.3995  0.7290
  749MOL0     C  994   2.331  -0.372   3.912 -0.0955 -0.0917  0.2887
  749MOL0     C  995   2.276  -0.508   3.946  0.0609  0.1630  0.2345
  749MOL0     C  996   2.181  -0.562   3.830 -0.4713 -0.2144 -0.5759
  749MOL0     N  997   2.107  -0.684   3.863 -1.1032 -0.1708 -0.2870
  749MOL0     C  998   1.997  -0.677   3.950 -0.4338  0.5768  0.7679
  749MOL0     C  999   1.955  -0.803   3.953  0.0721 -0.0970  0.7936
  749MOL0     C 1000   1.839  -0.861   4.021 -0.6963 -0.0762  0.1213
  749MOL0     C 1001   1.707  -0.856   3.946  0.6625 -0.5058 -0.4743
  749MOL0     C 1002   1.602  -0.969   3.999 -0.6428  0.4089  0.6506
  749MOL0     C 1003   1.545  -1.049   3.880 -0.2303  0.3528 -0.4811
  749MOL0     O 1004   1.459  -1.160   3.915  0.9057  0.1166 -0.2348
  749MOL0     C 1005   1.384  -1.223   3.815  0.9016  1.2640 -0.9743
  749MOL0     C 1006   1.335  -1.344   3.860  0.3096  0.1257  0.0530
  749MOL0     C 1007   1.282  -1.454   3.773 -0.3582 -0.5488 -0.0951
  749MOL0     C 1008   1.251  -1.599   3.825  0.1963  0.4513 -0.1599
  749MOL0     C 1009   1.261  -1.414   3.634 -0.4940 -0.1382  0.2177
  749MOL0     C 1010   1.183  -1.501   3.533  0.8294 -0.1280 -0.6118
  749MOL0     O 1011   1.110  -1.434   3.431 -0.0421  0.0555  0.7892
  749MOL0     C 1012   1.045  -1.517   3.347 -0.8743  0.3676 -0.1523
  749MOL0     C 1013   1.116  -1.595   3.257  0.2137  0.0331 -0.6696
  749MOL0     C 1014   1.055  -1.692   3.183 -0.4541  0.2723  0.9772
  749MOL0     C 1015   0.915  -1.702   3.195  0.7657  0.2116  0.0879
  749MOL0     O 1016   0.852  -1.799   3.120 -0.2197 -0.4991 -0.3084
  749MOL0     C 1017   0.899  -1.798   2.984  0.3814 -0.2839 -0.7045
  749MOL0     C 1018   0.780  -1.857   2.898 -0.2503  0.2066 -0.8980
  749MOL0     C 1019   0.765  -1.999   2.936  0.4971  0.3592 -0.1958
  749MOL0     C 1020   0.681  -2.072   2.822  0.5151 -0.0905  0.1025
  749MOL0     C 1021   0.638  -2.213   2.860  0.1950  0.4355  0.2305
  749MOL0     C 1022   0.766  -2.308   2.868 -0.0284 -0.1313  0.1067
  749MOL0     C 1023   0.737  -2.461   2.881  0.0399  0.0058  0.0890
  749MOL0     C 1024   0.623  -2.492   2.984 -0.7007  0.5875 -0.6941
  749MOL0    Cl 1025   0.649  -2.668   3.029 -0.3681 -0.3846 -0.0534
  749MOL0     C 1026   0.841  -1.623   3.282  0.1413  0.3732 -0.2266
  749MOL0     C 1027   0.909  -1.527   3.349 -0.0167 -0.2985 -0.2016
  749MOL0     O 1028   1.185  -1.623   3.559  0.5370  0.2631  0.6730
  749MOL0     C 1029   1.292  -1.278   3.605 -0.2760  0.7283  1.0148
  749MOL0     C 1030   1.357  -1.187   3.690 -0.5003  0.3529 -0.9979
  749MOL0     N 1031   2.035  -0.886   3.875  0.0892  0.8609  0.1074
  749MOL0     N 1032   2.133  -0.813   3.830  0.2287  0.2561 -0.3542
  749MOL0     C 1033   2.547   0.441   4.179  0.4900 -0.2848  0.5034
  749MOL0     C 1034   2.480   0.537   4.256  0.4937  0.3129 -0.1075
  749MOL0     C 1035   2.164   0.727   4.521 -0.4782  0.3604  1.0204
  749MOL0     C 1036   2.125   0.714   4.655 -0.8045  0.4562 -0.0747
  749MOL0     C 1037   2.091   0.832   4.720 -0.2431  0.1994  0.0363
  749MOL0     C 1038   2.076   0.951   4.657 -0.5976 -0.2610 -0.2030
  749MOL0     O 1039   2.053   1.065   4.734  0.0921 -0.6823  0.3489
  749MOL0     C 1040   2.109   1.190   4.692  0.1360  0.5673  0.1738
  749MOL0     C 1041   2.093   1.293   4.810  0.7297  1.3334 -0.1691
  749MOL0     C 1042   2.184   1.269   4.931 -1.5672 -0.3983  0.3582
  749MOL0     C 1043   2.312   1.343   4.907 -0.7889  0.5170 -0.3952
  749MOL0     C 1044   2.314   1.489   4.925 -1.2687 -1.0678  0.1174
  749MOL0     C 1045   2.329   1.606   4.930 -0.5750 -0.4806 -0.7651
  749MOL0     C 1046   2.111   0.953   4.518  0.5952 -0.2903 -0.0611
  749MOL0     C 1047   2.147   0.839   4.445 -1.3463  0.6190 -1.4175
  749MOL0     H 1048   2.158   0.414   4.220 -0.2072  1.6880 -2.9473
  749MOL0     H 1049   2.276   0.245   4.106 -1.6969  2.8650 -3.2450
  749MOL0     H 1050   2.426   0.070   4.146  0.6331 -1.9331 -0.1551
  749MOL0     H 1051   2.406   0.103   3.975  0.0864 -0.6512 -1.6958
  749MOL0     H 1052   2.647   0.033   3.936  1.1113  0.3825  0.3980
  749MOL0     H 1053   2.659   0.016   4.111  0.0904 -0.6964 -0.0254
  749MOL0     H 1054   2.647  -0.192   4.084 -0.7472 -0.3496  1.5425
  749MOL0     H 1055   2.483  -0.170   4.124 -0.5376 -1.6776  0.2406
  749MOL0     H 1056   2.438  -0.161   3.871 -0.5873 -1.0173 -0.1749
  749MOL0     H 1057   2.605  -0.210   3.837 -4.0268 -3.5243 -3.5153
  749MOL0     H 1058   2.532  -0.424   3.850 -1.5886 -0.1226 -0.4355
  749MOL0     H 1059   2.494  -0.392   4.032 -2.9326 -2.6085  0.5093
  749MOL0     H 1060   2.285  -0.301   3.981  0.2080  0.7861 -0.4054
  749MOL0     H 1061   2.301  -0.345   3.811  2.3079 -0.1966 -0.5079
  749MOL0     H 1062   2.360  -0.577   3.934 -0.1424  0.1739 -1.6884
  749MOL0     H 1063   2.239  -0.521   4.048 -4.2537 -1.5973 -1.3193
  749MOL0     H 1064   2.240  -0.581   3.739  1.8032 -0.8937  0.9266
  749MOL0     H 1065   2.115  -0.478   3.810 -3.5220 -2.1979  0.4687
  749MOL0     H 1066   1.959  -0.596   4.011  0.6036  2.2425 -0.7059
  749MOL0     H 1067   1.853  -0.966   4.047 -1.9299  0.4692  3.5966
  749MOL0     H 1068   1.846  -0.812   4.119  0.0797 -4.3758  2.4407
  749MOL0     H 1069   1.719  -0.867   3.838 -0.5668  3.2799 -1.1444
  749MOL0     H 1070   1.670  -0.754   3.957  2.4141  0.1260 -0.0289
  749MOL0     H 1071   1.534  -0.917   4.067 -0.5594 -0.2468  1.2562
  749MOL0     H 1072   1.662  -1.037   4.062 -1.4835 -2.3388 -1.3221
  749MOL0     H 1073   1.630  -1.095   3.828 -1.3115 -4.6115  1.5175
  749MOL0     H 1074   1.501  -0.977   3.810  1.4555  0.6610 -1.2754
  749MOL0     H 1075   1.353  -1.380   3.961  1.8303 -2.5569 -1.0430
  749MOL0     H 1076   1.323  -1.667   3.780  0.7121  0.0820  1.1822
  749MOL0     H 1077   1.272  -1.601   3.933  1.2544  1.8606 -0.3105
  749MOL0     H 1078   1.150  -1.630   3.796  0.8491  0.1576 -2.2897
  749MOL0     H 1079   1.224  -1.590   3.245  0.0473  4.4789 -1.8389
  749MOL0     H 1080   1.106  -1.738   3.098 -1.1511  2.6248 -0.8162
  749MOL0     H 1081   0.917  -1.697   2.947 -0.1074 -0.9123 -2.8072
  749MOL0     H 1082   0.982  -1.869   2.972  0.1490 -1.4217  3.1478
  749MOL0     H 1083   0.688  -1.800   2.911 -0.1330 -0.1415  2.7309
  749MOL0     H 1084   0.811  -1.861   2.794 -3.1593 -0.8564 -1.8089
  749MOL0     H 1085   0.711  -2.017   3.029 -1.2886 -0.0965 -1.2491
  749MOL0     H 1086   0.864  -2.041   2.957 -0.1253 -1.1614 -0.1637
  749MOL0     H 1087   0.591  -2.019   2.787  0.5021 -0.2127 -0.0506
  749MOL0     H 1088   0.727  -2.074   2.722  0.7470  0.1602  0.2026
  749MOL0     H 1089   0.586  -2.254   2.773 -0.1497  0.4829  0.4117
  749MOL0     H 1090   0.581  -2.218   2.953 -1.7152 -2.8283 -0.9287
  749MOL0     H 1091   0.817  -2.302   2.772 -0.7490 -2.4263 -0.5011
  749MOL0     H 1092   0.832  -2.274   2.948 -0.6969  2.2007 -0.2712
  749MOL0     H 1093   0.831  -2.511   2.905  1.1581  2.0750  0.2292
  749MOL0     H 1094   0.704  -2.510   2.789  1.2045  0.2238 -0.4731
  749MOL0     H 1095   0.524  -2.475   2.941 -0.2106  2.1164 -1.2598
  749MOL0     H 1096   0.623  -2.445   3.083 -0.7257 -4.0147  1.8278
  749MOL0     H 1097   0.736  -1.644   3.297  1.1946 -5.4337  1.5751
  749MOL0     H 1098   0.841  -1.466   3.407 -1.0004 -1.6264  0.0963
  749MOL0     H 1099   1.265  -1.239   3.507  0.6099 -1.3871 -0.1284
  749MOL0     H 1100   1.373  -1.084   3.660  4.2817  0.5144  1.1341
  749MOL0     H 1101   2.654   0.447   4.164  0.9662 -2.0713  2.6677
  749MOL0     H 1102   2.535   0.623   4.290  0.7573  0.3201 -0.5393
  749MOL0     H 1103   2.129   0.626   4.718  1.4920  0.0934 -0.6239
  749MOL0     H 1104   2.093   0.835   4.828  1.5108  1.5340  0.0082
  749MOL0     H 1105   2.214   1.183   4.662  0.7598  2.4780  1.6614
  749MOL0     H 1106   2.051   1.231   4.609 -3.0507 -1.1876  1.3735
  749MOL0     H 1107   1.995   1.274   4.855  2.0325 -0.9879  1.9545
  749MOL0     H 1108   2.102   1.397   4.780  1.7855  1.2141 -0.2886
  749MOL0     H 1109   2.201   1.161   4.937  0.4827 -0.4050 -3.0718
  749MOL0     H 1110   2.147   1.312   5.025  2.4943  4.5647  0.1327
  749MOL0     H 1111   2.357   1.316   4.811  1.4060  1.1758  0.3997
  749MOL0     H 1112   2.379   1.296   4.980 -1.1067 -2.4129 -1.8351
  749MOL0     H 1113   2.350   1.710   4.945  3.2254 -0.4998 -4.1561
  749MOL0     H 1114   2.115   1.045   4.460  4.1793 -1.0138 -1.1967
  749MOL0     H 1115   2.160   0.844   4.337 -0.9789  0.7132 -1.3694
  750MOL0     O 1116   1.266   1.947   7.592 -0.8572  0.6885 -0.2211
  750MOL0     C 1117   1.308   1.921   7.704  0.0695  0.4514 -0.1432
  750MOL0     O 1118   1.233   1.859   7.807  0.0137 -0.9474 -0.5096
  750MOL0     C 1119   1.102   1.826   7.801  0.1996 -0.6802 -0.0102
  750MOL0     C 1120   1.057   1.731   7.898  0.5367 -0.9639  0.3937
  750MOL0     C 1121   0.912   1.701   7.910  0.5516 -0.4501  0.0965
  750MOL0     C 1122   0.818   1.756   7.813 -0.2303  0.3662 -0.5063
  750MOL0     O 1123   0.687   1.713   7.821  0.2168  0.5569  0.2895
  750MOL0     C 1124   0.622   1.707   7.950 -0.5410 -1.0382  0.0476
  750MOL0     C 1125   0.535   1.580   7.961  0.6721 -1.0245 -0.0237
  750MOL0     C 1126   0.617   1.456   7.976 -0.3700  0.3421 -0.2388
  750MOL0     C 1127   0.554   1.326   7.944 -0.0163 -0.1943  0.3990
  750MOL0     C 1128   0.469   1.288   8.059  0.4825 -0.1585 -0.8444
  750MOL0     C 1129   0.412   1.144   8.038  0.1190  0.4206 -0.5592
  750MOL0     C 1130   0.323   1.092   8.156 -0.1000  0.2817 -0.2553
  750MOL0     C 1131   0.200   1.182   8.153  0.0698 -0.0662 -1.2220
  750MOL0     N 1132   0.085   1.132   8.230 -0.0669 -0.5730 -0.2854
  750MOL0     C 1133   0.068   1.133   8.363  0.6690  0.5721  0.0627
  750MOL0     C 1134  -0.064   1.086   8.372  0.7216  1.0341  0.2748
  750MOL0     C 1135  -0.141   1.056   8.500 -1.0990  0.0301  0.8775
  750MOL0     C 1136  -0.195   1.184   8.551  0.1365  0.4790  0.9498
  750MOL0     C 1137  -0.290   1.153   8.667 -0.8250 -0.0285  0.2769
  750MOL0     C 1138  -0.411   1.066   8.639 -0.0264  0.0754  0.4831
  750MOL0     O 1139  -0.481   1.041   8.760 -0.1535  0.3511 -0.4084
  750MOL0     C 1140  -0.553   0.929   8.770 -0.1913  0.6886  0.1319
  750MOL0     C 1141  -0.604   0.851   8.668  0.0136 -0.9601  0.8338
  750MOL0     C 1142  -0.674   0.731   8.684 -0.2906  0.1796 -0.8119
  750MOL0     C 1143  -0.730   0.659   8.563  0.2688  0.3815  0.3757
  750MOL0     C 1144  -0.698   0.686   8.818  0.7681 -0.5198  0.1157
  750MOL0     C 1145  -0.779   0.560   8.850  0.0075 -0.7148  1.1337
  750MOL0     O 1146  -0.829   0.480   8.751  0.1650  0.6006  0.2924
  750MOL0     C 1147  -0.900   0.371   8.779  0.4154  0.1974  0.6589
  750MOL0     C 1148  -0.833   0.246   8.804  0.5024  0.5530 -0.2755
  750MOL0     C 1149  -0.912   0.131   8.837  0.2843 -0.0499  0.0262
  750MOL0     C 1150  -1.057   0.139   8.841  1.2971  0.4869  0.4637
  750MOL0     O 1151  -1.151   0.042   8.883 -0.0158 -0.9962 -0.0892
  750MOL0     C 1152  -1.123  -0.021   9.008 -0.2801  0.7154 -0.4496
  750MOL0     C 1153  -1.253  -0.000   9.079  0.0069 -0.7311  0.2839
  750MOL0     C 1154  -1.231  -0.071   9.221 -0.4121 -0.9106 -0.0733
  750MOL0     C 1155  -1.355  -0.056   9.316 -0.2287 -0.2338 -0.6967
  750MOL0     C 1156  -1.368  -0.170   9.424  0.2283  0.3490 -0.1207
  750MOL0     C 1157  -1.237  -0.195   9.508  0.3193  0.8145 -0.6528
  750MOL0     C 1158  -1.166  -0.074   9.574 -1.3642  0.7525  1.1495
  750MOL0     C 1159  -1.258   0.023   9.650  0.6740  0.1990 -0.4040
  750MOL0    Cl 1160  -1.157   0.162   9.699  0.0440 -0.1091 -0.0798
  750MOL0     C 1161  -1.110   0.263   8.810 -0.4314  0.8357  0.2634
  750MOL0     C 1162  -1.034   0.379   8.786 -0.3675 -0.2085 -0.1321
  750MOL0     O 1163  -0.783   0.535   8.972 -0.3092  0.7673  1.1683
  750MOL0     C 1164  -0.646   0.770   8.923  0.3249  0.3911  0.6788
  750MOL0     C 1165  -0.577   0.885   8.893 -0.2224  0.2520 -0.4640
  750MOL0     N 1166  -0.119   1.062   8.247  0.6713 -0.2123  0.1278
  750MOL0     N 1167  -0.024   1.091   8.169  0.8894  0.5717 -0.1469
  750MOL0     C 1168   0.857   1.851   7.723  0.0884  1.0430 -0.0899
  750MOL0     C 1169   0.994   1.885   7.718  0.0720 -0.5187 -0.5852
  750MOL0     C 1170   1.443   1.964   7.740  0.6340 -0.0081  0.2038
  750MOL0     C 1171   1.498   1.936   7.869 -0.3529  0.5671 -0.0841
  750MOL0     C 1172   1.623   1.995   7.911  1.1869 -0.5718 -0.5081
  750MOL0     C 1173   1.703   2.066   7.818 -0.5986  0.0880 -0.0463
  750MOL0     O 1174   1.816   2.118   7.862 -0.1324 -0.2108 -0.0496
  750MOL0     C 1175   1.885   2.210   7.780  0.1472  0.6956  0.3391
  750MOL0     C 1176   1.817   2.350   7.807  0.9151  0.9439 -1.2013
  750MOL0     C 1177   1.803   2.387   7.958 -0.1171 -0.8729 -0.0019
  750MOL0     C 1178   1.786   2.533   7.985 -0.5309 -1.4567  0.1957
  750MOL0     C 1179   1.777   2.555   8.132 -0.3434  0.1567  0.9761
  750MOL0     C 1180   1.734   2.578   8.243 -0.3346  0.2339  0.5029
  750MOL0     C 1181   1.652   2.088   7.683 -0.5311  0.1623 -0.8669
  750MOL0     C 1182   1.519   2.048   7.651  0.7883  0.1062 -0.6505
  750MOL0     H 1183   1.131   1.698   7.971 -0.2818 -1.1604  1.1510
  750MOL0     H 1184   0.876   1.624   7.978 -0.7844  0.4462  0.4436
  750MOL0     H 1185   0.700   1.710   8.027  0.8524  0.5009 -1.3496
  750MOL0     H 1186   0.556   1.791   7.973  0.5351 -1.1069  4.0478
  750MOL0     H 1187   0.455   1.591   8.034  1.6093  1.7424  0.6878
  750MOL0     H 1188   0.480   1.574   7.866 -2.3348  1.0272  1.4319
  750MOL0     H 1189   0.703   1.463   7.910  0.8418 -0.8012  1.1539
  750MOL0     H 1190   0.661   1.452   8.076 -2.6905  2.8536  1.0231
  750MOL0     H 1191   0.509   1.344   7.846  1.0868 -2.6633 -0.6436
  750MOL0     H 1192   0.633   1.255   7.919  0.2489  0.9263 -2.3486
  750MOL0     H 1193   0.530   1.299   8.149  1.6389  0.6261 -1.7083
  750MOL0     H 1194   0.377   1.344   8.079 -0.3466 -2.8228  4.8167
  750MOL0     H 1195   0.367   1.137   7.939  1.9639  2.0472 -1.6019
  750MOL0     H 1196   0.504   1.085   8.036  1.5739  2.5617 -0.1558
  750MOL0     H 1197   0.309   0.988   8.124  1.6894  0.1877 -0.8379
  750MOL0     H 1198   0.376   1.096   8.252 -3.7297 -0.2669  1.9634
  750MOL0     H 1199   0.169   1.178   8.049 -2.8030  0.7990 -0.4768
  750MOL0     H 1200   0.220   1.283   8.189  2.0400 -0.8201 -0.0148
  750MOL0     H 1201   0.133   1.170   8.441  2.6762  2.2710 -2.2578
  750MOL0     H 1202  -0.222   0.988   8.474 -0.7663  0.1753 -0.6290
  750MOL0     H 1203  -0.084   0.999   8.574 -0.6774 -1.1464 -0.3118
  750MOL0     H 1204  -0.258   1.225   8.471  0.2762 -1.0635  0.0147
  750MOL0     H 1205  -0.103   1.239   8.574  0.7121 -0.8540  1.9284
  750MOL0     H 1206  -0.318   1.251   8.707  1.1042  1.1108 -0.9587
  750MOL0     H 1207  -0.230   1.101   8.742 -0.0318 -1.0902 -1.0546
  750MOL0     H 1208  -0.369   0.968   8.615 -0.7916 -0.8365  2.6068
  750MOL0     H 1209  -0.478   1.102   8.561  0.0914  1.4021  0.9633
  750MOL0     H 1210  -0.597   0.892   8.568 -0.2409 -0.5543  0.9796
  750MOL0     H 1211  -0.683   0.714   8.481  2.4664  3.3246  3.3198
  750MOL0     H 1212  -0.688   0.558   8.565  2.2000  1.1397  3.1545
  750MOL0     H 1213  -0.840   0.659   8.563  0.2545 -0.7185  0.9308
  750MOL0     H 1214  -0.727   0.251   8.826 -0.5354  2.5012  6.4430
  750MOL0     H 1215  -0.871   0.033   8.860  2.6137  0.5364 -1.3867
  750MOL0     H 1216  -1.104  -0.127   8.988  1.7407  1.1684 -1.1136
  750MOL0     H 1217  -1.033   0.021   9.053 -0.0312 -2.2206  2.1386
  750MOL0     H 1218  -1.289   0.103   9.084  1.7875  0.0560 -1.6324
  750MOL0     H 1219  -1.333  -0.058   9.031  0.7223 -1.0941 -0.5064
  750MOL0     H 1220  -1.135  -0.043   9.265  0.1647  1.9468 -2.7831
  750MOL0     H 1221  -1.227  -0.177   9.192 -0.2777 -0.2651 -2.7277
  750MOL0     H 1222  -1.346   0.042   9.362  0.4981 -0.6341  0.0373
  750MOL0     H 1223  -1.450  -0.062   9.261 -0.7205 -2.6684  0.2984
  750MOL0     H 1224  -1.387  -0.259   9.363  3.3072 -0.0449 -0.6465
  750MOL0     H 1225  -1.458  -0.151   9.482  0.5256 -1.2182  0.9286
  750MOL0     H 1226  -1.254  -0.264   9.592  2.2665  3.6624  2.3528
  750MOL0     H 1227  -1.175  -0.252   9.438 -0.7778  0.7686 -1.6139
  750MOL0     H 1228  -1.112  -0.019   9.496 -1.4525 -0.9398 -0.1456
  750MOL0     H 1229  -1.090  -0.117   9.640 -1.6089  2.9323  2.9586
  750MOL0     H 1230  -1.316  -0.017   9.735  0.1598  1.0305 -0.3469
  750MOL0     H 1231  -1.336   0.057   9.581  0.5257  1.4857  0.3607
  750MOL0     H 1232  -1.218   0.274   8.814 -0.2750  2.2586  1.6623
  750MOL0     H 1233  -1.077   0.477   8.766  2.2756  0.5720 -2.8012
  750MOL0     H 1234  -0.646   0.732   9.025  0.5978 -1.9607 -0.1483
  750MOL0     H 1235  -0.543   0.941   8.980  0.5829  0.2786 -0.7848
  750MOL0     H 1236   0.785   1.904   7.660 -1.6996  0.3596  1.2893
  750MOL0     H 1237   1.021   1.962   7.646  1.4993  3.5751  3.8146
  750MOL0     H 1238   1.445   1.872   7.939 -2.3978  1.7014 -0.5075
  750MOL0     H 1239   1.651   1.994   8.016 -2.5483  1.4452  0.6931
  750MOL0     H 1240   1.990   2.204   7.808  0.7842  1.1350 -1.7660
  750MOL0     H 1241   1.891   2.193   7.672 -0.4197  2.0866  0.0662
  750MOL0     H 1242   1.711   2.360   7.781  0.7838  3.2897 -0.0395
  750MOL0     H 1243   1.871   2.428   7.752 -0.0787  1.9314 -0.8205
  750MOL0     H 1244   1.900   2.362   8.001  1.3554  1.2689 -1.8524
  750MOL0     H 1245   1.715   2.332   7.992 -1.9942  0.4475 -2.3680
  750MOL0     H 1246   1.703   2.581   7.933  0.2942 -2.2563 -1.9690
  750MOL0     H 1247   1.874   2.582   7.942 -2.7335  1.5431 -1.1975
  750MOL0     H 1248   1.694   2.593   8.341 -1.4455  0.9304 -0.0486
  750MOL0     H 1249   1.705   2.137   7.603  2.8842 -3.5955 -1.1829
  750MOL0     H 1250   1.468   2.087   7.564  2.3945 -0.3258 -1.8450
  751MOL0     O 1251   0.603   3.805   0.324  0.9050  0.3398 -0.1978
  751MOL0     C 1252   0.572   3.876   0.423  0.4745  0.2087 -0.3757
  751MOL0     O 1253   0.563   3.838   0.551 -0.1178 -0.0481  0.1088
  751MOL0     C 1254   0.618   3.717   0.578  0.0988 -0.4253 -0.1753
  751MOL0     C 1255   0.750   3.713   0.615  0.2131  0.9211  0.0213
  751MOL0     C 1256   0.806   3.588   0.633 -0.2721  0.8176 -0.0420
  751MOL0     C 1257   0.727   3.469   0.654  0.8056 -0.3026 -0.5871
  751MOL0     O 1258   0.782   3.350   0.687  0.4573 -0.2578  0.6788
  751MOL0     C 1259   0.714   3.264   0.783  0.0302 -0.0897 -0.6360
  751MOL0     C 1260   0.815   3.196   0.881 -0.2163 -0.9745  0.1452
  751MOL0     C 1261   0.888   3.085   0.813 -0.1805  0.4567 -0.4682
  751MOL0     C 1262   0.979   2.990   0.895 -0.2511  0.3546 -0.8984
  751MOL0     C 1263   1.036   2.877   0.805  0.2725  0.6328  0.0817
  751MOL0     C 1264   0.908   2.799   0.755 -0.3314 -0.0904  1.1225
  751MOL0     C 1265   0.957   2.663   0.699 -0.4416  0.5882  0.0809
  751MOL0     C 1266   0.839   2.565   0.661 -0.8176  0.3118  0.6109
  751MOL0     N 1267   0.729   2.603   0.570 -0.8024 -0.3753 -0.3086
  751MOL0     C 1268   0.603   2.549   0.568  0.6145  0.1009  0.6731
  751MOL0     C 1269   0.549   2.602   0.461  1.0900  1.1749  0.3153
  751MOL0     C 1270   0.401   2.594   0.415 -0.4978 -0.6168  0.5464
  751MOL0     C 1271   0.350   2.458   0.364  0.5821 -0.4391  0.2850
  751MOL0     C 1272   0.336   2.353   0.469 -0.3241  0.1785 -0.1061
  751MOL0     C 1273   0.252   2.239   0.425  0.6346 -1.1206  0.5774
  751MOL0     O 1274   0.116   2.271   0.408  0.1293  1.0266  0.1734
  751MOL0     C 1275   0.035   2.172   0.341 -0.2577  0.1071  0.0589
  751MOL0     C 1276  -0.034   2.190   0.222  0.1423  0.7088 -0.5312
  751MOL0     C 1277  -0.117   2.083   0.172  0.2291 -0.8475  0.5067
  751MOL0     C 1278  -0.183   2.096   0.043  0.8182 -0.6322  1.0085
  751MOL0     C 1279  -0.126   1.962   0.241 -0.1979  0.7531 -0.0680
  751MOL0     C 1280  -0.210   1.841   0.205  0.1418 -0.8287  0.5730
  751MOL0     O 1281  -0.337   1.856   0.148  1.4522 -0.2978  0.0945
  751MOL0     C 1282  -0.412   1.748   0.113  0.0098  0.7735 -0.1806
  751MOL0     C 1283  -0.532   1.725   0.180  0.5027  0.1388  0.3997
  751MOL0     C 1284  -0.618   1.611   0.140 -0.9678 -0.2238 -0.2557
  751MOL0     C 1285  -0.577   1.534   0.033  0.5292 -0.2032  0.0190
  751MOL0     O 1286  -0.661   1.431  -0.010 -0.5660 -0.1005 -0.0098
  751MOL0     C 1287  -0.679   1.407  -0.157  0.8525  0.3105  0.3244
  751MOL0     C 1288  -0.616   1.275  -0.192  0.0039  0.5508  1.2622
  751MOL0     C 1289  -0.594   1.271  -0.346  0.3068  0.7189 -0.4826
  751MOL0     C 1290  -0.671   1.155  -0.415  0.7642 -0.0023 -0.5642
  751MOL0     C 1291  -0.649   1.165  -0.572  0.0356 -1.1685 -0.4630
  751MOL0     C 1292  -0.652   1.029  -0.638 -1.3635 -0.3386 -0.2284
  751MOL0     C 1293  -0.794   0.986  -0.659 -0.8067 -1.0068 -0.1785
  751MOL0     C 1294  -0.804   0.842  -0.708  0.4434 -0.3798  0.6132
  751MOL0    Cl 1295  -0.773   0.846  -0.894  0.0478 -0.3068  0.0382
  751MOL0     C 1296  -0.451   1.551  -0.024  0.2454  0.3189 -0.3612
  751MOL0     C 1297  -0.373   1.661   0.014 -0.0166  0.7615  0.1265
  751MOL0     O 1298  -0.153   1.738   0.225 -0.0653 -0.6064  0.3415
  751MOL0     C 1299  -0.048   1.944   0.356  0.0079  0.3312 -0.2405
  751MOL0     C 1300   0.032   2.046   0.411  0.5899 -0.7235  0.0266
  751MOL0     N 1301   0.634   2.679   0.391 -0.4661 -0.0945 -0.3285
  751MOL0     N 1302   0.749   2.679   0.454 -0.0637  0.7743  0.3494
  751MOL0     C 1303   0.596   3.480   0.621  0.7411 -0.1252 -0.4958
  751MOL0     C 1304   0.540   3.599   0.584  1.0971  0.3666 -0.7252
  751MOL0     C 1305   0.556   4.021   0.390  0.1441 -0.7619 -0.0301
  751MOL0     C 1306   0.544   4.058   0.259  0.0260 -0.0592 -0.4084
  751MOL0     C 1307   0.533   4.202   0.230  0.7908 -0.0911  0.3123
  751MOL0     C 1308   0.508   4.303   0.326 -0.6909  0.7705  0.5155
  751MOL0     O 1309   0.497   4.440   0.288  0.5943 -0.0916 -0.7481
  751MOL0     C 1310   0.411   4.509   0.369  0.3603 -0.0449 -0.2131
  751MOL0     C 1311   0.482   4.609   0.456 -0.6496 -0.1078  0.3790
  751MOL0     C 1312   0.386   4.712   0.520  0.1188  0.4035  0.0844
  751MOL0     C 1313   0.294   4.658   0.622  0.3870 -0.0021 -0.0844
  751MOL0     C 1314   0.213   4.771   0.673 -1.1748  0.4106  0.5062
  751MOL0     C 1315   0.138   4.864   0.692  0.5591 -0.6306  0.0431
  751MOL0     C 1316   0.515   4.257   0.453  0.7787  0.2182 -0.5190
  751MOL0     C 1317   0.536   4.117   0.495 -0.4407  0.5176  1.1458
  751MOL0     H 1318   0.810   3.804   0.614  1.6788  0.1792  3.7398
  751MOL0     H 1319   0.913   3.596   0.648 -0.5585  3.5058  1.2906
  751MOL0     H 1320   0.660   3.324   0.856 -1.0666 -0.6540 -0.9656
  751MOL0     H 1321   0.637   3.199   0.740 -2.6257 -0.2544  3.8074
  751MOL0     H 1322   0.877   3.272   0.929 -2.5677  0.3466  1.3119
  751MOL0     H 1323   0.757   3.147   0.960 -2.7608  1.5743  0.0437
  751MOL0     H 1324   0.812   3.025   0.762 -1.2013  0.6152  0.8071
  751MOL0     H 1325   0.941   3.125   0.727 -1.7158  0.6650 -1.3527
  751MOL0     H 1326   1.060   3.044   0.945 -2.5986  0.7780  2.8025
  751MOL0     H 1327   0.913   2.942   0.968 -0.1747 -2.0052 -2.2710
  751MOL0     H 1328   1.093   2.907   0.717 -0.6635  0.5655 -0.5544
  751MOL0     H 1329   1.091   2.814   0.876 -1.3750  0.0812  0.9265
  751MOL0     H 1330   0.843   2.781   0.841 -0.1154  0.2012  1.3475
  751MOL0     H 1331   0.864   2.841   0.665  2.1509  1.3851  0.5069
  751MOL0     H 1332   1.024   2.673   0.613 -2.5712 -4.2576 -2.5874
  751MOL0     H 1333   1.016   2.617   0.778  1.1087  2.3687  0.0115
  751MOL0     H 1334   0.788   2.523   0.748 -0.7143 -1.3733 -0.1124
  751MOL0     H 1335   0.879   2.471   0.622 -1.1277  0.4208  0.0295
  751MOL0     H 1336   0.561   2.483   0.643  1.2282 -3.3126 -1.7892
  751MOL0     H 1337   0.335   2.625   0.497 -1.9475 -0.9893 -0.4489
  751MOL0     H 1338   0.392   2.658   0.327  0.3107 -3.7103 -1.9505
  751MOL0     H 1339   0.426   2.425   0.293  1.4859  0.8031  0.6285
  751MOL0     H 1340   0.258   2.473   0.307 -0.3605  0.2566  1.9110
  751MOL0     H 1341   0.290   2.395   0.559 -0.4051  1.9063 -0.9115
  751MOL0     H 1342   0.438   2.316   0.485 -0.4611 -0.3066 -0.3593
  751MOL0     H 1343   0.259   2.164   0.504  0.8050 -2.0388 -0.2947
  751MOL0     H 1344   0.287   2.197   0.331 -0.7036  0.0291 -0.4943
  751MOL0     H 1345  -0.027   2.279   0.161 -1.1698  1.3380  0.2023
  751MOL0     H 1346  -0.289   2.112   0.061  0.8581  0.1853  0.5647
  751MOL0     H 1347  -0.145   2.183  -0.011 -0.7835  0.7687  2.0384
  751MOL0     H 1348  -0.169   2.007  -0.020  0.9614 -1.0720  1.6462
  751MOL0     H 1349  -0.568   1.788   0.261  0.5041  2.2203 -1.1285
  751MOL0     H 1350  -0.720   1.599   0.174  0.5310 -1.5860  4.5452
  751MOL0     H 1351  -0.785   1.410  -0.182  1.0101  1.2832 -0.2782
  751MOL0     H 1352  -0.643   1.498  -0.204 -0.7327  0.8776  0.1545
  751MOL0     H 1353  -0.517   1.267  -0.146 -0.5394 -2.1637  2.1368
  751MOL0     H 1354  -0.683   1.199  -0.153 -3.1293  1.9707 -0.9545
  751MOL0     H 1355  -0.489   1.255  -0.374 -0.0474 -1.6100 -0.6463
  751MOL0     H 1356  -0.630   1.361  -0.398  1.7217  1.2248 -0.6354
  751MOL0     H 1357  -0.620   1.069  -0.372 -0.3675 -0.4030  0.0183
  751MOL0     H 1358  -0.776   1.149  -0.384  1.2709 -1.6654  0.9551
  751MOL0     H 1359  -0.555   1.218  -0.593  0.2002 -0.2766  2.1585
  751MOL0     H 1360  -0.721   1.226  -0.627  0.5818 -0.1623 -0.0917
  751MOL0     H 1361  -0.594   1.029  -0.731 -3.7847  0.1612 -1.8255
  751MOL0     H 1362  -0.600   0.951  -0.582  0.6410  1.2589  0.2936
  751MOL0     H 1363  -0.833   1.050  -0.738 -2.2068 -2.7054 -0.9567
  751MOL0     H 1364  -0.857   1.004  -0.571  0.8538  0.4062  0.7728
  751MOL0     H 1365  -0.907   0.816  -0.685  0.8456 -0.2875  2.7243
  751MOL0     H 1366  -0.736   0.780  -0.648  1.4491  2.4556  2.6128
  751MOL0     H 1367  -0.410   1.473  -0.087  0.8495 -1.1417  1.7188
  751MOL0     H 1368  -0.267   1.677   0.002  0.0211  3.4849  2.8919
  751MOL0     H 1369  -0.047   1.849   0.409  0.1304  0.2636 -0.3617
  751MOL0     H 1370   0.086   2.032   0.504  2.2674  1.7318 -0.4830
  751MOL0     H 1371   0.540   3.387   0.627  1.6114 -0.9244 -3.0967
  751MOL0     H 1372   0.433   3.601   0.569  0.6789 -1.0491  1.6486
  751MOL0     H 1373   0.532   3.974   0.192 -1.9010 -0.6507  0.6146
  751MOL0     H 1374   0.518   4.244   0.130  1.5665  2.5794  1.2312
  751MOL0     H 1375   0.347   4.568   0.302 -2.8040 -1.2072  1.5561
  751MOL0     H 1376   0.340   4.452   0.430 -0.1344  4.9197  4.6169
  751MOL0     H 1377   0.556   4.666   0.398 -0.6135 -1.0392 -0.5290
  751MOL0     H 1378   0.538   4.565   0.539  2.4766  0.3802 -1.3053
  751MOL0     H 1379   0.325   4.756   0.440  0.9714  1.9667  0.2458
  751MOL0     H 1380   0.452   4.783   0.571  3.3292  0.1634 -3.2922
  751MOL0     H 1381   0.338   4.612   0.711  1.1584  0.9858  0.0634
  751MOL0     H 1382   0.225   4.587   0.576 -0.3169 -1.0521  2.4075
  751MOL0     H 1383   0.076   4.950   0.711 -1.5560 -2.0016 -0.2459
  751MOL0     H 1384   0.513   4.332   0.532 -0.5450  0.4033 -0.7094
  751MOL0     H 1385   0.541   4.095   0.601  1.1674  0.8027  1.1608
  752MOL0     O 1386   4.118   6.831   8.012  0.0519  0.6152  0.0867
  752MOL0     C 1387   4.155   6.941   7.980 -0.4537 -0.3880  0.2823
  752MOL0     O 1388   4.156   7.046   8.059  0.4204 -1.1598 -0.6874
  752MOL0     C 1389   4.138   7.029   8.196  0.3654 -0.8578  0.0779
  752MOL0     C 1390   4.235   7.091   8.283  0.0287 -0.2218  0.1241
  752MOL0     C 1391   4.210   7.073   8.425 -0.6027  0.1590 -0.6010
  752MOL0     C 1392   4.104   7.001   8.478  0.7416  0.3037  0.5489
  752MOL0     O 1393   4.091   6.970   8.614 -0.0212  1.0887  0.1589
  752MOL0     C 1394   4.197   6.992   8.709 -0.7601 -0.1614  0.0902
  752MOL0     C 1395   4.174   6.935   8.844 -0.0356  0.3998 -0.9079
  752MOL0     C 1396   4.172   6.782   8.875 -0.4362  0.5582 -0.7035
  752MOL0     C 1397   4.295   6.709   8.810 -0.4200 -1.2630 -0.1269
  752MOL0     C 1398   4.282   6.563   8.828 -0.4238  0.1591 -0.5740
  752MOL0     C 1399   4.189   6.494   8.726 -0.6162  0.5531  0.2841
  752MOL0     C 1400   4.235   6.483   8.582 -0.1548 -0.7345  0.9266
  752MOL0     C 1401   4.164   6.568   8.484  0.2114 -0.2628 -0.9766
  752MOL0     N 1402   4.018   6.542   8.487 -0.2616  0.1660 -0.5642
  752MOL0     C 1403   3.918   6.616   8.550 -0.3614 -0.8601  0.2163
  752MOL0     C 1404   3.811   6.530   8.558 -0.0384 -0.0307  0.3192
  752MOL0     C 1405   3.681   6.570   8.623 -0.4931 -0.0019 -0.1857
  752MOL0     C 1406   3.636   6.483   8.735 -0.6325 -0.1330 -0.3230
  752MOL0     C 1407   3.743   6.445   8.845  1.2754  0.2618  0.0520
  752MOL0     C 1408   3.692   6.347   8.956 -0.8540  1.1435 -0.5514
  752MOL0     O 1409   3.629   6.227   8.907  0.3874 -0.0469  1.2655
  752MOL0     C 1410   3.623   6.124   8.989 -0.9350  0.1400 -0.2057
  752MOL0     C 1411   3.573   6.146   9.115 -0.6965  0.4374  0.3376
  752MOL0     C 1412   3.568   6.046   9.219 -0.8038  0.6504  0.3479
  752MOL0     C 1413   3.546   6.084   9.361  0.3855  0.5852 -0.3676
  752MOL0     C 1414   3.612   5.914   9.185  0.1331  0.1343  0.3871
  752MOL0     C 1415   3.607   5.799   9.276 -0.0750  0.2548 -0.2170
  752MOL0     O 1416   3.649   5.686   9.222  0.0207 -0.3547 -0.0270
  752MOL0     C 1417   3.675   5.571   9.294 -0.1521  0.6516  0.6240
  752MOL0     C 1418   3.765   5.562   9.399 -0.1493  0.2040  0.0400
  752MOL0     C 1419   3.811   5.441   9.445 -0.3145  1.1114 -1.0161
  752MOL0     C 1420   3.759   5.321   9.402 -0.0775 -0.2542 -0.2632
  752MOL0     O 1421   3.807   5.195   9.451  0.0238  0.1478 -0.1560
  752MOL0     C 1422   3.840   5.091   9.346 -0.6821 -1.3291  0.2109
  752MOL0     C 1423   3.878   4.964   9.402 -0.7428 -0.1055  0.2014
  752MOL0     C 1424   3.995   4.963   9.499  0.1377  0.1192 -0.8552
  752MOL0     C 1425   4.122   5.028   9.459  0.8453 -0.1337 -1.1588
  752MOL0     C 1426   4.206   4.994   9.333  0.5198  1.1274  0.6334
  752MOL0     C 1427   4.259   4.842   9.319 -0.4983 -0.1035 -0.5298
  752MOL0     C 1428   4.165   4.725   9.309 -0.6881 -0.6884  0.0451
  752MOL0     C 1429   4.228   4.617   9.223  0.0803  1.6610 -0.2142
  752MOL0    Cl 1430   4.133   4.465   9.273  0.2939  0.1109  0.3525
  752MOL0     C 1431   3.662   5.324   9.304  0.0121 -0.1809  0.6996
  752MOL0     C 1432   3.615   5.455   9.248  0.9092  0.3449  0.2749
  752MOL0     O 1433   3.559   5.807   9.394 -0.1059  0.1414 -0.6592
  752MOL0     C 1434   3.658   5.897   9.050 -0.1214 -0.1166 -0.9686
  752MOL0     C 1435   3.667   5.997   8.956 -0.0104  0.8345  0.2720
  752MOL0     N 1436   3.847   6.405   8.502 -0.0198 -0.2623  0.5486
  752MOL0     N 1437   3.964   6.420   8.452 -0.1234  0.9322 -1.0371
  752MOL0     C 1438   4.009   6.951   8.380 -0.4258  1.0554 -0.3510
  752MOL0     C 1439   4.020   6.961   8.242 -0.0344 -0.2607  0.2161
  752MOL0     C 1440   4.201   6.966   7.840  0.7925  0.1087 -0.2652
  752MOL0     C 1441   4.205   6.870   7.737  0.8327  0.5740  0.3082
  752MOL0     C 1442   4.242   6.894   7.605 -0.3441  0.5369  0.3532
  752MOL0     C 1443   4.281   7.025   7.576  0.3607 -0.2135 -0.3732
  752MOL0     O 1444   4.332   7.046   7.454 -0.6316  0.2936  0.9192
  752MOL0     C 1445   4.461   7.107   7.435  0.3403  1.1308  0.0043
  752MOL0     C 1446   4.536   7.024   7.323  0.1349 -0.2702  0.6309
  752MOL0     C 1447   4.481   7.038   7.181  0.0180  0.3408  0.0334
  752MOL0     C 1448   4.570   6.948   7.088  1.0604 -0.3024 -0.7567
  752MOL0     C 1449   4.537   6.961   6.948 -0.2885 -0.9234 -0.9691
  752MOL0     C 1450   4.518   6.963   6.827  0.0011  1.4067 -0.2178
  752MOL0     C 1451   4.307   7.114   7.684  0.6942 -0.2591 -0.4503
  752MOL0     C 1452   4.252   7.090   7.813  1.3713 -0.7172  0.1184
  752MOL0     H 1453   4.320   7.128   8.228  0.5660 -0.9444  0.4573
  752MOL0     H 1454   4.284   7.109   8.496 -2.8421 -2.3292  3.3257
  752MOL0     H 1455   4.293   6.950   8.675 -1.3888 -1.0482 -0.6387
  752MOL0     H 1456   4.208   7.101   8.712 -4.3929  0.3196  0.1581
  752MOL0     H 1457   4.256   6.969   8.908  1.4972 -2.1140 -1.4085
  752MOL0     H 1458   4.080   6.974   8.887 -0.5567 -2.3930  0.7512
  752MOL0     H 1459   4.178   6.761   8.982  1.1416 -1.8743 -1.2028
  752MOL0     H 1460   4.080   6.742   8.833 -0.5404  0.9773 -0.8768
  752MOL0     H 1461   4.301   6.738   8.704  2.0177 -2.4882 -0.3720
  752MOL0     H 1462   4.387   6.741   8.858  0.2475 -0.1212 -2.0229
  752MOL0     H 1463   4.382   6.524   8.810  0.1410 -1.4701  4.4499
  752MOL0     H 1464   4.238   6.543   8.927  0.9902  1.2891  0.3177
  752MOL0     H 1465   4.190   6.389   8.756  1.5240  0.0256 -1.3823
  752MOL0     H 1466   4.084   6.521   8.740 -0.7782  0.7054 -1.0837
  752MOL0     H 1467   4.343   6.499   8.577 -0.5037  2.3784  1.4412
  752MOL0     H 1468   4.224   6.377   8.557 -0.8354 -1.0140  2.3054
  752MOL0     H 1469   4.209   6.538   8.390  1.8070  0.0739 -0.3501
  752MOL0     H 1470   4.174   6.675   8.507  0.5426  0.4311 -4.0108
  752MOL0     H 1471   3.922   6.712   8.599 -1.3531 -1.3136  1.2371
  752MOL0     H 1472   3.686   6.676   8.649  1.0373 -0.4582  1.4777
  752MOL0     H 1473   3.601   6.568   8.548 -0.9677  0.1685  0.3082
  752MOL0     H 1474   3.598   6.390   8.692  0.1627 -1.1629  1.1142
  752MOL0     H 1475   3.556   6.537   8.787 -0.2233  1.5945 -1.3798
  752MOL0     H 1476   3.763   6.543   8.889  0.5514  0.7175 -0.6155
  752MOL0     H 1477   3.828   6.395   8.797 -0.8789 -1.9846 -1.7191
  752MOL0     H 1478   3.618   6.398   9.018 -1.7298 -3.1574  2.4368
  752MOL0     H 1479   3.775   6.311   9.018 -2.8291 -1.4840  0.8019
  752MOL0     H 1480   3.541   6.247   9.137  1.1888  0.9758  0.7279
  752MOL0     H 1481   3.638   6.053   9.412  0.9023  0.7230 -1.2081
  752MOL0     H 1482   3.542   6.191   9.382 -3.5321  0.1006  2.5009
  752MOL0     H 1483   3.452   6.046   9.403 -1.6862  2.3290 -3.0886
  752MOL0     H 1484   3.807   5.647   9.451 -1.9204  2.2429 -1.6879
  752MOL0     H 1485   3.885   5.440   9.524 -0.3001 -1.5893 -0.9887
  752MOL0     H 1486   3.748   5.078   9.289 -1.0973 -2.0813  1.0348
  752MOL0     H 1487   3.927   5.118   9.285  0.6666 -2.5367  1.5350
  752MOL0     H 1488   3.790   4.926   9.454 -1.3509  1.7363  0.5904
  752MOL0     H 1489   3.897   4.896   9.319 -1.0573 -0.5292  0.4722
  752MOL0     H 1490   4.000   4.858   9.529 -2.3568  0.4245  0.9620
  752MOL0     H 1491   3.956   5.018   9.585 -0.0455  1.5125 -1.8046
  752MOL0     H 1492   4.095   5.133   9.468 -1.1264 -0.7712  1.7931
  752MOL0     H 1493   4.190   4.998   9.539  0.2011  1.7714  0.1741
  752MOL0     H 1494   4.294   5.059   9.337  1.0287  0.6988 -1.6581
  752MOL0     H 1495   4.148   5.018   9.243 -2.3080  1.0274  2.3085
  752MOL0     H 1496   4.295   4.860   9.217 -3.7914  1.6295 -1.5441
  752MOL0     H 1497   4.339   4.816   9.389 -1.5771  1.7487  1.5106
  752MOL0     H 1498   4.068   4.763   9.276  0.4110  1.1308 -1.2592
  752MOL0     H 1499   4.150   4.683   9.409 -0.0882 -0.7673  0.1015
  752MOL0     H 1500   4.333   4.597   9.248 -0.0798  0.2302 -0.6161
  752MOL0     H 1501   4.215   4.635   9.116  2.0979 -2.0267 -1.2460
  752MOL0     H 1502   3.628   5.239   9.245  0.5828  0.5619 -0.7595
  752MOL0     H 1503   3.545   5.464   9.166  1.7963  0.5481 -0.4777
  752MOL0     H 1504   3.677   5.797   9.014 -2.2108 -1.3319  1.0205
  752MOL0     H 1505   3.693   5.962   8.856  0.0134 -1.4605  1.0446
  752MOL0     H 1506   3.921   6.895   8.408  0.8207 -1.8050 -1.7691
  752MOL0     H 1507   3.936   6.931   8.181  0.9781  0.6965 -1.7416
  752MOL0     H 1508   4.173   6.770   7.762 -0.3515  0.7158 -0.5783
  752MOL0     H 1509   4.241   6.809   7.538  2.4792 -2.0298  3.1960
  752MOL0     H 1510   4.442   7.210   7.402 -1.3987  1.0728  0.6809
  752MOL0     H 1511   4.516   7.098   7.529 -0.5254 -3.9659  0.2829
  752MOL0     H 1512   4.552   6.921   7.357 -2.5076 -0.6639  0.8841
  752MOL0     H 1513   4.634   7.071   7.311  0.0026 -0.0518  0.3850
  752MOL0     H 1514   4.471   7.142   7.149 -1.5025 -0.1509 -1.2123
  752MOL0     H 1515   4.379   7.001   7.170  0.6418 -1.1944 -0.8075
  752MOL0     H 1516   4.537   6.847   7.115  0.8021  0.2160  0.9196
  752MOL0     H 1517   4.677   6.960   7.107  0.8958 -2.2121  1.8385
  752MOL0     H 1518   4.515   6.961   6.720 -1.9685  3.1891 -0.2533
  752MOL0     H 1519   4.351   7.210   7.658  1.0328 -0.0944  0.6689
  752MOL0     H 1520   4.248   7.180   7.873  3.6156  0.2113 -1.0142
  753MOL0     O 1521   4.284   6.134   4.470 -0.2489 -0.2133  0.4125
  753MOL0     C 1522   4.272   6.023   4.521 -0.2706 -1.7434 -0.2602
  753MOL0     O 1523   4.366   5.959   4.579  0.4919 -0.0442 -0.1334
  753MOL0     C 1524   4.469   6.023   4.636  0.1675 -1.3811 -1.0340
  753MOL0     C 1525   4.601   5.987   4.596  0.5099 -0.8401  0.4059
  753MOL0     C 1526   4.717   6.048   4.648  0.0313 -1.2623 -1.1828
  753MOL0     C 1527   4.705   6.164   4.731  0.8954 -0.0990 -0.1826
  753MOL0     O 1528   4.822   6.211   4.787 -0.2148  0.1029  0.1797
  753MOL0     C 1529   4.815   6.347   4.838 -0.2372  0.1124  1.2257
  753MOL0     C 1530   4.941   6.376   4.919 -0.3845 -0.8642  0.6578
  753MOL0     C 1531   5.075   6.336   4.851  0.2019 -0.2588  0.7318
  753MOL0     C 1532   5.182   6.391   4.944 -0.7072 -0.3306  1.0417
  753MOL0     C 1533   5.312   6.323   4.919  0.8691  1.4655  0.4619
  753MOL0     C 1534   5.417   6.346   5.028 -0.3344 -0.0412 -0.2885
  753MOL0     C 1535   5.451   6.498   5.050  0.0651  0.6320 -0.6500
  753MOL0     C 1536   5.608   6.515   5.061 -0.7642  0.1511 -0.8313
  753MOL0     N 1537   5.658   6.638   5.128 -0.8021  0.5703  0.2007
  753MOL0     C 1538   5.676   6.649   5.268  0.9172  0.8154  0.1716
  753MOL0     C 1539   5.701   6.779   5.288  0.2052 -0.0381  0.0021
  753MOL0     C 1540   5.711   6.827   5.432 -0.1441 -0.1176  0.7469
  753MOL0     C 1541   5.580   6.828   5.501 -0.6295  0.3731  1.1362
  753MOL0     C 1542   5.477   6.913   5.435 -0.1534 -0.9643 -0.5079
  753MOL0     C 1543   5.452   7.054   5.502 -0.4237 -0.2358 -0.4636
  753MOL0     O 1544   5.558   7.160   5.485  0.4515  0.1558  0.8551
  753MOL0     C 1545   5.542   7.243   5.375 -0.8536 -0.2970  0.0164
  753MOL0     C 1546   5.550   7.380   5.393 -0.2235 -0.2730 -0.0855
  753MOL0     C 1547   5.551   7.477   5.290 -0.8142  0.7572 -1.3732
  753MOL0     C 1548   5.543   7.622   5.325  0.5154  0.2983 -0.9009
  753MOL0     C 1549   5.564   7.432   5.156  0.5084 -0.4584 -0.3428
  753MOL0     C 1550   5.627   7.511   5.045  0.5042 -0.5034  0.5135
  753MOL0     O 1551   5.608   7.476   4.915  0.3153 -0.2669 -0.5488
  753MOL0     C 1552   5.669   7.568   4.828 -0.1254  0.1058  0.0773
  753MOL0     C 1553   5.604   7.680   4.772  0.1755 -0.0268 -0.0998
  753MOL0     C 1554   5.666   7.771   4.693 -0.7141 -0.7812 -0.1728
  753MOL0     C 1555   5.802   7.747   4.652  0.2106  0.3897 -0.4361
  753MOL0     O 1556   5.865   7.837   4.572 -0.2081 -0.9481 -0.0733
  753MOL0     C 1557   5.909   7.770   4.456 -0.0602  0.4535  1.8235
  753MOL0     C 1558   5.888   7.864   4.340  0.4746  0.6619  0.4930
  753MOL0     C 1559   5.768   7.811   4.245  0.5288 -0.3705 -0.3267
  753MOL0     C 1560   5.624   7.833   4.309  0.7256 -0.3652  0.9024
  753MOL0     C 1561   5.565   7.962   4.254 -0.2624 -0.0453 -0.0491
  753MOL0     C 1562   5.413   7.966   4.286 -0.4072 -0.8049 -0.6298
  753MOL0     C 1563   5.345   8.096   4.241 -0.2596 -0.5641  0.0356
  753MOL0     C 1564   5.203   8.101   4.303 -0.6270 -0.7203 -0.2886
  753MOL0    Cl 1565   5.122   8.258   4.249  0.4817 -0.1315 -0.1997
  753MOL0     C 1566   5.867   7.628   4.706 -0.2533  0.1155  0.7243
  753MOL0     C 1567   5.798   7.543   4.794 -0.2186  0.9524 -0.4132
  753MOL0     O 1568   5.678   7.614   5.079 -0.5758 -0.2401 -1.0028
  753MOL0     C 1569   5.555   7.288   5.129 -0.4998 -0.6259  0.7537
  753MOL0     C 1570   5.536   7.198   5.241  1.1052  0.3569 -0.5704
  753MOL0     N 1571   5.688   6.845   5.170 -0.1247  0.9048  0.1659
  753MOL0     N 1572   5.661   6.765   5.078 -0.0188 -0.7544 -0.1556
  753MOL0     C 1573   4.571   6.199   4.772 -0.5188 -0.5980 -0.0340
  753MOL0     C 1574   4.460   6.132   4.727  0.5647  0.3868 -0.0767
  753MOL0     C 1575   4.139   5.965   4.531 -0.3124  0.1601 -0.5496
  753MOL0     C 1576   4.022   6.043   4.529 -0.2372  1.0178  0.4739
  753MOL0     C 1577   3.898   5.977   4.522  0.7783 -0.4083  0.1823
  753MOL0     C 1578   3.894   5.833   4.537 -0.6099 -0.3808 -0.0345
  753MOL0     O 1579   3.761   5.784   4.532 -0.5753  0.2818 -0.1276
  753MOL0     C 1580   3.740   5.643   4.532  0.2934  0.1512  1.0664
  753MOL0     C 1581   3.613   5.629   4.451 -0.0319 -0.1763  0.1318
  753MOL0     C 1582   3.570   5.487   4.423  0.4373 -0.5408 -0.3223
  753MOL0     C 1583   3.467   5.453   4.314 -0.6848 -0.0253  0.0441
  753MOL0     C 1584   3.348   5.547   4.300 -0.6859 -0.1940  0.4812
  753MOL0     C 1585   3.248   5.607   4.276 -0.1099  0.7230 -0.3878
  753MOL0     C 1586   4.007   5.761   4.568 -0.0325  1.0587 -0.5295
  753MOL0     C 1587   4.133   5.826   4.566  0.2071  0.3732  0.5211
  753MOL0     H 1588   4.615   5.916   4.516 -2.5952 -1.5912  0.3824
  753MOL0     H 1589   4.819   6.023   4.620  0.5452  0.5712 -1.0638
  753MOL0     H 1590   4.795   6.408   4.750 -0.4090 -0.1580  1.0747
  753MOL0     H 1591   4.731   6.361   4.907 -1.6769 -4.7003  0.8296
  753MOL0     H 1592   4.953   6.485   4.919 -4.4457 -0.2278 -0.2263
  753MOL0     H 1593   4.946   6.344   5.023  1.3921  0.6875  1.1100
  753MOL0     H 1594   5.086   6.228   4.856  3.0418 -0.0778 -0.0512
  753MOL0     H 1595   5.067   6.364   4.746  0.3933  1.3412  1.1152
  753MOL0     H 1596   5.199   6.499   4.939 -1.1333 -0.1837  2.4620
  753MOL0     H 1597   5.159   6.367   5.048 -1.3407 -3.5003  0.2743
  753MOL0     H 1598   5.293   6.216   4.924  0.7909  1.3021 -2.0069
  753MOL0     H 1599   5.370   6.351   4.831  0.0768 -0.0014 -0.5753
  753MOL0     H 1600   5.378   6.294   5.116 -0.6119 -1.9209 -1.4475
  753MOL0     H 1601   5.507   6.296   4.989  1.2002  2.9910 -0.9272
  753MOL0     H 1602   5.420   6.565   4.969  4.8186  1.8343 -1.7727
  753MOL0     H 1603   5.397   6.527   5.140  2.3815 -0.1728  1.0878
  753MOL0     H 1604   5.645   6.515   4.958  1.6516 -0.9466 -0.0536
  753MOL0     H 1605   5.647   6.429   5.116 -2.4046  1.3694  2.4922
  753MOL0     H 1606   5.679   6.579   5.351  0.3822 -1.6162 -1.7404
  753MOL0     H 1607   5.783   6.765   5.485  1.8927 -1.1327 -2.8281
  753MOL0     H 1608   5.750   6.929   5.432  1.3645 -0.5814 -2.0011
  753MOL0     H 1609   5.598   6.875   5.598 -2.7212  0.0166  1.7461
  753MOL0     H 1610   5.541   6.727   5.514 -0.2766  0.0169 -0.4307
  753MOL0     H 1611   5.377   6.871   5.444 -0.3900 -0.5774 -1.2252
  753MOL0     H 1612   5.496   6.921   5.327  1.3245  1.2797 -0.1713
  753MOL0     H 1613   5.440   7.040   5.610 -2.3509  0.6898 -0.5177
  753MOL0     H 1614   5.367   7.107   5.459 -2.3892 -2.8644 -0.0641
  753MOL0     H 1615   5.531   7.418   5.493 -2.8208  1.0395 -0.9953
  753MOL0     H 1616   5.485   7.633   5.417  1.6633  0.5075 -0.1748
  753MOL0     H 1617   5.643   7.652   5.358  1.0009 -0.5231 -1.5845
  753MOL0     H 1618   5.504   7.691   5.250 -0.7884  1.2734  0.6070
  753MOL0     H 1619   5.498   7.692   4.795  0.4445  0.9547  0.7162
  753MOL0     H 1620   5.615   7.864   4.667 -1.3176  0.3000  4.1175
  753MOL0     H 1621   6.016   7.757   4.472 -0.4301 -0.5288  3.9635
  753MOL0     H 1622   5.858   7.677   4.431 -0.4947  1.6047 -2.3639
  753MOL0     H 1623   5.871   7.969   4.367  0.2574  0.0969  2.7482
  753MOL0     H 1624   5.972   7.854   4.270  0.8245  0.1464  0.9847
  753MOL0     H 1625   5.785   7.706   4.217  3.9503 -0.2567  0.8340
  753MOL0     H 1626   5.770   7.869   4.153  0.2163  1.3988  0.7438
  753MOL0     H 1627   5.560   7.747   4.289  1.5752 -0.5788 -1.1905
  753MOL0     H 1628   5.631   7.843   4.418 -5.2330 -1.9120  1.7986
  753MOL0     H 1629   5.567   7.981   4.146  0.5460  0.5445  0.0636
  753MOL0     H 1630   5.613   8.043   4.310 -0.6825 -2.3080  3.9787
  753MOL0     H 1631   5.361   7.875   4.253 -0.3937 -0.8900 -0.4215
  753MOL0     H 1632   5.398   7.953   4.393 -1.0495  0.6006 -0.5288
  753MOL0     H 1633   5.345   8.119   4.134  2.0317  3.6314  0.7019
  753MOL0     H 1634   5.392   8.186   4.281 -4.2724  0.7131  2.4583
  753MOL0     H 1635   5.213   8.107   4.412  2.2609  0.5069 -0.5403
  753MOL0     H 1636   5.143   8.011   4.284  1.5326 -2.3722  0.2040
  753MOL0     H 1637   5.972   7.607   4.688  0.1567  0.5842  2.3816
  753MOL0     H 1638   5.846   7.455   4.833  0.6634  0.8566 -1.6606
  753MOL0     H 1639   5.571   7.253   5.027  0.7362  3.8947 -0.8430
  753MOL0     H 1640   5.525   7.091   5.224 -2.6694  0.1050  2.2784
  753MOL0     H 1641   4.555   6.276   4.847  2.7029  0.4951 -0.3030
  753MOL0     H 1642   4.363   6.165   4.762  0.0549  1.7936 -2.5767
  753MOL0     H 1643   4.023   6.149   4.504 -0.0812  0.8199 -0.3957
  753MOL0     H 1644   3.804   6.032   4.527 -0.4098 -2.4092  1.2771
  753MOL0     H 1645   3.821   5.581   4.493 -1.2238  0.2592 -2.6355
  753MOL0     H 1646   3.730   5.610   4.636 -1.2276  0.6924  1.1098
  753MOL0     H 1647   3.607   5.688   4.360 -1.7854  0.9162  0.9135
  753MOL0     H 1648   3.532   5.671   4.512  1.8379  0.9156  2.0322
  753MOL0     H 1649   3.538   5.445   4.519 -0.1177  0.5762  0.0009
  753MOL0     H 1650   3.662   5.435   4.397  0.1983 -0.0812 -2.2468
  753MOL0     H 1651   3.438   5.348   4.322  3.4975 -1.6600 -2.9187
  753MOL0     H 1652   3.528   5.458   4.223 -0.7059 -0.6262 -0.0069
  753MOL0     H 1653   3.149   5.645   4.264 -0.2614  1.9083  3.2935
  753MOL0     H 1654   4.000   5.655   4.592 -0.4128  1.7351  2.7648
  753MOL0     H 1655   4.225   5.769   4.577 -0.4411 -1.1557 -1.3280
  754MOL0     O 1656   5.832   3.367  11.438 -0.1029 -0.8976 -0.5079
  754MOL0     C 1657   5.803   3.284  11.521 -0.0367 -1.0075 -0.5583
  754MOL0     O 1658   5.689   3.208  11.526 -0.3634  0.4543  1.0677
  754MOL0     C 1659   5.598   3.216  11.425 -0.4525 -0.8614  0.6157
  754MOL0     C 1660   5.527   3.331  11.405 -0.5398 -0.1382  0.8016
  754MOL0     C 1661   5.436   3.337  11.298 -0.2131 -0.3657 -0.2038
  754MOL0     C 1662   5.413   3.226  11.216 -1.1439  0.1675 -1.3929
  754MOL0     O 1663   5.325   3.222  11.111  0.2684  0.0847  0.6239
  754MOL0     C 1664   5.260   3.102  11.062 -0.2272 -0.7139  0.9939
  754MOL0     C 1665   5.126   3.139  10.993 -0.7073  0.8852  0.5439
  754MOL0     C 1666   5.030   3.207  11.085 -0.0071 -0.7808 -0.8909
  754MOL0     C 1667   4.941   3.310  11.011 -0.0362 -1.0123 -0.4446
  754MOL0     C 1668   4.815   3.346  11.090  0.1906  0.3300  0.2448
  754MOL0     C 1669   4.719   3.442  11.024 -0.0374 -0.4415  0.0485
  754MOL0     C 1670   4.593   3.468  11.108 -0.5639  0.9376  0.2380
  754MOL0     C 1671   4.622   3.587  11.195  0.0492  0.4729 -0.3693
  754MOL0     N 1672   4.540   3.577  11.324 -0.3718  0.0044  0.0128
  754MOL0     C 1673   4.423   3.629  11.343 -0.2543  0.3573 -0.1319
  754MOL0     C 1674   4.371   3.562  11.455  0.0523  0.3876  0.0104
  754MOL0     C 1675   4.227   3.583  11.499  0.8099  1.0859 -0.0357
  754MOL0     C 1676   4.196   3.527  11.633  0.1045 -0.0261  0.0728
  754MOL0     C 1677   4.044   3.539  11.662 -0.3006 -0.9346 -0.2725
  754MOL0     C 1678   4.021   3.519  11.813  0.0692  0.1817  0.0709
  754MOL0     O 1679   4.094   3.391  11.850 -0.5810  0.9953  0.3584
  754MOL0     C 1680   4.125   3.354  11.978  0.2895 -0.8491 -0.2805
  754MOL0     C 1681   4.166   3.220  11.995  0.4552  0.0855 -0.3111
  754MOL0     C 1682   4.185   3.176  12.127  0.5034 -0.3795 -0.4979
  754MOL0     C 1683   4.234   3.028  12.138 -0.3104 -0.8012  0.0147
  754MOL0     C 1684   4.171   3.266  12.240 -0.4546 -0.7359  0.3921
  754MOL0     C 1685   4.224   3.224  12.366 -0.2393  1.0576 -0.7156
  754MOL0     O 1686   4.165   3.120  12.425 -1.2294 -0.1403 -0.7868
  754MOL0     C 1687   4.234   3.069  12.535 -0.8753 -0.0601 -0.2431
  754MOL0     C 1688   4.360   3.002  12.530 -0.0682 -0.2224  0.4612
  754MOL0     C 1689   4.421   2.949  12.646  0.3351  0.6710  0.5893
  754MOL0     C 1690   4.355   2.968  12.773 -0.1937 -0.2411 -0.4917
  754MOL0     O 1691   4.424   2.902  12.875  0.7683 -0.7428 -0.0310
  754MOL0     C 1692   4.401   2.951  13.013 -0.4624 -0.5688 -0.1706
  754MOL0     C 1693   4.490   2.867  13.107  1.2528  0.8100  0.9735
  754MOL0     C 1694   4.437   2.873  13.255  0.3765 -1.0907  0.1529
  754MOL0     C 1695   4.520   2.792  13.351  0.3605  0.7876 -0.3542
  754MOL0     C 1696   4.501   2.833  13.500 -0.3515 -0.4516 -0.4371
  754MOL0     C 1697   4.622   2.772  13.565  0.3942 -0.4773 -0.6768
  754MOL0     C 1698   4.617   2.802  13.717  0.5079  1.2592 -0.4006
  754MOL0     C 1699   4.491   2.743  13.789 -0.2779 -0.1425 -0.3840
  754MOL0    Cl 1700   4.517   2.752  13.967 -0.3560 -0.0380  0.0615
  754MOL0     C 1701   4.250   3.060  12.782 -1.0602 -0.9860  0.2694
  754MOL0     C 1702   4.187   3.107  12.665 -0.1664  0.5165 -0.4309
  754MOL0     O 1703   4.338   3.269  12.404  0.2961 -0.2097  0.6901
  754MOL0     C 1704   4.143   3.401  12.217 -0.4978  0.4049  0.2723
  754MOL0     C 1705   4.123   3.445  12.087  0.0072  0.2625 -0.3945
  754MOL0     N 1706   4.456   3.461  11.486 -0.6945 -0.5759  0.4464
  754MOL0     N 1707   4.556   3.478  11.410  0.3313  0.9674  0.0505
  754MOL0     C 1708   5.492   3.115  11.238 -0.8177 -0.6819  0.0239
  754MOL0     C 1709   5.587   3.106  11.339  1.3342  0.6814 -0.4115
  754MOL0     C 1710   5.913   3.236  11.604 -0.0417 -0.3065  0.1928
  754MOL0     C 1711   5.923   3.097  11.625  0.2938 -0.7231  0.1421
  754MOL0     C 1712   6.020   3.056  11.711 -0.2828 -0.8127  0.4196
  754MOL0     C 1713   6.121   3.140  11.752 -1.0879 -0.7143  0.2896
  754MOL0     O 1714   6.225   3.078  11.824  0.3266  0.2320 -0.0710
  754MOL0     C 1715   6.306   3.164  11.905 -0.7364  0.3178  1.6990
  754MOL0     C 1716   6.377   3.090  12.009  1.1551  0.0578  0.3088
  754MOL0     C 1717   6.280   3.036  12.123 -0.1238 -0.0824 -0.6270
  754MOL0     C 1718   6.370   2.995  12.242  0.3559  0.0542 -0.0638
  754MOL0     C 1719   6.287   2.904  12.333 -0.0460  0.6082  0.3755
  754MOL0     C 1720   6.209   2.836  12.392 -0.0828  0.2317  0.3407
  754MOL0     C 1721   6.119   3.278  11.719 -0.2313  0.9314  0.0287
  754MOL0     C 1722   6.008   3.322  11.650 -0.4541  0.0138 -0.3424
  754MOL0     H 1723   5.532   3.417  11.471 -3.1865 -0.4499  1.5174
  754MOL0     H 1724   5.391   3.434  11.282 -1.1027 -0.7654 -0.1760
  754MOL0     H 1725   5.321   3.053  10.986  1.5477  3.7008 -0.7664
  754MOL0     H 1726   5.233   3.038  11.147  0.2183 -0.7384  1.1181
  754MOL0     H 1727   5.149   3.194  10.901  0.1571  0.2023  0.3330
  754MOL0     H 1728   5.074   3.044  10.973 -1.8916  1.3412  1.3842
  754MOL0     H 1729   4.966   3.141  11.144 -1.4043  0.7365 -0.6474
  754MOL0     H 1730   5.080   3.270  11.160 -0.5263  0.3648 -1.4717
  754MOL0     H 1731   4.998   3.399  10.984  1.1235 -1.2431  1.1323
  754MOL0     H 1732   4.905   3.265  10.918 -1.0104 -0.2296 -0.4562
  754MOL0     H 1733   4.766   3.253  11.122  1.2493 -0.9401 -1.6012
  754MOL0     H 1734   4.857   3.394  11.179  3.3073 -1.4192 -0.1313
  754MOL0     H 1735   4.769   3.535  10.995 -0.4628 -1.2883 -4.0439
  754MOL0     H 1736   4.688   3.404  10.926  1.1780  3.7735 -2.2229
  754MOL0     H 1737   4.507   3.478  11.041  0.9901 -0.2134 -2.0700
  754MOL0     H 1738   4.574   3.384  11.175  0.9409 -0.0884 -0.5359
  754MOL0     H 1739   4.610   3.682  11.142  2.6745  0.5083 -1.0314
  754MOL0     H 1740   4.727   3.579  11.225 -0.0108  3.6461  1.1340
  754MOL0     H 1741   4.385   3.718  11.294 -2.3644  0.8154  2.1524
  754MOL0     H 1742   4.202   3.689  11.495 -0.2531  0.8164 -1.3530
  754MOL0     H 1743   4.155   3.536  11.430  0.0600  3.5767 -1.0504
  754MOL0     H 1744   4.254   3.585  11.706 -1.1477  3.4745 -1.4554
  754MOL0     H 1745   4.219   3.420  11.636 -4.0286 -1.1043 -0.7279
  754MOL0     H 1746   4.004   3.459  11.599 -0.3547 -1.1486  0.0274
  754MOL0     H 1747   4.015   3.640  11.632  1.7611 -0.3684 -0.4850
  754MOL0     H 1748   3.913   3.522  11.830 -0.0312  1.3471 -0.6437
  754MOL0     H 1749   4.064   3.600  11.872 -2.6497 -0.3238  2.9779
  754MOL0     H 1750   4.165   3.152  11.910 -0.8720  0.8138 -0.9137
  754MOL0     H 1751   4.233   2.971  12.045  1.7257 -0.6123 -0.1606
  754MOL0     H 1752   4.341   3.037  12.154 -0.1713 -1.2743 -0.6182
  754MOL0     H 1753   4.186   2.970  12.218 -1.7692  3.3393  2.4715
  754MOL0     H 1754   4.417   2.983  12.440 -0.5630 -0.1909  0.1360
  754MOL0     H 1755   4.519   2.904  12.651  0.2348  0.2430 -0.9057
  754MOL0     H 1756   4.423   3.056  13.036 -3.0049  1.1234 -4.3067
  754MOL0     H 1757   4.297   2.925  13.034 -1.1719  1.6211 -0.7210
  754MOL0     H 1758   4.478   2.762  13.079  0.0139  1.2314 -0.1603
  754MOL0     H 1759   4.592   2.899  13.083  0.6866 -0.3312 -4.0775
  754MOL0     H 1760   4.333   2.842  13.261  1.0062 -3.0243  2.4039
  754MOL0     H 1761   4.451   2.974  13.294  3.0409 -1.4449  0.3100
  754MOL0     H 1762   4.501   2.687  13.329  0.9045  0.4672  0.6368
  754MOL0     H 1763   4.625   2.802  13.322  1.5641 -1.8170  2.5915
  754MOL0     H 1764   4.403   2.796  13.532  0.2251 -1.7740 -0.1261
  754MOL0     H 1765   4.503   2.941  13.516  2.7496 -0.3474 -0.9284
  754MOL0     H 1766   4.625   2.664  13.552 -1.3583 -0.8549  1.4641
  754MOL0     H 1767   4.714   2.815  13.524  0.0102  0.9491 -0.1152
  754MOL0     H 1768   4.634   2.904  13.754 -0.7457  0.0111  4.2382
  754MOL0     H 1769   4.699   2.741  13.756 -0.0662 -0.1264 -1.2828
  754MOL0     H 1770   4.483   2.638  13.760  1.0584 -0.4155  0.1594
  754MOL0     H 1771   4.398   2.800  13.783  0.3945  1.3204  1.8852
  754MOL0     H 1772   4.199   3.100  12.869 -0.9423 -0.3269  0.0422
  754MOL0     H 1773   4.099   3.171  12.676  0.1370  0.5584  3.0270
  754MOL0     H 1774   4.141   3.477  12.294  1.0977  2.4161 -1.5466
  754MOL0     H 1775   4.102   3.551  12.070 -0.4816  0.0165 -1.3906
  754MOL0     H 1776   5.489   3.026  11.175  2.5419 -1.0099  0.1413
  754MOL0     H 1777   5.636   3.010  11.347 -0.5265 -0.2501  0.3632
  754MOL0     H 1778   5.852   3.023  11.591 -0.7663 -0.6276  2.0604
  754MOL0     H 1779   6.015   2.949  11.727 -0.5893 -0.8271  0.2369
  754MOL0     H 1780   6.380   3.206  11.837 -1.0878 -0.3236  0.8940
  754MOL0     H 1781   6.255   3.256  11.936  0.2653  1.9906 -1.2900
  754MOL0     H 1782   6.456   3.144  12.062 -1.0591  0.9882  2.8914
  754MOL0     H 1783   6.416   3.005  11.952 -0.4801 -1.1004  0.8397
  754MOL0     H 1784   6.231   2.944  12.089 -0.7735 -0.4353  1.1175
  754MOL0     H 1785   6.210   3.112  12.160  0.7896  0.6179 -0.2893
  754MOL0     H 1786   6.408   3.085  12.291  0.5954 -0.1395  0.1095
  754MOL0     H 1787   6.456   2.938  12.205  1.3402  0.8913  0.8771
  754MOL0     H 1788   6.125   2.786  12.436 -1.0802  1.4701 -0.1016
  754MOL0     H 1789   6.204   3.341  11.745 -0.6420  0.6323  2.2557
  754MOL0     H 1790   6.016   3.426  11.620  1.7405  0.7087  2.2298
  755MOL0     O 1791   0.810   8.137   1.799  0.0867 -1.2878 -0.3710
  755MOL0     C 1792   0.909   8.104   1.858 -0.5938 -0.2991 -0.0498
  755MOL0     O 1793   1.030   8.176   1.858  0.9027 -0.0423 -0.2163
  755MOL0     C 1794   1.047   8.288   1.787 -0.8226  0.3329  0.0952
  755MOL0     C 1795   1.136   8.380   1.844 -0.0865  0.5297 -0.4877
  755MOL0     C 1796   1.165   8.507   1.774  0.2130  0.7838 -0.5490
  755MOL0     C 1797   1.115   8.523   1.654  0.5350 -0.3516 -0.1210
  755MOL0     O 1798   1.147   8.637   1.584  0.2857  0.0643 -0.0889
  755MOL0     C 1799   1.204   8.619   1.456  0.5332 -0.4532 -0.4758
  755MOL0     C 1800   1.241   8.756   1.403 -0.1774  0.3438 -0.3933
  755MOL0     C 1801   1.382   8.802   1.461 -0.4751  1.0499  0.4195
  755MOL0     C 1802   1.452   8.920   1.396  0.7937  0.6314  0.3241
  755MOL0     C 1803   1.524   8.880   1.264 -0.7814 -0.0799 -0.2135
  755MOL0     C 1804   1.679   8.863   1.292  0.7167  0.5651 -0.6321
  755MOL0     C 1805   1.732   8.808   1.160 -0.2057  0.4169 -0.0668
  755MOL0     C 1806   1.888   8.791   1.156  0.1908  0.1866 -0.2164
  755MOL0     N 1807   1.928   8.743   1.287 -0.0681  0.2858  0.7793
  755MOL0     C 1808   1.904   8.611   1.326  0.4402 -0.3554 -0.2545
  755MOL0     C 1809   1.978   8.609   1.447  0.1816  0.8000  0.8809
  755MOL0     C 1810   1.983   8.492   1.542 -0.0268 -0.7043  0.9578
  755MOL0     C 1811   1.999   8.347   1.498 -0.3593 -0.0104 -0.8645
  755MOL0     C 1812   2.143   8.310   1.522  0.0230 -0.9133  1.4405
  755MOL0     C 1813   2.225   8.345   1.390  0.1263 -0.4092 -0.0862
  755MOL0     O 1814   2.368   8.330   1.397 -0.0923  0.1695 -0.5528
  755MOL0     C 1815   2.462   8.428   1.412  0.3993  0.0913  0.2102
  755MOL0     C 1816   2.441   8.555   1.463 -0.4186 -0.2312  0.3758
  755MOL0     C 1817   2.543   8.651   1.461 -0.0058 -0.1607 -0.2425
  755MOL0     C 1818   2.522   8.789   1.520 -0.4312  0.8533  0.2885
  755MOL0     C 1819   2.676   8.613   1.426 -0.1986 -1.4807  0.1445
  755MOL0     C 1820   2.784   8.722   1.419  0.7552 -0.2628 -0.0113
  755MOL0     O 1821   2.757   8.850   1.388  0.6921  0.4838  0.1262
  755MOL0     C 1822   2.862   8.940   1.401 -0.6842  0.8522  0.8050
  755MOL0     C 1823   2.994   8.916   1.351 -0.5758  1.4529 -0.7686
  755MOL0     C 1824   3.090   9.014   1.354 -0.4648 -0.4502 -1.0032
  755MOL0     C 1825   3.060   9.143   1.409 -0.6792 -0.2867 -0.1131
  755MOL0     O 1826   3.154   9.243   1.424  0.0730 -1.0056 -0.5649
  755MOL0     C 1827   3.241   9.244   1.308  0.3038  0.2023  0.0871
  755MOL0     C 1828   3.346   9.362   1.300  0.1505  0.6492 -1.0280
  755MOL0     C 1829   3.417   9.359   1.167  0.9406  0.1604 -0.1889
  755MOL0     C 1830   3.560   9.415   1.176  0.5365 -0.4207  1.1807
  755MOL0     C 1831   3.568   9.555   1.224  0.4765  0.2665 -0.3124
  755MOL0     C 1832   3.535   9.646   1.106 -0.1508  0.5544 -0.2932
  755MOL0     C 1833   3.508   9.791   1.146  0.1018 -0.0205 -0.1765
  755MOL0     C 1834   3.548   9.879   1.028  0.1465  0.0496 -0.3614
  755MOL0    Cl 1835   3.586  10.054   1.075  0.0402  0.0876  0.1683
  755MOL0     C 1836   2.937   9.163   1.468  0.3458 -0.6008  0.1050
  755MOL0     C 1837   2.839   9.061   1.460 -1.1400  0.5024 -0.1032
  755MOL0     O 1838   2.893   8.678   1.439 -0.4088 -0.4233  0.5083
  755MOL0     C 1839   2.690   8.484   1.379  0.3403 -0.1462 -0.1538
  755MOL0     C 1840   2.584   8.387   1.377 -0.0482  1.5209  0.7573
  755MOL0     N 1841   2.047   8.726   1.467 -0.2468 -0.5566 -0.6161
  755MOL0     N 1842   2.009   8.809   1.374 -1.0400  0.1000  0.4642
  755MOL0     C 1843   1.026   8.432   1.595  0.4352  0.1152 -0.1244
  755MOL0     C 1844   0.980   8.325   1.666 -0.3042  0.3724 -1.1595
  755MOL0     C 1845   0.929   7.975   1.927  0.9168 -0.0096 -1.3040
  755MOL0     C 1846   0.812   7.894   1.946  0.4404 -0.2868  0.7844
  755MOL0     C 1847   0.814   7.777   2.020 -1.2286 -0.6177  0.2214
  755MOL0     C 1848   0.928   7.735   2.082 -0.0865 -0.2998 -0.1557
  755MOL0     O 1849   0.919   7.625   2.171 -0.0406 -0.6712  0.7235
  755MOL0     C 1850   0.917   7.501   2.094  0.2107  0.3293 -0.8090
  755MOL0     C 1851   1.059   7.449   2.051  0.2587 -0.1703  0.2546
  755MOL0     C 1852   1.152   7.446   2.171 -0.2650  0.3541 -0.5311
  755MOL0     C 1853   1.289   7.381   2.128 -0.1096  0.7415 -0.4648
  755MOL0     C 1854   1.355   7.393   1.998  0.3764 -0.8085  0.2266
  755MOL0     C 1855   1.402   7.418   1.885  0.4240  0.0930 -0.3731
  755MOL0     C 1856   1.042   7.804   2.067 -0.4314 -1.6810 -0.5199
  755MOL0     C 1857   1.047   7.919   1.982  0.5079 -0.1177 -0.2511
  755MOL0     H 1858   1.189   8.361   1.937  0.6564  2.5723 -0.4387
  755MOL0     H 1859   1.234   8.574   1.823  0.7090 -1.5148  2.1289
  755MOL0     H 1860   1.289   8.550   1.451 -0.5025 -1.6662 -2.1126
  755MOL0     H 1861   1.124   8.577   1.394  0.8306 -1.7525 -0.0158
  755MOL0     H 1862   1.237   8.739   1.295  0.8317 -1.5940 -0.1702
  755MOL0     H 1863   1.165   8.832   1.423 -1.6943 -0.6139 -2.2024
  755MOL0     H 1864   1.376   8.814   1.570 -1.8135 -1.5981  0.7088
  755MOL0     H 1865   1.448   8.717   1.442 -1.6529  0.3180 -0.4949
  755MOL0     H 1866   1.379   8.994   1.363  0.9784  0.0728 -1.4964
  755MOL0     H 1867   1.525   8.963   1.465 -2.1050 -0.2165  4.2320
  755MOL0     H 1868   1.483   8.783   1.236  1.9007 -1.1378 -0.6914
  755MOL0     H 1869   1.491   8.968   1.206 -3.4650  0.4635  1.9204
  755MOL0     H 1870   1.735   8.954   1.317  1.3099  0.0518 -0.0829
  755MOL0     H 1871   1.678   8.784   1.367 -1.4234  1.0575 -0.0691
  755MOL0     H 1872   1.683   8.713   1.135 -2.0283  1.7165 -1.8235
  755MOL0     H 1873   1.711   8.872   1.073 -2.6112 -0.7850 -0.4784
  755MOL0     H 1874   1.932   8.886   1.123  1.8559 -1.5486 -3.4225
  755MOL0     H 1875   1.919   8.716   1.083 -0.4896 -0.2500 -0.0646
  755MOL0     H 1876   1.840   8.535   1.284  1.9582 -1.9588  0.1933
  755MOL0     H 1877   2.057   8.521   1.617  0.2545 -0.4023  0.5668
  755MOL0     H 1878   1.888   8.496   1.595 -2.3515 -1.4602 -2.7793
  755MOL0     H 1879   1.959   8.341   1.396 -2.4548  3.1147 -0.3790
  755MOL0     H 1880   1.940   8.282   1.562  1.3383  1.7705  2.7742
  755MOL0     H 1881   2.152   8.204   1.551 -2.2056 -2.3114 -2.3115
  755MOL0     H 1882   2.178   8.362   1.611  0.1504  1.9692 -0.1689
  755MOL0     H 1883   2.210   8.450   1.362  1.9645  0.5255  2.0595
  755MOL0     H 1884   2.175   8.279   1.318 -0.5077 -0.2347  0.1869
  755MOL0     H 1885   2.347   8.585   1.508  0.0041  2.6519 -0.4247
  755MOL0     H 1886   2.423   8.790   1.566 -1.5628  1.4801 -2.0086
  755MOL0     H 1887   2.592   8.822   1.596 -0.7868 -1.1135  1.5454
  755MOL0     H 1888   2.514   8.861   1.438 -2.4634  1.0457  0.5952
  755MOL0     H 1889   3.034   8.825   1.307  0.6696  0.6433  1.8090
  755MOL0     H 1890   3.186   8.979   1.317 -0.6296 -2.5196  0.3277
  755MOL0     H 1891   3.298   9.150   1.298 -0.2595 -0.1924  0.5040
  755MOL0     H 1892   3.181   9.248   1.217 -1.1112  1.8644  1.0555
  755MOL0     H 1893   3.292   9.454   1.326 -1.0999 -1.3015  4.6417
  755MOL0     H 1894   3.416   9.357   1.383 -2.5251  2.1054  1.4888
  755MOL0     H 1895   3.345   9.404   1.098 -0.8145  0.9047  2.0116
  755MOL0     H 1896   3.425   9.253   1.142 -0.0665 -0.3238  1.4106
  755MOL0     H 1897   3.620   9.372   1.256  0.7652 -1.0784  0.6632
  755MOL0     H 1898   3.616   9.395   1.084  1.2101 -0.0999  1.5161
  755MOL0     H 1899   3.674   9.572   1.247  0.4888  0.6823 -0.6530
  755MOL0     H 1900   3.514   9.576   1.316  2.6844 -0.9607  1.3621
  755MOL0     H 1901   3.617   9.642   1.034  1.1501  1.7107  1.0668
  755MOL0     H 1902   3.442   9.610   1.060 -1.0907 -0.3539  2.1164
  755MOL0     H 1903   3.576   9.822   1.226 -1.1721  1.1933  0.4925
  755MOL0     H 1904   3.405   9.797   1.183 -0.5074 -0.6578 -1.6634
  755MOL0     H 1905   3.468   9.878   0.953 -1.3906  1.7915  1.1508
  755MOL0     H 1906   3.643   9.843   0.987  1.1456 -1.5598  3.0256
  755MOL0     H 1907   2.931   9.264   1.506  3.2283 -0.6757  1.0297
  755MOL0     H 1908   2.743   9.079   1.507  1.4975  1.5361  5.8012
  755MOL0     H 1909   2.779   8.463   1.321 -0.9189  0.0527 -2.2706
  755MOL0     H 1910   2.594   8.292   1.325  0.2578  1.9791 -0.0437
  755MOL0     H 1911   0.965   8.453   1.508 -2.5052  0.6200  1.9146
  755MOL0     H 1912   0.908   8.258   1.620  1.0431 -3.1420  1.4042
  755MOL0     H 1913   0.714   7.925   1.913  0.0302 -1.2325  1.0922
  755MOL0     H 1914   0.725   7.717   2.038 -0.0672 -2.3065  0.5442
  755MOL0     H 1915   0.864   7.434   2.161  1.1327 -0.2359 -0.6187
  755MOL0     H 1916   0.853   7.519   2.007  0.6742  1.8551 -0.8720
  755MOL0     H 1917   1.100   7.525   1.983  3.4998  0.2598  2.4794
  755MOL0     H 1918   1.065   7.356   1.993  2.0042 -0.2913  0.5800
  755MOL0     H 1919   1.109   7.379   2.247 -1.1847  0.6724 -0.7666
  755MOL0     H 1920   1.170   7.543   2.219  0.0363  0.1552 -0.2353
  755MOL0     H 1921   1.276   7.273   2.139  1.1196  0.8456  3.5002
  755MOL0     H 1922   1.356   7.426   2.202 -1.6030  2.0538  0.1512
  755MOL0     H 1923   1.445   7.444   1.791  1.7267  1.4164  0.5282
  755MOL0     H 1924   1.137   7.765   2.102  1.3488  2.0335 -0.7471
  755MOL0     H 1925   1.146   7.964   1.973  0.1944  0.4416 -0.9926
  756MOL0     O 1926   6.565   0.187   2.767  0.3096  1.0953 -0.2780
  756MOL0     C 1927   6.467   0.108   2.791 -1.4974 -0.4423 -0.6575
  756MOL0     O 1928   6.433   0.003   2.710 -0.0127 -0.8820 -0.0004
  756MOL0     C 1929   6.483  -0.008   2.576  0.1044  0.0507 -0.2619
  756MOL0     C 1930   6.481  -0.135   2.539 -0.7478  0.5032  0.5402
  756MOL0     C 1931   6.518  -0.174   2.407 -0.2687  0.1181  0.3744
  756MOL0     C 1932   6.526  -0.081   2.308 -0.7537 -0.1046  0.8372
  756MOL0     O 1933   6.573  -0.123   2.188  0.3447  0.3470 -0.1399
  756MOL0     C 1934   6.551  -0.025   2.084  0.3049 -0.7342  0.0562
  756MOL0     C 1935   6.568  -0.082   1.947 -0.5640 -1.1944  0.5021
  756MOL0     C 1936   6.598   0.025   1.836  0.1635 -0.0902 -0.5199
  756MOL0     C 1937   6.577  -0.037   1.700  0.5229  0.2808  0.0293
  756MOL0     C 1938   6.597   0.068   1.590 -0.5263  0.7053 -0.0769
  756MOL0     C 1939   6.633   0.006   1.452  0.1607 -1.5040  0.3323
  756MOL0     C 1940   6.529  -0.089   1.395  0.2371 -0.2522  0.1096
  756MOL0     C 1941   6.580  -0.144   1.258  0.4503  0.0285  0.5589
  756MOL0     N 1942   6.686  -0.240   1.269  0.0924  0.1374 -0.8895
  756MOL0     C 1943   6.721  -0.327   1.381  0.8270  1.0402  0.8886
  756MOL0     C 1944   6.847  -0.368   1.363 -0.0787  0.9734 -0.4683
  756MOL0     C 1945   6.933  -0.460   1.454  0.7110 -0.8618 -0.5293
  756MOL0     C 1946   7.005  -0.385   1.561  0.1428 -0.1056 -0.5512
  756MOL0     C 1947   7.058  -0.484   1.666  0.1893 -0.4281  0.4089
  756MOL0     C 1948   7.144  -0.416   1.773  0.7322 -0.4018 -0.3984
  756MOL0     O 1949   7.182  -0.485   1.892 -0.4744  0.5508  0.5788
  756MOL0     C 1950   7.202  -0.618   1.915 -0.4457 -0.1644  0.8556
  756MOL0     C 1951   7.147  -0.672   2.029  0.4632  0.6347  0.5640
  756MOL0     C 1952   7.150  -0.814   2.051  0.5197 -0.6300  0.7495
  756MOL0     C 1953   7.093  -0.864   2.183  0.0717  0.4734  0.0598
  756MOL0     C 1954   7.213  -0.892   1.957 -1.0537  1.0473 -0.0031
  756MOL0     C 1955   7.203  -1.042   1.962 -0.9359 -0.7897  0.1414
  756MOL0     O 1956   7.190  -1.111   1.842  0.5564  0.2454 -0.1955
  756MOL0     C 1957   7.194  -1.249   1.846  1.4254 -0.3790  0.1465
  756MOL0     C 1958   7.313  -1.321   1.831  1.1703 -0.1080 -0.2339
  756MOL0     C 1959   7.297  -1.458   1.792 -0.3740 -0.9864  0.4734
  756MOL0     C 1960   7.174  -1.521   1.795  0.8676 -0.5437  0.4529
  756MOL0     O 1961   7.175  -1.648   1.754  0.2613  0.4727  0.3351
  756MOL0     C 1962   7.060  -1.724   1.767  0.0847  0.0738  1.0503
  756MOL0     C 1963   7.087  -1.859   1.695  0.4613  0.0701  0.8116
  756MOL0     C 1964   6.971  -1.962   1.675  0.3589 -0.1458 -0.1476
  756MOL0     C 1965   7.016  -2.099   1.641  0.4003  0.0627 -0.2891
  756MOL0     C 1966   7.018  -2.133   1.491  0.4540 -0.1989  0.3257
  756MOL0     C 1967   7.137  -2.067   1.419 -0.6380 -0.9735  0.0295
  756MOL0     C 1968   7.160  -2.133   1.284 -0.1399  0.1608  0.5264
  756MOL0     C 1969   7.046  -2.101   1.188 -0.3979  0.1717 -0.3257
  756MOL0    Cl 1970   7.057  -2.182   1.024 -0.0951  0.1503 -0.3014
  756MOL0     C 1971   7.060  -1.440   1.816  0.0142  0.2497  0.4349
  756MOL0     C 1972   7.073  -1.304   1.844  1.2999  0.2154 -0.7953
  756MOL0     O 1973   7.209  -1.098   2.070  0.3884 -0.1678 -0.1806
  756MOL0     C 1974   7.274  -0.832   1.849 -0.2501  1.0754 -0.0585
  756MOL0     C 1975   7.277  -0.695   1.824  0.9063  0.1037  0.4873
  756MOL0     N 1976   6.897  -0.315   1.241  0.8104  0.0879 -1.1085
  756MOL0     N 1977   6.806  -0.240   1.197  0.4022 -1.5820  0.4105
  756MOL0     C 1978   6.522   0.057   2.352 -0.3865  0.1367 -0.3973
  756MOL0     C 1979   6.498   0.097   2.485 -0.6342  0.7105 -0.5143
  756MOL0     C 1980   6.394   0.124   2.913 -0.5515 -0.1742  0.0013
  756MOL0     C 1981   6.432   0.213   3.023 -0.0524  0.5043 -0.0379
  756MOL0     C 1982   6.361   0.213   3.144  0.7799 -0.6617  0.3463
  756MOL0     C 1983   6.245   0.136   3.167 -0.0338  0.2196 -0.6169
  756MOL0     O 1984   6.167   0.133   3.280 -0.5981  0.1691 -0.1600
  756MOL0     C 1985   6.205   0.218   3.399  0.3457  0.6955  0.7999
  756MOL0     C 1986   6.100   0.182   3.507  0.6467 -0.6617 -0.5779
  756MOL0     C 1987   6.099   0.266   3.634 -0.0037 -0.0713  0.4010
  756MOL0     C 1988   6.203   0.224   3.731  0.6453  0.1296  0.0784
  756MOL0     C 1989   6.182   0.093   3.802 -0.0116 -0.1339 -0.0048
  756MOL0     C 1990   6.145  -0.002   3.865 -0.3951  0.6470  0.7951
  756MOL0     C 1991   6.198   0.067   3.063 -0.6592  0.8462  0.5831
  756MOL0     C 1992   6.275   0.048   2.941  0.0059  0.2380 -0.2550
  756MOL0     H 1993   6.480  -0.216   2.612 -0.3910 -1.6712 -1.7335
  756MOL0     H 1994   6.528  -0.278   2.378  1.5032  0.9372 -2.3387
  756MOL0     H 1995   6.453   0.023   2.094  0.0885 -1.0073 -0.6690
  756MOL0     H 1996   6.624   0.056   2.089  0.4330 -0.5834 -2.6627
  756MOL0     H 1997   6.644  -0.161   1.951 -1.9546 -2.6034  0.1630
  756MOL0     H 1998   6.484  -0.135   1.901  2.1921 -3.8468 -1.9046
  756MOL0     H 1999   6.541   0.117   1.848 -0.8808 -0.7387 -0.3586
  756MOL0     H 2000   6.702   0.059   1.843  0.4482  0.4726 -4.9782
  756MOL0     H 2001   6.641  -0.124   1.680  1.5649  1.3908 -1.6719
  756MOL0     H 2002   6.474  -0.071   1.695  1.0480 -1.4396  0.2430
  756MOL0     H 2003   6.508   0.131   1.585 -2.0246 -1.0468  2.3797
  756MOL0     H 2004   6.678   0.135   1.620 -0.0345  0.8189 -1.5881
  756MOL0     H 2005   6.647   0.087   1.380  1.8215 -2.6641 -0.7414
  756MOL0     H 2006   6.725  -0.050   1.472  0.2484 -0.9296  1.6310
  756MOL0     H 2007   6.499  -0.173   1.458  0.5263 -0.8983 -0.6066
  756MOL0     H 2008   6.449  -0.017   1.378  1.2782  0.6094 -1.3440
  756MOL0     H 2009   6.623  -0.057   1.206 -1.9986  0.2573 -1.2751
  756MOL0     H 2010   6.495  -0.177   1.198  1.4264 -0.3214 -0.6757
  756MOL0     H 2011   6.658  -0.349   1.467  1.0524 -4.3110  0.0564
  756MOL0     H 2012   6.870  -0.525   1.517 -0.9761  1.9185  0.8882
  756MOL0     H 2013   6.994  -0.521   1.388  1.4180  1.5564 -2.2211
  756MOL0     H 2014   6.941  -0.309   1.607 -0.4440 -2.4407  2.9731
  756MOL0     H 2015   7.093  -0.345   1.511 -0.3642  0.3352 -1.1041
  756MOL0     H 2016   7.110  -0.560   1.609 -0.2528 -1.1024  0.8882
  756MOL0     H 2017   6.966  -0.522   1.712 -0.4106 -1.2494 -1.3796
  756MOL0     H 2018   7.094  -0.322   1.800  0.9491  0.1246 -1.7405
  756MOL0     H 2019   7.232  -0.381   1.718 -1.9210  2.5770 -3.2316
  756MOL0     H 2020   7.104  -0.608   2.105  0.1934 -3.5383  4.3414
  756MOL0     H 2021   7.010  -0.932   2.164  0.3443  0.4721 -1.2287
  756MOL0     H 2022   7.176  -0.917   2.232  2.1067  0.0241 -3.5189
  756MOL0     H 2023   7.069  -0.777   2.245  2.9316  0.6574  1.0855
  756MOL0     H 2024   7.410  -1.273   1.834  0.7960  0.7957 -1.8492
  756MOL0     H 2025   7.386  -1.518   1.777 -1.9252 -2.9709 -1.4372
  756MOL0     H 2026   7.039  -1.740   1.873 -0.0584  0.5234  1.0935
  756MOL0     H 2027   6.968  -1.693   1.717  0.9784 -0.2432 -0.8995
  756MOL0     H 2028   7.099  -1.836   1.589 -2.4678  0.8807  0.5472
  756MOL0     H 2029   7.169  -1.909   1.747 -0.1968  0.5724  2.4018
  756MOL0     H 2030   6.896  -1.945   1.597  0.5075  1.1929 -0.0339
  756MOL0     H 2031   6.930  -1.963   1.776  0.6231  3.3983  0.1382
  756MOL0     H 2032   7.107  -2.127   1.694 -0.5579 -0.8865  0.9070
  756MOL0     H 2033   6.936  -2.158   1.686 -0.1393 -0.1578 -1.4944
  756MOL0     H 2034   6.925  -2.097   1.447  1.1051  1.5935  0.3334
  756MOL0     H 2035   7.021  -2.242   1.481 -1.0580 -0.1044 -1.6413
  756MOL0     H 2036   7.105  -1.963   1.404 -0.5192 -0.7436  1.2732
  756MOL0     H 2037   7.229  -2.060   1.479 -1.0456 -2.2322  0.8439
  756MOL0     H 2038   7.174  -2.239   1.309  0.2409  0.1973  0.4898
  756MOL0     H 2039   7.250  -2.107   1.228 -0.6755 -0.5697 -0.7158
  756MOL0     H 2040   7.035  -1.993   1.188 -0.6688  0.1446 -0.3003
  756MOL0     H 2041   6.954  -2.145   1.227  0.1424 -0.1061  0.6934
  756MOL0     H 2042   6.970  -1.480   1.770 -1.8441  3.7740  0.7062
  756MOL0     H 2043   6.988  -1.237   1.852  1.7415  0.6220  4.5917
  756MOL0     H 2044   7.314  -0.909   1.784 -1.4640 -0.3388  0.8068
  756MOL0     H 2045   7.316  -0.646   1.736  1.2773  2.2933  1.8196
  756MOL0     H 2046   6.546   0.139   2.286  2.1126 -2.0379 -2.4119
  756MOL0     H 2047   6.481   0.198   2.520 -0.2643  0.5907  0.0176
  756MOL0     H 2048   6.513   0.283   3.007 -0.3033  0.3281 -2.4511
  756MOL0     H 2049   6.405   0.266   3.228 -0.2220 -1.2156  1.2408
  756MOL0     H 2050   6.305   0.198   3.439  0.3370 -1.4499 -0.1192
  756MOL0     H 2051   6.205   0.324   3.371  0.5572  1.1218  2.3348
  756MOL0     H 2052   6.099   0.077   3.538 -2.4449 -0.8559 -1.0864
  756MOL0     H 2053   5.999   0.189   3.465  1.1612  2.6727 -1.5607
  756MOL0     H 2054   6.005   0.249   3.688  1.2804  0.3579  2.8915
  756MOL0     H 2055   6.095   0.371   3.601  1.3920 -0.3934 -0.9416
  756MOL0     H 2056   6.212   0.296   3.813  0.0080 -2.0222  2.1435
  756MOL0     H 2057   6.295   0.222   3.670 -0.8579  0.6190 -2.3419
  756MOL0     H 2058   6.101  -0.083   3.919 -0.0080  1.6482  2.6979
  756MOL0     H 2059   6.125  -0.013   3.070 -1.6744  1.7814  0.9209
  756MOL0     H 2060   6.248  -0.023   2.863 -2.2295 -0.4559  1.0720
  757MOL0     O 2061   9.362   5.550   4.088 -0.3736  0.2323 -0.2931
  757MOL0     C 2062   9.476   5.552   4.128 -0.7190  1.4997  0.8846
  757MOL0     O 2063   9.586   5.588   4.050  0.0624  0.5813 -0.0914
  757MOL0     C 2064   9.583   5.572   3.912  0.7083  0.7623  0.0987
  757MOL0     C 2065   9.483   5.560   3.819  0.2134  0.6300  0.1252
  757MOL0     C 2066   9.507   5.538   3.685  0.5383  0.5951 -0.1210
  757MOL0     C 2067   9.629   5.526   3.632 -0.2952  0.0209 -1.0789
  757MOL0     O 2068   9.653   5.490   3.500  0.5889  0.7055 -0.2477
  757MOL0     C 2069   9.735   5.384   3.460 -0.3692 -0.4755  0.1177
  757MOL0     C 2070   9.719   5.350   3.313 -0.5983  0.3513 -0.2103
  757MOL0     C 2071   9.799   5.443   3.220 -0.1223 -0.5608  0.7013
  757MOL0     C 2072   9.752   5.417   3.074  0.1225 -0.3041 -0.6751
  757MOL0     C 2073   9.863   5.367   2.984 -0.4393 -0.3060  0.7659
  757MOL0     C 2074   9.971   5.476   2.982 -0.7880 -0.7716  0.5903
  757MOL0     C 2075  10.057   5.454   2.848 -0.9632 -0.7531 -0.1900
  757MOL0     C 2076  10.180   5.543   2.840  0.4358 -0.3177  0.2446
  757MOL0     N 2077  10.290   5.504   2.922  0.1517 -0.3345  0.9705
  757MOL0     C 2078  10.353   5.384   2.907 -0.0783  0.1757 -0.0663
  757MOL0     C 2079  10.414   5.369   3.025 -0.2001  0.1438  0.4415
  757MOL0     C 2080  10.473   5.248   3.066 -0.1370 -0.6109 -0.1194
  757MOL0     C 2081  10.373   5.145   3.124  0.1894 -0.2592 -0.4723
  757MOL0     C 2082  10.284   5.190   3.243  0.4122 -0.3536  0.5172
  757MOL0     C 2083  10.137   5.149   3.236 -0.3363  0.1817 -0.3862
  757MOL0     O 2084  10.061   5.199   3.346 -0.2157 -1.0389 -0.9445
  757MOL0     C 2085  10.061   5.144   3.473 -0.6478  1.3009 -0.4309
  757MOL0     C 2086  10.070   5.224   3.587  0.5266  0.0974  0.4503
  757MOL0     C 2087  10.048   5.174   3.719 -0.6833 -0.4820  0.3282
  757MOL0     C 2088  10.056   5.277   3.833 -0.4908  0.6412  0.8673
  757MOL0     C 2089  10.032   5.034   3.741  0.8252 -0.0625  0.3315
  757MOL0     C 2090  10.020   4.972   3.869 -0.2197 -0.2539 -0.3558
  757MOL0     O 2091  10.082   5.023   3.981 -0.2891 -0.0319  0.2509
  757MOL0     C 2092  10.094   4.969   4.109  0.8410 -0.0420  0.0920
  757MOL0     C 2093  10.103   4.835   4.130  0.9719  0.2226 -0.2038
  757MOL0     C 2094  10.147   4.776   4.254  0.6017  0.5107  0.4792
  757MOL0     C 2095  10.169   4.857   4.360 -0.4492 -0.1336 -0.3397
  757MOL0     O 2096  10.215   4.797   4.476 -0.2876 -0.7578 -0.4482
  757MOL0     C 2097  10.181   4.860   4.606 -0.7989  0.6038 -0.9786
  757MOL0     C 2098  10.211   4.763   4.727 -0.8650 -0.7803 -0.5727
  757MOL0     C 2099  10.192   4.846   4.858 -0.2412  1.2734 -0.1175
  757MOL0     C 2100  10.046   4.861   4.892  0.6408  0.3323  0.0547
  757MOL0     C 2101  10.033   4.961   5.006 -0.1075 -0.1618 -1.2721
  757MOL0     C 2102   9.881   4.997   5.031 -0.1911  0.0867  0.0925
  757MOL0     C 2103   9.867   5.074   5.163  0.2193 -0.2156 -0.3712
  757MOL0     C 2104   9.722   5.064   5.219  0.4105 -0.8215 -0.1486
  757MOL0    Cl 2105   9.610   5.167   5.118 -0.0750  0.0198  0.5419
  757MOL0     C 2106  10.155   4.991   4.352 -0.6356 -0.3918 -0.1259
  757MOL0     C 2107  10.132   5.047   4.216 -0.5045 -1.0023 -0.0453
  757MOL0     O 2108   9.968   4.864   3.871  0.0022  0.5362  1.0463
  757MOL0     C 2109  10.017   4.950   3.623 -0.3911 -0.2608  0.4001
  757MOL0     C 2110  10.026   5.003   3.490 -0.5861 -0.2794  0.2210
  757MOL0     N 2111  10.422   5.482   3.102  0.2109 -0.1763  0.1032
  757MOL0     N 2112  10.341   5.565   3.038  0.2582 -1.2750  0.1901
  757MOL0     C 2113   9.735   5.540   3.720  0.6042  0.0561  0.3506
  757MOL0     C 2114   9.713   5.567   3.851  0.7922 -0.0921  0.1508
  757MOL0     C 2115   9.485   5.536   4.264  0.0184  0.5677 -1.0987
  757MOL0     C 2116   9.379   5.475   4.344 -0.2828  0.8326  0.1802
  757MOL0     C 2117   9.394   5.461   4.485  0.0440 -0.4331  1.1183
  757MOL0     C 2118   9.513   5.513   4.549  0.2762  0.4272  0.9656
  757MOL0     O 2119   9.498   5.472   4.682  0.3883  0.5531 -1.1544
  757MOL0     C 2120   9.595   5.513   4.773  0.1325  0.3596 -0.2887
  757MOL0     C 2121   9.539   5.486   4.921  0.0712  0.3719  0.4586
  757MOL0     C 2122   9.394   5.553   4.940 -0.5787  0.3365 -0.6286
  757MOL0     C 2123   9.368   5.566   5.091 -0.3922  0.2525 -0.5579
  757MOL0     C 2124   9.225   5.571   5.118 -0.3257 -0.0196 -0.5162
  757MOL0     C 2125   9.110   5.563   5.149  0.9128 -0.0062 -0.3980
  757MOL0     C 2126   9.609   5.589   4.481 -0.6718 -0.4889 -0.3331
  757MOL0     C 2127   9.593   5.597   4.342 -0.7834 -0.3461  0.0733
  757MOL0     H 2128   9.379   5.580   3.845  0.0388  2.4896 -1.7498
  757MOL0     H 2129   9.427   5.540   3.612  0.7565  1.7120 -0.3436
  757MOL0     H 2130   9.836   5.421   3.479  0.0033 -1.3335 -0.1175
  757MOL0     H 2131   9.713   5.294   3.518 -2.0409  1.9885  3.7024
  757MOL0     H 2132   9.763   5.252   3.290 -1.2855  0.2313 -1.0532
  757MOL0     H 2133   9.610   5.347   3.307 -0.7531  1.5735  1.2189
  757MOL0     H 2134   9.766   5.543   3.252 -0.0328 -0.1761 -0.3546
  757MOL0     H 2135   9.907   5.454   3.224 -0.1477  1.7604 -2.0017
  757MOL0     H 2136   9.669   5.346   3.079 -2.0600  2.1147  0.3383
  757MOL0     H 2137   9.708   5.514   3.048 -1.3870 -0.0097  2.3907
  757MOL0     H 2138   9.899   5.272   3.025  2.1154  0.7037  1.0437
  757MOL0     H 2139   9.823   5.341   2.885 -1.3803  1.5236  0.6252
  757MOL0     H 2140   9.931   5.576   2.966  1.1705 -0.4068 -3.1191
  757MOL0     H 2141  10.031   5.469   3.074  0.8187 -0.5888 -0.4103
  757MOL0     H 2142  10.097   5.352   2.842 -4.0461 -2.1146  0.0267
  757MOL0     H 2143   9.988   5.485   2.768 -1.4306  1.4097  0.9885
  757MOL0     H 2144  10.153   5.646   2.864 -1.4370 -0.3596 -1.4469
  757MOL0     H 2145  10.207   5.558   2.735 -1.6265  0.4289 -0.2225
  757MOL0     H 2146  10.345   5.316   2.823  2.2305 -1.0983  0.6718
  757MOL0     H 2147  10.527   5.198   2.985 -2.7537 -1.5008 -1.4284
  757MOL0     H 2148  10.544   5.276   3.144 -0.6975 -3.2563  1.4999
  757MOL0     H 2149  10.422   5.054   3.157 -1.2539 -0.4931  1.1593
  757MOL0     H 2150  10.318   5.109   3.036  0.7618 -1.0544 -0.5082
  757MOL0     H 2151  10.276   5.299   3.252 -1.4052 -0.5577  2.1688
  757MOL0     H 2152  10.327   5.165   3.341  1.9640  0.1181 -0.0195
  757MOL0     H 2153  10.135   5.040   3.245 -1.4891  0.3840  3.3991
  757MOL0     H 2154  10.096   5.191   3.144  0.6020  0.8620 -0.5204
  757MOL0     H 2155  10.061   5.328   3.557  0.0666 -0.3920 -1.2095
  757MOL0     H 2156  10.160   5.299   3.858  1.1769 -2.7068 -2.2567
  757MOL0     H 2157  10.002   5.367   3.801 -0.0570  0.4619 -0.4305
  757MOL0     H 2158  10.010   5.244   3.926 -0.5762  0.8915  0.9150
  757MOL0     H 2159  10.106   4.769   4.044 -3.9257  0.6787 -1.0140
  757MOL0     H 2160  10.169   4.670   4.266  4.7056  1.2346  0.9437
  757MOL0     H 2161  10.250   4.945   4.612 -3.2588  2.7094 -0.5170
  757MOL0     H 2162  10.077   4.895   4.601 -0.7120  1.1441  0.5217
  757MOL0     H 2163  10.143   4.678   4.718 -1.9909  0.0134  0.0738
  757MOL0     H 2164  10.313   4.725   4.730 -0.5495 -0.1537  3.7747
  757MOL0     H 2165  10.232   4.947   4.843  1.0005  0.8572  0.3153
  757MOL0     H 2166  10.256   4.797   4.932  3.1872 -2.4108 -4.8861
  757MOL0     H 2167   9.982   4.879   4.805  0.5372  2.0268  0.4356
  757MOL0     H 2168  10.009   4.768   4.936 -1.2829 -0.4628 -2.9992
  757MOL0     H 2169  10.090   5.053   4.992 -3.1412  2.2245  0.7713
  757MOL0     H 2170  10.069   4.910   5.095 -0.9845 -0.5648 -1.1297
  757MOL0     H 2171   9.845   5.054   4.945  1.0393  0.1208 -0.4086
  757MOL0     H 2172   9.825   4.903   5.036 -2.9651  1.6701  0.7282
  757MOL0     H 2173   9.882   5.181   5.145 -2.7268  0.1224 -1.3065
  757MOL0     H 2174   9.942   5.044   5.237 -1.0185  2.9589  2.4532
  757MOL0     H 2175   9.733   5.103   5.321  1.6513  0.7098 -0.8288
  757MOL0     H 2176   9.685   4.962   5.214 -0.2634 -0.6594  1.1538
  757MOL0     H 2177  10.171   5.060   4.434 -2.2380 -2.4350  2.0703
  757MOL0     H 2178  10.123   5.147   4.173  0.6658 -1.9496 -2.6754
  757MOL0     H 2179  10.007   4.842   3.631 -0.1440 -0.4026 -0.9375
  757MOL0     H 2180  10.002   4.929   3.414  0.2071  1.0771 -1.4189
  757MOL0     H 2181   9.838   5.533   3.686  0.6979  2.8858 -0.1784
  757MOL0     H 2182   9.799   5.561   3.917  0.4006 -2.7500  0.5246
  757MOL0     H 2183   9.300   5.415   4.299  0.3286  0.5348 -0.5142
  757MOL0     H 2184   9.315   5.400   4.527 -0.4585 -0.2352  0.4602
  757MOL0     H 2185   9.688   5.457   4.762 -0.1977  0.1424 -2.3856
  757MOL0     H 2186   9.622   5.617   4.754  0.9009  0.1500 -0.3434
  757MOL0     H 2187   9.608   5.525   4.997  1.5309 -0.6799 -0.2732
  757MOL0     H 2188   9.536   5.377   4.932  3.0636  0.0677 -0.8288
  757MOL0     H 2189   9.330   5.479   4.891 -1.4202  0.6228  0.0060
  757MOL0     H 2190   9.391   5.646   4.884 -0.7772 -0.1059 -1.3709
  757MOL0     H 2191   9.406   5.661   5.130 -0.7771  0.0149  0.4288
  757MOL0     H 2192   9.407   5.484   5.152 -1.5015 -2.1951 -2.9520
  757MOL0     H 2193   9.005   5.558   5.172 -0.0061  0.4940 -3.9059
  757MOL0     H 2194   9.683   5.642   4.539  0.4008 -2.1513 -0.1214
  757MOL0     H 2195   9.667   5.653   4.286 -2.0527  2.4451  1.0507
  758MOL0     O 2196   1.029   9.675   0.606 -0.1604 -0.7922 -0.0634
  758MOL0     C 2197   0.981   9.617   0.510  0.0747 -0.4858 -0.0935
  758MOL0     O 2198   1.039   9.511   0.441  0.4821 -0.0922  1.0150
  758MOL0     C 2199   1.173   9.479   0.456 -0.5441 -1.3076 -0.0653
  758MOL0     C 2200   1.281   9.558   0.495 -0.7900 -0.0454 -0.5199
  758MOL0     C 2201   1.406   9.506   0.496 -0.2818  0.0820  1.2385
  758MOL0     C 2202   1.435   9.376   0.461  0.6723 -0.1020  0.2245
  758MOL0     O 2203   1.559   9.318   0.477  0.1395 -0.7265 -0.0751
  758MOL0     C 2204   1.673   9.392   0.520 -0.4320  0.0779  0.2834
  758MOL0     C 2205   1.809   9.318   0.497  1.6714  0.4127  1.3713
  758MOL0     C 2206   1.936   9.404   0.482 -0.6087  0.4919 -0.3856
  758MOL0     C 2207   2.061   9.319   0.482 -0.8283  0.1222 -0.4532
  758MOL0     C 2208   2.184   9.406   0.486  0.0256 -0.1612 -0.5217
  758MOL0     C 2209   2.296   9.346   0.414 -0.4340 -0.0921  0.3074
  758MOL0     C 2210   2.335   9.207   0.452 -0.8696  0.0029  0.0104
  758MOL0     C 2211   2.485   9.166   0.417  0.0128 -0.1455  0.4882
  758MOL0     N 2212   2.499   9.023   0.425 -0.1018 -0.4713 -0.1509
  758MOL0     C 2213   2.448   8.930   0.343 -0.2163  0.1713  1.1602
  758MOL0     C 2214   2.488   8.817   0.395 -0.8062  0.6655 -0.1811
  758MOL0     C 2215   2.463   8.676   0.342 -0.5323 -0.6268  0.5110
  758MOL0     C 2216   2.529   8.648   0.203  0.1343 -0.3475  0.3674
  758MOL0     C 2217   2.564   8.495   0.181 -0.4676  0.0684 -0.3130
  758MOL0     C 2218   2.601   8.463   0.041 -0.2444  0.1072  0.0191
  758MOL0     O 2219   2.746   8.428   0.022  0.5478  0.1564 -0.2950
  758MOL0     C 2220   2.819   8.543  -0.019  0.1473  0.3378  1.1709
  758MOL0     C 2221   2.924   8.587   0.057  0.3095 -0.2631  0.6751
  758MOL0     C 2222   2.995   8.697   0.028 -0.5822 -0.1348  0.4408
  758MOL0     C 2223   3.108   8.740   0.127  0.3855  0.6256  0.5418
  758MOL0     C 2224   2.968   8.758  -0.097  0.7914 -0.4261 -0.6202
  758MOL0     C 2225   3.038   8.882  -0.133  0.0749  0.0616  0.0479
  758MOL0     O 2226   2.993   8.942  -0.248 -0.2308 -0.8780  1.0286
  758MOL0     C 2227   3.055   9.059  -0.289  0.5967  0.0557  0.9596
  758MOL0     C 2228   3.190   9.063  -0.312  0.6936 -0.1121  0.7366
  758MOL0     C 2229   3.250   9.180  -0.360 -1.1024  0.0807  0.4099
  758MOL0     C 2230   3.184   9.304  -0.354  0.2195 -0.3256 -1.1639
  758MOL0     O 2231   3.265   9.416  -0.370  0.5180  0.0427 -0.2945
  758MOL0     C 2232   3.202   9.525  -0.434 -0.3463  0.5473  0.4634
  758MOL0     C 2233   3.290   9.652  -0.442  1.4272 -0.0757 -0.6508
  758MOL0     C 2234   3.345   9.701  -0.302 -0.1590  0.5900 -0.1618
  758MOL0     C 2235   3.236   9.691  -0.191 -0.4741 -0.3048  0.2255
  758MOL0     C 2236   3.278   9.746  -0.059  0.3505 -0.0072 -0.6635
  758MOL0     C 2237   3.158   9.778   0.040 -0.9731 -0.0659 -0.2659
  758MOL0     C 2238   3.214   9.877   0.142  0.4711  0.5014 -0.3405
  758MOL0     C 2239   3.122   9.904   0.267  0.7070  0.0039  0.3578
  758MOL0    Cl 2240   2.970   9.990   0.209  0.2401 -0.1261  0.2541
  758MOL0     C 2241   3.057   9.296  -0.314 -0.0506  0.1513 -0.9647
  758MOL0     C 2242   2.986   9.187  -0.289 -0.4656 -0.3685  0.3356
  758MOL0     O 2243   3.148   8.905  -0.077 -0.1772 -0.4580  0.0341
  758MOL0     C 2244   2.868   8.709  -0.188 -0.5448  0.0597  0.0103
  758MOL0     C 2245   2.789   8.608  -0.143  0.6376  0.2487 -0.3788
  758MOL0     N 2246   2.569   8.836   0.503  0.4811  0.1664 -1.0145
  758MOL0     N 2247   2.567   8.957   0.522  0.4252 -0.3478 -1.8317
  758MOL0     C 2248   1.332   9.299   0.406 -0.0077 -0.2786 -0.3146
  758MOL0     C 2249   1.203   9.352   0.400  0.1982 -0.9545 -0.0415
  758MOL0     C 2250   0.839   9.653   0.471 -1.1272 -1.5188 -0.0831
  758MOL0     C 2251   0.777   9.603   0.356 -0.2682 -0.5421 -0.0055
  758MOL0     C 2252   0.646   9.645   0.324 -0.0559  0.6381  0.3461
  758MOL0     C 2253   0.569   9.707   0.414  0.3016 -0.2968 -0.0639
  758MOL0     O 2254   0.439   9.725   0.375  1.0955 -0.3314  0.2991
  758MOL0     C 2255   0.343   9.817   0.442  0.0737  0.3579  0.1079
  758MOL0     C 2256   0.204   9.815   0.384 -0.8965  0.0382  0.4374
  758MOL0     C 2257   0.135   9.684   0.429  0.6962 -0.6598 -0.1160
  758MOL0     C 2258  -0.014   9.686   0.385  0.2791 -0.3943 -0.5153
  758MOL0     C 2259  -0.025   9.630   0.250 -0.3491  0.6961 -0.6920
  758MOL0     C 2260  -0.030   9.567   0.145  0.4458  0.2340  0.7249
  758MOL0     C 2261   0.627   9.759   0.529 -1.0704 -0.5894  0.6080
  758MOL0     C 2262   0.759   9.738   0.551 -0.0037  0.5216  0.2073
  758MOL0     H 2263   1.267   9.659   0.530 -4.4035 -0.7911  0.6228
  758MOL0     H 2264   1.488   9.570   0.526  1.3430 -2.3804  2.3611
  758MOL0     H 2265   1.683   9.491   0.475 -2.0972  0.0610 -0.2081
  758MOL0     H 2266   1.658   9.410   0.627 -1.7390  5.4371 -0.4842
  758MOL0     H 2267   1.827   9.246   0.576 -2.8124 -2.6545 -0.0323
  758MOL0     H 2268   1.787   9.258   0.408 -0.1110  2.5101  0.2795
  758MOL0     H 2269   1.925   9.458   0.388  1.3201 -0.3210 -1.1180
  758MOL0     H 2270   1.944   9.481   0.559 -0.6650 -0.1496  0.2765
  758MOL0     H 2271   2.069   9.255   0.570  2.2353  1.8414  0.6826
  758MOL0     H 2272   2.066   9.253   0.396  2.4693 -0.5450  0.1118
  758MOL0     H 2273   2.164   9.502   0.437 -0.6392  0.0810  0.2133
  758MOL0     H 2274   2.214   9.429   0.588 -0.5269 -1.4434 -0.0453
  758MOL0     H 2275   2.262   9.348   0.310 -2.1581  0.0598  0.8449
  758MOL0     H 2276   2.374   9.424   0.412 -0.6963  0.1765  0.5252
  758MOL0     H 2277   2.309   9.185   0.556 -1.0458 -2.2059 -0.4391
  758MOL0     H 2278   2.257   9.142   0.411 -1.5819  0.3583  0.7758
  758MOL0     H 2279   2.551   9.214   0.490  1.1613  1.0621 -1.2521
  758MOL0     H 2280   2.509   9.208   0.318  1.3402 -0.9178  0.4598
  758MOL0     H 2281   2.378   8.948   0.261 -0.4743  1.0356  1.5527
  758MOL0     H 2282   2.498   8.609   0.421 -1.1622 -1.4412  0.1192
  758MOL0     H 2283   2.355   8.658   0.334 -0.6796 -0.1655  1.3492
  758MOL0     H 2284   2.610   8.717   0.178  0.5802 -0.9758  0.0637
  758MOL0     H 2285   2.454   8.666   0.126  2.8036  1.0383 -2.0925
  758MOL0     H 2286   2.482   8.432   0.215  0.7515 -2.4052 -1.6607
  758MOL0     H 2287   2.646   8.471   0.249 -0.2978  3.5232  0.8992
  758MOL0     H 2288   2.574   8.552  -0.016  0.8873 -1.1499 -2.6301
  758MOL0     H 2289   2.544   8.377   0.006 -1.0222  0.4768  0.3636
  758MOL0     H 2290   2.933   8.540   0.155  1.2663  1.2501  1.3530
  758MOL0     H 2291   3.122   8.848   0.137  0.4808  0.7840 -1.1369
  758MOL0     H 2292   3.079   8.693   0.222  0.0548 -2.9398 -1.1463
  758MOL0     H 2293   3.202   8.701   0.085  1.6092  2.2805  1.6241
  758MOL0     H 2294   3.253   8.977  -0.294 -0.8832 -1.7435 -1.0314
  758MOL0     H 2295   3.359   9.183  -0.365 -1.0017  1.9303  2.5081
  758MOL0     H 2296   3.175   9.498  -0.536 -1.5965  1.0225  0.6448
  758MOL0     H 2297   3.108   9.543  -0.380 -1.7407 -3.3481 -0.3657
  758MOL0     H 2298   3.363   9.622  -0.519  0.4091 -1.9619 -0.9435
  758MOL0     H 2299   3.225   9.723  -0.493 -0.2828 -0.9981  0.1767
  758MOL0     H 2300   3.384   9.804  -0.305  2.2682 -0.2238 -3.5546
  758MOL0     H 2301   3.428   9.633  -0.280 -0.5622  1.0026  3.0386
  758MOL0     H 2302   3.150   9.751  -0.220 -1.3801 -2.1819 -1.1817
  758MOL0     H 2303   3.197   9.590  -0.181 -0.3777 -0.5089 -1.3007
  758MOL0     H 2304   3.319   9.846  -0.076 -3.9558  1.7410 -2.0275
  758MOL0     H 2305   3.346   9.682  -0.002  1.0201 -0.4542 -1.9480
  758MOL0     H 2306   3.064   9.813  -0.004 -2.3441  0.0519  2.5019
  758MOL0     H 2307   3.134   9.682   0.086  0.3243 -0.0983  0.3681
  758MOL0     H 2308   3.238   9.971   0.092  0.5915  0.5096 -0.2698
  758MOL0     H 2309   3.301   9.822   0.182  0.0843 -0.1298 -0.3582
  758MOL0     H 2310   3.182   9.955   0.342 -1.0827  1.4639  0.8555
  758MOL0     H 2311   3.092   9.808   0.310  0.9664  1.0971  3.1403
  758MOL0     H 2312   3.007   9.392  -0.318  2.1085  1.3419 -0.9827
  758MOL0     H 2313   2.878   9.195  -0.275 -0.2147  1.2180  1.5634
  758MOL0     H 2314   2.849   8.763  -0.280 -0.5141  2.2147  1.1762
  758MOL0     H 2315   2.718   8.574  -0.218 -0.6311  0.8684  0.5089
  758MOL0     H 2316   1.358   9.195   0.390  0.5957 -0.9442  3.9142
  758MOL0     H 2317   1.116   9.293   0.374 -0.0581 -0.3055 -0.6982
  758MOL0     H 2318   0.835   9.540   0.289 -2.0468 -1.2396 -0.9567
  758MOL0     H 2319   0.603   9.629   0.226  0.6467  3.8027 -0.5687
  758MOL0     H 2320   0.345   9.805   0.551  2.5070  1.4674  0.2494
  758MOL0     H 2321   0.380   9.920   0.434  0.1377  0.4346  1.2264
  758MOL0     H 2322   0.199   9.819   0.275 -3.2731 -2.3028  0.3667
  758MOL0     H 2323   0.148   9.901   0.422 -2.7642 -1.6680  1.7311
  758MOL0     H 2324   0.130   9.665   0.537  1.4607  0.5029  0.1455
  758MOL0     H 2325   0.191   9.600   0.387  3.3914  1.4060 -0.9451
  758MOL0     H 2326  -0.049   9.789   0.380 -2.2834 -1.2106 -1.2185
  758MOL0     H 2327  -0.074   9.622   0.451 -0.3223 -1.1906 -1.7813
  758MOL0     H 2328  -0.032   9.500   0.062 -4.9066 -1.9054  2.1242
  758MOL0     H 2329   0.572   9.825   0.596  1.9080  1.9734  0.7623
  758MOL0     H 2330   0.797   9.785   0.642 -2.0213  1.1625  0.7711
  759MOL0     O 2331  10.873   3.193   0.362  0.1083  1.1925 -1.0159
  759MOL0     C 2332  10.878   3.310   0.345 -0.1107 -0.3023 -0.1435
  759MOL0     O 2333  10.814   3.376   0.248 -0.4422 -0.4630  0.7093
  759MOL0     C 2334  10.700   3.323   0.190 -0.8729  0.4449 -0.6641
  759MOL0     C 2335  10.624   3.215   0.240  0.2164  0.3939  0.5521
  759MOL0     C 2336  10.517   3.161   0.170 -0.1151  0.4104 -0.2764
  759MOL0     C 2337  10.488   3.220   0.046  0.0057  0.3304 -0.0976
  759MOL0     O 2338  10.388   3.149  -0.017  0.2000 -0.8419 -0.3483
  759MOL0     C 2339  10.313   3.222  -0.110 -0.3265 -0.1835 -0.0911
  759MOL0     C 2340  10.175   3.169  -0.133  0.3753 -0.9331  0.5266
  759MOL0     C 2341  10.079   3.253  -0.224  0.6882 -0.0567  0.5510
  759MOL0     C 2342  10.076   3.412  -0.210 -0.1610 -0.5224 -0.1916
  759MOL0     C 2343   9.981   3.475  -0.313  1.1991 -0.2089 -0.3005
  759MOL0     C 2344   9.987   3.626  -0.288  0.7692 -0.4722  0.1254
  759MOL0     C 2345   9.897   3.698  -0.389  0.3700  0.2731 -0.8211
  759MOL0     C 2346   9.917   3.839  -0.365  0.4233 -0.8515  0.2466
  759MOL0     N 2347   9.815   3.912  -0.430  0.2013 -0.5305  0.0411
  759MOL0     C 2348   9.785   3.925  -0.561 -0.4497  0.5840  0.8270
  759MOL0     C 2349   9.681   4.012  -0.581  0.8500 -0.1124 -0.2065
  759MOL0     C 2350   9.610   4.059  -0.699  0.3649  0.2736  0.9641
  759MOL0     C 2351   9.557   3.956  -0.810 -0.8392 -0.5725  0.8151
  759MOL0     C 2352   9.469   4.025  -0.914  0.0340 -0.1532  0.1163
  759MOL0     C 2353   9.385   3.928  -1.001  0.2973  0.3726 -0.5675
  759MOL0     O 2354   9.295   3.978  -1.101  0.0752  0.5161 -0.1374
  759MOL0     C 2355   9.175   3.921  -1.114  0.3904 -0.9509  0.1529
  759MOL0     C 2356   9.156   3.784  -1.109 -0.5308  0.1305  0.4120
  759MOL0     C 2357   9.019   3.726  -1.113  0.1549 -0.0347  0.5428
  759MOL0     C 2358   9.014   3.570  -1.119  1.0932  0.1672 -0.2508
  759MOL0     C 2359   8.911   3.821  -1.111  0.6211  0.5223  0.2671
  759MOL0     C 2360   8.772   3.771  -1.118 -0.5858  0.6551  0.8381
  759MOL0     O 2361   8.740   3.683  -1.023 -0.0964  0.3540 -0.0159
  759MOL0     C 2362   8.630   3.613  -1.038  0.0521  0.5257  0.2230
  759MOL0     C 2363   8.526   3.625  -0.947  0.6797  0.3214  1.0381
  759MOL0     C 2364   8.414   3.544  -0.954 -0.0222  0.1398  0.9329
  759MOL0     C 2365   8.406   3.440  -1.041 -0.0404 -0.4387  0.8934
  759MOL0     O 2366   8.289   3.376  -1.045  0.6907 -0.5290  0.8772
  759MOL0     C 2367   8.215   3.333  -1.160 -0.5883 -0.1041 -0.0975
  759MOL0     C 2368   8.158   3.450  -1.255  1.0806  0.2743 -0.1912
  759MOL0     C 2369   8.067   3.543  -1.168  0.4733 -0.3645  0.5548
  759MOL0     C 2370   8.018   3.671  -1.236  0.4985 -0.3804  0.0562
  759MOL0     C 2371   7.872   3.707  -1.193  0.2369 -0.2099  0.6498
  759MOL0     C 2372   7.778   3.594  -1.232 -0.7732  0.1157 -0.0992
  759MOL0     C 2373   7.634   3.635  -1.265  0.1313  0.1113  0.4567
  759MOL0     C 2374   7.545   3.532  -1.310 -0.3913 -0.3224  0.1688
  759MOL0    Cl 2375   7.400   3.609  -1.384 -0.2950 -0.1731  0.0959
  759MOL0     C 2376   8.510   3.416  -1.124 -0.6131 -0.2393 -0.0067
  759MOL0     C 2377   8.621   3.501  -1.125 -0.3363  0.7342  0.4063
  759MOL0     O 2378   8.705   3.802  -1.213  0.1755  0.3789 -0.1256
  759MOL0     C 2379   8.929   3.954  -1.125  0.1737  0.9160 -0.4519
  759MOL0     C 2380   9.057   4.002  -1.128  0.1193 -0.4417 -0.0675
  759MOL0     N 2381   9.640   4.058  -0.457 -0.3413  0.8756 -0.6999
  759MOL0     N 2382   9.731   4.007  -0.370 -0.0087  0.7969 -0.5179
  759MOL0     C 2383  10.564   3.324  -0.016  0.2626  0.3991 -0.0082
  759MOL0     C 2384  10.670   3.366   0.060 -0.8756  0.5028 -0.3823
  759MOL0     C 2385  10.965   3.389   0.430 -0.6165 -0.1198 -0.6189
  759MOL0     C 2386  11.033   3.503   0.379 -0.1442  0.1306 -0.6986
  759MOL0     C 2387  11.125   3.558   0.460  0.1630  1.2892 -0.1734
  759MOL0     C 2388  11.136   3.521   0.608  0.3621 -1.5064 -0.0191
  759MOL0     O 2389  11.211   3.584   0.707 -0.7580  0.2718  0.0496
  759MOL0     C 2390  11.322   3.666   0.669 -0.0174 -0.6576  0.5156
  759MOL0     C 2391  11.409   3.663   0.789 -1.0279 -0.0369 -0.7524
  759MOL0     C 2392  11.546   3.746   0.778  0.9016  0.7837 -1.1094
  759MOL0     C 2393  11.636   3.710   0.662 -0.5981 -0.4537 -0.4252
  759MOL0     C 2394  11.740   3.824   0.659 -0.9322  1.4453  0.2720
  759MOL0     C 2395  11.821   3.912   0.671 -0.0407 -0.1658  0.2912
  759MOL0     C 2396  11.055   3.422   0.663  0.5845 -0.0586  1.1660
  759MOL0     C 2397  10.970   3.356   0.573 -0.4850 -0.0146 -0.0913
  759MOL0     H 2398  10.633   3.193   0.346 -2.9133 -0.0811  0.8048
  759MOL0     H 2399  10.457   3.092   0.228  1.7984 -1.1456 -0.0776
  759MOL0     H 2400  10.310   3.329  -0.088  3.6827  0.3197 -1.2846
  759MOL0     H 2401  10.366   3.225  -0.205 -0.3092  1.3104 -0.0456
  759MOL0     H 2402  10.178   3.069  -0.177 -1.9631 -1.1554  0.7192
  759MOL0     H 2403  10.126   3.157  -0.035 -3.7671  0.8315 -1.0716
  759MOL0     H 2404  10.101   3.228  -0.328 -0.9289 -2.6043  0.7473
  759MOL0     H 2405   9.972   3.232  -0.216 -0.5986  4.4164 -1.8854
  759MOL0     H 2406  10.055   3.453  -0.111 -2.1961  1.3568 -1.3271
  759MOL0     H 2407  10.174   3.455  -0.236  0.2897 -1.5177 -0.2174
  759MOL0     H 2408  10.025   3.452  -0.410  2.4294 -0.4002  0.2895
  759MOL0     H 2409   9.879   3.435  -0.309  1.4081 -0.7700  3.8153
  759MOL0     H 2410   9.939   3.642  -0.191  0.1573 -3.5381  0.4228
  759MOL0     H 2411  10.093   3.654  -0.283  1.1259 -1.6889 -0.3297
  759MOL0     H 2412   9.927   3.677  -0.492  2.3519  1.8961 -0.6262
  759MOL0     H 2413   9.792   3.673  -0.373  0.0153  2.1748  0.1362
  759MOL0     H 2414  10.011   3.867  -0.414  0.3617  0.0370  0.6231
  759MOL0     H 2415   9.900   3.862  -0.260 -2.5090  0.1711 -0.3611
  759MOL0     H 2416   9.838   3.877  -0.643  2.1319  1.5555  1.8332
  759MOL0     H 2417   9.523   4.122  -0.676 -0.2671 -0.5945  0.9860
  759MOL0     H 2418   9.683   4.121  -0.752  1.8116 -2.8373 -0.9439
  759MOL0     H 2419   9.506   3.868  -0.770  1.2436 -2.5165 -0.5850
  759MOL0     H 2420   9.641   3.914  -0.865 -1.7175 -0.2845 -0.8228
  759MOL0     H 2421   9.534   4.081  -0.983 -0.8589  0.6019 -0.1484
  759MOL0     H 2422   9.403   4.103  -0.874 -0.2771  0.0307 -0.7153
  759MOL0     H 2423   9.331   3.856  -0.938 -3.0382  0.9529 -2.5494
  759MOL0     H 2424   9.453   3.865  -1.060 -2.5083 -2.7211 -0.7927
  759MOL0     H 2425   9.246   3.723  -1.106  1.4452  2.7812 -1.0985
  759MOL0     H 2426   9.093   3.526  -1.182 -0.7746  1.0464 -3.4471
  759MOL0     H 2427   9.016   3.532  -1.017 -3.3273  0.5836  0.1771
  759MOL0     H 2428   8.915   3.539  -1.153 -0.7036  4.4771  0.4518
  759MOL0     H 2429   8.514   3.702  -0.871 -1.0909 -0.4796  1.6361
  759MOL0     H 2430   8.338   3.559  -0.878  0.3862  0.2964  1.3106
  759MOL0     H 2431   8.277   3.269  -1.224  3.0733  2.2089  0.8706
  759MOL0     H 2432   8.132   3.269  -1.127 -2.2092 -0.6445 -4.5470
  759MOL0     H 2433   8.248   3.499  -1.294  3.1767 -2.8119  0.3755
  759MOL0     H 2434   8.097   3.407  -1.335 -1.7743  1.0598  1.4366
  759MOL0     H 2435   8.112   3.588  -1.078  2.4903 -1.4110  0.1293
  759MOL0     H 2436   7.984   3.489  -1.122 -0.0426 -0.3916 -0.3949
  759MOL0     H 2437   8.089   3.751  -1.212 -0.2304  0.9550 -1.9908
  759MOL0     H 2438   8.031   3.667  -1.345  1.4444 -0.9248  0.1776
  759MOL0     H 2439   7.832   3.795  -1.245 -0.3075  0.3056  1.9051
  759MOL0     H 2440   7.861   3.725  -1.086  1.9017  1.5794  0.5811
  759MOL0     H 2441   7.814   3.536  -1.318 -2.5518 -2.5783  0.8272
  759MOL0     H 2442   7.770   3.523  -1.150 -3.3802 -1.2786 -1.4223
  759MOL0     H 2443   7.643   3.715  -1.339 -2.4907  0.6880  0.6748
  759MOL0     H 2444   7.588   3.685  -1.180  2.5241  1.1024  1.2671
  759MOL0     H 2445   7.521   3.487  -1.213  0.3378 -0.0599  0.4775
  759MOL0     H 2446   7.591   3.450  -1.367  0.7909  1.5929 -1.7810
  759MOL0     H 2447   8.509   3.335  -1.196 -1.1087  0.1303 -0.4141
  759MOL0     H 2448   8.693   3.475  -1.202 -2.0822  2.3369 -1.9382
  759MOL0     H 2449   8.840   4.017  -1.121 -0.5849 -0.2117  2.3033
  759MOL0     H 2450   9.070   4.108  -1.150  0.7420 -0.7608 -1.2932
  759MOL0     H 2451  10.538   3.343  -0.119  3.1395 -1.8389 -1.3064
  759MOL0     H 2452  10.735   3.446   0.027 -1.7372  1.0622 -0.7795
  759MOL0     H 2453  11.019   3.531   0.275  0.3870  1.2813 -0.4704
  759MOL0     H 2454  11.189   3.631   0.413  1.1752 -0.1196 -1.0466
  759MOL0     H 2455  11.377   3.625   0.584 -0.7849 -1.6402  0.4733
  759MOL0     H 2456  11.271   3.759   0.643  1.6538  0.7174  1.9194
  759MOL0     H 2457  11.449   3.564   0.813 -1.1443  0.1363  0.1907
  759MOL0     H 2458  11.355   3.678   0.883 -0.7744 -2.7315 -0.0974
  759MOL0     H 2459  11.612   3.732   0.865  0.1576 -0.4211 -0.7248
  759MOL0     H 2460  11.530   3.854   0.769  1.3047  0.7766 -1.9680
  759MOL0     H 2461  11.582   3.718   0.567 -0.1847  3.4084 -0.4917
  759MOL0     H 2462  11.682   3.611   0.668 -2.1231 -1.7461 -5.1730
  759MOL0     H 2463  11.901   3.972   0.708  2.4459 -2.1823 -1.4822
  759MOL0     H 2464  11.053   3.393   0.767 -0.6651  1.5065  1.6069
  759MOL0     H 2465  10.915   3.271   0.613 -0.8854  1.6469  3.2771
  760MOL0     O 2466   8.058   8.149   0.553 -1.1150 -0.0212 -0.7568
  760MOL0     C 2467   8.012   8.257   0.592  0.1253 -0.7737 -0.1334
  760MOL0     O 2468   8.028   8.310   0.720 -0.2388  1.2734  0.7266
  760MOL0     C 2469   8.113   8.244   0.795  0.0344 -0.5717  1.1941
  760MOL0     C 2470   8.105   8.113   0.837  0.4154 -1.3819 -0.7197
  760MOL0     C 2471   8.206   8.057   0.917  0.5656 -0.1951 -0.4735
  760MOL0     C 2472   8.310   8.131   0.967 -0.2298  0.8342  0.4134
  760MOL0     O 2473   8.414   8.085   1.048  0.0154 -0.1941  0.5790
  760MOL0     C 2474   8.467   7.953   0.996 -0.2397  0.3970  0.3439
  760MOL0     C 2475   8.573   7.899   1.089  0.0239  0.4479  0.0034
  760MOL0     C 2476   8.693   7.999   1.100  0.9052  0.1412  0.7114
  760MOL0     C 2477   8.825   7.962   1.020  0.4143  0.4275  0.8610
  760MOL0     C 2478   8.901   7.828   1.062  0.2029  0.7548  1.0183
  760MOL0     C 2479   8.956   7.829   1.207  0.5374  0.5229  0.1268
  760MOL0     C 2480   9.045   7.706   1.241 -0.3545  0.0306 -1.4313
  760MOL0     C 2481   9.067   7.686   1.397  0.3857  0.2556 -1.0510
  760MOL0     N 2482   9.171   7.582   1.421  1.1630 -0.5037 -0.1650
  760MOL0     C 2483   9.303   7.580   1.378 -0.0723 -0.4151 -0.1538
  760MOL0     C 2484   9.362   7.469   1.437 -0.2806  0.6279  0.1883
  760MOL0     C 2485   9.506   7.410   1.404  0.4111  0.5732  0.7054
  760MOL0     C 2486   9.503   7.323   1.282  0.7787  0.0187 -0.3784
  760MOL0     C 2487   9.459   7.180   1.312 -0.2670  0.3500  0.0873
  760MOL0     C 2488   9.463   7.095   1.175  0.4996 -0.2685 -0.0539
  760MOL0     O 2489   9.442   6.959   1.214  0.3159 -0.4476 -0.1438
  760MOL0     C 2490   9.395   6.870   1.118 -0.1300 -0.4041 -0.2329
  760MOL0     C 2491   9.280   6.893   1.036 -0.1973  0.1765  0.5801
  760MOL0     C 2492   9.231   6.791   0.946 -0.4364  0.4569 -0.1869
  760MOL0     C 2493   9.106   6.822   0.868  1.0456 -1.0208 -0.7306
  760MOL0     C 2494   9.294   6.665   0.946 -0.4389  0.4712 -0.2903
  760MOL0     C 2495   9.236   6.540   0.882  1.6610  0.5859 -0.4028
  760MOL0     O 2496   9.328   6.433   0.885  0.2916  0.1794 -0.2716
  760MOL0     C 2497   9.270   6.309   0.866 -0.7085 -0.5151 -0.6830
  760MOL0     C 2498   9.237   6.231   0.974  0.2270  0.5313  0.4358
  760MOL0     C 2499   9.173   6.105   0.952 -0.0598 -0.8281  0.5525
  760MOL0     C 2500   9.161   6.066   0.817  0.8720  0.3320  0.5150
  760MOL0     O 2501   9.103   5.941   0.805 -0.0246  0.2489  0.1783
  760MOL0     C 2502   9.060   5.876   0.679  0.2373 -0.6546  0.7332
  760MOL0     C 2503   9.074   5.716   0.669 -0.4209  0.2891  0.1497
  760MOL0     C 2504   9.023   5.644   0.797  0.7705  0.5763  0.1658
  760MOL0     C 2505   8.952   5.506   0.761  0.3824  0.1369  0.5168
  760MOL0     C 2506   8.875   5.426   0.871  0.1061 -0.5230  0.3686
  760MOL0     C 2507   8.747   5.370   0.808  0.7228 -0.3913 -0.4100
  760MOL0     C 2508   8.669   5.283   0.903  0.8608  0.1446 -0.2499
  760MOL0     C 2509   8.711   5.147   0.891 -0.5492 -0.0666 -0.1634
  760MOL0    Cl 2510   8.639   5.085   0.737  0.0086 -0.4574 -0.1243
  760MOL0     C 2511   9.204   6.149   0.711 -0.3682  0.2544  0.5500
  760MOL0     C 2512   9.250   6.264   0.738  0.4596 -0.2015  0.0910
  760MOL0     O 2513   9.127   6.546   0.821 -0.3593 -0.1087 -0.6466
  760MOL0     C 2514   9.401   6.643   1.035  0.0348 -0.1228  0.3688
  760MOL0     C 2515   9.453   6.744   1.114 -0.1864 -0.3710  0.7210
  760MOL0     N 2516   9.265   7.397   1.500  0.0458 -0.0049 -0.5518
  760MOL0     N 2517   9.155   7.467   1.498 -0.0480 -0.6499  0.3806
  760MOL0     C 2518   8.300   8.270   0.944 -0.2298  0.3379 -0.8649
  760MOL0     C 2519   8.215   8.320   0.848  0.0149 -0.5287  0.0966
  760MOL0     C 2520   7.934   8.335   0.486 -0.0664 -0.1697 -0.7263
  760MOL0     C 2521   7.896   8.468   0.520  0.2693 -0.3242  0.6849
  760MOL0     C 2522   7.817   8.552   0.436 -0.4905 -0.3109 -0.3800
  760MOL0     C 2523   7.793   8.500   0.308  0.2240 -0.2509  1.0785
  760MOL0     O 2524   7.700   8.561   0.226  0.3515  0.8896  0.6883
  760MOL0     C 2525   7.702   8.699   0.181 -0.3998  0.8728  0.1520
  760MOL0     C 2526   7.561   8.761   0.183 -0.1053  0.1915  0.3416
  760MOL0     C 2527   7.524   8.784   0.327  0.3071 -0.1950  0.3132
  760MOL0     C 2528   7.443   8.663   0.389 -0.1379  0.2190 -0.5012
  760MOL0     C 2529   7.311   8.649   0.332  0.7581  0.2259  0.2229
  760MOL0     C 2530   7.196   8.648   0.292 -0.3314  0.1150  0.4671
  760MOL0     C 2531   7.838   8.378   0.270  0.4122  0.2850 -0.4820
  760MOL0     C 2532   7.914   8.296   0.355  0.5407  0.2787  0.2885
  760MOL0     H 2533   8.024   8.054   0.797 -0.6815  0.2910 -1.1050
  760MOL0     H 2534   8.198   7.955   0.953 -2.7273 -0.5553 -1.8806
  760MOL0     H 2535   8.386   7.882   0.977 -2.9022  3.6326 -1.4317
  760MOL0     H 2536   8.524   7.992   0.910 -1.4328  0.8892 -0.2510
  760MOL0     H 2537   8.521   7.884   1.185  0.9873 -1.1364  0.3124
  760MOL0     H 2538   8.616   7.801   1.066  0.9191  0.9752 -0.6175
  760MOL0     H 2539   8.659   8.101   1.084  0.4968  0.1465  1.5834
  760MOL0     H 2540   8.729   7.999   1.203  1.6292  1.2116  0.4776
  760MOL0     H 2541   8.804   7.968   0.913 -1.6753  2.5111  1.3234
  760MOL0     H 2542   8.908   8.033   1.027  2.5197 -1.8426  0.6472
  760MOL0     H 2543   8.830   7.745   1.063  0.8298  0.1934  0.3945
  760MOL0     H 2544   8.973   7.797   0.985 -0.7790  3.7375 -1.3084
  760MOL0     H 2545   9.004   7.926   1.225  2.4493 -0.5534  1.2314
  760MOL0     H 2546   8.871   7.825   1.275  0.7335 -0.0864  0.3387
  760MOL0     H 2547   8.994   7.614   1.211  1.9480 -2.4032  1.4144
  760MOL0     H 2548   9.142   7.718   1.191  0.0618  0.3846 -0.5571
  760MOL0     H 2549   8.973   7.648   1.439  2.9924 -1.1669  4.3506
  760MOL0     H 2550   9.094   7.785   1.435 -0.6620 -0.3119  1.4025
  760MOL0     H 2551   9.357   7.656   1.321  2.1767 -2.2908 -0.7135
  760MOL0     H 2552   9.580   7.491   1.408  0.3478  0.6166  1.0456
  760MOL0     H 2553   9.526   7.340   1.485 -3.1337 -1.1521  0.2695
  760MOL0     H 2554   9.610   7.321   1.257  1.4245  2.1972  1.8647
  760MOL0     H 2555   9.446   7.357   1.195 -3.6177 -0.2946  2.1307
  760MOL0     H 2556   9.356   7.179   1.348 -0.6339 -1.4926 -0.9022
  760MOL0     H 2557   9.533   7.136   1.380  0.8324 -0.7540 -1.7312
  760MOL0     H 2558   9.561   7.101   1.128  1.2286  2.2262  1.5689
  760MOL0     H 2559   9.385   7.132   1.107 -3.1421 -0.4020  3.6201
  760MOL0     H 2560   9.228   6.989   1.036 -1.5873 -0.5413  0.6648
  760MOL0     H 2561   9.100   6.800   0.761 -2.0440 -1.1365 -0.6305
  760MOL0     H 2562   9.041   6.753   0.922  0.0849  1.9046  2.2039
  760MOL0     H 2563   9.071   6.924   0.889  0.2434 -0.9805 -2.1373
  760MOL0     H 2564   9.260   6.257   1.077  2.9725 -1.6842  0.4885
  760MOL0     H 2565   9.157   6.034   1.032 -1.4692 -1.4762 -0.2545
  760MOL0     H 2566   8.953   5.895   0.668  0.8121  2.5783 -0.1162
  760MOL0     H 2567   9.104   5.920   0.589  3.0999 -0.6146  2.0358
  760MOL0     H 2568   9.020   5.667   0.587  0.0861  0.3159 -0.2038
  760MOL0     H 2569   9.180   5.692   0.665 -0.2285  0.7440  1.9047
  760MOL0     H 2570   8.964   5.708   0.864 -0.4515 -1.3260  0.9823
  760MOL0     H 2571   9.111   5.627   0.859  0.1095 -1.2568  0.6556
  760MOL0     H 2572   8.882   5.529   0.680  0.0818  0.8484  0.9718
  760MOL0     H 2573   9.017   5.433   0.710 -2.0261 -2.5779  1.0313
  760MOL0     H 2574   8.845   5.506   0.938  4.0571  2.6859 -1.2712
  760MOL0     H 2575   8.935   5.340   0.902  1.9823  0.1078 -1.2852
  760MOL0     H 2576   8.690   5.457   0.775 -1.9015 -0.4464  3.3669
  760MOL0     H 2577   8.785   5.318   0.720  4.1672  0.5722  0.3284
  760MOL0     H 2578   8.566   5.296   0.869 -0.1467  1.0505  2.8752
  760MOL0     H 2579   8.671   5.321   1.005 -4.3749  1.4182 -0.3259
  760MOL0     H 2580   8.685   5.088   0.979  0.8693  0.2154  0.4508
  760MOL0     H 2581   8.820   5.146   0.898 -0.6501  0.2034  2.4551
  760MOL0     H 2582   9.188   6.109   0.612 -5.6728 -3.2508  2.3759
  760MOL0     H 2583   9.277   6.328   0.655 -2.7975 -0.8127 -1.5747
  760MOL0     H 2584   9.442   6.543   1.041 -2.8566 -1.4223 -0.0458
  760MOL0     H 2585   9.542   6.733   1.177  2.2870  1.4425 -2.1876
  760MOL0     H 2586   8.367   8.344   0.988 -0.1732  0.4457 -1.1293
  760MOL0     H 2587   8.217   8.427   0.828  0.6473 -0.4780  0.3833
  760MOL0     H 2588   7.920   8.504   0.620 -0.0626 -2.6424  1.6736
  760MOL0     H 2589   7.797   8.654   0.466  3.9078  0.1639  1.8076
  760MOL0     H 2590   7.768   8.759   0.244  1.1887 -0.9654  0.3354
  760MOL0     H 2591   7.747   8.677   0.083 -0.6350 -0.8161  0.3900
  760MOL0     H 2592   7.489   8.700   0.129  3.4540 -2.1004 -2.3120
  760MOL0     H 2593   7.565   8.856   0.128  0.9006 -1.5897 -2.9315
  760MOL0     H 2594   7.471   8.879   0.332 -0.9528 -0.8631  0.0401
  760MOL0     H 2595   7.614   8.794   0.388 -0.5376  0.3363  1.4924
  760MOL0     H 2596   7.436   8.666   0.498 -1.3023  2.2853 -0.5937
  760MOL0     H 2597   7.486   8.567   0.358 -0.7046 -0.5401  1.0054
  760MOL0     H 2598   7.096   8.652   0.254  0.3182  1.1855 -1.2805
  760MOL0     H 2599   7.812   8.334   0.174 -1.4003  0.3036 -0.0209
  760MOL0     H 2600   7.948   8.195   0.336  1.3478  0.2973  1.5603
  761MOL0     O 2601   6.086   4.769   2.536  0.3178 -0.3510 -0.5747
  761MOL0     C 2602   6.123   4.734   2.647 -0.2933  0.1829  0.4562
  761MOL0     O 2603   6.064   4.625   2.714 -0.0415 -0.1927 -0.8075
  761MOL0     C 2604   6.086   4.610   2.850  0.2551  0.4770  0.1282
  761MOL0     C 2605   6.133   4.481   2.896  0.1339  1.2548  0.0406
  761MOL0     C 2606   6.152   4.452   3.030 -0.8075  0.2927 -0.2664
  761MOL0     C 2607   6.130   4.553   3.128 -0.4835  0.3759  1.0705
  761MOL0     O 2608   6.141   4.512   3.258 -0.0908  0.3729 -0.1489
  761MOL0     C 2609   6.221   4.597   3.353 -0.5642  0.1503  0.6483
  761MOL0     C 2610   6.256   4.511   3.473  0.3743  0.2354  0.4121
  761MOL0     C 2611   6.128   4.471   3.549  0.5602 -0.1911 -0.0114
  761MOL0     C 2612   6.156   4.365   3.661  0.0930  0.2046 -0.3995
  761MOL0     C 2613   6.181   4.218   3.618  0.9294  0.1640 -0.6363
  761MOL0     C 2614   6.221   4.151   3.742  0.4286 -0.0250 -0.2291
  761MOL0     C 2615   6.264   4.011   3.704  0.4566  0.3137 -0.7322
  761MOL0     C 2616   6.288   3.935   3.833 -0.6167 -0.0624  0.4616
  761MOL0     N 2617   6.319   3.795   3.792 -0.1328  0.4356 -0.1200
  761MOL0     C 2618   6.428   3.730   3.817 -0.0869 -0.2283 -0.6209
  761MOL0     C 2619   6.406   3.599   3.780 -0.4644 -0.2107 -0.3276
  761MOL0     C 2620   6.507   3.490   3.796 -0.8314  0.4366  0.5541
  761MOL0     C 2621   6.509   3.409   3.928  0.2152  0.0715  0.3409
  761MOL0     C 2622   6.374   3.339   3.946  0.1752 -0.6160  1.0192
  761MOL0     C 2623   6.327   3.319   4.088  0.2792  0.2038 -0.2627
  761MOL0     O 2624   6.394   3.214   4.157  0.5234 -0.0873  0.1770
  761MOL0     C 2625   6.369   3.210   4.294  1.2532  1.4443 -0.8141
  761MOL0     C 2626   6.259   3.269   4.365  0.6663 -0.2121  0.3855
  761MOL0     C 2627   6.244   3.250   4.496  0.0745  0.2160  0.3022
  761MOL0     C 2628   6.113   3.286   4.553  0.2877  0.0923 -1.1099
  761MOL0     C 2629   6.351   3.196   4.575  0.0681  0.0767  0.9800
  761MOL0     C 2630   6.356   3.198   4.721 -0.1055 -0.3128  0.3978
  761MOL0     O 2631   6.427   3.095   4.787  0.0675  0.6351 -0.2984
  761MOL0     C 2632   6.448   3.084   4.922  0.4995 -0.7972  0.4589
  761MOL0     C 2633   6.566   3.020   4.962  0.0999  0.9541  0.1325
  761MOL0     C 2634   6.593   2.996   5.102  0.7429 -0.6476 -0.1095
  761MOL0     C 2635   6.501   3.038   5.201 -1.4062 -0.1451  0.9891
  761MOL0     O 2636   6.524   3.006   5.334 -0.1993 -0.5895  0.7792
  761MOL0     C 2637   6.498   3.104   5.435 -0.9601 -0.3418  0.0774
  761MOL0     C 2638   6.506   3.062   5.578 -0.9364  0.2776 -0.2146
  761MOL0     C 2639   6.529   3.171   5.679  0.0084  0.1196 -1.4481
  761MOL0     C 2640   6.393   3.228   5.723  0.9761  0.6493  0.4000
  761MOL0     C 2641   6.407   3.350   5.809  0.9124  0.4027  0.1940
  761MOL0     C 2642   6.415   3.327   5.963 -0.3590 -0.1399  0.2555
  761MOL0     C 2643   6.464   3.464   6.024 -0.0549 -0.3946 -1.0499
  761MOL0     C 2644   6.442   3.476   6.173  0.1786 -0.1327 -0.2972
  761MOL0    Cl 2645   6.270   3.428   6.210 -0.2270 -0.1634 -0.5294
  761MOL0     C 2646   6.387   3.115   5.154  0.5270  0.0230  0.5784
  761MOL0     C 2647   6.359   3.129   5.020  0.5205  0.1485  0.1037
  761MOL0     O 2648   6.298   3.288   4.772  0.0318  1.5169  0.0882
  761MOL0     C 2649   6.459   3.132   4.504 -0.1022 -0.6240 -1.0264
  761MOL0     C 2650   6.467   3.146   4.368  0.2262  0.0876  0.1358
  761MOL0     N 2651   6.288   3.593   3.710 -0.1327 -0.1227 -0.6318
  761MOL0     N 2652   6.234   3.717   3.724 -0.0820 -0.4979  0.1671
  761MOL0     C 2653   6.092   4.678   3.092 -0.8063 -0.0437  2.0379
  761MOL0     C 2654   6.062   4.711   2.954  0.9279  0.5350 -0.1198
  761MOL0     C 2655   6.233   4.818   2.716  0.3349  0.9496 -0.2501
  761MOL0     C 2656   6.214   4.958   2.728  1.0118 -0.1962  0.1353
  761MOL0     C 2657   6.298   5.040   2.794  0.5317  0.1723 -0.0116
  761MOL0     C 2658   6.415   4.994   2.844  0.2461  0.9651 -0.5378
  761MOL0     O 2659   6.503   5.087   2.904  0.7369  0.4766 -0.5081
  761MOL0     C 2660   6.636   5.047   2.944  0.2989 -0.3592  0.8095
  761MOL0     C 2661   6.722   5.159   2.892  0.2959  0.8973  0.9242
  761MOL0     C 2662   6.864   5.157   2.946  1.2578 -0.2153  0.2855
  761MOL0     C 2663   6.855   5.200   3.087  0.5367 -0.2161  0.1407
  761MOL0     C 2664   6.803   5.341   3.104  0.2300  0.5563 -0.3535
  761MOL0     C 2665   6.782   5.463   3.124 -0.2180 -0.0877 -0.3328
  761MOL0     C 2666   6.442   4.851   2.827  0.3235 -0.1794  0.8787
  761MOL0     C 2667   6.357   4.768   2.752  0.5900  0.2727 -0.7001
  761MOL0     H 2668   6.169   4.406   2.826 -0.2930 -0.0244  1.1329
  761MOL0     H 2669   6.196   4.357   3.059  2.3413  1.8860  0.6519
  761MOL0     H 2670   6.318   4.612   3.306 -0.2003 -4.3632 -0.5546
  761MOL0     H 2671   6.167   4.688   3.380 -2.5642 -0.2297 -1.6930
  761MOL0     H 2672   6.319   4.425   3.447  1.0033  1.5208 -2.9037
  761MOL0     H 2673   6.322   4.576   3.531 -1.8717  0.7287  2.5409
  761MOL0     H 2674   6.090   4.565   3.589  1.0604 -0.0589  0.1604
  761MOL0     H 2675   6.053   4.425   3.483  0.1319  0.5614 -0.0503
  761MOL0     H 2676   6.245   4.405   3.709  1.4804 -4.3627  1.3459
  761MOL0     H 2677   6.073   4.366   3.732 -0.2940 -0.1834 -0.8425
  761MOL0     H 2678   6.091   4.172   3.577  0.4055  0.3593  0.2573
  761MOL0     H 2679   6.254   4.218   3.537  1.0667 -1.8881 -0.5537
  761MOL0     H 2680   6.312   4.191   3.788  1.0580 -0.0747 -1.3885
  761MOL0     H 2681   6.136   4.152   3.811 -0.8099 -0.3127 -1.6957
  761MOL0     H 2682   6.179   3.963   3.656 -1.1450  1.3250  0.9798
  761MOL0     H 2683   6.341   4.011   3.626 -0.9979  4.1288 -2.4085
  761MOL0     H 2684   6.215   3.937   3.914 -3.1902  0.0546 -1.7337
  761MOL0     H 2685   6.385   3.968   3.873  0.5737 -1.9983 -0.6836
  761MOL0     H 2686   6.516   3.759   3.873 -0.5070  0.7610 -0.4476
  761MOL0     H 2687   6.503   3.418   3.714  0.1102  2.2046 -1.1026
  761MOL0     H 2688   6.604   3.539   3.787 -1.4251  1.3823 -1.1520
  761MOL0     H 2689   6.526   3.481   4.008 -2.1736  1.0530  0.0339
  761MOL0     H 2690   6.601   3.350   3.928  0.9096  1.1422 -0.0919
  761MOL0     H 2691   6.382   3.248   3.886  2.3575 -0.2912  0.7513
  761MOL0     H 2692   6.295   3.399   3.899  0.8839 -0.6695 -0.2782
  761MOL0     H 2693   6.224   3.293   4.062 -0.4162  2.0691  0.5381
  761MOL0     H 2694   6.332   3.410   4.148  2.1005  0.6325 -0.9856
  761MOL0     H 2695   6.178   3.303   4.302 -1.8607 -0.6419  3.1957
  761MOL0     H 2696   6.090   3.205   4.623 -0.4995  0.1793 -1.2651
  761MOL0     H 2697   6.105   3.387   4.594 -4.6098  0.2162 -1.7860
  761MOL0     H 2698   6.026   3.287   4.487 -0.8409  1.5844  0.3306
  761MOL0     H 2699   6.636   2.981   4.889 -2.0591 -0.9412 -1.0314
  761MOL0     H 2700   6.683   2.946   5.138  0.2922 -0.4603  1.3548
  761MOL0     H 2701   6.564   3.191   5.425 -1.5092  0.2010  1.1482
  761MOL0     H 2702   6.399   3.146   5.418 -1.3936 -0.6700  1.6977
  761MOL0     H 2703   6.419   3.000   5.599 -0.2702 -1.0363 -1.2412
  761MOL0     H 2704   6.596   3.002   5.593 -0.9025  0.5371  0.7073
  761MOL0     H 2705   6.586   3.249   5.627 -1.8029  1.7631 -1.0423
  761MOL0     H 2706   6.585   3.133   5.765 -3.5314 -1.0421  0.5111
  761MOL0     H 2707   6.336   3.248   5.632  0.8601 -1.3515 -0.0183
  761MOL0     H 2708   6.341   3.147   5.774 -3.3520  1.6816 -1.9424
  761MOL0     H 2709   6.322   3.415   5.785  1.3881  0.4067 -1.6009
  761MOL0     H 2710   6.497   3.407   5.783 -0.1125  1.6461 -0.7857
  761MOL0     H 2711   6.309   3.325   5.990 -0.2476  0.8849  0.8253
  761MOL0     H 2712   6.479   3.240   5.977 -0.3391 -0.4107 -1.3235
  761MOL0     H 2713   6.410   3.543   5.971 -0.5752  0.4386  0.6384
  761MOL0     H 2714   6.570   3.486   6.010 -0.5480  3.0416 -0.2885
  761MOL0     H 2715   6.472   3.577   6.202  0.8409 -0.1634 -0.8525
  761MOL0     H 2716   6.502   3.404   6.229  0.8682  0.1411 -0.6752
  761MOL0     H 2717   6.307   3.146   5.219  0.5744  3.7774 -0.8739
  761MOL0     H 2718   6.258   3.161   5.000 -1.2308 -3.0163  2.8580
  761MOL0     H 2719   6.532   3.068   4.554  1.4328 -0.7141 -3.2095
  761MOL0     H 2720   6.543   3.093   4.311  0.3212  1.0102 -0.6102
  761MOL0     H 2721   6.068   4.754   3.165  2.0150  1.0955  1.8883
  761MOL0     H 2722   6.026   4.809   2.924  2.7305  0.9529 -1.0769
  761MOL0     H 2723   6.125   5.010   2.694 -2.2010 -2.3917  4.2373
  761MOL0     H 2724   6.262   5.141   2.805 -3.3613 -1.1429  0.9563
  761MOL0     H 2725   6.641   5.020   3.050 -3.6200 -1.2710  0.8992
  761MOL0     H 2726   6.670   4.954   2.899 -1.6214  0.3391 -2.3548
  761MOL0     H 2727   6.672   5.254   2.914 -1.2523  0.0692  1.1478
  761MOL0     H 2728   6.731   5.149   2.784 -2.6307 -4.0173  0.8585
  761MOL0     H 2729   6.924   5.232   2.893 -0.4444 -1.2380 -3.4173
  761MOL0     H 2730   6.910   5.057   2.948 -0.4105 -1.0060  0.5288
  761MOL0     H 2731   6.953   5.195   3.136 -0.7361 -3.0141  2.7485
  761MOL0     H 2732   6.797   5.123   3.139  0.6059 -0.8060 -0.6250
  761MOL0     H 2733   6.762   5.567   3.142  3.0321  0.6285 -0.3666
  761MOL0     H 2734   6.521   4.796   2.876 -0.0953 -1.0298  0.6237
  761MOL0     H 2735   6.362   4.659   2.754 -0.6391  0.1491  2.4408
  762MOL0     O 2736   2.701   0.134   8.153 -0.0730  0.2798  0.3503
  762MOL0     C 2737   2.646   0.107   8.260 -0.7205  1.3056 -0.3204
  762MOL0     O 2738   2.703   0.126   8.390  0.3012 -0.3960  0.6435
  762MOL0     C 2739   2.834   0.155   8.396 -0.1314  0.5064 -0.4768
  762MOL0     C 2740   2.917   0.054   8.452 -0.2876  0.4881 -0.1581
  762MOL0     C 2741   3.055   0.073   8.461 -0.0579 -0.8410  0.0952
  762MOL0     C 2742   3.108   0.193   8.429 -0.2127 -0.7053  1.1511
  762MOL0     O 2743   3.237   0.200   8.451 -0.4858  0.1579 -0.6904
  762MOL0     C 2744   3.301   0.266   8.341 -0.7556 -0.4395 -0.4221
  762MOL0     C 2745   3.429   0.185   8.307  0.7147  0.5228 -0.2545
  762MOL0     C 2746   3.544   0.247   8.387  0.1338  0.6337  0.6907
  762MOL0     C 2747   3.658   0.146   8.385  0.2653  0.4158  0.5494
  762MOL0     C 2748   3.798   0.202   8.430  0.5533 -1.2229 -0.4820
  762MOL0     C 2749   3.798   0.266   8.575  0.0207 -0.1492  0.9358
  762MOL0     C 2750   3.943   0.293   8.622 -0.3916  0.6607  0.0725
  762MOL0     C 2751   3.946   0.359   8.765 -0.1615 -0.0826 -0.1402
  762MOL0     N 2752   4.037   0.297   8.867 -0.8034  0.5665 -0.4902
  762MOL0     C 2753   4.169   0.264   8.850 -0.2220 -0.1174 -0.4296
  762MOL0     C 2754   4.198   0.203   8.965 -0.5682 -0.4280 -0.7411
  762MOL0     C 2755   4.338   0.148   9.001 -0.5408  0.0583  0.5008
  762MOL0     C 2756   4.428   0.257   9.056  0.3381 -0.5124 -0.1585
  762MOL0     C 2757   4.570   0.210   9.074 -0.5708  0.6894  1.0790
  762MOL0     C 2758   4.682   0.266   8.976  0.6525  1.0658  0.0024
  762MOL0     O 2759   4.638   0.222   8.848 -0.5807 -1.0613 -0.2380
  762MOL0     C 2760   4.701   0.267   8.732  0.4127 -0.2703  0.2226
  762MOL0     C 2761   4.821   0.341   8.721  1.4289 -0.0778  0.7948
  762MOL0     C 2762   4.883   0.377   8.607  0.2212 -0.0594  0.2036
  762MOL0     C 2763   5.022   0.439   8.611  0.1000  0.5012 -0.0124
  762MOL0     C 2764   4.801   0.376   8.490  0.0419  0.5611  0.0396
  762MOL0     C 2765   4.829   0.428   8.355 -0.9562 -0.0573 -0.1361
  762MOL0     O 2766   4.743   0.398   8.261 -0.0248  0.3831  0.0098
  762MOL0     C 2767   4.739   0.479   8.146  0.1536  0.0417 -1.4384
  762MOL0     C 2768   4.617   0.548   8.130 -0.1930 -0.7438  0.5690
  762MOL0     C 2769   4.599   0.620   8.011  0.3967  0.0122  0.0350
  762MOL0     C 2770   4.688   0.620   7.905  0.1246  0.0866 -0.0275
  762MOL0     O 2771   4.652   0.668   7.784 -0.6196  0.2480  0.2684
  762MOL0     C 2772   4.754   0.689   7.684  0.5673  0.8481 -0.3163
  762MOL0     C 2773   4.679   0.758   7.575  0.3997 -0.4396 -0.3157
  762MOL0     C 2774   4.768   0.775   7.450 -0.5678 -0.4060 -0.6411
  762MOL0     C 2775   4.691   0.782   7.323 -0.1821  0.7768 -0.3005
  762MOL0     C 2776   4.784   0.797   7.204  0.0380  1.5830 -0.6177
  762MOL0     C 2777   4.879   0.682   7.174  0.5967  0.1503  0.7981
  762MOL0     C 2778   4.815   0.546   7.137  0.4946  0.1253 -0.4527
  762MOL0     C 2779   4.686   0.549   7.050 -0.7230  1.4004 -0.7841
  762MOL0    Cl 2780   4.718   0.617   6.897  0.0369 -0.2667 -0.0489
  762MOL0     C 2781   4.807   0.555   7.929  0.6320  0.0964 -0.4094
  762MOL0     C 2782   4.831   0.480   8.044  0.3688  0.4514 -0.5007
  762MOL0     O 2783   4.927   0.504   8.342 -0.0672 -0.2931 -0.1839
  762MOL0     C 2784   4.678   0.309   8.492  0.8079 -0.2161 -0.1171
  762MOL0     C 2785   4.637   0.246   8.611 -0.1987  0.5680 -0.1581
  762MOL0     N 2786   4.091   0.188   9.044  0.4185  0.2449 -0.2973
  762MOL0     N 2787   3.988   0.234   8.980 -0.7895 -1.0520  0.3341
  762MOL0     C 2788   3.023   0.296   8.372  0.0704  0.7302  0.4336
  762MOL0     C 2789   2.888   0.274   8.353  0.8109 -0.4334  0.0610
  762MOL0     C 2790   2.512   0.042   8.258 -0.5308 -0.3596 -0.0225
  762MOL0     C 2791   2.449   0.031   8.137  0.2162 -0.5425  0.2129
  762MOL0     C 2792   2.311  -0.003   8.119  0.6949  0.3772  0.0919
  762MOL0     C 2793   2.250  -0.060   8.235 -0.2968  0.3824  0.8072
  762MOL0     O 2794   2.123  -0.102   8.247  0.4366  0.2661  0.4012
  762MOL0     C 2795   2.052  -0.153   8.130 -0.2416  0.2278 -0.1525
  762MOL0     C 2796   2.085  -0.305   8.141 -0.1067 -0.0413  0.2238
  762MOL0     C 2797   1.989  -0.395   8.069 -0.3034  0.6105 -0.2011
  762MOL0     C 2798   2.049  -0.538   8.068 -0.4024 -0.0281 -0.0694
  762MOL0     C 2799   2.162  -0.548   7.976  0.5918 -0.6555  0.3398
  762MOL0     C 2800   2.259  -0.577   7.922 -0.8017 -0.2342  0.0662
  762MOL0     C 2801   2.316  -0.047   8.360 -0.2380  0.5264 -0.4446
  762MOL0     C 2802   2.447  -0.003   8.376  0.0073 -1.1920 -0.0245
  762MOL0     H 2803   2.874  -0.041   8.484 -1.0348  0.9494  0.2162
  762MOL0     H 2804   3.115  -0.004   8.508  0.2037 -0.5860  0.1847
  762MOL0     H 2805   3.244   0.259   8.248 -1.8164 -3.3277  0.3348
  762MOL0     H 2806   3.326   0.371   8.362 -0.2157  0.0759 -3.2355
  762MOL0     H 2807   3.416   0.078   8.325 -4.1037  0.4307 -2.6156
  762MOL0     H 2808   3.448   0.201   8.201  0.4138 -0.7192 -0.5058
  762MOL0     H 2809   3.581   0.337   8.339 -3.0173  0.8774 -1.6036
  762MOL0     H 2810   3.506   0.273   8.486 -2.3343 -0.5208  0.1370
  762MOL0     H 2811   3.637   0.071   8.461  2.6668 -0.6507  0.2523
  762MOL0     H 2812   3.669   0.100   8.287  1.2972  0.2340  0.7429
  762MOL0     H 2813   3.867   0.118   8.442 -0.8152 -2.5766 -1.5189
  762MOL0     H 2814   3.842   0.279   8.367 -2.4959  1.2713  0.1636
  762MOL0     H 2815   3.744   0.361   8.569  0.0592 -0.2294 -1.3223
  762MOL0     H 2816   3.750   0.209   8.655 -0.1953 -1.3358 -0.0094
  762MOL0     H 2817   4.000   0.202   8.608 -2.2352 -0.5040 -0.2136
  762MOL0     H 2818   3.989   0.374   8.564  0.7768  2.1010  2.8153
  762MOL0     H 2819   3.842   0.364   8.799 -0.6553  0.7958 -1.6793
  762MOL0     H 2820   3.981   0.462   8.756 -2.6290  0.9461  1.0747
  762MOL0     H 2821   4.238   0.266   8.767  3.6131  0.8820  2.4968
  762MOL0     H 2822   4.336   0.064   9.071  0.0827 -0.2085  0.2081
  762MOL0     H 2823   4.390   0.116   8.910 -2.4799  1.8476 -1.3451
  762MOL0     H 2824   4.390   0.281   9.156 -0.6681  2.9765 -1.2539
  762MOL0     H 2825   4.420   0.355   9.009 -3.4005 -0.0178  1.1709
  762MOL0     H 2826   4.568   0.103   9.053  0.0011  0.6988  0.9682
  762MOL0     H 2827   4.614   0.219   9.174 -1.0670  0.2789  1.3351
  762MOL0     H 2828   4.768   0.207   9.007 -0.8184 -0.2815  1.6959
  762MOL0     H 2829   4.705   0.372   8.994  3.4402  0.1620  2.7407
  762MOL0     H 2830   4.876   0.371   8.810  1.3151  0.0010  0.8390
  762MOL0     H 2831   5.066   0.412   8.707  0.6223 -2.8229 -1.0476
  762MOL0     H 2832   5.082   0.408   8.524  3.2480 -1.3549  2.5930
  762MOL0     H 2833   4.999   0.545   8.607  0.2911  0.5312 -0.4856
  762MOL0     H 2834   4.532   0.549   8.198 -1.6224  7.3334 -0.2702
  762MOL0     H 2835   4.496   0.650   7.995 -0.0559  0.2539  2.8846
  762MOL0     H 2836   4.842   0.742   7.721 -1.2673  1.5731  3.5134
  762MOL0     H 2837   4.795   0.595   7.647 -1.8344 -0.6324  0.5040
  762MOL0     H 2838   4.600   0.688   7.546 -0.5440  0.6473 -0.4449
  762MOL0     H 2839   4.641   0.849   7.621  0.4011  0.6829 -2.4380
  762MOL0     H 2840   4.850   0.705   7.433  0.1105  0.7776 -2.6575
  762MOL0     H 2841   4.820   0.868   7.472  1.3221 -1.2418 -1.3444
  762MOL0     H 2842   4.632   0.690   7.333  0.2760  0.6664  1.6327
  762MOL0     H 2843   4.621   0.866   7.315 -0.1793  0.8983  0.7850
  762MOL0     H 2844   4.851   0.883   7.219 -0.5031  1.4453  3.9753
  762MOL0     H 2845   4.729   0.828   7.115 -1.7832  2.2802  0.7022
  762MOL0     H 2846   4.939   0.719   7.091  1.7312 -3.8311 -0.3794
  762MOL0     H 2847   4.955   0.659   7.250 -0.3003  3.2750  2.8248
  762MOL0     H 2848   4.795   0.504   7.236 -0.2259  1.1244 -0.1646
  762MOL0     H 2849   4.891   0.487   7.084 -1.0172  2.0209 -5.2842
  762MOL0     H 2850   4.609   0.600   7.109 -0.8409 -1.6189  1.9356
  762MOL0     H 2851   4.661   0.443   7.041  2.9944  0.4686 -2.0865
  762MOL0     H 2852   4.887   0.540   7.857  0.2677 -1.9274 -0.4543
  762MOL0     H 2853   4.909   0.407   8.058 -3.5352 -3.9999  0.5152
  762MOL0     H 2854   4.606   0.300   8.411 -0.0305 -0.6234  0.6511
  762MOL0     H 2855   4.547   0.185   8.610 -0.4529  0.9007 -2.2377
  762MOL0     H 2856   3.061   0.391   8.334 -0.4457  0.5357 -0.6267
  762MOL0     H 2857   2.827   0.350   8.307  2.6679  1.0571 -0.0809
  762MOL0     H 2858   2.500   0.061   8.046 -2.5330 -1.2200 -1.6791
  762MOL0     H 2859   2.254   0.019   8.030 -1.6450 -0.9593  1.1651
  762MOL0     H 2860   1.944  -0.139   8.143 -0.0343 -0.1119  2.4281
  762MOL0     H 2861   2.081  -0.120   8.030 -2.0199 -3.9958 -2.2985
  762MOL0     H 2862   2.087  -0.341   8.244 -3.5619 -2.3938 -0.3633
  762MOL0     H 2863   2.181  -0.312   8.089 -1.5079  1.3455 -2.7614
  762MOL0     H 2864   1.994  -0.365   7.964  1.3962  1.9992  0.2269
  762MOL0     H 2865   1.890  -0.389   8.114 -0.8561  1.8208 -1.5124
  762MOL0     H 2866   1.964  -0.599   8.035  0.6000 -1.5220  0.0238
  762MOL0     H 2867   2.059  -0.568   8.172 -1.6678  0.1541  0.1268
  762MOL0     H 2868   2.345  -0.627   7.882  1.1218  0.3964  3.0549
  762MOL0     H 2869   2.277  -0.086   8.454 -0.1826 -0.0976 -0.6713
  762MOL0     H 2870   2.497   0.009   8.472  2.2286 -2.0025 -1.0008
  763MOL0     O 2871   1.375   1.102   3.504  0.2193  0.8373  0.5676
  763MOL0     C 2872   1.272   1.134   3.436  0.4642 -0.0015  0.4907
  763MOL0     O 2873   1.137   1.146   3.484 -0.3011  0.5626  0.2595
  763MOL0     C 2874   1.108   1.114   3.612  0.0379  0.3268 -0.6364
  763MOL0     C 2875   0.977   1.123   3.650  0.5504 -0.6789  0.5320
  763MOL0     C 2876   0.922   1.095   3.774 -0.3507  0.4915  0.3810
  763MOL0     C 2877   1.009   1.059   3.872 -0.4422  0.6159 -0.8404
  763MOL0     O 2878   0.955   1.048   3.998  0.6554  0.3953  0.2985
  763MOL0     C 2879   1.035   0.982   4.102 -0.3000  0.3999 -0.0438
  763MOL0     C 2880   0.945   0.964   4.226  0.8844 -0.7770  0.3283
  763MOL0     C 2881   0.829   0.876   4.193 -0.0639  0.4952  0.5287
  763MOL0     C 2882   0.735   0.847   4.312  0.2955 -1.1209  0.2969
  763MOL0     C 2883   0.623   0.740   4.270  0.0376 -0.3155  0.1252
  763MOL0     C 2884   0.550   0.718   4.400  0.5668 -0.5762  1.3343
  763MOL0     C 2885   0.431   0.637   4.375  1.3482  0.3368 -0.3442
  763MOL0     C 2886   0.373   0.584   4.500 -0.1021  0.3655  0.4850
  763MOL0     N 2887   0.250   0.511   4.475  0.5909  0.3251 -0.5347
  763MOL0     C 2888   0.136   0.572   4.423 -0.7997  0.4332 -0.0025
  763MOL0     C 2889   0.035   0.489   4.470  0.3312  0.9401  0.0627
  763MOL0     C 2890  -0.111   0.519   4.454 -0.1456  0.2398 -0.8225
  763MOL0     C 2891  -0.167   0.596   4.573  0.1490  0.7466  0.4956
  763MOL0     C 2892  -0.311   0.661   4.536 -0.8353  1.2415 -0.3165
  763MOL0     C 2893  -0.312   0.756   4.422 -1.2401 -0.0453  0.2860
  763MOL0     O 2894  -0.256   0.882   4.466  0.1873 -0.1758  0.4321
  763MOL0     C 2895  -0.325   0.992   4.414  0.4887  0.7289 -0.3886
  763MOL0     C 2896  -0.250   1.080   4.347  0.8276 -0.1365 -0.0533
  763MOL0     C 2897  -0.296   1.189   4.273  0.4818  0.4301  1.8065
  763MOL0     C 2898  -0.199   1.259   4.176  0.4376  0.5905  0.0472
  763MOL0     C 2899  -0.442   1.217   4.285  0.4639 -0.1608 -0.3512
  763MOL0     C 2900  -0.516   1.329   4.221 -0.3311  0.8592 -0.5794
  763MOL0     O 2901  -0.651   1.313   4.204 -0.0763  0.2210 -0.5090
  763MOL0     C 2902  -0.746   1.417   4.193 -0.2808  0.4122  0.9567
  763MOL0     C 2903  -0.871   1.379   4.162 -0.4202  0.4559 -0.2212
  763MOL0     C 2904  -0.971   1.465   4.144 -0.6433 -0.3315  0.9552
  763MOL0     C 2905  -0.945   1.601   4.153  0.4921  0.2400  0.5964
  763MOL0     O 2906  -1.023   1.702   4.111  0.0386 -0.8260  0.2916
  763MOL0     C 2907  -1.102   1.674   3.999 -0.5622  1.1435 -0.2547
  763MOL0     C 2908  -1.142   1.805   3.928  0.8908 -0.5199 -0.4908
  763MOL0     C 2909  -1.191   1.916   4.029 -0.7271 -0.3080 -0.4808
  763MOL0     C 2910  -1.083   2.004   4.102 -0.4267  0.0684  0.2384
  763MOL0     C 2911  -1.146   2.117   4.180 -0.2270 -0.2590  0.2001
  763MOL0     C 2912  -1.034   2.198   4.253  0.5555 -0.3627  0.5623
  763MOL0     C 2913  -1.086   2.322   4.331 -0.3112  1.1678 -0.6423
  763MOL0     C 2914  -1.164   2.427   4.254 -0.2947  0.4988  0.3969
  763MOL0    Cl 2915  -1.093   2.497   4.103 -0.3115  0.1494 -0.0316
  763MOL0     C 2916  -0.823   1.652   4.186 -0.5849 -0.9083 -0.2202
  763MOL0     C 2917  -0.723   1.558   4.216 -0.0866 -0.2987 -0.2633
  763MOL0     O 2918  -0.456   1.439   4.206  0.1136 -0.2649  0.1826
  763MOL0     C 2919  -0.521   1.122   4.350  0.6068  0.4158 -0.8284
  763MOL0     C 2920  -0.459   1.026   4.424  0.7141  0.3695 -0.5614
  763MOL0     N 2921   0.087   0.389   4.550 -0.9687 -1.3586 -0.5322
  763MOL0     N 2922   0.220   0.400   4.546 -1.0655  0.5144 -0.5270
  763MOL0     C 2923   1.142   1.042   3.841  0.8347 -0.2429  0.7415
  763MOL0     C 2924   1.197   1.073   3.713  0.0780  0.4361 -0.5351
  763MOL0     C 2925   1.296   1.190   3.300 -0.0420 -1.0604 -0.1297
  763MOL0     C 2926   1.218   1.293   3.245  0.7451  0.2120  0.3471
  763MOL0     C 2927   1.235   1.340   3.118 -1.0742  0.8082 -0.3716
  763MOL0     C 2928   1.344   1.292   3.038 -0.6159 -1.1031 -0.8807
  763MOL0     O 2929   1.368   1.345   2.912 -0.3537 -0.4250 -0.0368
  763MOL0     C 2930   1.280   1.437   2.851 -0.4236 -0.5824  0.3781
  763MOL0     C 2931   1.311   1.452   2.708 -0.1298  1.0203 -0.5353
  763MOL0     C 2932   1.381   1.584   2.668 -0.5790  0.5154 -0.2325
  763MOL0     C 2933   1.295   1.714   2.685 -0.0064  0.9486 -0.5711
  763MOL0     C 2934   1.218   1.722   2.566  0.8289  0.1243  0.9785
  763MOL0     C 2935   1.152   1.738   2.463 -0.0791  1.0042 -0.0816
  763MOL0     C 2936   1.428   1.194   3.091 -0.1163  0.3077  0.5078
  763MOL0     C 2937   1.401   1.142   3.220 -0.8472  0.0326  0.0706
  763MOL0     H 2938   0.914   1.158   3.569  0.8953 -2.0090 -0.3425
  763MOL0     H 2939   0.815   1.107   3.788 -0.5579 -1.1000  0.3369
  763MOL0     H 2940   1.071   0.882   4.074  1.0272  0.4709  1.3147
  763MOL0     H 2941   1.117   1.048   4.130 -0.4890  0.1794  1.1012
  763MOL0     H 2942   1.001   0.929   4.313  0.4290 -0.0477  0.9282
  763MOL0     H 2943   0.910   1.065   4.250  0.3977 -0.1736 -2.5230
  763MOL0     H 2944   0.759   0.925   4.124  0.7281  1.8375  0.6371
  763MOL0     H 2945   0.862   0.784   4.143  0.8928  0.9003  0.3793
  763MOL0     H 2946   0.804   0.818   4.392  2.6265  3.7092  0.4008
  763MOL0     H 2947   0.684   0.936   4.348  2.3631 -0.2571  1.2416
  763MOL0     H 2948   0.573   0.764   4.175  1.2403  0.6448 -0.2984
  763MOL0     H 2949   0.677   0.651   4.239  0.0324  0.0820 -1.1097
  763MOL0     H 2950   0.625   0.667   4.461  0.3435 -0.3370  1.8197
  763MOL0     H 2951   0.528   0.815   4.447  2.1078 -0.8007  2.6098
  763MOL0     H 2952   0.348   0.695   4.335  0.0192 -1.6325 -0.6103
  763MOL0     H 2953   0.444   0.545   4.317 -3.1716 -0.9104  0.2688
  763MOL0     H 2954   0.360   0.667   4.570  2.8631  1.3061  0.0469
  763MOL0     H 2955   0.448   0.521   4.550 -1.6970 -2.6380 -0.6455
  763MOL0     H 2956   0.128   0.667   4.372 -2.1345 -0.4716 -1.6071
  763MOL0     H 2957  -0.120   0.565   4.356 -0.4563  2.8641  0.3590
  763MOL0     H 2958  -0.165   0.424   4.448 -0.4954  0.5402 -2.9578
  763MOL0     H 2959  -0.108   0.685   4.598 -0.2107  1.1859 -0.1955
  763MOL0     H 2960  -0.179   0.536   4.664 -1.4956 -1.5982 -1.1633
  763MOL0     H 2961  -0.351   0.709   4.626  0.6067  4.0848 -1.0943
  763MOL0     H 2962  -0.364   0.569   4.509  1.6356 -0.8511  1.4448
  763MOL0     H 2963  -0.412   0.766   4.379 -1.0586 -3.5910 -1.3040
  763MOL0     H 2964  -0.254   0.713   4.339 -0.7932 -1.1071  1.1255
  763MOL0     H 2965  -0.144   1.055   4.343  0.7620 -1.9622  4.2691
  763MOL0     H 2966  -0.241   1.264   4.075  2.6595  3.1428 -0.8706
  763MOL0     H 2967  -0.186   1.359   4.218  0.2808  0.2079  1.0316
  763MOL0     H 2968  -0.106   1.202   4.172 -0.0494 -0.3073  1.2585
  763MOL0     H 2969  -0.895   1.274   4.173  0.4154  0.2451 -0.3357
  763MOL0     H 2970  -1.072   1.438   4.115  0.4663 -3.4182 -0.4537
  763MOL0     H 2971  -1.041   1.615   3.930 -1.9632 -0.5847 -0.1057
  763MOL0     H 2972  -1.190   1.618   4.034  0.2419 -0.2519 -0.3975
  763MOL0     H 2973  -1.056   1.850   3.878  1.0581 -0.6594 -0.3324
  763MOL0     H 2974  -1.207   1.782   3.844 -0.6966 -2.3719  1.1482
  763MOL0     H 2975  -1.257   1.882   4.110  0.4679 -0.7312  0.3306
  763MOL0     H 2976  -1.258   1.985   3.977  0.9865  1.1864 -0.7693
  763MOL0     H 2977  -1.034   1.933   4.169  1.9291  0.5342 -0.8934
  763MOL0     H 2978  -1.008   2.046   4.034 -0.9005  1.3906  0.5015
  763MOL0     H 2979  -1.219   2.073   4.248  1.8181 -4.7916 -0.1452
  763MOL0     H 2980  -1.199   2.177   4.106  1.8454  1.9739  0.4102
  763MOL0     H 2981  -0.966   2.137   4.313  2.4323  1.9269  0.9421
  763MOL0     H 2982  -0.978   2.233   4.166  0.0080 -3.5703 -1.2404
  763MOL0     H 2983  -1.004   2.377   4.378  1.5349 -2.1979  0.3815
  763MOL0     H 2984  -1.136   2.280   4.419  1.8453  2.5331  1.3542
  763MOL0     H 2985  -1.168   2.509   4.326  3.0313  1.1076  0.0410
  763MOL0     H 2986  -1.264   2.390   4.233  0.4713 -2.9168  1.9982
  763MOL0     H 2987  -0.787   1.754   4.192  3.6790 -1.9927 -2.9974
  763MOL0     H 2988  -0.631   1.606   4.248 -2.5126  4.4417  0.4924
  763MOL0     H 2989  -0.629   1.120   4.358  0.5465 -3.2129 -1.0711
  763MOL0     H 2990  -0.523   0.951   4.470  1.6730 -0.1561 -0.0568
  763MOL0     H 2991   1.210   1.012   3.921 -1.4431  0.6737  3.1644
  763MOL0     H 2992   1.304   1.065   3.697 -0.0820 -1.2402 -0.9959
  763MOL0     H 2993   1.137   1.331   3.306  0.9617  3.9909 -1.4465
  763MOL0     H 2994   1.159   1.413   3.092  1.5043  3.0631 -2.3096
  763MOL0     H 2995   1.177   1.405   2.869  0.0515 -2.3201  0.1821
  763MOL0     H 2996   1.293   1.527   2.912 -1.4297  0.1495 -0.4499
  763MOL0     H 2997   1.214   1.444   2.657  1.0172 -0.2409 -2.6561
  763MOL0     H 2998   1.371   1.369   2.670 -1.7779 -0.0107 -1.0226
  763MOL0     H 2999   1.425   1.587   2.568  0.7929  3.5202  0.3447
  763MOL0     H 3000   1.470   1.578   2.730 -5.1093 -1.1250  7.4298
  763MOL0     H 3001   1.366   1.797   2.686 -2.1671  2.9121 -1.0944
  763MOL0     H 3002   1.231   1.720   2.773  1.8995 -1.4936  1.1316
  763MOL0     H 3003   1.080   1.773   2.393 -1.7248 -0.9372  0.5435
  763MOL0     H 3004   1.523   1.161   3.051  3.1968  5.0371  3.5167
  763MOL0     H 3005   1.467   1.064   3.258 -1.2815  1.0608  3.1739
  764MOL0     O 3006   9.895  10.470  11.149  0.4632  0.0802  0.2517
  764MOL0     C 3007   9.853  10.443  11.033  1.5485  0.1954  0.3343
  764MOL0     O 3008   9.770  10.531  10.959 -0.8064  0.6184  0.2165
  764MOL0     C 3009   9.764  10.665  10.985  0.4349  0.8816 -0.6208
  764MOL0     C 3010   9.634  10.723  10.988  0.2882  0.7107  0.0703
  764MOL0     C 3011   9.619  10.859  11.005 -1.1962  1.1882  0.3657
  764MOL0     C 3012   9.741  10.930  11.029 -0.5761 -0.4815 -0.0562
  764MOL0     O 3013   9.731  11.066  11.057  0.3023  0.0563 -0.7361
  764MOL0     C 3014   9.837  11.157  11.099  0.2762 -1.0214  0.1417
  764MOL0     C 3015   9.790  11.299  11.121 -0.2752 -0.4593 -0.2619
  764MOL0     C 3016   9.774  11.332  11.279 -0.1939  0.9501 -0.3330
  764MOL0     C 3017   9.835  11.460  11.318  0.6145  0.3563  0.0988
  764MOL0     C 3018   9.979  11.444  11.371  1.0102  0.4310 -0.1259
  764MOL0     C 3019  10.062  11.568  11.355 -0.1560  0.4065  0.8256
  764MOL0     C 3020  10.191  11.561  11.445 -0.0881  0.7570 -0.6823
  764MOL0     C 3021  10.264  11.700  11.459  0.3200  0.2361 -0.6903
  764MOL0     N 3022  10.399  11.662  11.512 -0.0910  0.0347 -0.6298
  764MOL0     C 3023  10.439  11.642  11.639  0.3577 -0.8626  0.2601
  764MOL0     C 3024  10.565  11.651  11.641 -0.8595 -0.9701  0.0948
  764MOL0     C 3025  10.646  11.672  11.762 -0.6827  0.5478  0.3178
  764MOL0     C 3026  10.645  11.548  11.860  0.0985  0.5500  0.1253
  764MOL0     C 3027  10.776  11.531  11.939 -0.4794 -0.2741 -0.1368
  764MOL0     C 3028  10.895  11.474  11.852  0.4142  0.5330  0.5800
  764MOL0     O 3029  10.876  11.332  11.837 -0.1912  0.3316  0.5860
  764MOL0     C 3030  10.821  11.287  11.712 -0.9125 -0.1566 -0.3607
  764MOL0     C 3031  10.808  11.151  11.706  0.0039  0.2364  0.0010
  764MOL0     C 3032  10.771  11.097  11.587  1.0047 -0.9503  0.5066
  764MOL0     C 3033  10.772  10.941  11.581  0.2642 -0.0541  1.0236
  764MOL0     C 3034  10.735  11.169  11.476  0.6227 -0.5558 -0.2157
  764MOL0     C 3035  10.693  11.114  11.341  0.4221 -0.1604 -0.0075
  764MOL0     O 3036  10.780  11.103  11.240  0.6691 -0.4160  0.6509
  764MOL0     C 3037  10.759  11.044  11.118  0.5191 -0.0719  0.1441
  764MOL0     C 3038  10.833  10.932  11.078  0.4268  0.1917  0.6413
  764MOL0     C 3039  10.824  10.890  10.945 -0.1064 -0.0872 -0.8962
  764MOL0     C 3040  10.720  10.935  10.858  0.3578  0.2711 -0.3762
  764MOL0     O 3041  10.717  10.871  10.736  0.1566 -0.3383 -0.1290
  764MOL0     C 3042  10.660  10.931  10.625 -0.1297  0.8500 -0.1379
  764MOL0     C 3043  10.698  10.857  10.504 -0.5275 -0.3736 -0.3247
  764MOL0     C 3044  10.646  10.899  10.369 -0.4523 -0.5917  0.6463
  764MOL0     C 3045  10.506  10.962  10.368  0.4913 -0.4059  1.2744
  764MOL0     C 3046  10.472  11.034  10.236 -0.3142 -0.3962 -0.4100
  764MOL0     C 3047  10.332  11.093  10.246  0.3951  0.9120 -0.4959
  764MOL0     C 3048  10.308  11.175  10.114  0.7032 -0.5174  0.7924
  764MOL0     C 3049  10.186  11.274  10.115  0.8287 -0.1909 -0.2544
  764MOL0    Cl 3050  10.169  11.367   9.964 -0.1919  0.1288  0.3403
  764MOL0     C 3051  10.640  11.042  10.898 -0.0219  0.3056  0.9069
  764MOL0     C 3052  10.661  11.091  11.033  0.6721 -0.1452  0.0473
  764MOL0     O 3053  10.569  11.098  11.337 -0.3878 -0.4797 -0.3448
  764MOL0     C 3054  10.737  11.307  11.486 -0.2902  0.2129 -0.2549
  764MOL0     C 3055  10.783  11.364  11.607  0.6564  0.0059  0.5047
  764MOL0     N 3056  10.608  11.658  11.513 -0.5487  0.9602  0.1898
  764MOL0     N 3057  10.511  11.664  11.429 -0.6457 -1.0824 -0.3507
  764MOL0     C 3058   9.868  10.877  11.016 -0.5364  0.9229 -0.2777
  764MOL0     C 3059   9.882  10.744  11.000  0.7166  0.4167  0.0236
  764MOL0     C 3060   9.878  10.299  10.998 -0.4073  0.0731 -0.6318
  764MOL0     C 3061   9.872  10.250  10.868 -0.2477 -0.0651  0.2247
  764MOL0     C 3062   9.894  10.117  10.833 -0.4758  0.4924  0.0622
  764MOL0     C 3063   9.921  10.026  10.936  0.3052 -1.1631 -0.5139
  764MOL0     O 3064   9.950   9.897  10.912  0.1541  0.7693 -0.1333
  764MOL0     C 3065   9.989   9.839  10.776 -0.1780 -0.2893 -0.6581
  764MOL0     C 3066   9.874   9.771  10.702  0.3639 -0.4192 -0.0247
  764MOL0     C 3067   9.830   9.648  10.778  0.5875 -0.2835 -0.6121
  764MOL0     C 3068   9.723   9.570  10.687 -0.3084 -0.1277 -0.2460
  764MOL0     C 3069   9.601   9.530  10.767 -0.3653 -0.9238 -0.9140
  764MOL0     C 3070   9.506   9.497  10.834  0.0896  0.5249 -0.3913
  764MOL0     C 3071   9.937  10.068  11.064  0.2790 -0.4800 -0.5865
  764MOL0     C 3072   9.909  10.201  11.094 -0.3133 -0.2004  0.6582
  764MOL0     H 3073   9.543  10.669  10.964 -0.0720  1.7167 -0.9402
  764MOL0     H 3074   9.525  10.911  10.991 -2.5953 -1.2445  0.3459
  764MOL0     H 3075   9.890  11.123  11.188  3.7441 -0.2827 -1.4810
  764MOL0     H 3076   9.914  11.181  11.025  1.1158  1.7895  1.7881
  764MOL0     H 3077   9.855  11.367  11.065  2.9871 -1.3917  2.0740
  764MOL0     H 3078   9.690  11.306  11.078 -0.9936  0.1862  1.4443
  764MOL0     H 3079   9.669  11.330  11.309  0.2132 -1.3202  1.2152
  764MOL0     H 3080   9.819  11.252  11.338 -1.7471  1.1858  1.2585
  764MOL0     H 3081   9.841  11.530  11.235  2.1126  0.2635  0.1019
  764MOL0     H 3082   9.782  11.512  11.399  3.0846  1.6784  0.9787
  764MOL0     H 3083   9.970  11.436  11.480  2.6947 -0.6007 -0.0320
  764MOL0     H 3084  10.028  11.362  11.317  0.9546  0.7678 -0.6963
  764MOL0     H 3085  10.093  11.573  11.250  0.0305 -1.3977  0.7609
  764MOL0     H 3086  10.023  11.668  11.378  1.1034  1.2150 -0.3993
  764MOL0     H 3087  10.156  11.531  11.544 -1.3208 -0.2953 -1.4171
  764MOL0     H 3088  10.252  11.484  11.398  3.1925  2.0054  1.1848
  764MOL0     H 3089  10.220  11.771  11.529  2.8629  1.3116 -0.0830
  764MOL0     H 3090  10.276  11.748  11.361  2.1416 -1.5342 -1.4151
  764MOL0     H 3091  10.387  11.637  11.734 -1.7014  1.3873 -0.6520
  764MOL0     H 3092  10.746  11.700  11.726 -0.6675  3.4616  2.2734
  764MOL0     H 3093  10.625  11.762  11.820  3.4960  1.6507  0.4440
  764MOL0     H 3094  10.619  11.458  11.802 -2.1545  1.0689  0.2277
  764MOL0     H 3095  10.570  11.563  11.939  0.4154 -2.3740  1.1092
  764MOL0     H 3096  10.766  11.473  12.031  1.6882  1.6050  1.4038
  764MOL0     H 3097  10.798  11.627  11.988 -0.7916 -0.2597 -0.0250
  764MOL0     H 3098  10.984  11.494  11.914  0.0868 -4.2997  3.0715
  764MOL0     H 3099  10.911  11.529  11.759 -1.1801 -1.3742 -0.9160
  764MOL0     H 3100  10.840  11.089  11.789 -2.4929  1.7811  2.2601
  764MOL0     H 3101  10.863  10.908  11.631 -0.0597 -4.0242 -0.6147
  764MOL0     H 3102  10.683  10.906  11.632 -0.4853 -0.6088 -0.5872
  764MOL0     H 3103  10.775  10.903  11.478 -1.7126  1.2810  0.4201
  764MOL0     H 3104  10.902  10.881  11.144 -0.6351 -1.8065  0.2610
  764MOL0     H 3105  10.901  10.820  10.915 -0.1416 -1.8884  2.7544
  764MOL0     H 3106  10.553  10.912  10.634  0.2751 -1.2476  1.1311
  764MOL0     H 3107  10.689  11.036  10.623 -0.3468  0.9088 -2.3404
  764MOL0     H 3108  10.808  10.859  10.511 -0.4260 -1.6208 -1.2420
  764MOL0     H 3109  10.678  10.750  10.513  0.9921 -0.9761 -2.8818
  764MOL0     H 3110  10.638  10.811  10.304 -0.7465 -0.8117  0.9756
  764MOL0     H 3111  10.723  10.961  10.322 -1.0561 -0.2035  0.1618
  764MOL0     H 3112  10.438  10.878  10.390  2.4993 -2.1707  1.0062
  764MOL0     H 3113  10.492  11.037  10.447  0.3702 -0.4143  1.2624
  764MOL0     H 3114  10.484  10.960  10.155  0.5928  0.5442 -1.1671
  764MOL0     H 3115  10.549  11.110  10.221  2.4662 -2.6921  1.3063
  764MOL0     H 3116  10.263  11.009  10.262 -0.9104  2.4976  3.3374
  764MOL0     H 3117  10.315  11.152  10.336 -0.6923  0.9690 -0.7246
  764MOL0     H 3118  10.289  11.107  10.030  0.2001 -1.6983  1.8337
  764MOL0     H 3119  10.392  11.244  10.098 -0.4169  0.5118 -1.0392
  764MOL0     H 3120  10.201  11.350  10.192 -2.8734  0.9807 -0.4588
  764MOL0     H 3121  10.090  11.224  10.133 -0.0949  1.6463  0.1477
  764MOL0     H 3122  10.563  11.081  10.833  0.3733  2.9451  1.9025
  764MOL0     H 3123  10.603  11.179  11.060 -2.3589 -1.8589 -0.4362
  764MOL0     H 3124  10.709  11.373  11.404  2.9256  2.1240  0.0111
  764MOL0     H 3125  10.775  11.472  11.616 -0.3485 -0.0696  0.5526
  764MOL0     H 3126   9.952  10.945  11.025  1.1183 -1.1821  1.4979
  764MOL0     H 3127   9.982  10.706  10.981  0.9019  2.1798 -3.5542
  764MOL0     H 3128   9.853  10.315  10.783 -0.5742 -2.8380 -1.9614
  764MOL0     H 3129   9.881  10.084  10.731 -0.8175  0.0438  0.2468
  764MOL0     H 3130  10.040   9.908  10.708 -0.5772  2.1970  1.4071
  764MOL0     H 3131  10.065   9.763  10.796 -1.8695 -1.6340  1.1422
  764MOL0     H 3132   9.911   9.736  10.605 -2.1215 -0.9605 -0.8350
  764MOL0     H 3133   9.798   9.849  10.691 -1.3668 -2.2250 -1.5660
  764MOL0     H 3134   9.771   9.697  10.856 -2.2056  0.7845 -3.1770
  764MOL0     H 3135   9.913   9.586  10.813  1.9540  1.5616 -0.4259
  764MOL0     H 3136   9.771   9.487  10.633 -2.9423 -0.1216 -2.8474
  764MOL0     H 3137   9.674   9.635  10.614 -0.3034  1.6588  1.2903
  764MOL0     H 3138   9.418   9.454  10.876  0.1849 -0.6072 -1.2910
  764MOL0     H 3139   9.969   9.998  11.141  1.7199  1.6405  0.8766
  764MOL0     H 3140   9.923  10.236  11.196  1.3564 -0.1137  0.4185
  765MOL0     O 3141   7.699   8.124  11.416  0.4449 -0.1745  0.2334
  765MOL0     C 3142   7.582   8.125  11.383  0.6829  0.2625 -0.9773
  765MOL0     O 3143   7.522   8.090  11.262  0.1451  0.3020  0.5327
  765MOL0     C 3144   7.597   8.044  11.154  0.3948 -0.8799 -0.3762
  765MOL0     C 3145   7.668   7.922  11.161 -0.2544  0.4397  0.6322
  765MOL0     C 3146   7.761   7.888  11.059 -0.3908  0.2528  0.6465
  765MOL0     C 3147   7.774   7.973  10.944  0.1655 -0.1209 -1.1265
  765MOL0     O 3148   7.852   7.962  10.838  0.5223 -0.7523  1.0299
  765MOL0     C 3149   7.987   7.911  10.852  0.4315  0.6892 -0.1457
  765MOL0     C 3150   8.060   7.938  10.725  0.2878 -0.1647  0.0491
  765MOL0     C 3151   8.203   7.889  10.722  0.1088  0.0288 -0.4943
  765MOL0     C 3152   8.279   7.935  10.596  1.4751  0.0246 -0.7199
  765MOL0     C 3153   8.429   7.922  10.600 -0.6524 -0.2029 -0.6547
  765MOL0     C 3154   8.485   7.786  10.638  0.0568 -0.4092 -0.0416
  765MOL0     C 3155   8.633   7.784  10.614 -0.4647  0.0136 -0.4925
  765MOL0     C 3156   8.716   7.852  10.729 -0.0207 -0.3001 -0.0049
  765MOL0     N 3157   8.860   7.848  10.707  0.0148 -0.3106  0.6963
  765MOL0     C 3158   8.939   7.737  10.725  0.1819  0.0799  0.4109
  765MOL0     C 3159   9.070   7.780  10.716 -0.2680  0.2794 -0.8374
  765MOL0     C 3160   9.208   7.716  10.714  0.0157 -0.5038  1.0402
  765MOL0     C 3161   9.205   7.596  10.618  0.3508  0.3083  0.2285
  765MOL0     C 3162   9.331   7.515  10.645  0.4429 -0.2733 -0.5304
  765MOL0     C 3163   9.339   7.416  10.528 -0.3646 -0.5861  0.0712
  765MOL0     O 3164   9.476   7.378  10.504 -0.8717  0.3944  0.0898
  765MOL0     C 3165   9.526   7.254  10.559 -0.0200 -0.3513 -0.4308
  765MOL0     C 3166   9.455   7.146  10.605 -0.4338 -0.5177  0.3332
  765MOL0     C 3167   9.517   7.027  10.640  0.4352  0.2918  0.2785
  765MOL0     C 3168   9.418   6.911  10.662 -0.1951 -0.0505 -0.0931
  765MOL0     C 3169   9.665   7.008  10.628  0.9172  0.1247 -0.0383
  765MOL0     C 3170   9.738   6.891  10.650 -0.5950  0.0755 -0.1396
  765MOL0     O 3171   9.855   6.892  10.723 -0.5849  0.3458  0.0149
  765MOL0     C 3172   9.917   6.770  10.756 -0.4035  0.1998 -1.1281
  765MOL0     C 3173   9.855   6.667  10.830  0.2149 -0.1323 -0.0535
  765MOL0     C 3174   9.933   6.548  10.852 -0.4705  0.7990  0.2750
  765MOL0     C 3175  10.066   6.538  10.809  0.9140  0.7901 -0.6712
  765MOL0     O 3176  10.154   6.425  10.830  0.4747 -0.9957 -0.4223
  765MOL0     C 3177  10.105   6.292  10.844  0.9433 -0.7647 -0.7079
  765MOL0     C 3178  10.099   6.265  10.999 -0.4201  0.9617 -0.2445
  765MOL0     C 3179  10.029   6.135  11.022 -0.5578 -0.2185  0.5828
  765MOL0     C 3180  10.053   6.086  11.165  0.5365  0.1041 -0.1358
  765MOL0     C 3181  10.010   5.944  11.205  0.4468 -0.5115  0.5683
  765MOL0     C 3182   9.888   5.890  11.133  0.1552  0.5779  0.9717
  765MOL0     C 3183   9.865   5.740  11.143  0.5528  1.4053 -0.2245
  765MOL0     C 3184   9.716   5.710  11.113  0.9861 -0.8367 -0.5884
  765MOL0    Cl 3185   9.679   5.748  10.942  0.4433  0.4260  0.2398
  765MOL0     C 3186  10.121   6.647  10.741  0.1688  0.7591  0.8688
  765MOL0     C 3187  10.050   6.765  10.721  0.0832  0.3754 -0.3572
  765MOL0     O 3188   9.699   6.792  10.590  0.5189  0.2903  0.4712
  765MOL0     C 3189   9.731   7.117  10.568 -1.0027  0.4470  0.2859
  765MOL0     C 3190   9.664   7.239  10.550  0.9328 -0.5249 -0.4439
  765MOL0     N 3191   9.060   7.911  10.678 -0.5841  0.3390 -0.8061
  765MOL0     N 3192   8.942   7.949  10.654 -0.0547  0.7945  0.0718
  765MOL0     C 3193   7.704   8.091  10.945  0.0865 -0.2575 -0.4422
  765MOL0     C 3194   7.609   8.122  11.040 -0.2258 -0.4772  0.6985
  765MOL0     C 3195   7.479   8.164  11.495 -0.0186 -0.8382  0.2464
  765MOL0     C 3196   7.344   8.119  11.492  0.1386  0.4819 -0.4586
  765MOL0     C 3197   7.266   8.162  11.597  0.1885 -0.3890 -0.2560
  765MOL0     C 3198   7.304   8.254  11.699  0.2480 -0.3916  0.4215
  765MOL0     O 3199   7.226   8.297  11.804 -0.5752  0.0349 -0.3028
  765MOL0     C 3200   7.086   8.250  11.815  0.3157 -0.5107  0.2074
  765MOL0     C 3201   7.078   8.120  11.876 -0.5931 -0.0690 -0.1189
  765MOL0     C 3202   6.942   8.065  11.880 -0.1740 -0.3601 -0.3576
  765MOL0     C 3203   6.949   7.923  11.932  0.4972  0.8525 -0.3224
  765MOL0     C 3204   6.814   7.885  11.991 -1.3830  0.5648  0.5460
  765MOL0     C 3205   6.709   7.868  12.043  0.3998  0.2701  0.8581
  765MOL0     C 3206   7.426   8.308  11.688  0.5155 -1.1383 -0.1477
  765MOL0     C 3207   7.519   8.262  11.590  0.4371 -0.1490  0.4801
  765MOL0     H 3208   7.653   7.854  11.243 -1.4210 -1.5665 -1.1382
  765MOL0     H 3209   7.806   7.789  11.061 -3.5407 -1.3828 -0.8172
  765MOL0     H 3210   8.045   7.966  10.927 -0.5339  0.7788  0.5490
  765MOL0     H 3211   7.986   7.805  10.878  0.5974  0.6774 -0.1847
  765MOL0     H 3212   8.001   7.905  10.638  0.0334  2.3869 -0.8318
  765MOL0     H 3213   8.067   8.047  10.717 -0.3842 -0.2078 -1.5749
  765MOL0     H 3214   8.254   7.942  10.803 -2.3755 -2.0564  2.6872
  765MOL0     H 3215   8.212   7.783  10.748 -2.1367 -0.2733 -0.7276
  765MOL0     H 3216   8.232   7.883  10.512 -1.5121  1.6215 -0.1720
  765MOL0     H 3217   8.248   8.039  10.583 -4.5077 -1.0083  1.9341
  765MOL0     H 3218   8.462   7.952  10.500 -0.4163  3.8222  0.4793
  765MOL0     H 3219   8.468   8.002  10.663  1.2327 -0.9003 -0.8900
  765MOL0     H 3220   8.458   7.770  10.743 -2.7937  1.4822 -0.3911
  765MOL0     H 3221   8.437   7.713  10.572 -0.7968  2.8605 -3.3803
  765MOL0     H 3222   8.663   7.680  10.632  1.0252  0.4063 -0.5871
  765MOL0     H 3223   8.667   7.801  10.512  3.4892  2.5473  1.0224
  765MOL0     H 3224   8.690   7.813  10.828 -2.1931  3.0360  0.9405
  765MOL0     H 3225   8.686   7.957  10.727 -0.1685 -0.1845  3.2457
  765MOL0     H 3226   8.907   7.642  10.766  0.3629  1.1013  3.1669
  765MOL0     H 3227   9.280   7.794  10.688 -2.4620  1.0414 -1.8007
  765MOL0     H 3228   9.238   7.688  10.816 -1.4798  0.5814  1.8190
  765MOL0     H 3229   9.194   7.638  10.518 -1.3863  1.9020  1.0206
  765MOL0     H 3230   9.117   7.541  10.654  2.3623 -3.2266  0.2586
  765MOL0     H 3231   9.335   7.468  10.743 -0.7684  3.3224  1.4577
  765MOL0     H 3232   9.411   7.589  10.639 -0.3030  0.4589 -2.0828
  765MOL0     H 3233   9.305   7.460  10.434  0.1317  2.2205  1.1209
  765MOL0     H 3234   9.282   7.328  10.560 -0.1174  0.0535  2.4586
  765MOL0     H 3235   9.349   7.139  10.583 -0.5171 -2.9832  1.1484
  765MOL0     H 3236   9.468   6.827  10.712  2.2082  2.2904  1.7336
  765MOL0     H 3237   9.344   6.943  10.736 -2.3689  0.2619 -2.2781
  765MOL0     H 3238   9.377   6.872  10.569 -1.6596  2.0121 -0.3811
  765MOL0     H 3239   9.747   6.669  10.840  0.3968 -1.6726  3.7111
  765MOL0     H 3240   9.893   6.457  10.897  1.1277 -0.0161  0.1109
  765MOL0     H 3241  10.001   6.281  10.812  0.5022 -0.9365  0.7322
  765MOL0     H 3242  10.168   6.228  10.781  3.4759 -0.1910  1.0855
  765MOL0     H 3243  10.202   6.247  11.030 -0.7198 -4.5488 -1.2839
  765MOL0     H 3244  10.045   6.348  11.045 -1.6096  2.7995 -4.4997
  765MOL0     H 3245  10.064   6.056  10.955 -2.1372 -0.0897 -0.4449
  765MOL0     H 3246   9.922   6.145  11.006 -1.0699 -0.9339  3.1007
  765MOL0     H 3247  10.158   6.088  11.195 -0.0745 -0.5256  2.3367
  765MOL0     H 3248  10.002   6.159  11.229  1.2281  1.8952 -1.5289
  765MOL0     H 3249   9.997   5.937  11.314  2.4014 -2.1751  0.7558
  765MOL0     H 3250  10.098   5.883  11.183  0.5970 -1.5822  3.5903
  765MOL0     H 3251   9.798   5.939  11.170  0.6885  1.3204  1.3176
  765MOL0     H 3252   9.912   5.898  11.027 -0.3338 -0.9237  0.7233
  765MOL0     H 3253   9.895   5.709  11.244 -0.8124  0.3304 -0.1216
  765MOL0     H 3254   9.936   5.683  11.082 -0.0697 -1.0799  1.1997
  765MOL0     H 3255   9.648   5.780  11.163 -2.9203 -3.2286 -2.1590
  765MOL0     H 3256   9.680   5.613  11.147 -2.4579  0.0223 -1.3989
  765MOL0     H 3257  10.220   6.635  10.697 -1.3167  0.2169 -2.7300
  765MOL0     H 3258  10.101   6.847  10.672  3.3419 -0.6936  0.9685
  765MOL0     H 3259   9.832   7.101  10.530 -0.1076 -0.0156  2.6360
  765MOL0     H 3260   9.728   7.315  10.507  1.3580  0.0682  1.1807
  765MOL0     H 3261   7.729   8.165  10.869 -1.5820  2.2094  1.2871
  765MOL0     H 3262   7.563   8.220  11.043  1.1729  0.1923  1.2884
  765MOL0     H 3263   7.309   8.048  11.417  2.8361  0.3354 -1.7057
  765MOL0     H 3264   7.165   8.121  11.599  0.7166 -1.7684 -0.4004
  765MOL0     H 3265   7.029   8.321  11.875  0.2974 -0.5535  0.2404
  765MOL0     H 3266   7.036   8.250  11.717 -0.6616 -0.4893  0.6993
  765MOL0     H 3267   7.108   8.142  11.979 -0.3952 -0.3909 -0.1074
  765MOL0     H 3268   7.152   8.050  11.838 -2.5579 -0.7279 -3.0739
  765MOL0     H 3269   6.909   8.058  11.776 -1.9775  1.9163 -0.0218
  765MOL0     H 3270   6.885   8.125  11.952  2.9383  0.6073  1.5017
  765MOL0     H 3271   7.026   7.909  12.009  1.0466 -6.7539 -1.4411
  765MOL0     H 3272   6.968   7.855  11.848 -2.9191  2.7812 -2.9320
  765MOL0     H 3273   6.615   7.866  12.095  1.1888  2.0111  2.4541
  765MOL0     H 3274   7.460   8.394  11.744  0.1177  1.2104 -3.2398
  765MOL0     H 3275   7.623   8.292  11.593  0.1969  0.7267  3.6094
  766MOL0     O 3276   9.299   5.251  11.162 -0.4651 -0.3049 -0.4178
  766MOL0     C 3277   9.402   5.234  11.232  0.1638 -0.0473  1.1900
  766MOL0     O 3278   9.406   5.206  11.357 -0.0811  0.0100 -0.2509
  766MOL0     C 3279   9.300   5.142  11.420 -0.3261 -0.6055  0.2416
  766MOL0     C 3280   9.243   5.026  11.371  0.5567 -0.4309 -0.9581
  766MOL0     C 3281   9.135   4.961  11.433 -0.4893 -0.4061 -0.4694
  766MOL0     C 3282   9.090   4.999  11.560 -0.2265 -0.6869  0.8925
  766MOL0     O 3283   8.981   4.933  11.602  0.0180 -0.0165  0.0306
  766MOL0     C 3284   8.866   5.020  11.619  0.5948  0.6357 -0.1131
  766MOL0     C 3285   8.774   4.949  11.714  0.2252  0.5130  0.3147
  766MOL0     C 3286   8.751   4.805  11.676  0.4922  0.7990 -1.0099
  766MOL0     C 3287   8.692   4.797  11.533 -1.3967 -1.2274  0.3233
  766MOL0     C 3288   8.606   4.664  11.512  0.2581 -1.4536  0.0903
  766MOL0     C 3289   8.531   4.684  11.382 -0.0530  0.4458  0.2477
  766MOL0     C 3290   8.491   4.547  11.324  0.3092 -0.1513 -0.3865
  766MOL0     C 3291   8.608   4.462  11.278  0.2622 -0.2765  0.1036
  766MOL0     N 3292   8.560   4.363  11.173 -0.4397 -0.2992 -0.2313
  766MOL0     C 3293   8.456   4.278  11.182  0.2130  0.5330  0.8407
  766MOL0     C 3294   8.449   4.210  11.067 -0.0525  0.0083 -0.4723
  766MOL0     C 3295   8.348   4.119  11.043 -0.2933 -0.3731 -0.0428
  766MOL0     C 3296   8.209   4.200  11.059  1.1807  1.0202 -1.0481
  766MOL0     C 3297   8.083   4.110  11.064 -0.3212  0.0120  0.6763
  766MOL0     C 3298   8.083   3.992  10.956 -0.4060  0.4030  0.3697
  766MOL0     O 3299   8.060   4.056  10.827  0.5821  0.3343  0.6595
  766MOL0     C 3300   7.949   4.138  10.813  0.4390 -0.4387 -0.7221
  766MOL0     C 3301   7.819   4.116  10.872  0.1869  0.2684  0.3805
  766MOL0     C 3302   7.708   4.207  10.846 -1.2801 -0.0958  0.6083
  766MOL0     C 3303   7.579   4.174  10.913  0.4349  0.3728 -0.1184
  766MOL0     C 3304   7.732   4.326  10.767 -0.7048 -0.3902  0.4837
  766MOL0     C 3305   7.626   4.422  10.716  0.3621  0.5479 -1.0111
  766MOL0     O 3306   7.664   4.535  10.645  0.3088  0.6348 -0.3281
  766MOL0     C 3307   7.573   4.611  10.578  0.1042  0.2424  1.7976
  766MOL0     C 3308   7.554   4.746  10.597 -0.6934 -0.9805  0.1537
  766MOL0     C 3309   7.455   4.825  10.521  0.0442 -0.0756 -0.1405
  766MOL0     C 3310   7.370   4.751  10.436  0.2611 -0.2263 -0.1967
  766MOL0     O 3311   7.266   4.805  10.375  0.6210  0.2365  0.6195
  766MOL0     C 3312   7.200   4.907  10.447  0.4151 -0.3134  0.1655
  766MOL0     C 3313   7.062   4.934  10.390 -0.5308 -0.3973 -0.3276
  766MOL0     C 3314   7.086   5.003  10.253  0.1927 -0.6854 -0.0632
  766MOL0     C 3315   6.944   4.987  10.179  0.0482  0.0418 -0.3685
  766MOL0     C 3316   6.938   5.023  10.028  0.6058 -0.3583  0.8408
  766MOL0     C 3317   6.794   5.041   9.985  0.2436 -0.4362  0.1543
  766MOL0     C 3318   6.717   5.133  10.087 -0.0997 -0.1058 -0.0142
  766MOL0     C 3319   6.782   5.260  10.133  0.5802 -0.2974 -0.1553
  766MOL0    Cl 3320   6.814   5.357   9.980 -0.2750 -0.3006  0.1768
  766MOL0     C 3321   7.388   4.620  10.422  0.8636  0.3041  0.0866
  766MOL0     C 3322   7.488   4.548  10.486  0.4840 -0.2240  1.4324
  766MOL0     O 3323   7.504   4.397  10.737 -1.1010 -0.2989  0.9101
  766MOL0     C 3324   7.860   4.347  10.720 -0.2432  0.5024  0.1057
  766MOL0     C 3325   7.962   4.253  10.745  1.6822  0.0521  0.3806
  766MOL0     N 3326   8.544   4.250  10.978 -0.0431 -0.5116  0.1113
  766MOL0     N 3327   8.613   4.340  11.048  0.2066  0.8851  0.4723
  766MOL0     C 3328   9.161   5.113  11.618  0.2642  1.0608  0.1204
  766MOL0     C 3329   9.255   5.185  11.545  0.1427 -0.4879  1.0355
  766MOL0     C 3330   9.532   5.274  11.176  0.0150 -0.8813 -0.1432
  766MOL0     C 3331   9.542   5.359  11.058 -0.0210  0.7552  1.5065
  766MOL0     C 3332   9.673   5.379  11.004  0.4785  0.3759  0.0367
  766MOL0     C 3333   9.783   5.334  11.069 -1.0825 -0.0872  0.1489
  766MOL0     O 3334   9.903   5.376  11.022 -0.9809  0.1554 -0.5742
  766MOL0     C 3335  10.027   5.362  11.102 -0.3207 -1.1352  0.3068
  766MOL0     C 3336  10.136   5.454  11.043  0.1931  0.2145  0.0862
  766MOL0     C 3337  10.176   5.425  10.889 -0.7857 -0.1110  0.3088
  766MOL0     C 3338  10.272   5.529  10.833 -0.3173 -0.1176  0.6111
  766MOL0     C 3339  10.188   5.641  10.810  0.6483 -0.7431 -0.8719
  766MOL0     C 3340  10.118   5.737  10.795  1.3023  0.5587  0.5634
  766MOL0     C 3341   9.777   5.246  11.179  1.1379 -0.3357  0.5298
  766MOL0     C 3342   9.648   5.215  11.236 -0.5006 -0.5472 -0.4561
  766MOL0     H 3343   9.263   4.980  11.275 -2.9831 -2.0689 -1.0628
  766MOL0     H 3344   9.078   4.884  11.382  4.0555 -1.6506 -4.4754
  766MOL0     H 3345   8.894   5.113  11.669  1.3055 -0.3550  1.3940
  766MOL0     H 3346   8.818   5.035  11.522  4.2761  0.5031 -2.1592
  766MOL0     H 3347   8.838   4.933  11.801 -1.0066 -0.1922  1.1250
  766MOL0     H 3348   8.680   5.002  11.731 -0.7715  0.3242 -3.6203
  766MOL0     H 3349   8.845   4.751  11.683 -0.0337 -0.0339 -0.0336
  766MOL0     H 3350   8.679   4.778  11.754 -0.9778  4.6829 -0.7749
  766MOL0     H 3351   8.642   4.891  11.509  1.0282 -0.4501 -2.2224
  766MOL0     H 3352   8.766   4.800  11.452 -2.6187 -3.2747 -0.9543
  766MOL0     H 3353   8.685   4.588  11.504 -0.4407 -2.2260  0.3826
  766MOL0     H 3354   8.545   4.645  11.601 -1.6612  1.6870 -0.4203
  766MOL0     H 3355   8.443   4.747  11.396  1.1798  2.2581  0.3008
  766MOL0     H 3356   8.598   4.735  11.312 -1.6542  1.0915 -0.8672
  766MOL0     H 3357   8.434   4.495  11.402  1.6498  0.1366  0.8206
  766MOL0     H 3358   8.426   4.562  11.237  1.2147 -1.1130 -1.2571
  766MOL0     H 3359   8.642   4.401  11.362 -0.3557  0.8164  1.1806
  766MOL0     H 3360   8.681   4.523  11.225 -1.2630  1.2330 -0.3418
  766MOL0     H 3361   8.390   4.259  11.266  0.7213 -4.0666  0.4870
  766MOL0     H 3362   8.358   4.073  10.945 -2.3682 -0.4804 -0.2399
  766MOL0     H 3363   8.360   4.039  11.116  1.3771 -0.8278 -0.7792
  766MOL0     H 3364   8.195   4.274  10.979 -1.0655  0.4549 -1.2281
  766MOL0     H 3365   8.207   4.254  11.154 -2.5821  0.4862 -0.6820
  766MOL0     H 3366   8.008   4.189  11.056 -3.9925 -3.1159  0.8191
  766MOL0     H 3367   8.071   4.064  11.163  0.2290  2.3530  1.9047
  766MOL0     H 3368   8.025   3.904  10.986 -1.6853  0.8673 -0.6537
  766MOL0     H 3369   8.182   3.947  10.950 -0.2409  0.3868  2.3734
  766MOL0     H 3370   7.809   4.023  10.927 -1.1813 -1.5507 -2.7153
  766MOL0     H 3371   7.561   4.259  10.979  2.7022 -0.1567  1.3067
  766MOL0     H 3372   7.502   4.149  10.839  0.2437  0.4050  0.0686
  766MOL0     H 3373   7.596   4.077  10.961  3.6955  0.0761 -1.5912
  766MOL0     H 3374   7.611   4.807  10.666  0.7519  1.0900 -2.6230
  766MOL0     H 3375   7.451   4.934  10.526 -0.0157 -0.0692 -0.3048
  766MOL0     H 3376   7.186   4.872  10.550  2.8393 -0.6273  0.4433
  766MOL0     H 3377   7.255   5.001  10.445 -2.9266  1.7771 -0.7644
  766MOL0     H 3378   7.005   4.840  10.385  0.1315 -0.8492  0.3147
  766MOL0     H 3379   7.010   5.000  10.460 -0.1399 -3.2770  2.9501
  766MOL0     H 3380   7.157   4.947  10.191 -0.1111 -2.1550  0.8482
  766MOL0     H 3381   7.121   5.105  10.270  1.2030 -0.4027 -3.1654
  766MOL0     H 3382   6.904   4.885  10.188  0.5134 -0.0916  0.2061
  766MOL0     H 3383   6.893   5.066  10.235 -1.8628 -1.3351 -0.0524
  766MOL0     H 3384   6.983   4.943   9.968  2.0918  1.5711 -0.7558
  766MOL0     H 3385   7.001   5.112  10.030 -0.8363  0.7593 -0.8937
  766MOL0     H 3386   6.795   5.085   9.885 -1.0069  1.8571  1.0589
  766MOL0     H 3387   6.746   4.943   9.993 -1.1391  0.3765  3.5082
  766MOL0     H 3388   6.699   5.075  10.178  0.0518 -2.0494 -1.1441
  766MOL0     H 3389   6.618   5.159  10.047  0.4462 -3.1912 -4.1335
  766MOL0     H 3390   6.884   5.234  10.163  0.5823 -4.9847 -3.1835
  766MOL0     H 3391   6.733   5.323  10.208  1.3904 -0.1270  0.2442
  766MOL0     H 3392   7.322   4.558  10.362  1.1966  1.3629 -1.4184
  766MOL0     H 3393   7.499   4.444  10.459  0.0990 -0.9424  3.8252
  766MOL0     H 3394   7.880   4.438  10.664 -0.5285 -0.1645 -1.1058
  766MOL0     H 3395   8.055   4.278  10.694 -0.4144  2.1736 -2.8251
  766MOL0     H 3396   9.128   5.142  11.717  0.7464  1.6089  0.1230
  766MOL0     H 3397   9.275   5.280  11.594  0.6979 -0.2569  0.3848
  766MOL0     H 3398   9.444   5.396  11.031 -2.0516 -2.0748  4.2722
  766MOL0     H 3399   9.676   5.453  10.925  1.0897  1.3416  0.9348
  766MOL0     H 3400  10.006   5.403  11.201 -0.7902 -0.2914 -0.1324
  766MOL0     H 3401  10.052   5.255  11.102 -0.5329 -1.2050  2.0343
  766MOL0     H 3402  10.224   5.445  11.107  0.5391  0.4513 -0.3505
  766MOL0     H 3403  10.104   5.558  11.057 -0.9066 -0.1289  0.1888
  766MOL0     H 3404  10.091   5.412  10.822 -1.5799  1.5885  0.9123
  766MOL0     H 3405  10.229   5.330  10.885 -0.6987 -0.2683  2.9759
  766MOL0     H 3406  10.332   5.515  10.743  0.4971  1.0797  0.9377
  766MOL0     H 3407  10.340   5.565  10.911 -1.8280  0.5722  1.6743
  766MOL0     H 3408  10.054   5.820  10.778  1.1252  0.2739 -0.2192
  766MOL0     H 3409   9.862   5.207  11.233  0.5587 -0.9196  1.0344
  766MOL0     H 3410   9.638   5.137  11.311  2.1984 -1.9392 -1.3816
  767MOL0     O 3411   7.084   1.707   2.848  0.0202  0.0399  0.3434
  767MOL0     C 3412   6.994   1.769   2.895 -0.3715 -0.2816 -0.3925
  767MOL0     O 3413   7.005   1.902   2.927  0.0904 -0.4074 -0.3543
  767MOL0     C 3414   7.115   1.970   2.888 -0.0079 -0.0733  0.3687
  767MOL0     C 3415   7.105   2.043   2.772  0.1162 -0.8317 -1.1859
  767MOL0     C 3416   7.211   2.093   2.706 -0.1368 -0.5607  0.5102
  767MOL0     C 3417   7.334   2.109   2.774  0.5101 -0.0942  1.8408
  767MOL0     O 3418   7.431   2.182   2.707 -0.4782  0.0042  0.2614
  767MOL0     C 3419   7.561   2.171   2.750 -0.2031 -0.1896 -0.8343
  767MOL0     C 3420   7.671   2.230   2.659 -0.6499  0.7064  0.4933
  767MOL0     C 3421   7.703   2.376   2.668 -0.0024  0.6582  0.1908
  767MOL0     C 3422   7.573   2.462   2.657  0.0393  1.0591  0.5835
  767MOL0     C 3423   7.612   2.617   2.646  0.0227  0.1558  0.3109
  767MOL0     C 3424   7.484   2.693   2.607 -0.3765  0.6086 -0.5691
  767MOL0     C 3425   7.503   2.843   2.596 -0.9106 -1.2663  0.1781
  767MOL0     C 3426   7.367   2.913   2.585 -0.3840  0.2453  0.4132
  767MOL0     N 3427   7.371   3.051   2.557 -0.7255 -0.1614  0.0601
  767MOL0     C 3428   7.449   3.111   2.460  0.3439  0.6483 -0.1921
  767MOL0     C 3429   7.422   3.239   2.460  0.5889 -0.1651  0.0311
  767MOL0     C 3430   7.441   3.337   2.347 -0.0049  0.8383 -1.0033
  767MOL0     C 3431   7.310   3.398   2.293  0.0859  0.4886  0.1908
  767MOL0     C 3432   7.330   3.518   2.196  0.1657 -0.4170  0.0964
  767MOL0     C 3433   7.381   3.480   2.053 -0.6107 -0.4545 -0.7569
  767MOL0     O 3434   7.275   3.421   1.972  0.5996 -0.1160 -0.2172
  767MOL0     C 3435   7.304   3.343   1.870 -0.2440 -0.2226 -0.7874
  767MOL0     C 3436   7.242   3.366   1.746 -0.3970 -0.1188  0.0463
  767MOL0     C 3437   7.253   3.290   1.637 -1.5133 -0.1349  0.6701
  767MOL0     C 3438   7.172   3.325   1.513 -0.5497 -1.0015 -0.7558
  767MOL0     C 3439   7.353   3.185   1.633 -0.0228 -0.6758 -0.0217
  767MOL0     C 3440   7.395   3.089   1.522 -0.4290  0.5676 -0.4245
  767MOL0     O 3441   7.535   3.085   1.502  0.6233  0.3098  0.3325
  767MOL0     C 3442   7.591   2.985   1.425 -1.0833 -0.7514 -0.6702
  767MOL0     C 3443   7.548   2.853   1.439  0.6289  0.7736  0.5259
  767MOL0     C 3444   7.607   2.758   1.353  0.4344  0.6468  0.0102
  767MOL0     C 3445   7.723   2.777   1.280 -0.0756  0.4800  0.2327
  767MOL0     O 3446   7.784   2.666   1.227  0.5674 -0.9709 -0.6433
  767MOL0     C 3447   7.906   2.671   1.152  0.0260 -0.3494 -0.5718
  767MOL0     C 3448   7.886   2.722   1.012  0.2353  0.7328  0.5462
  767MOL0     C 3449   7.805   2.645   0.911 -1.0503  0.9842  0.5713
  767MOL0     C 3450   7.849   2.490   0.887  0.4636  0.8328  0.5609
  767MOL0     C 3451   7.826   2.458   0.739  1.1652  0.2285 -0.4573
  767MOL0     C 3452   7.820   2.302   0.716  1.1628  0.0922  0.8100
  767MOL0     C 3453   7.965   2.235   0.738  0.1694  0.6148  0.9404
  767MOL0     C 3454   7.968   2.084   0.704 -0.4352  0.2941  1.4588
  767MOL0    Cl 3455   7.830   2.007   0.793 -0.4014 -0.1363 -0.1391
  767MOL0     C 3456   7.774   2.909   1.286 -0.7205  0.8289  0.4207
  767MOL0     C 3457   7.712   3.012   1.354  0.0193 -0.2978  0.2346
  767MOL0     O 3458   7.306   3.027   1.465 -0.4185  0.5809 -0.8849
  767MOL0     C 3459   7.407   3.157   1.756 -0.5446 -0.4375 -0.2898
  767MOL0     C 3460   7.388   3.233   1.874  0.0258 -0.1381  0.2810
  767MOL0     N 3461   7.326   3.267   2.551 -0.1880  0.2141 -0.4314
  767MOL0     N 3462   7.296   3.149   2.610  0.6030 -0.5915 -0.2635
  767MOL0     C 3463   7.352   2.043   2.894 -0.2930 -0.2111  0.2840
  767MOL0     C 3464   7.244   1.965   2.947 -0.1441 -0.3306 -0.2669
  767MOL0     C 3465   6.866   1.714   2.898  1.7145  0.6156 -0.8367
  767MOL0     C 3466   6.834   1.574   2.864 -0.8964 -0.2884 -1.3370
  767MOL0     C 3467   6.705   1.519   2.877 -0.1813  0.1457  0.0988
  767MOL0     C 3468   6.599   1.591   2.928 -0.0793  0.2391 -0.1812
  767MOL0     O 3469   6.473   1.531   2.934  0.7435  0.4349 -0.2763
  767MOL0     C 3470   6.419   1.492   3.058  0.4812 -0.0095  0.5905
  767MOL0     C 3471   6.270   1.457   3.045  0.7054  0.4149  0.5298
  767MOL0     C 3472   6.216   1.384   3.161  0.2374  0.3789  0.2034
  767MOL0     C 3473   6.218   1.236   3.150  0.3162 -1.0185 -0.9205
  767MOL0     C 3474   6.346   1.189   3.183 -0.5166  0.0275 -0.0729
  767MOL0     C 3475   6.457   1.143   3.225 -0.8360 -0.6340 -0.0173
  767MOL0     C 3476   6.624   1.728   2.962 -0.5258  0.2711  0.9098
  767MOL0     C 3477   6.757   1.783   2.949  0.5562 -0.4393 -0.0076
  767MOL0     H 3478   7.003   2.031   2.736 -0.0309 -1.6501 -0.5371
  767MOL0     H 3479   7.176   2.136   2.613 -2.1816  1.3116  2.0437
  767MOL0     H 3480   7.579   2.212   2.849  1.8276  1.3331 -1.7642
  767MOL0     H 3481   7.581   2.063   2.758 -1.9619 -0.5888 -1.3528
  767MOL0     H 3482   7.767   2.177   2.668  0.7161  2.6960 -1.3089
  767MOL0     H 3483   7.637   2.220   2.555 -1.6953 -0.5450  0.9287
  767MOL0     H 3484   7.752   2.405   2.762  0.8123  0.3063 -0.1131
  767MOL0     H 3485   7.770   2.396   2.584 -2.3631  1.2618 -1.6503
  767MOL0     H 3486   7.509   2.423   2.578  0.6284  1.6695 -0.2100
  767MOL0     H 3487   7.509   2.444   2.744  2.9577 -1.4382  2.4516
  767MOL0     H 3488   7.656   2.660   2.736  1.4830  1.9467 -1.1773
  767MOL0     H 3489   7.681   2.612   2.562 -1.1374 -2.3943 -0.5976
  767MOL0     H 3490   7.442   2.649   2.516 -1.9145 -1.5119  1.0550
  767MOL0     H 3491   7.412   2.685   2.689  1.0526  2.8840  1.0143
  767MOL0     H 3492   7.550   2.879   2.688 -1.8076  2.0165 -0.5013
  767MOL0     H 3493   7.566   2.873   2.511 -2.7238  0.1746 -0.7563
  767MOL0     H 3494   7.291   2.908   2.663 -0.1045  1.3515  0.7749
  767MOL0     H 3495   7.317   2.861   2.503  2.8626 -3.4134  0.4700
  767MOL0     H 3496   7.510   3.059   2.387  1.5421 -2.3107  2.6397
  767MOL0     H 3497   7.502   3.418   2.387 -0.9359  1.5499 -0.9855
  767MOL0     H 3498   7.496   3.300   2.261  1.7520  1.7572 -0.3213
  767MOL0     H 3499   7.244   3.425   2.376  0.4218  1.3906  0.1669
  767MOL0     H 3500   7.264   3.316   2.237  2.9570 -0.5460 -0.8300
  767MOL0     H 3501   7.391   3.598   2.239 -3.1703  2.0267  0.7023
  767MOL0     H 3502   7.235   3.567   2.174  2.0395  1.9753 -3.8873
  767MOL0     H 3503   7.480   3.432   2.053  0.4424  1.4890 -2.9217
  767MOL0     H 3504   7.407   3.574   2.003  0.9146 -1.0800 -1.2156
  767MOL0     H 3505   7.195   3.464   1.744  0.1119  0.2063  1.7759
  767MOL0     H 3506   7.220   3.296   1.419  2.0368 -1.2376  0.5332
  767MOL0     H 3507   7.072   3.282   1.523 -0.5757 -0.4561  2.3174
  767MOL0     H 3508   7.171   3.434   1.505  3.8188 -0.6843  0.5712
  767MOL0     H 3509   7.454   2.826   1.485 -0.7721  0.4702 -2.2899
  767MOL0     H 3510   7.567   2.657   1.349  0.6470  0.5703 -0.1763
  767MOL0     H 3511   7.973   2.732   1.214 -1.0865 -0.3076  0.6439
  767MOL0     H 3512   7.970   2.583   1.150  4.5547  2.5775 -1.1954
  767MOL0     H 3513   7.851   2.825   1.010 -1.5061  0.2381  2.4902
  767MOL0     H 3514   7.988   2.720   0.971 -0.0016 -1.1638 -0.0768
  767MOL0     H 3515   7.807   2.697   0.815  0.1306 -3.2751 -1.9836
  767MOL0     H 3516   7.702   2.654   0.945 -1.3086  0.5694 -0.0781
  767MOL0     H 3517   7.949   2.485   0.929  0.3391  1.5741  0.9627
  767MOL0     H 3518   7.781   2.429   0.947  0.2351  2.8631  2.4959
  767MOL0     H 3519   7.906   2.501   0.680 -0.0321  0.7844 -1.7162
  767MOL0     H 3520   7.735   2.507   0.703  0.7639 -0.9911 -1.1595
  767MOL0     H 3521   7.750   2.262   0.790  0.9989  1.8093  1.6481
  767MOL0     H 3522   7.784   2.271   0.618 -1.8940 -1.2124  2.2169
  767MOL0     H 3523   8.000   2.251   0.840  2.1586 -0.0033  0.3979
  767MOL0     H 3524   8.038   2.294   0.682  1.2572  0.5632  2.2537
  767MOL0     H 3525   8.065   2.048   0.739  0.5425  5.2627  4.8584
  767MOL0     H 3526   7.951   2.052   0.601 -0.8383 -0.9271  1.8831
  767MOL0     H 3527   7.862   2.922   1.224 -0.3918 -1.1845  0.4164
  767MOL0     H 3528   7.775   3.100   1.358  2.4887 -2.0138  1.3532
  767MOL0     H 3529   7.472   3.072   1.770  0.7759  0.5550 -0.1221
  767MOL0     H 3530   7.446   3.208   1.962 -1.3361  3.3357  2.3779
  767MOL0     H 3531   7.447   2.063   2.941  2.1402 -0.8907 -3.8331
  767MOL0     H 3532   7.269   1.903   3.032  2.7986  2.1569  0.8976
  767MOL0     H 3533   6.910   1.506   2.828 -0.0983  1.8339 -4.0119
  767MOL0     H 3534   6.710   1.417   2.840 -1.9940 -0.0251  0.2630
  767MOL0     H 3535   6.484   1.415   3.099 -1.3394 -0.9424  1.8537
  767MOL0     H 3536   6.423   1.578   3.126 -2.0175  0.9465 -0.3341
  767MOL0     H 3537   6.250   1.387   2.963  0.1363  1.9387 -0.6704
  767MOL0     H 3538   6.219   1.552   3.031  2.2387  1.1553 -0.3087
  767MOL0     H 3539   6.112   1.419   3.152  0.5192  0.8475 -1.8728
  767MOL0     H 3540   6.246   1.422   3.258 -0.1756  2.0610 -0.2997
  767MOL0     H 3541   6.182   1.187   3.059 -1.1537  1.2681 -1.6802
  767MOL0     H 3542   6.161   1.193   3.233  1.5333  0.6929  0.9082
  767MOL0     H 3543   6.558   1.127   3.255 -0.1457  3.4447  0.4282
  767MOL0     H 3544   6.543   1.792   2.997  1.7071  2.9674  1.4939
  767MOL0     H 3545   6.764   1.880   2.996 -3.3522  0.9360 -1.8287
  768MOL0     O 3546   6.404   8.433  10.519  1.3647 -0.1350  0.2034
  768MOL0     C 3547   6.460   8.358  10.596  0.7621 -0.0080 -0.0237
  768MOL0     O 3548   6.547   8.398  10.692 -0.4654 -0.3000  0.1312
  768MOL0     C 3549   6.552   8.533  10.716  0.2808  0.2364 -0.6587
  768MOL0     C 3550   6.451   8.603  10.768  1.1586 -0.1420 -0.8082
  768MOL0     C 3551   6.463   8.737  10.804  0.4541 -0.8513  0.1354
  768MOL0     C 3552   6.585   8.806  10.787 -0.0390  0.7688  0.0498
  768MOL0     O 3553   6.596   8.940  10.819  0.4989 -0.1439 -0.0891
  768MOL0     C 3554   6.544   8.982  10.944  0.1374 -0.5162  0.0356
  768MOL0     C 3555   6.545   9.139  10.956  0.1125 -0.0858 -0.7195
  768MOL0     C 3556   6.447   9.205  10.853  0.0674 -0.5079 -0.1940
  768MOL0     C 3557   6.312   9.146  10.848  0.0247  0.1074  0.2831
  768MOL0     C 3558   6.223   9.240  10.755 -0.0936  0.7924 -0.3489
  768MOL0     C 3559   6.237   9.187  10.612  0.6315 -0.3021  1.1058
  768MOL0     C 3560   6.136   9.240  10.514 -0.5738  0.2268 -0.3177
  768MOL0     C 3561   6.146   9.180  10.374 -0.4000 -0.1055 -0.0515
  768MOL0     N 3562   6.072   9.249  10.265  0.9586 -0.2191 -0.5228
  768MOL0     C 3563   5.939   9.233  10.224  0.1968  1.1599 -0.6713
  768MOL0     C 3564   5.916   9.330  10.137 -0.0551 -0.6628 -0.2558
  768MOL0     C 3565   5.793   9.377  10.068  0.9815 -0.0416  0.3616
  768MOL0     C 3566   5.816   9.505   9.989 -0.6727 -0.5239  0.0003
  768MOL0     C 3567   5.684   9.596   9.979  0.2231  0.6128  0.6818
  768MOL0     C 3568   5.731   9.722   9.901 -0.3401 -0.3355  0.4313
  768MOL0     O 3569   5.626   9.799   9.848  0.1938  0.0489 -0.1520
  768MOL0     C 3570   5.541   9.847   9.946 -0.1092  0.7731 -0.2738
  768MOL0     C 3571   5.572   9.904  10.068  0.0784 -0.1417 -0.2918
  768MOL0     C 3572   5.474   9.962  10.161  0.6351  0.2847 -0.3548
  768MOL0     C 3573   5.528  10.031  10.289 -0.1051 -0.1838  0.5048
  768MOL0     C 3574   5.336   9.965  10.103 -0.2086  0.0271 -0.2484
  768MOL0     C 3575   5.236  10.035  10.177  1.0601 -0.7186 -0.2533
  768MOL0     O 3576   5.131  10.082  10.094  0.2601  0.1449 -1.1823
  768MOL0     C 3577   5.013  10.132  10.148  0.1856 -0.3635 -0.5594
  768MOL0     C 3578   4.898  10.055  10.172  0.0618 -0.2534  0.5070
  768MOL0     C 3579   4.782  10.119  10.211  0.5886  0.6568  0.1071
  768MOL0     C 3580   4.775  10.256  10.241 -0.8755  0.6096 -0.2018
  768MOL0     O 3581   4.661  10.325  10.270 -0.6841  0.1470  1.2115
  768MOL0     C 3582   4.577  10.270  10.371 -0.4808  0.2808  0.3157
  768MOL0     C 3583   4.458  10.359  10.394 -0.0783 -0.0069 -0.6940
  768MOL0     C 3584   4.364  10.376  10.277 -0.0667  0.2968  0.6008
  768MOL0     C 3585   4.247  10.480  10.291  0.5412 -0.0160 -0.8205
  768MOL0     C 3586   4.294  10.624  10.305 -0.4383 -0.1821  1.1338
  768MOL0     C 3587   4.173  10.726  10.282  0.0962  0.9009 -0.1141
  768MOL0     C 3588   4.237  10.863  10.291 -0.0402 -1.0112 -0.4146
  768MOL0     C 3589   4.125  10.969  10.322 -1.0942  0.0565  0.4007
  768MOL0    Cl 3590   4.010  10.990  10.181 -0.2900  0.0425 -0.2087
  768MOL0     C 3591   4.890  10.332  10.232 -1.1300  0.5986 -0.5613
  768MOL0     C 3592   5.011  10.267  10.199  0.5009 -0.4938  0.3984
  768MOL0     O 3593   5.237  10.044  10.297  0.8148 -0.0901  0.2127
  768MOL0     C 3594   5.305   9.891   9.980  0.7134 -0.4182 -0.0052
  768MOL0     C 3595   5.410   9.837   9.909 -1.0057 -0.1990  1.1544
  768MOL0     N 3596   6.038   9.398  10.117  0.3087 -0.3604 -0.2001
  768MOL0     N 3597   6.128   9.349  10.193 -0.1624  0.4249 -0.0367
  768MOL0     C 3598   6.696   8.736  10.741  0.7579 -0.5499 -0.1341
  768MOL0     C 3599   6.671   8.599  10.700  0.1445  0.2640 -0.1162
  768MOL0     C 3600   6.436   8.215  10.580  1.0965 -0.3763 -0.4202
  768MOL0     C 3601   6.512   8.122  10.656 -0.3986 -0.6876  0.7645
  768MOL0     C 3602   6.482   7.989  10.641  0.8055 -0.4081 -0.1479
  768MOL0     C 3603   6.385   7.938  10.550  0.5843  0.1038 -0.5657
  768MOL0     O 3604   6.359   7.803  10.535  0.5905 -0.1466  0.3155
  768MOL0     C 3605   6.384   7.712  10.645 -0.2707 -1.4542  0.5897
  768MOL0     C 3606   6.304   7.590  10.630 -0.7222  0.5426  0.0245
  768MOL0     C 3607   6.321   7.482  10.735 -0.9578 -0.6028 -0.0089
  768MOL0     C 3608   6.214   7.386  10.760  0.7280 -0.2269  0.3500
  768MOL0     C 3609   6.207   7.301  10.642 -0.6295 -0.5301  0.0955
  768MOL0     C 3610   6.178   7.235  10.555 -0.1311  0.2705  1.5101
  768MOL0     C 3611   6.313   8.032  10.472 -0.5683  0.0927  0.4868
  768MOL0     C 3612   6.333   8.166  10.493 -0.4161 -0.6336  0.4435
  768MOL0     H 3613   6.351   8.561  10.781  0.0786  1.5543 -3.0138
  768MOL0     H 3614   6.375   8.784  10.846  0.2499  1.5765 -2.7407
  768MOL0     H 3615   6.445   8.954  10.979 -0.1601 -1.0385 -1.1554
  768MOL0     H 3616   6.621   8.965  11.020 -2.4166  2.0311  3.4792
  768MOL0     H 3617   6.513   9.172  11.055  0.4520  0.6373 -0.8447
  768MOL0     H 3618   6.646   9.181  10.944 -0.7953  2.9022  1.0714
  768MOL0     H 3619   6.438   9.307  10.892 -1.4359 -1.4986  2.3064
  768MOL0     H 3620   6.486   9.217  10.751  1.2403 -0.0343  0.3052
  768MOL0     H 3621   6.322   9.047  10.804 -0.8210 -0.8318  2.1245
  768MOL0     H 3622   6.273   9.122  10.947  0.1903 -1.6183 -0.0442
  768MOL0     H 3623   6.119   9.227  10.788  0.7331 -0.7190  1.9487
  768MOL0     H 3624   6.256   9.344  10.762  2.2995 -0.0031  2.8024
  768MOL0     H 3625   6.333   9.214  10.569 -0.7806  1.7146 -1.0042
  768MOL0     H 3626   6.237   9.078  10.613  0.5117 -0.3237  0.0059
  768MOL0     H 3627   6.036   9.217  10.551  0.1580 -1.8756  0.4602
  768MOL0     H 3628   6.137   9.350  10.512 -1.2650  0.6264  5.5831
  768MOL0     H 3629   6.106   9.078  10.375 -0.9566  0.1045 -0.4357
  768MOL0     H 3630   6.251   9.172  10.346  0.2523  2.9589  1.1693
  768MOL0     H 3631   5.869   9.159  10.261  0.3975  0.1917 -2.1260
  768MOL0     H 3632   5.747   9.303  10.001  0.7243 -1.5352  2.1127
  768MOL0     H 3633   5.714   9.404  10.139 -0.6717  3.2697 -2.4114
  768MOL0     H 3634   5.866   9.473   9.897  0.9419  0.2304  0.5833
  768MOL0     H 3635   5.880   9.577  10.040 -1.1580  1.3491 -1.9016
  768MOL0     H 3636   5.636   9.616  10.075 -1.9653 -0.1495 -0.2020
  768MOL0     H 3637   5.606   9.544   9.923  0.4258  2.7791 -1.7435
  768MOL0     H 3638   5.794   9.686   9.818 -0.8246  4.0701 -2.1513
  768MOL0     H 3639   5.795   9.790   9.958  0.1142 -0.7856  0.4708
  768MOL0     H 3640   5.677   9.927  10.087 -0.2743 -0.4425  2.3728
  768MOL0     H 3641   5.512  10.140  10.286 -0.5540 -0.2625 -0.1723
  768MOL0     H 3642   5.472  10.014  10.381 -0.3667 -0.2407  0.3356
  768MOL0     H 3643   5.633  10.020  10.317  0.4380  1.7225 -0.5383
  768MOL0     H 3644   4.897   9.948  10.152  1.2862 -0.0153 -1.0314
  768MOL0     H 3645   4.691  10.061  10.216  0.5954  0.3381 -2.3372
  768MOL0     H 3646   4.546  10.171  10.335  1.1085 -0.3188  0.5116
  768MOL0     H 3647   4.638  10.260  10.461 -0.9336 -1.1304  0.4923
  768MOL0     H 3648   4.413  10.330  10.490 -0.4765  4.4136  0.6890
  768MOL0     H 3649   4.494  10.462  10.403 -4.1629  1.5876 -0.2133
  768MOL0     H 3650   4.324  10.276  10.255 -2.9654  1.4364  0.2290
  768MOL0     H 3651   4.419  10.397  10.184 -0.6934 -3.7794 -0.9224
  768MOL0     H 3652   4.178  10.470  10.207  0.7511  0.6593 -1.0843
  768MOL0     H 3653   4.194  10.451  10.382 -1.3582 -3.3645 -2.8136
  768MOL0     H 3654   4.377  10.647  10.237  0.0627  0.3201  1.9037
  768MOL0     H 3655   4.340  10.625  10.404 -1.5282 -4.0268  1.8079
  768MOL0     H 3656   4.102  10.711  10.200  0.7598  1.3202 -0.7740
  768MOL0     H 3657   4.116  10.706  10.373  0.2320 -0.2210 -0.2616
  768MOL0     H 3658   4.294  10.883  10.200  2.7038  3.7760  1.9515
  768MOL0     H 3659   4.305  10.879  10.375 -2.7700  4.8906  1.2360
  768MOL0     H 3660   4.188  11.057  10.337  1.6880 -1.4627 -1.4466
  768MOL0     H 3661   4.066  10.948  10.411 -1.2230 -0.8086  0.1179
  768MOL0     H 3662   4.894  10.436  10.259  1.7942 -0.1160  2.3300
  768MOL0     H 3663   5.104  10.320  10.183 -0.5111  1.1407 -0.3221
  768MOL0     H 3664   5.203   9.872   9.948  1.4799 -0.8357 -2.4133
  768MOL0     H 3665   5.384   9.796   9.811  1.4911  0.6283  0.0604
  768MOL0     H 3666   6.789   8.792  10.739 -0.1920  1.1621 -3.6694
  768MOL0     H 3667   6.762   8.541  10.685  1.4731  1.2740  3.1882
  768MOL0     H 3668   6.591   8.158  10.720  0.8413 -1.9046 -0.0371
  768MOL0     H 3669   6.550   7.919  10.687  1.9965 -0.4470 -1.8631
  768MOL0     H 3670   6.489   7.682  10.637  0.4118  0.6929  0.8138
  768MOL0     H 3671   6.367   7.753  10.745  0.5641  3.3838 -0.9528
  768MOL0     H 3672   6.332   7.539  10.537  1.0018  0.8977  0.3252
  768MOL0     H 3673   6.198   7.616  10.621 -0.5766  1.5044  0.9513
  768MOL0     H 3674   6.352   7.529  10.829 -3.3467  3.4061 -0.9658
  768MOL0     H 3675   6.406   7.425  10.696 -1.0738 -1.1127  0.4820
  768MOL0     H 3676   6.122   7.445  10.768  0.8234 -0.1377  0.8102
  768MOL0     H 3677   6.232   7.326  10.850 -0.0899 -0.5192  0.3286
  768MOL0     H 3678   6.137   7.180  10.473  0.1401  1.7776  0.3352
  768MOL0     H 3679   6.235   7.988  10.410 -0.8924 -0.2192  1.1033
  768MOL0     H 3680   6.276   8.238  10.434 -1.5105 -2.8120 -1.3013
  769MOL0     O 3681   9.917   5.353   4.221  0.1817  0.5135 -0.1251
  769MOL0     C 3682   9.944   5.432   4.308  0.7611 -0.4152 -0.2128
  769MOL0     O 3683   9.962   5.558   4.291  0.4854  0.3344  0.8499
  769MOL0     C 3684   9.991   5.603   4.157 -0.2153 -0.4824  0.1730
  769MOL0     C 3685   9.941   5.727   4.108  0.0507 -0.3945 -0.7709
  769MOL0     C 3686   9.964   5.771   3.980 -0.0542 -0.3905 -0.1061
  769MOL0     C 3687  10.053   5.700   3.889 -0.0015 -0.4147 -0.5419
  769MOL0     O 3688  10.047   5.734   3.757 -0.4921  0.4395  0.6828
  769MOL0     C 3689  10.156   5.683   3.678  0.7099 -0.1046  0.5536
  769MOL0     C 3690  10.182   5.760   3.552 -0.6251 -0.1551 -0.4687
  769MOL0     C 3691  10.102   5.714   3.429  0.1186  0.0756  0.4499
  769MOL0     C 3692  10.136   5.800   3.306 -0.6328 -0.6818 -0.7905
  769MOL0     C 3693  10.054   5.767   3.181 -0.0529 -0.1297 -0.4221
  769MOL0     C 3694  10.051   5.876   3.078 -0.8368  0.4508  0.5930
  769MOL0     C 3695   9.999   6.014   3.119  0.0237  0.0925  0.5679
  769MOL0     C 3696   9.874   6.017   3.212  0.3304 -0.4134 -0.2793
  769MOL0     N 3697   9.748   5.967   3.155 -0.0512 -0.2600  0.5832
  769MOL0     C 3698   9.677   6.023   3.053 -0.4470 -0.9744  0.1622
  769MOL0     C 3699   9.587   5.930   3.012  1.2563 -0.1895 -0.6157
  769MOL0     C 3700   9.502   5.955   2.884 -0.4737 -0.4186 -0.3694
  769MOL0     C 3701   9.391   5.858   2.847 -0.3756  0.9473 -0.1839
  769MOL0     C 3702   9.443   5.721   2.798  0.5153  0.3442  1.0940
  769MOL0     C 3703   9.514   5.721   2.661  0.4437  0.1160 -0.5491
  769MOL0     O 3704   9.419   5.763   2.560  0.0099 -0.2326  0.5679
  769MOL0     C 3705   9.460   5.819   2.441 -0.0657 -0.2668 -0.3363
  769MOL0     C 3706   9.595   5.824   2.404 -0.1978 -0.3724 -0.0123
  769MOL0     C 3707   9.639   5.887   2.289  0.2289  0.3594 -0.2945
  769MOL0     C 3708   9.783   5.889   2.246  0.0690 -0.6178  0.0957
  769MOL0     C 3709   9.544   5.932   2.194  0.6305 -0.4085  0.3698
  769MOL0     C 3710   9.578   6.000   2.062 -0.6850 -0.4896 -0.0939
  769MOL0     O 3711   9.483   5.981   1.964  0.3287 -0.2990 -0.4479
  769MOL0     C 3712   9.480   6.075   1.866 -0.2528  0.4622 -0.8313
  769MOL0     C 3713   9.573   6.078   1.766 -0.0325  0.6737 -0.0010
  769MOL0     C 3714   9.581   6.186   1.676 -1.7332 -0.5120 -0.7791
  769MOL0     C 3715   9.505   6.296   1.690  0.7711  0.2937 -1.0056
  769MOL0     O 3716   9.528   6.386   1.586  0.0674 -0.5782 -0.6312
  769MOL0     C 3717   9.444   6.500   1.582 -0.4828  1.1634  0.6621
  769MOL0     C 3718   9.525   6.620   1.512  0.5502  0.1893 -0.0449
  769MOL0     C 3719   9.427   6.724   1.443 -0.2615  0.4765 -0.6606
  769MOL0     C 3720   9.345   6.803   1.546 -0.4211  0.5830 -0.4324
  769MOL0     C 3721   9.240   6.889   1.477  0.0103  0.4723  0.6515
  769MOL0     C 3722   9.192   7.011   1.551  0.3100  0.0361  0.3423
  769MOL0     C 3723   9.106   6.963   1.669  0.5428 -0.6841  0.4886
  769MOL0     C 3724   9.085   7.087   1.750 -0.2741  0.4777 -0.5949
  769MOL0    Cl 3725   9.032   7.041   1.919  0.5978  0.0354  0.8246
  769MOL0     C 3726   9.398   6.292   1.788  0.1881  0.1041 -0.3023
  769MOL0     C 3727   9.390   6.184   1.878  1.5291 -0.9768 -0.1394
  769MOL0     O 3728   9.682   6.065   2.047 -0.1126  0.1054 -0.3106
  769MOL0     C 3729   9.411   5.942   2.240  0.2757 -0.0406  0.3445
  769MOL0     C 3730   9.365   5.880   2.361  1.2547 -0.4820  0.0907
  769MOL0     N 3731   9.602   5.822   3.086  0.1042 -0.2433 -0.7983
  769MOL0     N 3732   9.706   5.838   3.170  0.6907 -0.3876 -0.0395
  769MOL0     C 3733  10.117   5.579   3.945 -0.8209 -0.3390  0.5748
  769MOL0     C 3734  10.083   5.536   4.074  0.6604 -0.2835 -0.2238
  769MOL0     C 3735   9.934   5.405   4.450 -0.2695  0.1596 -0.4570
  769MOL0     C 3736   9.957   5.277   4.494 -0.1108  0.1566  1.0052
  769MOL0     C 3737   9.973   5.248   4.628  0.6029  0.6316  0.3211
  769MOL0     C 3738   9.974   5.336   4.733  0.5836  0.4584  0.7743
  769MOL0     O 3739   9.999   5.294   4.861  0.2674  0.0962 -0.1390
  769MOL0     C 3740  10.017   5.379   4.973 -0.8156  0.3520 -0.6097
  769MOL0     C 3741  10.169   5.433   4.986  0.8722  0.6410  0.5398
  769MOL0     C 3742  10.230   5.509   4.862 -0.4763 -0.2014  0.2924
  769MOL0     C 3743  10.339   5.607   4.916 -0.0763  0.2317  0.2075
  769MOL0     C 3744  10.279   5.741   4.943 -1.0463 -1.7881  0.4535
  769MOL0     C 3745  10.237   5.859   4.933 -0.3510  1.0862 -0.3848
  769MOL0     C 3746   9.950   5.478   4.693 -0.6186 -0.6227 -1.0779
  769MOL0     C 3747   9.929   5.504   4.552 -0.2541  0.0369  1.2804
  769MOL0     H 3748   9.890   5.799   4.171  0.4209 -1.5551  0.9112
  769MOL0     H 3749   9.929   5.864   3.936 -1.0781 -0.9025 -0.4022
  769MOL0     H 3750  10.244   5.672   3.741  0.4611  1.3617  1.1985
  769MOL0     H 3751  10.141   5.579   3.646  1.7508 -0.5828  1.5472
  769MOL0     H 3752  10.167   5.865   3.578 -1.2128 -0.9727  3.1089
  769MOL0     H 3753  10.289   5.748   3.532  0.0923 -0.4684  2.9560
  769MOL0     H 3754  10.093   5.606   3.410  0.8880 -0.5127  3.0418
  769MOL0     H 3755   9.997   5.734   3.451 -1.2776 -5.1397 -0.1614
  769MOL0     H 3756  10.123   5.907   3.327 -0.2615 -0.8531  0.3401
  769MOL0     H 3757  10.240   5.797   3.270 -1.0870  4.2565 -3.4670
  769MOL0     H 3758  10.099   5.675   3.141  1.0827  0.4352 -0.4840
  769MOL0     H 3759   9.952   5.746   3.215  0.0416  1.0911  0.6886
  769MOL0     H 3760  10.149   5.894   3.032  1.3355 -3.5955  3.1249
  769MOL0     H 3761   9.990   5.832   2.998  0.2299 -0.6821  0.3693
  769MOL0     H 3762  10.072   6.048   3.193  0.8679 -1.5692  0.5502
  769MOL0     H 3763   9.976   6.083   3.038 -3.8657  2.0693  3.0424
  769MOL0     H 3764   9.852   6.122   3.229 -1.1661 -0.9878  1.6076
  769MOL0     H 3765   9.882   5.955   3.301 -1.7125 -0.9356 -0.3973
  769MOL0     H 3766   9.690   6.123   3.015 -0.2282 -1.2266 -0.4459
  769MOL0     H 3767   9.448   6.049   2.901  0.0981 -0.3825  1.5275
  769MOL0     H 3768   9.565   5.972   2.796 -1.3993 -0.9258 -1.1353
  769MOL0     H 3769   9.344   5.907   2.762  1.3956  0.8361 -1.2866
  769MOL0     H 3770   9.332   5.853   2.939 -2.6289 -1.2493 -1.6338
  769MOL0     H 3771   9.350   5.665   2.788  0.1673  0.3640  3.6394
  769MOL0     H 3772   9.497   5.662   2.872  1.3419  0.7566  0.8330
  769MOL0     H 3773   9.549   5.621   2.635  1.9936  0.3335  0.5099
  769MOL0     H 3774   9.595   5.793   2.675 -1.2608  2.2775 -1.2391
  769MOL0     H 3775   9.666   5.781   2.473 -0.6547 -0.3581  0.4717
  769MOL0     H 3776   9.837   5.844   2.330 -2.7366 -0.6360  2.0183
  769MOL0     H 3777   9.790   5.815   2.166 -2.3356  0.9540 -1.6836
  769MOL0     H 3778   9.829   5.985   2.219  5.2671 -3.1143 -1.3020
  769MOL0     H 3779   9.644   5.996   1.774  0.6841  1.1652 -1.0533
  769MOL0     H 3780   9.650   6.205   1.594 -0.8777  1.4997  0.3402
  769MOL0     H 3781   9.352   6.469   1.530 -0.4120  2.2678 -0.1682
  769MOL0     H 3782   9.417   6.535   1.682  1.1677  0.5768  1.3418
  769MOL0     H 3783   9.582   6.676   1.586  0.8398  3.0786 -2.2857
  769MOL0     H 3784   9.605   6.582   1.448 -0.2965 -1.0102 -0.4439
  769MOL0     H 3785   9.369   6.668   1.369  2.9715 -2.4191 -1.2026
  769MOL0     H 3786   9.496   6.788   1.387 -1.0045  1.6211 -0.3164
  769MOL0     H 3787   9.307   6.729   1.617 -0.6106  0.4873 -0.6326
  769MOL0     H 3788   9.408   6.866   1.610 -1.6947 -0.1680  1.6687
  769MOL0     H 3789   9.148   6.837   1.451 -0.0449  1.4228 -1.2465
  769MOL0     H 3790   9.291   6.928   1.388  0.9336  0.1413  1.0255
  769MOL0     H 3791   9.280   7.065   1.586 -0.0086 -0.2225  1.5858
  769MOL0     H 3792   9.130   7.075   1.487  0.9757 -0.2797 -0.6534
  769MOL0     H 3793   9.172   6.894   1.724 -0.4495 -1.3799  0.8357
  769MOL0     H 3794   9.009   6.926   1.634 -0.0108 -0.7369  1.9998
  769MOL0     H 3795   9.019   7.162   1.705  0.9720  2.2658  0.3868
  769MOL0     H 3796   9.181   7.133   1.775 -1.1647  1.0183  2.1441
  769MOL0     H 3797   9.334   6.379   1.781 -1.9932 -1.4831 -1.3346
  769MOL0     H 3798   9.313   6.178   1.954  3.0646 -0.9528  1.4958
  769MOL0     H 3799   9.332   5.976   2.174  1.7138  0.0903 -1.3690
  769MOL0     H 3800   9.261   5.892   2.388  1.2480 -1.9719  0.8513
  769MOL0     H 3801  10.186   5.522   3.883 -0.6820  2.1865 -1.8077
  769MOL0     H 3802  10.126   5.446   4.117 -0.5010 -0.5889  0.3379
  769MOL0     H 3803   9.978   5.203   4.418 -1.6009  0.0254  0.6959
  769MOL0     H 3804   9.998   5.145   4.652  2.1043  0.3538 -2.1331
  769MOL0     H 3805   9.948   5.463   4.974 -1.7387 -0.2340 -3.9219
  769MOL0     H 3806  10.009   5.318   5.063 -1.8248  0.8063 -0.3850
  769MOL0     H 3807  10.219   5.336   4.994  0.9855  0.5401 -1.1055
  769MOL0     H 3808  10.184   5.494   5.075  1.4501  0.8635  0.2876
  769MOL0     H 3809  10.161   5.574   4.808  1.0219  0.7366 -0.5622
  769MOL0     H 3810  10.282   5.440   4.795  1.5238  2.6496 -1.3278
  769MOL0     H 3811  10.419   5.626   4.845  0.1450 -0.1807  0.3446
  769MOL0     H 3812  10.388   5.558   5.001 -1.7073 -2.8274 -0.4812
  769MOL0     H 3813  10.216   5.961   4.908 -1.0277  0.5149 -2.3754
  769MOL0     H 3814   9.948   5.549   4.775 -4.1063 -0.9972 -0.7052
  769MOL0     H 3815   9.919   5.612   4.542  2.6547  0.6278  3.4885
  770MOL0     O 3816  10.673   2.211   5.485 -0.1421  0.0618  0.0384
  770MOL0     C 3817  10.556   2.216   5.527 -0.2185  0.6341  0.5796
  770MOL0     O 3818  10.505   2.304   5.615  0.4897 -0.0090 -0.6392
  770MOL0     C 3819  10.577   2.409   5.646  0.0868 -0.2799 -0.0776
  770MOL0     C 3820  10.639   2.490   5.553 -0.3259  0.6166  0.0213
  770MOL0     C 3821  10.688   2.612   5.599  0.5585 -0.1147  0.7252
  770MOL0     C 3822  10.674   2.663   5.725  1.3844 -0.2855 -0.0716
  770MOL0     O 3823  10.747   2.781   5.755 -0.0130  0.5016  0.2353
  770MOL0     C 3824  10.694   2.845   5.874 -0.8250 -0.7235 -0.0490
  770MOL0     C 3825  10.765   2.982   5.883  0.2941 -0.3339 -0.4611
  770MOL0     C 3826  10.920   2.973   5.856  0.7506  0.3982 -0.1692
  770MOL0     C 3827  10.992   3.107   5.850  1.3328  0.5050 -0.5041
  770MOL0     C 3828  11.140   3.067   5.849  0.0805  0.2980  0.0208
  770MOL0     C 3829  11.235   3.185   5.799  0.7787 -0.7509  0.3517
  770MOL0     C 3830  11.377   3.127   5.799  0.3608 -0.8615 -0.4762
  770MOL0     C 3831  11.456   3.128   5.930  0.6829  0.8693 -0.6332
  770MOL0     N 3832  11.473   3.255   5.999  0.3902 -0.7115  0.7687
  770MOL0     C 3833  11.381   3.314   6.080  0.4676  0.0910 -0.0229
  770MOL0     C 3834  11.445   3.425   6.126 -0.2122  0.3705  0.3694
  770MOL0     C 3835  11.374   3.527   6.208  0.1438 -0.0709  0.0185
  770MOL0     C 3836  11.294   3.630   6.130  0.2456 -0.2520  0.3531
  770MOL0     C 3837  11.367   3.756   6.083  0.6016  0.0853  0.9309
  770MOL0     C 3838  11.269   3.849   6.009  0.0234 -0.5533 -0.4657
  770MOL0     O 3839  11.142   3.879   6.078 -0.2601 -1.3182 -0.1785
  770MOL0     C 3840  11.139   3.968   6.177  0.8473  0.1319  0.3301
  770MOL0     C 3841  11.098   3.933   6.308  0.2730 -0.1911  1.0178
  770MOL0     C 3842  11.115   4.024   6.417 -0.1268  0.2761  0.2993
  770MOL0     C 3843  11.077   3.962   6.553 -0.1094 -0.1329 -0.3035
  770MOL0     C 3844  11.165   4.159   6.391 -0.3770  0.4381  0.1847
  770MOL0     C 3845  11.191   4.258   6.499  0.8614  0.0316 -0.5401
  770MOL0     O 3846  11.242   4.208   6.611 -0.1873 -0.4079  1.1099
  770MOL0     C 3847  11.273   4.289   6.715  1.0082 -0.8584  0.2804
  770MOL0     C 3848  11.395   4.361   6.720 -0.4426  0.4297 -0.2080
  770MOL0     C 3849  11.428   4.436   6.836  0.6642 -0.3275  0.7015
  770MOL0     C 3850  11.329   4.462   6.936  0.9339  0.1862 -0.2521
  770MOL0     O 3851  11.370   4.528   7.045 -0.2947  0.0302 -0.3756
  770MOL0     C 3852  11.270   4.626   7.098  0.3554  0.2414  0.3056
  770MOL0     C 3853  11.342   4.751   7.138 -0.9233  0.4491  0.7915
  770MOL0     C 3854  11.253   4.851   7.206 -0.7906  0.4438 -0.2668
  770MOL0     C 3855  11.329   4.964   7.283  0.2120 -0.7740  0.2181
  770MOL0     C 3856  11.452   4.911   7.364 -0.4437  0.0052  0.5945
  770MOL0     C 3857  11.509   5.018   7.455  0.0024  0.3236  0.8396
  770MOL0     C 3858  11.653   4.996   7.501  0.5502  0.8548 -0.1334
  770MOL0     C 3859  11.705   5.119   7.559  0.4158 -0.5327  0.2319
  770MOL0    Cl 3860  11.884   5.128   7.567  0.7705  0.0913  0.5333
  770MOL0     C 3861  11.203   4.395   6.923  0.0703  0.1904 -0.5647
  770MOL0     C 3862  11.174   4.313   6.815  0.0582  0.1191  0.6317
  770MOL0     O 3863  11.173   4.375   6.475  0.1292  0.6351  0.3671
  770MOL0     C 3864  11.194   4.200   6.259 -0.0945  0.5771  1.0118
  770MOL0     C 3865  11.194   4.100   6.156  0.1662  0.5294  0.2742
  770MOL0     N 3866  11.576   3.417   6.093  0.1963  0.2764 -0.6703
  770MOL0     N 3867  11.594   3.317   6.011  0.2949  0.5155 -0.9839
  770MOL0     C 3868  10.614   2.577   5.820 -0.6384  0.3501  0.1588
  770MOL0     C 3869  10.566   2.452   5.782  0.2911 -0.3557 -0.0978
  770MOL0     C 3870  10.469   2.100   5.484  0.5742 -0.2152  0.0890
  770MOL0     C 3871  10.359   2.065   5.567  0.1374  0.4863 -0.3359
  770MOL0     C 3872  10.265   1.972   5.528  0.1662  0.7548  0.2685
  770MOL0     C 3873  10.286   1.898   5.410 -0.1019 -0.8202 -0.0704
  770MOL0     O 3874  10.202   1.800   5.368 -0.4479  0.1995  0.5492
  770MOL0     C 3875  10.080   1.794   5.436 -0.4596  0.7057 -0.5388
  770MOL0     C 3876   9.985   1.713   5.351  0.5887  0.7554  0.1192
  770MOL0     C 3877   9.838   1.723   5.398 -0.0321  0.5682 -0.6868
  770MOL0     C 3878   9.814   1.640   5.530  0.9187 -0.1913  0.3090
  770MOL0     C 3879   9.791   1.502   5.482  0.1503  0.7335 -0.0729
  770MOL0     C 3880   9.765   1.385   5.444 -0.7001  0.4623 -0.2930
  770MOL0     C 3881  10.392   1.931   5.326 -0.5418 -0.1046 -0.6507
  770MOL0     C 3882  10.491   2.026   5.362  0.2985 -0.2919  0.0802
  770MOL0     H 3883  10.641   2.456   5.450 -0.0731 -0.4981  0.3836
  770MOL0     H 3884  10.737   2.678   5.528 -1.9669  1.8975  0.6956
  770MOL0     H 3885  10.588   2.869   5.864 -0.9357  0.0352  2.3625
  770MOL0     H 3886  10.718   2.790   5.965  1.9124  0.1497 -0.1414
  770MOL0     H 3887  10.712   3.033   5.802 -1.3171  0.6239  1.1320
  770MOL0     H 3888  10.740   3.030   5.978  0.6444  1.6671 -1.3274
  770MOL0     H 3889  10.964   2.905   5.928 -1.8276  0.0175  1.1788
  770MOL0     H 3890  10.936   2.943   5.752  2.3856  3.0584 -0.7710
  770MOL0     H 3891  10.966   3.172   5.766  1.5651  1.0651 -0.1461
  770MOL0     H 3892  10.974   3.159   5.944  0.7485 -0.8008  0.1320
  770MOL0     H 3893  11.164   3.041   5.953 -4.0387 -0.7344  0.8954
  770MOL0     H 3894  11.154   2.978   5.787 -2.0875 -0.8045  0.9493
  770MOL0     H 3895  11.204   3.202   5.695 -1.3128 -0.2939  0.9915
  770MOL0     H 3896  11.220   3.275   5.858 -1.7470  0.4239 -1.8864
  770MOL0     H 3897  11.367   3.021   5.772  0.6175 -1.0553  0.1519
  770MOL0     H 3898  11.432   3.179   5.720 -1.1631 -2.0914 -2.4392
  770MOL0     H 3899  11.549   3.070   5.920 -1.2196 -2.5702 -0.0533
  770MOL0     H 3900  11.396   3.055   5.984 -0.9990  1.3905 -1.7292
  770MOL0     H 3901  11.279   3.288   6.106  1.2260  0.3663  3.6954
  770MOL0     H 3902  11.322   3.463   6.280  0.6914  2.0205  2.4240
  770MOL0     H 3903  11.442   3.586   6.270 -2.1940  1.0916  1.6256
  770MOL0     H 3904  11.209   3.651   6.195  1.5724  0.1123  2.0391
  770MOL0     H 3905  11.268   3.575   6.039  0.3269  0.0508  0.1470
  770MOL0     H 3906  11.445   3.730   6.011 -1.8247 -0.4045 -1.6431
  770MOL0     H 3907  11.415   3.809   6.167 -2.1271  2.5974  1.0618
  770MOL0     H 3908  11.231   3.789   5.926 -2.2287 -0.0217  0.1170
  770MOL0     H 3909  11.309   3.945   5.975  0.0405 -0.7733 -1.0808
  770MOL0     H 3910  11.058   3.835   6.331  1.8030 -0.4644  2.7052
  770MOL0     H 3911  11.057   4.043   6.623  1.9976  2.1801 -2.1613
  770MOL0     H 3912  11.001   3.884   6.542  1.4055 -1.9141  1.1676
  770MOL0     H 3913  11.163   3.913   6.601 -0.0559 -1.0751 -1.3068
  770MOL0     H 3914  11.458   4.351   6.632 -0.9130  1.2932 -0.6593
  770MOL0     H 3915  11.530   4.469   6.853  1.7041 -2.8612 -0.1501
  770MOL0     H 3916  11.192   4.659   7.029 -1.6861  0.3160  2.5421
  770MOL0     H 3917  11.221   4.572   7.179 -2.1676  0.9452 -0.6485
  770MOL0     H 3918  11.420   4.708   7.201 -0.7884 -1.4077 -0.5555
  770MOL0     H 3919  11.390   4.806   7.055 -0.1979 -0.9535  0.2491
  770MOL0     H 3920  11.212   4.799   7.293  0.4913  0.2331  0.2417
  770MOL0     H 3921  11.171   4.888   7.144 -2.8749 -0.4184  1.8079
  770MOL0     H 3922  11.356   5.045   7.214  0.4249  1.3882  2.6976
  770MOL0     H 3923  11.257   4.999   7.357  2.1513  0.4926  1.6084
  770MOL0     H 3924  11.528   4.867   7.299 -1.0701 -0.1195 -0.0687
  770MOL0     H 3925  11.412   4.826   7.420 -0.2813 -1.3589 -1.2584
  770MOL0     H 3926  11.517   5.109   7.394 -0.1988  0.4552  1.0112
  770MOL0     H 3927  11.429   5.028   7.529 -3.5437 -0.7044 -2.5044
  770MOL0     H 3928  11.706   4.985   7.405 -3.9796  3.0562 -3.2618
  770MOL0     H 3929  11.671   4.904   7.556  3.2285  0.7077 -1.0695
  770MOL0     H 3930  11.658   5.126   7.657  0.0594  1.2204 -0.0458
  770MOL0     H 3931  11.665   5.204   7.503  0.0737  0.5783  2.1110
  770MOL0     H 3932  11.133   4.412   7.004  0.1979 -1.2850 -0.1182
  770MOL0     H 3933  11.072   4.274   6.806 -0.0238  0.4702 -0.0101
  770MOL0     H 3934  11.214   4.304   6.233 -1.0081  0.1684 -1.6242
  770MOL0     H 3935  11.202   4.131   6.052 -2.7643  5.3262  1.1707
  770MOL0     H 3936  10.583   2.616   5.916 -3.3349 -0.0531 -0.4457
  770MOL0     H 3937  10.520   2.385   5.855  0.3650 -2.9502 -2.2860
  770MOL0     H 3938  10.347   2.117   5.662  1.6676  0.6448 -0.2182
  770MOL0     H 3939  10.176   1.949   5.585  0.8805 -1.0069  0.7502
  770MOL0     H 3940  10.088   1.750   5.535 -0.0162  2.7373  0.3650
  770MOL0     H 3941  10.035   1.894   5.436  1.3771  1.6114 -2.2977
  770MOL0     H 3942  10.011   1.607   5.345  0.1056  0.4490  2.6545
  770MOL0     H 3943   9.989   1.743   5.245  0.7646  1.3430  0.2885
  770MOL0     H 3944   9.766   1.697   5.320 -1.6112 -0.9549  1.1518
  770MOL0     H 3945   9.826   1.829   5.424  0.4017  0.6281 -0.7195
  770MOL0     H 3946   9.721   1.678   5.573  1.0262 -0.8542  1.1537
  770MOL0     H 3947   9.890   1.647   5.609  3.3680  0.9829 -2.0011
  770MOL0     H 3948   9.735   1.283   5.428  3.0823 -1.0290  1.1189
  770MOL0     H 3949  10.389   1.895   5.223 -1.3076  0.5447 -0.8617
  770MOL0     H 3950  10.557   2.053   5.281  0.9961  2.1902  1.3839
  771MOL0     O 3951   0.289   1.650   7.214  0.2097 -0.5279 -1.3734
  771MOL0     C 3952   0.277   1.532   7.179  0.5987 -0.2771  0.0275
  771MOL0     O 3953   0.386   1.453   7.144 -0.4794 -0.1257  0.5969
  771MOL0     C 3954   0.504   1.508   7.106  0.2272 -0.6667 -0.0029
  771MOL0     C 3955   0.544   1.486   6.975  0.1603  0.9012 -0.0135
  771MOL0     C 3956   0.666   1.521   6.931 -0.1736  0.1627  0.5589
  771MOL0     C 3957   0.754   1.572   7.024  0.1631  0.3146  0.0981
  771MOL0     O 3958   0.882   1.587   6.984  0.4737  0.3300 -0.7203
  771MOL0     C 3959   0.920   1.558   6.851 -0.2869  0.6892  0.1119
  771MOL0     C 3960   1.071   1.578   6.826 -0.0962  0.0414  0.1523
  771MOL0     C 3961   1.166   1.479   6.898 -0.5060 -0.3261  0.6050
  771MOL0     C 3962   1.240   1.552   7.015 -1.0560  0.2698  0.2273
  771MOL0     C 3963   1.161   1.605   7.137  0.1052  0.0460  0.3051
  771MOL0     C 3964   1.274   1.622   7.245  0.1343  0.2590  0.6578
  771MOL0     C 3965   1.219   1.687   7.371  0.6417 -0.5904  0.4921
  771MOL0     C 3966   1.254   1.619   7.497 -0.1871 -0.4542  0.4064
  771MOL0     N 3967   1.403   1.628   7.511  0.4511  0.6381 -0.4496
  771MOL0     C 3968   1.501   1.731   7.487 -0.1756 -1.5417 -0.3413
  771MOL0     C 3969   1.620   1.676   7.534 -0.7235 -0.5781 -0.1906
  771MOL0     C 3970   1.752   1.750   7.556 -0.4800  0.1483  0.3431
  771MOL0     C 3971   1.802   1.813   7.424  0.1659 -0.0824  0.4355
  771MOL0     C 3972   1.949   1.860   7.432 -0.4129  0.1643 -0.1950
  771MOL0     C 3973   2.057   1.755   7.437  0.3290 -0.1077  0.3265
  771MOL0     O 3974   2.079   1.704   7.302  0.0178  0.3894  0.4908
  771MOL0     C 3975   2.200   1.706   7.243 -0.9146  0.4428 -0.2101
  771MOL0     C 3976   2.216   1.619   7.137  0.3348  0.0620 -0.4433
  771MOL0     C 3977   2.335   1.617   7.067 -0.3865 -0.2577  0.0852
  771MOL0     C 3978   2.362   1.495   6.971 -0.3945 -0.3823  0.6161
  771MOL0     C 3979   2.434   1.718   7.084 -0.2720 -0.7843 -0.7142
  771MOL0     C 3980   2.555   1.721   6.997  0.1760  0.0934  1.1805
  771MOL0     O 3981   2.669   1.765   7.047  0.5703 -0.0236 -0.0212
  771MOL0     C 3982   2.779   1.786   6.964  0.1968  0.1128 -0.9090
  771MOL0     C 3983   2.896   1.750   7.028 -0.5922 -0.0446 -0.3532
  771MOL0     C 3984   3.021   1.761   6.962  0.4771  0.7648 -0.2982
  771MOL0     C 3985   3.024   1.801   6.824 -0.6711  0.3816  0.5635
  771MOL0     O 3986   3.147   1.798   6.764 -0.8103 -0.4135  0.6849
  771MOL0     C 3987   3.173   1.831   6.628  0.2992  1.0867  0.1540
  771MOL0     C 3988   3.278   1.742   6.570 -0.3106 -0.0573  0.1184
  771MOL0     C 3989   3.226   1.602   6.548 -1.0702 -0.2278  0.8031
  771MOL0     C 3990   3.306   1.506   6.455  0.1073  0.1114  0.4863
  771MOL0     C 3991   3.231   1.463   6.329  0.4280 -0.1043  0.3244
  771MOL0     C 3992   3.310   1.389   6.222  0.6473 -0.5951 -0.0129
  771MOL0     C 3993   3.340   1.242   6.239  0.0295  0.2395  0.0885
  771MOL0     C 3994   3.453   1.215   6.345 -0.5302 -0.4200 -1.0482
  771MOL0    Cl 3995   3.467   1.039   6.359  0.2873  0.1252 -0.0661
  771MOL0     C 3996   2.904   1.829   6.754 -0.6127 -0.3542  0.3426
  771MOL0     C 3997   2.784   1.819   6.827  0.4663 -0.1973  0.0809
  771MOL0     O 3998   2.529   1.693   6.877  0.0080  0.1746  0.4562
  771MOL0     C 3999   2.416   1.813   7.186  0.9212  0.1980  0.3044
  771MOL0     C 4000   2.299   1.801   7.261  0.0115  0.2256 -0.4372
  771MOL0     N 4001   1.597   1.547   7.568  0.1143  0.9593 -0.9494
  771MOL0     N 4002   1.476   1.511   7.531  0.0236 -0.3734 -0.5989
  771MOL0     C 4003   0.713   1.605   7.154  0.5691 -0.2871  0.1647
  771MOL0     C 4004   0.587   1.573   7.197  0.2941 -0.5430 -0.5450
  771MOL0     C 4005   0.146   1.464   7.188  0.5720  0.4553 -1.6465
  771MOL0     C 4006   0.015   1.529   7.206 -0.7526  0.1838 -0.3573
  771MOL0     C 4007  -0.104   1.444   7.216 -0.4440  0.2466  0.1728
  771MOL0     C 4008  -0.099   1.306   7.236 -0.1499 -0.1704  0.0657
  771MOL0     O 4009  -0.221   1.244   7.260 -0.4172 -0.0840  0.3664
  771MOL0     C 4010  -0.224   1.101   7.274  0.1680  0.5011  0.1456
  771MOL0     C 4011  -0.368   1.063   7.241  0.2033  0.2463 -0.5850
  771MOL0     C 4012  -0.466   1.112   7.355 -0.9865 -0.1535 -0.1173
  771MOL0     C 4013  -0.607   1.051   7.346  0.0425  0.5825 -0.4577
  771MOL0     C 4014  -0.674   1.123   7.244  0.3691 -0.6172  0.7566
  771MOL0     C 4015  -0.720   1.180   7.144  0.7627  0.6096  0.1651
  771MOL0     C 4016   0.030   1.242   7.228 -0.0410 -1.4604  0.8213
  771MOL0     C 4017   0.147   1.320   7.204 -0.5422 -0.3245  0.5195
  771MOL0     H 4018   0.478   1.440   6.903  0.3079  0.5623  0.0665
  771MOL0     H 4019   0.683   1.490   6.829 -1.9161  1.5054 -0.2077
  771MOL0     H 4020   0.898   1.452   6.841 -1.9465  1.1093 -1.1276
  771MOL0     H 4021   0.878   1.616   6.769 -0.4725  0.3584 -0.0280
  771MOL0     H 4022   1.079   1.579   6.717 -2.2392  1.2682 -0.0408
  771MOL0     H 4023   1.083   1.684   6.848 -0.2868  0.4488 -1.5836
  771MOL0     H 4024   1.096   1.403   6.934 -0.3886  0.7386  3.3256
  771MOL0     H 4025   1.245   1.444   6.831  1.2879  1.7070  1.5273
  771MOL0     H 4026   1.309   1.472   7.045  1.1899  0.6794 -3.2988
  771MOL0     H 4027   1.295   1.639   6.977 -0.2710  0.4987  1.7967
  771MOL0     H 4028   1.119   1.703   7.113 -1.7448 -0.1355  2.4811
  771MOL0     H 4029   1.079   1.538   7.162 -2.8013  2.3918 -2.2138
  771MOL0     H 4030   1.309   1.524   7.277 -1.6136 -0.1684  1.3712
  771MOL0     H 4031   1.357   1.677   7.199  1.1172 -1.2127  0.5926
  771MOL0     H 4032   1.242   1.794   7.372  1.8089 -0.8358  0.9517
  771MOL0     H 4033   1.110   1.697   7.364  0.5664 -0.5976  1.5710
  771MOL0     H 4034   1.213   1.518   7.507 -1.4441  0.1828  2.4114
  771MOL0     H 4035   1.207   1.682   7.573  0.1950 -0.5088  0.6908
  771MOL0     H 4036   1.490   1.827   7.436  3.1740 -0.6711  0.3197
  771MOL0     H 4037   1.733   1.830   7.628 -3.0444 -0.4595  0.4387
  771MOL0     H 4038   1.821   1.683   7.606 -2.1283 -0.3477  2.0976
  771MOL0     H 4039   1.741   1.895   7.386 -0.2087  0.5403  2.2760
  771MOL0     H 4040   1.786   1.736   7.348 -1.7031  0.0831  0.5999
  771MOL0     H 4041   1.963   1.932   7.513  0.7857  0.6187 -0.7884
  771MOL0     H 4042   1.959   1.923   7.343  1.4847 -1.4740 -1.1990
  771MOL0     H 4043   2.030   1.677   7.509 -1.6019 -0.0521 -0.2759
  771MOL0     H 4044   2.150   1.797   7.475 -2.0383  4.0987  2.1095
  771MOL0     H 4045   2.142   1.541   7.119 -0.0678 -1.0000  4.4739
  771MOL0     H 4046   2.344   1.533   6.870  1.3642 -1.1236 -0.0181
  771MOL0     H 4047   2.470   1.479   6.980  0.4694  4.6544  3.9498
  771MOL0     H 4048   2.301   1.408   6.994 -0.4457 -0.1456  1.4258
  771MOL0     H 4049   2.903   1.714   7.131 -0.8040  2.7009  0.7210
  771MOL0     H 4050   3.108   1.731   7.020 -0.1984  0.5159  0.6107
  771MOL0     H 4051   3.087   1.808   6.564 -0.3635  1.3050  0.9485
  771MOL0     H 4052   3.198   1.937   6.621 -0.4592  1.2668  0.1250
  771MOL0     H 4053   3.315   1.783   6.476  2.6884 -1.2262  0.6789
  771MOL0     H 4054   3.364   1.739   6.638 -0.7609 -2.1063  0.6811
  771MOL0     H 4055   3.124   1.604   6.509 -0.7493 -1.0690 -0.1196
  771MOL0     H 4056   3.232   1.570   6.653 -2.1791 -0.1694  0.8916
  771MOL0     H 4057   3.408   1.538   6.431 -0.4986  2.1662  0.4963
  771MOL0     H 4058   3.316   1.416   6.517 -2.5638  0.0606  0.9706
  771MOL0     H 4059   3.189   1.546   6.271 -1.9274 -1.3037  0.1629
  771MOL0     H 4060   3.139   1.409   6.357  1.0348 -1.3733 -0.0755
  771MOL0     H 4061   3.260   1.397   6.125  1.1639 -0.9597 -0.3154
  771MOL0     H 4062   3.401   1.447   6.212 -1.3608  2.6957 -0.5976
  771MOL0     H 4063   3.370   1.207   6.140  0.7967  1.4170 -0.1275
  771MOL0     H 4064   3.251   1.193   6.279 -0.8519  1.5012 -0.2745
  771MOL0     H 4065   3.444   1.269   6.440 -0.9132  2.8707 -2.7756
  771MOL0     H 4066   3.548   1.257   6.313 -0.6416  0.0951 -0.7181
  771MOL0     H 4067   2.899   1.861   6.651 -4.5691  1.2080  0.8467
  771MOL0     H 4068   2.687   1.825   6.780 -0.8756 -5.4190  1.6154
  771MOL0     H 4069   2.480   1.898   7.206  1.9092 -0.7745  1.4446
  771MOL0     H 4070   2.296   1.866   7.348  2.9497 -1.8624  1.4222
  771MOL0     H 4071   0.786   1.658   7.214  2.5686 -1.5297 -1.0724
  771MOL0     H 4072   0.566   1.606   7.299  3.1737  0.4224 -0.1707
  771MOL0     H 4073   0.012   1.637   7.206  2.7700  0.4023  0.6299
  771MOL0     H 4074  -0.206   1.482   7.213 -0.6740 -0.4066 -3.0509
  771MOL0     H 4075  -0.152   1.052   7.208 -0.3914 -0.2817  0.1060
  771MOL0     H 4076  -0.196   1.074   7.376  1.4934  2.0503  0.2285
  771MOL0     H 4077  -0.386   0.957   7.225 -2.1677  0.8287 -2.3842
  771MOL0     H 4078  -0.396   1.117   7.150 -4.8486  2.3243  1.7706
  771MOL0     H 4079  -0.467   1.221   7.347  2.0099 -0.1348 -1.2401
  771MOL0     H 4080  -0.421   1.084   7.451  0.8771  1.8128 -0.3378
  771MOL0     H 4081  -0.663   1.073   7.438  2.3329 -3.5515  2.2676
  771MOL0     H 4082  -0.608   0.942   7.334 -2.4116 -0.3093  4.8812
  771MOL0     H 4083  -0.746   1.239   7.058  1.9273  0.9198  0.0104
  771MOL0     H 4084   0.051   1.138   7.250  0.8509 -0.9486  2.6017
  771MOL0     H 4085   0.245   1.275   7.201  0.8537  2.5362 -0.6118
  772MOL0     O 4086   5.078   6.313   3.527 -0.1937  0.4381 -0.3683
  772MOL0     C 4087   4.987   6.368   3.475  0.4322 -0.6128  0.0464
  772MOL0     O 4088   4.985   6.483   3.404  0.1380 -0.5438  0.0783
  772MOL0     C 4089   5.117   6.525   3.370 -0.1260  0.8210  0.4712
  772MOL0     C 4090   5.153   6.529   3.234  0.1099  1.2943  0.6202
  772MOL0     C 4091   5.275   6.583   3.197  0.2846 -1.0887  0.2698
  772MOL0     C 4092   5.362   6.645   3.283 -0.1289  0.3376  0.3510
  772MOL0     O 4093   5.463   6.708   3.220  0.4398  0.1590 -0.3249
  772MOL0     C 4094   5.587   6.714   3.295  0.5003 -0.2671  0.7723
  772MOL0     C 4095   5.681   6.789   3.201  0.1967  0.8229 -0.0330
  772MOL0     C 4096   5.659   6.935   3.187 -0.0171 -0.2021  0.0574
  772MOL0     C 4097   5.723   7.004   3.063  0.3060  0.1505 -0.1969
  772MOL0     C 4098   5.688   7.151   3.046  0.2804 -0.9055  0.6160
  772MOL0     C 4099   5.540   7.168   3.010  0.8300  0.4155  0.5949
  772MOL0     C 4100   5.508   7.323   3.039 -0.0944 -0.0986  0.7678
  772MOL0     C 4101   5.395   7.370   2.943  0.1994  0.2302  0.3077
  772MOL0     N 4102   5.321   7.488   2.990 -0.4433 -0.7791  0.1762
  772MOL0     C 4103   5.370   7.612   3.045 -0.0533  0.6057  0.4134
  772MOL0     C 4104   5.261   7.697   3.044 -0.0994  0.1647 -0.7973
  772MOL0     C 4105   5.261   7.840   3.084 -0.7849 -1.0811  0.2725
  772MOL0     C 4106   5.351   7.936   2.999 -0.5760 -1.1451  1.1349
  772MOL0     C 4107   5.298   7.928   2.850  0.2430 -0.8134 -0.8016
  772MOL0     C 4108   5.362   8.019   2.751  0.3263  0.7998 -0.1362
  772MOL0     O 4109   5.347   8.159   2.784 -0.4321 -0.3019 -0.2861
  772MOL0     C 4110   5.418   8.253   2.707  0.8522  0.7991 -0.9121
  772MOL0     C 4111   5.528   8.221   2.626  0.9604 -0.8538 -0.0196
  772MOL0     C 4112   5.602   8.329   2.559  0.2754  1.2166 -0.5208
  772MOL0     C 4113   5.720   8.280   2.495  0.3711  0.0185  0.1096
  772MOL0     C 4114   5.575   8.460   2.583 -0.1018  0.9632  1.0577
  772MOL0     C 4115   5.647   8.567   2.529 -0.0286  0.3731  0.3973
  772MOL0     O 4116   5.787   8.561   2.538 -0.8189 -0.2331  0.0604
  772MOL0     C 4117   5.854   8.663   2.592  0.5589  0.3656  0.5640
  772MOL0     C 4118   5.834   8.705   2.725 -0.6043  0.0816  0.7258
  772MOL0     C 4119   5.897   8.819   2.779  1.0886 -0.1790 -0.2513
  772MOL0     C 4120   5.975   8.903   2.700 -0.7167 -0.1992  0.5856
  772MOL0     O 4121   6.042   9.015   2.747  0.1791 -0.1438 -0.3229
  772MOL0     C 4122   5.972   9.104   2.826 -0.7409  0.3565  1.2770
  772MOL0     C 4123   5.864   9.163   2.737 -0.3884 -0.2467 -0.0021
  772MOL0     C 4124   5.760   9.244   2.820 -0.7859  0.4562 -0.0946
  772MOL0     C 4125   5.621   9.221   2.756  0.1787 -0.5934 -0.2781
  772MOL0     C 4126   5.498   9.267   2.838 -0.4083  0.1496 -0.6359
  772MOL0     C 4127   5.502   9.425   2.857 -0.8728 -0.0586  0.1146
  772MOL0     C 4128   5.470   9.488   2.726  0.3122 -0.5465  0.1984
  772MOL0     C 4129   5.318   9.483   2.698  0.8795  0.6904 -0.6392
  772MOL0    Cl 4130   5.237   9.615   2.795  0.0054 -0.4977 -0.5675
  772MOL0     C 4131   6.011   8.852   2.584 -0.1667 -0.8257  0.3303
  772MOL0     C 4132   5.946   8.736   2.522 -0.7389 -0.2919  0.3027
  772MOL0     O 4133   5.585   8.668   2.496  0.5760 -0.2274 -0.3027
  772MOL0     C 4134   5.451   8.484   2.651 -1.1511 -0.3769  0.1944
  772MOL0     C 4135   5.374   8.385   2.716 -0.8048  0.1172 -0.5726
  772MOL0     N 4136   5.154   7.613   3.015 -0.2242 -0.1590 -0.1447
  772MOL0     N 4137   5.191   7.497   2.961 -0.3196 -0.4973 -0.3987
  772MOL0     C 4138   5.336   6.639   3.418  1.1492  0.1452  0.1132
  772MOL0     C 4139   5.214   6.581   3.459 -0.1169  0.1620 -0.0303
  772MOL0     C 4140   4.862   6.300   3.494  0.2430 -0.6715 -0.0145
  772MOL0     C 4141   4.761   6.314   3.396  0.5363 -0.3942 -0.5686
  772MOL0     C 4142   4.646   6.236   3.418  0.3764 -0.1017  0.0801
  772MOL0     C 4143   4.615   6.162   3.525  0.1120  0.9629 -0.4105
  772MOL0     O 4144   4.498   6.085   3.530  0.1732  0.5518 -0.0125
  772MOL0     C 4145   4.524   5.956   3.486  0.3990 -0.0949 -0.8410
  772MOL0     C 4146   4.399   5.892   3.441  0.3100  0.3492  0.2962
  772MOL0     C 4147   4.348   5.971   3.311  0.0981  0.8365  0.8052
  772MOL0     C 4148   4.445   5.964   3.195  0.4187  0.3405  0.5948
  772MOL0     C 4149   4.524   5.834   3.176  0.2348 -0.4365  0.2607
  772MOL0     C 4150   4.594   5.738   3.156 -0.4987 -0.1340 -0.2679
  772MOL0     C 4151   4.718   6.143   3.618  0.6703 -0.0867  0.1414
  772MOL0     C 4152   4.838   6.215   3.610  0.1474 -0.0660  0.2300
  772MOL0     H 4153   5.077   6.516   3.158 -2.5378  0.7577  3.1688
  772MOL0     H 4154   5.299   6.585   3.091 -2.2696  0.0565 -0.3458
  772MOL0     H 4155   5.587   6.773   3.387 -1.0557 -0.6723  1.0543
  772MOL0     H 4156   5.632   6.616   3.315  2.8518  0.2957 -1.2309
  772MOL0     H 4157   5.786   6.784   3.232  1.7157  2.9044 -4.0890
  772MOL0     H 4158   5.665   6.742   3.104 -0.5403  1.5756 -0.2884
  772MOL0     H 4159   5.550   6.938   3.179  0.0420 -1.3064 -1.6428
  772MOL0     H 4160   5.694   6.992   3.274  1.2296  0.6834 -0.9926
  772MOL0     H 4161   5.831   6.995   3.078  0.3441 -0.1714 -0.6372
  772MOL0     H 4162   5.695   6.956   2.968  0.5193 -0.0609 -0.1533
  772MOL0     H 4163   5.721   7.207   3.134  0.6181  0.9704 -0.6277
  772MOL0     H 4164   5.742   7.194   2.961 -1.1920  0.3142  0.2387
  772MOL0     H 4165   5.530   7.134   2.907  0.8949 -0.6068  0.9121
  772MOL0     H 4166   5.463   7.107   3.058 -0.5923  0.1502 -1.8379
  772MOL0     H 4167   5.479   7.337   3.143 -2.1124  1.1125  0.0856
  772MOL0     H 4168   5.595   7.388   3.025 -0.5714  0.7426  1.5848
  772MOL0     H 4169   5.316   7.294   2.940 -0.4087  0.8906 -1.0324
  772MOL0     H 4170   5.419   7.391   2.839  1.2217  0.4436  0.5762
  772MOL0     H 4171   5.474   7.638   3.062 -0.3401  2.1270 -0.0447
  772MOL0     H 4172   5.160   7.881   3.097 -0.2672  0.9856 -1.8137
  772MOL0     H 4173   5.298   7.840   3.187 -0.6642 -0.8957  0.2282
  772MOL0     H 4174   5.457   7.908   2.998 -0.8052 -2.5552 -2.5040
  772MOL0     H 4175   5.334   8.040   3.030  0.0410 -0.2101 -1.3862
  772MOL0     H 4176   5.191   7.952   2.848  0.5115  0.4259 -0.9529
  772MOL0     H 4177   5.311   7.823   2.822 -0.8282 -1.1094 -0.2510
  772MOL0     H 4178   5.320   8.001   2.652 -0.5262 -1.2900  0.5520
  772MOL0     H 4179   5.466   7.994   2.728  0.1945  2.1186 -2.4545
  772MOL0     H 4180   5.570   8.121   2.616  3.2235 -0.1667  1.6129
  772MOL0     H 4181   5.719   8.325   2.395 -1.2437 -3.0604 -1.4189
  772MOL0     H 4182   5.814   8.308   2.543  1.2560 -0.3370 -1.3507
  772MOL0     H 4183   5.727   8.172   2.484  1.1892  0.0020  0.7226
  772MOL0     H 4184   5.764   8.645   2.783  1.4281 -4.2452 -0.8894
  772MOL0     H 4185   5.871   8.853   2.879 -1.1661 -1.6940 -0.2494
  772MOL0     H 4186   5.927   9.057   2.914  0.0650 -0.5531  1.2179
  772MOL0     H 4187   6.038   9.185   2.858  1.4814 -0.4442 -0.9394
  772MOL0     H 4188   5.912   9.218   2.656  1.9659 -0.8955  0.8799
  772MOL0     H 4189   5.803   9.086   2.690 -0.4926  1.1638 -2.2998
  772MOL0     H 4190   5.781   9.351   2.807 -1.0318  0.7003  1.2746
  772MOL0     H 4191   5.766   9.224   2.928  0.6773 -1.1341 -0.4248
  772MOL0     H 4192   5.623   9.268   2.657 -1.8345  0.8792  0.3140
  772MOL0     H 4193   5.604   9.114   2.744 -3.0096 -0.3497  1.1406
  772MOL0     H 4194   5.506   9.225   2.939  1.0287  1.8224  0.0081
  772MOL0     H 4195   5.404   9.237   2.792 -0.1071 -1.9897  0.0412
  772MOL0     H 4196   5.433   9.460   2.934  0.8865  3.7466  0.1815
  772MOL0     H 4197   5.602   9.463   2.881 -1.0914 -0.9632  2.7353
  772MOL0     H 4198   5.527   9.446   2.642 -3.1470 -0.5771 -2.3182
  772MOL0     H 4199   5.494   9.594   2.721  1.4758 -0.8192 -0.6060
  772MOL0     H 4200   5.269   9.396   2.743  1.9186  0.6292  0.4083
  772MOL0     H 4201   5.290   9.476   2.592  0.7674  0.7149 -0.6121
  772MOL0     H 4202   6.084   8.916   2.534  0.4056 -1.7743 -0.0829
  772MOL0     H 4203   5.976   8.699   2.424  0.4064 -1.1849  0.9566
  772MOL0     H 4204   5.413   8.586   2.651  0.1144  0.1249 -0.3708
  772MOL0     H 4205   5.293   8.412   2.783 -1.1778 -2.5455  0.1468
  772MOL0     H 4206   5.388   6.703   3.489 -1.9280  0.7363  2.0570
  772MOL0     H 4207   5.197   6.578   3.566 -3.4770 -0.9395 -0.4707
  772MOL0     H 4208   4.777   6.367   3.302  2.0201 -0.8580 -0.6033
  772MOL0     H 4209   4.569   6.242   3.341 -0.3711 -4.7747  0.1782
  772MOL0     H 4210   4.602   5.967   3.411  2.1622 -0.6342  0.8252
  772MOL0     H 4211   4.577   5.889   3.555  1.9235  2.4877  0.6624
  772MOL0     H 4212   4.321   5.879   3.516  0.2371  2.2854  0.5941
  772MOL0     H 4213   4.425   5.792   3.404  1.4568  1.9507 -3.8816
  772MOL0     H 4214   4.335   6.073   3.348  1.4739  1.1223  0.5369
  772MOL0     H 4215   4.252   5.941   3.267  0.7492 -2.8436  1.5400
  772MOL0     H 4216   4.513   6.049   3.194  0.9234 -0.0223 -1.6317
  772MOL0     H 4217   4.383   5.979   3.106  2.2796 -0.5757 -0.9476
  772MOL0     H 4218   4.666   5.659   3.151  0.4905  0.6428  0.8890
  772MOL0     H 4219   4.733   6.084   3.708  2.4312 -0.3083 -0.2485
  772MOL0     H 4220   4.906   6.207   3.694  2.4044  0.1307 -1.4896
  773MOL0     O 4221   4.867  10.760   7.748  0.9056  0.3091 -0.3699
  773MOL0     C 4222   4.898  10.750   7.861  0.0993  0.7014 -1.2006
  773MOL0     O 4223   4.923  10.854   7.940 -0.7607 -0.2189  0.0714
  773MOL0     C 4224   4.985  10.969   7.888 -0.3844  1.0518 -0.6019
  773MOL0     C 4225   4.905  11.079   7.878 -0.4827  0.3650  0.2038
  773MOL0     C 4226   4.971  11.201   7.835  0.3182  0.2192 -0.3850
  773MOL0     C 4227   5.106  11.201   7.796  0.1816 -1.0888  0.7312
  773MOL0     O 4228   5.171  11.310   7.733  0.9801 -0.4092 -1.1728
  773MOL0     C 4229   5.108  11.438   7.715 -0.3020  1.3883 -1.1533
  773MOL0     C 4230   5.108  11.511   7.852  0.0866 -0.2947  0.0592
  773MOL0     C 4231   5.059  11.658   7.839  0.3718 -0.9140  0.2733
  773MOL0     C 4232   5.181  11.746   7.800  1.0077 -0.2676  0.2059
  773MOL0     C 4233   5.147  11.889   7.761 -0.5647 -0.0399 -0.4501
  773MOL0     C 4234   5.270  11.973   7.722  0.3390  0.5903 -0.2646
  773MOL0     C 4235   5.231  12.113   7.665  1.1743  0.1003 -0.2563
  773MOL0     C 4236   5.194  12.093   7.519 -0.0427  0.1529 -0.0989
  773MOL0     N 4237   5.222  12.225   7.451  0.0433  0.2325 -0.1802
  773MOL0     C 4238   5.129  12.328   7.432 -0.3438 -0.3519 -0.1974
  773MOL0     C 4239   5.197  12.417   7.365  0.1723  0.6412  0.1857
  773MOL0     C 4240   5.134  12.544   7.318 -0.0450 -1.2075  0.4448
  773MOL0     C 4241   5.116  12.547   7.165  0.4438 -0.2392 -0.0395
  773MOL0     C 4242   5.232  12.605   7.085 -0.1767  0.1470  1.4757
  773MOL0     C 4243   5.232  12.749   7.045 -0.5812 -1.2099 -0.2143
  773MOL0     O 4244   5.201  12.838   7.161 -0.4950 -0.0874  0.4534
  773MOL0     C 4245   5.146  12.959   7.131 -0.8213 -0.5982 -0.4682
  773MOL0     C 4246   5.133  13.048   7.237 -0.1776 -0.2756 -0.0710
  773MOL0     C 4247   5.112  13.188   7.220  0.3749 -0.9560  0.2490
  773MOL0     C 4248   5.127  13.270   7.354 -0.2989  0.4064  0.6427
  773MOL0     C 4249   5.099  13.249   7.093 -0.1949  1.2433  1.0749
  773MOL0     C 4250   5.082  13.397   7.069 -0.0168  0.0123 -1.0041
  773MOL0     O 4251   5.093  13.448   6.946 -0.4825  0.7881 -0.5202
  773MOL0     C 4252   5.096  13.581   6.921  0.1556  0.0682 -0.0288
  773MOL0     C 4253   4.985  13.668   6.940 -0.5182  0.4720  0.7769
  773MOL0     C 4254   5.006  13.806   6.910  0.1114 -0.2195 -0.0731
  773MOL0     C 4255   5.125  13.852   6.874 -0.1219 -0.2291  0.0054
  773MOL0     O 4256   5.120  13.985   6.835  0.0373  0.3782 -0.8863
  773MOL0     C 4257   5.236  14.036   6.769  0.5424 -0.8450  0.5745
  773MOL0     C 4258   5.207  14.177   6.715 -1.3257  0.5491 -0.0107
  773MOL0     C 4259   5.288  14.212   6.590 -0.6213 -0.1235 -0.0630
  773MOL0     C 4260   5.201  14.207   6.458 -0.3013  0.4156 -0.0977
  773MOL0     C 4261   5.284  14.226   6.331  1.1329 -0.3296 -0.1701
  773MOL0     C 4262   5.187  14.245   6.211  0.5861  0.4953 -0.5105
  773MOL0     C 4263   5.244  14.216   6.067 -0.0370 -0.2445 -0.3017
  773MOL0     C 4264   5.192  14.317   5.971 -0.4314 -0.0898  0.7820
  773MOL0    Cl 4265   5.012  14.308   5.971  0.1932  0.1614 -0.0062
  773MOL0     C 4266   5.233  13.759   6.848 -0.6306 -0.7146 -1.1424
  773MOL0     C 4267   5.213  13.628   6.873  0.3094 -0.1151  0.4628
  773MOL0     O 4268   5.063  13.468   7.170  0.3171  0.5507  0.9992
  773MOL0     C 4269   5.103  13.157   6.981  0.5287 -0.4694 -0.2800
  773MOL0     C 4270   5.120  13.014   7.004 -0.4020 -0.1918 -1.0968
  773MOL0     N 4271   5.322  12.377   7.351 -1.5409 -0.0787  0.0760
  773MOL0     N 4272   5.344  12.258   7.392  0.9433 -0.3848  0.1484
  773MOL0     C 4273   5.189  11.092   7.821  1.4029  0.8938  0.0518
  773MOL0     C 4274   5.126  10.969   7.854  0.0543  0.1612  0.1688
  773MOL0     C 4275   4.888  10.626   7.934 -0.1096  0.5724 -0.5153
  773MOL0     C 4276   4.977  10.596   8.042 -0.2653 -0.2437  0.4805
  773MOL0     C 4277   4.954  10.487   8.119  0.4638  0.5412 -1.1174
  773MOL0     C 4278   4.834  10.406   8.105 -1.5227 -0.2739  0.4503
  773MOL0     O 4279   4.811  10.300   8.184  0.2525 -0.2498 -0.6281
  773MOL0     C 4280   4.701  10.304   8.271 -0.3182 -0.1563  0.4485
  773MOL0     C 4281   4.746  10.257   8.406 -0.1547  0.9071  0.2449
  773MOL0     C 4282   4.852  10.346   8.477 -0.6688  0.2942  0.4145
  773MOL0     C 4283   4.930  10.275   8.594 -0.2851  0.4010 -0.6252
  773MOL0     C 4284   4.862  10.259   8.724 -1.0160  0.0137  0.5320
  773MOL0     C 4285   4.810  10.274   8.830  0.4252  0.8137 -1.1472
  773MOL0     C 4286   4.755  10.422   7.997 -0.6699  0.0462  0.3080
  773MOL0     C 4287   4.788  10.537   7.911  1.5091  0.4093 -0.7415
  773MOL0     H 4288   4.808  11.072   7.926  0.0283  2.9115  1.7822
  773MOL0     H 4289   4.918  11.296   7.830  1.7532  1.1825  1.2616
  773MOL0     H 4290   5.166  11.488   7.637  3.4741  1.0827  1.2141
  773MOL0     H 4291   5.004  11.424   7.682 -1.9056  0.0630  3.6172
  773MOL0     H 4292   5.048  11.462   7.929 -0.3038 -0.2956 -0.2430
  773MOL0     H 4293   5.210  11.507   7.890  0.3010 -0.2918 -0.5054
  773MOL0     H 4294   4.978  11.668   7.766 -2.1795  0.3765  3.0428
  773MOL0     H 4295   5.005  11.692   7.928 -2.6441 -1.8427 -1.0825
  773MOL0     H 4296   5.236  11.743   7.895  1.5324 -1.6607 -0.1216
  773MOL0     H 4297   5.242  11.696   7.725 -0.6389 -1.5279 -0.3667
  773MOL0     H 4298   5.099  11.882   7.663 -0.2672 -2.0733 -0.5002
  773MOL0     H 4299   5.083  11.951   7.824 -1.0903  0.1439 -1.1428
  773MOL0     H 4300   5.331  11.994   7.811  0.1029  1.5218 -0.3108
  773MOL0     H 4301   5.322  11.918   7.643  1.0719  2.9084 -1.5119
  773MOL0     H 4302   5.148  12.153   7.724  2.6098 -0.1016  2.0348
  773MOL0     H 4303   5.306  12.191   7.682 -0.8270  2.0389  0.1295
  773MOL0     H 4304   5.088  12.067   7.507 -0.4607  0.4293  2.3553
  773MOL0     H 4305   5.264  12.025   7.471  0.0651 -0.3299  0.7198
  773MOL0     H 4306   5.021  12.334   7.446 -0.4191  4.1854 -1.3154
  773MOL0     H 4307   5.039  12.553   7.371  0.5690  0.5880  1.3415
  773MOL0     H 4308   5.184  12.633   7.359 -0.3008 -0.1611 -1.4179
  773MOL0     H 4309   5.024  12.590   7.125 -0.4280 -2.2704 -0.3429
  773MOL0     H 4310   5.115  12.442   7.134 -3.2382 -0.9575  2.0310
  773MOL0     H 4311   5.225  12.557   6.987  1.9113  0.8673  0.9191
  773MOL0     H 4312   5.331  12.572   7.118 -1.0996 -2.2946  1.9981
  773MOL0     H 4313   5.168  12.774   6.959  1.2189  1.2944 -0.9543
  773MOL0     H 4314   5.332  12.771   7.006 -0.5195 -0.1128  0.5215
  773MOL0     H 4315   5.146  13.007   7.336  0.7097  0.1814  0.0084
  773MOL0     H 4316   5.049  13.346   7.363 -0.9781 -0.3230  1.1347
  773MOL0     H 4317   5.120  13.214   7.447 -0.4947 -0.2641  0.2369
  773MOL0     H 4318   5.222  13.318   7.329  0.2634 -1.6435 -1.5522
  773MOL0     H 4319   4.884  13.633   6.961 -0.9960 -1.6292 -3.8048
  773MOL0     H 4320   4.922  13.872   6.927 -1.7635 -2.1375 -1.3184
  773MOL0     H 4321   5.323  14.035   6.834  0.3252 -0.1280  0.8825
  773MOL0     H 4322   5.253  13.974   6.680  0.2345 -0.4097  0.2053
  773MOL0     H 4323   5.099  14.184   6.697 -0.9649 -1.4242 -4.1358
  773MOL0     H 4324   5.243  14.242   6.795  2.9158 -1.7699  0.2516
  773MOL0     H 4325   5.370  14.140   6.585 -0.4256  0.1728 -1.8270
  773MOL0     H 4326   5.340  14.309   6.597  6.0796 -2.8801 -2.5133
  773MOL0     H 4327   5.159  14.107   6.449  3.8751 -1.5068 -0.8267
  773MOL0     H 4328   5.133  14.293   6.469 -3.7872 -2.4219  3.1866
  773MOL0     H 4329   5.345  14.136   6.326 -2.9701 -3.4023  0.1357
  773MOL0     H 4330   5.344  14.318   6.339  2.0846 -0.7580 -1.9792
  773MOL0     H 4331   5.098  14.182   6.214  1.7384 -1.1791  0.2357
  773MOL0     H 4332   5.159  14.350   6.224  0.8062  0.2823  2.4115
  773MOL0     H 4333   5.232  14.114   6.028  1.5048  1.1951 -5.3254
  773MOL0     H 4334   5.351  14.237   6.082 -0.2891  1.7777 -1.1420
  773MOL0     H 4335   5.213  14.285   5.868 -1.6062  0.9708  0.1856
  773MOL0     H 4336   5.216  14.422   5.987 -3.9520  1.0560 -0.4285
  773MOL0     H 4337   5.322  13.788   6.793  1.9686 -0.2444  2.9011
  773MOL0     H 4338   5.293  13.559   6.847  3.3075  1.0880  5.2011
  773MOL0     H 4339   5.083  13.178   6.876 -0.2009 -0.8245 -0.2178
  773MOL0     H 4340   5.142  12.961   6.912  0.0925  4.1900 -3.7823
  773MOL0     H 4341   5.298  11.089   7.816  1.4190 -0.9666  0.7180
  773MOL0     H 4342   5.181  10.881   7.886 -1.6878 -1.3418 -0.7728
  773MOL0     H 4343   5.062  10.657   8.073 -1.4574  1.1152  1.1762
  773MOL0     H 4344   5.027  10.461   8.195 -0.7761 -2.9282 -0.8881
  773MOL0     H 4345   4.651  10.400   8.287 -1.8746 -1.2511  2.6915
  773MOL0     H 4346   4.635  10.224   8.236  1.0663 -1.0302 -0.2616
  773MOL0     H 4347   4.772  10.150   8.401  0.5995  0.9613  2.0521
  773MOL0     H 4348   4.659  10.264   8.472 -0.5164 -1.6291  0.1646
  773MOL0     H 4349   4.811  10.441   8.512  0.5499  0.6438  0.9381
  773MOL0     H 4350   4.925  10.361   8.397  1.6011 -4.4249  1.2482
  773MOL0     H 4351   5.019  10.333   8.622  1.2124 -2.4481  1.0445
  773MOL0     H 4352   4.967  10.176   8.568 -1.2393 -0.3266  0.6789
  773MOL0     H 4353   4.791  10.290   8.934 -1.0413  2.4935 -1.6182
  773MOL0     H 4354   4.666  10.361   7.985 -0.9436  0.6085 -0.5734
  773MOL0     H 4355   4.705  10.569   7.849 -2.0127 -0.0843  3.2315
  774MOL0     O 4356   4.564   7.625   2.514  1.0261  0.7488 -0.1485
  774MOL0     C 4357   4.630   7.617   2.618  0.0385  0.0170  0.8787
  774MOL0     O 4358   4.671   7.506   2.682  0.7583 -0.5378  0.2399
  774MOL0     C 4359   4.608   7.383   2.672 -0.0697  0.2530 -1.5004
  774MOL0     C 4360   4.518   7.342   2.573 -0.6637 -0.0180 -0.7292
  774MOL0     C 4361   4.465   7.208   2.569 -0.5854  0.5325 -0.1858
  774MOL0     C 4362   4.492   7.118   2.674  0.4138  0.2795 -0.4411
  774MOL0     O 4363   4.444   6.993   2.665  0.3747 -0.3878 -1.3677
  774MOL0     C 4364   4.472   6.882   2.753 -0.0942  0.3425  0.3314
  774MOL0     C 4365   4.388   6.897   2.890  0.2343 -0.1557 -0.5825
  774MOL0     C 4366   4.262   6.828   2.894  0.0691 -0.5733  0.0376
  774MOL0     C 4367   4.170   6.914   2.986 -0.2301 -0.2199 -0.1055
  774MOL0     C 4368   4.032   6.849   2.969 -0.4877 -0.0594  0.5436
  774MOL0     C 4369   3.935   6.893   3.079  0.5231  0.2766  0.0767
  774MOL0     C 4370   3.957   6.815   3.216 -0.1715 -0.7770 -0.7740
  774MOL0     C 4371   3.953   6.659   3.208 -0.3756 -0.3221 -0.8332
  774MOL0     N 4372   3.816   6.599   3.182 -0.4791  0.1315  0.0286
  774MOL0     C 4373   3.708   6.611   3.267 -1.0309 -0.2999  0.6587
  774MOL0     C 4374   3.609   6.551   3.190  0.3249 -0.2992 -0.1627
  774MOL0     C 4375   3.476   6.520   3.251  0.1436  0.5576 -0.7474
  774MOL0     C 4376   3.359   6.595   3.199 -0.5017 -0.3655 -0.2630
  774MOL0     C 4377   3.224   6.525   3.230 -0.2884 -0.7566  0.0363
  774MOL0     C 4378   3.193   6.497   3.376 -0.2443  0.2140  0.2532
  774MOL0     O 4379   3.169   6.620   3.438 -0.1087  0.1481 -0.8158
  774MOL0     C 4380   3.199   6.621   3.571 -1.1736 -0.3206 -0.4663
  774MOL0     C 4381   3.245   6.748   3.619 -0.9242 -0.8367  0.3521
  774MOL0     C 4382   3.256   6.778   3.761 -0.4341  0.3965  0.9973
  774MOL0     C 4383   3.288   6.920   3.810 -0.2994  0.6943 -0.9479
  774MOL0     C 4384   3.222   6.672   3.847 -0.7781  0.4424 -0.6801
  774MOL0     C 4385   3.246   6.667   3.995 -0.4397 -0.7631 -0.1324
  774MOL0     O 4386   3.144   6.615   4.078  0.4775  1.1629 -0.3127
  774MOL0     C 4387   3.183   6.584   4.209 -0.3153  0.5733 -0.3808
  774MOL0     C 4388   3.279   6.482   4.243 -0.0988  0.1618 -0.1047
  774MOL0     C 4389   3.302   6.449   4.378  0.2437  0.1665  0.2268
  774MOL0     C 4390   3.226   6.507   4.475  0.5777  1.0107  0.4016
  774MOL0     O 4391   3.255   6.482   4.604 -0.2224 -0.2723 -0.4863
  774MOL0     C 4392   3.220   6.349   4.647  0.4468  0.7868  0.0775
  774MOL0     C 4393   3.214   6.358   4.805  0.0445  0.3443  0.2043
  774MOL0     C 4394   3.311   6.469   4.859 -0.3071  0.3645  0.1167
  774MOL0     C 4395   3.279   6.506   5.004 -0.7648  0.4323  0.1278
  774MOL0     C 4396   3.376   6.601   5.072 -0.0727  0.5547 -0.5920
  774MOL0     C 4397   3.523   6.561   5.080  1.0933 -0.2051  0.3992
  774MOL0     C 4398   3.591   6.647   5.185 -0.5550 -0.7101 -0.6018
  774MOL0     C 4399   3.745   6.614   5.200 -0.1936 -0.3876  0.1528
  774MOL0    Cl 4400   3.838   6.623   5.033  0.0250 -0.2362  0.7374
  774MOL0     C 4401   3.134   6.607   4.445  0.7775 -0.4552  0.0407
  774MOL0     C 4402   3.118   6.651   4.314  0.7589  0.8292  0.5130
  774MOL0     O 4403   3.349   6.712   4.037 -1.0155 -0.1711 -0.0431
  774MOL0     C 4404   3.164   6.545   3.801  0.0043 -1.1588  0.3469
  774MOL0     C 4405   3.163   6.532   3.666 -0.5966  0.1319 -0.1372
  774MOL0     N 4406   3.660   6.520   3.071 -0.3378  0.1221  0.5153
  774MOL0     N 4407   3.790   6.538   3.073 -0.4275 -0.4712  0.2664
  774MOL0     C 4408   4.579   7.159   2.780  0.1264 -0.5882  0.5667
  774MOL0     C 4409   4.632   7.287   2.774  0.2108 -0.7598 -0.0719
  774MOL0     C 4410   4.678   7.742   2.681  0.7713 -0.2305 -0.1348
  774MOL0     C 4411   4.790   7.740   2.766 -1.0200 -0.4871 -0.0416
  774MOL0     C 4412   4.837   7.850   2.831 -0.6253 -0.5808  0.5568
  774MOL0     C 4413   4.781   7.978   2.804  0.2064  0.6524 -0.6891
  774MOL0     O 4414   4.819   8.098   2.872 -0.5242 -0.1055 -0.0712
  774MOL0     C 4415   4.959   8.118   2.897 -0.1250 -0.2341  0.2222
  774MOL0     C 4416   4.992   8.256   2.850 -0.1151  0.1252 -0.7004
  774MOL0     C 4417   4.998   8.250   2.697  0.0965 -0.4386  0.5394
  774MOL0     C 4418   5.006   8.398   2.655  0.0458 -0.0773 -0.8241
  774MOL0     C 4419   5.047   8.395   2.521 -1.5727 -0.2796 -0.1391
  774MOL0     C 4420   5.070   8.396   2.404 -0.7729 -0.0597  0.1884
  774MOL0     C 4421   4.674   7.986   2.711 -0.0715  0.6075  0.9390
  774MOL0     C 4422   4.628   7.865   2.643 -0.1321 -0.3555 -1.0991
  774MOL0     H 4423   4.509   7.400   2.482 -2.0751 -0.5178 -0.9285
  774MOL0     H 4424   4.409   7.167   2.485  0.1353 -0.0550 -0.3861
  774MOL0     H 4425   4.447   6.786   2.708 -0.3831 -1.1225  3.3886
  774MOL0     H 4426   4.580   6.881   2.772  0.1184 -2.0593 -0.6846
  774MOL0     H 4427   4.445   6.840   2.963 -1.9657 -1.6813  0.0591
  774MOL0     H 4428   4.393   6.999   2.931  0.7968  0.2660 -1.6767
  774MOL0     H 4429   4.216   6.826   2.795 -0.5697  0.5318  0.3033
  774MOL0     H 4430   4.275   6.720   2.910  1.9898 -0.3522  0.1906
  774MOL0     H 4431   4.203   6.898   3.089 -0.5092 -0.6585 -0.0823
  774MOL0     H 4432   4.167   7.018   2.952  0.5820 -0.8380 -2.2337
  774MOL0     H 4433   3.993   6.882   2.873 -0.1624 -1.5187 -0.1050
  774MOL0     H 4434   4.047   6.741   2.966  2.5377  0.2752  0.0720
  774MOL0     H 4435   3.957   6.997   3.103  1.2381  0.2417 -0.4105
  774MOL0     H 4436   3.832   6.883   3.043 -0.1136 -0.2389  1.9292
  774MOL0     H 4437   4.056   6.839   3.257 -0.9603 -0.7998  1.2741
  774MOL0     H 4438   3.885   6.867   3.280 -0.3985  0.0079 -1.6535
  774MOL0     H 4439   3.986   6.615   3.303 -0.9830 -0.3269 -0.6170
  774MOL0     H 4440   4.028   6.625   3.136 -0.2317 -0.0060 -0.8341
  774MOL0     H 4441   3.697   6.651   3.367 -1.0023  0.5307  0.3305
  774MOL0     H 4442   3.462   6.413   3.239  0.0043  0.6803 -1.7552
  774MOL0     H 4443   3.483   6.544   3.357  1.2056 -2.0550 -0.1708
  774MOL0     H 4444   3.371   6.622   3.094 -0.3106  2.6347  0.4248
  774MOL0     H 4445   3.360   6.693   3.250  2.7943 -0.3446 -0.1531
  774MOL0     H 4446   3.220   6.427   3.181 -1.8495 -1.0138  0.6030
  774MOL0     H 4447   3.141   6.584   3.189 -0.9234 -1.6014  0.0760
  774MOL0     H 4448   3.266   6.436   3.429  0.5415  0.3407 -0.6586
  774MOL0     H 4449   3.103   6.435   3.375 -0.9690  0.9797  3.9354
  774MOL0     H 4450   3.271   6.823   3.545 -1.4602 -0.7465  0.2515
  774MOL0     H 4451   3.216   6.946   3.889  0.5719  2.6804 -0.7626
  774MOL0     H 4452   3.381   6.921   3.867 -2.3045 -4.5144  3.3505
  774MOL0     H 4453   3.294   6.989   3.726  2.6730 -1.5607 -2.7762
  774MOL0     H 4454   3.344   6.451   4.162 -2.5543 -0.6044 -1.8984
  774MOL0     H 4455   3.385   6.382   4.401  0.5170 -0.1282 -1.4408
  774MOL0     H 4456   3.121   6.313   4.617 -0.9032 -0.2595  4.8390
  774MOL0     H 4457   3.292   6.271   4.619  0.9745  0.5838  1.8915
  774MOL0     H 4458   3.111   6.377   4.837 -0.8949 -2.5169 -0.8086
  774MOL0     H 4459   3.238   6.259   4.845 -3.2036 -0.6138  0.0867
  774MOL0     H 4460   3.316   6.562   4.803  2.3463  0.7198  0.8169
  774MOL0     H 4461   3.412   6.428   4.871  0.3212  2.3023  2.2302
  774MOL0     H 4462   3.175   6.540   4.997 -1.6086 -1.9343  0.4570
  774MOL0     H 4463   3.266   6.410   5.055 -0.9162 -0.9193 -2.2971
  774MOL0     H 4464   3.334   6.618   5.172 -1.2054  0.6769 -1.0716
  774MOL0     H 4465   3.390   6.699   5.025  0.1853 -0.9890 -3.9687
  774MOL0     H 4466   3.525   6.454   5.100 -1.1378 -0.1321  1.3709
  774MOL0     H 4467   3.578   6.572   4.986 -1.2933 -0.9798 -1.1924
  774MOL0     H 4468   3.539   6.643   5.281 -2.0761  0.9555 -1.3036
  774MOL0     H 4469   3.577   6.752   5.158 -2.8944  0.4587  4.0811
  774MOL0     H 4470   3.751   6.513   5.243 -2.3909 -0.5043  0.3433
  774MOL0     H 4471   3.771   6.689   5.276 -1.0830 -0.1225  0.2111
  774MOL0     H 4472   3.085   6.671   4.517  1.1397  4.1253 -3.3117
  774MOL0     H 4473   3.042   6.722   4.284 -0.3370 -0.3751  0.3253
  774MOL0     H 4474   3.142   6.460   3.865  0.6905 -0.3286  1.7448
  774MOL0     H 4475   3.128   6.434   3.636 -1.8561  0.0259  1.5004
  774MOL0     H 4476   4.603   7.095   2.865  0.7464  1.7116  2.2214
  774MOL0     H 4477   4.700   7.326   2.849 -1.2448  3.9540 -0.8823
  774MOL0     H 4478   4.840   7.648   2.795  0.9228  0.9382  1.4925
  774MOL0     H 4479   4.917   7.841   2.904  0.6006  0.7513 -0.5657
  774MOL0     H 4480   4.978   8.123   3.005  2.4179  1.1668 -0.2193
  774MOL0     H 4481   5.018   8.036   2.855  1.6647 -0.0543  2.2219
  774MOL0     H 4482   5.087   8.283   2.897 -0.2604 -0.4233 -0.0762
  774MOL0     H 4483   4.924   8.329   2.894 -3.4049 -2.1168 -1.6260
  774MOL0     H 4484   4.909   8.205   2.652  1.8649 -0.7619 -2.9763
  774MOL0     H 4485   5.083   8.194   2.658  1.0733  0.8625  0.7426
  774MOL0     H 4486   5.077   8.451   2.720 -2.9364  1.9441  1.0300
  774MOL0     H 4487   4.903   8.433   2.650 -0.0889 -0.2014  0.6166
  774MOL0     H 4488   5.100   8.414   2.302  3.1019  2.4686  1.5058
  774MOL0     H 4489   4.637   8.084   2.681 -0.0318  0.4975  0.5295
  774MOL0     H 4490   4.565   7.878   2.555 -0.3144  1.5812 -0.7439
  775MOL0     O 4491   8.265   1.772   8.254  0.5117  0.2621  0.4266
  775MOL0     C 4492   8.219   1.826   8.353  0.5497 -0.2049  0.3302
  775MOL0     O 4493   8.288   1.899   8.441 -0.1847  0.1366  0.2303
  775MOL0     C 4494   8.429   1.906   8.427 -0.4488  0.3488 -0.2792
  775MOL0     C 4495   8.506   1.893   8.304  0.0122  0.0650  0.7515
  775MOL0     C 4496   8.642   1.899   8.301  0.0630  0.7612  0.2219
  775MOL0     C 4497   8.712   1.956   8.410 -0.4309 -0.0190 -0.3659
  775MOL0     O 4498   8.850   1.943   8.412  0.5637 -1.1134  1.4526
  775MOL0     C 4499   8.931   2.025   8.497 -0.6783  0.1844 -0.8024
  775MOL0     C 4500   9.081   2.027   8.457 -0.0289 -0.1808 -0.5229
  775MOL0     C 4501   9.146   2.138   8.543 -0.3415  0.5386 -0.4694
  775MOL0     C 4502   9.146   2.274   8.473 -0.4830  0.3054  0.2424
  775MOL0     C 4503   9.224   2.381   8.551 -0.7605 -0.0537 -0.5435
  775MOL0     C 4504   9.238   2.522   8.494  0.3611  0.0701 -0.2493
  775MOL0     C 4505   9.104   2.603   8.492 -0.2455 -0.3224  0.2343
  775MOL0     C 4506   9.061   2.650   8.634 -0.1731 -0.4966  0.4554
  775MOL0     N 4507   8.976   2.550   8.691  0.0647 -1.3650  0.4767
  775MOL0     C 4508   8.999   2.474   8.803  0.1566  0.4540 -0.4567
  775MOL0     C 4509   8.884   2.403   8.823  0.2544  0.2061 -0.5260
  775MOL0     C 4510   8.864   2.298   8.926  0.1941 -0.0816  0.6383
  775MOL0     C 4511   8.951   2.175   8.885 -0.8681 -0.3753  0.4049
  775MOL0     C 4512   8.886   2.044   8.941  0.2869  0.1732  0.0705
  775MOL0     C 4513   8.989   1.930   8.939 -0.4583 -0.0050  0.1166
  775MOL0     O 4514   9.084   1.939   9.050 -0.5019 -0.6093 -0.3899
  775MOL0     C 4515   9.174   1.843   9.069 -0.2819 -0.2046 -0.5195
  775MOL0     C 4516   9.244   1.842   9.192 -0.0043 -0.0855  0.8101
  775MOL0     C 4517   9.341   1.743   9.227  0.4007  0.7740 -0.3586
  775MOL0     C 4518   9.406   1.757   9.361 -0.2656 -0.9766 -0.0654
  775MOL0     C 4519   9.346   1.625   9.139 -0.8315  0.7842  0.3399
  775MOL0     C 4520   9.431   1.510   9.154  0.5406 -0.8295  0.1977
  775MOL0     O 4521   9.387   1.397   9.085  0.3443 -0.4219  0.0072
  775MOL0     C 4522   9.466   1.284   9.068 -0.6080  0.1204  0.2956
  775MOL0     C 4523   9.408   1.150   9.047  0.0735 -0.1327 -1.0448
  775MOL0     C 4524   9.487   1.044   9.008 -0.1468  0.4684  0.7138
  775MOL0     C 4525   9.629   1.057   9.009  0.4465  0.2069  0.3542
  775MOL0     O 4526   9.714   0.948   9.003 -0.0251  0.8646  0.0674
  775MOL0     C 4527   9.665   0.813   9.054 -0.8785 -0.3365  0.5766
  775MOL0     C 4528   9.780   0.706   9.060  0.0205 -0.7029  0.2832
  775MOL0     C 4529   9.853   0.676   8.926  0.0887  1.0805  0.3085
  775MOL0     C 4530   9.774   0.583   8.838  0.4548 -0.6386 -0.8267
  775MOL0     C 4531   9.850   0.515   8.730  0.6614  0.2734 -0.1534
  775MOL0     C 4532   9.918   0.386   8.772  1.1933  0.3460  1.1902
  775MOL0     C 4533  10.031   0.333   8.681 -0.1635 -0.2247  1.5160
  775MOL0     C 4534  10.047   0.180   8.700 -0.0870 -0.1828 -0.6484
  775MOL0    Cl 4535   9.917   0.103   8.607  0.4725 -0.1985  0.0333
  775MOL0     C 4536   9.690   1.178   9.039  0.2309  0.0602  0.6368
  775MOL0     C 4537   9.614   1.289   9.063  0.2742  0.0364 -0.5193
  775MOL0     O 4538   9.528   1.519   9.228  0.0197 -0.5603 -0.1896
  775MOL0     C 4539   9.269   1.624   9.021  0.3549 -0.3413 -0.4407
  775MOL0     C 4540   9.183   1.728   8.987  0.8274 -1.0569  0.1509
  775MOL0     N 4541   8.801   2.421   8.707  0.4258  0.2447  0.4737
  775MOL0     N 4542   8.859   2.504   8.625 -0.2980  0.5499 -0.7181
  775MOL0     C 4543   8.642   1.981   8.530  0.3442 -0.1537 -0.0602
  775MOL0     C 4544   8.500   1.955   8.532 -0.1129  0.1434  0.7906
  775MOL0     C 4545   8.073   1.815   8.379 -0.3556 -0.2113  1.2866
  775MOL0     C 4546   8.017   1.841   8.496  0.9812  0.6271 -0.2652
  775MOL0     C 4547   7.887   1.813   8.509 -0.0684  0.1085 -0.5443
  775MOL0     C 4548   7.800   1.761   8.407 -0.9840 -0.3737  0.7505
  775MOL0     O 4549   7.659   1.746   8.429  0.1704 -0.1638  0.2310
  775MOL0     C 4550   7.568   1.732   8.314  0.5673 -0.0703 -0.0801
  775MOL0     C 4551   7.445   1.657   8.378 -0.2433 -0.4926 -0.1189
  775MOL0     C 4552   7.472   1.527   8.461  0.0120  0.4306  0.0368
  775MOL0     C 4553   7.366   1.420   8.439 -0.9187 -0.0081 -0.6692
  775MOL0     C 4554   7.403   1.304   8.523 -0.2792  1.0174 -0.0101
  775MOL0     C 4555   7.444   1.205   8.587  0.9342 -0.7894  0.1785
  775MOL0     C 4556   7.856   1.749   8.278 -0.6629 -0.6466  0.1223
  775MOL0     C 4557   7.992   1.783   8.266 -0.6838  0.0248  0.5260
  775MOL0     H 4558   8.461   1.867   8.209  2.1555  0.5707 -0.4589
  775MOL0     H 4559   8.690   1.875   8.207  0.1552  2.3817 -0.1727
  775MOL0     H 4560   8.891   2.127   8.493  0.3005  0.5321 -2.7470
  775MOL0     H 4561   8.932   1.984   8.599 -0.1078  0.3846 -0.7201
  775MOL0     H 4562   9.127   1.928   8.470  0.1074 -0.0779 -0.2142
  775MOL0     H 4563   9.077   2.053   8.351 -1.4597  0.5599 -0.3078
  775MOL0     H 4564   9.094   2.139   8.639 -0.7219  1.0339 -0.6777
  775MOL0     H 4565   9.249   2.107   8.563 -1.8653 -2.5800  4.1796
  775MOL0     H 4566   9.174   2.269   8.368 -0.1400  0.2117  0.3368
  775MOL0     H 4567   9.041   2.302   8.472 -0.2011  1.4409  0.9141
  775MOL0     H 4568   9.177   2.389   8.650 -0.7984 -0.3900 -0.5322
  775MOL0     H 4569   9.326   2.362   8.587 -1.0313  1.6168  1.3159
  775MOL0     H 4570   9.305   2.575   8.562 -0.5985 -0.4299  1.1363
  775MOL0     H 4571   9.273   2.500   8.393 -0.8087 -0.3139 -0.5830
  775MOL0     H 4572   9.117   2.693   8.432  1.8240 -0.0236  1.0339
  775MOL0     H 4573   9.022   2.555   8.439 -0.0645  0.6455 -0.9564
  775MOL0     H 4574   9.009   2.746   8.646 -1.4736 -1.3754  2.3381
  775MOL0     H 4575   9.144   2.656   8.705  1.4150  1.5761 -1.4518
  775MOL0     H 4576   9.080   2.481   8.874  0.6026  1.7546 -1.0600
  775MOL0     H 4577   8.882   2.330   9.029 -2.3016  0.1620  1.0741
  775MOL0     H 4578   8.760   2.268   8.908  0.8666 -0.5582 -3.1394
  775MOL0     H 4579   9.053   2.189   8.921 -0.6446  2.0790 -0.9604
  775MOL0     H 4580   8.957   2.174   8.776 -0.0635  0.8233  0.4244
  775MOL0     H 4581   8.797   2.031   8.879 -1.2723  1.3426  1.9283
  775MOL0     H 4582   8.853   2.071   9.042 -0.0927  2.6792 -0.6608
  775MOL0     H 4583   9.037   1.914   8.842  0.5136 -0.3622  0.6482
  775MOL0     H 4584   8.929   1.840   8.959  0.2790 -0.2539  1.2616
  775MOL0     H 4585   9.213   1.922   9.257 -1.3571 -0.6509  0.8864
  775MOL0     H 4586   9.514   1.766   9.356 -0.2437 -0.0676  1.3933
  775MOL0     H 4587   9.378   1.843   9.422  0.5431 -1.5336  1.1354
  775MOL0     H 4588   9.382   1.662   9.411  0.2669 -0.8965  0.3425
  775MOL0     H 4589   9.302   1.137   9.066 -0.1538  3.2692  0.7805
  775MOL0     H 4590   9.448   0.944   9.024  0.2944 -0.0611 -1.2480
  775MOL0     H 4591   9.609   0.818   9.147  1.1965 -2.0927  2.0152
  775MOL0     H 4592   9.598   0.779   8.974 -0.2717  0.3558 -0.2425
  775MOL0     H 4593   9.851   0.749   9.131 -2.9837  8.3699 -0.9307
  775MOL0     H 4594   9.733   0.618   9.104  1.4396 -0.0197  3.4650
  775MOL0     H 4595   9.941   0.618   8.956 -0.4091  0.5883  0.8446
  775MOL0     H 4596   9.889   0.764   8.872  1.3341  1.4310  1.6261
  775MOL0     H 4597   9.727   0.495   8.884  0.9986 -0.7357 -0.4496
  775MOL0     H 4598   9.694   0.646   8.798  1.5717  1.9337  0.7945
  775MOL0     H 4599   9.925   0.586   8.694  1.6988  0.1242  1.5928
  775MOL0     H 4600   9.783   0.500   8.645  1.0714  0.2831 -0.4803
  775MOL0     H 4601   9.967   0.394   8.869  0.2236 -2.5146  2.0230
  775MOL0     H 4602   9.840   0.309   8.773  0.7368  0.7806  2.8188
  775MOL0     H 4603  10.126   0.387   8.695 -0.3514  0.6808 -0.4369
  775MOL0     H 4604  10.000   0.362   8.580  0.5506 -0.7395  1.1419
  775MOL0     H 4605  10.040   0.147   8.804  2.4275  0.8438 -0.0810
  775MOL0     H 4606  10.146   0.142   8.673 -0.6176 -1.6207 -0.6609
  775MOL0     H 4607   9.798   1.184   9.053  0.6830 -1.0321 -1.8772
  775MOL0     H 4608   9.669   1.374   9.103 -1.8103 -0.2086  3.3710
  775MOL0     H 4609   9.269   1.548   8.944  2.7574  0.8333 -1.7273
  775MOL0     H 4610   9.129   1.718   8.893 -0.5426  1.0100  0.6559
  775MOL0     H 4611   8.689   2.001   8.626  0.0986 -1.3652  0.3238
  775MOL0     H 4612   8.442   1.964   8.623 -1.1281 -1.3232  0.3179
  775MOL0     H 4613   8.065   1.907   8.568 -1.1076  2.5472 -0.5163
  775MOL0     H 4614   7.853   1.832   8.611  0.5845  1.4233 -0.5476
  775MOL0     H 4615   7.544   1.829   8.271  1.5332  2.7416  4.9458
  775MOL0     H 4616   7.611   1.678   8.229  0.0942 -0.4795 -0.0606
  775MOL0     H 4617   7.361   1.639   8.310 -0.6673  2.3408 -0.4754
  775MOL0     H 4618   7.399   1.734   8.441 -3.0063 -0.9432 -1.4149
  775MOL0     H 4619   7.468   1.556   8.567  0.4532  0.2145  0.1195
  775MOL0     H 4620   7.573   1.491   8.436  0.2412  2.8590 -3.2410
  775MOL0     H 4621   7.368   1.382   8.337 -3.2482 -0.5015 -0.5660
  775MOL0     H 4622   7.267   1.451   8.472 -2.2948 -0.8840 -3.6905
  775MOL0     H 4623   7.490   1.125   8.641  0.6060 -0.8495  0.3738
  775MOL0     H 4624   7.797   1.707   8.197 -0.9458  0.4319 -0.2532
  775MOL0     H 4625   8.042   1.767   8.171 -0.1123  1.1188  0.6260
  776MOL0     O 4626   1.427   8.318   3.852 -0.3681 -0.3633 -0.0021
  776MOL0     C 4627   1.531   8.339   3.798  0.6974  0.0481 -0.5105
  776MOL0     O 4628   1.544   8.366   3.667  0.0445 -0.3413  0.2907
  776MOL0     C 4629   1.437   8.356   3.577  0.5999 -0.6669  0.9176
  776MOL0     C 4630   1.304   8.392   3.599  0.1988  0.2914  0.9715
  776MOL0     C 4631   1.203   8.347   3.506 -1.0816  0.2487  0.6905
  776MOL0     C 4632   1.233   8.276   3.390  0.0685  0.6064  0.4440
  776MOL0     O 4633   1.141   8.250   3.294 -0.1900 -0.1462 -0.4972
  776MOL0     C 4634   1.018   8.320   3.276  0.5723 -0.7177 -0.2150
  776MOL0     C 4635   0.946   8.257   3.168  0.1719  0.0139  0.2158
  776MOL0     C 4636   0.817   8.338   3.141 -0.9877  0.1988  0.2510
  776MOL0     C 4637   0.834   8.485   3.078 -0.3987  0.1690  0.2949
  776MOL0     C 4638   0.889   8.484   2.937  0.8335 -0.2062  0.3555
  776MOL0     C 4639   0.930   8.621   2.891  0.2978  0.0862  0.0797
  776MOL0     C 4640   0.990   8.606   2.753  0.6273  0.1561 -0.0924
  776MOL0     C 4641   1.037   8.735   2.690 -0.7769  0.2619  0.2766
  776MOL0     N 4642   1.119   8.712   2.562 -0.5384 -0.3347 -0.0973
  776MOL0     C 4643   1.065   8.657   2.455  0.6153 -0.4378  0.8957
  776MOL0     C 4644   1.171   8.656   2.374 -0.3897  1.2283 -0.2879
  776MOL0     C 4645   1.180   8.608   2.232 -0.0164  0.9686 -0.2549
  776MOL0     C 4646   1.227   8.714   2.122 -0.9780 -0.4657 -0.3292
  776MOL0     C 4647   1.120   8.821   2.104 -0.7246  0.5814  0.4718
  776MOL0     C 4648   1.132   8.905   1.976 -0.5817 -0.2973 -0.1350
  776MOL0     O 4649   1.224   9.011   1.992 -0.0945  0.0384 -0.3563
  776MOL0     C 4650   1.352   8.991   2.035 -0.4275 -0.2316  0.8461
  776MOL0     C 4651   1.396   9.049   2.153 -0.3999 -0.2223  0.3821
  776MOL0     C 4652   1.511   9.025   2.220 -1.0928  1.2484 -0.1554
  776MOL0     C 4653   1.518   9.093   2.359  0.1944 -0.7326 -0.6697
  776MOL0     C 4654   1.604   8.945   2.149 -0.7697 -0.4113 -1.1443
  776MOL0     C 4655   1.736   8.908   2.212 -0.3099 -0.1508  0.9854
  776MOL0     O 4656   1.806   8.816   2.148 -0.4098  0.6755  0.1511
  776MOL0     C 4657   1.900   8.740   2.206 -0.6744  0.3289 -0.4236
  776MOL0     C 4658   2.006   8.799   2.277  0.8554 -0.1134  0.7861
  776MOL0     C 4659   2.089   8.709   2.339 -0.8831 -0.1808 -0.6746
  776MOL0     C 4660   2.072   8.574   2.341  0.4047  1.0612 -1.4651
  776MOL0     O 4661   2.164   8.507   2.418 -0.4211 -0.5294 -0.1246
  776MOL0     C 4662   2.194   8.376   2.378 -0.3095  0.1787  0.3547
  776MOL0     C 4663   2.307   8.313   2.458 -0.4040  0.2518  0.3860
  776MOL0     C 4664   2.366   8.404   2.572  0.4497 -0.6749 -0.3395
  776MOL0     C 4665   2.477   8.505   2.505  0.3112 -0.2573 -0.1520
  776MOL0     C 4666   2.565   8.587   2.598  0.0730 -0.0480 -0.5689
  776MOL0     C 4667   2.480   8.656   2.716 -0.3450 -0.8255  0.8795
  776MOL0     C 4668   2.464   8.576   2.848 -0.3196 -0.3550  0.1488
  776MOL0     C 4669   2.374   8.639   2.955  0.9554 -0.4765  0.4656
  776MOL0    Cl 4670   2.214   8.689   2.896  0.0023 -0.2487 -0.4967
  776MOL0     C 4671   1.966   8.522   2.278 -0.4651 -0.5454 -1.0533
  776MOL0     C 4672   1.877   8.600   2.201  0.3059 -0.3477  0.3284
  776MOL0     O 4673   1.767   8.960   2.321 -0.1205 -0.0296  0.3217
  776MOL0     C 4674   1.575   8.889   2.017 -0.4480  0.3072 -0.5566
  776MOL0     C 4675   1.446   8.908   1.966  0.0224 -0.5513 -0.7028
  776MOL0     N 4676   1.284   8.705   2.434 -0.1820  0.1038 -0.1179
  776MOL0     N 4677   1.252   8.742   2.550  0.3593 -0.6865  0.6514
  776MOL0     C 4678   1.368   8.238   3.366  0.1078 -0.0096  0.9442
  776MOL0     C 4679   1.471   8.286   3.461 -0.9844 -0.3797  0.4487
  776MOL0     C 4680   1.654   8.338   3.883 -0.4325 -0.1652  0.2162
  776MOL0     C 4681   1.777   8.404   3.836 -1.2712  0.5361 -0.6610
  776MOL0     C 4682   1.879   8.429   3.934  0.6000  0.5472  0.2733
  776MOL0     C 4683   1.868   8.362   4.047 -0.7699  0.2852 -0.3381
  776MOL0     O 4684   1.967   8.388   4.143  0.7399  0.4579  0.0337
  776MOL0     C 4685   2.078   8.307   4.136  0.2226  0.4463  0.0309
  776MOL0     C 4686   2.129   8.274   4.282  0.1527  0.5675  0.6882
  776MOL0     C 4687   2.187   8.393   4.355 -0.0188 -1.2114  0.1522
  776MOL0     C 4688   2.203   8.359   4.511 -0.3271  1.2475  0.1275
  776MOL0     C 4689   2.287   8.462   4.580  0.7345  0.7723  0.0062
  776MOL0     C 4690   2.335   8.553   4.644  0.3362 -0.6033 -0.5601
  776MOL0     C 4691   1.761   8.285   4.091 -0.2775 -0.6432  0.0784
  776MOL0     C 4692   1.646   8.275   4.015  0.1710  0.0901  0.8680
  776MOL0     H 4693   1.280   8.448   3.689  2.1977  1.7301  0.6763
  776MOL0     H 4694   1.096   8.361   3.520 -1.4102 -0.7923 -0.6291
  776MOL0     H 4695   0.959   8.335   3.367  1.9343 -1.9086  0.9184
  776MOL0     H 4696   1.049   8.420   3.243 -1.1572 -0.2011 -0.3352
  776MOL0     H 4697   1.000   8.238   3.074 -0.2440  0.4865 -0.1191
  776MOL0     H 4698   0.922   8.160   3.213 -0.1588 -0.6630 -1.3487
  776MOL0     H 4699   0.755   8.283   3.069 -1.0500  1.2671 -0.5278
  776MOL0     H 4700   0.763   8.335   3.237  1.7815  1.7666  1.9846
  776MOL0     H 4701   0.738   8.536   3.070  0.0379  0.6737 -2.7034
  776MOL0     H 4702   0.896   8.540   3.149  1.9017 -3.2707  1.2066
  776MOL0     H 4703   0.970   8.416   2.911  0.7137 -0.6227  1.0209
  776MOL0     H 4704   0.802   8.463   2.873  0.6974 -1.4214  0.9043
  776MOL0     H 4705   0.852   8.698   2.883 -0.0245 -0.2523 -0.1062
  776MOL0     H 4706   1.002   8.656   2.965 -3.9689  0.2024  4.7178
  776MOL0     H 4707   1.072   8.534   2.753  0.0295 -0.5356  0.5461
  776MOL0     H 4708   0.914   8.571   2.683 -2.4887  4.6895  0.5872
  776MOL0     H 4709   1.103   8.793   2.755  0.8115 -1.3559  0.1755
  776MOL0     H 4710   0.955   8.805   2.671 -1.0608  1.4608  4.7124
  776MOL0     H 4711   0.966   8.614   2.442  1.2281 -1.6643  0.0221
  776MOL0     H 4712   1.245   8.522   2.215  1.1498  1.9918 -1.1169
  776MOL0     H 4713   1.081   8.577   2.196 -0.5493 -1.9834  3.1502
  776MOL0     H 4714   1.251   8.669   2.025  0.8519 -2.5075  0.9579
  776MOL0     H 4715   1.324   8.761   2.142 -0.2025 -1.3503 -1.7868
  776MOL0     H 4716   1.115   8.881   2.195  1.1666 -0.8846  1.6144
  776MOL0     H 4717   1.023   8.770   2.096 -0.6169  0.1529  1.6505
  776MOL0     H 4718   1.038   8.952   1.945  0.2022 -0.2557 -2.7025
  776MOL0     H 4719   1.171   8.842   1.895  0.5210 -1.0398  0.9500
  776MOL0     H 4720   1.319   9.104   2.207 -1.6052 -0.6684 -0.8433
  776MOL0     H 4721   1.506   9.029   2.447  0.6598  4.1454  3.4000
  776MOL0     H 4722   1.612   9.141   2.388 -0.0005 -1.7085  1.8386
  776MOL0     H 4723   1.444   9.172   2.375  2.8892  2.0053 -0.7867
  776MOL0     H 4724   2.022   8.906   2.267 -0.1117 -0.0233  0.0794
  776MOL0     H 4725   2.182   8.739   2.388  0.1002 -3.0719 -0.5902
  776MOL0     H 4726   2.104   8.318   2.401  0.5601 -2.1543 -1.5677
  776MOL0     H 4727   2.218   8.360   2.272  1.9475 -2.3364  1.1383
  776MOL0     H 4728   2.266   8.234   2.521  1.6601 -0.9819  0.2443
  776MOL0     H 4729   2.369   8.255   2.391 -2.6353 -2.5663  0.5465
  776MOL0     H 4730   2.408   8.336   2.647 -0.1446 -1.3834 -0.6327
  776MOL0     H 4731   2.292   8.462   2.627  0.0748 -0.1000 -1.4119
  776MOL0     H 4732   2.540   8.456   2.430 -1.0338 -3.9577  0.9074
  776MOL0     H 4733   2.415   8.571   2.444  3.1709  1.9211 -0.8554
  776MOL0     H 4734   2.605   8.669   2.537 -1.0612  1.0431  0.1030
  776MOL0     H 4735   2.652   8.530   2.633 -0.0843 -1.7137 -2.6745
  776MOL0     H 4736   2.515   8.757   2.740 -2.4671  0.5396 -1.2745
  776MOL0     H 4737   2.383   8.671   2.667  1.6428  0.0273 -3.2430
  776MOL0     H 4738   2.558   8.552   2.898 -0.9490  0.5325  1.8564
  776MOL0     H 4739   2.423   8.478   2.821 -1.8298  1.2426 -4.3289
  776MOL0     H 4740   2.429   8.723   2.999  0.2381 -0.2360  0.9135
  776MOL0     H 4741   2.359   8.571   3.039  2.9977 -1.4743  0.0875
  776MOL0     H 4742   1.958   8.414   2.285 -0.6683 -0.4323  2.2942
  776MOL0     H 4743   1.789   8.564   2.149  0.3900 -0.4938  0.2867
  776MOL0     H 4744   1.651   8.830   1.967  1.7050  0.6712  2.0522
  776MOL0     H 4745   1.426   8.858   1.872  2.2664  0.2938 -1.6804
  776MOL0     H 4746   1.401   8.183   3.278  0.6507  1.7398 -0.0046
  776MOL0     H 4747   1.572   8.252   3.439 -1.5368 -1.1856 -1.0090
  776MOL0     H 4748   1.785   8.440   3.733  0.0123  3.0574  0.2321
  776MOL0     H 4749   1.962   8.493   3.908  1.6326 -0.3873  1.1352
  776MOL0     H 4750   2.063   8.208   4.092  2.3145  0.6485 -1.2717
  776MOL0     H 4751   2.149   8.350   4.064 -1.8270  1.3538 -1.5689
  776MOL0     H 4752   2.205   8.198   4.261 -0.1670  0.0801  1.2475
  776MOL0     H 4753   2.046   8.234   4.341 -0.2996  1.4465  0.6682
  776MOL0     H 4754   2.124   8.480   4.334  0.3386 -0.4448  1.9934
  776MOL0     H 4755   2.280   8.423   4.306 -1.0488  1.6966 -0.2678
  776MOL0     H 4756   2.258   8.264   4.507 -0.4014  1.1938  0.3789
  776MOL0     H 4757   2.107   8.334   4.556  1.0449 -1.6955  1.7621
  776MOL0     H 4758   2.377   8.626   4.711  0.7167 -1.1289 -0.2153
  776MOL0     H 4759   1.765   8.226   4.182 -1.1506  0.3093  0.7551
  776MOL0     H 4760   1.551   8.229   4.039 -1.3458  1.0219 -2.6392
  777MOL0     O 4761   8.324   3.551   0.077 -0.4685  0.0642 -0.0440
  777MOL0     C 4762   8.398   3.482   0.009  0.8826 -0.5574 -0.1544
  777MOL0     O 4763   8.535   3.481   0.020  0.3035 -0.8538  0.0765
  777MOL0     C 4764   8.614   3.569   0.095 -0.3652  0.5046 -0.3238
  777MOL0     C 4765   8.740   3.521   0.124 -0.2205  0.1530 -0.8497
  777MOL0     C 4766   8.834   3.594   0.199 -0.2445  0.5305 -0.2003
  777MOL0     C 4767   8.806   3.722   0.245  0.5457  0.4600 -1.4369
  777MOL0     O 4768   8.912   3.770   0.319 -1.0696  0.1864  0.6615
  777MOL0     C 4769   8.887   3.834   0.435 -0.5662 -1.0998 -1.4017
  777MOL0     C 4770   9.029   3.898   0.477 -0.0022  1.0562  0.6942
  777MOL0     C 4771   9.061   4.002   0.377 -0.8519 -0.4509 -0.1053
  777MOL0     C 4772   9.180   4.086   0.421  0.1472  0.8154 -0.5529
  777MOL0     C 4773   9.192   4.203   0.325 -0.2665 -0.5020  0.1294
  777MOL0     C 4774   9.086   4.309   0.339 -0.1059 -0.1980 -0.0668
  777MOL0     C 4775   9.107   4.418   0.226  0.0753 -0.1681  0.2687
  777MOL0     C 4776   9.028   4.541   0.236  0.1215  0.2402  0.3396
  777MOL0     N 4777   9.089   4.656   0.314  0.0938 -0.1024 -0.0024
  777MOL0     C 4778   9.194   4.732   0.275 -0.2899 -0.5356 -0.3165
  777MOL0     C 4779   9.253   4.780   0.387  0.3464 -0.8489  0.0654
  777MOL0     C 4780   9.361   4.880   0.396  0.6353  0.0862  0.1421
  777MOL0     C 4781   9.477   4.843   0.297 -0.3764 -0.6329 -0.4716
  777MOL0     C 4782   9.481   4.958   0.189  0.0647  0.1550 -0.4792
  777MOL0     C 4783   9.624   4.960   0.124 -0.4468  0.5035 -0.8333
  777MOL0     O 4784   9.634   4.844   0.038  0.8861  0.8280 -0.0540
  777MOL0     C 4785   9.725   4.845  -0.059 -0.0342  0.4212 -0.2797
  777MOL0     C 4786   9.863   4.854  -0.026  0.5970  0.2290 -0.0705
  777MOL0     C 4787   9.965   4.851  -0.116 -0.3685 -0.0832  0.7712
  777MOL0     C 4788  10.112   4.825  -0.060  0.6986 -1.0697  0.5632
  777MOL0     C 4789   9.930   4.854  -0.253 -0.3616  0.1331 -0.1947
  777MOL0     C 4790  10.029   4.868  -0.361  0.1467  1.2096  0.6242
  777MOL0     O 4791  10.012   4.973  -0.452  1.8165  0.0608  0.2133
  777MOL0     C 4792  10.101   4.963  -0.556  0.3505 -0.0136 -0.8626
  777MOL0     C 4793  10.088   4.859  -0.654  0.7465  0.0162  1.0449
  777MOL0     C 4794  10.190   4.827  -0.751  0.4049 -0.7914 -0.4505
  777MOL0     C 4795  10.300   4.920  -0.761  0.1677 -0.3129  0.2174
  777MOL0     O 4796  10.397   4.929  -0.859  0.3122  0.5082 -0.6454
  777MOL0     C 4797  10.371   4.866  -0.992 -1.2865  0.4591 -0.0328
  777MOL0     C 4798  10.472   4.907  -1.107  1.1291  0.8450  0.6577
  777MOL0     C 4799  10.433   5.042  -1.174  0.0236 -0.6955 -0.5679
  777MOL0     C 4800  10.507   5.172  -1.110  0.1242 -0.5752  1.1139
  777MOL0     C 4801  10.478   5.307  -1.184  0.2946  0.8457  0.2126
  777MOL0     C 4802  10.358   5.367  -1.118  0.5589 -0.5345  0.5188
  777MOL0     C 4803  10.327   5.501  -1.195 -0.4273  0.6395  0.7086
  777MOL0     C 4804  10.281   5.609  -1.099 -0.1982  0.1781 -0.7793
  777MOL0    Cl 4805  10.185   5.746  -1.179  0.3219 -0.2017 -0.3213
  777MOL0     C 4806  10.314   5.028  -0.665  0.3543  0.2491 -0.0106
  777MOL0     C 4807  10.218   5.043  -0.565  1.1839  0.3104 -0.0076
  777MOL0     O 4808  10.127   4.793  -0.358 -0.1036 -0.9655 -0.3633
  777MOL0     C 4809   9.789   4.835  -0.290  1.0217 -0.2877 -0.8235
  777MOL0     C 4810   9.692   4.838  -0.194 -0.2192 -0.8314 -0.5988
  777MOL0     N 4811   9.175   4.739   0.499 -0.8107  0.6757 -0.9585
  777MOL0     N 4812   9.081   4.659   0.450 -0.1282  0.8263  0.4015
  777MOL0     C 4813   8.679   3.778   0.216 -0.6196 -0.8034 -0.0599
  777MOL0     C 4814   8.583   3.702   0.145  0.1630 -0.0328 -0.4953
  777MOL0     C 4815   8.340   3.395  -0.094  0.3762 -0.5525  0.2283
  777MOL0     C 4816   8.201   3.394  -0.122  0.4826 -0.7680 -0.4652
  777MOL0     C 4817   8.140   3.316  -0.217 -0.0340  1.4315  0.1483
  777MOL0     C 4818   8.214   3.214  -0.277  1.0449  0.4390 -0.1783
  777MOL0     O 4819   8.152   3.107  -0.348  0.1005  0.1021 -0.0353
  777MOL0     C 4820   8.011   3.101  -0.363 -0.0685 -1.3090  0.2434
  777MOL0     C 4821   7.988   2.993  -0.472 -0.0521  0.6622  0.8475
  777MOL0     C 4822   7.840   2.951  -0.484 -0.2088 -0.9830 -0.6261
  777MOL0     C 4823   7.807   2.862  -0.600  0.6416  0.1306  0.3600
  777MOL0     C 4824   7.907   2.751  -0.619 -1.4136  0.4630  0.4775
  777MOL0     C 4825   7.995   2.669  -0.632 -0.2658  0.0143 -0.2227
  777MOL0     C 4826   8.349   3.216  -0.259 -0.3550  0.5461  0.3903
  777MOL0     C 4827   8.421   3.307  -0.171  0.3061  1.1024  0.8542
  777MOL0     H 4828   8.770   3.421   0.094 -1.1544 -0.2114 -0.5921
  777MOL0     H 4829   8.923   3.546   0.238 -0.7342  0.7308  1.1905
  777MOL0     H 4830   8.799   3.899   0.438  0.5819  0.4896 -0.1082
  777MOL0     H 4831   8.865   3.758   0.510 -2.6002 -0.1263 -0.9559
  777MOL0     H 4832   9.002   3.929   0.578 -0.4898 -3.2466  2.0578
  777MOL0     H 4833   9.115   3.830   0.472  0.7981  2.0988 -0.6799
  777MOL0     H 4834   9.069   3.965   0.274  0.2691  1.1353 -0.6337
  777MOL0     H 4835   8.975   4.069   0.386 -1.3606 -1.1782  0.5290
  777MOL0     H 4836   9.167   4.121   0.524 -4.8613  2.4422 -1.4779
  777MOL0     H 4837   9.271   4.027   0.409 -0.2774  0.0185  0.0915
  777MOL0     H 4838   9.292   4.244   0.339 -0.2891  0.0903 -1.3149
  777MOL0     H 4839   9.197   4.167   0.222  1.8485 -2.3827  0.8070
  777MOL0     H 4840   8.984   4.270   0.334  0.8396 -3.4810  2.5847
  777MOL0     H 4841   9.095   4.354   0.438  1.8627  4.0344 -1.8886
  777MOL0     H 4842   9.212   4.449   0.224  1.5104 -4.5055 -1.3699
  777MOL0     H 4843   9.094   4.371   0.129  1.0871  1.8344 -0.9133
  777MOL0     H 4844   8.928   4.520   0.277 -0.8415  1.4218 -1.2770
  777MOL0     H 4845   9.009   4.577   0.135  2.1864 -1.4284 -0.6947
  777MOL0     H 4846   9.219   4.749   0.171 -2.1548  1.4080 -0.5223
  777MOL0     H 4847   9.321   4.982   0.385  0.2599 -0.1919 -1.3877
  777MOL0     H 4848   9.408   4.870   0.494  0.9423  1.6063  0.1714
  777MOL0     H 4849   9.460   4.747   0.247 -0.3615 -0.6759 -0.3949
  777MOL0     H 4850   9.563   4.835   0.364 -0.4446 -1.2322 -0.4441
  777MOL0     H 4851   9.455   5.059   0.222  1.2941 -0.0896  1.3971
  777MOL0     H 4852   9.410   4.931   0.110  0.2443 -1.2219 -0.1860
  777MOL0     H 4853   9.707   4.953   0.196 -0.6683  0.3069 -0.5949
  777MOL0     H 4854   9.635   5.055   0.071 -0.8014  1.6941  1.1121
  777MOL0     H 4855   9.893   4.862   0.078 -0.0421 -0.8904  0.2254
  777MOL0     H 4856  10.116   4.839   0.048  1.0718  2.1050  0.2117
  777MOL0     H 4857  10.157   4.728  -0.083 -0.3851 -1.1975 -1.2310
  777MOL0     H 4858  10.169   4.903  -0.110 -1.6775  0.4649  0.0680
  777MOL0     H 4859   9.996   4.802  -0.641  2.7981 -4.2477 -1.1764
  777MOL0     H 4860  10.182   4.746  -0.822 -3.7260 -0.1167 -0.9805
  777MOL0     H 4861  10.395   4.761  -0.973 -2.0168  0.6500  2.2657
  777MOL0     H 4862  10.269   4.882  -1.030 -1.4683 -3.0882 -1.4486
  777MOL0     H 4863  10.571   4.906  -1.060  0.9480  1.2924  1.0527
  777MOL0     H 4864  10.451   4.829  -1.181 -3.0877  1.8857  0.5086
  777MOL0     H 4865  10.325   5.060  -1.175 -0.1410 -1.5727 -0.0733
  777MOL0     H 4866  10.457   5.034  -1.280 -0.7778  2.1789 -1.0498
  777MOL0     H 4867  10.490   5.197  -1.005 -1.0637  4.1534  0.0311
  777MOL0     H 4868  10.614   5.157  -1.126  0.1203 -0.8280  1.3285
  777MOL0     H 4869  10.471   5.292  -1.292 -2.9990  2.0250  0.1748
  777MOL0     H 4870  10.556   5.379  -1.159 -2.0806  2.2092  4.7514
  777MOL0     H 4871  10.274   5.297  -1.108  0.6660 -0.4252  2.7913
  777MOL0     H 4872  10.376   5.384  -1.011 -1.0549 -1.1135  0.9209
  777MOL0     H 4873  10.259   5.498  -1.281  0.6765  1.4195 -0.2210
  777MOL0     H 4874  10.423   5.514  -1.246 -2.0687  0.3658 -2.6980
  777MOL0     H 4875  10.369   5.649  -1.046  1.5303 -4.1354  0.0138
  777MOL0     H 4876  10.208   5.564  -1.032 -1.1610  4.5081  1.4553
  777MOL0     H 4877  10.401   5.092  -0.677  1.5265 -1.1631  0.6934
  777MOL0     H 4878  10.232   5.121  -0.492  1.1227 -0.3077  0.6800
  777MOL0     H 4879   9.758   4.838  -0.394  0.1700  1.5320 -0.5508
  777MOL0     H 4880   9.588   4.837  -0.227  0.1782 -2.3276 -1.9061
  777MOL0     H 4881   8.664   3.880   0.249 -1.3013 -1.3004  1.2286
  777MOL0     H 4882   8.487   3.747   0.126 -1.4131 -3.2744 -0.9754
  777MOL0     H 4883   8.142   3.462  -0.061 -1.1284 -2.7670  0.3689
  777MOL0     H 4884   8.032   3.321  -0.219 -0.4916 -1.6819  4.3278
  777MOL0     H 4885   7.972   3.073  -0.265  0.7330 -3.9300 -0.1009
  777MOL0     H 4886   7.962   3.191  -0.401 -0.4452 -0.7378  2.0199
  777MOL0     H 4887   8.062   2.911  -0.474  0.2228  0.9210 -0.6424
  777MOL0     H 4888   8.019   3.031  -0.570 -0.8034 -1.5613 -0.3292
  777MOL0     H 4889   7.773   3.038  -0.484 -2.2711 -2.3477 -4.3494
  777MOL0     H 4890   7.824   2.892  -0.393 -1.0149 -0.1552 -0.2206
  777MOL0     H 4891   7.811   2.925  -0.690  0.9799 -0.7022 -0.2196
  777MOL0     H 4892   7.707   2.817  -0.608 -0.2130  2.1517 -1.2193
  777MOL0     H 4893   8.071   2.597  -0.655  0.7261  2.1412 -4.9386
  777MOL0     H 4894   8.402   3.136  -0.309 -0.6558 -1.0568  2.5081
  777MOL0     H 4895   8.529   3.308  -0.160  0.4876 -1.8793  0.2051
  778MOL0     O 4896   8.069   3.906   6.395  0.0268 -0.4105 -0.2170
  778MOL0     C 4897   8.071   4.001   6.478 -0.0338  0.3159 -0.4992
  778MOL0     O 4898   8.180   4.087   6.495 -0.0870 -0.7395  0.4154
  778MOL0     C 4899   8.272   4.093   6.385 -0.1021  0.8822 -0.7058
  778MOL0     C 4900   8.408   4.105   6.406  0.6268 -0.0283  1.3250
  778MOL0     C 4901   8.494   4.126   6.295 -1.0655 -0.4662 -0.4362
  778MOL0     C 4902   8.437   4.140   6.168  1.2408  0.7415 -0.2772
  778MOL0     O 4903   8.523   4.162   6.070  1.0850 -0.3044  0.1754
  778MOL0     C 4904   8.483   4.240   5.949  0.6486 -0.3529  0.2138
  778MOL0     C 4905   8.604   4.260   5.867  0.4859 -0.3580 -0.1663
  778MOL0     C 4906   8.641   4.131   5.787  0.8430  0.7209 -0.4567
  778MOL0     C 4907   8.788   4.129   5.737  0.3712 -0.3286 -0.8446
  778MOL0     C 4908   8.826   4.262   5.662 -0.4199 -0.2695 -0.2917
  778MOL0     C 4909   8.968   4.238   5.593 -0.0724  0.0573 -0.2464
  778MOL0     C 4910   8.972   4.295   5.449  0.6843 -0.4886  0.4265
  778MOL0     C 4911   8.953   4.447   5.459  0.5151  0.1125 -0.6804
  778MOL0     N 4912   9.032   4.517   5.547 -0.4999 -0.1853  0.1813
  778MOL0     C 4913   9.165   4.485   5.552 -0.2898 -0.4668 -0.0918
  778MOL0     C 4914   9.197   4.535   5.679 -0.0919 -0.9466 -0.0514
  778MOL0     C 4915   9.331   4.520   5.733  0.2970  0.0631 -0.4025
  778MOL0     C 4916   9.370   4.386   5.753 -0.1240  0.5877  0.7789
  778MOL0     C 4917   9.312   4.338   5.890  0.4045  0.3845  0.7958
  778MOL0     C 4918   9.351   4.195   5.924 -0.1936  0.3659 -0.9553
  778MOL0     O 4919   9.485   4.159   5.932  0.2396 -0.8167  0.1901
  778MOL0     C 4920   9.553   4.152   6.051  1.3606 -0.1163  0.2590
  778MOL0     C 4921   9.672   4.083   6.077 -1.1943 -0.6386 -0.4042
  778MOL0     C 4922   9.751   4.092   6.197  0.0752  0.4382  0.1543
  778MOL0     C 4923   9.879   4.017   6.201 -0.4753 -0.5040  0.3544
  778MOL0     C 4924   9.705   4.176   6.306 -0.8455 -0.9263 -0.1573
  778MOL0     C 4925   9.782   4.202   6.434 -0.0706 -0.0093 -0.0779
  778MOL0     O 4926   9.861   4.094   6.470 -0.9487 -1.1311  0.2011
  778MOL0     C 4927   9.952   4.138   6.566  0.2496 -0.1104  0.5881
  778MOL0     C 4928   9.929   4.109   6.700  0.5262  0.9417  0.0638
  778MOL0     C 4929  10.009   4.169   6.798 -0.4987 -0.9552  0.0319
  778MOL0     C 4930  10.136   4.225   6.753  0.0286 -0.2640 -0.8402
  778MOL0     O 4931  10.239   4.276   6.832  0.1781 -0.0395 -0.0155
  778MOL0     C 4932  10.202   4.302   6.971  0.4773 -0.5725  0.2859
  778MOL0     C 4933  10.143   4.442   6.989  0.2393  0.8790 -0.5129
  778MOL0     C 4934  10.218   4.531   7.089 -0.6063 -0.5559 -0.3029
  778MOL0     C 4935  10.337   4.608   7.025 -0.7080  0.0234 -0.5832
  778MOL0     C 4936  10.458   4.525   6.987  0.8186 -0.1102 -0.4608
  778MOL0     C 4937  10.584   4.620   6.965  0.6499  0.4478 -0.1222
  778MOL0     C 4938  10.714   4.538   6.929  0.2222  0.1352 -0.6420
  778MOL0     C 4939  10.842   4.599   6.971  0.3306 -0.4402  0.2220
  778MOL0    Cl 4940  10.858   4.622   7.151  0.2437  0.6258 -0.5492
  778MOL0     C 4941  10.161   4.244   6.619  0.3072 -0.4793 -0.3966
  778MOL0     C 4942  10.076   4.193   6.528  0.0463 -0.7843 -0.3196
  778MOL0     O 4943   9.759   4.304   6.503  0.0450 -0.4033 -0.1896
  778MOL0     C 4944   9.586   4.238   6.279  1.1152  1.1553 -0.3545
  778MOL0     C 4945   9.497   4.221   6.166  0.6352  0.8550  0.2590
  778MOL0     N 4946   9.084   4.589   5.736  0.2860 -0.0368  0.1084
  778MOL0     N 4947   8.986   4.580   5.663  0.6173  0.2749  0.2766
  778MOL0     C 4948   8.307   4.114   6.145  0.6187  0.7010 -0.2881
  778MOL0     C 4949   8.222   4.092   6.254 -0.2276  0.0560 -0.2361
  778MOL0     C 4950   7.952   4.027   6.560 -0.0992  1.0206 -0.1840
  778MOL0     C 4951   7.826   3.986   6.497 -0.1818  0.2140 -0.0998
  778MOL0     C 4952   7.706   4.004   6.566  0.8586 -0.4968  0.7218
  778MOL0     C 4953   7.705   4.048   6.702  0.4532 -0.8742  0.4235
  778MOL0     O 4954   7.582   4.063   6.768 -0.2293  0.3467  0.4301
  778MOL0     C 4955   7.561   4.154   6.882 -0.0948 -0.3152  0.5498
  778MOL0     C 4956   7.411   4.204   6.876 -0.0890  0.0036 -0.4228
  778MOL0     C 4957   7.357   4.271   7.006 -0.3515  0.1942 -0.3382
  778MOL0     C 4958   7.447   4.382   7.051  0.3243  0.2360 -0.0568
  778MOL0     C 4959   7.505   4.460   6.945 -0.2077  0.7537 -0.1314
  778MOL0     C 4960   7.570   4.521   6.866 -0.1362  0.5303 -1.2304
  778MOL0     C 4961   7.828   4.084   6.763 -0.6522 -0.3526 -0.3339
  778MOL0     C 4962   7.950   4.081   6.692  0.3148 -0.3639  0.1436
  778MOL0     H 4963   8.442   4.135   6.504  0.5691 -1.7266  1.8866
  778MOL0     H 4964   8.597   4.158   6.308 -0.7393 -1.2919 -0.9151
  778MOL0     H 4965   8.402   4.196   5.891 -0.9360  0.3106  1.8135
  778MOL0     H 4966   8.448   4.340   5.978 -4.6438 -1.4820 -1.3217
  778MOL0     H 4967   8.575   4.334   5.792  2.0563  2.9267  2.2454
  778MOL0     H 4968   8.691   4.302   5.916  0.2693 -0.0257 -0.0671
  778MOL0     H 4969   8.635   4.040   5.847  0.2619  2.2037  1.8481
  778MOL0     H 4970   8.569   4.116   5.705  1.5007  0.8025 -1.0633
  778MOL0     H 4971   8.860   4.128   5.819 -0.5257  2.1684  0.0603
  778MOL0     H 4972   8.812   4.041   5.676 -1.1209  0.2176 -2.2943
  778MOL0     H 4973   8.748   4.287   5.590 -1.8600 -2.2066  0.5198
  778MOL0     H 4974   8.839   4.345   5.732  0.6426  0.2429 -1.0611
  778MOL0     H 4975   9.058   4.249   5.653 -0.6775 -2.1690  1.1799
  778MOL0     H 4976   8.967   4.131   5.569 -2.4686  0.6512 -3.6273
  778MOL0     H 4977   9.059   4.263   5.392  0.4333  2.2093 -1.6807
  778MOL0     H 4978   8.893   4.252   5.386  0.4569 -1.7771  1.5348
  778MOL0     H 4979   8.851   4.457   5.496  0.7682 -3.5892  1.5342
  778MOL0     H 4980   8.958   4.499   5.363  0.6271 -3.0133 -2.4888
  778MOL0     H 4981   9.230   4.445   5.475  2.0544  3.0846 -0.2297
  778MOL0     H 4982   9.406   4.561   5.664 -1.3020  0.1103 -2.1771
  778MOL0     H 4983   9.333   4.586   5.821 -1.1687  1.3750 -1.3203
  778MOL0     H 4984   9.477   4.370   5.773 -0.1043 -0.0125  0.2588
  778MOL0     H 4985   9.347   4.313   5.675  1.0642 -0.7170  1.5893
  778MOL0     H 4986   9.204   4.357   5.883  0.2228  0.5065  3.0820
  778MOL0     H 4987   9.354   4.408   5.964  3.4624  2.1287 -2.2779
  778MOL0     H 4988   9.311   4.136   5.841 -4.2741 -1.0208  1.6699
  778MOL0     H 4989   9.291   4.158   6.008  2.3288  1.3505  1.4264
  778MOL0     H 4990   9.713   4.024   5.995 -1.9211 -0.3794 -0.9606
  778MOL0     H 4991   9.961   4.089   6.205 -0.8200 -0.1591  1.6087
  778MOL0     H 4992   9.878   3.966   6.298 -1.6141 -0.2844  0.4780
  778MOL0     H 4993   9.891   3.941   6.123  3.4201 -0.0051  0.2944
  778MOL0     H 4994   9.831   4.067   6.723 -0.2771  3.4968  1.6647
  778MOL0     H 4995   9.982   4.166   6.903  1.9923  0.3448  0.8183
  778MOL0     H 4996  10.125   4.236   7.012 -1.0739 -0.3682 -2.1286
  778MOL0     H 4997  10.291   4.290   7.033  1.1936  0.9167 -0.4052
  778MOL0     H 4998  10.148   4.501   6.897  1.5796  0.8776 -0.4640
  778MOL0     H 4999  10.044   4.422   7.032  0.4680 -1.3341 -0.8854
  778MOL0     H 5000  10.252   4.465   7.169  0.0637  0.9629  0.7130
  778MOL0     H 5001  10.152   4.599   7.144 -2.4118 -0.6205 -2.2286
  778MOL0     H 5002  10.307   4.646   6.927  1.2224 -0.4390 -1.4030
  778MOL0     H 5003  10.361   4.689   7.093  0.0869  1.6258 -2.6629
  778MOL0     H 5004  10.426   4.465   6.901 -1.8735 -1.3007  1.2390
  778MOL0     H 5005  10.484   4.455   7.068  1.9176 -0.3372 -0.9886
  778MOL0     H 5006  10.562   4.699   6.892 -0.6800  0.3558  0.1543
  778MOL0     H 5007  10.590   4.674   7.060 -0.4968  0.8526 -0.2555
  778MOL0     H 5008  10.717   4.514   6.822  2.4723 -0.9979 -0.3832
  778MOL0     H 5009  10.707   4.438   6.973  0.0063  0.0781 -0.8046
  778MOL0     H 5010  10.846   4.700   6.929 -0.8520 -0.5671 -0.2316
  778MOL0     H 5011  10.935   4.549   6.943 -0.0610 -1.1017  0.0938
  778MOL0     H 5012  10.248   4.302   6.591  1.9807 -3.1781 -1.2025
  778MOL0     H 5013  10.102   4.209   6.423 -3.6252 -2.2313 -1.6041
  778MOL0     H 5014   9.545   4.294   6.363  0.8017 -0.3097  0.5151
  778MOL0     H 5015   9.410   4.286   6.165  0.5107  0.7257  1.4699
  778MOL0     H 5016   8.256   4.114   6.049 -5.3705  3.5710  2.4007
  778MOL0     H 5017   8.116   4.101   6.232  0.1348  2.5916 -1.2561
  778MOL0     H 5018   7.823   3.953   6.394 -3.8907 -1.9973  0.5531
  778MOL0     H 5019   7.621   3.970   6.508  0.4436 -0.6818  1.4298
  778MOL0     H 5020   7.581   4.101   6.975  3.0114  0.2126  0.2744
  778MOL0     H 5021   7.636   4.233   6.870  0.1062 -0.5464  0.2749
  778MOL0     H 5022   7.340   4.125   6.850 -1.7580  0.1278  3.0723
  778MOL0     H 5023   7.405   4.277   6.794 -1.7491  0.8458  0.3761
  778MOL0     H 5024   7.345   4.199   7.088  0.6659  0.4060  0.0123
  778MOL0     H 5025   7.257   4.312   6.989 -1.5877 -1.2203  2.6577
  778MOL0     H 5026   7.532   4.350   7.112 -1.9445 -1.1475  2.6254
  778MOL0     H 5027   7.393   4.454   7.114 -2.9469  0.1440 -2.4479
  778MOL0     H 5028   7.626   4.574   6.791  1.6367 -0.7502 -0.8597
  778MOL0     H 5029   7.827   4.107   6.869 -0.9543  0.0143 -0.4126
  778MOL0     H 5030   8.039   4.107   6.748 -1.2079 -0.7167  2.9354
  779MOL0     O 5031   2.035   6.684   4.481  0.5815 -0.1421 -0.4115
  779MOL0     C 5032   1.951   6.616   4.428  0.3513  0.0774  0.3115
  779MOL0     O 5033   1.953   6.474   4.404  0.0150 -0.4002  0.1943
  779MOL0     C 5034   2.031   6.395   4.490 -0.4933 -0.3361  0.0928
  779MOL0     C 5035   1.979   6.342   4.604 -0.8609  0.3883  0.1924
  779MOL0     C 5036   2.047   6.235   4.669  0.4377  0.6670 -0.2174
  779MOL0     C 5037   2.173   6.203   4.630 -0.1942 -1.4125  1.6964
  779MOL0     O 5038   2.237   6.103   4.700 -0.2078  0.1813  0.1782
  779MOL0     C 5039   2.368   6.074   4.654  0.1301 -0.7337  0.0346
  779MOL0     C 5040   2.355   5.982   4.533  0.4390 -0.6694  0.3704
  779MOL0     C 5041   2.468   5.959   4.435  0.0517 -0.3369 -0.0807
  779MOL0     C 5042   2.558   5.854   4.508 -0.8020 -0.2343 -0.4818
  779MOL0     C 5043   2.655   5.814   4.397 -1.1296 -0.6443  0.8289
  779MOL0     C 5044   2.776   5.738   4.458 -0.6084  0.3381 -0.0800
  779MOL0     C 5045   2.858   5.665   4.364 -0.7594  0.1465  0.7099
  779MOL0     C 5046   2.816   5.518   4.338  0.2992  0.6888  0.1346
  779MOL0     N 5047   2.874   5.422   4.430  0.8446 -0.2559  0.2197
  779MOL0     C 5048   3.006   5.380   4.430  0.0411 -0.7109 -0.3381
  779MOL0     C 5049   3.002   5.274   4.513 -0.4427 -0.2735 -0.3738
  779MOL0     C 5050   3.116   5.187   4.558 -0.5837  0.4488  0.5818
  779MOL0     C 5051   3.133   5.203   4.709  0.2858 -0.6212 -0.0832
  779MOL0     C 5052   3.182   5.347   4.743  0.4783  0.0671  0.7911
  779MOL0     C 5053   3.329   5.372   4.703  0.8582  0.6403 -0.2198
  779MOL0     O 5054   3.391   5.483   4.773  0.5096  0.8817  0.1687
  779MOL0     C 5055   3.432   5.452   4.900  0.4630 -0.1852 -0.5893
  779MOL0     C 5056   3.476   5.557   4.979  0.4637 -0.2909  0.0822
  779MOL0     C 5057   3.500   5.542   5.123  0.1349 -0.9402 -0.3689
  779MOL0     C 5058   3.563   5.674   5.184  0.5669 -0.4948  0.1456
  779MOL0     C 5059   3.484   5.419   5.184  0.2750  0.8241  0.7963
  779MOL0     C 5060   3.507   5.396   5.327 -0.0991 -0.3047  0.6407
  779MOL0     O 5061   3.627   5.430   5.384 -0.1198 -1.5967 -1.0604
  779MOL0     C 5062   3.642   5.417   5.518 -1.0911  0.4918 -0.0813
  779MOL0     C 5063   3.601   5.524   5.603  0.2871  0.0332 -0.2398
  779MOL0     C 5064   3.630   5.526   5.744  0.7047 -0.2465  0.0024
  779MOL0     C 5065   3.695   5.411   5.805  0.5949  0.0366  0.4635
  779MOL0     O 5066   3.717   5.398   5.939 -0.0149  0.0259 -0.1001
  779MOL0     C 5067   3.638   5.488   6.016  0.9849  0.3850  0.1822
  779MOL0     C 5068   3.630   5.450   6.169 -0.9252  0.0879  0.5394
  779MOL0     C 5069   3.772   5.398   6.224  0.9643 -0.4888 -0.6158
  779MOL0     C 5070   3.878   5.505   6.260  0.2900  0.3670  0.2181
  779MOL0     C 5071   4.006   5.436   6.308  0.5236  0.0769 -0.0756
  779MOL0     C 5072   4.090   5.344   6.219  1.3635 -0.1884 -0.2443
  779MOL0     C 5073   4.235   5.369   6.263 -0.7327  1.0037  0.7033
  779MOL0     C 5074   4.329   5.263   6.202  0.0353 -0.0985  0.2509
  779MOL0    Cl 5075   4.270   5.099   6.254 -0.5171  0.0900 -0.0538
  779MOL0     C 5076   3.737   5.306   5.717  0.3493  0.6071 -0.8142
  779MOL0     C 5077   3.715   5.311   5.581  0.6584  0.4084 -0.5944
  779MOL0     O 5078   3.422   5.325   5.381 -0.8226  0.7460  0.3492
  779MOL0     C 5079   3.433   5.315   5.102  0.5374  0.4958 -0.0433
  779MOL0     C 5080   3.412   5.326   4.967  0.0961  0.2245  0.7678
  779MOL0     N 5081   2.865   5.245   4.542  0.4539 -0.3812  1.0486
  779MOL0     N 5082   2.791   5.342   4.503  0.1079  0.4534  1.0587
  779MOL0     C 5083   2.237   6.280   4.523 -0.0161 -0.4060 -1.0714
  779MOL0     C 5084   2.158   6.363   4.447  0.1341 -0.1056  0.5356
  779MOL0     C 5085   1.819   6.685   4.388  0.2494 -0.5519  0.4523
  779MOL0     C 5086   1.705   6.610   4.364  0.3368  0.0644  0.9537
  779MOL0     C 5087   1.582   6.668   4.346  0.3072  0.2594 -0.5452
  779MOL0     C 5088   1.574   6.811   4.335  0.1632  0.6530 -0.5203
  779MOL0     O 5089   1.456   6.875   4.322  0.0475 -0.4708 -0.8870
  779MOL0     C 5090   1.337   6.808   4.285 -0.2272  0.3474 -0.3561
  779MOL0     C 5091   1.225   6.902   4.241  0.3420  0.0260  0.9131
  779MOL0     C 5092   1.253   6.936   4.088 -0.4106 -1.4240 -0.3994
  779MOL0     C 5093   1.148   7.026   4.017 -0.1436  0.3989  0.2593
  779MOL0     C 5094   1.022   6.956   4.003 -0.2699 -0.7108  0.3715
  779MOL0     C 5095   0.917   6.892   4.001 -0.1798 -0.2053  0.5789
  779MOL0     C 5096   1.681   6.890   4.350 -0.2040 -0.6686 -0.8129
  779MOL0     C 5097   1.803   6.821   4.377  0.2537 -0.6169 -0.2166
  779MOL0     H 5098   1.880   6.369   4.641 -1.7451 -0.8202 -1.1688
  779MOL0     H 5099   1.993   6.189   4.751  1.5734  1.3982  0.9930
  779MOL0     H 5100   2.418   6.166   4.623  0.4499 -0.5789  0.9816
  779MOL0     H 5101   2.412   6.017   4.736 -1.0413 -1.6463  0.0586
  779MOL0     H 5102   2.307   5.886   4.558 -1.6297  0.7854  2.3678
  779MOL0     H 5103   2.285   6.041   4.474 -1.9495 -2.6479  1.0457
  779MOL0     H 5104   2.437   5.918   4.339  2.3724  0.8281 -1.4081
  779MOL0     H 5105   2.535   6.042   4.413  1.9243 -1.4542  1.0700
  779MOL0     H 5106   2.613   5.899   4.591  1.6325 -0.5346 -1.8423
  779MOL0     H 5107   2.517   5.760   4.545  0.7882 -1.8947 -2.6828
  779MOL0     H 5108   2.602   5.734   4.343 -1.8157  0.8365 -0.7700
  779MOL0     H 5109   2.681   5.893   4.327  0.8217 -1.7669  0.1975
  779MOL0     H 5110   2.830   5.816   4.513 -0.1468  0.5328 -0.8100
  779MOL0     H 5111   2.746   5.661   4.531 -0.4202 -0.6996 -1.0774
  779MOL0     H 5112   2.866   5.716   4.267 -2.9200 -2.9771 -1.2833
  779MOL0     H 5113   2.962   5.665   4.400  0.1294 -0.3717 -1.6502
  779MOL0     H 5114   2.834   5.499   4.231 -1.3289  0.9949 -0.2257
  779MOL0     H 5115   2.707   5.509   4.344  0.1442  2.4066  0.5181
  779MOL0     H 5116   3.095   5.415   4.378  1.6647 -2.8082  0.8987
  779MOL0     H 5117   3.074   5.089   4.530  1.2851 -0.1452 -0.2603
  779MOL0     H 5118   3.208   5.207   4.503  0.4743 -0.9439  1.7624
  779MOL0     H 5119   3.192   5.123   4.755  0.1559  0.1172  1.4008
  779MOL0     H 5120   3.033   5.193   4.751  0.0745 -1.5351 -0.7683
  779MOL0     H 5121   3.169   5.358   4.851  1.4955  4.9669  0.6209
  779MOL0     H 5122   3.110   5.413   4.694  1.9750 -0.1380 -1.8316
  779MOL0     H 5123   3.332   5.392   4.596  2.0431  1.4150 -0.0747
  779MOL0     H 5124   3.388   5.281   4.717  1.2870  1.2128  2.3462
  779MOL0     H 5125   3.497   5.653   4.933 -3.2774 -1.1485 -4.1391
  779MOL0     H 5126   3.539   5.768   5.133 -1.4394 -0.8872  0.3002
  779MOL0     H 5127   3.531   5.693   5.286  0.4085 -2.1275  0.4180
  779MOL0     H 5128   3.670   5.651   5.190  0.4452 -0.6277  2.9733
  779MOL0     H 5129   3.550   5.605   5.551 -3.3391 -2.2131 -0.5355
  779MOL0     H 5130   3.603   5.614   5.801  2.1912 -1.2423  2.3711
  779MOL0     H 5131   3.683   5.588   6.016  1.4110  0.2065 -0.8158
  779MOL0     H 5132   3.537   5.489   5.973  1.9163 -1.0556 -2.2540
  779MOL0     H 5133   3.600   5.542   6.220  2.7054  1.1495  1.0424
  779MOL0     H 5134   3.548   5.380   6.187  1.0697 -2.1642  1.3644
  779MOL0     H 5135   3.814   5.323   6.157 -0.0290 -3.6202  1.9932
  779MOL0     H 5136   3.748   5.336   6.311 -1.5700  0.5871 -0.4541
  779MOL0     H 5137   3.895   5.582   6.185 -0.9074 -0.0485 -0.5052
  779MOL0     H 5138   3.837   5.557   6.347 -2.6407 -1.3363 -0.0331
  779MOL0     H 5139   3.996   5.376   6.399  0.7393 -3.8928 -2.4264
  779MOL0     H 5140   4.067   5.521   6.343 -1.4369  2.5177 -2.2267
  779MOL0     H 5141   4.062   5.238   6.216 -0.5863  0.2946 -3.8313
  779MOL0     H 5142   4.087   5.376   6.115 -2.8661  0.3348 -0.1507
  779MOL0     H 5143   4.235   5.367   6.372 -2.4851 -2.8839  0.7991
  779MOL0     H 5144   4.264   5.465   6.219  2.5500 -0.2770 -0.2513
  779MOL0     H 5145   4.436   5.273   6.226  0.5246 -1.3801 -1.1789
  779MOL0     H 5146   4.324   5.276   6.094  4.3398  1.8975  0.0721
  779MOL0     H 5147   3.781   5.223   5.771 -1.7020  0.4060  0.6634
  779MOL0     H 5148   3.760   5.230   5.526 -0.2688  0.5694 -1.6291
  779MOL0     H 5149   3.407   5.219   5.145 -4.2887  1.8461  0.6613
  779MOL0     H 5150   3.371   5.238   4.918 -0.6054  0.4118  1.0091
  779MOL0     H 5151   2.336   6.276   4.479  0.4349  1.3381 -0.2980
  779MOL0     H 5152   2.188   6.403   4.351  0.4260 -1.0214  0.2355
  779MOL0     H 5153   1.715   6.503   4.384  3.6331  0.8017  4.2072
  779MOL0     H 5154   1.495   6.605   4.334  1.2945 -0.8964 -1.8663
  779MOL0     H 5155   1.345   6.745   4.196 -0.4848  0.6228 -0.5775
  779MOL0     H 5156   1.311   6.743   4.370  2.3777  0.1635  0.4111
  779MOL0     H 5157   1.221   6.989   4.307 -3.3985 -0.9336  2.2034
  779MOL0     H 5158   1.137   6.838   4.250 -0.6022  1.0585 -0.6087
  779MOL0     H 5159   1.280   6.847   4.031  2.4788 -2.5993  2.4598
  779MOL0     H 5160   1.338   7.005   4.093  0.1924 -2.2174  0.6452
  779MOL0     H 5161   1.187   7.063   3.922 -2.1378 -2.1922 -1.7140
  779MOL0     H 5162   1.119   7.109   4.082 -1.9166 -0.3576  0.4901
  779MOL0     H 5163   0.828   6.836   3.982  1.8422 -3.3996 -0.3104
  779MOL0     H 5164   1.672   6.996   4.328 -0.4720 -0.8514 -1.6216
  779MOL0     H 5165   1.894   6.879   4.364 -0.5440  0.8019  0.2761
  780MOL0     O 5166   4.963   4.479  10.986 -0.7365 -0.4380 -0.0046
  780MOL0     C 5167   4.942   4.380  10.916  0.2106  0.3408  1.0244
  780MOL0     O 5168   4.977   4.247  10.945 -0.3706 -0.4747 -0.9485
  780MOL0     C 5169   5.013   4.231  11.075  0.8344  0.6047 -0.4805
  780MOL0     C 5170   4.928   4.161  11.166 -0.1824 -0.2397 -0.1455
  780MOL0     C 5171   4.966   4.149  11.296 -0.2691  0.3925 -0.7134
  780MOL0     C 5172   5.093   4.192  11.347 -0.3326  0.4221 -1.0030
  780MOL0     O 5173   5.111   4.185  11.481  0.1567  0.2258  0.0772
  780MOL0     C 5174   5.232   4.237  11.543 -0.0451 -0.5537 -0.3476
  780MOL0     C 5175   5.204   4.291  11.679  0.1496 -1.4709 -0.1885
  780MOL0     C 5176   5.140   4.206  11.778  0.2436 -0.0571  0.4246
  780MOL0     C 5177   5.079   4.286  11.900  0.5657 -0.0675 -0.9218
  780MOL0     C 5178   4.989   4.198  11.997 -0.2790  0.0113  0.1624
  780MOL0     C 5179   5.062   4.142  12.109 -0.8362 -0.1273 -0.1508
  780MOL0     C 5180   4.973   4.039  12.195 -0.2674 -0.0790 -1.2271
  780MOL0     C 5181   5.045   3.959  12.306 -0.4793  0.0351 -0.9787
  780MOL0     N 5182   5.093   4.036  12.420  0.0177  0.0063  0.4165
  780MOL0     C 5183   5.225   4.055  12.458  0.4765  0.3339  0.9601
  780MOL0     C 5184   5.217   4.091  12.586 -0.2978 -0.5868 -0.7436
  780MOL0     C 5185   5.329   4.091  12.686  0.1977 -0.8812 -0.1342
  780MOL0     C 5186   5.375   4.237  12.707  0.3887  0.3651  0.6392
  780MOL0     C 5187   5.463   4.296  12.593  0.6388 -0.1227  0.3467
  780MOL0     C 5188   5.581   4.386  12.641  0.7750  0.7668  0.0479
  780MOL0     O 5189   5.534   4.489  12.732  0.0865 -0.3338 -0.0901
  780MOL0     C 5190   5.623   4.558  12.813  1.1715  0.2124 -0.9332
  780MOL0     C 5191   5.753   4.581  12.784 -0.0416 -0.5876  0.2710
  780MOL0     C 5192   5.836   4.648  12.870 -0.3894  0.3884 -0.0301
  780MOL0     C 5193   5.984   4.644  12.827 -0.8313 -0.4028 -0.7749
  780MOL0     C 5194   5.785   4.705  12.990  0.4890  0.3643 -0.1925
  780MOL0     C 5195   5.864   4.761  13.101 -0.6657  0.8534 -0.8283
  780MOL0     O 5196   5.808   4.765  13.225  0.7872  0.3933  0.3804
  780MOL0     C 5197   5.855   4.870  13.298  0.6883 -0.6677  0.3235
  780MOL0     C 5198   5.823   5.006  13.259 -0.1012  0.4125 -1.4861
  780MOL0     C 5199   5.862   5.112  13.347 -0.0103 -0.2849  0.4749
  780MOL0     C 5200   5.941   5.084  13.463  0.0918 -0.2425  0.7242
  780MOL0     O 5201   5.981   5.181  13.544 -0.9236 -1.0114 -0.4602
  780MOL0     C 5202   6.044   5.294  13.479  0.6892 -0.2258 -0.3284
  780MOL0     C 5203   6.151   5.334  13.573 -0.3475  0.0557  0.3048
  780MOL0     C 5204   6.238   5.449  13.523  1.1409 -0.2795  0.3202
  780MOL0     C 5205   6.341   5.377  13.432  0.5212 -0.2194  0.0476
  780MOL0     C 5206   6.456   5.484  13.388  0.8357 -0.7068  0.1100
  780MOL0     C 5207   6.554   5.404  13.300  0.3695  0.6479 -0.6612
  780MOL0     C 5208   6.504   5.366  13.165 -0.5413  0.1538  0.6086
  780MOL0     C 5209   6.602   5.276  13.086  0.7045  0.2127 -0.6909
  780MOL0    Cl 5210   6.552   5.291  12.914 -0.1612  0.0903 -0.1051
  780MOL0     C 5211   5.958   4.954  13.498 -0.0977 -1.0542 -0.2990
  780MOL0     C 5212   5.917   4.849  13.417 -0.0531 -0.4991 -0.4436
  780MOL0     O 5213   5.989   4.785  13.076  0.2186 -0.1354 -0.5356
  780MOL0     C 5214   5.647   4.686  13.020 -0.2486 -1.2612  0.5405
  780MOL0     C 5215   5.566   4.615  12.926  0.4677 -0.9446 -0.2725
  780MOL0     N 5216   5.086   4.121  12.609 -0.1035 -0.2231 -0.1728
  780MOL0     N 5217   5.011   4.073  12.522 -0.7441  0.4713  0.2476
  780MOL0     C 5218   5.183   4.233  11.250  0.0024 -0.2530 -0.2986
  780MOL0     C 5219   5.144   4.264  11.117  0.5704  0.2914  0.6852
  780MOL0     C 5220   4.868   4.397  10.790  1.4491 -0.9707  0.0508
  780MOL0     C 5221   4.840   4.533  10.746 -0.0669 -0.0495  0.5267
  780MOL0     C 5222   4.766   4.547  10.628 -0.2808  0.0199 -0.1348
  780MOL0     C 5223   4.708   4.444  10.562  0.0096  0.4693 -0.3018
  780MOL0     O 5224   4.636   4.474  10.455  0.0860 -0.2198 -0.1722
  780MOL0     C 5225   4.519   4.557  10.465  0.8451 -0.4842  0.0167
  780MOL0     C 5226   4.420   4.496  10.562 -1.0805  0.1640 -0.1247
  780MOL0     C 5227   4.295   4.576  10.589  0.6826 -0.4430 -0.2119
  780MOL0     C 5228   4.177   4.510  10.510 -0.1564 -0.2251 -0.3651
  780MOL0     C 5229   4.180   4.497  10.360  0.3999 -0.1981 -0.0094
  780MOL0     C 5230   4.169   4.486  10.243  0.8448  0.2546  0.3863
  780MOL0     C 5231   4.727   4.311  10.601 -0.6413  0.2512  0.1186
  780MOL0     C 5232   4.800   4.292  10.723  0.4469  0.5377 -0.4417
  780MOL0     H 5233   4.833   4.130  11.124 -0.4490  0.7230 -0.2697
  780MOL0     H 5234   4.890   4.113  11.364  0.0390  0.2514 -0.4359
  780MOL0     H 5235   5.309   4.160  11.552  3.3565  2.5230 -0.8376
  780MOL0     H 5236   5.287   4.316  11.492 -0.4889  0.4715  0.7005
  780MOL0     H 5237   5.297   4.323  11.726 -0.1644 -3.5234  2.0490
  780MOL0     H 5238   5.144   4.377  11.648  1.2149 -1.0195 -1.0604
  780MOL0     H 5239   5.066   4.134  11.742 -0.6628 -0.5583  3.0874
  780MOL0     H 5240   5.216   4.141  11.822  1.5687 -1.2707 -3.2838
  780MOL0     H 5241   5.158   4.338  11.955 -2.1163  2.8330  0.4835
  780MOL0     H 5242   5.015   4.365  11.859  2.0524  0.9070 -1.4963
  780MOL0     H 5243   4.909   4.260  12.039  0.8306  1.0090  0.8740
  780MOL0     H 5244   4.951   4.111  11.943 -3.1840  0.6438  1.0103
  780MOL0     H 5245   5.144   4.091  12.059 -0.7983  2.0952 -2.5399
  780MOL0     H 5246   5.101   4.227  12.165 -0.5522 -0.9312  0.9045
  780MOL0     H 5247   4.886   4.097  12.225  0.8562  1.5707 -1.0001
  780MOL0     H 5248   4.926   3.966  12.128 -2.5170 -0.1599  0.3285
  780MOL0     H 5249   5.108   3.882  12.259 -1.7362 -1.6191 -0.0558
  780MOL0     H 5250   4.963   3.907  12.355  0.2016  1.1979  1.5696
  780MOL0     H 5251   5.309   4.021  12.398  0.3692  2.6527 -0.6446
  780MOL0     H 5252   5.294   4.041  12.777  0.7053  0.5128  0.8615
  780MOL0     H 5253   5.411   4.033  12.642  2.1110  0.8916  0.9268
  780MOL0     H 5254   5.425   4.246  12.804  1.6536  2.6480 -0.1394
  780MOL0     H 5255   5.283   4.293  12.727 -0.3337 -0.3817 -0.4885
  780MOL0     H 5256   5.402   4.348  12.518 -1.8726  0.6105  2.7495
  780MOL0     H 5257   5.503   4.205  12.547  2.5583  0.3550  0.9569
  780MOL0     H 5258   5.628   4.439  12.557  0.7777  0.7680  0.0504
  780MOL0     H 5259   5.663   4.325  12.680  2.1412  0.3315 -3.1507
  780MOL0     H 5260   5.785   4.522  12.699 -3.4039 -1.3963 -0.5914
  780MOL0     H 5261   5.988   4.574  12.743 -3.1848 -2.3952  0.6333
  780MOL0     H 5262   6.038   4.733  12.794  1.2988 -2.5822 -3.7618
  780MOL0     H 5263   6.037   4.601  12.913  0.2339  0.2885 -1.0651
  780MOL0     H 5264   5.763   5.019  13.170  0.6792  0.1067 -2.0654
  780MOL0     H 5265   5.841   5.212  13.312 -1.0646 -1.0572 -1.2225
  780MOL0     H 5266   6.078   5.277  13.377  1.2823  1.2653 -0.4042
  780MOL0     H 5267   5.978   5.380  13.465  0.7211 -0.3495 -1.2918
  780MOL0     H 5268   6.104   5.355  13.669 -1.6220  0.0730 -0.2936
  780MOL0     H 5269   6.215   5.248  13.592  0.3444  1.5683  7.3019
  780MOL0     H 5270   6.271   5.495  13.616  0.1228  0.0792  0.5139
  780MOL0     H 5271   6.172   5.512  13.462 -1.1173 -2.0000  0.8142
  780MOL0     H 5272   6.378   5.294  13.493  1.0228 -1.8063 -2.3053
  780MOL0     H 5273   6.300   5.330  13.343 -1.4470  2.6104 -0.6974
  780MOL0     H 5274   6.498   5.528  13.479 -0.4730 -0.0113  0.3989
  780MOL0     H 5275   6.416   5.555  13.316  0.4706 -2.6591 -1.7084
  780MOL0     H 5276   6.646   5.462  13.285  0.5862  0.2679 -0.8298
  780MOL0     H 5277   6.592   5.322  13.362  3.5826  0.7142 -2.3073
  780MOL0     H 5278   6.492   5.467  13.123  0.9926  0.7549  1.5284
  780MOL0     H 5279   6.407   5.317  13.152  0.5138 -2.1767  1.0193
  780MOL0     H 5280   6.590   5.174  13.125  0.9703  0.0903 -0.9304
  780MOL0     H 5281   6.698   5.321  13.110 -0.0155  0.6899  1.6352
  780MOL0     H 5282   6.006   4.934  13.593 -1.9086  0.6046  1.0420
  780MOL0     H 5283   5.938   4.750  13.455  0.9545 -0.0688  0.1879
  780MOL0     H 5284   5.609   4.727  13.113 -1.9368 -1.0847 -0.1865
  780MOL0     H 5285   5.463   4.582  12.937 -0.9326  1.5193 -4.0572
  780MOL0     H 5286   5.283   4.257  11.286 -0.1353 -0.9346  0.5648
  780MOL0     H 5287   5.211   4.321  11.054 -0.9187  1.6529  0.2703
  780MOL0     H 5288   4.886   4.622  10.788 -0.9686  1.6181 -1.8074
  780MOL0     H 5289   4.752   4.651  10.600  4.4290  0.1821 -3.0260
  780MOL0     H 5290   4.543   4.659  10.498 -0.0439 -0.7118  1.4672
  780MOL0     H 5291   4.476   4.555  10.364  0.2781 -1.8108  0.2699
  780MOL0     H 5292   4.469   4.478  10.658 -1.5827 -2.2645 -0.2487
  780MOL0     H 5293   4.393   4.397  10.524  3.1547 -1.0908 -0.4176
  780MOL0     H 5294   4.300   4.675  10.542  1.0220 -1.2057 -1.8846
  780MOL0     H 5295   4.259   4.582  10.692 -0.9865 -1.5352 -0.6903
  780MOL0     H 5296   4.082   4.560  10.533 -0.5496 -0.8825 -0.5498
  780MOL0     H 5297   4.167   4.403  10.530 -1.1860 -0.1916 -0.6697
  780MOL0     H 5298   4.143   4.462  10.142 -0.8013  0.4798  0.7191
  780MOL0     H 5299   4.679   4.229  10.549  1.8970 -1.2655 -0.0105
  780MOL0     H 5300   4.796   4.189  10.756  0.5183  0.3754 -0.9278
  781MOL0     O 5301   9.510   6.711   9.685 -0.1678 -0.1054  1.4003
  781MOL0     C 5302   9.545   6.602   9.733  0.8280 -0.7653  0.2999
  781MOL0     O 5303   9.489   6.481   9.723  0.0338  0.5908 -0.2909
  781MOL0     C 5304   9.378   6.448   9.653 -0.6105  0.6203 -0.1312
  781MOL0     C 5305   9.369   6.315   9.606  0.3582  0.0120 -0.6233
  781MOL0     C 5306   9.248   6.267   9.561 -0.1111  0.5935  0.2411
  781MOL0     C 5307   9.138   6.355   9.543 -0.0242  0.5945 -0.6113
  781MOL0     O 5308   9.017   6.317   9.498 -0.2832  0.2119 -0.7054
  781MOL0     C 5309   9.016   6.186   9.438 -0.6641  0.1434  0.2787
  781MOL0     C 5310   8.873   6.122   9.407 -0.2504 -0.4173 -0.1319
  781MOL0     C 5311   8.762   6.163   9.508 -0.3529 -0.0095  0.5067
  781MOL0     C 5312   8.649   6.062   9.513  0.6419  0.6836 -1.2531
  781MOL0     C 5313   8.539   6.106   9.622  0.4824  0.3024  0.6516
  781MOL0     C 5314   8.430   6.189   9.555  0.7730  0.0778  0.1728
  781MOL0     C 5315   8.320   6.221   9.658 -0.3001  0.3132  0.6673
  781MOL0     C 5316   8.372   6.288   9.787 -0.1978 -0.2270 -0.7056
  781MOL0     N 5317   8.260   6.319   9.871 -0.2356 -0.0360 -0.7289
  781MOL0     C 5318   8.139   6.247   9.867 -0.2552  0.7277 -0.4414
  781MOL0     C 5319   8.069   6.289   9.978  0.2560 -0.1844  0.5253
  781MOL0     C 5320   7.921   6.250  10.020 -0.6289  0.6498 -0.3906
  781MOL0     C 5321   7.934   6.159  10.147 -0.7745 -0.1734  0.0429
  781MOL0     C 5322   7.798   6.148  10.230 -0.2233 -0.1092 -0.0159
  781MOL0     C 5323   7.830   6.085  10.367 -0.5512  0.5072  0.1173
  781MOL0     O 5324   7.867   5.946  10.353  0.0892 -0.2314  1.2901
  781MOL0     C 5325   7.925   5.880  10.459  0.0070  0.2805  0.2970
  781MOL0     C 5326   7.967   5.751  10.441  0.4232 -0.4127  0.0370
  781MOL0     C 5327   8.025   5.682  10.548  0.1718  0.7585 -0.1163
  781MOL0     C 5328   8.074   5.548  10.526  0.6866 -0.5153  0.2538
  781MOL0     C 5329   8.028   5.742  10.685 -0.6684  0.4871  0.0102
  781MOL0     C 5330   8.102   5.669  10.787 -0.0375 -0.6530 -0.3210
  781MOL0     O 5331   8.060   5.542  10.805 -0.2436 -0.5265  0.2368
  781MOL0     C 5332   8.132   5.447  10.877 -0.1504  0.3544  0.3390
  781MOL0     C 5333   8.271   5.464  10.912  1.0532 -0.6802  0.5906
  781MOL0     C 5334   8.335   5.348  10.962  0.0650  0.8966  1.0168
  781MOL0     C 5335   8.267   5.219  10.976  0.0538 -0.5360  0.2842
  781MOL0     O 5336   8.330   5.108  11.019  0.1445  0.0855 -0.0458
  781MOL0     C 5337   8.470   5.099  11.021 -0.3072  0.1594  0.5421
  781MOL0     C 5338   8.511   4.951  11.047  0.4632 -0.9689  0.4515
  781MOL0     C 5339   8.417   4.836  11.014 -0.3578 -0.0231  0.2733
  781MOL0     C 5340   8.390   4.819  10.868  0.4101 -0.6706  0.5272
  781MOL0     C 5341   8.512   4.767  10.788 -0.5532  0.3166 -0.4823
  781MOL0     C 5342   8.558   4.626  10.830 -0.6590 -0.1734 -0.7831
  781MOL0     C 5343   8.609   4.529  10.709 -0.0627 -0.1481 -1.3067
  781MOL0     C 5344   8.493   4.489  10.622  0.9089  0.0095  0.8590
  781MOL0    Cl 5345   8.357   4.397  10.698 -0.5059 -0.0925  0.0373
  781MOL0     C 5346   8.129   5.215  10.959  0.1584  0.5226  0.5433
  781MOL0     C 5347   8.074   5.326  10.893  0.5201  0.9665  0.0840
  781MOL0     O 5348   8.181   5.739  10.859  0.4009 -0.1428  0.3725
  781MOL0     C 5349   7.979   5.877  10.697 -0.1643  0.0066 -0.2419
  781MOL0     C 5350   7.926   5.937  10.588  0.1732  0.4449 -0.5498
  781MOL0     N 5351   8.153   6.384  10.046  0.1340 -0.1725  0.0258
  781MOL0     N 5352   8.267   6.392   9.982  0.5280 -0.6341 -0.3543
  781MOL0     C 5353   9.163   6.493   9.571  0.6373 -0.1208  0.3044
  781MOL0     C 5354   9.279   6.536   9.633 -0.7510 -0.0493  0.5628
  781MOL0     C 5355   9.663   6.616   9.819 -0.6407  0.5219  0.6050
  781MOL0     C 5356   9.704   6.511   9.909 -0.1616  0.4975  0.0724
  781MOL0     C 5357   9.823   6.530   9.987  0.4661 -0.2017  0.1111
  781MOL0     C 5358   9.900   6.648   9.985  0.5101 -0.4445  0.5467
  781MOL0     O 5359  10.007   6.670  10.063  0.2311  0.5543 -0.7281
  781MOL0     C 5360  10.021   6.611  10.192 -0.6853  0.0999 -0.2235
  781MOL0     C 5361   9.906   6.645  10.294 -0.7074  0.4704  0.2601
  781MOL0     C 5362   9.957   6.751  10.393 -0.4830 -0.1582 -0.3890
  781MOL0     C 5363   9.978   6.883  10.318  0.0489  0.5539 -0.2168
  781MOL0     C 5364   9.861   6.928  10.247 -0.4787 -0.3062 -0.1914
  781MOL0     C 5365   9.765   6.970  10.184 -0.2993 -0.0404  0.2990
  781MOL0     C 5366   9.853   6.753   9.902 -0.8341 -0.1327 -0.2961
  781MOL0     C 5367   9.737   6.737   9.825  0.1383  0.0043  0.1529
  781MOL0     H 5368   9.460   6.262   9.631  0.5882  1.3762  1.6859
  781MOL0     H 5369   9.269   6.164   9.536  2.3655  0.5781  2.0062
  781MOL0     H 5370   9.077   6.194   9.348 -0.0074  1.1059  0.8001
  781MOL0     H 5371   9.063   6.117   9.509  0.6943  0.1009 -0.6264
  781MOL0     H 5372   8.849   6.169   9.312 -2.4019 -0.2137  0.4473
  781MOL0     H 5373   8.877   6.014   9.388  0.6974 -0.7574  1.7107
  781MOL0     H 5374   8.804   6.179   9.607  0.5493  3.2635 -0.2652
  781MOL0     H 5375   8.723   6.261   9.479  0.5617  0.1940 -0.0567
  781MOL0     H 5376   8.605   6.056   9.413 -0.4813  2.3647 -0.9058
  781MOL0     H 5377   8.691   5.967   9.546  0.7222  1.3487  0.6775
  781MOL0     H 5378   8.491   6.021   9.670 -0.5705  0.8868  0.6653
  781MOL0     H 5379   8.582   6.158   9.708 -1.4581  1.3668  1.0292
  781MOL0     H 5380   8.472   6.284   9.521 -1.7813  1.3958  0.5060
  781MOL0     H 5381   8.386   6.149   9.463 -3.1483  2.2241  0.8806
  781MOL0     H 5382   8.240   6.273   9.604  0.7640  2.8516  1.3578
  781MOL0     H 5383   8.277   6.125   9.690  0.8315 -1.1936 -2.0116
  781MOL0     H 5384   8.420   6.382   9.761 -1.7924  0.9431  0.3961
  781MOL0     H 5385   8.439   6.226   9.849  0.2166 -0.8638 -1.7580
  781MOL0     H 5386   8.113   6.163   9.803 -1.2065  0.9071 -0.2998
  781MOL0     H 5387   7.870   6.343  10.043 -0.0970  0.5322  1.4205
  781MOL0     H 5388   7.857   6.204   9.944 -3.0858  0.6125  1.6055
  781MOL0     H 5389   8.007   6.198  10.218 -2.8365 -1.8111  3.2870
  781MOL0     H 5390   7.966   6.063  10.105 -0.3203 -0.9424  2.0493
  781MOL0     H 5391   7.732   6.094  10.162  2.2386  0.8685 -3.4877
  781MOL0     H 5392   7.760   6.248  10.251 -0.0324 -0.0762  0.1792
  781MOL0     H 5393   7.740   6.085  10.430 -1.2676 -0.7806 -0.8541
  781MOL0     H 5394   7.902   6.147  10.422  0.5526 -1.1974  0.6607
  781MOL0     H 5395   7.967   5.715  10.339 -3.0868  0.0137 -0.2133
  781MOL0     H 5396   8.041   5.472  10.597 -0.7247  0.6429  0.8915
  781MOL0     H 5397   8.038   5.512  10.429  2.4241  3.7805 -2.2217
  781MOL0     H 5398   8.182   5.544  10.514  0.6524  1.2727 -0.9861
  781MOL0     H 5399   8.326   5.556  10.907  0.2308 -0.1218  1.4100
  781MOL0     H 5400   8.438   5.359  10.995  0.1367 -1.5362  1.8107
  781MOL0     H 5401   8.514   5.127  10.924 -0.9083  2.1759  0.8087
  781MOL0     H 5402   8.512   5.163  11.098  1.9189 -2.4097  1.6191
  781MOL0     H 5403   8.610   4.938  11.003 -0.7509 -2.9896 -1.9581
  781MOL0     H 5404   8.521   4.934  11.154  1.6695  1.3889  0.7848
  781MOL0     H 5405   8.327   4.860  11.070 -0.4252  2.2436 -0.6867
  781MOL0     H 5406   8.457   4.739  11.047  2.2378  1.5377  2.1131
  781MOL0     H 5407   8.309   4.749  10.846 -2.6021  0.8495  5.2303
  781MOL0     H 5408   8.371   4.918  10.827  0.8257  0.5920  3.1426
  781MOL0     H 5409   8.589   4.842  10.810 -0.2798 -0.5411  1.7991
  781MOL0     H 5410   8.496   4.775  10.680 -2.1599 -0.0988 -0.2935
  781MOL0     H 5411   8.641   4.635  10.901 -1.7824 -0.1307  0.5699
  781MOL0     H 5412   8.473   4.584  10.883  2.1165 -2.4035  2.3448
  781MOL0     H 5413   8.665   4.444  10.751  1.0718  1.8318  1.5121
  781MOL0     H 5414   8.684   4.577  10.645 -1.4804  1.6047 -1.7334
  781MOL0     H 5415   8.529   4.439  10.532 -0.3962 -1.8010  1.2881
  781MOL0     H 5416   8.444   4.581  10.589  0.4731  1.2320  4.4664
  781MOL0     H 5417   8.071   5.134  11.002  0.9364  0.2666  1.1514
  781MOL0     H 5418   7.973   5.318  10.852  0.8119 -0.4249 -0.3977
  781MOL0     H 5419   7.983   5.934  10.790  2.3211 -1.7114  0.8142
  781MOL0     H 5420   7.892   6.038  10.606  2.5024  0.9399  1.4990
  781MOL0     H 5421   9.082   6.565   9.563 -2.9620 -3.6604  1.3469
  781MOL0     H 5422   9.287   6.632   9.681  0.9573  1.0594 -1.7355
  781MOL0     H 5423   9.641   6.424   9.923  4.3816 -3.9803 -3.6296
  781MOL0     H 5424   9.863   6.443  10.038  0.9972 -0.2699 -0.4046
  781MOL0     H 5425  10.041   6.505  10.178 -1.2999  0.0130 -0.4395
  781MOL0     H 5426  10.112   6.652  10.238 -2.2135  2.5293  0.8214
  781MOL0     H 5427   9.883   6.551  10.344  1.6199 -0.5833 -0.5125
  781MOL0     H 5428   9.814   6.680  10.246 -0.0680  2.0277  0.1074
  781MOL0     H 5429  10.057   6.720  10.426  0.4063  0.1141 -2.6472
  781MOL0     H 5430   9.889   6.761  10.478 -0.9773  1.1993 -0.9149
  781MOL0     H 5431  10.073   6.875  10.264 -0.0757 -2.8621 -0.1311
  781MOL0     H 5432  10.000   6.951  10.401  0.2472 -0.2083  0.3623
  781MOL0     H 5433   9.679   7.001  10.128 -0.3627 -1.3462 -0.3824
  781MOL0     H 5434   9.928   6.831   9.892  0.2047 -1.2756 -2.0332
  781MOL0     H 5435   9.700   6.823   9.771 -0.8242 -0.4166  0.1284
  782MOL0     O 5436   9.149   0.570   6.951  1.2129  0.3951  0.0064
  782MOL0     C 5437   9.247   0.646   6.924  0.2998  0.0475 -0.4975
  782MOL0     O 5438   9.367   0.601   6.879  0.1390  0.1589  0.8340
  782MOL0     C 5439   9.405   0.477   6.847 -0.9412  0.1026 -0.3612
  782MOL0     C 5440   9.317   0.384   6.796 -0.1631  0.7115  0.3655
  782MOL0     C 5441   9.356   0.258   6.760  0.8035  0.2918 -0.7831
  782MOL0     C 5442   9.494   0.225   6.772 -0.5028 -0.2932 -0.7266
  782MOL0     O 5443   9.527   0.092   6.766  0.1368 -0.2524 -0.0916
  782MOL0     C 5444   9.445  -0.010   6.707  0.0984  0.8001  0.5962
  782MOL0     C 5445   9.518  -0.151   6.727 -0.2376  0.5387  0.3362
  782MOL0     C 5446   9.542  -0.174   6.876  0.1810  0.8889 -0.2886
  782MOL0     C 5447   9.551  -0.331   6.903 -1.1339 -0.2573 -0.0493
  782MOL0     C 5448   9.538  -0.346   7.051  0.0416  0.7398  1.0366
  782MOL0     C 5449   9.399  -0.355   7.105  0.3224  0.3535 -0.2723
  782MOL0     C 5450   9.330  -0.498   7.092 -0.0604 -1.0387 -0.1927
  782MOL0     C 5451   9.178  -0.468   7.098  0.6951 -0.8266  0.6005
  782MOL0     N 5452   9.124  -0.392   6.987  0.9804  0.1670  0.0173
  782MOL0     C 5453   9.174  -0.390   6.864 -0.5548 -0.2255  0.6819
  782MOL0     C 5454   9.092  -0.292   6.804 -0.8833  0.6379 -1.2168
  782MOL0     C 5455   9.082  -0.268   6.661 -0.4804 -0.2216 -0.1500
  782MOL0     C 5456   8.992  -0.377   6.604 -0.6921 -0.8400  0.1609
  782MOL0     C 5457   8.963  -0.365   6.456 -0.4092  0.1387  0.4694
  782MOL0     C 5458   9.090  -0.407   6.380  0.2336 -0.0115  0.0755
  782MOL0     O 5459   9.074  -0.466   6.248  0.2927  0.6600  0.3934
  782MOL0     C 5460   9.194  -0.493   6.183  0.8154 -0.3257 -1.1270
  782MOL0     C 5461   9.199  -0.576   6.070 -0.4256 -0.0220  0.1891
  782MOL0     C 5462   9.318  -0.612   5.995  0.7490 -0.6166 -1.0075
  782MOL0     C 5463   9.319  -0.692   5.870 -0.2513 -0.1148 -0.6412
  782MOL0     C 5464   9.443  -0.548   6.040  0.0643 -0.2131  0.9701
  782MOL0     C 5465   9.578  -0.561   5.981 -0.0125  0.1684 -0.6063
  782MOL0     O 5466   9.658  -0.448   6.004  0.2954 -0.2574 -0.3015
  782MOL0     C 5467   9.786  -0.432   5.967  0.0761  0.6884 -0.9376
  782MOL0     C 5468   9.872  -0.538   5.939  0.2261  0.6825 -0.0895
  782MOL0     C 5469  10.009  -0.504   5.903  0.3013 -0.4970  0.0473
  782MOL0     C 5470  10.051  -0.376   5.888 -0.0630 -0.3790  0.8582
  782MOL0     O 5471  10.177  -0.347   5.842 -0.0408 -0.5521  0.1400
  782MOL0     C 5472  10.174  -0.246   5.742  0.0147 -0.4251 -0.1750
  782MOL0     C 5473  10.318  -0.243   5.698  0.1339  0.2188  0.9762
  782MOL0     C 5474  10.421  -0.212   5.804 -0.2550 -0.0406  0.0179
  782MOL0     C 5475  10.415  -0.059   5.838 -0.6773 -0.0150 -0.5996
  782MOL0     C 5476  10.369  -0.047   5.980 -0.3597  0.0143  1.1326
  782MOL0     C 5477  10.353   0.101   6.004  0.3768  0.2609 -0.3539
  782MOL0     C 5478  10.332   0.143   6.155 -0.8556 -0.3787  0.1335
  782MOL0     C 5479  10.375   0.287   6.183  0.4837  0.8531 -0.3523
  782MOL0    Cl 5480  10.546   0.325   6.156  0.0356  0.2036 -0.4105
  782MOL0     C 5481   9.966  -0.272   5.938 -0.3026 -0.1818  0.3885
  782MOL0     C 5482   9.837  -0.306   5.975 -0.2509  0.0660 -0.0738
  782MOL0     O 5483   9.616  -0.672   5.933  0.1397  0.5716  0.3211
  782MOL0     C 5484   9.436  -0.470   6.156 -0.4309  0.2178  0.3073
  782MOL0     C 5485   9.321  -0.437   6.229 -0.3801 -0.1038 -0.1757
  782MOL0     N 5486   8.986  -0.248   6.890 -0.8570  0.7244 -0.1694
  782MOL0     N 5487   9.006  -0.319   6.993 -0.5447  0.9875 -0.6484
  782MOL0     C 5488   9.592   0.315   6.817  0.6057 -1.0910 -0.5871
  782MOL0     C 5489   9.540   0.439   6.858 -0.4622 -0.2887 -0.2421
  782MOL0     C 5490   9.226   0.791   6.946 -0.1635  0.2829  0.1881
  782MOL0     C 5491   9.106   0.833   7.004 -0.7888 -0.1481  0.2256
  782MOL0     C 5492   9.088   0.974   7.013 -1.1724  1.0434 -0.5102
  782MOL0     C 5493   9.191   1.057   6.968 -0.0727  0.0094 -0.7506
  782MOL0     O 5494   9.159   1.187   7.000 -0.4152  0.0735 -0.3957
  782MOL0     C 5495   9.269   1.284   7.011 -0.4055 -0.2256  0.3971
  782MOL0     C 5496   9.246   1.355   7.143  0.1194 -0.7034 -0.3142
  782MOL0     C 5497   9.287   1.286   7.274  0.0681 -0.2217  0.1198
  782MOL0     C 5498   9.435   1.252   7.311 -0.3712 -0.4418  0.5947
  782MOL0     C 5499   9.520   1.370   7.300 -0.1470  0.4882 -1.2515
  782MOL0     C 5500   9.589   1.466   7.287  0.1322 -0.4237  0.1157
  782MOL0     C 5501   9.304   1.013   6.910  0.0694 -0.1164  0.7248
  782MOL0     C 5502   9.330   0.878   6.900  0.7684  0.8280 -0.7287
  782MOL0     H 5503   9.210   0.399   6.791 -0.2510  0.4004  1.1519
  782MOL0     H 5504   9.279   0.187   6.735 -0.8554  1.3650  0.9345
  782MOL0     H 5505   9.353  -0.024   6.765 -0.9717  1.4482 -0.8737
  782MOL0     H 5506   9.427   0.008   6.600 -0.4384 -0.3759  0.4646
  782MOL0     H 5507   9.446  -0.230   6.701  0.5224 -0.2332  0.5382
  782MOL0     H 5508   9.607  -0.142   6.665 -1.3801  1.7173 -1.2221
  782MOL0     H 5509   9.625  -0.112   6.911 -0.9368  0.7520  2.9291
  782MOL0     H 5510   9.457  -0.140   6.935  1.4076  1.7985  1.0084
  782MOL0     H 5511   9.472  -0.387   6.853  1.7566 -1.6597 -3.5288
  782MOL0     H 5512   9.650  -0.363   6.868 -0.2222  1.9818  0.3583
  782MOL0     H 5513   9.588  -0.443   7.056  0.0836  0.7214  0.3997
  782MOL0     H 5514   9.591  -0.263   7.098  1.2657  1.8397 -2.0220
  782MOL0     H 5515   9.423  -0.350   7.212  0.3585 -0.8641 -0.2059
  782MOL0     H 5516   9.336  -0.269   7.082 -1.7624 -1.0961 -0.2868
  782MOL0     H 5517   9.347  -0.557   7.001  0.4189 -2.5575  0.8297
  782MOL0     H 5518   9.367  -0.565   7.170 -0.7000  1.0235  1.9702
  782MOL0     H 5519   9.155  -0.412   7.189 -3.9427  3.4508 -2.6652
  782MOL0     H 5520   9.113  -0.556   7.102 -2.0569  1.0423 -0.5568
  782MOL0     H 5521   9.245  -0.453   6.812  1.2954  2.2615  0.0105
  782MOL0     H 5522   9.042  -0.168   6.642 -2.1351 -0.2896  2.4268
  782MOL0     H 5523   9.176  -0.280   6.606 -1.9808 -4.4488 -2.3349
  782MOL0     H 5524   8.893  -0.357   6.646 -0.6540  0.2812 -0.2561
  782MOL0     H 5525   9.022  -0.475   6.644 -2.0596 -0.0238  3.5408
  782MOL0     H 5526   8.925  -0.267   6.425 -0.1605 -0.1108 -0.6708
  782MOL0     H 5527   8.891  -0.438   6.420  1.7366 -2.3024  0.8278
  782MOL0     H 5528   9.158  -0.469   6.439 -0.9391 -2.3621 -0.8816
  782MOL0     H 5529   9.138  -0.309   6.372 -1.2409  0.6369 -1.1954
  782MOL0     H 5530   9.107  -0.616   6.028 -1.2657  1.5061  0.5009
  782MOL0     H 5531   9.214  -0.713   5.846 -0.0902  0.0631 -1.5442
  782MOL0     H 5532   9.367  -0.635   5.791 -0.9345 -1.4513 -2.0795
  782MOL0     H 5533   9.371  -0.788   5.880 -0.3162 -0.4742 -3.0876
  782MOL0     H 5534   9.834  -0.640   5.935 -1.7987  1.4203 -0.6126
  782MOL0     H 5535  10.061  -0.589   5.859 -0.9850 -2.5041  2.1985
  782MOL0     H 5536  10.105  -0.259   5.658 -0.8739  0.1521  0.4495
  782MOL0     H 5537  10.152  -0.154   5.797 -0.4655 -2.0255  2.4908
  782MOL0     H 5538  10.340  -0.344   5.662  1.2106  0.0035  2.1458
  782MOL0     H 5539  10.331  -0.177   5.612 -0.3924  0.9644  1.4651
  782MOL0     H 5540  10.518  -0.236   5.760 -0.3338 -1.6709  0.6976
  782MOL0     H 5541  10.422  -0.280   5.889  0.7491 -0.3397 -0.2287
  782MOL0     H 5542  10.517  -0.024   5.820 -0.8542  0.9009  0.0898
  782MOL0     H 5543  10.353  -0.017   5.758 -1.4704 -1.6528 -0.8858
  782MOL0     H 5544  10.437  -0.090   6.054  1.1253  2.0188  1.0459
  782MOL0     H 5545  10.274  -0.096   5.999 -2.1900  2.0549 -1.8675
  782MOL0     H 5546  10.449   0.147   5.980 -0.2430  3.0523  1.9784
  782MOL0     H 5547  10.278   0.146   5.940 -0.1050  1.3599  0.9298
  782MOL0     H 5548  10.384   0.064   6.210  1.8547  0.0362 -1.6420
  782MOL0     H 5549  10.230   0.137   6.193 -0.4241  1.9751  1.8594
  782MOL0     H 5550  10.337   0.315   6.281  0.7486 -1.3779  0.4573
  782MOL0     H 5551  10.316   0.355   6.121  1.7886  3.0612  0.7372
  782MOL0     H 5552   9.992  -0.167   5.933  2.0374 -0.7014  0.6024
  782MOL0     H 5553   9.764  -0.233   6.009 -1.2822 -1.3730  0.9144
  782MOL0     H 5554   9.528  -0.447   6.209  0.9752 -1.2380 -1.3465
  782MOL0     H 5555   9.332  -0.372   6.314 -1.6984  0.3047 -0.2934
  782MOL0     H 5556   9.691   0.274   6.832  1.5092  0.9391 -0.6836
  782MOL0     H 5557   9.606   0.496   6.924  1.1194 -2.7547  0.4428
  782MOL0     H 5558   9.030   0.761   7.033  0.4084 -0.6004  2.4780
  782MOL0     H 5559   8.999   1.012   7.062 -2.3182 -3.0142  0.9796
  782MOL0     H 5560   9.370   1.243   7.003  0.7492  2.2196  1.4642
  782MOL0     H 5561   9.263   1.357   6.930  4.2238  0.3209  0.2690
  782MOL0     H 5562   9.140   1.381   7.145  0.3524  0.8751 -3.1166
  782MOL0     H 5563   9.307   1.446   7.142 -0.8434 -0.0391 -0.4859
  782MOL0     H 5564   9.239   1.188   7.266  1.2677 -0.6900 -2.6732
  782MOL0     H 5565   9.245   1.346   7.356  1.1231  2.2609 -1.0633
  782MOL0     H 5566   9.477   1.179   7.241  1.1726  1.7609 -0.9285
  782MOL0     H 5567   9.458   1.198   7.403  0.3304 -0.3910  0.4525
  782MOL0     H 5568   9.656   1.550   7.284 -0.4975  0.0736 -0.1454
  782MOL0     H 5569   9.384   1.069   6.862  0.4847  1.1538  2.7727
  782MOL0     H 5570   9.424   0.833   6.871  0.2449 -0.6603 -0.2232
  783MOL0     O 5571   2.037   0.228   3.315  0.0830  0.0887 -0.4239
  783MOL0     C 5572   1.919   0.266   3.319 -0.2913 -0.5392 -0.3144
  783MOL0     O 5573   1.814   0.194   3.290 -0.2500 -0.1087  0.7786
  783MOL0     C 5574   1.836   0.086   3.215 -0.4085  0.3027  0.9281
  783MOL0     C 5575   1.879  -0.032   3.276 -0.4519  0.0945 -0.1367
  783MOL0     C 5576   1.883  -0.148   3.204  0.0562  0.0621  0.3436
  783MOL0     C 5577   1.880  -0.146   3.060  0.4395  0.4084 -0.7719
  783MOL0     O 5578   1.917  -0.256   2.988  0.2118 -0.2849  0.4989
  783MOL0     C 5579   1.977  -0.364   3.060 -0.3275  0.3867  0.0676
  783MOL0     C 5580   2.024  -0.469   2.948  0.1548  0.6014 -1.2001
  783MOL0     C 5581   1.911  -0.538   2.868  0.9026  0.6446  0.9990
  783MOL0     C 5582   1.814  -0.616   2.962 -0.1946 -0.4582 -0.0118
  783MOL0     C 5583   1.680  -0.627   2.889 -0.9490 -0.5682  0.4706
  783MOL0     C 5584   1.582  -0.704   2.973  0.4450 -0.6244  0.4626
  783MOL0     C 5585   1.582  -0.856   2.955 -0.4328 -0.2514 -0.2679
  783MOL0     C 5586   1.482  -0.938   3.025  0.6423 -0.2123 -1.0330
  783MOL0     N 5587   1.347  -0.885   3.018 -0.4301  0.0721  0.3362
  783MOL0     C 5588   1.277  -0.850   2.901 -0.6562 -0.9797  1.1377
  783MOL0     C 5589   1.167  -0.794   2.943  0.1910  0.6555 -0.7731
  783MOL0     C 5590   1.049  -0.757   2.850 -0.5905  0.2360 -0.2747
  783MOL0     C 5591   0.920  -0.834   2.878  0.1290 -0.7592  0.2354
  783MOL0     C 5592   0.804  -0.799   2.781 -0.5182  0.3056  0.6872
  783MOL0     C 5593   0.738  -0.660   2.814  1.2491 -0.1082 -0.8715
  783MOL0     O 5594   0.642  -0.633   2.706  0.3645 -0.4594 -0.3124
  783MOL0     C 5595   0.624  -0.500   2.683 -0.2535 -0.7445 -0.1760
  783MOL0     C 5596   0.578  -0.483   2.548  0.7716  0.6970  0.0187
  783MOL0     C 5597   0.544  -0.359   2.491 -0.1245 -0.0370  0.6609
  783MOL0     C 5598   0.487  -0.367   2.353 -0.0411  0.2579  0.3701
  783MOL0     C 5599   0.552  -0.244   2.574 -0.0626  0.9176  0.3395
  783MOL0     C 5600   0.499  -0.106   2.534 -1.3416  0.4677  0.1506
  783MOL0     O 5601   0.425  -0.087   2.422 -0.1902  0.3096  0.3348
  783MOL0     C 5602   0.383   0.042   2.390  0.6007 -0.1117  0.3352
  783MOL0     C 5603   0.247   0.066   2.390  0.2346 -1.1883 -0.0841
  783MOL0     C 5604   0.187   0.185   2.338 -0.5166  0.4689  0.1738
  783MOL0     C 5605   0.277   0.281   2.288  0.1871  0.9164 -0.4187
  783MOL0     O 5606   0.248   0.395   2.230  0.7045 -0.9153 -0.0270
  783MOL0     C 5607   0.108   0.438   2.243 -0.8478 -0.2725 -0.3473
  783MOL0     C 5608   0.062   0.562   2.159  0.0226  1.1239 -0.5385
  783MOL0     C 5609   0.118   0.696   2.209 -0.5241  0.4743  0.4950
  783MOL0     C 5610   0.253   0.707   2.149  0.2150 -0.3632 -0.0584
  783MOL0     C 5611   0.249   0.781   2.013  0.8066  0.2864 -0.1472
  783MOL0     C 5612   0.391   0.817   1.971 -1.0480 -0.7776 -0.6654
  783MOL0     C 5613   0.396   0.858   1.829  1.3772  0.2928 -0.0713
  783MOL0     C 5614   0.543   0.863   1.772 -0.1696 -0.4937  0.2781
  783MOL0    Cl 5615   0.630   0.712   1.811 -0.3859 -0.0737  0.1147
  783MOL0     C 5616   0.415   0.262   2.305 -0.2196 -1.0322 -0.3535
  783MOL0     C 5617   0.468   0.141   2.350  0.7144 -0.4179  0.1019
  783MOL0     O 5618   0.515  -0.016   2.616  0.2786  0.0519 -0.5226
  783MOL0     C 5619   0.613  -0.266   2.695  0.2076  0.0648 -1.3604
  783MOL0     C 5620   0.661  -0.386   2.749 -0.4562 -0.8920 -0.9785
  783MOL0     N 5621   1.174  -0.781   3.080  0.0834  0.6998 -0.2293
  783MOL0     N 5622   1.282  -0.838   3.122  0.7761  0.5570 -1.0757
  783MOL0     C 5623   1.844  -0.030   2.998  0.4369  0.0932  0.0405
  783MOL0     C 5624   1.819   0.087   3.072  0.1066 -0.5808 -0.4426
  783MOL0     C 5625   1.885   0.399   3.369  0.0018 -0.2757 -0.0000
  783MOL0     C 5626   1.988   0.476   3.430  0.4632  0.2431  0.5935
  783MOL0     C 5627   1.952   0.605   3.486  0.2547  0.5730  0.1706
  783MOL0     C 5628   1.816   0.650   3.484  0.8073 -0.1110  0.7985
  783MOL0     O 5629   1.806   0.773   3.537 -0.1678 -0.7956  0.0235
  783MOL0     C 5630   1.670   0.817   3.569 -0.1832 -0.6228  0.6014
  783MOL0     C 5631   1.607   0.735   3.686  0.5546  0.5213  0.1078
  783MOL0     C 5632   1.479   0.794   3.741 -0.7281  0.0401  0.5689
  783MOL0     C 5633   1.423   0.751   3.871  0.1015 -0.1110 -0.7274
  783MOL0     C 5634   1.275   0.749   3.885 -0.5005 -0.4972 -0.1713
  783MOL0     C 5635   1.160   0.722   3.871  0.6389  0.4747 -0.5837
  783MOL0     C 5636   1.723   0.578   3.411  0.0935 -0.0088 -0.5673
  783MOL0     C 5637   1.754   0.452   3.356 -0.1634 -0.5702  0.3684
  783MOL0     H 5638   1.890  -0.036   3.383 -0.4862 -0.0378 -0.1387
  783MOL0     H 5639   1.916  -0.233   3.262 -1.5579 -1.4218 -0.8126
  783MOL0     H 5640   2.060  -0.335   3.124  0.6075  2.3880 -1.8903
  783MOL0     H 5641   1.904  -0.416   3.122 -0.9488 -1.3275 -1.9657
  783MOL0     H 5642   2.090  -0.410   2.885  3.4710  0.5628  1.9039
  783MOL0     H 5643   2.081  -0.543   3.005 -2.7937  0.4232  1.9115
  783MOL0     H 5644   1.871  -0.453   2.811  0.7419  0.7821  1.3133
  783MOL0     H 5645   1.953  -0.602   2.790 -0.0650  1.8198 -0.5533
  783MOL0     H 5646   1.834  -0.722   2.979  0.4407  0.0211  2.7515
  783MOL0     H 5647   1.800  -0.569   3.060 -2.9809  0.2377 -0.6538
  783MOL0     H 5648   1.647  -0.526   2.865  5.3968  1.5738 -1.1394
  783MOL0     H 5649   1.700  -0.678   2.794  2.8966  2.3855 -0.5305
  783MOL0     H 5650   1.595  -0.677   3.078 -2.8932  2.6841  0.2427
  783MOL0     H 5651   1.483  -0.659   2.957  0.0735 -0.3798  2.9463
  783MOL0     H 5652   1.563  -0.878   2.849 -3.1199  0.1926  0.0450
  783MOL0     H 5653   1.682  -0.885   2.989  0.3296  1.4376 -0.9562
  783MOL0     H 5654   1.501  -0.942   3.132 -1.4787  2.2446 -0.4659
  783MOL0     H 5655   1.472  -1.043   2.996  3.0032 -0.9709  0.5973
  783MOL0     H 5656   1.299  -0.881   2.799  0.7324 -0.0940  1.1435
  783MOL0     H 5657   1.034  -0.649   2.858  1.0762  0.4119  1.2175
  783MOL0     H 5658   1.069  -0.767   2.743 -2.4431  0.3936 -0.6763
  783MOL0     H 5659   0.886  -0.818   2.980  1.0332  0.3073  0.3869
  783MOL0     H 5660   0.952  -0.939   2.868  1.3226 -0.2892 -1.3682
  783MOL0     H 5661   0.728  -0.877   2.770  0.0153 -0.2937  1.1535
  783MOL0     H 5662   0.847  -0.798   2.680 -3.3718 -0.8160 -0.6430
  783MOL0     H 5663   0.814  -0.581   2.818 -0.7426  1.8333  1.2337
  783MOL0     H 5664   0.685  -0.656   2.909 -0.6552 -0.8081 -1.8484
  783MOL0     H 5665   0.570  -0.576   2.492  1.2682  1.2055 -0.9332
  783MOL0     H 5666   0.515  -0.288   2.283 -2.1270  1.2791  0.6068
  783MOL0     H 5667   0.510  -0.460   2.299  1.5748  0.1775  1.1307
  783MOL0     H 5668   0.382  -0.352   2.381 -0.4573 -2.0384  0.2417
  783MOL0     H 5669   0.179  -0.015   2.413 -0.5256 -0.0494  1.8862
  783MOL0     H 5670   0.082   0.210   2.327 -1.0382 -2.0492 -1.6917
  783MOL0     H 5671   0.043   0.360   2.203 -0.0785 -0.7224 -0.7329
  783MOL0     H 5672   0.078   0.457   2.346  1.1294  2.8734 -0.1967
  783MOL0     H 5673   0.088   0.545   2.054  0.2257 -0.7250 -0.2283
  783MOL0     H 5674  -0.047   0.573   2.164  0.0123  1.9261 -1.9499
  783MOL0     H 5675   0.122   0.689   2.318 -0.0532 -0.5540  0.4276
  783MOL0     H 5676   0.053   0.780   2.183 -4.1940 -1.0210  3.7566
  783MOL0     H 5677   0.309   0.768   2.221  1.3408  1.2165 -2.1768
  783MOL0     H 5678   0.311   0.614   2.137 -0.0307 -0.7688  1.5675
  783MOL0     H 5679   0.183   0.868   2.024  0.0405 -0.5243  2.2975
  783MOL0     H 5680   0.203   0.711   1.944 -1.0043  2.6717 -1.5058
  783MOL0     H 5681   0.418   0.905   2.029  0.1329  0.2086 -2.6163
  783MOL0     H 5682   0.450   0.726   1.989 -1.5397 -1.1171 -0.7251
  783MOL0     H 5683   0.349   0.957   1.825 -1.4491 -0.8850  1.1311
  783MOL0     H 5684   0.333   0.793   1.768  0.7322 -0.4390  1.3505
  783MOL0     H 5685   0.597   0.953   1.803  0.7284  0.2209 -2.9607
  783MOL0     H 5686   0.523   0.870   1.665  0.1487 -1.2826  0.1572
  783MOL0     H 5687   0.493   0.336   2.291 -2.0659  1.2841  0.8487
  783MOL0     H 5688   0.573   0.118   2.366  1.1471 -1.2774 -3.2298
  783MOL0     H 5689   0.621  -0.178   2.757  1.8844  0.6781 -2.3855
  783MOL0     H 5690   0.718  -0.392   2.841 -2.3590 -0.6416  0.2785
  783MOL0     H 5691   1.822  -0.022   2.892  2.0998 -1.0667 -0.4264
  783MOL0     H 5692   1.777   0.180   3.037  2.4314  0.7340  0.0742
  783MOL0     H 5693   2.093   0.452   3.443  0.2025 -3.5818 -2.5756
  783MOL0     H 5694   2.017   0.681   3.527  3.6426 -0.9056 -1.9663
  783MOL0     H 5695   1.680   0.925   3.585  2.3305 -0.5504 -0.9369
  783MOL0     H 5696   1.607   0.804   3.480  1.3489  0.6810 -0.7443
  783MOL0     H 5697   1.681   0.733   3.766 -0.1434  2.2322  0.8466
  783MOL0     H 5698   1.584   0.631   3.661 -1.9610  0.1695  3.1542
  783MOL0     H 5699   1.405   0.805   3.661 -1.4376  0.7544  1.3112
  783MOL0     H 5700   1.502   0.900   3.752  1.4505  0.2635 -3.8750
  783MOL0     H 5701   1.465   0.818   3.946  2.8465 -2.9039  0.4661
  783MOL0     H 5702   1.473   0.657   3.895  1.2375  0.3025 -1.3825
  783MOL0     H 5703   1.055   0.702   3.865  0.6481  0.2491 -0.0306
  783MOL0     H 5704   1.621   0.616   3.404 -0.3985 -1.0890  0.4768
  783MOL0     H 5705   1.676   0.403   3.299  0.5733  0.2051 -1.3788
  784MOL0     O 5706   6.495   5.556  11.045 -0.1259  0.6099  0.5936
  784MOL0     C 5707   6.469   5.674  11.039  0.9830 -0.6585 -0.0339
  784MOL0     O 5708   6.501   5.756  10.935 -0.0956  0.3340 -0.2613
  784MOL0     C 5709   6.556   5.702  10.824  0.1838 -0.2890  0.4847
  784MOL0     C 5710   6.481   5.622  10.740  0.8859  0.3303  0.7988
  784MOL0     C 5711   6.523   5.585  10.610 -0.2595  0.8843  0.0708
  784MOL0     C 5712   6.645   5.630  10.576  0.3733  0.4438  0.5935
  784MOL0     O 5713   6.681   5.579  10.451 -0.1413  1.5017 -0.2979
  784MOL0     C 5714   6.823   5.567  10.419 -0.7796  0.4332  1.0894
  784MOL0     C 5715   6.814   5.597  10.262 -0.0714 -0.4037 -0.1141
  784MOL0     C 5716   6.792   5.748  10.220  0.2407  0.8786 -0.0971
  784MOL0     C 5717   6.928   5.812  10.205 -1.0220  0.1299 -1.0211
  784MOL0     C 5718   6.912   5.954  10.152  1.0276 -0.0209  0.5681
  784MOL0     C 5719   7.043   6.029  10.130 -0.2572 -0.2393  0.2809
  784MOL0     C 5720   7.014   6.179  10.120  0.1213 -0.6764 -0.3942
  784MOL0     C 5721   7.137   6.255  10.064 -0.1202  0.2102 -0.8214
  784MOL0     N 5722   7.130   6.401  10.041  0.5580  0.2535 -1.0724
  784MOL0     C 5723   7.054   6.465   9.949 -0.2318 -0.6525 -0.1460
  784MOL0     C 5724   7.114   6.588   9.937 -0.2974  0.2725  1.2077
  784MOL0     C 5725   7.087   6.703   9.839  0.0309 -0.8540  0.2085
  784MOL0     C 5726   6.938   6.742   9.827  0.2428 -0.1826 -0.6563
  784MOL0     C 5727   6.875   6.732   9.690 -0.5277  0.4547 -0.2901
  784MOL0     C 5728   6.847   6.586   9.642 -0.4884  0.1685  0.3700
  784MOL0     O 5729   6.827   6.602   9.502 -0.3121 -0.0307 -1.1211
  784MOL0     C 5730   6.779   6.484   9.457  0.6910 -0.0109  0.5422
  784MOL0     C 5731   6.670   6.493   9.371 -0.0252 -0.4461  0.2255
  784MOL0     C 5732   6.619   6.380   9.308  0.0467 -0.5011 -0.2220
  784MOL0     C 5733   6.513   6.415   9.196 -0.2550 -0.1554  0.3973
  784MOL0     C 5734   6.658   6.246   9.352  0.0635 -0.3619  0.4218
  784MOL0     C 5735   6.612   6.118   9.286  0.3994 -0.4077 -0.6212
  784MOL0     O 5736   6.626   6.006   9.370 -0.3717 -0.0087  0.2680
  784MOL0     C 5737   6.579   5.879   9.318  0.1392 -1.1275 -0.1650
  784MOL0     C 5738   6.666   5.773   9.327  0.7497 -0.2574 -0.1726
  784MOL0     C 5739   6.638   5.659   9.264 -0.3168  0.2976 -0.7105
  784MOL0     C 5740   6.523   5.641   9.179 -0.3935  0.2476 -0.3028
  784MOL0     O 5741   6.510   5.526   9.100  0.4719 -0.0093 -0.0510
  784MOL0     C 5742   6.574   5.395   9.146 -0.2329 -0.5342 -0.1331
  784MOL0     C 5743   6.520   5.266   9.074 -0.4264 -0.7204 -0.2567
  784MOL0     C 5744   6.618   5.147   9.107  1.0539 -0.4047  0.3328
  784MOL0     C 5745   6.603   5.110   9.261 -0.1990 -0.9132 -1.2136
  784MOL0     C 5746   6.647   4.968   9.287 -0.5081 -0.0643  0.0837
  784MOL0     C 5747   6.662   4.936   9.437  0.5919  0.9927  0.9706
  784MOL0     C 5748   6.705   4.787   9.467  0.1006 -1.1194 -0.0761
  784MOL0     C 5749   6.741   4.764   9.614  0.2827  0.0524  0.5900
  784MOL0    Cl 5750   6.582   4.777   9.718 -0.2508 -0.8216  0.3431
  784MOL0     C 5751   6.431   5.743   9.181  0.2115 -0.2025 -0.0512
  784MOL0     C 5752   6.451   5.856   9.255 -0.3533 -0.3128  0.5913
  784MOL0     O 5753   6.567   6.125   9.176  0.1301 -0.0032  0.1157
  784MOL0     C 5754   6.762   6.242   9.446 -1.2570  0.5525 -0.0909
  784MOL0     C 5755   6.826   6.351   9.490 -0.5736  0.4623  0.0566
  784MOL0     N 5756   7.219   6.596  10.032 -0.3617 -1.0035  0.2362
  784MOL0     N 5757   7.223   6.486  10.098  0.0042  0.5800 -0.2164
  784MOL0     C 5758   6.726   5.719  10.652  0.1264  0.1958  0.2983
  784MOL0     C 5759   6.680   5.746  10.786  0.0220 -0.0434  1.4593
  784MOL0     C 5760   6.402   5.747  11.151  0.8782  0.1542 -0.6167
  784MOL0     C 5761   6.413   5.882  11.175 -0.0343  0.1035 -0.2141
  784MOL0     C 5762   6.345   5.940  11.283  0.5794 -0.0189  0.0225
  784MOL0     C 5763   6.283   5.860  11.376 -0.4583  0.2927  0.4806
  784MOL0     O 5764   6.232   5.916  11.491  0.9131 -0.4862  0.2241
  784MOL0     C 5765   6.115   5.856  11.543  0.0917 -0.2945 -0.5806
  784MOL0     C 5766   6.043   5.960  11.636 -0.1060  0.4164 -1.0005
  784MOL0     C 5767   5.962   5.892  11.741  0.3027 -0.6754 -0.2743
  784MOL0     C 5768   5.926   5.986  11.861 -0.6528 -0.4817  0.4253
  784MOL0     C 5769   5.870   5.907  11.973 -0.3295  0.4285 -0.3293
  784MOL0     C 5770   5.825   5.829  12.060 -0.2090  0.4157 -0.5679
  784MOL0     C 5771   6.260   5.725  11.346  0.2115 -0.0022  0.5863
  784MOL0     C 5772   6.320   5.665  11.237  0.1017  0.0115 -0.2424
  784MOL0     H 5773   6.383   5.591  10.775 -0.7412  1.6000 -2.2266
  784MOL0     H 5774   6.464   5.512  10.555  0.9700  1.2058 -1.7800
  784MOL0     H 5775   6.885   5.637  10.476 -1.2903  1.3538  0.5426
  784MOL0     H 5776   6.857   5.465  10.439 -3.1795 -0.1925  2.3756
  784MOL0     H 5777   6.898   5.562  10.202 -1.4528 -0.9251 -1.8580
  784MOL0     H 5778   6.733   5.532  10.228 -0.5794 -1.0860  2.2504
  784MOL0     H 5779   6.735   5.737  10.127  1.3140  1.9258 -0.9210
  784MOL0     H 5780   6.744   5.800  10.302  3.3461  1.9720  1.1817
  784MOL0     H 5781   6.969   5.821  10.306 -5.1862 -1.6550  1.0240
  784MOL0     H 5782   6.992   5.762  10.131  1.0995 -0.7650  1.2910
  784MOL0     H 5783   6.847   5.958  10.065 -3.8489  0.0433  3.8342
  784MOL0     H 5784   6.850   5.997  10.232 -0.4401 -0.8504 -0.0888
  784MOL0     H 5785   7.114   6.011  10.211  0.0423  1.7433  0.5023
  784MOL0     H 5786   7.086   5.993  10.036  0.6537  1.3606  0.0592
  784MOL0     H 5787   6.927   6.217  10.066  0.9114  3.2368  0.7746
  784MOL0     H 5788   6.996   6.213  10.222  2.0978  1.3567 -0.6396
  784MOL0     H 5789   7.183   6.203   9.980 -1.4377 -4.0219  0.8110
  784MOL0     H 5790   7.222   6.238  10.130 -0.3460 -0.1803 -0.6233
  784MOL0     H 5791   6.970   6.421   9.897  0.2384 -1.6037 -0.1300
  784MOL0     H 5792   7.147   6.792   9.861 -0.2279  0.5240 -3.7709
  784MOL0     H 5793   7.114   6.675   9.737  0.3993 -1.7429  0.5457
  784MOL0     H 5794   6.938   6.843   9.871  1.0717 -1.5849  2.9053
  784MOL0     H 5795   6.889   6.673   9.895  2.0758 -2.6401 -1.7028
  784MOL0     H 5796   6.953   6.768   9.623 -1.8586  0.1013 -2.1320
  784MOL0     H 5797   6.788   6.799   9.684  0.5844  1.8050 -2.2324
  784MOL0     H 5798   6.760   6.549   9.697  1.1034  1.9450  4.5064
  784MOL0     H 5799   6.939   6.529   9.656 -0.4074 -0.8555 -3.4106
  784MOL0     H 5800   6.632   6.591   9.342  1.3464  0.6580  1.9303
  784MOL0     H 5801   6.564   6.429   9.100 -3.3835  0.9433 -1.2728
  784MOL0     H 5802   6.424   6.354   9.179 -0.5002  0.3887 -0.3354
  784MOL0     H 5803   6.473   6.516   9.215 -1.7634 -0.5539 -0.4871
  784MOL0     H 5804   6.758   5.778   9.383 -0.3479  0.9025  1.6421
  784MOL0     H 5805   6.703   5.572   9.265  0.6900  0.7916  4.9130
  784MOL0     H 5806   6.682   5.386   9.134 -0.0180 -2.3317  2.2796
  784MOL0     H 5807   6.572   5.387   9.255  1.6444 -0.9966 -0.1014
  784MOL0     H 5808   6.419   5.247   9.111 -0.4874  0.2780  0.0990
  784MOL0     H 5809   6.521   5.285   8.966  1.7086 -3.1177 -0.7694
  784MOL0     H 5810   6.724   5.171   9.092  1.1607 -0.6662  0.6400
  784MOL0     H 5811   6.592   5.058   9.049 -3.5679 -0.4814  2.0637
  784MOL0     H 5812   6.651   5.178   9.331 -2.9436 -0.5517  0.4642
  784MOL0     H 5813   6.496   5.108   9.284  0.4585 -1.5026  2.3321
  784MOL0     H 5814   6.743   4.951   9.237  0.1785  1.4882  0.7938
  784MOL0     H 5815   6.567   4.906   9.244 -1.2753  2.2474 -2.1200
  784MOL0     H 5816   6.723   5.007   9.493  1.0987  0.9148  0.5328
  784MOL0     H 5817   6.560   4.941   9.474 -0.2611 -1.7052 -0.7585
  784MOL0     H 5818   6.797   4.768   9.411  1.3462 -0.6564  1.7255
  784MOL0     H 5819   6.624   4.721   9.434  0.4645 -2.3111  1.2933
  784MOL0     H 5820   6.813   4.839   9.651  1.2758 -0.6150  0.0479
  784MOL0     H 5821   6.784   4.664   9.616 -0.1052 -0.1735 -1.0577
  784MOL0     H 5822   6.350   5.714   9.114  1.2047  0.0107 -1.3821
  784MOL0     H 5823   6.378   5.936   9.259 -0.7660 -0.7206  1.7248
  784MOL0     H 5824   6.812   6.151   9.477 -0.4191  1.7395  2.3061
  784MOL0     H 5825   6.920   6.339   9.542  0.3612  3.5495 -0.7125
  784MOL0     H 5826   6.826   5.755  10.631  0.0547  1.0218  1.3023
  784MOL0     H 5827   6.745   5.791  10.860  0.5310  1.6491  0.0431
  784MOL0     H 5828   6.487   5.937  11.119  0.2974 -0.0825  0.0396
  784MOL0     H 5829   6.370   6.042  11.311  2.0053 -0.6510  1.2311
  784MOL0     H 5830   6.042   5.822  11.469  1.3906 -1.0982 -1.5293
  784MOL0     H 5831   6.148   5.774  11.608 -2.4302 -0.1210  1.0263
  784MOL0     H 5832   5.981   6.026  11.574  0.7232  2.5318  0.3185
  784MOL0     H 5833   6.110   6.032  11.685 -1.2764  0.0074  1.2846
  784MOL0     H 5834   6.004   5.798  11.779 -2.3574 -1.8676 -0.0320
  784MOL0     H 5835   5.866   5.869  11.694  1.4827  1.4505 -4.2302
  784MOL0     H 5836   5.860   6.064  11.823  0.5756  0.3980  0.0231
  784MOL0     H 5837   6.021   6.026  11.899 -1.0580  0.7216  0.2089
  784MOL0     H 5838   5.799   5.747  12.124  0.8221  0.9353  0.5599
  784MOL0     H 5839   6.198   5.662  11.409 -2.5751  1.8738 -0.0850
  784MOL0     H 5840   6.318   5.557  11.225 -0.1270  0.0497 -0.5719
  785MOL0     O 5841   4.929   8.579   3.626  0.5513  0.4706 -0.1566
  785MOL0     C 5842   4.994   8.557   3.519  0.0027 -0.1118  0.5782
  785MOL0     O 5843   5.038   8.650   3.412  0.3749  0.2514 -0.5270
  785MOL0     C 5844   4.989   8.780   3.398 -0.3561  1.4125 -0.6267
  785MOL0     C 5845   4.876   8.838   3.465  0.8939  0.3273  0.1539
  785MOL0     C 5846   4.841   8.967   3.454 -0.3121 -1.2739  0.4536
  785MOL0     C 5847   4.904   9.043   3.358 -0.4057  0.3329  0.1801
  785MOL0     O 5848   4.875   9.174   3.339  0.2775 -0.1461 -0.1360
  785MOL0     C 5849   4.767   9.249   3.407 -0.2116 -0.3493  0.3373
  785MOL0     C 5850   4.816   9.286   3.542 -0.0382  0.3424  0.3118
  785MOL0     C 5851   4.744   9.413   3.602 -0.9684  1.1495 -1.2996
  785MOL0     C 5852   4.824   9.472   3.717  0.4783  0.1457 -0.2320
  785MOL0     C 5853   4.753   9.600   3.773 -0.8016 -0.7064  0.8707
  785MOL0     C 5854   4.760   9.711   3.665 -0.7229  1.2969  0.0009
  785MOL0     C 5855   4.733   9.848   3.726  0.2997 -0.4069  0.1622
  785MOL0     C 5856   4.747   9.948   3.611  0.7855 -1.3347  0.2354
  785MOL0     N 5857   4.647   9.943   3.500 -0.1423 -0.0443 -0.5869
  785MOL0     C 5858   4.677   9.971   3.367  0.1187  0.6542 -0.4426
  785MOL0     C 5859   4.550   9.962   3.301  1.4166 -0.4999 -0.9448
  785MOL0     C 5860   4.514   9.991   3.153  0.5690  0.1467 -0.1246
  785MOL0     C 5861   4.401  10.098   3.131 -0.4083  0.7804  0.2593
  785MOL0     C 5862   4.403  10.138   2.975  0.1732  0.1817  0.7898
  785MOL0     C 5863   4.321  10.263   2.958 -0.1137 -0.4477  0.7618
  785MOL0     O 5864   4.382  10.367   3.030  0.1000  0.0301 -0.8159
  785MOL0     C 5865   4.288  10.441   3.098  0.1801 -0.1210 -0.0895
  785MOL0     C 5866   4.315  10.483   3.234  0.6733 -0.5176 -0.4583
  785MOL0     C 5867   4.237  10.570   3.316  0.3921  0.5109 -0.1771
  785MOL0     C 5868   4.278  10.628   3.444 -0.2886  0.4669 -0.0391
  785MOL0     C 5869   4.130  10.626   3.240  1.0267 -0.0702 -0.1414
  785MOL0     C 5870   4.025  10.705   3.307  0.3164 -0.0299  1.2047
  785MOL0     O 5871   3.979  10.649   3.420 -0.2619 -0.0449 -0.8162
  785MOL0     C 5872   3.903  10.729   3.498  0.2110  0.3586 -0.3129
  785MOL0     C 5873   3.930  10.866   3.534 -0.4927 -0.5358 -0.0885
  785MOL0     C 5874   3.839  10.935   3.607 -0.4486  0.1452 -0.3815
  785MOL0     C 5875   3.720  10.864   3.651  0.7420  0.4668  0.3079
  785MOL0     O 5876   3.635  10.962   3.709 -0.3368  0.8804  0.6245
  785MOL0     C 5877   3.500  10.912   3.752  0.7291 -0.1793  0.4217
  785MOL0     C 5878   3.509  10.841   3.883 -0.0679  0.6025  0.1582
  785MOL0     C 5879   3.533  10.919   4.021 -0.1793  1.0458 -0.3475
  785MOL0     C 5880   3.408  10.988   4.075 -0.2803 -0.1848 -0.0322
  785MOL0     C 5881   3.418  10.997   4.231 -0.4762  0.0333 -0.5924
  785MOL0     C 5882   3.540  11.056   4.304  0.1732  0.2707 -0.4492
  785MOL0     C 5883   3.558  11.206   4.284  0.3369  0.1874 -0.4395
  785MOL0     C 5884   3.506  11.270   4.410 -0.9222  0.0708 -0.5786
  785MOL0    Cl 5885   3.605  11.231   4.555 -0.2210 -0.2930 -0.2345
  785MOL0     C 5886   3.690  10.729   3.621 -0.3593 -0.2712  0.1189
  785MOL0     C 5887   3.787  10.664   3.550  0.4503  0.5363 -0.8531
  785MOL0     O 5888   4.003  10.815   3.269 -0.2295  0.3079 -0.7554
  785MOL0     C 5889   4.100  10.590   3.098  0.2257  0.6383 -0.9204
  785MOL0     C 5890   4.180  10.501   3.028  0.5601  0.1727  0.3504
  785MOL0     N 5891   4.451   9.943   3.398  0.8612  0.1296  0.2727
  785MOL0     N 5892   4.513   9.939   3.517 -0.3450 -0.4615  0.4694
  785MOL0     C 5893   5.015   8.990   3.285 -0.4165  0.4027 -0.8574
  785MOL0     C 5894   5.060   8.864   3.315  0.2918  0.2730 -0.1786
  785MOL0     C 5895   5.020   8.420   3.493 -1.0935  0.9542 -0.2566
  785MOL0     C 5896   5.099   8.351   3.577  0.0441  1.0735 -1.3786
  785MOL0     C 5897   5.132   8.217   3.558  1.0843  0.4758  0.2751
  785MOL0     C 5898   5.089   8.144   3.451  0.9545  0.5558  0.5102
  785MOL0     O 5899   5.139   8.016   3.415 -0.4357 -0.7392 -0.4232
  785MOL0     C 5900   5.172   7.928   3.526  0.4210  0.5906  1.0143
  785MOL0     C 5901   5.156   7.781   3.469  0.1714  0.9296  0.0591
  785MOL0     C 5902   5.174   7.673   3.574 -0.8414 -0.6000 -0.5926
  785MOL0     C 5903   5.053   7.641   3.654  1.4013 -0.8127 -0.4165
  785MOL0     C 5904   4.956   7.552   3.594  0.8238 -0.3373 -0.5778
  785MOL0     C 5905   4.875   7.467   3.556  0.5167  0.2844  0.0860
  785MOL0     C 5906   5.010   8.206   3.359  0.0373 -0.0430 -0.4610
  785MOL0     C 5907   4.979   8.342   3.384 -0.0502  0.3869  0.2243
  785MOL0     H 5908   4.813   8.773   3.524 -2.7096  1.3390 -2.2333
  785MOL0     H 5909   4.753   9.003   3.507 -0.3757  0.8344 -0.9623
  785MOL0     H 5910   4.759   9.347   3.359 -0.4610  0.4763  1.9963
  785MOL0     H 5911   4.665   9.211   3.397 -0.0080 -0.4400 -1.9101
  785MOL0     H 5912   4.809   9.203   3.613  1.6756  0.8542  1.1468
  785MOL0     H 5913   4.922   9.311   3.533 -0.2072  1.6786  1.6062
  785MOL0     H 5914   4.720   9.488   3.526 -5.6531 -0.5845 -1.8820
  785MOL0     H 5915   4.648   9.387   3.648  1.2183 -1.8990  2.0418
  785MOL0     H 5916   4.842   9.395   3.792 -0.1715  0.3144  0.1016
  785MOL0     H 5917   4.924   9.496   3.677  0.6351 -0.6696 -0.3354
  785MOL0     H 5918   4.652   9.578   3.808 -1.2811 -1.2421 -0.7467
  785MOL0     H 5919   4.830   9.628   3.847  1.2216 -1.2132 -0.9393
  785MOL0     H 5920   4.852   9.706   3.607 -3.2530 -0.9780 -4.3914
  785MOL0     H 5921   4.675   9.697   3.598 -0.8797 -0.3518  0.5057
  785MOL0     H 5922   4.630   9.838   3.762 -0.2764 -0.9351 -1.5383
  785MOL0     H 5923   4.799   9.876   3.808  3.2481 -1.1407 -1.7851
  785MOL0     H 5924   4.847   9.945   3.568  1.2986  0.4786  1.1814
  785MOL0     H 5925   4.727  10.048   3.652 -0.5058 -0.2592 -2.7113
  785MOL0     H 5926   4.771   9.994   3.318 -1.0987  3.5426 -1.6605
  785MOL0     H 5927   4.598  10.045   3.108  2.9943 -0.0620  3.6976
  785MOL0     H 5928   4.485   9.893   3.114 -3.8054  2.2553 -3.0899
  785MOL0     H 5929   4.417  10.183   3.197  1.3404 -0.1804  1.1471
  785MOL0     H 5930   4.311  10.040   3.151  1.9607 -2.9989  0.9175
  785MOL0     H 5931   4.350  10.064   2.915 -0.8861  1.4701  0.1009
  785MOL0     H 5932   4.507  10.142   2.940  0.1015 -2.2896  0.1017
  785MOL0     H 5933   4.215  10.255   2.985 -0.9580  0.4946 -1.9279
  785MOL0     H 5934   4.319  10.303   2.856  2.4796  1.7461  1.4577
  785MOL0     H 5935   4.408  10.451   3.278  1.5494  2.2417 -0.1078
  785MOL0     H 5936   4.247  10.733   3.453  0.9249  1.1566 -2.8732
  785MOL0     H 5937   4.229  10.571   3.523  2.9286 -0.6846  1.2676
  785MOL0     H 5938   4.385  10.634   3.462 -0.4134 -0.4877  1.1140
  785MOL0     H 5939   4.019  10.913   3.493 -1.1965  2.5090  1.5117
  785MOL0     H 5940   3.872  11.035   3.631  2.1765 -0.7057 -0.1316
  785MOL0     H 5941   3.439  10.999   3.779  2.5478  0.0100  4.7839
  785MOL0     H 5942   3.443  10.846   3.686 -2.6000 -0.3447  3.2103
  785MOL0     H 5943   3.427  10.770   3.897  1.5612 -1.0381  2.0514
  785MOL0     H 5944   3.598  10.777   3.873 -0.6507 -0.1678 -0.1915
  785MOL0     H 5945   3.602  11.003   4.013 -1.2090  1.7894 -1.9497
  785MOL0     H 5946   3.576  10.852   4.096  1.5577  2.1355 -0.3262
  785MOL0     H 5947   3.405  11.087   4.028  2.2125 -0.3561 -0.6841
  785MOL0     H 5948   3.319  10.937   4.038  0.6547 -3.6947  2.0523
  785MOL0     H 5949   3.402  10.899   4.277 -0.0325 -0.2912 -1.1163
  785MOL0     H 5950   3.345  11.072   4.261 -1.5763 -1.8096  1.5872
  785MOL0     H 5951   3.510  11.033   4.407  2.8558 -1.5437  0.0202
  785MOL0     H 5952   3.625  10.994   4.275  0.8505  1.6484 -1.5369
  785MOL0     H 5953   3.518  11.263   4.199 -0.1605  0.7062  0.1269
  785MOL0     H 5954   3.665  11.226   4.291  0.6382 -1.5255  0.2268
  785MOL0     H 5955   3.400  11.247   4.425 -1.2363 -0.1254 -2.7207
  785MOL0     H 5956   3.501  11.379   4.401 -0.8047  0.0579 -0.8205
  785MOL0     H 5957   3.599  10.675   3.645  1.4787 -3.0652  1.2947
  785MOL0     H 5958   3.777  10.558   3.528  0.5076  0.2454  0.4654
  785MOL0     H 5959   4.008  10.634   3.061 -0.8485  1.1498  2.1217
  785MOL0     H 5960   4.149  10.476   2.927 -0.4593 -0.1391  0.7380
  785MOL0     H 5961   5.062   9.047   3.206 -1.8095 -1.5910 -3.2561
  785MOL0     H 5962   5.149   8.827   3.266  0.5676  1.3753 -0.5559
  785MOL0     H 5963   5.126   8.396   3.672  2.6195 -1.0293 -0.9929
  785MOL0     H 5964   5.203   8.164   3.622 -1.9814 -0.8831  2.8085
  785MOL0     H 5965   5.275   7.941   3.561  0.1735  0.6086  1.7582
  785MOL0     H 5966   5.108   7.946   3.613  0.9546  3.2259  0.9341
  785MOL0     H 5967   5.238   7.760   3.400  0.3928 -3.0938  1.2777
  785MOL0     H 5968   5.065   7.768   3.410  0.6450  0.6631 -0.6315
  785MOL0     H 5969   5.249   7.705   3.646 -2.7020  0.8306  0.8127
  785MOL0     H 5970   5.209   7.580   3.528  2.1390  1.4262 -2.7240
  785MOL0     H 5971   5.013   7.735   3.691 -0.0224 -2.0791  1.4523
  785MOL0     H 5972   5.088   7.586   3.742  1.6587 -0.7959 -0.5064
  785MOL0     H 5973   4.809   7.394   3.512 -2.0599  3.5839 -1.9858
  785MOL0     H 5974   4.987   8.151   3.268  1.6052  1.0543 -1.5767
  785MOL0     H 5975   4.916   8.395   3.315 -2.4551 -1.2284  1.0452
  786MOL0     O 5976   9.237   7.727   2.620 -0.3128  0.1384 -0.6170
  786MOL0     C 5977   9.339   7.666   2.594 -0.4754 -0.0841  1.0280
  786MOL0     O 5978   9.339   7.534   2.569  0.4301 -1.7014  0.0964
  786MOL0     C 5979   9.225   7.455   2.551  0.4179  0.3179 -0.4137
  786MOL0     C 5980   9.118   7.458   2.634  0.5559  0.3595  0.0504
  786MOL0     C 5981   9.006   7.381   2.624  0.5883 -0.5168  0.1619
  786MOL0     C 5982   9.004   7.285   2.518  0.5783  0.1379  0.1605
  786MOL0     O 5983   8.899   7.203   2.494  0.1407  0.0516 -0.2697
  786MOL0     C 5984   8.775   7.278   2.459 -0.2193  0.3292 -0.3963
  786MOL0     C 5985   8.714   7.259   2.315 -0.3196  0.1227  0.0580
  786MOL0     C 5986   8.823   7.243   2.206  0.0240  0.4060 -0.2988
  786MOL0     C 5987   8.905   7.378   2.180 -0.0004 -0.0112 -0.1055
  786MOL0     C 5988   9.023   7.357   2.081 -0.4883 -0.4338 -0.6761
  786MOL0     C 5989   9.120   7.475   2.071  0.6363 -0.1754  0.4713
  786MOL0     C 5990   9.251   7.435   2.001 -0.0206  0.6924 -0.7973
  786MOL0     C 5991   9.245   7.428   1.845 -0.1152  0.6938 -0.2051
  786MOL0     N 5992   9.385   7.392   1.797 -0.4872  0.1178 -0.4296
  786MOL0     C 5993   9.436   7.260   1.810 -0.1151 -0.8340  0.2748
  786MOL0     C 5994   9.569   7.295   1.794  0.3220  0.3091  0.7961
  786MOL0     C 5995   9.692   7.212   1.779 -0.7919  0.1667 -0.4521
  786MOL0     C 5996   9.676   7.103   1.672 -0.4206  0.1156 -1.1347
  786MOL0     C 5997   9.755   6.975   1.703  0.1838 -0.6490  0.2704
  786MOL0     C 5998   9.697   6.887   1.813 -0.1649 -1.4049 -0.5041
  786MOL0     O 5999   9.555   6.898   1.807  0.6562 -0.1512 -0.7777
  786MOL0     C 6000   9.494   6.838   1.910 -0.9648  0.3514 -1.3448
  786MOL0     C 6001   9.429   6.909   2.014  1.0902  0.6654  0.0268
  786MOL0     C 6002   9.357   6.844   2.115 -1.1879  1.2700 -0.1193
  786MOL0     C 6003   9.270   6.917   2.208 -1.0797  0.0608 -0.7429
  786MOL0     C 6004   9.364   6.701   2.109 -0.3352 -0.0746 -0.0782
  786MOL0     C 6005   9.305   6.617   2.221  0.5720  0.4544 -0.1709
  786MOL0     O 6006   9.290   6.486   2.186  0.4254  0.5489 -0.6142
  786MOL0     C 6007   9.176   6.419   2.235  1.2236 -0.0968  0.1935
  786MOL0     C 6008   9.190   6.280   2.244 -0.1916  0.0073 -0.6555
  786MOL0     C 6009   9.077   6.203   2.293 -0.2581 -0.2883 -0.0664
  786MOL0     C 6010   8.969   6.267   2.347  1.0220  0.7039 -0.4069
  786MOL0     O 6011   8.881   6.186   2.411 -0.1859  0.0159  0.1349
  786MOL0     C 6012   8.757   6.227   2.467  0.4308 -0.2645  0.0374
  786MOL0     C 6013   8.674   6.288   2.357  0.4078  1.3497 -0.8528
  786MOL0     C 6014   8.535   6.327   2.415  0.4463 -0.6456 -1.0171
  786MOL0     C 6015   8.440   6.375   2.299 -0.7629  0.1251  0.2837
  786MOL0     C 6016   8.314   6.426   2.352  0.3508 -0.3459 -1.2208
  786MOL0     C 6017   8.217   6.457   2.240  0.1724 -0.7111 -0.2912
  786MOL0     C 6018   8.084   6.519   2.284  0.3090  0.4515  0.5149
  786MOL0     C 6019   8.009   6.456   2.402 -0.2903 -0.3316 -0.8455
  786MOL0    Cl 6020   8.063   6.511   2.565  0.0274 -0.4163  0.0272
  786MOL0     C 6021   8.964   6.410   2.341 -0.3007 -0.4503 -0.6660
  786MOL0     C 6022   9.062   6.482   2.281  0.3395 -0.5730 -0.1114
  786MOL0     O 6023   9.300   6.662   2.335 -0.3854  0.3276 -0.8698
  786MOL0     C 6024   9.433   6.633   2.008  0.7124  0.2619 -0.4890
  786MOL0     C 6025   9.496   6.710   1.913  0.5025  0.3921 -0.5894
  786MOL0     N 6026   9.593   7.430   1.775  0.0487 -0.1886  0.4779
  786MOL0     N 6027   9.480   7.492   1.776  0.0542  0.4376 -0.3404
  786MOL0     C 6028   9.122   7.266   2.438  0.5819  0.0382 -0.0850
  786MOL0     C 6029   9.223   7.357   2.450 -0.1770 -0.4620 -0.5811
  786MOL0     C 6030   9.466   7.738   2.593  0.9969  0.5654 -0.6576
  786MOL0     C 6031   9.581   7.690   2.523 -0.4282 -0.7589  0.7462
  786MOL0     C 6032   9.707   7.753   2.536  0.2328  0.0873 -0.2114
  786MOL0     C 6033   9.717   7.861   2.619  1.0360  0.0204  0.2791
  786MOL0     O 6034   9.836   7.902   2.665 -0.0199 -0.6069  0.1007
  786MOL0     C 6035   9.877   7.851   2.791  0.0452  0.6723  0.0966
  786MOL0     C 6036   9.996   7.739   2.785  0.0438  0.7141  0.8578
  786MOL0     C 6037  10.138   7.798   2.765  0.5293  0.1834 -0.1517
  786MOL0     C 6038  10.247   7.695   2.785  0.4776  0.6018  0.0856
  786MOL0     C 6039  10.254   7.636   2.920 -0.0206  0.0383 -0.0004
  786MOL0     C 6040  10.285   7.555   3.005 -0.3093  0.0883 -0.8539
  786MOL0     C 6041   9.611   7.921   2.687  0.2557 -0.0863 -0.4965
  786MOL0     C 6042   9.487   7.856   2.670  0.9681  0.5606  0.6552
  786MOL0     H 6043   9.117   7.525   2.719 -0.7431 -0.9280  1.1136
  786MOL0     H 6044   8.922   7.389   2.692  1.4005 -1.5269  1.3293
  786MOL0     H 6045   8.700   7.259   2.537 -2.4273  3.5040 -1.5566
  786MOL0     H 6046   8.794   7.384   2.478  2.2091 -0.6347  4.1263
  786MOL0     H 6047   8.656   7.167   2.316 -0.1423 -0.0133  1.9861
  786MOL0     H 6048   8.647   7.342   2.290 -2.9235 -1.1259  2.4082
  786MOL0     H 6049   8.904   7.175   2.234  0.5523  1.9132  2.1656
  786MOL0     H 6050   8.776   7.210   2.113  0.4863  0.7324 -0.6525
  786MOL0     H 6051   8.828   7.451   2.150 -1.5140 -1.7864 -0.7574
  786MOL0     H 6052   8.950   7.407   2.275 -0.7156  0.6581  0.0474
  786MOL0     H 6053   9.063   7.257   2.098  0.7742  0.2907  0.8855
  786MOL0     H 6054   8.970   7.354   1.985 -3.0593  5.9182  0.0694
  786MOL0     H 6055   9.071   7.557   2.018  0.3631  0.1473  1.2069
  786MOL0     H 6056   9.147   7.499   2.175 -0.8757  1.0790  0.6058
  786MOL0     H 6057   9.330   7.506   2.024  0.9911 -0.9095  1.0140
  786MOL0     H 6058   9.279   7.340   2.049 -0.3365  0.7083 -0.5800
  786MOL0     H 6059   9.221   7.527   1.807  1.2802  0.7695 -0.9251
  786MOL0     H 6060   9.168   7.355   1.817  0.6091  0.2261 -1.0313
  786MOL0     H 6061   9.380   7.166   1.809 -1.5593 -0.0331  1.6611
  786MOL0     H 6062   9.766   7.285   1.745  0.5888 -0.6286  0.7210
  786MOL0     H 6063   9.732   7.176   1.874  3.5134  2.1295 -1.2810
  786MOL0     H 6064   9.723   7.149   1.584 -0.9088  0.5734 -1.1563
  786MOL0     H 6065   9.575   7.080   1.636  0.8044 -3.3634 -2.8159
  786MOL0     H 6066   9.863   6.995   1.710  0.2710 -0.9223 -0.2794
  786MOL0     H 6067   9.755   6.918   1.610  0.2259 -1.1101  0.5475
  786MOL0     H 6068   9.737   6.899   1.914  0.8660 -1.5050 -0.8837
  786MOL0     H 6069   9.727   6.785   1.786  0.8711 -1.0959 -0.5801
  786MOL0     H 6070   9.425   7.017   2.015  0.2735  0.6949  2.6148
  786MOL0     H 6071   9.284   7.026   2.200 -0.3542 -0.0267 -0.7946
  786MOL0     H 6072   9.164   6.900   2.188 -0.7654 -1.5335 -1.2181
  786MOL0     H 6073   9.299   6.901   2.312  3.2698  1.7468 -1.4712
  786MOL0     H 6074   9.287   6.241   2.214  0.5627  0.8874  0.5440
  786MOL0     H 6075   9.076   6.094   2.294  2.9364 -0.4429 -0.8985
  786MOL0     H 6076   8.715   6.133   2.503 -3.7874  0.6682 -1.8211
  786MOL0     H 6077   8.767   6.296   2.551 -0.3667 -1.4316  1.1213
  786MOL0     H 6078   8.706   6.382   2.311 -2.2780  2.9353  0.2415
  786MOL0     H 6079   8.659   6.203   2.290 -0.6604  0.5644  0.3286
  786MOL0     H 6080   8.540   6.415   2.480 -2.9778 -0.1618 -1.2016
  786MOL0     H 6081   8.492   6.242   2.468  1.6740 -0.1250  0.9107
  786MOL0     H 6082   8.499   6.437   2.232 -1.0019  3.4642  2.8654
  786MOL0     H 6083   8.411   6.285   2.243 -1.7400 -0.1820  1.2340
  786MOL0     H 6084   8.357   6.519   2.393 -1.4945 -0.3080  0.8142
  786MOL0     H 6085   8.270   6.370   2.435 -3.1818  2.2147 -1.1384
  786MOL0     H 6086   8.263   6.520   2.164  0.0447 -0.6813 -0.3448
  786MOL0     H 6087   8.188   6.368   2.184  1.4062 -2.4688  1.6931
  786MOL0     H 6088   8.012   6.526   2.201 -0.4005  0.2080  1.1025
  786MOL0     H 6089   8.116   6.620   2.313  0.1354  0.0750  2.0968
  786MOL0     H 6090   8.007   6.347   2.390 -1.3561 -0.6679  1.7609
  786MOL0     H 6091   7.905   6.489   2.405 -0.8928 -1.8813 -2.4116
  786MOL0     H 6092   8.877   6.467   2.373  0.3537  0.2533 -0.1106
  786MOL0     H 6093   9.039   6.588   2.267 -0.1510 -0.3622  1.8602
  786MOL0     H 6094   9.426   6.525   1.993  0.2150 -0.0622  1.7119
  786MOL0     H 6095   9.539   6.665   1.825 -0.7312  3.1038 -2.7426
  786MOL0     H 6096   9.137   7.183   2.369 -0.0091 -0.1374 -0.0152
  786MOL0     H 6097   9.307   7.353   2.381  0.2740 -0.5767 -0.0321
  786MOL0     H 6098   9.578   7.602   2.461  0.4989 -0.6620  0.5479
  786MOL0     H 6099   9.793   7.700   2.495 -0.1163 -2.0402  1.6455
  786MOL0     H 6100   9.904   7.930   2.862  0.3096  2.0423 -1.4449
  786MOL0     H 6101   9.793   7.806   2.844  0.7298  0.6712  1.2108
  786MOL0     H 6102   9.970   7.673   2.701 -1.5155  3.3056 -0.8408
  786MOL0     H 6103   9.997   7.687   2.882 -0.7151  4.1048  2.8479
  786MOL0     H 6104  10.152   7.886   2.828  1.9898 -1.2405  1.6434
  786MOL0     H 6105  10.151   7.829   2.661  1.7809 -0.3555 -0.1778
  786MOL0     H 6106  10.346   7.737   2.764  1.3043 -2.2861 -2.5624
  786MOL0     H 6107  10.245   7.620   2.705 -0.8465  1.1973 -0.4636
  786MOL0     H 6108  10.324   7.488   3.079 -1.8730 -0.6986 -0.7056
  786MOL0     H 6109   9.628   8.002   2.757  0.5577  2.3613 -3.1727
  786MOL0     H 6110   9.401   7.891   2.727  1.2457 -0.2473  1.5945
  787MOL0     O 6111   0.905   6.191   4.686 -0.2104  0.3238 -0.0717
  787MOL0     C 6112   1.014   6.139   4.709 -0.3631  0.3889  0.2392
  787MOL0     O 6113   1.090   6.071   4.613  0.3644  0.3427  0.2465
  787MOL0     C 6114   1.045   6.069   4.480 -0.3965  0.6605 -0.1860
  787MOL0     C 6115   1.013   5.940   4.429 -0.6707 -0.5592 -0.2472
  787MOL0     C 6116   0.966   5.925   4.305 -0.2681 -0.0956 -0.2397
  787MOL0     C 6117   0.920   6.043   4.236  0.3205 -0.1692 -0.9851
  787MOL0     O 6118   0.860   6.031   4.114  0.7307  0.4253  0.0052
  787MOL0     C 6119   0.726   6.096   4.108 -1.0534  0.1198 -0.0849
  787MOL0     C 6120   0.704   6.212   4.003  0.3253  0.1674 -0.9138
  787MOL0     C 6121   0.743   6.184   3.862 -0.5250 -0.0653 -0.1801
  787MOL0     C 6122   0.715   6.310   3.780 -0.8232 -1.1038  0.8082
  787MOL0     C 6123   0.722   6.280   3.636  0.1150 -0.0695  0.4286
  787MOL0     C 6124   0.701   6.396   3.540  0.7747 -0.6625  0.4299
  787MOL0     C 6125   0.636   6.376   3.398  0.1392  0.5730  0.0920
  787MOL0     C 6126   0.490   6.318   3.405 -0.5870  0.0275 -1.1503
  787MOL0     N 6127   0.388   6.423   3.419  0.0148  0.4675  0.1562
  787MOL0     C 6128   0.371   6.535   3.344  1.1385 -0.0322 -0.2703
  787MOL0     C 6129   0.304   6.629   3.419  0.3400  1.2083 -0.6016
  787MOL0     C 6130   0.259   6.766   3.377  0.0374 -0.2974  0.2743
  787MOL0     C 6131   0.156   6.769   3.259  0.4707 -0.5947 -0.2603
  787MOL0     C 6132   0.031   6.688   3.291 -0.0208 -0.3694 -0.0911
  787MOL0     C 6133  -0.083   6.738   3.200  0.6466 -0.7132 -0.2680
  787MOL0     O 6134  -0.047   6.746   3.059 -0.6973  0.2012  0.8771
  787MOL0     C 6135  -0.144   6.772   2.965 -0.3041  1.3531  0.1626
  787MOL0     C 6136  -0.284   6.802   2.992 -0.4497  0.4586  0.0696
  787MOL0     C 6137  -0.378   6.818   2.881 -1.2563  0.1006 -0.4474
  787MOL0     C 6138  -0.521   6.848   2.921 -0.3504  0.1178  0.2146
  787MOL0     C 6139  -0.334   6.819   2.750 -0.3500 -0.3492  0.2061
  787MOL0     C 6140  -0.412   6.841   2.633  0.8622  0.1168 -0.3346
  787MOL0     O 6141  -0.377   6.940   2.551  0.0235  1.1594  0.0333
  787MOL0     C 6142  -0.440   6.963   2.432 -0.3621  0.4533  0.6204
  787MOL0     C 6143  -0.361   7.020   2.323  0.1519  1.0097 -0.3758
  787MOL0     C 6144  -0.414   7.040   2.191  0.5015 -0.1033  0.4189
  787MOL0     C 6145  -0.547   7.003   2.169 -1.2615 -0.2421 -0.5991
  787MOL0     O 6146  -0.591   7.036   2.044  0.3526 -0.3614 -0.9019
  787MOL0     C 6147  -0.737   7.041   2.025  0.7361 -0.6600  0.7915
  787MOL0     C 6148  -0.755   7.091   1.882  0.5746  0.1581 -0.0354
  787MOL0     C 6149  -0.663   7.214   1.865 -0.6607 -0.3562  0.2735
  787MOL0     C 6150  -0.703   7.291   1.739  0.3405 -0.2130  0.3496
  787MOL0     C 6151  -0.621   7.422   1.718 -0.4354 -0.5008  1.0856
  787MOL0     C 6152  -0.476   7.404   1.661  0.3392  0.6979  0.4542
  787MOL0     C 6153  -0.416   7.530   1.612  0.9845 -0.3019  0.6814
  787MOL0     C 6154  -0.286   7.494   1.546 -0.4077 -0.4943 -0.8966
  787MOL0    Cl 6155  -0.284   7.413   1.385 -0.1972 -0.2317 -0.0436
  787MOL0     C 6156  -0.626   6.949   2.272  0.4223 -0.3526  0.1811
  787MOL0     C 6157  -0.577   6.928   2.399  0.7001  0.1531  0.0563
  787MOL0     O 6158  -0.491   6.750   2.608 -1.1753  0.2676 -1.1707
  787MOL0     C 6159  -0.198   6.807   2.730  0.7100 -0.1072  0.3158
  787MOL0     C 6160  -0.107   6.783   2.831 -0.0318 -0.3975  0.3222
  787MOL0     N 6161   0.281   6.562   3.540  0.7897 -1.0316 -0.2406
  787MOL0     N 6162   0.323   6.439   3.542  1.1160 -0.4710 -0.3493
  787MOL0     C 6163   0.957   6.178   4.289 -0.2473  0.8051  0.0405
  787MOL0     C 6164   1.023   6.185   4.413  0.8225 -0.7288 -1.2651
  787MOL0     C 6165   1.077   6.160   4.834 -0.0920  0.7466 -0.3731
  787MOL0     C 6166   1.021   6.246   4.935 -0.1509 -0.0056 -1.1502
  787MOL0     C 6167   1.086   6.259   5.061 -0.1305  0.1125  0.9949
  787MOL0     C 6168   1.212   6.199   5.083 -0.4260 -0.1539  0.3119
  787MOL0     O 6169   1.285   6.209   5.204  0.6128  0.3611  0.4758
  787MOL0     C 6170   1.240   6.287   5.321 -0.4333  0.1023  0.2451
  787MOL0     C 6171   1.153   6.209   5.424  0.5840  0.0210  0.0242
  787MOL0     C 6172   1.262   6.141   5.513 -0.2318 -0.1858 -0.1117
  787MOL0     C 6173   1.222   6.041   5.618  0.4817  0.7351 -0.1345
  787MOL0     C 6174   1.334   5.972   5.681 -0.2670 -0.5807  0.2485
  787MOL0     C 6175   1.414   5.902   5.736  0.3478 -0.5073 -0.9440
  787MOL0     C 6176   1.264   6.116   4.982 -0.2815  0.7471  0.3254
  787MOL0     C 6177   1.194   6.087   4.858 -1.1745 -0.6575 -1.3620
  787MOL0     H 6178   1.024   5.849   4.488 -0.6129 -0.4435 -0.0798
  787MOL0     H 6179   0.936   5.826   4.271 -2.7389 -0.3492  2.2424
  787MOL0     H 6180   0.659   6.016   4.076 -0.7961 -0.2988  0.4214
  787MOL0     H 6181   0.689   6.130   4.205  0.2455  1.1881  0.0737
  787MOL0     H 6182   0.598   6.240   4.007 -0.0670 -1.3198  0.2718
  787MOL0     H 6183   0.766   6.298   4.031  0.7568 -1.7087  5.4269
  787MOL0     H 6184   0.847   6.154   3.846 -0.9200 -2.0389  0.5670
  787MOL0     H 6185   0.697   6.097   3.814  1.4573 -1.2997  0.0639
  787MOL0     H 6186   0.613   6.347   3.797 -0.1415  1.1161  0.4373
  787MOL0     H 6187   0.788   6.387   3.808 -1.0195  0.7905 -3.1222
  787MOL0     H 6188   0.815   6.231   3.606 -0.6656  0.5989 -3.7827
  787MOL0     H 6189   0.638   6.209   3.631 -1.9298  2.2387 -0.2808
  787MOL0     H 6190   0.645   6.472   3.595 -0.0187  0.0250 -1.2675
  787MOL0     H 6191   0.799   6.436   3.515 -0.0872  1.6687  0.5601
  787MOL0     H 6192   0.626   6.468   3.340 -2.8333 -0.7867 -1.7562
  787MOL0     H 6193   0.698   6.299   3.352  0.7051 -0.2668  2.1296
  787MOL0     H 6194   0.478   6.242   3.482 -0.3827  2.2044  1.1731
  787MOL0     H 6195   0.470   6.266   3.311  1.3203 -1.6071 -0.7040
  787MOL0     H 6196   0.397   6.550   3.240 -1.1154 -2.0099 -1.2036
  787MOL0     H 6197   0.227   6.821   3.465  0.9510  1.0649 -0.2023
  787MOL0     H 6198   0.351   6.813   3.342 -1.4384  2.9063  0.3798
  787MOL0     H 6199   0.208   6.731   3.171  0.0643  0.5078 -0.9997
  787MOL0     H 6200   0.130   6.871   3.231 -1.4741 -1.2258 -0.8879
  787MOL0     H 6201   0.004   6.706   3.395 -3.0576  0.7339 -0.9622
  787MOL0     H 6202   0.051   6.582   3.274 -2.9902 -1.0377  0.0642
  787MOL0     H 6203  -0.119   6.832   3.241  0.4640 -1.7512  2.1047
  787MOL0     H 6204  -0.166   6.666   3.202  0.6641 -0.7214  0.0655
  787MOL0     H 6205  -0.324   6.802   3.093  1.1564  1.7413  0.7542
  787MOL0     H 6206  -0.598   6.778   2.887  1.4178 -2.3618  0.9606
  787MOL0     H 6207  -0.534   6.861   3.029 -0.1437 -0.6144  0.3364
  787MOL0     H 6208  -0.539   6.947   2.878  3.9228  0.2778 -1.7076
  787MOL0     H 6209  -0.262   7.046   2.358  1.2293 -2.0366 -0.8389
  787MOL0     H 6210  -0.343   7.074   2.116  2.0646 -1.6560  1.1410
  787MOL0     H 6211  -0.789   6.946   2.035  0.9883 -0.8330  0.4693
  787MOL0     H 6212  -0.797   7.105   2.090 -1.3136  0.0694 -1.6622
  787MOL0     H 6213  -0.731   7.009   1.814 -0.9789 -0.4148  0.0523
  787MOL0     H 6214  -0.860   7.116   1.861  0.3970 -1.9456 -2.1437
  787MOL0     H 6215  -0.559   7.182   1.858 -1.3870 -2.6995 -1.1257
  787MOL0     H 6216  -0.674   7.282   1.949 -1.8661  0.8020 -0.7639
  787MOL0     H 6217  -0.701   7.224   1.653 -2.3876 -1.4512  1.1417
  787MOL0     H 6218  -0.807   7.323   1.744 -0.1973 -1.9944  1.5468
  787MOL0     H 6219  -0.613   7.472   1.815 -1.0630 -2.0392  1.9592
  787MOL0     H 6220  -0.684   7.478   1.647 -1.1717 -3.3468 -0.7133
  787MOL0     H 6221  -0.419   7.348   1.736  0.9932  0.9333  0.1431
  787MOL0     H 6222  -0.482   7.335   1.577  1.4594  0.3230  0.6666
  787MOL0     H 6223  -0.407   7.598   1.697 -1.3325  2.6823 -1.2660
  787MOL0     H 6224  -0.484   7.571   1.537  1.1511 -1.2600 -0.0109
  787MOL0     H 6225  -0.222   7.425   1.601 -2.7831 -0.2420  2.4885
  787MOL0     H 6226  -0.234   7.589   1.527  2.7771 -2.0366 -0.6455
  787MOL0     H 6227  -0.733   6.938   2.254  0.1308  1.5526  0.6139
  787MOL0     H 6228  -0.649   6.892   2.472 -1.5660  1.1994 -1.5447
  787MOL0     H 6229  -0.166   6.801   2.626  1.2179  2.5757  0.2683
  787MOL0     H 6230  -0.009   6.778   2.785  0.9414  0.6819  2.1427
  787MOL0     H 6231   0.928   6.269   4.238 -0.7023  0.9683  0.5725
  787MOL0     H 6232   1.049   6.277   4.464  0.4657 -2.3116  2.0333
  787MOL0     H 6233   0.923   6.290   4.931 -0.4092  0.0135  2.4263
  787MOL0     H 6234   1.036   6.308   5.144  0.9210  1.9356  0.6176
  787MOL0     H 6235   1.338   6.316   5.359 -0.2463 -1.9542  1.5012
  787MOL0     H 6236   1.190   6.377   5.284 -0.9777  0.4891  1.8135
  787MOL0     H 6237   1.102   6.124   5.376  1.5130  0.3222 -1.5808
  787MOL0     H 6238   1.082   6.269   5.480  0.0128 -0.3773 -0.2646
  787MOL0     H 6239   1.328   6.215   5.559  0.0963  0.7061 -1.9095
  787MOL0     H 6240   1.323   6.089   5.438 -0.3391 -1.7511  0.8386
  787MOL0     H 6241   1.163   5.961   5.572 -0.1470  0.3546  1.2863
  787MOL0     H 6242   1.158   6.086   5.694  0.2126 -0.9932  0.7142
  787MOL0     H 6243   1.481   5.842   5.794 -1.7380 -2.8155 -0.7263
  787MOL0     H 6244   1.366   6.081   4.984  0.3906  2.4605  3.5130
  787MOL0     H 6245   1.228   6.010   4.789 -0.4095 -2.1737  0.6009
  788MOL0     O 6246   0.148  10.646   8.359  0.4898  0.3229 -1.2068
  788MOL0     C 6247   0.135  10.687   8.243 -0.1223  0.0293 -0.3228
  788MOL0     O 6248   0.192  10.630   8.134  1.4323  0.1317 -0.3070
  788MOL0     C 6249   0.303  10.558   8.133  0.1254  1.2763  0.0192
  788MOL0     C 6250   0.394  10.526   8.233  0.9571 -1.3197  0.3935
  788MOL0     C 6251   0.505  10.434   8.220  0.4103 -0.0374  1.1118
  788MOL0     C 6252   0.513  10.355   8.095  0.2506  0.1387  0.1775
  788MOL0     O 6253   0.613  10.267   8.076 -0.5972  0.2903 -0.9742
  788MOL0     C 6254   0.564  10.154   8.010 -0.3566  0.2467  0.2790
  788MOL0     C 6255   0.682  10.059   7.995 -0.2974 -0.3584 -0.0713
  788MOL0     C 6256   0.673   9.952   8.100  0.1341 -0.4616  0.4246
  788MOL0     C 6257   0.559   9.847   8.069 -0.0301 -0.6440 -0.0167
  788MOL0     C 6258   0.527   9.762   8.196  0.1347 -0.1454 -0.5580
  788MOL0     C 6259   0.408   9.664   8.171  0.6350  0.6531  1.2312
  788MOL0     C 6260   0.271   9.727   8.141  0.4170  0.1700 -0.0311
  788MOL0     C 6261   0.173   9.613   8.089  0.6380  0.5240  0.0602
  788MOL0     N 6262   0.043   9.657   8.035 -0.8589 -0.5690 -0.1222
  788MOL0     C 6263   0.026   9.724   7.913  0.4295 -0.7382  0.0346
  788MOL0     C 6264  -0.106   9.748   7.899 -1.7379  0.3603 -0.7382
  788MOL0     C 6265  -0.169   9.818   7.788 -0.0244 -0.6139  0.0155
  788MOL0     C 6266  -0.275   9.734   7.722  0.4524 -0.3131 -0.4216
  788MOL0     C 6267  -0.385   9.841   7.675  0.2860  0.2490 -0.0735
  788MOL0     C 6268  -0.326   9.932   7.575 -1.0270 -0.3323 -0.0800
  788MOL0     O 6269  -0.423   9.986   7.493  0.2137 -0.2733  0.7333
  788MOL0     C 6270  -0.447   9.910   7.376  0.3948 -0.3751  0.2773
  788MOL0     C 6271  -0.512   9.982   7.277  1.2768  0.5373  0.2386
  788MOL0     C 6272  -0.551   9.925   7.158  0.7384 -1.8809  0.9978
  788MOL0     C 6273  -0.624  10.018   7.054  0.0302  0.2813 -0.9617
  788MOL0     C 6274  -0.548   9.786   7.142  0.3118 -0.6429 -0.7643
  788MOL0     C 6275  -0.610   9.714   7.032 -0.2529  0.0868 -0.6551
  788MOL0     O 6276  -0.642   9.585   7.067 -0.1928 -0.9208  0.6357
  788MOL0     C 6277  -0.694   9.497   6.979 -0.1604 -0.3945  0.6338
  788MOL0     C 6278  -0.812   9.528   6.905 -1.0685 -0.5294 -0.3106
  788MOL0     C 6279  -0.852   9.426   6.816  0.6726  0.5062  0.8138
  788MOL0     C 6280  -0.787   9.315   6.778  0.1467  0.2178 -0.2850
  788MOL0     O 6281  -0.837   9.215   6.691  0.4269  0.1459 -0.8911
  788MOL0     C 6282  -0.740   9.111   6.648 -0.1003 -0.9256  0.4179
  788MOL0     C 6283  -0.819   9.024   6.555  0.4375  0.0243  0.0686
  788MOL0     C 6284  -0.862   9.084   6.427 -0.9872 -0.6063  0.1420
  788MOL0     C 6285  -0.764   9.052   6.318  0.4966 -0.5660  0.2812
  788MOL0     C 6286  -0.770   8.915   6.257  0.4735  0.7723  0.7017
  788MOL0     C 6287  -0.706   8.902   6.124 -0.3131 -0.0102 -0.7648
  788MOL0     C 6288  -0.557   8.954   6.114 -0.0968 -0.0859 -0.0503
  788MOL0     C 6289  -0.476   8.897   5.994 -0.1777 -0.1977 -0.5767
  788MOL0    Cl 6290  -0.289   8.917   6.016  0.2022  0.0500  0.0326
  788MOL0     C 6291  -0.664   9.308   6.850 -0.1531  0.1954  0.2303
  788MOL0     C 6292  -0.630   9.385   6.959 -0.3207  0.0546  0.0063
  788MOL0     O 6293  -0.604   9.758   6.913 -0.0272  0.4147 -1.0830
  788MOL0     C 6294  -0.484   9.717   7.246  0.3383 -0.3002  1.1740
  788MOL0     C 6295  -0.434   9.776   7.366  0.1850 -0.2253 -0.4107
  788MOL0     N 6296  -0.167   9.702   8.017 -0.2076  0.0878  0.7028
  788MOL0     N 6297  -0.080   9.650   8.088 -0.1002 -0.1915 -0.0264
  788MOL0     C 6298   0.428  10.400   7.987  0.2546 -0.0258  0.2574
  788MOL0     C 6299   0.322  10.495   8.006 -0.7914  0.9134 -0.1813
  788MOL0     C 6300   0.036  10.804   8.229 -0.3585 -0.3081 -0.3211
  788MOL0     C 6301  -0.002  10.849   8.107  0.4432  1.1151 -0.7292
  788MOL0     C 6302  -0.100  10.945   8.088 -0.0633  0.0719  1.1205
  788MOL0     C 6303  -0.164  11.008   8.198  0.4015  0.2844 -0.0441
  788MOL0     O 6304  -0.252  11.109   8.209  0.4291  0.4093  1.0480
  788MOL0     C 6305  -0.332  11.155   8.100 -0.3451  0.4458 -0.4204
  788MOL0     C 6306  -0.432  11.250   8.138 -0.0913 -1.0125 -0.9446
  788MOL0     C 6307  -0.526  11.196   8.248 -0.3085  0.5991 -0.3379
  788MOL0     C 6308  -0.621  11.082   8.210 -0.2975  0.3297  0.0713
  788MOL0     C 6309  -0.696  11.112   8.090 -1.0002  0.0114  0.0993
  788MOL0     C 6310  -0.758  11.140   7.983 -1.1455 -1.1154 -0.2107
  788MOL0     C 6311  -0.127  10.950   8.323  0.5139  0.2409  0.8252
  788MOL0     C 6312  -0.028  10.859   8.345 -0.0922  0.2946  0.7958
  788MOL0     H 6313   0.385  10.580   8.326  0.9101 -1.6218  0.5676
  788MOL0     H 6314   0.580  10.423   8.297  1.1937 -1.6127  0.1755
  788MOL0     H 6315   0.489  10.104   8.072  1.3768 -2.7320  0.1715
  788MOL0     H 6316   0.516  10.165   7.913  0.0302  0.6015  0.1210
  788MOL0     H 6317   0.675  10.005   7.900 -2.1940 -3.7501  1.7838
  788MOL0     H 6318   0.773  10.119   7.994 -0.9821  0.6963 -0.0243
  788MOL0     H 6319   0.763   9.892   8.118  1.8607  1.5013 -1.1312
  788MOL0     H 6320   0.645  10.000   8.195 -2.3818  0.0423 -0.4947
  788MOL0     H 6321   0.470   9.899   8.030  0.0687 -1.4507 -1.3797
  788MOL0     H 6322   0.587   9.782   7.986  0.1128 -1.9932  1.0573
  788MOL0     H 6323   0.623   9.714   8.218 -0.0134  0.1415  0.8213
  788MOL0     H 6324   0.502   9.820   8.286  3.0666  0.8056 -0.2644
  788MOL0     H 6325   0.434   9.597   8.089 -0.2370  1.5385  0.1975
  788MOL0     H 6326   0.394   9.599   8.258  0.3753  0.7483  1.2608
  788MOL0     H 6327   0.229   9.777   8.229  0.6935  0.2253  0.0692
  788MOL0     H 6328   0.272   9.805   8.064 -2.9812  0.4114 -0.0020
  788MOL0     H 6329   0.147   9.539   8.165  0.4665 -1.0065 -1.4220
  788MOL0     H 6330   0.226   9.553   8.015 -0.1440 -2.5630  1.8288
  788MOL0     H 6331   0.106   9.748   7.844  0.7480 -0.6388  0.4391
  788MOL0     H 6332  -0.207   9.909   7.834 -0.0829 -0.6530  0.0458
  788MOL0     H 6333  -0.091   9.847   7.717  0.2947 -1.6314 -0.0690
  788MOL0     H 6334  -0.318   9.659   7.789 -2.1905  1.1064 -0.3703
  788MOL0     H 6335  -0.254   9.667   7.637 -2.8340  0.6478 -2.1699
  788MOL0     H 6336  -0.432   9.889   7.762 -0.5725  0.5321 -0.6873
  788MOL0     H 6337  -0.452   9.774   7.621  1.9603 -2.3336  0.8325
  788MOL0     H 6338  -0.246   9.880   7.520 -2.2850 -0.6808 -1.6365
  788MOL0     H 6339  -0.272  10.009   7.631 -0.7691 -0.0837 -0.6635
  788MOL0     H 6340  -0.520  10.089   7.290 -0.1144  0.2601  2.0601
  788MOL0     H 6341  -0.625  10.123   7.084  3.6192  0.9085 -2.4137
  788MOL0     H 6342  -0.565  10.027   6.961  1.7869  2.0052  0.2403
  788MOL0     H 6343  -0.726   9.986   7.031 -0.0127  0.5569 -1.1704
  788MOL0     H 6344  -0.865   9.618   6.935  1.0404  1.4359 -2.0765
  788MOL0     H 6345  -0.957   9.428   6.788  0.4123  0.1216  1.7457
  788MOL0     H 6346  -0.662   9.161   6.589 -3.0611  1.8328 -1.4572
  788MOL0     H 6347  -0.711   9.056   6.738 -2.0917  0.5125  2.0161
  788MOL0     H 6348  -0.746   8.943   6.545  0.8498  0.1346  1.8511
  788MOL0     H 6349  -0.908   8.982   6.602  0.3367  0.2705  0.0976
  788MOL0     H 6350  -0.860   9.193   6.431  2.1866 -0.5083 -0.9183
  788MOL0     H 6351  -0.956   9.032   6.406 -0.8930  0.4021 -3.3280
  788MOL0     H 6352  -0.790   9.116   6.233  1.6387 -2.3640 -1.4929
  788MOL0     H 6353  -0.661   9.075   6.349  1.2277 -1.8664 -1.0801
  788MOL0     H 6354  -0.875   8.884   6.244  0.5062  1.6241 -2.5890
  788MOL0     H 6355  -0.722   8.844   6.325  0.9079 -0.2853 -0.6411
  788MOL0     H 6356  -0.719   8.794   6.109 -0.5438 -0.5624  2.7450
  788MOL0     H 6357  -0.772   8.965   6.064 -0.2378 -0.0232 -0.8617
  788MOL0     H 6358  -0.500   8.918   6.200  1.7060 -0.5598 -1.3834
  788MOL0     H 6359  -0.556   9.062   6.098 -1.1363 -0.2493 -1.3124
  788MOL0     H 6360  -0.497   8.952   5.901  3.4425  0.9713 -0.8542
  788MOL0     H 6361  -0.495   8.791   5.975 -4.0171  0.8502 -4.0687
  788MOL0     H 6362  -0.590   9.236   6.813 -2.4045 -1.0356 -2.2510
  788MOL0     H 6363  -0.541   9.374   7.020 -0.4464  1.6213  0.5021
  788MOL0     H 6364  -0.471   9.611   7.225 -0.2343 -0.1798  0.1012
  788MOL0     H 6365  -0.383   9.708   7.434 -0.1314  1.2297  1.3527
  788MOL0     H 6366   0.437  10.367   7.884 -1.3466  1.9572 -0.6125
  788MOL0     H 6367   0.264  10.527   7.920 -2.7273 -1.4747  0.1518
  788MOL0     H 6368   0.058  10.815   8.023  5.1729  1.8943  2.0040
  788MOL0     H 6369  -0.127  10.990   7.993  0.0880  2.4447  2.1212
  788MOL0     H 6370  -0.258  11.200   8.033 -0.0011 -3.2295 -2.7545
  788MOL0     H 6371  -0.392  11.082   8.046 -1.1953 -2.4536  3.8802
  788MOL0     H 6372  -0.496  11.290   8.059 -2.1806 -1.9696  0.1922
  788MOL0     H 6373  -0.380  11.333   8.188 -1.9430 -0.7468  0.6831
  788MOL0     H 6374  -0.575  11.288   8.282 -0.0559  1.0535 -1.1712
  788MOL0     H 6375  -0.475  11.161   8.338  0.3976  2.2225 -0.0614
  788MOL0     H 6376  -0.693  11.051   8.286  1.0286  1.6062  1.9327
  788MOL0     H 6377  -0.556  10.994   8.201  0.2762  0.4348  2.5572
  788MOL0     H 6378  -0.814  11.174   7.898  0.5656  0.4334 -0.7698
  788MOL0     H 6379  -0.164  10.984   8.419  1.4322 -2.5971  2.3340
  788MOL0     H 6380   0.014  10.834   8.442  0.2171  0.4062  0.6903
  789MOL0     O 6381   0.559   1.858   3.973  0.7626  0.0806 -0.3726
  789MOL0     C 6382   0.616   1.890   4.074 -0.0850 -0.5676 -0.2490
  789MOL0     O 6383   0.728   1.963   4.093 -0.6535 -0.1135 -0.0354
  789MOL0     C 6384   0.806   2.021   3.991 -0.2958 -0.0564  0.2351
  789MOL0     C 6385   0.803   1.962   3.866 -0.7119  0.3006  0.2218
  789MOL0     C 6386   0.851   2.040   3.761  0.2746 -0.4329  0.5070
  789MOL0     C 6387   0.918   2.163   3.778  0.7123 -0.7586 -0.5716
  789MOL0     O 6388   0.994   2.199   3.672  0.5156 -0.1928  0.4156
  789MOL0     C 6389   1.125   2.137   3.669 -0.2614  0.0003  0.0570
  789MOL0     C 6390   1.203   2.132   3.539  0.3493  0.8430 -0.0886
  789MOL0     C 6391   1.248   2.262   3.483  0.0993 -0.2593  0.3225
  789MOL0     C 6392   1.129   2.309   3.388  0.5109 -0.0463 -0.1616
  789MOL0     C 6393   1.163   2.423   3.285 -0.2721  0.8092 -0.1861
  789MOL0     C 6394   1.047   2.458   3.192  0.0440 -0.1834  0.0252
  789MOL0     C 6395   0.917   2.513   3.249  0.4856 -0.4551  0.6826
  789MOL0     C 6396   0.808   2.515   3.146  0.3152 -0.2022 -0.0308
  789MOL0     N 6397   0.841   2.599   3.027 -0.2895 -1.2037 -0.7218
  789MOL0     C 6398   0.850   2.738   3.027 -0.2470  0.0670  0.2626
  789MOL0     C 6399   0.900   2.774   2.903  0.5659  0.0560 -0.7245
  789MOL0     C 6400   0.971   2.905   2.872 -0.9989  0.4390 -0.2809
  789MOL0     C 6401   1.109   2.893   2.942  0.1855  0.9569  0.2573
  789MOL0     C 6402   1.181   3.033   2.947  0.3834  0.1655 -0.8238
  789MOL0     C 6403   1.318   3.012   3.010  0.1188 -0.1362  0.2422
  789MOL0     O 6404   1.376   3.145   3.019  0.2628  0.2545  0.2420
  789MOL0     C 6405   1.479   3.169   3.098 -0.0715  0.1048  0.1918
  789MOL0     C 6406   1.557   3.065   3.157  1.3876 -0.3659  0.2432
  789MOL0     C 6407   1.674   3.093   3.234  0.4145  0.0213  0.7214
  789MOL0     C 6408   1.736   2.984   3.314  0.3553  0.1685  0.5591
  789MOL0     C 6409   1.703   3.231   3.248  0.6196 -0.5444  0.2608
  789MOL0     C 6410   1.818   3.275   3.323 -0.6076 -0.8217 -1.4593
  789MOL0     O 6411   1.936   3.216   3.306 -0.0163 -0.3088  0.3232
  789MOL0     C 6412   2.055   3.270   3.345  0.5233  0.3464 -0.2795
  789MOL0     C 6413   2.080   3.406   3.331 -0.5991  0.4836 -0.4310
  789MOL0     C 6414   2.203   3.466   3.358 -0.5007  0.3102  0.5189
  789MOL0     C 6415   2.305   3.392   3.422 -0.3950 -0.4356 -0.0191
  789MOL0     O 6416   2.422   3.458   3.455  0.4702  0.6675 -0.9541
  789MOL0     C 6417   2.472   3.418   3.584  0.1040  0.1843 -0.3273
  789MOL0     C 6418   2.500   3.543   3.667  1.5742  0.1072  0.0819
  789MOL0     C 6419   2.600   3.536   3.782 -0.5806  0.2081 -0.5493
  789MOL0     C 6420   2.527   3.484   3.910  1.4840 -0.5498  0.0527
  789MOL0     C 6421   2.621   3.432   4.030  0.0727  0.3332 -0.5050
  789MOL0     C 6422   2.546   3.340   4.129  0.0586  0.7367  0.1672
  789MOL0     C 6423   2.646   3.292   4.233 -0.3995  0.1088 -1.0006
  789MOL0     C 6424   2.620   3.154   4.291 -0.2216  0.0138  0.3527
  789MOL0    Cl 6425   2.736   3.113   4.432  0.1218  0.2295 -0.2978
  789MOL0     C 6426   2.278   3.255   3.444  0.0381 -0.5741  0.0483
  789MOL0     C 6427   2.153   3.194   3.408  0.3541 -0.3233  0.0164
  789MOL0     O 6428   1.798   3.366   3.408  0.1533  0.1194  0.1479
  789MOL0     C 6429   1.615   3.336   3.205 -0.4980  0.1156 -0.5433
  789MOL0     C 6430   1.508   3.301   3.127  0.0734 -0.1786 -0.9279
  789MOL0     N 6431   0.931   2.654   2.843 -0.3705 -0.4428 -0.4671
  789MOL0     N 6432   0.883   2.553   2.906 -0.0814  0.1290 -0.7460
  789MOL0     C 6433   0.929   2.212   3.902 -0.1222 -0.2092 -0.6636
  789MOL0     C 6434   0.875   2.146   4.014 -0.7869 -0.7354  0.1601
  789MOL0     C 6435   0.555   1.838   4.201 -0.3892  0.0341 -0.0606
  789MOL0     C 6436   0.441   1.759   4.195  0.1383  0.1925 -0.0675
  789MOL0     C 6437   0.393   1.700   4.318 -0.7875 -0.1332 -0.0150
  789MOL0     C 6438   0.471   1.708   4.429 -0.3462  0.3832  0.1180
  789MOL0     O 6439   0.439   1.643   4.544  0.2692 -0.1840 -0.2247
  789MOL0     C 6440   0.303   1.600   4.575  0.3006  0.1596  0.5142
  789MOL0     C 6441   0.301   1.566   4.733 -0.0716  0.1929  0.1270
  789MOL0     C 6442   0.425   1.490   4.782 -0.0596  0.3660  0.4387
  789MOL0     C 6443   0.415   1.455   4.938  0.8332 -0.8190  0.7411
  789MOL0     C 6444   0.300   1.372   4.979  0.0791 -0.2357 -0.0142
  789MOL0     C 6445   0.200   1.320   5.019  0.2198  0.6966 -0.8851
  789MOL0     C 6446   0.587   1.791   4.437 -0.1674 -0.1942 -0.4711
  789MOL0     C 6447   0.614   1.870   4.327  1.0142 -0.1552 -0.4110
  789MOL0     H 6448   0.779   1.857   3.857 -1.2562  0.4883 -0.5748
  789MOL0     H 6449   0.857   1.991   3.664 -1.0658  3.5003 -1.8016
  789MOL0     H 6450   1.193   2.183   3.742 -0.9035  0.2103  0.5286
  789MOL0     H 6451   1.109   2.033   3.697 -1.2243 -0.3572 -1.7392
  789MOL0     H 6452   1.291   2.069   3.549  0.0710  0.6572  1.3416
  789MOL0     H 6453   1.141   2.079   3.466  1.6553  1.5383 -1.7593
  789MOL0     H 6454   1.251   2.334   3.564 -2.0821 -0.4571  0.6282
  789MOL0     H 6455   1.346   2.260   3.433 -0.1634  1.0554 -0.2868
  789MOL0     H 6456   1.086   2.225   3.334  2.2669 -0.6432 -0.6904
  789MOL0     H 6457   1.039   2.345   3.438 -0.0397  0.0783 -1.2017
  789MOL0     H 6458   1.199   2.501   3.352  0.4958 -1.1995  1.8812
  789MOL0     H 6459   1.243   2.378   3.227  0.5836  0.5145  1.1742
  789MOL0     H 6460   1.081   2.528   3.116  3.7156  0.1348  1.7410
  789MOL0     H 6461   1.025   2.362   3.146 -3.7270  0.6122 -0.1670
  789MOL0     H 6462   0.879   2.444   3.326  1.0059  1.4734  2.7850
  789MOL0     H 6463   0.935   2.612   3.294 -0.9653  1.3885 -2.4933
  789MOL0     H 6464   0.712   2.541   3.189  0.4915 -1.7875  1.4170
  789MOL0     H 6465   0.796   2.414   3.106 -1.5878  0.2926 -0.7880
  789MOL0     H 6466   0.846   2.795   3.119 -0.5182  0.2766  0.1219
  789MOL0     H 6467   0.978   2.907   2.763 -1.3791 -1.9661 -0.4070
  789MOL0     H 6468   0.912   2.989   2.911  0.7980  0.2999  3.0895
  789MOL0     H 6469   1.181   2.824   2.899 -0.2406 -0.9902  2.4423
  789MOL0     H 6470   1.080   2.842   3.035 -2.7380  0.3795 -0.8393
  789MOL0     H 6471   1.127   3.096   3.018 -0.2789  0.4958 -1.5986
  789MOL0     H 6472   1.185   3.064   2.842  2.2943 -2.2142 -1.5553
  789MOL0     H 6473   1.376   2.936   2.957  2.2361  1.5467 -0.0253
  789MOL0     H 6474   1.311   2.976   3.114  2.0556  2.8946  1.5764
  789MOL0     H 6475   1.536   2.960   3.135 -0.6459  0.0140  0.1556
  789MOL0     H 6476   1.831   2.948   3.275  0.2504 -0.7137  1.1016
  789MOL0     H 6477   1.746   3.021   3.417 -4.1483 -0.1488  1.3501
  789MOL0     H 6478   1.663   2.902   3.317  4.1827 -3.6001 -0.1362
  789MOL0     H 6479   1.993   3.468   3.311 -0.3776  1.1154  0.4624
  789MOL0     H 6480   2.219   3.572   3.340 -0.1403  0.1055 -0.4482
  789MOL0     H 6481   2.405   3.356   3.645  2.0845  0.6130  2.4590
  789MOL0     H 6482   2.560   3.356   3.565  1.1967  1.3510  0.7819
  789MOL0     H 6483   2.541   3.622   3.604  0.6788 -0.9427 -1.9175
  789MOL0     H 6484   2.404   3.581   3.704  2.4098  1.5513  0.8317
  789MOL0     H 6485   2.655   3.628   3.802 -1.9730  1.1887 -1.0886
  789MOL0     H 6486   2.672   3.456   3.766 -0.8564 -0.7306  2.2029
  789MOL0     H 6487   2.472   3.572   3.943  1.7793  0.1095 -1.1692
  789MOL0     H 6488   2.455   3.407   3.880  1.7918  0.1060 -2.6684
  789MOL0     H 6489   2.652   3.519   4.088 -1.7116  1.0656 -0.5911
  789MOL0     H 6490   2.706   3.375   3.991 -0.6715 -1.3348  0.2155
  789MOL0     H 6491   2.476   3.402   4.186  0.1228  1.2623 -0.3168
  789MOL0     H 6492   2.481   3.270   4.074 -0.9110 -0.2684  2.4645
  789MOL0     H 6493   2.636   3.352   4.324 -4.1181 -1.4420 -0.1989
  789MOL0     H 6494   2.751   3.302   4.203 -0.0981 -3.1540 -1.4032
  789MOL0     H 6495   2.633   3.088   4.205 -2.8822 -1.0960  0.7068
  789MOL0     H 6496   2.514   3.164   4.313 -0.2020  0.5906  0.2091
  789MOL0     H 6497   2.358   3.192   3.481  1.2127  1.2636  0.7702
  789MOL0     H 6498   2.132   3.088   3.420 -0.6061 -0.1824 -0.3354
  789MOL0     H 6499   1.629   3.438   3.239 -2.3855  0.4097 -0.5360
  789MOL0     H 6500   1.447   3.380   3.084 -0.1339  1.2126  1.6552
  789MOL0     H 6501   0.978   2.309   3.908 -0.6263  0.0120  0.0430
  789MOL0     H 6502   0.885   2.197   4.109 -2.7769  1.6190 -0.7730
  789MOL0     H 6503   0.378   1.744   4.108 -1.3797 -1.3323  1.2079
  789MOL0     H 6504   0.301   1.642   4.310  0.3098 -1.8074 -1.0371
  789MOL0     H 6505   0.224   1.669   4.546 -0.0876 -1.3435 -2.3112
  789MOL0     H 6506   0.273   1.507   4.526  0.9807  1.0888 -1.7518
  789MOL0     H 6507   0.204   1.529   4.768 -0.0052  1.0735  1.3186
  789MOL0     H 6508   0.320   1.663   4.779  4.9002  0.4214 -1.8116
  789MOL0     H 6509   0.521   1.540   4.766 -0.9532  2.0100  0.0149
  789MOL0     H 6510   0.430   1.396   4.726 -0.4622  2.2227 -2.9890
  789MOL0     H 6511   0.414   1.544   5.002 -1.1856  1.3795 -2.1049
  789MOL0     H 6512   0.500   1.390   4.963 -0.2683 -2.6682 -0.0957
  789MOL0     H 6513   0.113   1.279   5.066  1.7242  1.5076  2.9911
  789MOL0     H 6514   0.634   1.806   4.534  0.8812 -1.7473 -0.6846
  789MOL0     H 6515   0.687   1.950   4.336 -0.1274  0.6673  3.6301
  790MOL0     O 6516   4.152   0.887   3.694 -0.1576  0.5910 -0.5364
  790MOL0     C 6517   4.225   0.947   3.770 -0.0959  0.5690 -0.0805
  790MOL0     O 6518   4.189   1.015   3.883  0.4337  0.2228  0.3531
  790MOL0     C 6519   4.049   1.007   3.900  0.5778 -0.7656 -0.3644
  790MOL0     C 6520   3.964   1.118   3.888 -0.0588 -1.4284 -0.4180
  790MOL0     C 6521   3.840   1.107   3.940  1.1594 -0.6837 -0.5318
  790MOL0     C 6522   3.789   0.994   4.007 -0.7561  0.1740  0.4422
  790MOL0     O 6523   3.668   0.992   4.075  0.1680  0.1918  0.4272
  790MOL0     C 6524   3.579   1.109   4.075 -0.0980  0.2689  0.7095
  790MOL0     C 6525   3.481   1.105   3.962  0.5806 -0.7660 -0.4025
  790MOL0     C 6526   3.402   0.987   3.924  0.6476  0.3123  0.3105
  790MOL0     C 6527   3.312   1.013   3.803  0.2342  0.3350 -0.3987
  790MOL0     C 6528   3.243   0.881   3.769 -0.0205  0.0009  0.0699
  790MOL0     C 6529   3.125   0.903   3.684  0.8822 -0.5054 -0.1814
  790MOL0     C 6530   3.068   0.775   3.636  1.0256  0.6050  0.0346
  790MOL0     C 6531   3.016   0.661   3.734  0.4967 -0.4926 -0.1989
  790MOL0     N 6532   2.868   0.667   3.750 -0.4125 -0.1923  0.1547
  790MOL0     C 6533   2.780   0.634   3.648  0.6548 -0.5303 -0.5433
  790MOL0     C 6534   2.657   0.659   3.702 -0.6243 -0.1066  0.4715
  790MOL0     C 6535   2.518   0.672   3.642 -0.1679  0.5741  0.0510
  790MOL0     C 6536   2.410   0.584   3.707  1.0141  0.1531 -0.5290
  790MOL0     C 6537   2.367   0.632   3.854 -0.4278  0.7194  0.6037
  790MOL0     C 6538   2.247   0.560   3.910  0.9088  0.7443 -0.7875
  790MOL0     O 6539   2.131   0.605   3.837 -0.1780 -0.2781 -0.7234
  790MOL0     C 6540   2.046   0.686   3.908  1.1122  0.8706  0.4592
  790MOL0     C 6541   2.008   0.657   4.045 -0.8101 -0.8591  0.4218
  790MOL0     C 6542   1.910   0.734   4.106  0.2853 -0.4270 -0.8638
  790MOL0     C 6543   1.848   0.684   4.231 -0.2392  0.1855  0.3922
  790MOL0     C 6544   1.857   0.850   4.031 -0.9689 -0.4145 -1.1364
  790MOL0     C 6545   1.754   0.937   4.085 -0.4772 -0.0141 -0.2811
  790MOL0     O 6546   1.645   0.971   4.005 -0.2184  0.6088  0.0461
  790MOL0     C 6547   1.558   1.073   4.038 -0.5774 -0.1281  0.0705
  790MOL0     C 6548   1.511   1.091   4.175  0.5142  0.0342 -1.2551
  790MOL0     C 6549   1.405   1.190   4.196  0.1483  0.1340 -0.8953
  790MOL0     C 6550   1.354   1.266   4.091  0.1249  0.0984  0.2023
  790MOL0     O 6551   1.253   1.357   4.108 -0.2655 -0.0840  0.5000
  790MOL0     C 6552   1.198   1.376   4.244 -0.4158 -0.2332 -0.4989
  790MOL0     C 6553   1.082   1.469   4.265 -0.5567 -0.3851  0.3567
  790MOL0     C 6554   0.950   1.413   4.215  0.0797  0.7915 -0.6827
  790MOL0     C 6555   0.873   1.503   4.108 -0.4159  0.2052  0.0340
  790MOL0     C 6556   0.764   1.422   4.038 -0.6628  0.5690  0.0178
  790MOL0     C 6557   0.674   1.521   3.972  0.8466  0.3935  0.6100
  790MOL0     C 6558   0.617   1.458   3.843 -0.2154 -0.2102  0.5085
  790MOL0     C 6559   0.716   1.489   3.725 -0.0597  0.2459 -0.3506
  790MOL0    Cl 6560   0.678   1.389   3.575  0.5313  0.4009  0.8763
  790MOL0     C 6561   1.400   1.232   3.963  0.1004  0.5357 -0.1107
  790MOL0     C 6562   1.499   1.137   3.941 -0.2895 -0.1579  0.5174
  790MOL0     O 6563   1.778   0.982   4.196 -0.2470  0.3309  0.1222
  790MOL0     C 6564   1.901   0.877   3.901  0.5471  0.1138  0.2887
  790MOL0     C 6565   1.982   0.792   3.832 -0.6510  0.1531 -0.1952
  790MOL0     N 6566   2.683   0.692   3.832  0.9666 -0.0472  0.1581
  790MOL0     N 6567   2.809   0.708   3.860 -0.2872 -0.3874 -0.0120
  790MOL0     C 6568   3.871   0.877   4.014 -0.3298  0.1131 -0.2604
  790MOL0     C 6569   3.998   0.887   3.952 -0.9445 -0.0429  0.2123
  790MOL0     C 6570   4.377   0.942   3.732  0.3961 -0.0791 -0.0803
  790MOL0     C 6571   4.472   0.968   3.831  0.1187 -1.1441  0.8610
  790MOL0     C 6572   4.606   0.967   3.809 -0.8447  0.3192  0.2056
  790MOL0     C 6573   4.657   0.927   3.687  0.8955 -0.5541 -0.3259
  790MOL0     O 6574   4.786   0.940   3.651  0.1552  1.0137  0.4762
  790MOL0     C 6575   4.884   0.904   3.740 -0.2427 -0.4987  0.3917
  790MOL0     C 6576   5.020   0.894   3.665 -0.2547  0.4755 -0.3134
  790MOL0     C 6577   5.040   0.774   3.578  0.0329 -0.3572 -0.0221
  790MOL0     C 6578   5.181   0.779   3.516 -0.6383  0.3251 -1.1191
  790MOL0     C 6579   5.195   0.672   3.413 -0.6142 -0.5569  0.9465
  790MOL0     C 6580   5.179   0.580   3.326 -0.5374  0.7993 -0.2854
  790MOL0     C 6581   4.561   0.893   3.590 -0.0171  0.0895  0.3329
  790MOL0     C 6582   4.427   0.895   3.613  0.4785  0.3396  0.2662
  790MOL0     H 6583   4.001   1.210   3.845 -3.4338  1.9644  3.1398
  790MOL0     H 6584   3.778   1.196   3.935 -3.2429 -3.4255  0.4290
  790MOL0     H 6585   3.533   1.104   4.174  0.5813  2.1948  1.1776
  790MOL0     H 6586   3.637   1.202   4.074  3.7449 -1.6804 -4.7283
  790MOL0     H 6587   3.410   1.183   3.990  3.4703  2.0415 -0.3555
  790MOL0     H 6588   3.533   1.141   3.873 -0.0213  3.5367  0.7551
  790MOL0     H 6589   3.471   0.906   3.896  0.1452 -0.1080  0.2626
  790MOL0     H 6590   3.356   0.959   4.019  2.1017  0.9412  1.2249
  790MOL0     H 6591   3.235   1.080   3.843  1.9523  2.4648 -0.4254
  790MOL0     H 6592   3.371   1.057   3.722  0.6751 -1.3296 -1.0157
  790MOL0     H 6593   3.316   0.817   3.718  0.6295 -0.2152  1.2393
  790MOL0     H 6594   3.213   0.827   3.860 -0.7346 -0.7462 -0.5935
  790MOL0     H 6595   3.055   0.958   3.748  1.1978 -1.5039  1.0459
  790MOL0     H 6596   3.149   0.963   3.596  2.3570  0.2336  0.6976
  790MOL0     H 6597   2.993   0.792   3.558  2.4718  2.0660 -1.1185
  790MOL0     H 6598   3.139   0.731   3.565  0.8689  2.5431 -1.4099
  790MOL0     H 6599   3.066   0.661   3.831  0.2587  5.1384  0.2594
  790MOL0     H 6600   3.032   0.561   3.693 -3.0239 -1.2895  0.0106
  790MOL0     H 6601   2.795   0.605   3.545 -2.3089 -0.2747 -1.1435
  790MOL0     H 6602   2.480   0.774   3.637 -1.9666 -0.0708 -0.2109
  790MOL0     H 6603   2.528   0.648   3.536  3.2952 -0.3098  0.4698
  790MOL0     H 6604   2.442   0.483   3.733 -0.1586 -0.3133 -0.8401
  790MOL0     H 6605   2.326   0.572   3.637  1.3837 -0.8238 -0.8202
  790MOL0     H 6606   2.340   0.736   3.873 -2.9051  0.3406 -0.4988
  790MOL0     H 6607   2.449   0.605   3.921 -0.5888  1.6539  1.1934
  790MOL0     H 6608   2.239   0.587   4.016  1.5596  0.7432 -0.7352
  790MOL0     H 6609   2.248   0.452   3.891  0.9213  1.0989 -3.0563
  790MOL0     H 6610   2.046   0.568   4.095 -1.2024 -1.6339 -0.6128
  790MOL0     H 6611   1.869   0.772   4.293 -1.8351  0.6634  0.2920
  790MOL0     H 6612   1.743   0.656   4.233 -0.2300  0.1871  1.2300
  790MOL0     H 6613   1.905   0.603   4.277 -1.1799 -0.6209  0.1608
  790MOL0     H 6614   1.566   1.034   4.249 -0.5452 -2.0576 -1.9905
  790MOL0     H 6615   1.370   1.203   4.298  0.7444 -1.2634 -0.4950
  790MOL0     H 6616   1.171   1.278   4.286 -2.7687  0.9995  1.1084
  790MOL0     H 6617   1.277   1.412   4.311  1.1831 -2.2167 -1.2295
  790MOL0     H 6618   1.063   1.488   4.371 -2.6212  2.9340 -0.4794
  790MOL0     H 6619   1.105   1.564   4.216  1.3015 -0.6971  0.5788
  790MOL0     H 6620   0.887   1.405   4.304  0.9133 -1.0200 -0.2065
  790MOL0     H 6621   0.950   1.316   4.163 -0.7743  2.1373 -3.4011
  790MOL0     H 6622   0.832   1.596   4.150 -1.4307  0.6635 -1.8760
  790MOL0     H 6623   0.940   1.528   4.026  0.0223 -0.1107  0.2953
  790MOL0     H 6624   0.697   1.358   4.096 -0.4741  1.9687  1.8846
  790MOL0     H 6625   0.818   1.349   3.977 -0.4310 -0.4849  1.4250
  790MOL0     H 6626   0.605   1.547   4.052 -0.5843  1.2385 -0.8267
  790MOL0     H 6627   0.722   1.615   3.942  3.1342 -1.3275 -1.6136
  790MOL0     H 6628   0.522   1.508   3.823  0.7613  1.0590 -1.2222
  790MOL0     H 6629   0.602   1.350   3.846 -2.9333  0.0735 -0.3845
  790MOL0     H 6630   0.820   1.482   3.756  0.8389  2.4226 -2.6028
  790MOL0     H 6631   0.695   1.590   3.689 -0.8144 -1.2237 -4.7527
  790MOL0     H 6632   1.356   1.273   3.872 -0.2530 -1.5793 -0.9460
  790MOL0     H 6633   1.542   1.117   3.843  0.1608 -1.2001  0.9214
  790MOL0     H 6634   1.860   0.962   3.848  0.9791  1.6623  2.3138
  790MOL0     H 6635   2.004   0.799   3.726 -2.1388  1.5800 -0.4456
  790MOL0     H 6636   3.845   0.785   4.067  1.2701 -0.9828 -1.2916
  790MOL0     H 6637   4.074   0.810   3.955 -1.7346 -0.8685 -0.2774
  790MOL0     H 6638   4.423   0.980   3.928 -0.9532  1.4913  0.0869
  790MOL0     H 6639   4.663   1.011   3.890 -0.1385 -0.1100 -0.0560
  790MOL0     H 6640   4.895   0.980   3.817 -1.2646 -1.5488  1.6283
  790MOL0     H 6641   4.860   0.809   3.790 -2.7771  0.2579  0.7379
  790MOL0     H 6642   5.098   0.916   3.738 -0.3596 -0.8527  0.2310
  790MOL0     H 6643   5.009   0.976   3.593 -3.5199  0.9190  0.5198
  790MOL0     H 6644   4.975   0.796   3.492  0.0608 -3.2315 -0.8836
  790MOL0     H 6645   5.013   0.679   3.624 -1.3332 -1.0786 -2.1291
  790MOL0     H 6646   5.265   0.757   3.584  0.7271  1.6748 -2.3004
  790MOL0     H 6647   5.200   0.878   3.473  1.5228  0.3106 -0.3210
  790MOL0     H 6648   5.174   0.498   3.257  1.1523  1.9636 -1.8938
  790MOL0     H 6649   4.614   0.852   3.504  1.3372  0.7089  0.8381
  790MOL0     H 6650   4.353   0.860   3.542  0.3885 -0.1811  0.6146
  791MOL0     O 6651   4.859   5.025   1.200  0.2070  0.0194  0.0198
  791MOL0     C 6652   4.819   5.136   1.153  0.4104 -0.3555 -0.1711
  791MOL0     O 6653   4.802   5.252   1.220 -0.4054 -0.7083  0.2091
  791MOL0     C 6654   4.825   5.258   1.353 -0.7593 -0.1594  0.3936
  791MOL0     C 6655   4.956   5.266   1.414  0.6710  1.3473  0.0896
  791MOL0     C 6656   4.967   5.279   1.549 -0.1185  0.9249 -0.1595
  791MOL0     C 6657   4.856   5.301   1.626  0.3562 -0.4768  0.1028
  791MOL0     O 6658   4.860   5.320   1.762 -0.8552  1.0874 -0.7643
  791MOL0     C 6659   4.972   5.367   1.836 -0.1440 -0.2028 -0.7510
  791MOL0     C 6660   5.043   5.262   1.922 -0.1315 -0.1872 -0.0221
  791MOL0     C 6661   4.941   5.176   2.001 -1.2058  0.6488  0.3077
  791MOL0     C 6662   5.026   5.069   2.088  0.7274 -0.3814 -0.5076
  791MOL0     C 6663   5.038   5.126   2.238  0.2211  0.9713 -0.1623
  791MOL0     C 6664   5.093   5.029   2.337 -1.0435  0.0736  0.2078
  791MOL0     C 6665   5.092   5.077   2.482  0.1746  0.4244 -0.6125
  791MOL0     C 6666   5.109   4.957   2.576 -0.4422  0.5666  0.3423
  791MOL0     N 6667   5.048   4.963   2.712  0.3713 -0.7600 -0.9428
  791MOL0     C 6668   4.912   4.952   2.733 -0.6212 -0.2292 -0.0185
  791MOL0     C 6669   4.890   4.979   2.864  0.7332  0.2735  0.1873
  791MOL0     C 6670   4.765   4.977   2.953  0.0021 -0.0090 -0.4485
  791MOL0     C 6671   4.750   4.835   3.011 -0.4538 -0.4965  0.1836
  791MOL0     C 6672   4.672   4.809   3.144 -0.4093  0.9168 -0.5040
  791MOL0     C 6673   4.723   4.881   3.266  0.1902  0.1698 -0.2446
  791MOL0     O 6674   4.613   4.931   3.344 -0.7161  0.5769 -0.4952
  791MOL0     C 6675   4.548   4.821   3.401  0.4982 -0.0500 -0.0098
  791MOL0     C 6676   4.595   4.751   3.518  1.7519 -0.1775 -0.5989
  791MOL0     C 6677   4.508   4.669   3.588 -0.0224 -0.0051 -0.4667
  791MOL0     C 6678   4.574   4.610   3.721  1.0991  0.7246  0.1705
  791MOL0     C 6679   4.382   4.636   3.537  0.3527  0.3489  0.1102
  791MOL0     C 6680   4.276   4.550   3.602 -0.0996 -0.6969  0.1667
  791MOL0     O 6681   4.151   4.540   3.534 -0.3346  0.7790  0.6735
  791MOL0     C 6682   4.090   4.415   3.537 -0.0064 -0.4350  0.1640
  791MOL0     C 6683   3.972   4.395   3.611 -0.4971  0.6412 -0.3742
  791MOL0     C 6684   3.904   4.275   3.602  0.2309  0.7481 -0.1688
  791MOL0     C 6685   3.948   4.174   3.522  0.4314 -1.0476 -0.2803
  791MOL0     O 6686   3.884   4.061   3.487 -0.5174  0.5162  0.0498
  791MOL0     C 6687   3.764   4.076   3.417  1.0384 -0.1195  0.7207
  791MOL0     C 6688   3.772   4.165   3.299  1.4885 -0.0682 -0.4190
  791MOL0     C 6689   3.647   4.142   3.210  0.5663  0.5339  0.5488
  791MOL0     C 6690   3.640   4.245   3.096  0.5466 -0.0997 -0.8621
  791MOL0     C 6691   3.516   4.211   3.005 -0.0018 -0.5014  0.7033
  791MOL0     C 6692   3.519   4.318   2.894 -0.1750 -0.2354  0.8053
  791MOL0     C 6693   3.404   4.312   2.798 -0.3265  0.3909 -0.5688
  791MOL0     C 6694   3.433   4.265   2.660 -0.4869 -0.6059 -0.0181
  791MOL0    Cl 6695   3.501   4.401   2.569  0.5227  0.6388 -0.1531
  791MOL0     C 6696   4.081   4.186   3.464  0.0481  0.2875 -0.5086
  791MOL0     C 6697   4.162   4.307   3.471  0.2154 -0.7979  0.8811
  791MOL0     O 6698   4.302   4.493   3.714 -0.2435 -0.2483  0.6650
  791MOL0     C 6699   4.344   4.692   3.414  0.5193  0.2259  0.2637
  791MOL0     C 6700   4.419   4.789   3.347 -0.2461 -1.0762 -0.1669
  791MOL0     N 6701   5.020   5.012   2.913 -1.3302 -0.7563 -0.2421
  791MOL0     N 6702   5.113   4.995   2.828 -1.2821 -0.1414  0.4712
  791MOL0     C 6703   4.733   5.304   1.560 -0.6014  0.8707 -0.8224
  791MOL0     C 6704   4.712   5.283   1.426  0.7916 -0.6473  0.0819
  791MOL0     C 6705   4.765   5.134   1.018 -0.0137  1.1497 -0.5705
  791MOL0     C 6706   4.721   5.253   0.954 -1.1596 -0.2245  0.4954
  791MOL0     C 6707   4.655   5.244   0.830 -0.0701  0.6464 -0.8720
  791MOL0     C 6708   4.636   5.120   0.765  0.4062  0.4157  0.1860
  791MOL0     O 6709   4.565   5.112   0.642  0.6386 -0.5200  0.0336
  791MOL0     C 6710   4.493   5.226   0.588  0.2074 -1.1481 -0.3513
  791MOL0     C 6711   4.375   5.161   0.518  1.1713  0.8090  0.5437
  791MOL0     C 6712   4.295   5.281   0.464 -0.1308 -0.4410 -0.8447
  791MOL0     C 6713   4.176   5.235   0.390 -0.0743  0.4495 -0.7765
  791MOL0     C 6714   4.103   5.343   0.318  0.3324 -0.0928 -1.0385
  791MOL0     C 6715   4.040   5.444   0.288 -0.3267 -0.4788 -0.7920
  791MOL0     C 6716   4.666   5.008   0.836  1.4849 -0.8035  0.1280
  791MOL0     C 6717   4.736   5.009   0.954 -0.8981  0.4986 -0.2556
  791MOL0     H 6718   5.048   5.227   1.371  0.9642  0.9007  1.0889
  791MOL0     H 6719   5.062   5.298   1.598 -0.0121 -1.2236  0.5834
  791MOL0     H 6720   5.034   5.427   1.768 -1.8721  3.5942  0.7129
  791MOL0     H 6721   4.925   5.433   1.909 -0.2056 -0.2330 -0.7643
  791MOL0     H 6722   5.108   5.203   1.856 -1.2846 -1.3336 -0.1636
  791MOL0     H 6723   5.105   5.314   1.996  0.2173 -0.4858 -0.0990
  791MOL0     H 6724   4.879   5.236   2.068 -0.2213 -1.2117  3.0494
  791MOL0     H 6725   4.875   5.118   1.936  1.1975 -0.3840 -1.4139
  791MOL0     H 6726   4.980   4.970   2.092  0.4935 -0.2796  3.5054
  791MOL0     H 6727   5.127   5.053   2.048  0.2315 -2.3370 -1.0659
  791MOL0     H 6728   5.086   5.225   2.234 -0.4481  1.3876  1.3439
  791MOL0     H 6729   4.935   5.147   2.270  0.3248  0.4667  0.5374
  791MOL0     H 6730   5.048   4.930   2.338 -1.1658  0.0855  2.9684
  791MOL0     H 6731   5.196   5.004   2.310 -0.7965  1.0622  0.2049
  791MOL0     H 6732   5.172   5.149   2.503  1.8036 -2.0472  2.4302
  791MOL0     H 6733   4.996   5.118   2.514 -1.0069 -4.2068  2.6771
  791MOL0     H 6734   5.217   4.946   2.587 -0.1213 -1.7431 -3.2416
  791MOL0     H 6735   5.067   4.863   2.539 -0.1680 -0.8699  3.3764
  791MOL0     H 6736   4.849   4.933   2.648  5.0482 -0.9040 -4.6956
  791MOL0     H 6737   4.763   5.056   3.028 -1.6004  1.0815 -1.5715
  791MOL0     H 6738   4.678   5.009   2.895  1.1697 -0.5339 -2.6190
  791MOL0     H 6739   4.846   4.788   3.033 -1.7504 -2.3439  2.3349
  791MOL0     H 6740   4.699   4.772   2.937 -2.6521  0.3415  0.9188
  791MOL0     H 6741   4.666   4.700   3.158 -1.3396  0.6594 -2.4938
  791MOL0     H 6742   4.576   4.856   3.120 -0.2207  2.7472  1.9551
  791MOL0     H 6743   4.791   4.960   3.231 -0.6483  0.5882 -0.9790
  791MOL0     H 6744   4.782   4.821   3.336  1.4462 -0.7341 -2.0175
  791MOL0     H 6745   4.701   4.757   3.538  1.9324 -2.5637 -0.5886
  791MOL0     H 6746   4.674   4.656   3.725  0.6613  2.4259 -3.7295
  791MOL0     H 6747   4.515   4.625   3.811 -2.6411 -1.3597 -1.7331
  791MOL0     H 6748   4.585   4.510   3.679 -2.7800  1.3727 -3.0279
  791MOL0     H 6749   3.931   4.480   3.665  0.2981  0.5232  0.4316
  791MOL0     H 6750   3.818   4.262   3.667 -2.9230  0.9084 -3.9638
  791MOL0     H 6751   3.746   3.976   3.378  2.0441 -1.5704  3.6444
  791MOL0     H 6752   3.679   4.109   3.478  2.4513  1.1107  2.1214
  791MOL0     H 6753   3.767   4.270   3.331  0.5788 -0.1307 -0.3362
  791MOL0     H 6754   3.859   4.146   3.235  0.7296  0.9062 -1.7939
  791MOL0     H 6755   3.557   4.150   3.272 -0.1654  3.5727 -0.7420
  791MOL0     H 6756   3.652   4.039   3.175  1.8944  0.7394  0.0703
  791MOL0     H 6757   3.630   4.348   3.133 -1.9976 -0.9237  1.0047
  791MOL0     H 6758   3.733   4.250   3.039  0.3514  3.4421 -1.0928
  791MOL0     H 6759   3.424   4.222   3.062 -0.2886  1.8477 -0.1102
  791MOL0     H 6760   3.540   4.116   2.957  0.7594  1.6006 -3.6086
  791MOL0     H 6761   3.538   4.422   2.923  3.5095 -0.3208 -0.8069
  791MOL0     H 6762   3.610   4.300   2.837  0.7497  3.2457  0.9187
  791MOL0     H 6763   3.358   4.411   2.791 -0.5954  0.5160  2.1201
  791MOL0     H 6764   3.332   4.244   2.844  0.7564 -2.3506 -2.5980
  791MOL0     H 6765   3.340   4.240   2.608 -2.4275 -1.7964  3.6372
  791MOL0     H 6766   3.511   4.190   2.650 -0.6832 -1.0870  1.6593
  791MOL0     H 6767   4.122   4.104   3.407 -3.9575 -1.9823 -0.5029
  791MOL0     H 6768   4.257   4.306   3.419  0.2590  0.4921  0.9021
  791MOL0     H 6769   4.247   4.690   3.364  0.2276  4.0420  0.3621
  791MOL0     H 6770   4.366   4.847   3.272  2.7083  0.4227 -1.2658
  791MOL0     H 6771   4.653   5.313   1.633 -0.0920 -0.8063  0.0040
  791MOL0     H 6772   4.610   5.280   1.389  1.6868  0.4243 -2.8067
  791MOL0     H 6773   4.731   5.349   1.004 -0.5119 -0.3872  0.6964
  791MOL0     H 6774   4.624   5.334   0.778 -0.8839  1.1625  0.4617
  791MOL0     H 6775   4.456   5.300   0.660  0.8235 -0.5007 -0.6920
  791MOL0     H 6776   4.563   5.272   0.518  4.5295 -3.6348  1.8885
  791MOL0     H 6777   4.311   5.101   0.584  0.5302 -0.9800 -1.6078
  791MOL0     H 6778   4.411   5.087   0.447 -0.6832 -2.6954  2.9485
  791MOL0     H 6779   4.364   5.338   0.401  1.4493  0.9112  1.9304
  791MOL0     H 6780   4.265   5.341   0.550  0.7309 -4.3426  2.5506
  791MOL0     H 6781   4.124   5.160   0.451  2.0656 -0.4785 -0.0230
  791MOL0     H 6782   4.214   5.181   0.304 -0.2063  0.2732 -0.7243
  791MOL0     H 6783   3.991   5.535   0.262 -0.8288 -0.4608  0.1807
  791MOL0     H 6784   4.635   4.909   0.805  0.2895 -0.3722 -0.0755
  791MOL0     H 6785   4.768   4.916   1.002  1.3737 -0.2691 -2.9837
  792MOL0     O 6786   6.027  10.077  10.224  0.2048  0.2200 -0.0927
  792MOL0     C 6787   5.947  10.101  10.136 -0.0812  0.8592  0.6442
  792MOL0     O 6788   5.939  10.027  10.020 -0.6239  0.4673  0.1796
  792MOL0     C 6789   6.041   9.932   9.998 -0.3879  0.3667  0.2817
  792MOL0     C 6790   6.045   9.806  10.061 -0.3617  0.1369 -0.5264
  792MOL0     C 6791   6.152   9.725  10.041  0.1297  0.4787  0.3568
  792MOL0     C 6792   6.237   9.741   9.941 -0.6782  0.4535  0.8453
  792MOL0     O 6793   6.340   9.652   9.916  0.0032 -0.1259 -0.6923
  792MOL0     C 6794   6.304   9.513   9.927  0.6093 -0.0095 -1.0157
  792MOL0     C 6795   6.418   9.427   9.863  0.2365  0.4745 -0.3587
  792MOL0     C 6796   6.552   9.432   9.924  0.7028  0.6969  0.3926
  792MOL0     C 6797   6.568   9.327  10.038 -0.0926  0.7572  0.2993
  792MOL0     C 6798   6.658   9.374  10.160  0.5816  0.4072  0.0402
  792MOL0     C 6799   6.597   9.493  10.240 -0.8429 -0.2455 -0.1214
  792MOL0     C 6800   6.468   9.467  10.317  0.1007  0.4526  1.0998
  792MOL0     C 6801   6.459   9.551  10.449 -0.1036  0.0211  0.0460
  792MOL0     N 6802   6.471   9.697  10.419  0.9763 -0.8148  0.3302
  792MOL0     C 6803   6.451   9.770  10.300  0.3110 -0.1432 -0.1464
  792MOL0     C 6804   6.459   9.892  10.340  0.5784 -0.5300  0.6581
  792MOL0     C 6805   6.461  10.004  10.238  0.0137 -0.8216 -0.1268
  792MOL0     C 6806   6.561  10.119  10.253  0.2051  0.1816 -0.5235
  792MOL0     C 6807   6.706  10.094  10.223  0.1497  0.1832 -0.8536
  792MOL0     C 6808   6.762   9.972  10.298  0.2058  0.3293 -0.2584
  792MOL0     O 6809   6.898   9.955  10.256 -1.4699 -0.2079 -0.7028
  792MOL0     C 6810   6.933   9.852  10.177 -0.1731  0.6356  0.5356
  792MOL0     C 6811   6.978   9.724  10.229 -1.3339 -0.3118  0.3341
  792MOL0     C 6812   7.011   9.614  10.151 -0.7584 -0.2156  0.2498
  792MOL0     C 6813   7.058   9.481  10.217 -0.2480 -0.6829 -0.0109
  792MOL0     C 6814   6.986   9.618  10.008  0.4568 -0.7340  0.4707
  792MOL0     C 6815   7.001   9.498   9.917 -0.9949  0.2041  0.1764
  792MOL0     O 6816   7.029   9.530   9.785  0.4910  0.2711 -0.6001
  792MOL0     C 6817   7.029   9.426   9.696 -0.3058  0.3366  0.4892
  792MOL0     C 6818   6.920   9.424   9.601  0.8460  0.8375  0.5198
  792MOL0     C 6819   6.920   9.330   9.505 -0.0517  0.2693 -0.8567
  792MOL0     C 6820   7.008   9.216   9.499  0.5407  0.4551  0.0087
  792MOL0     O 6821   7.006   9.124   9.397  0.6816  0.0001  0.6677
  792MOL0     C 6822   6.887   9.039   9.389 -0.0742 -0.2294 -0.5761
  792MOL0     C 6823   6.893   8.923   9.286  0.2241 -0.7016  0.1527
  792MOL0     C 6824   7.020   8.838   9.296 -0.5646 -0.5861 -1.0715
  792MOL0     C 6825   7.027   8.732   9.197 -0.2843 -0.2141 -0.1443
  792MOL0     C 6826   7.162   8.656   9.224 -0.0107 -0.0109  0.3070
  792MOL0     C 6827   7.154   8.522   9.143  1.0725  0.7591  0.3123
  792MOL0     C 6828   7.108   8.387   9.216  0.3705 -1.3929 -0.7382
  792MOL0     C 6829   7.057   8.273   9.135 -0.4544  0.6736  0.5487
  792MOL0    Cl 6830   7.161   8.227   9.001  0.6471  0.2064  0.3486
  792MOL0     C 6831   7.110   9.216   9.594  0.2056  0.4655 -0.0760
  792MOL0     C 6832   7.113   9.319   9.695  0.0740 -0.3885 -0.3841
  792MOL0     O 6833   6.996   9.385   9.967 -0.5087  0.0897 -0.0635
  792MOL0     C 6834   6.946   9.744   9.949 -0.0070 -0.7226  0.4062
  792MOL0     C 6835   6.911   9.856  10.045 -0.1196  0.1292  0.6895
  792MOL0     N 6836   6.491   9.900  10.471 -0.2235 -0.7326 -0.1836
  792MOL0     N 6837   6.489   9.785  10.523  0.9173 -0.3706  0.0513
  792MOL0     C 6838   6.240   9.867   9.878  1.2911  0.1519 -0.4467
  792MOL0     C 6839   6.147   9.966   9.915  0.6725  0.2456 -0.8232
  792MOL0     C 6840   5.849  10.203  10.164  0.4384  0.1693  0.5486
  792MOL0     C 6841   5.729  10.214  10.087  0.3473 -0.4513 -0.1457
  792MOL0     C 6842   5.642  10.322  10.104  0.2821 -0.2156 -0.5464
  792MOL0     C 6843   5.676  10.433  10.190  0.7605  0.2251 -0.0052
  792MOL0     O 6844   5.592  10.538  10.228 -0.0359 -0.0274 -0.0042
  792MOL0     C 6845   5.455  10.544  10.183  0.1167 -0.0084  0.6548
  792MOL0     C 6846   5.360  10.449  10.258  0.6281  0.0788 -0.3184
  792MOL0     C 6847   5.357  10.490  10.409  0.7115  0.4969 -0.2653
  792MOL0     C 6848   5.307  10.381  10.505 -0.4664 -1.1196  0.4906
  792MOL0     C 6849   5.162  10.410  10.534 -0.8013 -0.3051 -0.5082
  792MOL0     C 6850   5.043  10.423  10.538  0.4788 -0.4906 -0.1031
  792MOL0     C 6851   5.792  10.416  10.263 -0.3296  1.3073 -1.2090
  792MOL0     C 6852   5.878  10.311  10.246  0.0375 -0.1259 -0.4250
  792MOL0     H 6853   5.968   9.780  10.134  4.1715 -2.0563  4.1173
  792MOL0     H 6854   6.154   9.640  10.109  3.5102  0.1976  0.0806
  792MOL0     H 6855   6.286   9.481  10.031  1.1875 -0.3470 -1.0143
  792MOL0     H 6856   6.203   9.504   9.886  1.4949  3.4155 -4.4374
  792MOL0     H 6857   6.378   9.327   9.848  1.6821 -0.0732 -0.6743
  792MOL0     H 6858   6.431   9.480   9.768  0.6823  2.7412  0.8740
  792MOL0     H 6859   6.621   9.408   9.843  2.1974 -2.7557  2.4587
  792MOL0     H 6860   6.572   9.531   9.965  3.6270  0.5240 -0.3785
  792MOL0     H 6861   6.470   9.299  10.077 -0.6797  3.7161  1.2024
  792MOL0     H 6862   6.606   9.242   9.981 -2.5682  0.7509 -1.5457
  792MOL0     H 6863   6.673   9.291  10.229  4.5669 -0.4604 -1.5461
  792MOL0     H 6864   6.753   9.407  10.116 -0.7260  4.3290 -0.2210
  792MOL0     H 6865   6.672   9.533  10.308 -2.9251  1.5287  1.2584
  792MOL0     H 6866   6.585   9.578  10.173 -0.2113 -0.3296 -0.3517
  792MOL0     H 6867   6.384   9.473  10.247  0.6684 -2.2500  0.0509
  792MOL0     H 6868   6.467   9.359  10.335  3.0318  0.2944  0.6644
  792MOL0     H 6869   6.535   9.521  10.521 -0.2285 -2.8703 -0.8761
  792MOL0     H 6870   6.363   9.533  10.498 -0.4753  5.0272  1.7206
  792MOL0     H 6871   6.442   9.737  10.197  0.2422  0.3543 -0.3011
  792MOL0     H 6872   6.468   9.958  10.139  2.5408 -1.7747  0.4151
  792MOL0     H 6873   6.359  10.042  10.248 -0.1348 -1.7536  3.1711
  792MOL0     H 6874   6.548  10.142  10.359  2.0993  0.8668 -0.4037
  792MOL0     H 6875   6.522  10.206  10.200  0.2695  1.5843  1.6182
  792MOL0     H 6876   6.760  10.177  10.272 -0.2397  1.0074 -1.7919
  792MOL0     H 6877   6.732  10.078  10.119  0.5144 -0.4343 -0.6699
  792MOL0     H 6878   6.700   9.883  10.281  0.2816  0.1911  0.1895
  792MOL0     H 6879   6.764   9.982  10.407  1.3958  1.9116 -0.3820
  792MOL0     H 6880   6.989   9.700  10.334 -0.5223 -5.6179 -0.6816
  792MOL0     H 6881   7.144   9.445  10.160 -1.5450 -1.6996 -1.4121
  792MOL0     H 6882   7.085   9.500  10.321  1.4440 -3.1013  0.0870
  792MOL0     H 6883   6.977   9.408  10.216 -1.3626  0.5112  0.2964
  792MOL0     H 6884   6.849   9.506   9.601  1.9534  2.2949 -5.2308
  792MOL0     H 6885   6.842   9.343   9.431 -0.6240 -3.4977 -1.1053
  792MOL0     H 6886   6.855   9.002   9.487 -2.2299  1.1817 -0.6945
  792MOL0     H 6887   6.812   9.105   9.346 -2.0174 -2.5598 -0.9670
  792MOL0     H 6888   6.801   8.864   9.292  0.8972 -2.1636 -2.1380
  792MOL0     H 6889   6.894   8.954   9.181 -2.1927 -1.6296 -0.2274
  792MOL0     H 6890   7.022   8.795   9.396  2.0832  0.2889 -0.6605
  792MOL0     H 6891   7.098   8.913   9.276 -1.3322  1.0690  1.6364
  792MOL0     H 6892   6.939   8.670   9.220 -0.8588  0.9162  0.7795
  792MOL0     H 6893   7.031   8.773   9.096  2.0519  0.6094  0.2307
  792MOL0     H 6894   7.176   8.640   9.331 -0.4646 -0.8764  0.2442
  792MOL0     H 6895   7.248   8.721   9.205  1.4562 -2.0109 -0.1966
  792MOL0     H 6896   7.083   8.542   9.062  1.9584  1.5018 -0.3013
  792MOL0     H 6897   7.254   8.521   9.101  1.5941  4.6663  1.0634
  792MOL0     H 6898   7.041   8.428   9.292  0.9905 -1.1223 -0.3325
  792MOL0     H 6899   7.199   8.342   9.258  0.5839 -1.0811 -0.8587
  792MOL0     H 6900   6.958   8.308   9.101 -2.1771 -2.3952  1.9548
  792MOL0     H 6901   7.043   8.184   9.196  1.0864 -1.5599 -2.1055
  792MOL0     H 6902   7.188   9.142   9.581 -0.9101 -0.2919 -3.3470
  792MOL0     H 6903   7.175   9.309   9.783  0.3005  0.0338 -0.4956
  792MOL0     H 6904   6.930   9.754   9.842 -0.8473  0.5792  0.6214
  792MOL0     H 6905   6.872   9.946   9.998  0.6215  1.0031  1.6777
  792MOL0     H 6906   6.308   9.870   9.794  2.1273  0.8293  0.2325
  792MOL0     H 6907   6.152  10.066   9.872 -2.0921  1.5786  1.5341
  792MOL0     H 6908   5.712  10.144  10.006  1.6450 -1.6475  0.5683
  792MOL0     H 6909   5.546  10.305  10.056 -0.3307 -2.4557  1.2927
  792MOL0     H 6910   5.422  10.645  10.210  0.5074  0.0315  0.9894
  792MOL0     H 6911   5.444  10.517  10.078 -1.5718 -0.8885  1.0165
  792MOL0     H 6912   5.397  10.346  10.246  2.4668  0.8220 -1.5857
  792MOL0     H 6913   5.257  10.443  10.222 -0.3967  1.2348  2.2283
  792MOL0     H 6914   5.307  10.587  10.410 -1.2047 -0.3909 -2.5814
  792MOL0     H 6915   5.457  10.517  10.445  1.0526  0.7781 -1.4113
  792MOL0     H 6916   5.371  10.382  10.594  1.5767 -1.3634 -0.9017
  792MOL0     H 6917   5.317  10.279  10.465 -1.1516 -1.0119  0.0218
  792MOL0     H 6918   4.936  10.417  10.544  0.4591  0.5915  0.9055
  792MOL0     H 6919   5.823  10.497  10.329  0.1291  1.2767 -1.3802
  792MOL0     H 6920   5.977  10.323  10.290 -0.1594 -1.2446  0.3782
  793MOL0     O 6921  10.693   4.757   3.113  0.9769 -0.4304  0.1639
  793MOL0     C 6922  10.794   4.817   3.093  1.4883  0.0140 -0.2274
  793MOL0     O 6923  10.810   4.902   2.987 -0.3095 -0.0763  0.6839
  793MOL0     C 6924  10.725   4.931   2.884 -0.1853  0.7344 -1.0095
  793MOL0     C 6925  10.777   4.980   2.770 -0.0082  0.4619 -0.1993
  793MOL0     C 6926  10.699   5.019   2.663  0.1052  0.3537 -0.1714
  793MOL0     C 6927  10.562   4.997   2.667  0.0036 -0.3103 -0.1141
  793MOL0     O 6928  10.474   5.036   2.576 -0.2270 -0.0807  0.2841
  793MOL0     C 6929  10.497   5.160   2.505 -0.0503 -0.0238 -0.1843
  793MOL0     C 6930  10.569   5.139   2.373  0.4096  0.4256 -0.0519
  793MOL0     C 6931  10.476   5.082   2.274  1.1460 -1.3201 -1.0706
  793MOL0     C 6932  10.417   5.188   2.168  0.4620  0.4573 -0.3595
  793MOL0     C 6933  10.316   5.301   2.223 -1.2973  0.1413 -0.2030
  793MOL0     C 6934  10.225   5.351   2.119 -0.6225  0.3992 -0.2707
  793MOL0     C 6935  10.111   5.271   2.068  0.1790  0.1387  0.4782
  793MOL0     C 6936  10.053   5.336   1.944  0.4766  0.0543 -0.2211
  793MOL0     N 6937   9.909   5.332   1.956 -0.1525 -0.7465 -0.0738
  793MOL0     C 6938   9.816   5.231   1.944  0.8658 -0.7361 -0.9005
  793MOL0     C 6939   9.695   5.294   1.953 -0.3528 -0.0424  0.7309
  793MOL0     C 6940   9.562   5.221   1.935  0.5746 -1.7452 -0.2038
  793MOL0     C 6941   9.429   5.297   1.955 -0.7610 -0.1273  0.7995
  793MOL0     C 6942   9.317   5.247   1.862 -0.8216  0.3562 -0.2617
  793MOL0     C 6943   9.183   5.287   1.921  0.4919  1.0122 -0.3637
  793MOL0     O 6944   9.074   5.241   1.839  0.2070  0.9350 -0.0248
  793MOL0     C 6945   8.949   5.265   1.884 -1.1953 -1.0318  0.3880
  793MOL0     C 6946   8.910   5.305   2.008  0.4348  0.9468 -0.1612
  793MOL0     C 6947   8.778   5.313   2.037 -1.1706  0.2395 -0.0254
  793MOL0     C 6948   8.750   5.300   2.186  0.0687  0.5022 -0.1699
  793MOL0     C 6949   8.674   5.313   1.946  1.0237  0.5683  0.6620
  793MOL0     C 6950   8.531   5.348   1.957  0.1986  0.4142 -0.3911
  793MOL0     O 6951   8.491   5.405   2.078 -0.5972 -0.4881 -0.1141
  793MOL0     C 6952   8.364   5.434   2.091 -0.5717  0.0574 -0.1271
  793MOL0     C 6953   8.309   5.542   2.027  0.3968 -1.1530 -0.3987
  793MOL0     C 6954   8.169   5.564   2.042  0.4461  0.1782 -0.0549
  793MOL0     C 6955   8.087   5.469   2.107 -0.3061  0.2185  0.3220
  793MOL0     O 6956   7.954   5.501   2.131  0.8210 -0.0954 -0.7449
  793MOL0     C 6957   7.859   5.397   2.159  0.5175 -0.5802 -0.6651
  793MOL0     C 6958   7.729   5.469   2.184 -0.2010  0.7766  0.1427
  793MOL0     C 6959   7.726   5.578   2.290  0.4104 -0.2579  0.2761
  793MOL0     C 6960   7.591   5.591   2.365 -1.0288 -0.0232  0.2121
  793MOL0     C 6961   7.562   5.735   2.401  0.1254 -0.6552  0.2701
  793MOL0     C 6962   7.455   5.747   2.509 -0.2789 -0.5001 -0.2996
  793MOL0     C 6963   7.439   5.895   2.552  0.3314  0.7662  0.3870
  793MOL0     C 6964   7.316   5.923   2.629  0.1512  0.7600 -0.0949
  793MOL0    Cl 6965   7.172   5.935   2.536  0.0674 -0.0679  0.2025
  793MOL0     C 6966   8.147   5.360   2.178  0.0784 -0.3140  0.6792
  793MOL0     C 6967   8.285   5.349   2.168 -0.5732 -0.1441  0.2185
  793MOL0     O 6968   8.463   5.330   1.857 -0.7128 -0.2889  0.1060
  793MOL0     C 6969   8.725   5.298   1.814  0.0985 -0.3160  0.6524
  793MOL0     C 6970   8.856   5.270   1.784 -0.1201 -0.3172  0.8927
  793MOL0     N 6971   9.712   5.425   1.978  1.1223  0.6054 -0.1781
  793MOL0     N 6972   9.841   5.447   1.993  0.2820 -0.4473 -0.1295
  793MOL0     C 6973  10.508   4.929   2.780  0.6351  0.2337 -0.5510
  793MOL0     C 6974  10.591   4.906   2.891  0.4664  0.6872  0.1753
  793MOL0     C 6975  10.891   4.808   3.192  0.3401 -0.9175 -0.6085
  793MOL0     C 6976  11.030   4.843   3.156  0.5533 -0.0244  0.4957
  793MOL0     C 6977  11.123   4.837   3.259 -0.6262  0.3096 -0.2927
  793MOL0     C 6978  11.084   4.796   3.388 -0.5579 -0.5782 -0.5538
  793MOL0     O 6979  11.179   4.779   3.486 -0.2831 -0.0865 -0.2911
  793MOL0     C 6980  11.292   4.865   3.503  0.2426  0.1415  1.0414
  793MOL0     C 6981  11.310   4.913   3.645  0.4003 -0.4241  0.5973
  793MOL0     C 6982  11.191   4.979   3.722  0.0444 -0.4652 -0.3554
  793MOL0     C 6983  11.200   4.932   3.871 -0.2575  0.0340  0.1338
  793MOL0     C 6984  11.150   4.800   3.881 -0.0479  0.6917 -0.0580
  793MOL0     C 6985  11.145   4.680   3.908  0.1745 -0.3963 -0.2484
  793MOL0     C 6986  10.953   4.763   3.417 -0.2029 -0.9796  0.5952
  793MOL0     C 6987  10.863   4.756   3.319  0.2519  0.9046 -0.0994
  793MOL0     H 6988  10.886   4.983   2.764 -0.0575  0.2333 -1.4754
  793MOL0     H 6989  10.739   5.065   2.573 -1.6696 -1.1000 -1.7911
  793MOL0     H 6990  10.404   5.215   2.491  0.6234  1.8193  1.9674
  793MOL0     H 6991  10.553   5.226   2.573 -2.9615  2.9783 -0.4857
  793MOL0     H 6992  10.602   5.234   2.330 -0.5546  0.0609 -1.6725
  793MOL0     H 6993  10.657   5.074   2.381 -1.1346 -1.5046  3.2644
  793MOL0     H 6994  10.536   5.007   2.221  1.6933 -2.1577  0.6348
  793MOL0     H 6995  10.400   5.022   2.326  1.8326 -0.9422  0.4409
  793MOL0     H 6996  10.504   5.250   2.141 -0.0575  0.3253 -2.5710
  793MOL0     H 6997  10.386   5.131   2.080 -0.0518  1.0195 -0.5447
  793MOL0     H 6998  10.261   5.256   2.305  0.1744 -1.5863 -0.0848
  793MOL0     H 6999  10.365   5.389   2.266 -1.8198  0.1202  0.4365
  793MOL0     H 7000  10.185   5.446   2.155 -0.6414 -0.7718  3.1118
  793MOL0     H 7001  10.293   5.384   2.040 -0.1703 -2.1884 -1.0468
  793MOL0     H 7002  10.148   5.170   2.045 -1.2149 -0.1303 -0.7624
  793MOL0     H 7003  10.035   5.271   2.147  1.6379 -1.3477  1.9638
  793MOL0     H 7004  10.082   5.297   1.846 -0.9020 -1.0780 -0.2095
  793MOL0     H 7005  10.081   5.441   1.939  0.8904  0.0641  1.6461
  793MOL0     H 7006   9.835   5.124   1.930 -1.5185 -1.3283 -0.0142
  793MOL0     H 7007   9.567   5.175   1.836 -2.3196 -0.2619 -1.1372
  793MOL0     H 7008   9.563   5.139   2.008 -0.9055 -1.2511  0.3973
  793MOL0     H 7009   9.431   5.407   1.951 -0.7455 -0.0984 -3.5188
  793MOL0     H 7010   9.392   5.280   2.056 -1.9307 -0.2413  0.3679
  793MOL0     H 7011   9.312   5.138   1.856  0.5372  0.3583 -3.7499
  793MOL0     H 7012   9.330   5.279   1.758 -3.7137 -4.6816 -2.5657
  793MOL0     H 7013   9.187   5.396   1.920 -0.0133  1.2173  4.1125
  793MOL0     H 7014   9.178   5.235   2.017  1.4114  0.2200 -0.7255
  793MOL0     H 7015   8.993   5.308   2.078  0.8829 -1.5706 -0.4836
  793MOL0     H 7016   8.648   5.269   2.212  0.5261 -0.9656 -0.0500
  793MOL0     H 7017   8.801   5.217   2.235 -0.4604 -0.8569 -1.8004
  793MOL0     H 7018   8.766   5.398   2.231 -0.5447  1.1785 -1.3524
  793MOL0     H 7019   8.378   5.614   1.984  2.4902 -2.3829  0.7366
  793MOL0     H 7020   8.134   5.660   2.008  2.7103  1.2788  0.4989
  793MOL0     H 7021   7.857   5.344   2.064 -0.8254  0.6482 -1.3506
  793MOL0     H 7022   7.881   5.327   2.241 -3.2257  0.2124  1.2293
  793MOL0     H 7023   7.677   5.486   2.089 -2.6956 -0.8719  1.0937
  793MOL0     H 7024   7.659   5.395   2.223  0.4051  1.1627  2.0382
  793MOL0     H 7025   7.767   5.668   2.243  1.0330 -0.5244  0.3038
  793MOL0     H 7026   7.806   5.553   2.360  0.8743 -0.7898 -0.4253
  793MOL0     H 7027   7.509   5.563   2.299 -2.2827 -0.1549  1.7527
  793MOL0     H 7028   7.605   5.526   2.452  3.6483 -0.8326 -0.8587
  793MOL0     H 7029   7.527   5.790   2.312 -3.4548 -0.2438  1.7632
  793MOL0     H 7030   7.654   5.787   2.430  0.5641  0.0987 -2.1726
  793MOL0     H 7031   7.359   5.703   2.480  0.3396 -0.9966 -1.6850
  793MOL0     H 7032   7.493   5.690   2.595  2.8164  2.2395  0.3123
  793MOL0     H 7033   7.439   5.957   2.461 -1.4000  0.0383 -0.1518
  793MOL0     H 7034   7.515   5.932   2.622 -0.0585  0.2689  1.0842
  793MOL0     H 7035   7.329   6.016   2.686  0.7734  0.6781 -0.0941
  793MOL0     H 7036   7.302   5.845   2.703 -0.1913  1.0042  0.1025
  793MOL0     H 7037   8.092   5.286   2.236  1.6799 -0.4278  2.0992
  793MOL0     H 7038   8.329   5.261   2.214 -1.2827 -1.6878 -1.9148
  793MOL0     H 7039   8.653   5.284   1.733  2.1190 -1.0070 -1.0933
  793MOL0     H 7040   8.888   5.230   1.688  2.4320 -2.4105  2.4749
  793MOL0     H 7041  10.404   4.905   2.803  0.8597  1.4313  2.0161
  793MOL0     H 7042  10.542   4.872   2.982  0.6882 -0.4086 -0.1116
  793MOL0     H 7043  11.057   4.887   3.060 -3.7424  0.8132 -0.5499
  793MOL0     H 7044  11.224   4.876   3.255 -1.1286  2.1370  2.4725
  793MOL0     H 7045  11.383   4.805   3.487  0.2905 -0.0959  2.1491
  793MOL0     H 7046  11.299   4.951   3.437  3.5016 -1.0445 -0.3547
  793MOL0     H 7047  11.386   4.992   3.642  0.0380 -0.0831 -1.8441
  793MOL0     H 7048  11.337   4.825   3.704  0.0309 -1.7977 -1.1991
  793MOL0     H 7049  11.095   4.943   3.685 -0.5826 -2.5354  2.8373
  793MOL0     H 7050  11.200   5.088   3.717 -0.9694 -0.3942 -0.9146
  793MOL0     H 7051  11.141   4.993   3.940 -1.4332 -2.2718  1.2531
  793MOL0     H 7052  11.304   4.933   3.905 -1.0132  4.1754  3.2419
  793MOL0     H 7053  11.158   4.583   3.951  0.6236  0.1551  0.9264
  793MOL0     H 7054  10.929   4.737   3.520  1.7802  0.4427  1.4836
  793MOL0     H 7055  10.765   4.716   3.345 -0.1065  2.8355  1.8716
  794MOL0     O 7056   9.837   6.624   7.475 -0.6511  0.4110 -0.0191
  794MOL0     C 7057   9.888   6.649   7.364 -0.7235  0.5493 -0.0475
  794MOL0     O 7058   9.975   6.759   7.340 -0.4735 -0.2373 -0.0913
  794MOL0     C 7059   9.986   6.868   7.415  0.3483 -0.0442 -0.8901
  794MOL0     C 7060   9.914   6.909   7.533 -0.8063  0.2803  0.7462
  794MOL0     C 7061   9.943   7.029   7.594 -0.8718 -0.4180  0.1181
  794MOL0     C 7062  10.046   7.112   7.555 -0.4906  0.2699 -0.1255
  794MOL0     O 7063  10.082   7.217   7.640 -1.0501 -0.3905  0.7787
  794MOL0     C 7064  10.137   7.334   7.571  0.5068 -0.4251  0.6123
  794MOL0     C 7065  10.169   7.433   7.678  0.3010 -0.3404  1.0569
  794MOL0     C 7066  10.260   7.379   7.786  0.3850  0.9053 -0.5007
  794MOL0     C 7067  10.260   7.485   7.899 -0.7543 -0.2980 -0.5847
  794MOL0     C 7068  10.359   7.448   8.005  0.0796  1.8068  0.6841
  794MOL0     C 7069  10.341   7.540   8.119 -0.4352 -0.3281  0.1253
  794MOL0     C 7070  10.213   7.503   8.203 -0.3509  0.1855  0.1282
  794MOL0     C 7071  10.221   7.550   8.348 -0.0294 -0.2295  0.4487
  794MOL0     N 7072  10.321   7.473   8.428 -0.2140  0.1710 -0.2211
  794MOL0     C 7073  10.320   7.333   8.431 -0.3319  0.5846  0.7914
  794MOL0     C 7074  10.448   7.298   8.460  0.6436  0.5103 -0.2891
  794MOL0     C 7075  10.516   7.162   8.495  0.6319  0.2698 -0.3406
  794MOL0     C 7076  10.522   7.125   8.649  0.4145  0.2635  0.0142
  794MOL0     C 7077  10.385   7.125   8.724 -0.0534 -0.3848  0.3530
  794MOL0     C 7078  10.285   7.019   8.683 -0.1679  0.8586  0.6150
  794MOL0     O 7079  10.331   6.884   8.693  0.3845 -0.2035  0.1200
  794MOL0     C 7080  10.324   6.812   8.810  0.4301  0.4250 -0.6678
  794MOL0     C 7081  10.423   6.713   8.831  0.2780  0.8663 -0.4037
  794MOL0     C 7082  10.414   6.636   8.948 -0.1576 -0.3843  0.2227
  794MOL0     C 7083  10.505   6.519   8.954 -0.3633  0.2583  0.1169
  794MOL0     C 7084  10.315   6.653   9.041 -0.2258 -0.7241 -0.2024
  794MOL0     C 7085  10.312   6.579   9.167  1.9540  0.2118  0.5278
  794MOL0     O 7086  10.429   6.569   9.239  0.2583  0.8585  0.3139
  794MOL0     C 7087  10.432   6.488   9.356  0.1672  0.5341  0.4860
  794MOL0     C 7088  10.494   6.547   9.465  0.7118  0.1269  0.3883
  794MOL0     C 7089  10.510   6.488   9.588 -0.1197  1.1582  0.5713
  794MOL0     C 7090  10.454   6.355   9.601 -0.7973  0.1239 -1.1573
  794MOL0     O 7091  10.465   6.271   9.716 -0.3341  0.7722  0.1657
  794MOL0     C 7092  10.570   6.302   9.814  1.2372 -0.2099  0.6114
  794MOL0     C 7093  10.549   6.197   9.919 -0.3781  0.5272  0.2723
  794MOL0     C 7094  10.577   6.058   9.869 -0.3796  1.0176  0.3290
  794MOL0     C 7095  10.566   5.945   9.975  0.7434 -0.8571  0.0613
  794MOL0     C 7096  10.665   5.825   9.958  0.3853 -0.3475  0.6805
  794MOL0     C 7097  10.670   5.719   9.837 -0.2992 -0.0225  0.4097
  794MOL0     C 7098  10.543   5.626   9.832  0.5721  0.6062 -0.2873
  794MOL0     C 7099  10.538   5.560   9.695 -0.5492 -0.8265  0.2053
  794MOL0    Cl 7100  10.646   5.423   9.660 -0.2943  0.4928  0.4103
  794MOL0     C 7101  10.410   6.284   9.488  1.1265  0.0349 -0.4853
  794MOL0     C 7102  10.390   6.354   9.367  0.4448 -0.2671 -0.5287
  794MOL0     O 7103  10.200   6.546   9.207  0.8293  0.1737 -0.0585
  794MOL0     C 7104  10.228   6.758   9.018  0.8550 -0.3713 -0.3162
  794MOL0     C 7105  10.222   6.830   8.910 -0.1321 -1.0003  0.6608
  794MOL0     N 7106  10.516   7.420   8.486  0.8276  0.8378  0.0321
  794MOL0     N 7107  10.439   7.526   8.459  0.4603 -0.1021  0.0899
  794MOL0     C 7108  10.130   7.063   7.459  0.9742  0.0536 -0.4145
  794MOL0     C 7109  10.099   6.953   7.386  0.8321  0.0705 -0.4854
  794MOL0     C 7110   9.862   6.554   7.255 -0.0903  0.3957 -0.0404
  794MOL0     C 7111   9.817   6.422   7.282  0.6001  0.1288 -0.0490
  794MOL0     C 7112   9.795   6.329   7.185 -0.1778 -0.2499 -0.5218
  794MOL0     C 7113   9.817   6.365   7.048  0.1978 -0.8493  0.0532
  794MOL0     O 7114   9.798   6.258   6.955 -0.4371  0.2638 -0.3698
  794MOL0     C 7115   9.734   6.297   6.828 -0.3328 -0.0617 -0.7726
  794MOL0     C 7116   9.730   6.182   6.729  0.1749 -0.2634 -0.0175
  794MOL0     C 7117   9.640   6.070   6.767  0.2661 -0.2775  0.0311
  794MOL0     C 7118   9.629   5.949   6.666 -0.1903  0.5295 -0.1043
  794MOL0     C 7119   9.752   5.873   6.653  0.2446 -0.8144  1.2277
  794MOL0     C 7120   9.852   5.819   6.625  0.4298  0.3651  0.0245
  794MOL0     C 7121   9.868   6.496   7.020  0.7604 -0.0429  0.4947
  794MOL0     C 7122   9.885   6.593   7.116 -0.6548  0.8990 -0.7754
  794MOL0     H 7123   9.839   6.845   7.579  0.5271 -0.8812  1.3493
  794MOL0     H 7124   9.884   7.061   7.680 -3.2476 -3.0777 -0.3710
  794MOL0     H 7125  10.239   7.318   7.533  0.5364 -0.8333  0.8583
  794MOL0     H 7126  10.077   7.378   7.491  0.5373  0.9400  1.3148
  794MOL0     H 7127  10.201   7.523   7.623  1.0388  0.1405  2.2329
  794MOL0     H 7128  10.073   7.460   7.722 -0.8066 -2.8380  0.3703
  794MOL0     H 7129  10.229   7.283   7.827  0.9067  0.3198 -1.4262
  794MOL0     H 7130  10.359   7.368   7.740  0.1447  2.2290 -1.3936
  794MOL0     H 7131  10.281   7.583   7.856 -1.2953 -0.7804 -1.9981
  794MOL0     H 7132  10.162   7.482   7.947 -0.3006 -0.3332  0.3643
  794MOL0     H 7133  10.355   7.343   8.034  0.4977  1.4801 -0.3888
  794MOL0     H 7134  10.462   7.449   7.968 -0.1927  0.9314 -0.1457
  794MOL0     H 7135  10.430   7.530   8.182  1.5745 -2.0213 -2.7596
  794MOL0     H 7136  10.331   7.641   8.080  0.0877 -0.4667 -0.3765
  794MOL0     H 7137  10.125   7.551   8.160  1.7011  1.6993 -2.7470
  794MOL0     H 7138  10.204   7.394   8.206 -2.4790  0.1027 -3.4036
  794MOL0     H 7139  10.123   7.530   8.391 -1.0124  0.0272 -1.5460
  794MOL0     H 7140  10.252   7.655   8.355 -3.2059  0.7290  1.8808
  794MOL0     H 7141  10.221   7.288   8.421 -1.4313  2.8069  1.0255
  794MOL0     H 7142  10.463   7.082   8.443  0.1599 -0.0731  0.6454
  794MOL0     H 7143  10.614   7.149   8.450  1.9235  0.7325  2.1747
  794MOL0     H 7144  10.595   7.197   8.687  2.7456 -1.2070 -1.3741
  794MOL0     H 7145  10.572   7.029   8.661  2.1935  0.9988 -1.1498
  794MOL0     H 7146  10.330   7.220   8.722  0.0289 -0.3467 -0.9541
  794MOL0     H 7147  10.404   7.117   8.832  2.6746  0.7855  0.0474
  794MOL0     H 7148  10.261   7.033   8.577 -2.2178 -1.0082  0.7666
  794MOL0     H 7149  10.188   7.029   8.732 -0.2320 -0.4435  0.7862
  794MOL0     H 7150  10.494   6.687   8.754 -0.5239  5.2617 -2.9785
  794MOL0     H 7151  10.593   6.530   9.018 -1.0274  0.7719  0.9661
  794MOL0     H 7152  10.457   6.424   8.979  2.7583 -1.7562 -0.9379
  794MOL0     H 7153  10.535   6.487   8.854 -0.0642 -2.6751  1.0480
  794MOL0     H 7154  10.527   6.650   9.453 -1.8476  0.9929  0.0716
  794MOL0     H 7155  10.549   6.541   9.674  0.0408 -1.6444  2.3391
  794MOL0     H 7156  10.670   6.302   9.768 -0.4569 -2.7470 -3.5746
  794MOL0     H 7157  10.567   6.401   9.862  0.0385 -0.6875  1.5669
  794MOL0     H 7158  10.599   6.225  10.012  0.1506  1.1623 -0.1912
  794MOL0     H 7159  10.443   6.196   9.945 -1.1725  0.5597 -2.6343
  794MOL0     H 7160  10.679   6.048   9.829 -0.0913 -2.7542  1.6285
  794MOL0     H 7161  10.507   6.027   9.791 -2.2237  4.7332  0.2891
  794MOL0     H 7162  10.597   5.990  10.070  2.1202 -1.1547 -0.2206
  794MOL0     H 7163  10.461   5.918   9.990  0.5221  0.8033  1.9677
  794MOL0     H 7164  10.667   5.757  10.044 -0.2127  1.0608  1.8505
  794MOL0     H 7165  10.762   5.875   9.964 -0.5616  1.6870 -0.1447
  794MOL0     H 7166  10.674   5.772   9.741 -2.3961  0.2845  0.4305
  794MOL0     H 7167  10.749   5.646   9.853 -0.9076 -0.6764  0.5096
  794MOL0     H 7168  10.471   5.706   9.847 -0.4669 -0.5325  1.1174
  794MOL0     H 7169  10.535   5.552   9.912 -1.4688  3.1839  2.0679
  794MOL0     H 7170  10.554   5.637   9.619  1.4185 -1.7620 -0.4043
  794MOL0     H 7171  10.436   5.526   9.676 -0.6663  1.2913 -4.4228
  794MOL0     H 7172  10.380   6.181   9.501 -1.4153  1.0029  2.6993
  794MOL0     H 7173  10.353   6.294   9.285  3.5050 -3.7956  0.3647
  794MOL0     H 7174  10.161   6.781   9.100  2.3585  0.1701  0.7947
  794MOL0     H 7175  10.133   6.890   8.893 -1.0283 -2.5015 -0.1609
  794MOL0     H 7176  10.219   7.110   7.417  1.9895 -0.7908  0.7343
  794MOL0     H 7177  10.171   6.929   7.308  1.0540 -0.0340 -0.2500
  794MOL0     H 7178   9.796   6.396   7.385 -4.1102  0.9057 -0.5574
  794MOL0     H 7179   9.762   6.228   7.203  0.1619 -0.0816  1.1558
  794MOL0     H 7180   9.634   6.338   6.844 -0.3420 -0.0647 -0.8213
  794MOL0     H 7181   9.792   6.381   6.791 -1.6958  0.7402 -1.1842
  794MOL0     H 7182   9.833   6.155   6.707  0.0133 -0.6889 -0.2591
  794MOL0     H 7183   9.694   6.219   6.632  0.0035 -1.2032 -0.3187
  794MOL0     H 7184   9.539   6.111   6.777  0.3887  0.5032 -1.5760
  794MOL0     H 7185   9.658   6.018   6.861 -1.3399  0.0935  0.5657
  794MOL0     H 7186   9.594   5.974   6.565  0.1053 -0.5387 -0.4851
  794MOL0     H 7187   9.552   5.884   6.708  2.5491 -0.7849  3.3628
  794MOL0     H 7188   9.935   5.753   6.606  0.7492 -0.3139  3.1451
  794MOL0     H 7189   9.870   6.527   6.915  1.9463  0.0426  0.5230
  794MOL0     H 7190   9.920   6.691   7.085  2.8394  0.3299  0.8883
  795MOL0     O 7191   4.083   4.135   9.040  1.2257 -0.4207 -0.6938
  795MOL0     C 7192   4.008   4.119   8.947 -1.0866  0.5498  0.1987
  795MOL0     O 7193   4.043   4.052   8.830 -0.3082 -0.2743 -0.7250
  795MOL0     C 7194   4.167   4.004   8.815  0.4940 -0.3456  0.1120
  795MOL0     C 7195   4.185   3.872   8.820 -1.2941  0.2110 -1.0797
  795MOL0     C 7196   4.323   3.822   8.801 -0.4719  0.3545  0.5807
  795MOL0     C 7197   4.430   3.912   8.784 -0.8870 -0.0060  0.8732
  795MOL0     O 7198   4.561   3.866   8.781  0.4043 -0.9109  0.6731
  795MOL0     C 7199   4.596   3.767   8.887  0.2053 -0.3809  0.1108
  795MOL0     C 7200   4.731   3.714   8.849 -0.1624  0.1108 -0.2122
  795MOL0     C 7201   4.836   3.816   8.801  0.3329 -0.5396  0.5891
  795MOL0     C 7202   4.981   3.771   8.802  1.0762 -0.1145 -0.8224
  795MOL0     C 7203   5.076   3.879   8.778 -0.5751 -0.4086  0.6153
  795MOL0     C 7204   5.223   3.847   8.811  0.1974  0.0870 -0.2407
  795MOL0     C 7205   5.321   3.959   8.758  0.4139 -0.4179  0.9878
  795MOL0     C 7206   5.326   3.976   8.605 -0.4091 -0.5456 -0.1678
  795MOL0     N 7207   5.417   4.096   8.573 -0.4719  0.3451 -0.3560
  795MOL0     C 7208   5.560   4.093   8.582  0.7388  0.7726  0.5700
  795MOL0     C 7209   5.588   4.223   8.563 -0.8581 -0.2435  0.1270
  795MOL0     C 7210   5.725   4.283   8.579 -0.0624  0.9872 -0.1090
  795MOL0     C 7211   5.825   4.251   8.468 -0.4847 -1.1880 -0.7840
  795MOL0     C 7212   5.894   4.374   8.410  0.0080  0.6835  0.0882
  795MOL0     C 7213   6.036   4.338   8.365 -0.1551  0.0021  0.2909
  795MOL0     O 7214   6.101   4.458   8.333 -0.0297 -0.1156 -0.0539
  795MOL0     C 7215   6.120   4.488   8.201 -0.0172  0.8658  0.0439
  795MOL0     C 7216   6.046   4.440   8.092  0.5420  1.3926  0.1265
  795MOL0     C 7217   6.066   4.468   7.958 -0.6826 -0.4685  0.7578
  795MOL0     C 7218   5.972   4.412   7.853  0.3943  0.1050  0.4440
  795MOL0     C 7219   6.176   4.545   7.927 -0.5821 -0.1180  0.4041
  795MOL0     C 7220   6.217   4.580   7.789 -0.9927  0.3887 -0.9346
  795MOL0     O 7221   6.283   4.691   7.778 -0.5170 -0.4095 -0.6938
  795MOL0     C 7222   6.344   4.709   7.659 -0.2971  0.2557 -0.0036
  795MOL0     C 7223   6.295   4.801   7.569  0.1297  0.6264 -0.0274
  795MOL0     C 7224   6.360   4.829   7.451 -0.3678  0.5513 -0.4074
  795MOL0     C 7225   6.475   4.755   7.413 -0.5275 -0.4491 -0.4954
  795MOL0     O 7226   6.523   4.784   7.287  0.4991  0.2851 -0.3396
  795MOL0     C 7227   6.631   4.713   7.231 -0.0268 -0.3157 -0.4320
  795MOL0     C 7228   6.642   4.751   7.076 -0.3013 -0.4751 -0.8744
  795MOL0     C 7229   6.740   4.657   7.011  0.5713 -0.3586  1.1129
  795MOL0     C 7230   6.727   4.702   6.865  0.2862  0.7686 -1.0813
  795MOL0     C 7231   6.787   4.598   6.770  0.0994  0.9171  0.2060
  795MOL0     C 7232   6.931   4.541   6.803 -0.4532 -0.4333  0.7472
  795MOL0     C 7233   7.030   4.661   6.778  0.1866  0.6780 -0.1005
  795MOL0     C 7234   7.175   4.602   6.804  0.3206  0.3519  0.1787
  795MOL0    Cl 7235   7.226   4.493   6.671 -0.1618  0.0141  0.1373
  795MOL0     C 7236   6.527   4.669   7.508 -0.7898  0.0528  0.2692
  795MOL0     C 7237   6.469   4.639   7.633  0.5205 -0.6429 -0.4723
  795MOL0     O 7238   6.184   4.503   7.694  0.4998 -1.0816 -0.3164
  795MOL0     C 7239   6.245   4.602   8.028  1.1072 -0.0161  0.3355
  795MOL0     C 7240   6.221   4.574   8.166  0.2387 -0.5894 -0.6156
  795MOL0     N 7241   5.475   4.299   8.541  0.4609 -0.6957  0.4483
  795MOL0     N 7242   5.375   4.223   8.557 -0.6596 -0.2477  0.1185
  795MOL0     C 7243   4.402   4.049   8.773  0.2248 -0.0800  0.9352
  795MOL0     C 7244   4.272   4.098   8.786  0.3937  0.0172  0.3504
  795MOL0     C 7245   3.877   4.189   8.959 -1.6312 -0.9050  0.2781
  795MOL0     C 7246   3.756   4.136   8.928  0.4041 -0.2349  1.1755
  795MOL0     C 7247   3.643   4.219   8.923 -0.4775 -1.1202  0.7458
  795MOL0     C 7248   3.654   4.363   8.954  0.1391 -0.4234  0.9988
  795MOL0     O 7249   3.559   4.450   8.926 -0.2808 -1.5264 -0.1610
  795MOL0     C 7250   3.436   4.408   8.850 -0.2314  0.5579  0.1850
  795MOL0     C 7251   3.330   4.517   8.857 -0.1770  0.4990 -1.2718
  795MOL0     C 7252   3.269   4.526   8.997  0.1058  0.2979 -1.0863
  795MOL0     C 7253   3.140   4.609   9.027 -0.7040  0.7720 -0.4675
  795MOL0     C 7254   3.017   4.554   8.965 -0.2376  0.3020  0.0927
  795MOL0     C 7255   2.901   4.519   8.926  0.5706  0.0046  0.6428
  795MOL0     C 7256   3.781   4.406   8.994 -0.9454  0.2969 -0.3236
  795MOL0     C 7257   3.891   4.325   8.992 -0.1546  0.0370  0.5522
  795MOL0     H 7258   4.103   3.801   8.832 -1.2431  0.3674  0.3237
  795MOL0     H 7259   4.353   3.720   8.782 -0.4142  0.5153 -0.2371
  795MOL0     H 7260   4.623   3.811   8.984 -0.1716 -4.5647  2.3337
  795MOL0     H 7261   4.520   3.691   8.907  1.2000 -2.0554 -2.0086
  795MOL0     H 7262   4.780   3.662   8.932  2.4647 -0.8630 -2.2446
  795MOL0     H 7263   4.708   3.645   8.767 -1.2111  0.9851 -0.6778
  795MOL0     H 7264   4.805   3.838   8.698  0.7135 -0.1715  0.5504
  795MOL0     H 7265   4.828   3.905   8.864  0.1536  1.5110 -2.1502
  795MOL0     H 7266   5.005   3.735   8.903  1.5708  0.6719 -0.6498
  795MOL0     H 7267   4.991   3.690   8.730 -0.9174 -0.4778 -0.7444
  795MOL0     H 7268   5.057   3.914   8.676 -0.5761  0.5193  0.9173
  795MOL0     H 7269   5.049   3.968   8.835 -0.4676 -0.9886  1.5862
  795MOL0     H 7270   5.222   3.855   8.920  1.0104  0.5702 -0.2548
  795MOL0     H 7271   5.249   3.748   8.773 -2.0804  0.1278 -2.0977
  795MOL0     H 7272   5.298   4.059   8.795 -0.0225  0.1340 -0.6909
  795MOL0     H 7273   5.418   3.938   8.804  1.0286 -4.1712 -1.6026
  795MOL0     H 7274   5.226   3.989   8.563 -2.1243 -5.7926  1.4351
  795MOL0     H 7275   5.372   3.889   8.558  2.8728  0.4090  1.0188
  795MOL0     H 7276   5.637   4.018   8.599 -0.0980  0.1292  1.6982
  795MOL0     H 7277   5.699   4.390   8.581 -2.2030  0.5218  2.7587
  795MOL0     H 7278   5.774   4.272   8.677  0.2860  1.1737 -0.2602
  795MOL0     H 7279   5.776   4.204   8.383 -2.6893  0.6850 -0.6400
  795MOL0     H 7280   5.887   4.178   8.520 -0.6016 -0.2286  0.7698
  795MOL0     H 7281   5.916   4.456   8.479  0.8507  2.7371 -2.4732
  795MOL0     H 7282   5.834   4.423   8.333 -0.7795 -0.1043  0.1874
  795MOL0     H 7283   6.029   4.262   8.286  1.0803 -0.3384  0.4899
  795MOL0     H 7284   6.089   4.283   8.443  0.1389  3.6646  2.9449
  795MOL0     H 7285   5.970   4.364   8.114 -0.4875  0.9759 -4.1209
  795MOL0     H 7286   5.953   4.483   7.773 -1.3539 -2.5759 -1.7127
  795MOL0     H 7287   6.022   4.329   7.802 -0.3191 -0.0253 -0.0528
  795MOL0     H 7288   5.880   4.377   7.901 -0.5852 -1.6637 -2.4810
  795MOL0     H 7289   6.222   4.873   7.605 -0.8118  0.4371 -1.4579
  795MOL0     H 7290   6.319   4.896   7.376  0.2852 -1.2740 -2.5113
  795MOL0     H 7291   6.725   4.739   7.282 -0.3928 -0.9437  0.6002
  795MOL0     H 7292   6.615   4.606   7.249 -0.7721 -0.2800 -0.8588
  795MOL0     H 7293   6.541   4.742   7.033  0.6904 -2.2160 -3.0452
  795MOL0     H 7294   6.676   4.855   7.072  3.8931 -1.7003 -1.3765
  795MOL0     H 7295   6.708   4.555   7.033  1.6796 -1.1242 -0.6240
  795MOL0     H 7296   6.840   4.666   7.054  1.9718  0.3652 -2.0391
  795MOL0     H 7297   6.624   4.730   6.845 -0.3078  0.4641  1.3565
  795MOL0     H 7298   6.785   4.794   6.853  0.7647  0.4379 -1.3342
  795MOL0     H 7299   6.780   4.626   6.665 -1.0345  1.0560  0.2991
  795MOL0     H 7300   6.735   4.502   6.780  0.9155  0.6352  2.3879
  795MOL0     H 7301   6.928   4.501   6.905 -1.1973 -3.7454 -0.4664
  795MOL0     H 7302   6.949   4.460   6.732  1.2926  1.5146 -1.1782
  795MOL0     H 7303   7.011   4.751   6.838  0.7163  1.2231 -0.7371
  795MOL0     H 7304   7.020   4.689   6.673 -1.3799 -1.9418 -0.7579
  795MOL0     H 7305   7.182   4.565   6.906  0.0050  0.9192  0.4122
  795MOL0     H 7306   7.245   4.686   6.813  3.0583 -1.9936  2.5312
  795MOL0     H 7307   6.619   4.615   7.487  0.0597  1.1379  1.1173
  795MOL0     H 7308   6.505   4.589   7.722  0.7226  0.4293  0.0698
  795MOL0     H 7309   6.332   4.664   8.008 -0.0498  2.0751  1.4038
  795MOL0     H 7310   6.282   4.628   8.238 -2.3525 -0.5497  1.7042
  795MOL0     H 7311   4.484   4.120   8.766 -0.6509  0.7625 -2.2975
  795MOL0     H 7312   4.263   4.205   8.772  2.4768  0.0736 -1.1000
  795MOL0     H 7313   3.755   4.028   8.912 -3.2696 -0.2798  0.7897
  795MOL0     H 7314   3.544   4.175   8.921 -0.4855 -1.1206  1.0731
  795MOL0     H 7315   3.465   4.382   8.748 -0.2141 -2.4396  0.8449
  795MOL0     H 7316   3.390   4.317   8.892 -0.6649  0.1623 -1.1127
  795MOL0     H 7317   3.253   4.495   8.782 -0.4239  1.1735 -1.2227
  795MOL0     H 7318   3.375   4.612   8.829 -0.7797  1.1279 -0.1836
  795MOL0     H 7319   3.348   4.569   9.059 -0.9297  2.0086 -0.9037
  795MOL0     H 7320   3.248   4.425   9.034  1.1427  1.2051  2.2338
  795MOL0     H 7321   3.170   4.706   8.988 -0.8904  0.8602 -0.3893
  795MOL0     H 7322   3.122   4.639   9.130 -1.1342  4.6330 -1.5109
  795MOL0     H 7323   2.804   4.484   8.896  0.4087  0.6920  0.3337
  795MOL0     H 7324   3.802   4.511   9.009  2.5983 -0.2709 -0.3840
  795MOL0     H 7325   3.988   4.367   9.017 -0.0493 -1.2309  2.4238
  796MOL0     O 7326   5.584   5.090   2.750  0.2981 -0.2111 -0.5171
  796MOL0     C 7327   5.661   4.998   2.779  0.3387 -0.2355 -0.3259
  796MOL0     O 7328   5.805   5.007   2.768  0.0463 -0.1417 -1.3839
  796MOL0     C 7329   5.863   5.127   2.734 -0.1884  0.2236 -0.1515
  796MOL0     C 7330   5.949   5.188   2.827  0.4810  0.6688  0.3897
  796MOL0     C 7331   6.003   5.312   2.802 -0.0592  0.1535  0.7154
  796MOL0     C 7332   5.968   5.371   2.668 -0.8179 -0.0111 -0.8757
  796MOL0     O 7333   6.025   5.491   2.628 -0.0160  0.1434  0.8367
  796MOL0     C 7334   6.165   5.502   2.655 -0.0342 -1.0041  0.4728
  796MOL0     C 7335   6.191   5.648   2.599 -0.3940  0.0509  0.3489
  796MOL0     C 7336   6.192   5.657   2.441 -0.0616  0.6536  0.7142
  796MOL0     C 7337   6.153   5.792   2.401 -0.2264 -0.9350 -0.3130
  796MOL0     C 7338   6.144   5.838   2.249 -0.0596 -0.2403  0.0920
  796MOL0     C 7339   5.995   5.822   2.197  0.2001 -0.3654 -0.6174
  796MOL0     C 7340   5.969   5.683   2.145  0.4363 -0.0313 -0.4877
  796MOL0     C 7341   5.855   5.697   2.052  0.4098  0.1489  1.0549
  796MOL0     N 7342   5.790   5.571   2.028  0.3559 -1.0228 -0.6461
  796MOL0     C 7343   5.752   5.469   2.119  0.1061  0.2972  0.8545
  796MOL0     C 7344   5.677   5.382   2.053 -0.9509 -0.5728 -0.3548
  796MOL0     C 7345   5.646   5.255   2.111 -0.2310 -0.9811 -0.4292
  796MOL0     C 7346   5.511   5.253   2.190  0.3617 -0.4989 -0.1725
  796MOL0     C 7347   5.501   5.366   2.297 -1.0185  0.7362 -0.2753
  796MOL0     C 7348   5.399   5.335   2.412 -0.5480 -0.0730 -1.2306
  796MOL0     O 7349   5.394   5.452   2.497 -0.0560 -0.0840 -0.3117
  796MOL0     C 7350   5.310   5.449   2.611  0.2047 -0.0165  0.0110
  796MOL0     C 7351   5.286   5.574   2.659  0.1415 -0.0407 -0.7453
  796MOL0     C 7352   5.216   5.589   2.779 -0.3716 -0.6092 -0.1205
  796MOL0     C 7353   5.190   5.734   2.835  0.9206 -0.3593  0.1370
  796MOL0     C 7354   5.162   5.476   2.844 -0.9150  0.2039  0.0498
  796MOL0     C 7355   5.086   5.479   2.970  0.8183  0.4795  0.2420
  796MOL0     O 7356   5.026   5.357   3.010 -0.6620  0.4438 -0.0580
  796MOL0     C 7357   4.959   5.357   3.129  0.3467  0.7172 -0.2279
  796MOL0     C 7358   5.024   5.395   3.240  0.5652  0.0025  0.3465
  796MOL0     C 7359   4.952   5.390   3.356  0.1036 -0.5480 -0.0997
  796MOL0     C 7360   4.825   5.329   3.371 -0.1235 -0.7791  0.1582
  796MOL0     O 7361   4.760   5.315   3.488  0.2773 -0.3309 -0.5274
  796MOL0     C 7362   4.723   5.442   3.547  0.3607  0.4512  1.0445
  796MOL0     C 7363   4.619   5.539   3.487 -0.2274 -0.6441 -0.6114
  796MOL0     C 7364   4.477   5.490   3.497 -0.2633  0.0601  0.6576
  796MOL0     C 7365   4.445   5.369   3.412  0.2278  0.4553  0.4188
  796MOL0     C 7366   4.284   5.375   3.392 -0.2280  0.0851 -0.1131
  796MOL0     C 7367   4.225   5.259   3.310  0.0015 -0.8325  0.1544
  796MOL0     C 7368   4.278   5.272   3.165 -0.0672  0.4882  0.2779
  796MOL0     C 7369   4.195   5.385   3.095  0.9864  0.7504 -0.3348
  796MOL0    Cl 7370   4.215   5.365   2.923  0.2132 -0.0533 -0.4865
  796MOL0     C 7371   4.760   5.299   3.248 -0.0026  0.0557 -0.3330
  796MOL0     C 7372   4.829   5.317   3.123  1.1074  1.0312  0.3186
  796MOL0     O 7373   5.081   5.586   3.039  0.5651  0.2193  0.8476
  796MOL0     C 7374   5.186   5.345   2.789  0.2029 -0.0382  0.1271
  796MOL0     C 7375   5.265   5.332   2.671  0.5264  0.0539  0.3579
  796MOL0     N 7376   5.670   5.421   1.930 -0.1799 -0.5803  0.5306
  796MOL0     N 7377   5.731   5.537   1.907 -0.3246  0.7739 -0.0225
  796MOL0     C 7378   5.883   5.307   2.581 -0.4212 -0.2877  0.4922
  796MOL0     C 7379   5.828   5.186   2.612  0.6288  0.1881 -0.0068
  796MOL0     C 7380   5.602   4.872   2.789 -0.3216  0.5761 -0.0037
  796MOL0     C 7381   5.691   4.761   2.788  0.3407  0.2387  0.4495
  796MOL0     C 7382   5.633   4.632   2.798 -0.2016 -0.9046 -0.3382
  796MOL0     C 7383   5.495   4.612   2.812 -0.3326  0.5198  0.4662
  796MOL0     O 7384   5.465   4.475   2.801 -0.7750  0.3624 -0.1615
  796MOL0     C 7385   5.345   4.425   2.865  0.0061 -0.5336  0.2771
  796MOL0     C 7386   5.372   4.397   3.017  0.0166  0.4268  0.2625
  796MOL0     C 7387   5.272   4.290   3.074 -0.1973  0.1912 -0.1723
  796MOL0     C 7388   5.339   4.200   3.181 -0.1371 -0.6276 -0.3028
  796MOL0     C 7389   5.377   4.275   3.297  0.7496  0.7204  0.2563
  796MOL0     C 7390   5.432   4.320   3.396 -1.2611  0.5753 -0.6368
  796MOL0     C 7391   5.410   4.723   2.808  0.6018  0.0236 -1.0425
  796MOL0     C 7392   5.465   4.851   2.792  1.5364  0.2363  1.2167
  796MOL0     H 7393   5.956   5.140   2.923  0.1499  0.1856  0.1726
  796MOL0     H 7394   6.057   5.371   2.876  0.5688  2.8046 -1.6985
  796MOL0     H 7395   6.177   5.510   2.763 -0.1850  0.1349  0.4201
  796MOL0     H 7396   6.224   5.422   2.611  2.0603 -0.4549  2.1086
  796MOL0     H 7397   6.115   5.714   2.640  0.9768  0.7911  1.7996
  796MOL0     H 7398   6.291   5.678   2.632 -0.1847  2.0568 -1.7971
  796MOL0     H 7399   6.294   5.639   2.404 -1.2873 -0.2064 -2.5868
  796MOL0     H 7400   6.134   5.581   2.389 -1.6060  2.1752  0.1257
  796MOL0     H 7401   6.055   5.803   2.447 -0.3104 -1.1837 -0.4304
  796MOL0     H 7402   6.221   5.871   2.433 -1.0244 -0.3097 -0.1356
  796MOL0     H 7403   6.150   5.947   2.247 -2.6784 -0.0438  0.5857
  796MOL0     H 7404   6.215   5.792   2.179 -1.8973 -0.6983 -1.5408
  796MOL0     H 7405   5.924   5.837   2.279 -0.6972 -5.7114 -0.0252
  796MOL0     H 7406   5.982   5.898   2.120  1.0915 -0.1115 -0.5405
  796MOL0     H 7407   6.059   5.641   2.098 -0.8294 -1.1824 -1.9801
  796MOL0     H 7408   5.941   5.626   2.234 -0.5147 -0.3011 -0.9445
  796MOL0     H 7409   5.874   5.757   1.963 -1.2024 -0.7859  0.0331
  796MOL0     H 7410   5.779   5.746   2.114 -0.7710 -1.7633  1.1822
  796MOL0     H 7411   5.777   5.460   2.224  1.4737  0.0800  0.5229
  796MOL0     H 7412   5.648   5.171   2.041 -1.7177 -2.1456  0.8350
  796MOL0     H 7413   5.731   5.243   2.177  0.5550 -0.3580 -1.3051
  796MOL0     H 7414   5.512   5.150   2.227 -1.8919 -1.8196 -3.3248
  796MOL0     H 7415   5.424   5.262   2.124  0.0171  0.7139  0.4094
  796MOL0     H 7416   5.483   5.461   2.245 -0.0665  0.6636 -0.7537
  796MOL0     H 7417   5.591   5.373   2.359 -2.0750  0.3427  1.3798
  796MOL0     H 7418   5.430   5.248   2.471  3.0125  2.1172  0.4572
  796MOL0     H 7419   5.294   5.322   2.381 -0.7284 -0.1225 -0.6142
  796MOL0     H 7420   5.322   5.668   2.621 -0.6300  0.5526 -0.0584
  796MOL0     H 7421   5.255   5.759   2.919 -0.0717 -0.7993  1.0627
  796MOL0     H 7422   5.199   5.811   2.758  0.9694 -1.3923 -0.9189
  796MOL0     H 7423   5.087   5.750   2.869  1.1356 -2.9868  2.3199
  796MOL0     H 7424   5.119   5.447   3.235 -0.7290  2.3451 -1.9297
  796MOL0     H 7425   4.993   5.432   3.447 -0.7237  0.2315 -0.0719
  796MOL0     H 7426   4.673   5.411   3.639 -2.0017  1.3630  0.1306
  796MOL0     H 7427   4.817   5.492   3.574 -0.4822  1.2224  2.6636
  796MOL0     H 7428   4.614   5.629   3.550 -3.3932 -0.6580 -0.6920
  796MOL0     H 7429   4.653   5.576   3.390 -0.5843 -0.0218 -0.5090
  796MOL0     H 7430   4.413   5.573   3.465  0.0597  0.0995  0.1115
  796MOL0     H 7431   4.448   5.469   3.600 -3.8739 -0.9774 -0.4049
  796MOL0     H 7432   4.487   5.377   3.312  1.0976 -1.9412  0.5193
  796MOL0     H 7433   4.499   5.280   3.447  1.9262  0.1038 -2.7357
  796MOL0     H 7434   4.271   5.468   3.335  0.7642  1.9470  2.4822
  796MOL0     H 7435   4.242   5.376   3.492  3.2997 -1.7519  1.5568
  796MOL0     H 7436   4.236   5.160   3.355 -1.6358 -2.6178 -3.0115
  796MOL0     H 7437   4.117   5.274   3.306  0.4664  3.9023 -0.4385
  796MOL0     H 7438   4.258   5.179   3.110  1.5240  1.2058 -1.6160
  796MOL0     H 7439   4.385   5.291   3.161  0.2413 -0.9221  0.8601
  796MOL0     H 7440   4.232   5.484   3.124  1.5803  0.4411  0.0057
  796MOL0     H 7441   4.086   5.378   3.103  0.9261 -2.3560 -2.2813
  796MOL0     H 7442   4.656   5.268   3.257 -0.2626  1.1130  0.5402
  796MOL0     H 7443   4.790   5.293   3.024  1.9858 -0.6982  0.3508
  796MOL0     H 7444   5.145   5.256   2.836  1.2035  0.3836  1.8529
  796MOL0     H 7445   5.286   5.232   2.634 -2.6206 -0.6356  0.1349
  796MOL0     H 7446   5.859   5.360   2.489 -0.0895 -3.0581 -1.2794
  796MOL0     H 7447   5.746   5.148   2.552  0.3045  0.8234  0.0302
  796MOL0     H 7448   5.798   4.765   2.777  0.4922 -1.6851  0.8863
  796MOL0     H 7449   5.694   4.544   2.779 -0.4958 -1.1755 -0.0354
  796MOL0     H 7450   5.256   4.487   2.846 -0.6360 -1.3593  0.5446
  796MOL0     H 7451   5.340   4.333   2.807 -1.8931 -1.1623  1.3361
  796MOL0     H 7452   5.361   4.487   3.077 -3.3095  0.5500 -0.3303
  796MOL0     H 7453   5.474   4.363   3.033 -0.5626 -1.9069 -0.5495
  796MOL0     H 7454   5.213   4.226   3.008 -1.2505  0.9139  0.0401
  796MOL0     H 7455   5.203   4.357   3.126  2.2826  1.6861  1.3889
  796MOL0     H 7456   5.425   4.149   3.135  0.7893 -0.2359  0.9304
  796MOL0     H 7457   5.277   4.129   3.235  1.7751 -1.3213  1.1192
  796MOL0     H 7458   5.498   4.349   3.475 -2.8312 -1.5088  1.6116
  796MOL0     H 7459   5.303   4.706   2.800  0.3697  1.1952 -0.7005
  796MOL0     H 7460   5.404   4.941   2.784  0.0997 -0.7467  0.6387
  797MOL0     O 7461   9.931   1.705   4.483 -0.7453  1.4854  0.5395
  797MOL0     C 7462  10.024   1.741   4.557  0.0572 -0.1443  0.2808
  797MOL0     O 7463  10.133   1.667   4.584  0.3739 -0.1292  0.6389
  797MOL0     C 7464  10.146   1.534   4.531  0.6238  0.9823  0.7905
  797MOL0     C 7465  10.169   1.438   4.625  0.4405 -0.2548  0.3491
  797MOL0     C 7466  10.196   1.306   4.588  0.2222  0.2922 -0.0714
  797MOL0     C 7467  10.188   1.268   4.450 -0.0863  0.5046  0.1368
  797MOL0     O 7468  10.203   1.144   4.406 -0.8735  0.0565  0.3280
  797MOL0     C 7469  10.076   1.073   4.366 -0.3809  0.9537 -0.2244
  797MOL0     C 7470  10.114   0.948   4.278  0.3370  0.5981 -1.4521
  797MOL0     C 7471  10.166   0.984   4.141 -0.5932  0.2240 -0.4452
  797MOL0     C 7472  10.243   0.865   4.072  0.3785  0.2312  0.0766
  797MOL0     C 7473  10.268   0.888   3.926  0.1019  0.5325 -0.2903
  797MOL0     C 7474  10.252   0.755   3.841  0.1264 -0.1837  0.0218
  797MOL0     C 7475  10.379   0.675   3.836 -0.6377  0.5593 -1.0364
  797MOL0     C 7476  10.365   0.546   3.751 -0.1621  0.3795  0.0050
  797MOL0     N 7477  10.461   0.543   3.648  0.4599  0.2767  0.1420
  797MOL0     C 7478  10.428   0.543   3.515  0.8274 -0.0556 -0.2123
  797MOL0     C 7479  10.547   0.524   3.455  0.9127  1.2997  0.2021
  797MOL0     C 7480  10.574   0.504   3.309  0.9873  0.4825  0.5073
  797MOL0     C 7481  10.462   0.413   3.241 -1.6971 -0.5238  0.2866
  797MOL0     C 7482  10.442   0.274   3.291  0.3546 -0.5043  1.0034
  797MOL0     C 7483  10.435   0.169   3.182 -0.9248  0.2917 -0.5542
  797MOL0     O 7484  10.552   0.156   3.102  0.0400  0.2084  0.1628
  797MOL0     C 7485  10.536   0.088   2.982  0.3172 -0.9835  0.4771
  797MOL0     C 7486  10.605   0.146   2.869  0.1528 -0.0536  0.7602
  797MOL0     C 7487  10.596   0.085   2.741  0.5142 -0.0103 -0.5934
  797MOL0     C 7488  10.657   0.157   2.625 -0.5985 -0.0536 -0.0547
  797MOL0     C 7489  10.518  -0.036   2.724 -0.1742  0.4792 -1.0684
  797MOL0     C 7490  10.503  -0.097   2.587  0.5467  0.4960  0.6755
  797MOL0     O 7491  10.501  -0.232   2.585 -0.7879  0.1898 -0.5337
  797MOL0     C 7492  10.479  -0.308   2.470 -0.6012 -0.2907 -0.3414
  797MOL0     C 7493  10.530  -0.438   2.471  0.4446  0.7864 -0.1048
  797MOL0     C 7494  10.504  -0.522   2.359  0.0808 -0.4216 -0.7669
  797MOL0     C 7495  10.444  -0.471   2.244  0.3084 -0.0365  0.6251
  797MOL0     O 7496  10.426  -0.559   2.137 -0.4468 -0.6246  0.4503
  797MOL0     C 7497  10.477  -0.510   2.014  0.6933 -0.3938 -0.1072
  797MOL0     C 7498  10.504  -0.615   1.915  0.7457  0.0348 -0.1211
  797MOL0     C 7499  10.374  -0.692   1.871 -0.8694 -0.3726  0.4865
  797MOL0     C 7500  10.392  -0.752   1.730 -0.3675  0.2866  0.2244
  797MOL0     C 7501  10.263  -0.763   1.651  0.4176 -0.5799  0.0668
  797MOL0     C 7502  10.155  -0.860   1.701  1.3311  0.2900 -1.0300
  797MOL0     C 7503  10.202  -0.996   1.744  0.8643  0.1935  0.2597
  797MOL0     C 7504  10.090  -1.109   1.720 -1.2589 -1.1656  0.4994
  797MOL0    Cl 7505  10.054  -1.146   1.548  0.0628 -0.0846 -0.0871
  797MOL0     C 7506  10.390  -0.342   2.243 -0.9949  0.8811  0.6550
  797MOL0     C 7507  10.395  -0.268   2.356  0.3060 -0.0862 -1.1473
  797MOL0     O 7508  10.506  -0.028   2.487 -0.5645  0.8895  0.4003
  797MOL0     C 7509  10.459  -0.094   2.836 -0.1191 -0.2238  0.1136
  797MOL0     C 7510  10.461  -0.026   2.965 -0.2439  0.0431  0.4152
  797MOL0     N 7511  10.648   0.493   3.539 -0.3276  0.2898  0.2569
  797MOL0     N 7512  10.595   0.509   3.662 -0.2555  0.5589  0.0333
  797MOL0     C 7513  10.159   1.366   4.353 -0.6056  0.8399  0.2228
  797MOL0     C 7514  10.138   1.497   4.401 -0.2460 -1.2459 -0.7363
  797MOL0     C 7515  10.032   1.885   4.588  0.5885  0.5117 -0.8318
  797MOL0     C 7516   9.928   1.974   4.557 -0.2590 -0.5142 -0.2771
  797MOL0     C 7517   9.927   2.113   4.588 -0.2532 -0.1030 -0.3759
  797MOL0     C 7518  10.046   2.166   4.637 -0.5885 -0.0595 -0.2684
  797MOL0     O 7519  10.060   2.289   4.695  0.0182 -0.8676 -0.0133
  797MOL0     C 7520   9.988   2.407   4.652 -0.2211  0.3934 -0.0599
  797MOL0     C 7521  10.080   2.527   4.674  0.4485  0.3152  0.5954
  797MOL0     C 7522  10.217   2.508   4.614  0.0886 -0.8388  0.2567
  797MOL0     C 7523  10.274   2.650   4.584 -0.5976  0.2510  0.1542
  797MOL0     C 7524  10.317   2.710   4.709 -0.2779 -1.1961  0.1302
  797MOL0     C 7525  10.342   2.739   4.829 -0.3296  0.1591  0.5406
  797MOL0     C 7526  10.157   2.080   4.676  0.3437  0.0179  0.3418
  797MOL0     C 7527  10.151   1.946   4.633 -0.4011  0.6341 -1.0836
  797MOL0     H 7528  10.145   1.469   4.727  2.5135  0.0429  0.7995
  797MOL0     H 7529  10.218   1.230   4.662  0.1374 -0.4676 -0.8128
  797MOL0     H 7530  10.033   1.039   4.460 -1.3201  1.1050 -0.5809
  797MOL0     H 7531  10.009   1.142   4.314 -0.7577  1.1356  0.5006
  797MOL0     H 7532  10.180   0.886   4.340 -0.0296  0.9941 -0.6590
  797MOL0     H 7533  10.026   0.884   4.265  0.7526 -0.9756  2.2116
  797MOL0     H 7534  10.076   1.019   4.091 -1.5906 -1.0858  0.3717
  797MOL0     H 7535  10.227   1.074   4.151 -0.7954  0.3476 -0.3266
  797MOL0     H 7536  10.346   0.865   4.110  0.3930  1.0816  0.0368
  797MOL0     H 7537  10.189   0.771   4.084 -0.6408  0.2121 -3.4155
  797MOL0     H 7538  10.196   0.965   3.895  1.5222  0.9466 -2.8899
  797MOL0     H 7539  10.367   0.930   3.901  1.4968 -2.2238  0.2339
  797MOL0     H 7540  10.165   0.702   3.881  0.8145 -0.1109  1.7086
  797MOL0     H 7541  10.224   0.774   3.737 -4.2701 -3.7337  0.2246
  797MOL0     H 7542  10.448   0.751   3.798  0.4642  0.4588  0.6466
  797MOL0     H 7543  10.404   0.648   3.939 -4.1978  2.1381  0.4105
  797MOL0     H 7544  10.259   0.539   3.724 -0.1767 -5.5083  0.4546
  797MOL0     H 7545  10.389   0.468   3.824  1.6460  1.2296  0.3781
  797MOL0     H 7546  10.331   0.557   3.468  0.9678 -0.1394 -0.5308
  797MOL0     H 7547  10.575   0.601   3.257  0.7114 -0.2674 -0.9421
  797MOL0     H 7548  10.673   0.458   3.302  1.2971  1.1761  0.2107
  797MOL0     H 7549  10.478   0.408   3.132 -1.9756 -0.7610  0.2523
  797MOL0     H 7550  10.369   0.471   3.250 -0.6248  1.2670  0.1777
  797MOL0     H 7551  10.353   0.266   3.354  0.5060 -1.1599  1.1398
  797MOL0     H 7552  10.515   0.256   3.371  1.1423 -0.7061  0.2619
  797MOL0     H 7553  10.355   0.207   3.119  0.2404  3.4650 -0.2932
  797MOL0     H 7554  10.398   0.080   3.235 -2.5643  1.7751  0.9012
  797MOL0     H 7555  10.658   0.238   2.892  1.8006 -0.9095  0.5648
  797MOL0     H 7556  10.580   0.175   2.550  0.5425 -0.6221 -1.3974
  797MOL0     H 7557  10.704   0.255   2.639  0.0134 -0.2742 -0.4858
  797MOL0     H 7558  10.734   0.093   2.581 -0.2795  1.0582 -1.1586
  797MOL0     H 7559  10.589  -0.480   2.552 -0.9585 -0.1344  0.4856
  797MOL0     H 7560  10.545  -0.621   2.374  1.7450  0.4104  0.5642
  797MOL0     H 7561  10.410  -0.442   1.961 -1.8985 -2.7265 -0.0327
  797MOL0     H 7562  10.567  -0.454   2.039  0.0710 -0.0657  1.5250
  797MOL0     H 7563  10.535  -0.557   1.827 -2.7214  2.4068  0.0104
  797MOL0     H 7564  10.576  -0.689   1.949 -1.9583 -1.6762  2.3571
  797MOL0     H 7565  10.299  -0.612   1.870  0.5718  1.0956 -2.6102
  797MOL0     H 7566  10.350  -0.763   1.951 -0.9602  1.2345  1.9581
  797MOL0     H 7567  10.471  -0.697   1.679 -0.6537 -0.5978 -1.2344
  797MOL0     H 7568  10.431  -0.852   1.753  1.9347  0.8725 -0.8235
  797MOL0     H 7569  10.279  -0.800   1.549  2.3793  1.0414 -0.2675
  797MOL0     H 7570  10.231  -0.660   1.639 -1.6617 -1.1146  0.6942
  797MOL0     H 7571  10.102  -0.807   1.781  0.4783 -0.8639 -0.8099
  797MOL0     H 7572  10.083  -0.868   1.619  0.1639  3.2143 -0.4459
  797MOL0     H 7573  10.238  -0.992   1.847  1.6803 -0.7542  0.0301
  797MOL0     H 7574  10.283  -1.026   1.677 -1.2990  0.8675 -2.8377
  797MOL0     H 7575   9.999  -1.074   1.770 -2.6851 -1.6292 -1.6414
  797MOL0     H 7576  10.140  -1.195   1.764  1.2764 -0.8897 -1.6183
  797MOL0     H 7577  10.343  -0.308   2.151  0.7486  0.7836 -0.3348
  797MOL0     H 7578  10.343  -0.172   2.360  0.5347 -0.0110  0.6170
  797MOL0     H 7579  10.407  -0.189   2.823  0.9173 -0.7615 -0.2243
  797MOL0     H 7580  10.406  -0.052   3.054  1.5751  1.0527  1.8949
  797MOL0     H 7581  10.134   1.340   4.251  1.1003 -0.0798  0.0107
  797MOL0     H 7582  10.114   1.577   4.333  3.2215 -0.3238 -1.0680
  797MOL0     H 7583   9.831   1.941   4.522  0.8735 -3.3586 -1.0103
  797MOL0     H 7584   9.835   2.165   4.564 -0.9500 -1.2682 -0.2667
  797MOL0     H 7585   9.955   2.397   4.548  0.7203 -1.4975 -0.2174
  797MOL0     H 7586   9.898   2.413   4.715 -0.3102  1.1916 -0.2572
  797MOL0     H 7587  10.090   2.544   4.781  0.7190  0.5672  0.5318
  797MOL0     H 7588  10.033   2.612   4.623  4.5441  0.1291 -4.2412
  797MOL0     H 7589  10.210   2.451   4.521  0.0637 -3.3456  1.6995
  797MOL0     H 7590  10.274   2.450   4.687 -0.9524 -2.8301 -0.4299
  797MOL0     H 7591  10.207   2.718   4.530 -0.7135 -0.2691 -0.3648
  797MOL0     H 7592  10.370   2.636   4.535  1.2029  1.2353  3.1433
  797MOL0     H 7593  10.374   2.772   4.926  0.7343  0.8920 -0.0342
  797MOL0     H 7594  10.240   2.110   4.740  2.1530 -3.4644 -0.1498
  797MOL0     H 7595  10.239   1.886   4.653 -1.4519  0.0045  2.1905
  798MOL0     O 7596   3.302   2.271   5.857 -0.9402 -0.2231  0.2334
  798MOL0     C 7597   3.271   2.346   5.770  0.3181  0.6524  0.3422
  798MOL0     O 7598   3.330   2.463   5.747  0.8978 -0.4242  0.8065
  798MOL0     C 7599   3.409   2.507   5.850  0.3817 -0.0006  0.1930
  798MOL0     C 7600   3.382   2.631   5.905  0.4880  0.0958 -0.4853
  798MOL0     C 7601   3.456   2.694   6.010 -0.5440 -0.3012 -0.2545
  798MOL0     C 7602   3.556   2.607   6.071 -0.1776  0.8115 -0.6386
  798MOL0     O 7603   3.625   2.654   6.181  0.4994 -0.2155  0.3325
  798MOL0     C 7604   3.672   2.563   6.288  0.3984  0.0182  0.5212
  798MOL0     C 7605   3.775   2.621   6.393 -0.0740  0.3257 -0.0980
  798MOL0     C 7606   3.815   2.507   6.488 -1.5164  0.3155  0.4095
  798MOL0     C 7607   3.898   2.540   6.611 -0.0519  0.5350 -0.6088
  798MOL0     C 7608   3.926   2.408   6.689  0.1054  1.3422  0.4043
  798MOL0     C 7609   3.997   2.452   6.821 -0.4751 -0.5958 -0.3519
  798MOL0     C 7610   4.018   2.340   6.921 -0.4264 -0.7309 -0.2526
  798MOL0     C 7611   4.172   2.318   6.925 -0.1059  0.3649 -0.3511
  798MOL0     N 7612   4.213   2.200   7.002  0.2600 -0.0383  0.5158
  798MOL0     C 7613   4.302   2.207   7.106  0.0739  0.6886 -0.1954
  798MOL0     C 7614   4.322   2.081   7.156  0.6340 -0.0298 -0.7563
  798MOL0     C 7615   4.410   2.042   7.273  0.2894  0.5465  0.5228
  798MOL0     C 7616   4.536   2.107   7.241  0.1488  0.3925  0.8502
  798MOL0     C 7617   4.653   2.049   7.322 -0.8203  0.0419 -0.8227
  798MOL0     C 7618   4.793   2.117   7.282 -0.3085  0.7114 -0.6862
  798MOL0     O 7619   4.804   2.255   7.316  0.1439 -0.0612  0.3911
  798MOL0     C 7620   4.754   2.350   7.227  0.2265  0.6637 -0.1347
  798MOL0     C 7621   4.698   2.329   7.095 -0.5126  0.4480  0.2656
  798MOL0     C 7622   4.637   2.425   7.017 -0.6348 -0.3707  0.2913
  798MOL0     C 7623   4.612   2.393   6.870 -0.6275  0.1615 -0.8149
  798MOL0     C 7624   4.627   2.554   7.069 -0.6558  0.3252 -0.8969
  798MOL0     C 7625   4.553   2.649   6.993  0.3085  0.4456 -0.0176
  798MOL0     O 7626   4.423   2.609   6.962  0.2566  0.3989  0.5704
  798MOL0     C 7627   4.352   2.681   6.875  1.0488  0.6011  0.0290
  798MOL0     C 7628   4.261   2.772   6.927  0.0324  0.3504  0.3909
  798MOL0     C 7629   4.183   2.850   6.841 -0.0106  0.1394 -0.0872
  798MOL0     C 7630   4.191   2.845   6.705  0.0618  0.3936 -0.5103
  798MOL0     O 7631   4.105   2.903   6.618 -0.8919  0.8125 -0.3883
  798MOL0     C 7632   3.979   2.953   6.668  0.3690 -0.5647 -0.6334
  798MOL0     C 7633   3.890   2.992   6.558 -0.5636 -0.9457  0.0141
  798MOL0     C 7634   3.767   3.073   6.598 -0.5410  0.1190 -0.2472
  798MOL0     C 7635   3.794   3.209   6.673 -0.6867  0.1161 -0.3039
  798MOL0     C 7636   3.679   3.303   6.629 -0.6606 -0.0021 -0.4172
  798MOL0     C 7637   3.712   3.447   6.681  0.2245 -0.0116  0.3757
  798MOL0     C 7638   3.707   3.458   6.829  0.2391 -0.0044 -1.0406
  798MOL0     C 7639   3.705   3.603   6.884  0.6063 -1.0542 -1.0115
  798MOL0    Cl 7640   3.713   3.598   7.068  0.3218  0.2727  0.0442
  798MOL0     C 7641   4.283   2.760   6.650 -0.1024  0.4670 -0.2099
  798MOL0     C 7642   4.361   2.677   6.735 -0.5887 -0.8248  0.1893
  798MOL0     O 7643   4.608   2.758   6.965  0.1076 -0.0022  0.4211
  798MOL0     C 7644   4.689   2.587   7.192 -0.3158 -0.2646  0.0911
  798MOL0     C 7645   4.749   2.484   7.273 -0.1597 -0.1797 -0.5771
  798MOL0     N 7646   4.234   2.003   7.081  0.9049  0.1425 -0.3146
  798MOL0     N 7647   4.166   2.077   6.992  0.2952  0.2195  0.4220
  798MOL0     C 7648   3.581   2.483   6.018 -0.8911  0.0794 -0.6629
  798MOL0     C 7649   3.517   2.438   5.904  0.3237  0.7932 -0.0907
  798MOL0     C 7650   3.216   2.284   5.647  0.0819 -1.6404  0.6355
  798MOL0     C 7651   3.164   2.151   5.643  1.1435 -0.8671 -1.2828
  798MOL0     C 7652   3.124   2.091   5.529  1.0380  0.6346 -0.1686
  798MOL0     C 7653   3.128   2.157   5.401  1.0922 -0.3936 -0.2959
  798MOL0     O 7654   3.061   2.122   5.282 -0.8824  0.6506  0.1736
  798MOL0     C 7655   3.044   1.976   5.275 -0.8195 -0.2013 -0.3632
  798MOL0     C 7656   2.907   1.938   5.328 -0.4306  0.5529 -0.1877
  798MOL0     C 7657   2.866   1.787   5.316  0.1892  0.3839 -0.7414
  798MOL0     C 7658   2.736   1.760   5.394 -0.2295  0.2675 -1.2964
  798MOL0     C 7659   2.633   1.835   5.321  0.2642  0.7304 -0.6159
  798MOL0     C 7660   2.523   1.866   5.278  0.5005 -0.2056  0.3434
  798MOL0     C 7661   3.197   2.285   5.401 -0.2762  0.2515 -0.2000
  798MOL0     C 7662   3.241   2.344   5.520  1.3575 -0.1369  0.3888
  798MOL0     H 7663   3.304   2.690   5.859 -0.8456 -1.1937  0.0533
  798MOL0     H 7664   3.434   2.796   6.040 -1.1876 -0.7010  0.6965
  798MOL0     H 7665   3.583   2.539   6.346 -2.1336  0.9566 -2.6762
  798MOL0     H 7666   3.713   2.468   6.249 -1.6803 -0.0606 -1.6770
  798MOL0     H 7667   3.861   2.672   6.348 -0.3184 -1.0129 -2.2627
  798MOL0     H 7668   3.721   2.699   6.448  0.2545  1.5869 -1.4864
  798MOL0     H 7669   3.728   2.449   6.520 -0.0206 -1.8561  0.7638
  798MOL0     H 7670   3.872   2.434   6.430  0.5649  1.7700  0.4872
  798MOL0     H 7671   3.997   2.571   6.575  0.7176 -1.6552 -0.4965
  798MOL0     H 7672   3.842   2.610   6.674 -0.8073 -0.1212 -0.5287
  798MOL0     H 7673   3.836   2.350   6.710  0.9330  0.7333  2.4312
  798MOL0     H 7674   3.991   2.351   6.622  1.3448  1.5123  1.4355
  798MOL0     H 7675   4.090   2.509   6.809 -0.8395  0.7866  2.5549
  798MOL0     H 7676   3.930   2.523   6.869  2.7716  2.9541 -0.6373
  798MOL0     H 7677   3.986   2.372   7.020  0.4343 -0.5224 -0.0356
  798MOL0     H 7678   3.956   2.250   6.914 -4.4556  1.6173  1.5729
  798MOL0     H 7679   4.216   2.407   6.970 -4.2132  0.8377  3.3138
  798MOL0     H 7680   4.222   2.302   6.828  0.9157  1.3624 -0.0076
  798MOL0     H 7681   4.363   2.292   7.132  3.2608 -1.2039 -0.8784
  798MOL0     H 7682   4.375   2.073   7.372  2.0884 -2.7763  2.3915
  798MOL0     H 7683   4.428   1.934   7.267  2.1215  0.8544 -0.1020
  798MOL0     H 7684   4.529   2.215   7.256  1.0149  0.3673  1.5072
  798MOL0     H 7685   4.559   2.086   7.136 -2.5433  2.0818 -0.1963
  798MOL0     H 7686   4.655   1.941   7.303  0.0373  0.2773 -2.2487
  798MOL0     H 7687   4.621   2.065   7.425 -2.9505  0.1696 -1.4355
  798MOL0     H 7688   4.826   2.092   7.181  1.3817 -2.1150  0.4458
  798MOL0     H 7689   4.874   2.065   7.333  0.3811 -2.1063 -4.2061
  798MOL0     H 7690   4.726   2.232   7.054 -1.4763  0.8635 -1.4651
  798MOL0     H 7691   4.515   2.347   6.849 -0.0553  0.0980 -3.9065
  798MOL0     H 7692   4.609   2.483   6.808 -2.3779 -1.4001 -3.1645
  798MOL0     H 7693   4.699   2.331   6.843 -1.7663 -1.9972  0.1999
  798MOL0     H 7694   4.257   2.790   7.034  3.1255  2.1614  0.3417
  798MOL0     H 7695   4.110   2.919   6.883 -2.3226 -1.0547 -1.9028
  798MOL0     H 7696   3.926   2.877   6.727 -3.2720 -2.1752 -5.3276
  798MOL0     H 7697   4.001   3.044   6.725  0.4555  0.4601 -2.2393
  798MOL0     H 7698   3.947   3.056   6.490 -0.9875  2.1004  2.3264
  798MOL0     H 7699   3.864   2.908   6.492 -0.5046  0.0288 -1.2811
  798MOL0     H 7700   3.711   3.010   6.668 -0.8367  1.3605  0.6547
  798MOL0     H 7701   3.710   3.090   6.506 -1.2278 -1.7460 -0.2072
  798MOL0     H 7702   3.796   3.191   6.781 -2.2468 -3.1267 -0.6856
  798MOL0     H 7703   3.885   3.260   6.641 -0.5268  1.3617  1.9025
  798MOL0     H 7704   3.587   3.257   6.665 -0.5078 -1.5860 -1.9023
  798MOL0     H 7705   3.683   3.313   6.520 -0.7098 -0.2183 -0.4376
  798MOL0     H 7706   3.809   3.483   6.646  0.0848 -1.6425 -1.8938
  798MOL0     H 7707   3.634   3.510   6.637 -1.7381 -1.9864  0.8512
  798MOL0     H 7708   3.789   3.399   6.871  0.1787 -0.4614 -1.5628
  798MOL0     H 7709   3.626   3.401   6.875  1.3200 -0.8509 -0.1297
  798MOL0     H 7710   3.612   3.654   6.857  0.6701 -0.6785 -0.5313
  798MOL0     H 7711   3.785   3.664   6.840 -0.3287  0.3386 -0.8528
  798MOL0     H 7712   4.320   2.771   6.548 -1.4910 -0.7010 -0.8705
  798MOL0     H 7713   4.421   2.598   6.690 -1.5249 -1.1350 -0.5340
  798MOL0     H 7714   4.682   2.690   7.223  3.5245  1.2682 -3.2092
  798MOL0     H 7715   4.796   2.509   7.368 -1.8002  1.6332 -0.1731
  798MOL0     H 7716   3.648   2.415   6.070 -3.2715 -1.5102  0.4878
  798MOL0     H 7717   3.558   2.346   5.864  0.4808  1.3235 -1.1846
  798MOL0     H 7718   3.129   2.094   5.728  1.6591 -0.8018 -1.0239
  798MOL0     H 7719   3.064   2.001   5.532 -1.8723  2.4141 -0.9326
  798MOL0     H 7720   3.064   1.954   5.170 -0.9353 -3.0888  0.1551
  798MOL0     H 7721   3.113   1.928   5.344 -2.8896  2.1853  3.7939
  798MOL0     H 7722   2.842   2.010   5.277  1.0607  1.8188 -0.3922
  798MOL0     H 7723   2.899   1.951   5.437 -1.4737 -0.7047 -0.0968
  798MOL0     H 7724   2.951   1.725   5.347 -0.0784  1.0479  1.4946
  798MOL0     H 7725   2.854   1.758   5.212 -1.7983 -0.2230 -0.3723
  798MOL0     H 7726   2.748   1.811   5.490  0.3573  2.2253 -2.3502
  798MOL0     H 7727   2.720   1.652   5.405 -0.5595  0.5973  3.1854
  798MOL0     H 7728   2.420   1.889   5.259  0.7426  1.7995  1.2145
  798MOL0     H 7729   3.218   2.347   5.314  1.7061 -2.5859 -1.8887
  798MOL0     H 7730   3.292   2.439   5.513 -2.2612  1.8818 -2.1168
  799MOL0     O 7731   5.232   2.244  10.969 -0.4563 -0.2085  0.4618
  799MOL0     C 7732   5.272   2.245  11.087 -0.6700  0.5424 -0.0355
  799MOL0     O 7733   5.232   2.335  11.181  0.3905  0.2658  0.0616
  799MOL0     C 7734   5.139   2.425  11.147 -0.5718  1.2975 -0.4878
  799MOL0     C 7735   5.021   2.405  11.223 -1.4357  0.6194 -0.6285
  799MOL0     C 7736   4.916   2.498  11.206  0.2834  0.4014  0.9304
  799MOL0     C 7737   4.928   2.608  11.128  1.0920  0.1027 -0.7508
  799MOL0     O 7738   4.814   2.684  11.105  1.1400  0.5229 -0.5758
  799MOL0     C 7739   4.776   2.768  11.216 -0.0119 -0.0588 -0.3421
  799MOL0     C 7740   4.639   2.818  11.198 -0.7219 -0.4900 -0.9897
  799MOL0     C 7741   4.529   2.729  11.246  0.1055  0.5070 -0.2768
  799MOL0     C 7742   4.407   2.815  11.282 -0.7389 -0.3277  0.3744
  799MOL0     C 7743   4.359   2.914  11.178  0.0354 -0.2804  0.8671
  799MOL0     C 7744   4.328   2.841  11.041 -0.3697  0.2268 -0.0448
  799MOL0     C 7745   4.285   2.961  10.942 -1.0936  0.2834 -0.4801
  799MOL0     C 7746   4.236   2.901  10.814  0.8945 -0.2703  0.6280
  799MOL0     N 7747   4.205   2.992  10.705 -0.2351  0.0320  0.6085
  799MOL0     C 7748   4.145   3.112  10.701 -0.3004 -0.4178  1.2968
  799MOL0     C 7749   4.180   3.160  10.573  0.3302  0.3580  0.4145
  799MOL0     C 7750   4.155   3.294  10.513  0.0594 -0.0387 -0.1373
  799MOL0     C 7751   4.013   3.292  10.464 -0.6866 -0.8834  0.1864
  799MOL0     C 7752   3.974   3.428  10.407 -0.1342  0.1752  0.6914
  799MOL0     C 7753   3.825   3.441  10.391 -0.4814  0.0874  0.6631
  799MOL0     O 7754   3.783   3.385  10.269 -0.2189 -0.5892  0.2735
  799MOL0     C 7755   3.663   3.435  10.216  0.4599 -0.4512  0.6339
  799MOL0     C 7756   3.638   3.396  10.087  0.3100  0.1958 -0.2208
  799MOL0     C 7757   3.528   3.432  10.014  0.5433 -0.5482  0.6043
  799MOL0     C 7758   3.509   3.345   9.898 -0.1642 -0.4343 -0.4781
  799MOL0     C 7759   3.442   3.531  10.067 -0.8047  0.0358  0.5568
  799MOL0     C 7760   3.310   3.570  10.005  0.3037 -0.1500  0.0641
  799MOL0     O 7761   3.296   3.539   9.872  0.5515  0.3809 -0.4340
  799MOL0     C 7762   3.181   3.576   9.805  0.3896  0.4861  0.5859
  799MOL0     C 7763   3.053   3.525   9.850 -0.1419 -0.2745  0.0576
  799MOL0     C 7764   2.938   3.583   9.791 -0.2446  0.1250 -0.2480
  799MOL0     C 7765   2.949   3.689   9.699 -0.5829 -0.6817 -0.7473
  799MOL0     O 7766   2.826   3.735   9.654 -0.3134 -0.4028 -0.1116
  799MOL0     C 7767   2.820   3.825   9.541 -0.0381 -0.7955 -0.8908
  799MOL0     C 7768   2.837   3.977   9.586  0.4022 -1.5833  0.9341
  799MOL0     C 7769   2.700   4.029   9.647 -0.3034 -1.2283 -0.5953
  799MOL0     C 7770   2.731   4.108   9.776  0.8381 -0.7730  0.3273
  799MOL0     C 7771   2.591   4.144   9.843 -0.3516 -0.2801 -0.4746
  799MOL0     C 7772   2.596   4.166  10.000 -0.2005  1.6597  0.2600
  799MOL0     C 7773   2.459   4.168  10.070  0.4715  1.5144  0.5219
  799MOL0     C 7774   2.475   4.284  10.164  0.2202  0.0593  0.2860
  799MOL0    Cl 7775   2.617   4.259  10.282  0.3089 -0.0473 -0.0283
  799MOL0     C 7776   3.073   3.751   9.672  0.7073 -0.1504  1.8412
  799MOL0     C 7777   3.191   3.680   9.713 -0.3840 -0.5104  0.7240
  799MOL0     O 7778   3.238   3.650  10.066  0.5773 -0.5617  0.7295
  799MOL0     C 7779   3.474   3.586  10.194 -0.3092 -0.7241  0.6257
  799MOL0     C 7780   3.590   3.543  10.263  0.3692  0.2788 -0.3150
  799MOL0     N 7781   4.261   3.066  10.518  0.0148 -0.1812  0.3772
  799MOL0     N 7782   4.273   2.963  10.589 -0.3494  0.7125 -0.0676
  799MOL0     C 7783   5.044   2.624  11.063 -0.1472 -0.2671 -0.4114
  799MOL0     C 7784   5.156   2.539  11.068  0.1578  0.1991  0.0033
  799MOL0     C 7785   5.376   2.145  11.132  0.7011 -0.2124 -0.1735
  799MOL0     C 7786   5.432   2.059  11.040 -0.0240 -0.5909 -0.0854
  799MOL0     C 7787   5.520   1.951  11.079  0.4274 -0.3435  0.3387
  799MOL0     C 7788   5.565   1.944  11.212  0.7480 -1.1878 -0.0767
  799MOL0     O 7789   5.653   1.859  11.272  0.0368 -0.2475 -0.0393
  799MOL0     C 7790   5.718   1.749  11.208 -0.2144  0.9655  0.0032
  799MOL0     C 7791   5.823   1.799  11.115  0.4942  0.0356 -0.6755
  799MOL0     C 7792   5.936   1.860  11.193  0.2542 -0.1997 -0.4374
  799MOL0     C 7793   6.038   1.921  11.103 -0.6345 -1.3513  1.0288
  799MOL0     C 7794   6.169   1.894  11.149  0.5166  0.2712  0.1856
  799MOL0     C 7795   6.279   1.864  11.201 -0.1268 -0.9742  0.2042
  799MOL0     C 7796   5.508   2.039  11.301 -0.5480  0.5011 -0.1277
  799MOL0     C 7797   5.411   2.132  11.267 -0.1293  0.5290  0.1165
  799MOL0     H 7798   5.023   2.312  11.279  0.2539  0.9367 -0.0907
  799MOL0     H 7799   4.825   2.465  11.256 -0.0027  2.0683  1.5945
  799MOL0     H 7800   4.785   2.703  11.303  2.5323  0.3416 -0.2222
  799MOL0     H 7801   4.860   2.838  11.213  1.2469 -1.5112 -2.6100
  799MOL0     H 7802   4.631   2.905  11.265 -1.7946 -2.0065  0.9726
  799MOL0     H 7803   4.610   2.846  11.097 -0.6712  1.5081 -0.4999
  799MOL0     H 7804   4.508   2.652  11.171 -0.7920  1.1288 -0.6847
  799MOL0     H 7805   4.580   2.680  11.329 -0.0961  0.1507 -0.3622
  799MOL0     H 7806   4.325   2.749  11.311 -0.0121 -0.5561  2.0620
  799MOL0     H 7807   4.445   2.879  11.363  3.2549  0.8302 -2.0880
  799MOL0     H 7808   4.269   2.953  11.226  0.9407  2.3949  0.5244
  799MOL0     H 7809   4.423   3.002  11.165 -0.5114  0.1613  1.1395
  799MOL0     H 7810   4.413   2.777  11.013 -0.7318 -1.4760  2.4697
  799MOL0     H 7811   4.252   2.764  11.054  0.2366 -0.0358  2.4928
  799MOL0     H 7812   4.214   3.024  10.997  0.7941  1.4328  0.7612
  799MOL0     H 7813   4.377   3.015  10.920  0.8120 -3.0869 -1.4558
  799MOL0     H 7814   4.148   2.839  10.832  0.5144  0.6526  2.2096
  799MOL0     H 7815   4.324   2.838  10.795  1.1572 -0.3550  1.9805
  799MOL0     H 7816   4.090   3.167  10.776 -0.7079  0.1823  0.5824
  799MOL0     H 7817   4.178   3.359  10.598 -2.7711 -3.2020  3.4228
  799MOL0     H 7818   4.224   3.298  10.428  3.6194 -0.8075  2.4888
  799MOL0     H 7819   3.955   3.259  10.550  0.2682 -1.4345  0.6299
  799MOL0     H 7820   4.001   3.214  10.387  1.2935 -0.6214 -0.4717
  799MOL0     H 7821   4.014   3.442  10.306 -2.1407 -2.2472 -0.5384
  799MOL0     H 7822   3.999   3.502  10.483 -1.3899  0.0402  1.2506
  799MOL0     H 7823   3.801   3.547  10.384 -0.4185  0.0160 -0.8736
  799MOL0     H 7824   3.761   3.381  10.457 -2.1882 -1.1991 -1.9840
  799MOL0     H 7825   3.707   3.330  10.036 -0.4499 -0.7499 -0.0521
  799MOL0     H 7826   3.471   3.398   9.810 -0.4631  0.2780  0.0681
  799MOL0     H 7827   3.597   3.290   9.864 -0.3774 -0.8167 -0.4267
  799MOL0     H 7828   3.441   3.264   9.928  0.6245 -1.4524 -1.3446
  799MOL0     H 7829   3.041   3.445   9.923  0.9792 -1.4564 -0.9921
  799MOL0     H 7830   2.833   3.561   9.807 -1.1593  2.9911 -1.6471
  799MOL0     H 7831   2.898   3.790   9.472  0.4705 -0.6003 -0.4231
  799MOL0     H 7832   2.730   3.812   9.480 -1.9559  0.4246  1.5100
  799MOL0     H 7833   2.908   3.995   9.667  0.4303  2.3621  0.2082
  799MOL0     H 7834   2.877   4.040   9.507 -0.5815 -1.0296  0.8682
  799MOL0     H 7835   2.625   3.951   9.659  2.1776 -3.7681 -0.5202
  799MOL0     H 7836   2.662   4.111   9.585  0.0837  0.8289  1.7209
  799MOL0     H 7837   2.792   4.057   9.851  0.3500 -1.2534  0.4056
  799MOL0     H 7838   2.791   4.196   9.751  2.7979 -1.8313  1.0818
  799MOL0     H 7839   2.523   4.059   9.849 -1.1379  0.4381  2.0999
  799MOL0     H 7840   2.535   4.228   9.802  1.4613  0.3870 -1.7014
  799MOL0     H 7841   2.651   4.085  10.050 -0.5070  0.5711 -1.1076
  799MOL0     H 7842   2.648   4.262  10.008 -1.6541  2.2940  4.0596
  799MOL0     H 7843   2.448   4.077  10.131  0.6139  2.5400  2.1519
  799MOL0     H 7844   2.381   4.189   9.997  2.4188  2.4132 -1.4339
  799MOL0     H 7845   2.387   4.300  10.227  1.1101  1.6581  1.1948
  799MOL0     H 7846   2.479   4.376  10.104  0.5688  0.0739  0.3316
  799MOL0     H 7847   3.093   3.835   9.607 -1.6188 -3.0739 -3.2167
  799MOL0     H 7848   3.289   3.719   9.691  0.3180 -3.5375 -2.5857
  799MOL0     H 7849   3.415   3.670  10.229  2.8079  1.5462  0.8639
  799MOL0     H 7850   3.612   3.598  10.353  1.5914  2.0849 -1.6423
  799MOL0     H 7851   5.047   2.716  11.006 -1.9377 -0.3189 -0.6467
  799MOL0     H 7852   5.253   2.559  11.023  1.2630 -2.3593  1.0434
  799MOL0     H 7853   5.399   2.062  10.937  0.5713 -1.6678 -0.3215
  799MOL0     H 7854   5.554   1.877  11.006 -2.7719 -1.6035 -0.0607
  799MOL0     H 7855   5.759   1.686  11.287 -1.1405 -2.5941 -2.1031
  799MOL0     H 7856   5.645   1.700  11.143  1.0479  1.1352 -1.5884
  799MOL0     H 7857   5.785   1.874  11.044  0.3774  1.7939  1.1569
  799MOL0     H 7858   5.872   1.715  11.065  2.6146  2.5698 -3.2129
  799MOL0     H 7859   5.991   1.790  11.256  1.1293 -1.3834 -2.3990
  799MOL0     H 7860   5.894   1.942  11.252 -2.3739 -1.8853  0.1980
  799MOL0     H 7861   6.012   2.025  11.086  4.8183  0.0729 -0.5044
  799MOL0     H 7862   6.028   1.872  11.006  5.6282  0.7682 -1.1496
  799MOL0     H 7863   6.380   1.847  11.230  1.0120 -0.7282 -3.1878
  799MOL0     H 7864   5.547   2.041  11.402  2.9551 -1.7712 -1.2588
  799MOL0     H 7865   5.367   2.189  11.349 -0.2817 -1.2545  1.3292
  800MOL0     O 7866  10.732   9.218   2.574 -0.1124 -0.3513 -0.9718
  800MOL0     C 7867  10.748   9.309   2.648 -0.8288 -0.8092  0.0696
  800MOL0     O 7868  10.864   9.346   2.708  0.2128  0.0995 -0.5121
  800MOL0     C 7869  10.972   9.260   2.720 -0.0374  0.3708 -0.1157
  800MOL0     C 7870  11.056   9.244   2.833  0.9741  0.2106 -0.6399
  800MOL0     C 7871  11.161   9.163   2.824  0.4586  0.7738  0.2998
  800MOL0     C 7872  11.201   9.100   2.711  0.2215 -0.1482 -0.2721
  800MOL0     O 7873  11.315   9.022   2.717  0.6461  0.0677 -0.0113
  800MOL0     C 7874  11.349   8.928   2.606 -0.0369 -0.7546 -0.6108
  800MOL0     C 7875  11.402   8.799   2.676  0.2786  0.1318 -0.4924
  800MOL0     C 7876  11.425   8.686   2.570  0.2700 -1.1643  0.4912
  800MOL0     C 7877  11.466   8.560   2.651  0.9765 -0.1790 -0.7009
  800MOL0     C 7878  11.564   8.470   2.579  0.9779  0.1756 -0.5166
  800MOL0     C 7879  11.512   8.375   2.471  0.5649 -0.4565 -0.8431
  800MOL0     C 7880  11.505   8.232   2.517  0.6368  0.2984  0.8417
  800MOL0     C 7881  11.432   8.223   2.650 -0.4596  0.8049 -0.4970
  800MOL0     N 7882  11.408   8.080   2.684 -0.1179  0.2233  0.7409
  800MOL0     C 7883  11.346   7.992   2.590  0.7874 -2.1436 -1.2539
  800MOL0     C 7884  11.291   7.894   2.661 -0.3938  0.3643 -0.0337
  800MOL0     C 7885  11.207   7.782   2.607  0.0547  0.0335  0.3004
  800MOL0     C 7886  11.057   7.826   2.606  0.2129 -0.6030 -0.0120
  800MOL0     C 7887  10.978   7.860   2.738 -0.7981  0.1584 -0.4952
  800MOL0     C 7888  10.838   7.916   2.699  0.1615  0.1881  0.0115
  800MOL0     O 7889  10.785   7.822   2.614  0.2590  0.7575  0.5278
  800MOL0     C 7890  10.657   7.849   2.567  0.0278  1.0621  0.0204
  800MOL0     C 7891  10.628   7.968   2.497 -0.6674 -0.5055 -0.7846
  800MOL0     C 7892  10.511   7.995   2.430  0.1412  0.1609 -0.1172
  800MOL0     C 7893  10.505   8.126   2.359 -0.5247  0.5701 -0.1938
  800MOL0     C 7894  10.417   7.894   2.429  0.4112 -0.3672 -0.3624
  800MOL0     C 7895  10.288   7.891   2.341 -0.1756 -0.3598 -0.5347
  800MOL0     O 7896  10.196   7.792   2.364  0.7516  0.1930  0.1991
  800MOL0     C 7897  10.081   7.798   2.291 -0.5118  0.0902 -0.0224
  800MOL0     C 7898  10.067   7.722   2.171 -0.2058 -0.2944  0.2176
  800MOL0     C 7899   9.949   7.733   2.095  0.4522  0.4716  0.3355
  800MOL0     C 7900   9.840   7.817   2.136  0.4709  0.6925 -0.2222
  800MOL0     O 7901   9.726   7.831   2.056 -0.7084 -0.4142  0.0294
  800MOL0     C 7902   9.730   7.948   1.969 -0.1101  0.4161  0.3391
  800MOL0     C 7903   9.614   7.923   1.875  0.5975 -0.0178  0.6386
  800MOL0     C 7904   9.476   7.936   1.931  0.2719 -0.5351  0.1201
  800MOL0     C 7905   9.371   7.899   1.834 -0.4031  0.1463 -0.5613
  800MOL0     C 7906   9.245   7.985   1.870  0.5697  0.0799  0.1833
  800MOL0     C 7907   9.123   7.948   1.772 -0.7435 -0.0187  0.6712
  800MOL0     C 7908   9.138   8.012   1.637  0.2981  0.0539  0.4454
  800MOL0     C 7909   9.106   8.155   1.634  0.4759 -0.0137 -0.3613
  800MOL0    Cl 7910   8.927   8.184   1.667  0.2719  0.3060  0.2048
  800MOL0     C 7911   9.846   7.882   2.259 -0.4532 -0.1558 -0.4142
  800MOL0     C 7912   9.968   7.873   2.338  0.0959  0.6358  0.1884
  800MOL0     O 7913  10.272   7.982   2.258 -0.8954 -0.4290  0.3774
  800MOL0     C 7914  10.441   7.772   2.490 -0.2029 -0.1695 -0.0612
  800MOL0     C 7915  10.561   7.752   2.568  0.2547  0.1680  0.3064
  800MOL0     N 7916  11.325   7.904   2.791  0.5559 -0.0942 -0.7807
  800MOL0     N 7917  11.388   8.020   2.808  0.1267  0.1192  0.1133
  800MOL0     C 7918  11.142   9.132   2.591 -0.0783  0.3368 -0.8675
  800MOL0     C 7919  11.021   9.199   2.593  0.6147 -0.7656  0.6673
  800MOL0     C 7920  10.639   9.404   2.665  0.1496  0.8300 -0.1191
  800MOL0     C 7921  10.606   9.439   2.804 -0.6409 -0.3659 -0.5282
  800MOL0     C 7922  10.512   9.529   2.841  0.7796  0.7732 -0.4694
  800MOL0     C 7923  10.423   9.586   2.738 -0.3673 -0.6627  0.0878
  800MOL0     O 7924  10.336   9.670   2.783  0.1931  0.2276  0.4182
  800MOL0     C 7925  10.259   9.744   2.693  0.0119  0.2140  1.6175
  800MOL0     C 7926  10.165   9.825   2.787  0.1175  0.4115 -1.1051
  800MOL0     C 7927  10.060   9.735   2.851  0.1306 -0.3139 -0.4203
  800MOL0     C 7928   9.960   9.815   2.950  0.2402  0.7449  0.1461
  800MOL0     C 7929   9.841   9.732   2.993 -0.3985  0.4759 -1.0459
  800MOL0     C 7930   9.739   9.684   3.052  0.2230  0.7765  0.4843
  800MOL0     C 7931  10.450   9.548   2.603 -0.0608  1.3267 -1.2125
  800MOL0     C 7932  10.554   9.455   2.559  1.0496 -1.1666 -0.6347
  800MOL0     H 7933  11.021   9.286   2.927  1.1818  2.4357 -1.5012
  800MOL0     H 7934  11.218   9.136   2.912 -0.8238 -1.1715  0.5945
  800MOL0     H 7935  11.270   8.886   2.543  1.0803 -3.5788 -0.2862
  800MOL0     H 7936  11.428   8.960   2.538 -2.1799 -0.5210 -3.1318
  800MOL0     H 7937  11.496   8.822   2.726 -1.1791  1.3634  1.8171
  800MOL0     H 7938  11.333   8.764   2.753 -0.9098  0.4463 -1.3837
  800MOL0     H 7939  11.329   8.667   2.521 -0.5804 -1.6314  2.2407
  800MOL0     H 7940  11.508   8.714   2.505  0.8097 -0.5042  1.4458
  800MOL0     H 7941  11.495   8.596   2.750 -0.5897  0.4976 -0.4525
  800MOL0     H 7942  11.372   8.506   2.667  1.1495 -1.4273 -3.3325
  800MOL0     H 7943  11.640   8.532   2.531  1.0771  0.6544  0.2563
  800MOL0     H 7944  11.623   8.418   2.655  0.9731 -0.5906 -1.0231
  800MOL0     H 7945  11.412   8.413   2.448  0.8994  2.3133  1.6963
  800MOL0     H 7946  11.585   8.359   2.390  0.4675 -0.2742 -0.9683
  800MOL0     H 7947  11.457   8.176   2.436  0.5755  0.9835  0.3965
  800MOL0     H 7948  11.608   8.194   2.510  0.2973 -0.2745 -3.5442
  800MOL0     H 7949  11.340   8.282   2.652 -2.8618 -2.6561  0.0332
  800MOL0     H 7950  11.496   8.264   2.729  1.1686 -2.9903  0.3459
  800MOL0     H 7951  11.324   8.010   2.485  3.9338  1.7056 -1.4945
  800MOL0     H 7952  11.239   7.744   2.510  1.9623 -0.0088  0.9190
  800MOL0     H 7953  11.227   7.699   2.676 -1.2606  0.1748  0.8992
  800MOL0     H 7954  11.003   7.743   2.559 -0.7517 -0.7250  1.2562
  800MOL0     H 7955  11.049   7.923   2.557  2.0481 -0.2540  0.3064
  800MOL0     H 7956  11.033   7.936   2.795 -2.3826  1.4353 -0.5816
  800MOL0     H 7957  10.967   7.767   2.795  1.6601 -2.3024 -3.6723
  800MOL0     H 7958  10.852   8.017   2.660  0.0881  0.2772  0.2158
  800MOL0     H 7959  10.761   7.928   2.776 -2.1065 -0.4843 -2.0215
  800MOL0     H 7960  10.711   8.038   2.490  1.6950 -3.1634 -1.2651
  800MOL0     H 7961  10.579   8.199   2.392 -0.4649  1.1287 -1.5146
  800MOL0     H 7962  10.517   8.098   2.254  1.9303 -1.8058  0.6090
  800MOL0     H 7963  10.414   8.184   2.376 -1.2837 -1.0154  1.5140
  800MOL0     H 7964  10.144   7.652   2.141  0.0080 -0.4098  0.9988
  800MOL0     H 7965   9.931   7.671   2.008  2.0118 -1.0042  1.0198
  800MOL0     H 7966   9.694   8.029   2.034  0.7682 -0.1453  1.5532
  800MOL0     H 7967   9.824   7.972   1.919  1.4664 -0.3158  2.7462
  800MOL0     H 7968   9.623   7.996   1.793 -0.0900 -0.0852  0.4961
  800MOL0     H 7969   9.623   7.827   1.823  0.4816  1.2835 -1.9888
  800MOL0     H 7970   9.466   8.041   1.961 -2.5042 -0.9542  0.9482
  800MOL0     H 7971   9.470   7.882   2.026  3.7599 -2.7439 -0.7127
  800MOL0     H 7972   9.399   7.911   1.729  0.4930 -3.7227 -0.9235
  800MOL0     H 7973   9.334   7.797   1.847 -2.6396  1.2707  4.4491
  800MOL0     H 7974   9.256   8.093   1.882  2.2576 -0.2118  1.6538
  800MOL0     H 7975   9.214   7.977   1.975 -2.6053  3.0746 -0.3209
  800MOL0     H 7976   9.104   7.842   1.757  0.8883 -0.3270  0.6742
  800MOL0     H 7977   9.029   7.979   1.819 -0.4538 -0.0599  1.2800
  800MOL0     H 7978   9.067   7.974   1.563 -1.4755 -0.2424  2.2145
  800MOL0     H 7979   9.241   7.999   1.601  0.7183  2.2863  0.6622
  800MOL0     H 7980   9.118   8.204   1.537 -1.6978  1.4514  0.0275
  800MOL0     H 7981   9.168   8.204   1.709  0.5340 -0.8631  0.1622
  800MOL0     H 7982   9.757   7.945   2.264  0.8253  1.6576  0.7433
  800MOL0     H 7983   9.982   7.934   2.426  1.1767  0.2590  0.2898
  800MOL0     H 7984  10.372   7.692   2.468  0.3245 -0.9221  0.9257
  800MOL0     H 7985  10.567   7.653   2.611 -2.0155  0.5692  1.7217
  800MOL0     H 7986  11.180   9.092   2.497 -2.5525  0.7893 -2.1270
  800MOL0     H 7987  10.979   9.217   2.495  0.3700  0.4592  0.9703
  800MOL0     H 7988  10.673   9.401   2.881 -2.7238  0.4405  1.8087
  800MOL0     H 7989  10.523   9.565   2.943 -1.3330  0.9089 -0.2498
  800MOL0     H 7990  10.328   9.804   2.634  0.0812 -1.3906 -0.0354
  800MOL0     H 7991  10.206   9.668   2.635  2.3794 -1.3516  1.3934
  800MOL0     H 7992  10.106   9.897   2.730 -2.0600 -1.0610 -0.8261
  800MOL0     H 7993  10.225   9.884   2.856 -0.3799 -0.4347  0.0740
  800MOL0     H 7994  10.093   9.647   2.906  1.4800  0.0133 -0.6634
  800MOL0     H 7995   9.998   9.702   2.767 -1.3533  2.7396 -0.6933
  800MOL0     H 7996   9.908   9.898   2.900 -2.2741 -1.1067 -0.5146
  800MOL0     H 7997  10.022   9.861   3.028 -1.6627 -1.3773  3.1298
  800MOL0     H 7998   9.661   9.642   3.112 -0.4077 -0.8478 -1.3935
  800MOL0     H 7999  10.387   9.601   2.532 -1.0221  1.4803 -0.2692
  800MOL0     H 8000  10.572   9.445   2.453  4.9261  2.5929 -0.5893
  801MOL0     O 8001   6.717   5.030   8.654  0.0864 -0.4488 -0.0708
  801MOL0     C 8002   6.611   5.055   8.719 -1.7045 -0.3756  0.0199
  801MOL0     O 8003   6.560   5.174   8.730  0.0565 -0.4207  0.1406
  801MOL0     C 8004   6.570   5.276   8.636 -0.0233  0.1949  0.5078
  801MOL0     C 8005   6.549   5.400   8.679  0.4026 -0.5356  0.1092
  801MOL0     C 8006   6.567   5.510   8.601 -0.7322 -0.9575  0.0738
  801MOL0     C 8007   6.589   5.505   8.460  0.2401 -0.2888  0.3105
  801MOL0     O 8008   6.592   5.603   8.369 -0.1169  0.0331 -0.1978
  801MOL0     C 8009   6.575   5.736   8.418 -0.2804  0.3060 -0.5084
  801MOL0     C 8010   6.609   5.826   8.303 -0.3366  0.6919 -0.2219
  801MOL0     C 8011   6.756   5.828   8.270 -0.4429 -0.0840  0.8423
  801MOL0     C 8012   6.789   5.946   8.181  0.0596 -0.0128 -1.2749
  801MOL0     C 8013   6.945   5.978   8.181  0.2341 -0.0593 -0.1839
  801MOL0     C 8014   7.036   5.864   8.155 -0.2112 -0.2253  0.6434
  801MOL0     C 8015   7.181   5.897   8.164 -0.3325 -0.8276  0.0628
  801MOL0     C 8016   7.270   5.777   8.187 -0.1096 -0.3798 -0.3084
  801MOL0     N 8017   7.271   5.683   8.078 -0.7112  0.9803  0.6523
  801MOL0     C 8018   7.353   5.696   7.970  0.1129  0.3741  0.9179
  801MOL0     C 8019   7.363   5.572   7.919  0.8991 -0.7011  0.7607
  801MOL0     C 8020   7.431   5.517   7.798  0.5519  0.3479  0.8979
  801MOL0     C 8021   7.561   5.596   7.753 -1.5619 -0.1367 -0.2890
  801MOL0     C 8022   7.598   5.541   7.617 -0.7727 -0.3562 -0.3593
  801MOL0     C 8023   7.734   5.613   7.571 -0.6437 -0.1574 -0.5102
  801MOL0     O 8024   7.716   5.699   7.461  0.2535  0.3181 -0.4663
  801MOL0     C 8025   7.738   5.828   7.479 -1.0533  0.7714  0.1972
  801MOL0     C 8026   7.869   5.885   7.506  1.3114  0.0777 -0.0321
  801MOL0     C 8027   7.889   6.014   7.540  0.0542  0.0645  0.0875
  801MOL0     C 8028   8.033   6.047   7.569 -0.6051 -0.9680 -0.0364
  801MOL0     C 8029   7.775   6.101   7.552 -0.0204 -0.9250 -0.6479
  801MOL0     C 8030   7.791   6.246   7.563  0.4288  0.0718  0.7269
  801MOL0     O 8031   7.685   6.314   7.614  0.5440  0.0412 -0.4129
  801MOL0     C 8032   7.718   6.443   7.644  0.4432  0.4146  0.5207
  801MOL0     C 8033   7.759   6.473   7.777 -0.5622  1.0090  0.4942
  801MOL0     C 8034   7.790   6.605   7.811 -0.2378  0.1723 -0.2059
  801MOL0     C 8035   7.777   6.718   7.725  1.4940 -0.4093 -0.2278
  801MOL0     O 8036   7.794   6.851   7.768  0.1908 -0.3121  0.3010
  801MOL0     C 8037   7.714   6.897   7.875 -0.8476  0.4349  0.0376
  801MOL0     C 8038   7.657   7.041   7.857 -0.0388 -0.4089 -0.2451
  801MOL0     C 8039   7.519   7.054   7.923  0.6506  0.1542 -0.1653
  801MOL0     C 8040   7.523   7.157   8.038  0.1285 -0.7053  0.0957
  801MOL0     C 8041   7.387   7.151   8.108  0.2820 -0.0324  0.1268
  801MOL0     C 8042   7.272   7.173   8.003 -0.9901 -1.0774  0.0575
  801MOL0     C 8043   7.134   7.161   8.078 -0.2260  0.1066 -0.6882
  801MOL0     C 8044   7.097   7.283   8.164 -0.3084 -0.1747 -0.3069
  801MOL0    Cl 8045   6.957   7.239   8.267 -0.0403  0.0646 -0.1449
  801MOL0     C 8046   7.734   6.679   7.590  0.5200  0.6373  0.3678
  801MOL0     C 8047   7.703   6.545   7.550 -0.8019  0.3796  0.0959
  801MOL0     O 8048   7.885   6.301   7.506 -0.7717 -0.3521 -0.4619
  801MOL0     C 8049   7.652   6.046   7.534 -0.3463  0.7142  0.0772
  801MOL0     C 8050   7.634   5.910   7.506 -0.2700  0.6285  0.3910
  801MOL0     N 8051   7.291   5.483   8.002  0.9878 -0.9027  0.2304
  801MOL0     N 8052   7.238   5.551   8.095  0.8775 -0.4786 -0.1461
  801MOL0     C 8053   6.611   5.375   8.406  0.0399 -0.7124 -0.2372
  801MOL0     C 8054   6.609   5.264   8.502 -0.1170  0.6709  0.5214
  801MOL0     C 8055   6.556   4.949   8.809 -0.2926  0.3131  0.4205
  801MOL0     C 8056   6.426   4.956   8.851 -0.8482  0.0829 -0.3565
  801MOL0     C 8057   6.376   4.845   8.929 -0.2101  0.3180  0.5791
  801MOL0     C 8058   6.450   4.723   8.961 -0.4065  0.2323  0.6485
  801MOL0     O 8059   6.427   4.609   9.045 -0.1893  0.0102 -0.1346
  801MOL0     C 8060   6.292   4.592   9.072  0.6816  0.6844  0.6937
  801MOL0     C 8061   6.295   4.494   9.193  0.2916  0.4526 -0.0843
  801MOL0     C 8062   6.280   4.569   9.317  0.1182  0.1460  0.2879
  801MOL0     C 8063   6.135   4.571   9.354 -0.1898 -0.0722  0.4694
  801MOL0     C 8064   6.043   4.616   9.253 -0.3690  0.0994 -0.0092
  801MOL0     C 8065   5.958   4.646   9.174 -0.7828  0.1471 -0.1658
  801MOL0     C 8066   6.579   4.724   8.917  0.7278 -0.4399 -0.8154
  801MOL0     C 8067   6.625   4.829   8.835  0.7041 -0.4781 -0.1841
  801MOL0     H 8068   6.516   5.426   8.779 -1.9730  3.2004 -1.4114
  801MOL0     H 8069   6.547   5.608   8.643  0.3086  0.1593 -1.8985
  801MOL0     H 8070   6.472   5.748   8.452 -0.8311 -1.0565 -1.6011
  801MOL0     H 8071   6.630   5.756   8.510 -2.2191  0.7554  0.6125
  801MOL0     H 8072   6.542   5.797   8.222 -3.2979  0.1983  2.2252
  801MOL0     H 8073   6.574   5.923   8.340  0.5478  1.0474 -0.2977
  801MOL0     H 8074   6.813   5.827   8.364  2.6776 -1.7028 -0.9086
  801MOL0     H 8075   6.784   5.729   8.234 -1.7032  0.0907 -0.7104
  801MOL0     H 8076   6.743   5.918   8.085 -0.2492 -0.0576 -1.1127
  801MOL0     H 8077   6.733   6.031   8.220  0.5063  0.5781 -1.8948
  801MOL0     H 8078   6.953   6.050   8.099  0.1951 -1.4149 -1.4191
  801MOL0     H 8079   6.969   6.037   8.270  0.5842 -0.7805  0.2029
  801MOL0     H 8080   7.005   5.815   8.248 -2.6675  0.0996  0.0806
  801MOL0     H 8081   7.008   5.797   8.073  0.2439  0.7827 -0.3519
  801MOL0     H 8082   7.203   5.957   8.074 -0.2634  0.5452  0.9648
  801MOL0     H 8083   7.205   5.960   8.250  1.4645 -0.1663 -0.8717
  801MOL0     H 8084   7.225   5.728   8.275 -0.8377 -1.7122 -1.3897
  801MOL0     H 8085   7.375   5.800   8.208  0.8512 -3.8563 -0.7971
  801MOL0     H 8086   7.406   5.782   7.930  2.8319 -1.3963  0.3894
  801MOL0     H 8087   7.455   5.415   7.827 -0.8235 -0.8216 -1.7177
  801MOL0     H 8088   7.362   5.530   7.714  0.8979  1.6588  0.7984
  801MOL0     H 8089   7.635   5.579   7.832 -3.8534  2.0648  2.5729
  801MOL0     H 8090   7.543   5.704   7.748  0.2816  0.2067 -0.2091
  801MOL0     H 8091   7.521   5.558   7.541  0.6215  0.4173 -1.6607
  801MOL0     H 8092   7.619   5.435   7.633  0.4381  0.1405  1.6844
  801MOL0     H 8093   7.806   5.533   7.552 -1.8552 -1.4530  0.1885
  801MOL0     H 8094   7.777   5.671   7.653  1.0670 -2.5265  0.3868
  801MOL0     H 8095   7.955   5.822   7.483 -0.6911 -1.9765 -2.5478
  801MOL0     H 8096   8.058   6.135   7.510 -1.3698 -0.0932  0.9081
  801MOL0     H 8097   8.051   6.071   7.674  2.3534  2.5269 -1.1178
  801MOL0     H 8098   8.099   5.962   7.549 -1.3785 -1.9555  1.4884
  801MOL0     H 8099   7.750   6.398   7.855 -0.9731  0.8404  0.2890
  801MOL0     H 8100   7.814   6.624   7.915 -0.9691 -0.9496  0.1863
  801MOL0     H 8101   7.629   6.827   7.880  0.3668 -1.0835  0.2017
  801MOL0     H 8102   7.767   6.887   7.970 -1.6335 -5.3280  0.2113
  801MOL0     H 8103   7.732   7.110   7.896 -2.4725  2.2246  0.1392
  801MOL0     H 8104   7.644   7.060   7.749  0.3498  0.4301 -0.1503
  801MOL0     H 8105   7.478   6.961   7.964 -2.4986  1.4605 -0.0929
  801MOL0     H 8106   7.457   7.094   7.842  1.0852  0.0859 -0.5364
  801MOL0     H 8107   7.598   7.109   8.101 -0.1659 -2.3636 -0.7535
  801MOL0     H 8108   7.555   7.254   8.000  0.4834 -0.6386  0.5549
  801MOL0     H 8109   7.387   7.219   8.194 -3.4728 -2.9015  2.7195
  801MOL0     H 8110   7.380   7.060   8.168 -1.4114  1.7975  2.9667
  801MOL0     H 8111   7.291   7.266   7.948  2.1796 -2.6323 -1.7520
  801MOL0     H 8112   7.254   7.098   7.926 -2.6602 -1.2681  0.5840
  801MOL0     H 8113   7.119   7.073   8.141 -3.0987  0.3969 -0.8144
  801MOL0     H 8114   7.061   7.143   7.999 -0.7909 -0.9837  0.0640
  801MOL0     H 8115   7.092   7.378   8.111  4.6153  1.3657  1.4887
  801MOL0     H 8116   7.174   7.276   8.241 -0.9360 -1.3708  0.2482
  801MOL0     H 8117   7.701   6.759   7.525  0.1009  1.2749  1.3395
  801MOL0     H 8118   7.665   6.509   7.454  0.7296 -1.6709  0.2002
  801MOL0     H 8119   7.566   6.111   7.551 -1.1162 -0.2423 -0.1120
  801MOL0     H 8120   7.535   5.869   7.489  0.2230 -0.5827  0.3911
  801MOL0     H 8121   6.624   5.369   8.298 -3.8600  1.9054 -1.0689
  801MOL0     H 8122   6.629   5.163   8.469 -1.4920  0.9519 -1.3791
  801MOL0     H 8123   6.364   5.044   8.838  1.1974  1.4818 -1.1223
  801MOL0     H 8124   6.274   4.864   8.961 -0.1802 -0.9881  1.5401
  801MOL0     H 8125   6.244   4.687   9.094  1.2084  1.0961  0.1009
  801MOL0     H 8126   6.260   4.545   8.978  0.2018  1.9712  0.1866
  801MOL0     H 8127   6.380   4.425   9.189 -2.3351 -3.3190  2.6520
  801MOL0     H 8128   6.206   4.434   9.175  0.7753 -0.6280  0.9963
  801MOL0     H 8129   6.331   4.666   9.307  1.0395 -0.4782 -1.5320
  801MOL0     H 8130   6.332   4.516   9.398 -0.3520 -0.6253  0.0928
  801MOL0     H 8131   6.124   4.636   9.441 -0.2480 -3.6647  3.3644
  801MOL0     H 8132   6.101   4.477   9.397 -1.9635  0.5766  0.5856
  801MOL0     H 8133   5.885   4.673   9.101  1.9678  2.6429 -2.2342
  801MOL0     H 8134   6.646   4.640   8.935  1.2530  0.2138  0.4148
  801MOL0     H 8135   6.727   4.823   8.798  2.1590  0.6803  3.2040
  802MOL0     O 8136   2.775   6.575   2.436  0.3628 -0.8292  0.9224
  802MOL0     C 8137   2.813   6.658   2.520  0.4656 -0.5723  0.3697
  802MOL0     O 8138   2.751   6.679   2.634 -0.0631 -0.1070 -0.0495
  802MOL0     C 8139   2.645   6.596   2.648 -0.1497  0.0085 -0.5854
  802MOL0     C 8140   2.522   6.605   2.579 -0.3758 -0.4152  0.2017
  802MOL0     C 8141   2.411   6.537   2.615 -0.7319  0.5931 -0.0126
  802MOL0     C 8142   2.412   6.451   2.726  0.0610 -0.0809  0.8915
  802MOL0     O 8143   2.296   6.378   2.757 -0.2345 -0.7593  0.7240
  802MOL0     C 8144   2.184   6.460   2.788 -0.5954 -1.0966 -0.6314
  802MOL0     C 8145   2.116   6.433   2.925  0.1202  0.3318  0.1731
  802MOL0     C 8146   2.047   6.297   2.908  0.3715 -0.0431 -0.9260
  802MOL0     C 8147   1.992   6.258   3.053  0.0567 -0.0084  0.3058
  802MOL0     C 8148   1.871   6.166   3.031 -0.3899  0.6634  0.2445
  802MOL0     C 8149   1.743   6.246   2.979  0.0552  0.5964 -0.7870
  802MOL0     C 8150   1.669   6.319   3.102  0.5154  0.0879 -0.1977
  802MOL0     C 8151   1.574   6.235   3.188 -0.3732  0.9655 -0.0712
  802MOL0     N 8152   1.443   6.210   3.125  0.6235  0.9191 -0.1699
  802MOL0     C 8153   1.337   6.294   3.122  0.6739  0.0406  0.1305
  802MOL0     C 8154   1.235   6.231   3.065  0.2943  0.1761  0.1146
  802MOL0     C 8155   1.092   6.286   3.052  0.5758 -0.4418  0.3125
  802MOL0     C 8156   1.091   6.377   2.924 -0.3107 -0.6478 -0.6717
  802MOL0     C 8157   1.140   6.522   2.962  0.8168  1.4362 -0.5819
  802MOL0     C 8158   1.103   6.622   2.850  0.3394  0.0528 -0.6660
  802MOL0     O 8159   1.158   6.606   2.719  0.2763  0.0642  0.2374
  802MOL0     C 8160   1.242   6.701   2.664  0.0751 -0.3563 -0.8086
  802MOL0     C 8161   1.223   6.746   2.534  0.6231  1.0926 -0.0554
  802MOL0     C 8162   1.296   6.842   2.467  0.7135 -0.7793 -0.3160
  802MOL0     C 8163   1.258   6.878   2.322  0.0748 -0.4598 -0.4033
  802MOL0     C 8164   1.402   6.892   2.544 -0.5401 -0.6822  0.4989
  802MOL0     C 8165   1.503   6.988   2.492  0.8828 -0.2753  0.3798
  802MOL0     O 8166   1.604   7.016   2.579  0.9237  0.6653 -0.6238
  802MOL0     C 8167   1.733   7.059   2.553 -0.2407  0.6580  0.7599
  802MOL0     C 8168   1.802   7.107   2.666  0.6966 -0.3389 -0.3622
  802MOL0     C 8169   1.935   7.140   2.659 -0.3710  0.2947  0.1808
  802MOL0     C 8170   1.997   7.134   2.534 -0.4051 -0.4445 -0.7819
  802MOL0     O 8171   2.131   7.158   2.522  0.3517 -0.2280 -0.2063
  802MOL0     C 8172   2.154   7.291   2.570 -0.3553 -0.1363 -0.5188
  802MOL0     C 8173   2.291   7.316   2.533 -0.0451  0.0524  0.1241
  802MOL0     C 8174   2.348   7.446   2.590  0.3775  0.4382 -0.0985
  802MOL0     C 8175   2.495   7.435   2.630 -0.0082  1.0569  0.3970
  802MOL0     C 8176   2.552   7.573   2.656  0.3009 -0.4505 -0.8511
  802MOL0     C 8177   2.673   7.572   2.753 -0.2515  0.4478  0.8932
  802MOL0     C 8178   2.716   7.712   2.800 -0.3205  0.2438 -0.0267
  802MOL0     C 8179   2.858   7.726   2.868  0.4267 -0.2683  0.2476
  802MOL0    Cl 8180   2.993   7.680   2.746  0.4545  0.0646 -0.2357
  802MOL0     C 8181   1.927   7.099   2.425  1.0644  0.6326  0.0899
  802MOL0     C 8182   1.796   7.064   2.424  0.3358  0.6999 -0.1599
  802MOL0     O 8183   1.504   7.019   2.371  0.6137 -0.6240 -0.4002
  802MOL0     C 8184   1.430   6.845   2.670  1.1605 -0.2734  0.2620
  802MOL0     C 8185   1.349   6.753   2.728  0.4382  0.0754  0.7376
  802MOL0     N 8186   1.280   6.109   3.018  0.4020  0.3280 -0.6635
  802MOL0     N 8187   1.400   6.094   3.067 -0.2695 -0.4410  0.0788
  802MOL0     C 8188   2.523   6.442   2.794  0.3852 -0.7354 -0.2820
  802MOL0     C 8189   2.635   6.521   2.767 -0.3183  0.3366 -0.2824
  802MOL0     C 8190   2.943   6.730   2.494  0.5247 -0.2711 -0.4089
  802MOL0     C 8191   3.009   6.729   2.363 -1.0018 -0.7429  0.6283
  802MOL0     C 8192   3.141   6.774   2.356 -0.8544 -0.2544  0.2922
  802MOL0     C 8193   3.209   6.822   2.472  0.8684 -0.2839  0.6335
  802MOL0     O 8194   3.335   6.879   2.462  0.5407 -0.3230 -0.3717
  802MOL0     C 8195   3.384   6.925   2.337  0.7118  0.5294 -0.3850
  802MOL0     C 8196   3.537   6.942   2.345  0.7814  0.8765  0.3461
  802MOL0     C 8197   3.593   6.989   2.215 -0.3866  0.6961 -0.5262
  802MOL0     C 8198   3.559   7.133   2.162 -0.2275 -0.3365 -0.6494
  802MOL0     C 8199   3.648   7.169   2.044  0.1615 -0.8487 -0.3401
  802MOL0     C 8200   3.733   7.202   1.955 -0.1604  0.5336 -0.5726
  802MOL0     C 8201   3.142   6.823   2.599  0.4424  1.1473  0.5106
  802MOL0     C 8202   3.008   6.784   2.606 -0.1346  0.6905  0.0693
  802MOL0     H 8203   2.519   6.667   2.490 -0.3199  1.5335  1.5028
  802MOL0     H 8204   2.316   6.549   2.563  0.2588  1.3042 -1.7509
  802MOL0     H 8205   2.228   6.560   2.795 -3.4103  0.3284 -1.3412
  802MOL0     H 8206   2.113   6.474   2.705 -3.8040 -0.0038  2.0512
  802MOL0     H 8207   2.192   6.419   3.002  0.0567  2.8866  0.8118
  802MOL0     H 8208   2.037   6.508   2.934 -1.1735 -0.9375 -0.2851
  802MOL0     H 8209   1.960   6.317   2.845 -0.8430  0.6429  0.9000
  802MOL0     H 8210   2.101   6.218   2.856  0.1407 -0.0863 -1.1030
  802MOL0     H 8211   2.068   6.206   3.113 -0.5475  0.8580  1.8708
  802MOL0     H 8212   1.956   6.345   3.108 -2.3187 -1.7691  1.7274
  802MOL0     H 8213   1.904   6.094   2.955  1.1091  3.1015 -1.5728
  802MOL0     H 8214   1.840   6.112   3.120 -1.2141  3.6054  1.8862
  802MOL0     H 8215   1.777   6.325   2.911  2.0193 -1.2020 -2.0311
  802MOL0     H 8216   1.671   6.198   2.913 -0.7013  4.5475 -3.1580
  802MOL0     H 8217   1.739   6.358   3.177 -2.1340  0.7080  2.1099
  802MOL0     H 8218   1.611   6.401   3.059 -0.2534  0.9098  2.2690
  802MOL0     H 8219   1.554   6.290   3.280  0.4759  0.7195  0.2729
  802MOL0     H 8220   1.613   6.138   3.220  1.1349  1.5468 -0.0717
  802MOL0     H 8221   1.339   6.399   3.146  1.2509  0.0204  0.1814
  802MOL0     H 8222   1.027   6.199   3.044  0.1102 -0.0584 -0.1374
  802MOL0     H 8223   1.057   6.353   3.131  0.0652  2.0289 -1.8690
  802MOL0     H 8224   0.993   6.373   2.876 -0.1582 -0.2308 -1.0207
  802MOL0     H 8225   1.153   6.328   2.849  0.0335 -3.8140  1.4620
  802MOL0     H 8226   1.244   6.524   2.998 -0.0137 -1.2143  2.4516
  802MOL0     H 8227   1.081   6.563   3.045  0.9569 -0.3022  0.4244
  802MOL0     H 8228   1.137   6.719   2.890  2.0278 -1.5791  2.1978
  802MOL0     H 8229   0.994   6.607   2.845  0.4963 -0.9316 -1.2250
  802MOL0     H 8230   1.140   6.698   2.482 -0.0415  0.6514  1.3523
  802MOL0     H 8231   1.177   6.811   2.291 -0.6307  0.7085 -1.1567
  802MOL0     H 8232   1.233   6.984   2.311 -1.5936 -0.8012 -0.1485
  802MOL0     H 8233   1.349   6.851   2.267  3.1025  4.1431  1.7795
  802MOL0     H 8234   1.760   7.097   2.766 -1.8512  2.3385 -1.0285
  802MOL0     H 8235   1.986   7.169   2.751 -0.8250  2.3724 -0.1640
  802MOL0     H 8236   2.084   7.359   2.521  1.7062  3.3517  1.0190
  802MOL0     H 8237   2.137   7.295   2.678 -1.7921 -0.3186 -0.7157
  802MOL0     H 8238   2.364   7.237   2.553 -0.8051 -1.6323 -2.9911
  802MOL0     H 8239   2.294   7.313   2.423  0.4831 -1.7651  0.1485
  802MOL0     H 8240   2.297   7.472   2.683 -0.5261 -0.8567 -0.2022
  802MOL0     H 8241   2.337   7.518   2.509  0.7027  4.4880  3.1499
  802MOL0     H 8242   2.515   7.367   2.713  0.9871  0.2913 -0.4465
  802MOL0     H 8243   2.552   7.396   2.545  2.5615  6.0621 -0.5436
  802MOL0     H 8244   2.479   7.627   2.718  0.2079 -1.6969  0.1795
  802MOL0     H 8245   2.586   7.633   2.572  1.7931  0.6063  0.4348
  802MOL0     H 8246   2.658   7.511   2.842 -0.5621 -3.1264 -1.3962
  802MOL0     H 8247   2.754   7.527   2.695 -1.9907 -0.4833 -0.9406
  802MOL0     H 8248   2.652   7.744   2.883 -0.6934  4.6336 -1.7047
  802MOL0     H 8249   2.715   7.785   2.718  1.0179  0.1958 -0.1103
  802MOL0     H 8250   2.874   7.664   2.957  1.2866  0.3737  0.5591
  802MOL0     H 8251   2.874   7.833   2.887 -1.1302 -0.1234  0.8842
  802MOL0     H 8252   1.981   7.118   2.332  1.3133  1.1382  0.3352
  802MOL0     H 8253   1.752   7.042   2.327 -0.0148  0.4458  0.0537
  802MOL0     H 8254   1.518   6.876   2.725  0.4507 -0.1351  1.3512
  802MOL0     H 8255   1.387   6.699   2.814  2.8166 -0.1128 -0.3324
  802MOL0     H 8256   2.518   6.385   2.886 -0.7232  0.2947  0.3332
  802MOL0     H 8257   2.722   6.513   2.832 -1.5197  3.4904  1.9424
  802MOL0     H 8258   2.964   6.690   2.273  0.9541  0.0078 -0.7507
  802MOL0     H 8259   3.195   6.773   2.262 -1.1507 -1.3569  0.1274
  802MOL0     H 8260   3.380   6.849   2.258 -0.3815 -2.2349  2.1137
  802MOL0     H 8261   3.340   7.019   2.306 -4.3335 -1.6261 -0.7108
  802MOL0     H 8262   3.593   6.852   2.372  1.8634  0.9411 -1.4919
  802MOL0     H 8263   3.549   7.026   2.414  1.3029  0.3296  0.9291
  802MOL0     H 8264   3.576   6.909   2.142 -1.1808  1.4004 -1.1331
  802MOL0     H 8265   3.699   6.988   2.242 -0.1715  0.4179 -1.3448
  802MOL0     H 8266   3.560   7.202   2.247 -2.7084 -0.9389 -0.0718
  802MOL0     H 8267   3.457   7.123   2.126 -1.3122  0.5222  1.9530
  802MOL0     H 8268   3.796   7.248   1.882 -3.7148  3.2136 -2.2830
  802MOL0     H 8269   3.172   6.871   2.692  0.5690  2.3166 -0.1063
  802MOL0     H 8270   2.959   6.788   2.702 -1.4748 -0.2470 -0.5322
  803MOL0     O 8271   1.370   0.486   5.997 -0.3922  0.7103  0.1660
  803MOL0     C 8272   1.481   0.494   6.046 -0.5939  0.0718  0.0028
  803MOL0     O 8273   1.571   0.600   6.029  0.0297 -1.1195 -0.1112
  803MOL0     C 8274   1.534   0.711   5.946 -0.1056  0.6540  0.4844
  803MOL0     C 8275   1.641   0.776   5.896 -0.5084 -0.8602  0.1854
  803MOL0     C 8276   1.629   0.881   5.805  0.0211 -0.0678  0.1289
  803MOL0     C 8277   1.497   0.945   5.782 -0.0835 -0.3779  0.3322
  803MOL0     O 8278   1.474   1.051   5.698  0.3710  0.7626 -0.3039
  803MOL0     C 8279   1.554   1.045   5.572  0.0544  0.3629 -0.1764
  803MOL0     C 8280   1.673   1.144   5.604  0.6698  0.1108 -0.3291
  803MOL0     C 8281   1.631   1.289   5.620  0.0339  0.0453 -0.5413
  803MOL0     C 8282   1.595   1.314   5.764 -0.0892 -0.2608  0.1750
  803MOL0     C 8283   1.558   1.460   5.788  0.4842 -0.0683 -0.1098
  803MOL0     C 8284   1.679   1.551   5.749 -0.4534  0.2270  0.0082
  803MOL0     C 8285   1.673   1.686   5.800  0.5614 -1.0204 -0.1409
  803MOL0     C 8286   1.545   1.770   5.791  0.3268 -0.0175 -0.7535
  803MOL0     N 8287   1.505   1.791   5.652  0.7497  0.5030 -0.5246
  803MOL0     C 8288   1.581   1.844   5.549 -0.3054  0.3429  0.2034
  803MOL0     C 8289   1.511   1.823   5.440 -0.2229  0.3298  0.8146
  803MOL0     C 8290   1.528   1.891   5.301  0.8736  1.0831  0.2187
  803MOL0     C 8291   1.654   1.838   5.227 -0.0350  0.6670 -0.1680
  803MOL0     C 8292   1.636   1.865   5.077 -0.0045 -0.6765 -0.4650
  803MOL0     C 8293   1.643   2.020   5.047  0.6066  0.9645 -0.1949
  803MOL0     O 8294   1.514   2.078   5.067  0.4485  0.1378 -0.6555
  803MOL0     C 8295   1.507   2.210   5.065  0.0825 -0.9047 -0.4612
  803MOL0     C 8296   1.419   2.272   4.984  0.7720  0.1615  0.4375
  803MOL0     C 8297   1.413   2.411   4.984 -0.4383 -0.8468 -0.2572
  803MOL0     C 8298   1.335   2.471   4.862  0.3112  0.6672  0.3081
  803MOL0     C 8299   1.502   2.490   5.072 -0.1096 -0.2497  0.5375
  803MOL0     C 8300   1.505   2.633   5.084 -0.1944  0.0130  0.3435
  803MOL0     O 8301   1.582   2.692   5.176  0.8574  0.2451 -0.2043
  803MOL0     C 8302   1.552   2.823   5.214  0.2864  0.4558  0.4216
  803MOL0     C 8303   1.615   2.924   5.137  0.1237  0.0588 -0.2589
  803MOL0     C 8304   1.607   3.054   5.179 -0.3831  0.4578  1.3748
  803MOL0     C 8305   1.559   3.092   5.303 -0.4629 -0.3141 -0.0098
  803MOL0     O 8306   1.570   3.225   5.353 -1.1088  0.1270  0.5060
  803MOL0     C 8307   1.612   3.244   5.493 -0.7431  0.3172 -0.3397
  803MOL0     C 8308   1.562   3.384   5.543  0.1066 -0.6508 -0.5218
  803MOL0     C 8309   1.414   3.385   5.553 -0.5783 -0.3210 -0.7105
  803MOL0     C 8310   1.361   3.457   5.685  0.0476 -0.2571 -1.1080
  803MOL0     C 8311   1.216   3.472   5.709  0.1001 -0.0170  0.2806
  803MOL0     C 8312   1.187   3.529   5.838 -0.8717 -0.6622  0.0711
  803MOL0     C 8313   1.034   3.494   5.876 -0.5587  0.4124  0.5543
  803MOL0     C 8314   0.999   3.575   5.994 -1.1340 -1.5288 -0.5256
  803MOL0    Cl 8315   0.867   3.522   6.080  0.3444  0.2271  0.1441
  803MOL0     C 8316   1.511   2.986   5.384  0.7633 -0.4923 -0.4396
  803MOL0     C 8317   1.503   2.858   5.341 -0.3787  0.4324 -0.0073
  803MOL0     O 8318   1.440   2.698   4.999 -0.4549  0.1910  0.0591
  803MOL0     C 8319   1.574   2.415   5.171 -0.6606 -0.6106 -0.4865
  803MOL0     C 8320   1.585   2.272   5.159  0.0231 -0.5149  0.8191
  803MOL0     N 8321   1.385   1.770   5.472 -1.1351  0.5464 -0.3806
  803MOL0     N 8322   1.391   1.751   5.602  0.2305  0.5983  0.0807
  803MOL0     C 8323   1.393   0.876   5.841  0.2986  0.3011  0.1125
  803MOL0     C 8324   1.407   0.760   5.917  0.5513  0.4431  0.2325
  803MOL0     C 8325   1.514   0.390   6.147  0.0727 -0.6565 -0.2700
  803MOL0     C 8326   1.451   0.264   6.144 -0.0634 -0.0257  0.3430
  803MOL0     C 8327   1.478   0.176   6.250 -1.4525  0.1605 -1.1698
  803MOL0     C 8328   1.558   0.203   6.360  0.1348 -0.0799  0.0513
  803MOL0     O 8329   1.590   0.121   6.457 -0.2063  0.6248 -0.0681
  803MOL0     C 8330   1.494   0.023   6.491 -0.3009 -0.7725 -0.4197
  803MOL0     C 8331   1.511  -0.014   6.638  0.1886 -0.9449 -0.4129
  803MOL0     C 8332   1.640  -0.083   6.668  0.0084  0.1028  0.0672
  803MOL0     C 8333   1.647  -0.136   6.815  0.1916 -0.5066  0.1559
  803MOL0     C 8334   1.782  -0.185   6.851  0.5383  1.7496  0.2295
  803MOL0     C 8335   1.889  -0.232   6.872  0.9796  0.5480  0.0798
  803MOL0     C 8336   1.610   0.331   6.368 -0.2162 -0.2600  0.0266
  803MOL0     C 8337   1.596   0.422   6.255 -0.0211  0.5847  0.2008
  803MOL0     H 8338   1.745   0.748   5.909 -0.7812 -1.0593  2.1015
  803MOL0     H 8339   1.720   0.909   5.752 -0.6360  0.3427 -0.8227
  803MOL0     H 8340   1.596   0.948   5.544 -0.6404  0.8086 -3.0498
  803MOL0     H 8341   1.506   1.090   5.486  0.0833  1.1295  0.1990
  803MOL0     H 8342   1.712   1.124   5.705 -1.3409 -0.1025  0.4499
  803MOL0     H 8343   1.749   1.153   5.526  0.6261  1.5179 -0.2268
  803MOL0     H 8344   1.714   1.350   5.582  0.4244  0.2619  0.6219
  803MOL0     H 8345   1.534   1.300   5.571 -0.4451  1.3041  0.6277
  803MOL0     H 8346   1.505   1.257   5.786  0.4145 -0.1889  2.7388
  803MOL0     H 8347   1.671   1.277   5.834 -1.0585 -3.8773 -0.4705
  803MOL0     H 8348   1.466   1.487   5.735 -0.3118  0.4550  1.4520
  803MOL0     H 8349   1.522   1.492   5.886  2.4901  5.5396 -0.8279
  803MOL0     H 8350   1.773   1.498   5.764 -1.2927 -1.2193  0.3663
  803MOL0     H 8351   1.661   1.554   5.642  1.7765 -0.9498 -0.4600
  803MOL0     H 8352   1.702   1.671   5.905  3.0847 -4.1200 -1.1031
  803MOL0     H 8353   1.746   1.740   5.741 -0.5923 -0.0565 -0.7275
  803MOL0     H 8354   1.566   1.869   5.834 -2.1042 -0.1593  0.9792
  803MOL0     H 8355   1.459   1.727   5.843 -0.9334  1.5720 -1.4295
  803MOL0     H 8356   1.656   1.920   5.567  0.1355 -0.3951  1.6947
  803MOL0     H 8357   1.437   1.881   5.242  2.4577  0.2241 -2.2207
  803MOL0     H 8358   1.534   1.996   5.329 -2.2237  1.2302  0.7559
  803MOL0     H 8359   1.663   1.731   5.245 -0.9288  1.0147  2.9119
  803MOL0     H 8360   1.742   1.894   5.262 -1.7253  4.0030 -0.8919
  803MOL0     H 8361   1.537   1.832   5.044  0.0490 -0.6613 -0.6425
  803MOL0     H 8362   1.717   1.811   5.029 -0.0336 -0.9833 -0.1679
  803MOL0     H 8363   1.666   2.032   4.941 -0.1813 -4.3441 -1.2676
  803MOL0     H 8364   1.722   2.074   5.100  0.8909  2.3692 -1.9657
  803MOL0     H 8365   1.363   2.208   4.917  2.7355  1.1770 -2.3725
  803MOL0     H 8366   1.259   2.398   4.834  0.3984  0.1921  1.2442
  803MOL0     H 8367   1.288   2.568   4.881  2.4394  2.0263 -0.8848
  803MOL0     H 8368   1.404   2.484   4.778 -0.1006 -0.1773 -0.1700
  803MOL0     H 8369   1.651   2.902   5.038  1.8712  2.0422 -0.1509
  803MOL0     H 8370   1.646   3.131   5.114 -2.5123  1.2839  0.9966
  803MOL0     H 8371   1.581   3.159   5.555  0.0494  1.1193  1.2159
  803MOL0     H 8372   1.721   3.250   5.491 -0.8056  1.6703 -1.2990
  803MOL0     H 8373   1.616   3.402   5.636  0.3095 -0.0602 -0.7455
  803MOL0     H 8374   1.595   3.456   5.467 -0.9407 -1.1341 -1.4601
  803MOL0     H 8375   1.382   3.281   5.541 -0.0252 -0.7812  1.3807
  803MOL0     H 8376   1.379   3.438   5.465  1.6494  1.7762 -0.4461
  803MOL0     H 8377   1.403   3.413   5.776  0.3082 -0.0722 -1.1373
  803MOL0     H 8378   1.393   3.562   5.687 -1.3996  0.2136 -1.2217
  803MOL0     H 8379   1.176   3.372   5.691 -0.0181  0.3731 -1.8674
  803MOL0     H 8380   1.157   3.529   5.637 -1.0319 -0.0943  1.1122
  803MOL0     H 8381   1.253   3.490   5.916  3.2789  4.5423 -0.2696
  803MOL0     H 8382   1.205   3.637   5.837  0.9047 -0.8660 -2.8475
  803MOL0     H 8383   1.043   3.387   5.897  2.4759  0.5732  0.5634
  803MOL0     H 8384   0.966   3.521   5.795 -0.1687  0.7700  0.3434
  803MOL0     H 8385   0.985   3.681   5.969 -0.4433 -1.4692 -0.6939
  803MOL0     H 8386   1.088   3.576   6.058 -2.4190 -0.7304  1.3313
  803MOL0     H 8387   1.471   3.010   5.482 -1.7529 -0.6152 -1.3657
  803MOL0     H 8388   1.447   2.784   5.397 -1.3602  0.0564 -1.4277
  803MOL0     H 8389   1.625   2.470   5.249 -1.1966  4.2377 -3.0803
  803MOL0     H 8390   1.640   2.204   5.224 -0.7768 -3.2487 -1.1642
  803MOL0     H 8391   1.293   0.909   5.812  0.0140  0.6416  1.3901
  803MOL0     H 8392   1.319   0.728   5.972  0.3724  1.1485  0.3723
  803MOL0     H 8393   1.381   0.246   6.062 -0.7472  0.2281  0.8585
  803MOL0     H 8394   1.435   0.077   6.239  2.0294 -1.5034 -1.0255
  803MOL0     H 8395   1.396   0.068   6.477 -0.1170 -0.2560 -0.1228
  803MOL0     H 8396   1.509  -0.063   6.425  0.5576  0.8154 -2.4171
  803MOL0     H 8397   1.438  -0.089   6.670 -0.6431  0.8508  2.2646
  803MOL0     H 8398   1.485   0.076   6.695 -0.7520 -1.3474 -0.1938
  803MOL0     H 8399   1.731  -0.023   6.658 -0.5876  0.6753 -2.8918
  803MOL0     H 8400   1.665  -0.162   6.596  1.0757  3.1837 -3.2442
  803MOL0     H 8401   1.577  -0.220   6.823  0.1474 -0.4750  0.1004
  803MOL0     H 8402   1.639  -0.053   6.885  2.9785  1.4310 -1.6166
  803MOL0     H 8403   1.983  -0.279   6.897 -0.4668 -3.4993 -1.3054
  803MOL0     H 8404   1.678   0.359   6.448  0.9949  0.6361 -1.2615
  803MOL0     H 8405   1.641   0.521   6.256 -1.5522  1.5149 -3.4275
  804MOL0     O 8406   3.183   0.344   5.925  0.2951  0.0548 -0.2657
  804MOL0     C 8407   3.184   0.370   6.049 -0.0556 -0.6241  0.0208
  804MOL0     O 8408   3.287   0.433   6.112  0.0405  0.1952 -0.0980
  804MOL0     C 8409   3.392   0.461   6.030 -0.3375  0.6094 -0.6940
  804MOL0     C 8410   3.392   0.567   5.938 -0.4855 -0.6326 -1.1705
  804MOL0     C 8411   3.506   0.605   5.864  0.0297  0.4327  0.6081
  804MOL0     C 8412   3.617   0.529   5.877  0.6563 -0.1516 -0.1867
  804MOL0     O 8413   3.730   0.585   5.810  0.1867  0.3102  0.0697
  804MOL0     C 8414   3.840   0.507   5.767 -0.7796  0.4361 -0.6144
  804MOL0     C 8415   3.972   0.586   5.812  0.5849 -0.5541  0.1697
  804MOL0     C 8416   4.072   0.488   5.879  0.4246 -0.6428 -0.5135
  804MOL0     C 8417   4.191   0.554   5.932 -0.4890 -0.2987  0.4357
  804MOL0     C 8418   4.297   0.459   5.967  0.0057  1.1168  0.9036
  804MOL0     C 8419   4.419   0.527   6.033  0.0377 -0.2021 -0.3410
  804MOL0     C 8420   4.465   0.456   6.157 -0.2105  0.3390  0.0506
  804MOL0     C 8421   4.531   0.328   6.118 -0.1034  0.5465 -1.0698
  804MOL0     N 8422   4.453   0.218   6.065  0.2218  0.3750  0.0880
  804MOL0     C 8423   4.345   0.152   6.118  0.2309 -0.2758  0.2890
  804MOL0     C 8424   4.295   0.063   6.030  1.4959 -0.3255 -0.2723
  804MOL0     C 8425   4.193  -0.034   6.044  0.3753  0.5823 -0.5459
  804MOL0     C 8426   4.054   0.027   6.041 -0.5363  0.7006  1.3259
  804MOL0     C 8427   4.010   0.088   5.907 -0.2471 -0.5865  0.4203
  804MOL0     C 8428   4.003  -0.023   5.807 -0.3481 -0.0386 -0.0709
  804MOL0     O 8429   3.964   0.016   5.671  0.2475  1.2337 -0.6006
  804MOL0     C 8430   4.014   0.133   5.614  0.1690 -0.4903 -0.2638
  804MOL0     C 8431   3.920   0.188   5.529  0.3333 -0.5529 -0.1067
  804MOL0     C 8432   3.946   0.305   5.454  0.1441  0.3574 -0.6371
  804MOL0     C 8433   3.827   0.347   5.370 -0.9225  0.4213  0.1308
  804MOL0     C 8434   4.065   0.379   5.483 -0.8158  0.2108 -0.2173
  804MOL0     C 8435   4.080   0.522   5.426  0.3085 -0.3379  0.3089
  804MOL0     O 8436   4.198   0.588   5.453  0.5137  0.1279 -0.3300
  804MOL0     C 8437   4.219   0.713   5.396 -0.1203 -0.0580 -0.8290
  804MOL0     C 8438   4.352   0.742   5.357 -0.3453 -0.4926  0.9285
  804MOL0     C 8439   4.389   0.879   5.324  0.2545  0.6548  0.1607
  804MOL0     C 8440   4.288   0.973   5.327  0.5009  0.3311 -0.5852
  804MOL0     O 8441   4.328   1.100   5.294 -0.3456  0.6040 -0.3345
  804MOL0     C 8442   4.240   1.203   5.246 -0.0093  0.9063 -0.0259
  804MOL0     C 8443   4.310   1.330   5.202 -0.1090 -0.1230  0.2232
  804MOL0     C 8444   4.412   1.309   5.089  0.3153  0.6175 -0.3332
  804MOL0     C 8445   4.562   1.326   5.127  0.4499 -0.1108 -0.3758
  804MOL0     C 8446   4.605   1.210   5.209 -0.4976 -0.1871  0.6171
  804MOL0     C 8447   4.747   1.201   5.251 -0.4592  0.1768  0.1742
  804MOL0     C 8448   4.777   1.064   5.316  0.1864 -0.1346 -0.8130
  804MOL0     C 8449   4.926   1.040   5.358  0.3692  0.0573 -0.5398
  804MOL0    Cl 8450   4.960   1.152   5.501 -0.3416  0.2778 -0.2463
  804MOL0     C 8451   4.156   0.942   5.369 -0.0410  0.3117  1.0971
  804MOL0     C 8452   4.128   0.811   5.403 -0.3726  0.4561 -0.8198
  804MOL0     O 8453   3.989   0.566   5.362  0.3393 -0.0737  0.0897
  804MOL0     C 8454   4.161   0.327   5.571  0.1220 -0.4929  0.4093
  804MOL0     C 8455   4.136   0.201   5.631 -0.5816  0.0998  0.4126
  804MOL0     N 8456   4.372   0.077   5.913 -0.2193  0.2665 -0.5855
  804MOL0     N 8457   4.466   0.171   5.934  0.2745 -0.1301 -0.3348
  804MOL0     C 8458   3.614   0.412   5.957  0.3599  0.0613 -0.0850
  804MOL0     C 8459   3.503   0.380   6.038  0.0595  0.2424 -0.9166
  804MOL0     C 8460   3.067   0.318   6.139  0.4526 -0.2789  0.0555
  804MOL0     C 8461   2.980   0.220   6.086  0.6314  0.0287 -0.2238
  804MOL0     C 8462   2.869   0.179   6.166 -0.5540 -0.1376  0.0600
  804MOL0     C 8463   2.860   0.222   6.298 -0.7517 -0.1008 -0.2171
  804MOL0     O 8464   2.780   0.147   6.385 -0.9989  0.0527  1.1656
  804MOL0     C 8465   2.806   0.003   6.379  0.3886  0.7374 -0.1968
  804MOL0     C 8466   2.878  -0.049   6.498  1.3804  1.1422  0.8877
  804MOL0     C 8467   2.813   0.005   6.620 -0.3395  0.2527 -0.9540
  804MOL0     C 8468   2.817  -0.092   6.735  0.0546 -0.2313  0.0442
  804MOL0     C 8469   2.820  -0.018   6.865 -0.6771 -0.2661  0.5231
  804MOL0     C 8470   2.798   0.046   6.960 -0.3279 -0.1957  0.3361
  804MOL0     C 8471   2.950   0.317   6.355  0.2974  1.1283 -0.6955
  804MOL0     C 8472   3.050   0.362   6.268 -0.2067 -0.7906  0.3758
  804MOL0     H 8473   3.299   0.622   5.921  0.8135  2.2507  0.3753
  804MOL0     H 8474   3.497   0.671   5.779 -0.5394 -1.0218 -0.5047
  804MOL0     H 8475   3.826   0.404   5.799  0.0128  0.5302  0.0665
  804MOL0     H 8476   3.827   0.502   5.658 -3.1143  0.7702 -0.3983
  804MOL0     H 8477   4.021   0.648   5.736  1.2027 -0.7058  0.4423
  804MOL0     H 8478   3.938   0.656   5.888  1.7934  2.6557 -2.0416
  804MOL0     H 8479   4.020   0.448   5.967 -1.1199  1.4406 -0.3795
  804MOL0     H 8480   4.097   0.402   5.817  2.7541 -0.1463 -0.3455
  804MOL0     H 8481   4.226   0.625   5.856  2.0209  1.7781  3.2571
  804MOL0     H 8482   4.152   0.602   6.022 -2.8599 -2.5482  0.7288
  804MOL0     H 8483   4.247   0.388   6.035 -1.8559 -1.3787 -2.7533
  804MOL0     H 8484   4.322   0.406   5.875 -0.8802  0.5710  0.9592
  804MOL0     H 8485   4.504   0.529   5.964  0.4326 -7.3670 -0.8183
  804MOL0     H 8486   4.392   0.631   6.054 -2.5973 -1.3294  2.6674
  804MOL0     H 8487   4.538   0.528   6.197  0.0507  1.5769 -2.4432
  804MOL0     H 8488   4.400   0.425   6.239  0.2951 -1.5028 -0.2050
  804MOL0     H 8489   4.569   0.293   6.215 -0.8059  0.5064 -0.7981
  804MOL0     H 8490   4.616   0.353   6.055  1.8689 -0.5753  0.9896
  804MOL0     H 8491   4.301   0.154   6.217 -1.1853  1.4554 -0.3212
  804MOL0     H 8492   4.205  -0.113   5.969 -2.9621 -1.9331  1.3237
  804MOL0     H 8493   4.223  -0.080   6.138  0.9797 -0.8577 -1.4161
  804MOL0     H 8494   4.046   0.109   6.113 -2.4991  2.2838 -0.5992
  804MOL0     H 8495   3.986  -0.056   6.062 -0.2482  0.6820  2.2697
  804MOL0     H 8496   4.076   0.169   5.875  0.6698 -1.8198 -0.9368
  804MOL0     H 8497   3.906   0.120   5.917 -0.5343 -0.9674 -1.1529
  804MOL0     H 8498   3.932  -0.096   5.847 -1.9610  1.6790  0.3538
  804MOL0     H 8499   4.099  -0.076   5.805 -0.8059 -1.3099  3.4571
  804MOL0     H 8500   3.833   0.125   5.514  0.3426 -0.8231  0.8554
  804MOL0     H 8501   3.757   0.263   5.357 -1.4818  0.8194  0.5384
  804MOL0     H 8502   3.765   0.420   5.423 -0.5076 -0.9358  2.6584
  804MOL0     H 8503   3.853   0.370   5.266 -0.4892  0.7627  0.3162
  804MOL0     H 8504   4.418   0.658   5.341 -0.8206 -0.4248 -2.0506
  804MOL0     H 8505   4.478   0.914   5.273  1.3062 -1.2714  0.5478
  804MOL0     H 8506   4.172   1.175   5.166  1.7580  0.6331 -1.4870
  804MOL0     H 8507   4.182   1.228   5.335  0.3494 -0.9883  0.7974
  804MOL0     H 8508   4.229   1.400   5.176 -4.7543 -3.4478  3.9786
  804MOL0     H 8509   4.360   1.372   5.290  0.6447  0.0322 -0.2645
  804MOL0     H 8510   4.397   1.385   5.012  1.8196  1.2190 -0.0623
  804MOL0     H 8511   4.395   1.213   5.040 -0.7544 -0.1442  1.4480
  804MOL0     H 8512   4.635   1.335   5.046  0.9055  2.7063  0.2209
  804MOL0     H 8513   4.581   1.419   5.181  0.2615 -0.2319 -0.0997
  804MOL0     H 8514   4.578   1.118   5.157  0.5713  0.5689 -1.4123
  804MOL0     H 8515   4.546   1.225   5.300 -2.0904 -0.9105 -0.2347
  804MOL0     H 8516   4.808   1.202   5.160  0.4722 -5.5840  0.3578
  804MOL0     H 8517   4.766   1.275   5.329 -0.6791 -1.5770  1.9837
  804MOL0     H 8518   4.747   0.991   5.240 -0.8668 -2.7257  1.9036
  804MOL0     H 8519   4.717   1.054   5.406 -0.7555 -0.9265 -1.5027
  804MOL0     H 8520   5.004   1.058   5.284  0.5306 -1.5583 -0.8075
  804MOL0     H 8521   4.935   0.936   5.392  1.4376  0.9158  2.0255
  804MOL0     H 8522   4.097   1.033   5.377 -0.2522  0.1718  1.1289
  804MOL0     H 8523   4.043   0.782   5.464 -0.6719 -0.4908 -1.6613
  804MOL0     H 8524   4.255   0.372   5.601 -0.3379  0.6569  0.1612
  804MOL0     H 8525   4.211   0.155   5.695 -0.6458 -0.0532  0.3785
  804MOL0     H 8526   3.694   0.339   5.959 -1.9093 -2.5945  0.1098
  804MOL0     H 8527   3.507   0.286   6.091 -0.4458  1.1982  0.9141
  804MOL0     H 8528   2.995   0.181   5.986  1.6740  2.0795 -0.9270
  804MOL0     H 8529   2.801   0.104   6.128 -1.0832  0.6026 -0.4711
  804MOL0     H 8530   2.712  -0.051   6.373  1.7587 -2.1541  1.8810
  804MOL0     H 8531   2.861  -0.032   6.291  2.0212  1.6483  0.4096
  804MOL0     H 8532   2.986  -0.033   6.497  1.4158  1.0820 -0.9897
  804MOL0     H 8533   2.871  -0.158   6.496  1.9148  1.0862  1.8893
  804MOL0     H 8534   2.710   0.036   6.602 -1.1671 -1.5901  0.3780
  804MOL0     H 8535   2.875   0.094   6.639  1.2745 -1.1140  0.5739
  804MOL0     H 8536   2.909  -0.148   6.720 -1.5351 -2.6005 -1.5133
  804MOL0     H 8537   2.728  -0.155   6.722 -1.2682  1.2725  1.3518
  804MOL0     H 8538   2.794   0.104   7.051  1.5856  1.0895 -0.3345
  804MOL0     H 8539   2.940   0.357   6.455  0.0100  1.0172 -0.6785
  804MOL0     H 8540   3.133   0.426   6.296 -0.6413 -0.1845  0.2919
  805MOL0     O 8541   9.875   3.098   3.612 -1.1018 -0.8138  0.2395
  805MOL0     C 8542   9.878   3.211   3.561  0.7571  0.9187  0.0709
  805MOL0     O 8543   9.768   3.267   3.495  0.0478 -0.5100 -0.0252
  805MOL0     C 8544   9.643   3.210   3.509  1.1619 -1.2929 -0.6867
  805MOL0     C 8545   9.624   3.089   3.448 -0.0157 -0.1120  0.2366
  805MOL0     C 8546   9.507   3.013   3.459  0.3487  0.3397  0.2481
  805MOL0     C 8547   9.395   3.068   3.537  0.0695 -0.0070  0.4017
  805MOL0     O 8548   9.280   2.992   3.561 -0.1207  0.3158 -0.2738
  805MOL0     C 8549   9.224   2.947   3.446 -0.6855  0.0639  0.3315
  805MOL0     C 8550   9.083   2.898   3.481  0.2645 -0.2254 -1.0853
  805MOL0     C 8551   9.009   2.981   3.586  0.4780  0.4492  0.1923
  805MOL0     C 8552   8.857   2.969   3.546 -0.1315 -0.5828  0.0445
  805MOL0     C 8553   8.772   3.060   3.631 -0.3672 -0.5993 -0.4280
  805MOL0     C 8554   8.762   3.211   3.582  0.7743  0.7083 -0.2283
  805MOL0     C 8555   8.615   3.259   3.597  0.4442 -0.4627 -0.5519
  805MOL0     C 8556   8.581   3.290   3.742 -0.8160  0.4283 -0.5913
  805MOL0     N 8557   8.463   3.374   3.760  0.8200 -0.3166  0.9699
  805MOL0     C 8558   8.432   3.446   3.862 -0.8305 -0.1891  0.1157
  805MOL0     C 8559   8.302   3.470   3.854  0.7147  0.9628  0.8847
  805MOL0     C 8560   8.234   3.537   3.958  0.4786 -0.3191 -1.3989
  805MOL0     C 8561   8.187   3.439   4.076 -0.8777 -0.5445  0.9871
  805MOL0     C 8562   8.287   3.334   4.125 -0.9366 -0.9309 -0.2583
  805MOL0     C 8563   8.248   3.264   4.248  0.0037 -0.1929 -0.5657
  805MOL0     O 8564   8.361   3.206   4.312  0.6489  0.7807 -0.3514
  805MOL0     C 8565   8.336   3.175   4.447 -0.8944  0.4909 -0.1486
  805MOL0     C 8566   8.212   3.165   4.516  0.1396  0.4718  0.1556
  805MOL0     C 8567   8.205   3.139   4.656  0.5968 -0.9524 -0.1637
  805MOL0     C 8568   8.063   3.129   4.719 -0.4155  0.5449 -0.1597
  805MOL0     C 8569   8.324   3.133   4.727  0.1441 -0.4126 -0.3906
  805MOL0     C 8570   8.321   3.094   4.868  0.1939  1.5036  0.1051
  805MOL0     O 8571   8.373   2.974   4.909  0.0835  0.3224 -0.2645
  805MOL0     C 8572   8.360   2.950   5.048  0.6517  0.1274  0.1518
  805MOL0     C 8573   8.451   2.981   5.151 -0.6058  0.0045  0.6648
  805MOL0     C 8574   8.425   2.962   5.285 -0.2774 -0.5063  0.2104
  805MOL0     C 8575   8.308   2.898   5.323 -0.4505  0.0659  0.2334
  805MOL0     O 8576   8.282   2.871   5.458 -0.7724  0.3936 -0.0820
  805MOL0     C 8577   8.380   2.908   5.558 -0.0364 -0.2161  0.2209
  805MOL0     C 8578   8.319   2.886   5.694  0.7620 -0.0731 -0.6557
  805MOL0     C 8579   8.201   2.987   5.719  0.6553  0.5431 -0.4961
  805MOL0     C 8580   8.117   2.944   5.833  0.0425  1.0370 -0.1634
  805MOL0     C 8581   8.002   3.040   5.870 -0.5282  0.6721 -0.0330
  805MOL0     C 8582   8.056   3.188   5.881 -0.7154  0.0925 -0.1890
  805MOL0     C 8583   7.942   3.276   5.918  0.3949 -0.6490  1.3469
  805MOL0     C 8584   7.967   3.416   5.862  0.5448  1.0237 -1.1842
  805MOL0    Cl 8585   7.855   3.543   5.912 -0.1724  0.0650 -0.1080
  805MOL0     C 8586   8.220   2.868   5.226  0.2635  0.2892 -0.6212
  805MOL0     C 8587   8.241   2.898   5.085  0.6410  0.1705 -1.0538
  805MOL0     O 8588   8.269   3.177   4.944 -0.6249 -0.1784  0.1407
  805MOL0     C 8589   8.444   3.144   4.665 -0.3891 -0.5648 -0.4305
  805MOL0     C 8590   8.452   3.161   4.526 -0.4301  1.1863  0.2354
  805MOL0     N 8591   8.251   3.401   3.748  0.9389 -0.5830 -0.5141
  805MOL0     N 8592   8.355   3.345   3.687  0.5944 -0.1648 -0.8492
  805MOL0     C 8593   9.412   3.200   3.588  0.1650  0.0494 -0.4337
  805MOL0     C 8594   9.532   3.275   3.566 -0.1440  0.4510 -0.5514
  805MOL0     C 8595  10.004   3.282   3.565 -0.6116  0.3236  0.0569
  805MOL0     C 8596  10.034   3.382   3.474 -0.0968  0.4278 -0.4677
  805MOL0     C 8597  10.160   3.443   3.453  0.5225  0.8771  0.8997
  805MOL0     C 8598  10.264   3.413   3.533  0.1051 -0.3590  0.1813
  805MOL0     O 8599  10.384   3.459   3.510 -0.3759 -0.0314 -1.4175
  805MOL0     C 8600  10.410   3.547   3.401 -0.0615 -0.0695  0.2836
  805MOL0     C 8601  10.555   3.569   3.401 -0.9093 -0.1096 -0.5292
  805MOL0     C 8602  10.638   3.438   3.391 -0.6638  0.2615  0.0241
  805MOL0     C 8603  10.777   3.478   3.350  0.6194 -0.0474  0.6547
  805MOL0     C 8604  10.867   3.364   3.356  0.3009  0.2409  0.7363
  805MOL0     C 8605  10.926   3.262   3.352  0.5600  0.1584  0.8151
  805MOL0     C 8606  10.233   3.328   3.638 -0.5106  0.7932  0.7140
  805MOL0     C 8607  10.112   3.260   3.656 -0.0650 -0.4924  0.2639
  805MOL0     H 8608   9.711   3.061   3.391 -1.4233 -0.5111 -1.8204
  805MOL0     H 8609   9.498   2.910   3.428  0.7796 -0.5382  2.7872
  805MOL0     H 8610   9.195   3.026   3.376 -2.2697  1.9378  2.9009
  805MOL0     H 8611   9.274   2.864   3.396 -1.8509 -2.0647  2.4590
  805MOL0     H 8612   9.019   2.898   3.393 -2.2227 -0.1011  0.6253
  805MOL0     H 8613   9.092   2.799   3.527 -0.9922 -0.9845 -2.4048
  805MOL0     H 8614   9.042   2.925   3.674  3.2083 -0.6063 -1.4106
  805MOL0     H 8615   9.039   3.085   3.603  2.3485  0.0332 -0.3957
  805MOL0     H 8616   8.847   3.006   3.444 -0.7445 -1.7241 -0.3206
  805MOL0     H 8617   8.840   2.861   3.547  3.1693 -1.2161  0.8528
  805MOL0     H 8618   8.669   3.023   3.627  0.3444 -2.6797 -0.4882
  805MOL0     H 8619   8.802   3.059   3.736 -0.7860 -0.8573 -0.3091
  805MOL0     H 8620   8.837   3.270   3.635  0.0210 -1.7121  3.9765
  805MOL0     H 8621   8.781   3.195   3.476 -0.9290  0.8717 -0.5882
  805MOL0     H 8622   8.614   3.349   3.534  2.2565 -2.3043 -3.4977
  805MOL0     H 8623   8.539   3.193   3.556 -1.2486 -0.5217  2.4525
  805MOL0     H 8624   8.670   3.338   3.786 -0.7766 -0.6521  0.5728
  805MOL0     H 8625   8.564   3.194   3.791 -2.2153 -0.4696 -2.7045
  805MOL0     H 8626   8.500   3.459   3.946 -0.2100  1.5957 -0.6124
  805MOL0     H 8627   8.291   3.624   3.991 -3.3806  1.3741  1.6926
  805MOL0     H 8628   8.149   3.589   3.911 -1.9320  0.1944  2.9489
  805MOL0     H 8629   8.109   3.382   4.025 -0.0289  0.2676 -1.3618
  805MOL0     H 8630   8.155   3.503   4.158  0.2791  0.1101  0.9519
  805MOL0     H 8631   8.388   3.375   4.128 -1.0332 -0.6124 -1.0794
  805MOL0     H 8632   8.288   3.249   4.056 -1.1339 -3.3100  2.4636
  805MOL0     H 8633   8.164   3.195   4.242 -0.3034  0.2136 -0.9934
  805MOL0     H 8634   8.213   3.340   4.318 -0.7346 -0.4136 -0.6912
  805MOL0     H 8635   8.116   3.180   4.467  0.8038  1.1348 -0.9985
  805MOL0     H 8636   7.984   3.107   4.647 -0.0572  2.4767 -1.2141
  805MOL0     H 8637   8.057   3.056   4.800  0.7728 -0.6147 -1.0784
  805MOL0     H 8638   8.036   3.229   4.755 -0.1084  0.5784 -0.0166
  805MOL0     H 8639   8.552   3.018   5.136  1.0290 -4.3869 -0.8273
  805MOL0     H 8640   8.496   3.005   5.355  2.4972 -0.6989 -2.2613
  805MOL0     H 8641   8.464   2.838   5.549 -0.2773 -0.6924  1.5629
  805MOL0     H 8642   8.411   3.012   5.548  0.8637 -0.5756 -1.0202
  805MOL0     H 8643   8.292   2.781   5.701  3.0276 -0.6599  0.4404
  805MOL0     H 8644   8.398   2.883   5.770 -0.9996 -2.7055  1.2136
  805MOL0     H 8645   8.138   2.984   5.629  0.5341 -2.5792 -0.4246
  805MOL0     H 8646   8.234   3.088   5.745 -2.7663  0.9669  3.3010
  805MOL0     H 8647   8.070   2.848   5.807  0.5054  0.2817  1.6908
  805MOL0     H 8648   8.173   2.915   5.922 -2.3015 -0.7030  0.8505
  805MOL0     H 8649   7.955   3.004   5.962 -1.0521 -3.5141 -1.6985
  805MOL0     H 8650   7.925   3.039   5.792  1.3138  1.5393 -1.9491
  805MOL0     H 8651   8.138   3.191   5.954  1.7303 -1.2122 -2.6823
  805MOL0     H 8652   8.094   3.224   5.785 -1.3116 -0.1204 -0.5049
  805MOL0     H 8653   7.939   3.292   6.027  1.1588  1.0705  1.1524
  805MOL0     H 8654   7.848   3.239   5.877 -0.0191  1.0959  0.6265
  805MOL0     H 8655   7.945   3.395   5.757  1.2037 -0.0366 -1.1331
  805MOL0     H 8656   8.072   3.446   5.857 -0.1260  4.2282  1.0678
  805MOL0     H 8657   8.142   2.811   5.274  1.8576  0.4424  2.4121
  805MOL0     H 8658   8.169   2.868   5.010  0.6933  0.8026 -1.3645
  805MOL0     H 8659   8.531   3.132   4.729 -0.5567 -3.5363 -0.6230
  805MOL0     H 8660   8.552   3.160   4.484 -1.2480 -0.1219 -1.8991
  805MOL0     H 8661   9.331   3.256   3.633 -0.1617 -0.6454 -0.1392
  805MOL0     H 8662   9.536   3.378   3.600  1.9362  0.3682 -0.4426
  805MOL0     H 8663   9.955   3.389   3.399  0.0202 -1.9195 -0.8686
  805MOL0     H 8664  10.153   3.514   3.371 -3.2964  0.1162  0.3746
  805MOL0     H 8665  10.376   3.510   3.303 -2.8771  0.5899  0.9197
  805MOL0     H 8666  10.353   3.639   3.419 -1.0387 -0.6622  0.2867
  805MOL0     H 8667  10.588   3.621   3.491  1.4539 -3.8598  1.0311
  805MOL0     H 8668  10.577   3.636   3.317 -0.8921  0.9843  0.3316
  805MOL0     H 8669  10.585   3.372   3.323 -2.9168 -0.7779  2.5891
  805MOL0     H 8670  10.649   3.394   3.490  0.6539 -0.3934 -0.4006
  805MOL0     H 8671  10.818   3.550   3.422  3.9944 -3.0844  2.0813
  805MOL0     H 8672  10.774   3.523   3.250  3.0813 -0.4690  0.3209
  805MOL0     H 8673  10.984   3.171   3.352  2.4309  1.3057  0.6025
  805MOL0     H 8674  10.320   3.308   3.699  1.1251 -1.2307 -2.0232
  805MOL0     H 8675  10.104   3.183   3.732  1.6561 -0.2103  0.7762
  806MOL0     O 8676  10.709   5.009   8.991  0.3703  0.5108 -0.5070
  806MOL0     C 8677  10.782   4.913   9.017 -0.3422 -0.0804  1.1821
  806MOL0     O 8678  10.913   4.909   8.981 -0.1414  0.8947 -0.0781
  806MOL0     C 8679  10.969   5.026   8.935  0.4647  0.4764 -0.7239
  806MOL0     C 8680  11.017   5.038   8.806 -0.6362 -0.0788  0.0685
  806MOL0     C 8681  11.077   5.162   8.774  0.1864 -0.1440 -0.7227
  806MOL0     C 8682  11.079   5.271   8.866 -0.2823  0.4256  0.4832
  806MOL0     O 8683  11.146   5.382   8.819  0.4454  0.0622  1.0470
  806MOL0     C 8684  11.183   5.494   8.906 -0.0151  1.0470  0.2137
  806MOL0     C 8685  11.243   5.623   8.843  0.1443 -1.4409  0.1527
  806MOL0     C 8686  11.166   5.684   8.724  0.0604 -0.6080  0.6363
  806MOL0     C 8687  11.258   5.725   8.613  0.6922  0.2469  0.0106
  806MOL0     C 8688  11.177   5.826   8.520  0.1875 -0.6225 -0.5975
  806MOL0     C 8689  11.260   5.905   8.423 -0.6579  0.3974 -0.1408
  806MOL0     C 8690  11.177   5.901   8.289 -0.2035  0.3085 -0.2148
  806MOL0     C 8691  11.259   5.982   8.189 -0.3233  0.1630  0.1433
  806MOL0     N 8692  11.227   5.976   8.046 -0.6215 -0.5169 -0.9467
  806MOL0     C 8693  11.310   5.940   7.946 -0.1860 -0.1032 -0.7432
  806MOL0     C 8694  11.240   5.943   7.833 -0.5594 -0.7388  0.8291
  806MOL0     C 8695  11.294   5.936   7.697 -0.4178  0.1918  0.2112
  806MOL0     C 8696  11.398   6.043   7.676  0.2882  1.4797  0.2246
  806MOL0     C 8697  11.452   6.049   7.531 -0.2853 -0.5543  0.0613
  806MOL0     C 8698  11.522   6.179   7.519 -1.3495 -0.1368  0.7412
  806MOL0     O 8699  11.540   6.186   7.373 -0.2260 -0.8716 -0.2165
  806MOL0     C 8700  11.520   6.306   7.302 -0.7571  0.6249 -1.3898
  806MOL0     C 8701  11.541   6.430   7.370 -0.9146  0.1079 -1.1867
  806MOL0     C 8702  11.523   6.550   7.306  0.5478 -0.3277 -0.1976
  806MOL0     C 8703  11.538   6.674   7.380  0.7298 -0.7127  0.8137
  806MOL0     C 8704  11.491   6.543   7.172  0.4535 -0.4066 -0.0648
  806MOL0     C 8705  11.460   6.656   7.089 -0.3698 -0.3851  0.6891
  806MOL0     O 8706  11.389   6.625   6.975 -0.1770  0.8632 -0.1730
  806MOL0     C 8707  11.343   6.718   6.889 -0.1696  0.3619  0.7097
  806MOL0     C 8708  11.219   6.695   6.837 -0.8074 -0.4489  0.3407
  806MOL0     C 8709  11.156   6.783   6.754 -0.5183  0.7964  1.2411
  806MOL0     C 8710  11.225   6.895   6.697  0.3207 -0.2193 -0.7223
  806MOL0     O 8711  11.171   6.963   6.592 -0.4661 -1.0824  0.0548
  806MOL0     C 8712  11.196   7.107   6.580 -0.4319  0.0555 -0.1663
  806MOL0     C 8713  11.102   7.173   6.481 -0.7337  0.3748 -0.0330
  806MOL0     C 8714  11.167   7.302   6.417  0.8581  0.5977 -0.0670
  806MOL0     C 8715  11.111   7.432   6.459  0.1087  0.0708 -1.1880
  806MOL0     C 8716  10.970   7.469   6.394 -0.6703 -0.6168 -0.1246
  806MOL0     C 8717  11.004   7.527   6.252  0.5527 -0.4222 -0.8854
  806MOL0     C 8718  10.869   7.558   6.197 -0.1273  0.4215  0.4636
  806MOL0     C 8719  10.901   7.637   6.071  0.3148 -1.0729  1.0914
  806MOL0    Cl 8720  10.761   7.646   5.956  0.1833  0.6134 -0.3528
  806MOL0     C 8721  11.352   6.920   6.747 -0.3696 -0.4668 -0.0403
  806MOL0     C 8722  11.411   6.835   6.840 -0.1625  0.3693 -0.3633
  806MOL0     O 8723  11.511   6.766   7.118 -0.0641  0.2627  0.4728
  806MOL0     C 8724  11.488   6.418   7.103  0.7779 -0.8212 -0.5649
  806MOL0     C 8725  11.508   6.300   7.170 -0.3498 -0.3874  0.1780
  806MOL0     N 8726  11.110   5.971   7.862 -1.1022  0.1366  0.2947
  806MOL0     N 8727  11.111   6.010   7.989  0.6109  0.8065 -0.5905
  806MOL0     C 8728  11.023   5.252   8.992  0.1580 -0.3458  0.1395
  806MOL0     C 8729  10.979   5.131   9.026  0.1672  0.9529  0.3268
  806MOL0     C 8730  10.717   4.794   9.075 -0.2934  0.3483 -0.2866
  806MOL0     C 8731  10.581   4.794   9.106 -0.0903  0.0648  0.0997
  806MOL0     C 8732  10.512   4.673   9.132 -0.7596  0.1529 -0.0943
  806MOL0     C 8733  10.575   4.553   9.153  0.5315 -0.3404  0.4409
  806MOL0     O 8734  10.500   4.442   9.170  0.0490  0.3326 -0.7930
  806MOL0     C 8735  10.562   4.314   9.169 -0.4951  0.6389 -0.8636
  806MOL0     C 8736  10.447   4.203   9.170 -0.1613  0.6157  1.0116
  806MOL0     C 8737  10.391   4.184   9.033 -0.7170  0.2246 -0.1279
  806MOL0     C 8738  10.475   4.103   8.936 -0.3878 -0.2993 -0.0560
  806MOL0     C 8739  10.419   4.092   8.807  0.9709 -0.0730  0.2611
  806MOL0     C 8740  10.354   4.073   8.710  0.1316 -0.2844 -0.0398
  806MOL0     C 8741  10.712   4.561   9.135 -0.1513  0.0913 -0.2636
  806MOL0     C 8742  10.783   4.676   9.094 -0.6917  0.1976  0.6736
  806MOL0     H 8743  11.007   4.959   8.732  0.0145  0.5911 -0.7489
  806MOL0     H 8744  11.113   5.176   8.673 -1.0352 -0.4687 -1.2194
  806MOL0     H 8745  11.091   5.526   8.956 -0.5626 -0.5792  0.3106
  806MOL0     H 8746  11.244   5.454   8.988 -1.2689 -1.4849 -0.0073
  806MOL0     H 8747  11.259   5.694   8.924  3.6958 -1.7078 -0.1256
  806MOL0     H 8748  11.339   5.604   8.794 -0.2881 -2.3913 -0.3617
  806MOL0     H 8749  11.090   5.614   8.686  0.2994 -0.0051 -1.0318
  806MOL0     H 8750  11.111   5.764   8.775  0.7699 -3.0006  5.8633
  806MOL0     H 8751  11.354   5.762   8.649 -0.0594  0.6218  1.7287
  806MOL0     H 8752  11.275   5.634   8.554 -0.3543 -0.7877  1.2386
  806MOL0     H 8753  11.106   5.762   8.467 -0.0858 -1.5895  0.8849
  806MOL0     H 8754  11.125   5.896   8.586  0.0868 -0.5135 -0.7901
  806MOL0     H 8755  11.288   6.006   8.453  1.5586 -0.2833  0.2225
  806MOL0     H 8756  11.350   5.844   8.408 -1.1655 -0.2383 -0.6973
  806MOL0     H 8757  11.157   5.800   8.254  1.7274  0.4193 -1.7644
  806MOL0     H 8758  11.080   5.942   8.321 -1.0170 -3.7606  3.5996
  806MOL0     H 8759  11.367   5.972   8.204 -0.0048  0.4018 -1.7232
  806MOL0     H 8760  11.243   6.087   8.216 -2.7576 -0.1084  0.0149
  806MOL0     H 8761  11.418   5.927   7.950 -0.4407 -2.4869 -0.0774
  806MOL0     H 8762  11.354   5.845   7.682  2.0826  1.4340  1.8303
  806MOL0     H 8763  11.212   5.937   7.625 -1.2829 -0.9687  1.1339
  806MOL0     H 8764  11.486   6.030   7.740 -0.3507  1.2322  1.0746
  806MOL0     H 8765  11.351   6.134   7.713 -0.3008  1.1267  0.3515
  806MOL0     H 8766  11.369   6.036   7.461 -1.5933  0.7520  1.2872
  806MOL0     H 8767  11.510   5.957   7.525 -0.2183 -0.5990  1.2021
  806MOL0     H 8768  11.609   6.196   7.584  0.0177 -2.7083 -0.2664
  806MOL0     H 8769  11.454   6.260   7.546 -2.1490 -0.6121  0.1711
  806MOL0     H 8770  11.566   6.425   7.475  2.3816 -2.9932 -1.9018
  806MOL0     H 8771  11.460   6.744   7.351  3.1791  2.2267  0.7809
  806MOL0     H 8772  11.525   6.651   7.486  2.1628  1.3818  1.5111
  806MOL0     H 8773  11.639   6.715   7.367  2.5837 -4.4474  1.7293
  806MOL0     H 8774  11.160   6.608   6.862 -1.2029 -0.1515  0.4579
  806MOL0     H 8775  11.058   6.764   6.712  0.1001 -1.8505  0.8397
  806MOL0     H 8776  11.186   7.152   6.679 -0.1958 -3.8826  1.8677
  806MOL0     H 8777  11.297   7.121   6.540  0.3501  0.3933  1.8522
  806MOL0     H 8778  11.074   7.102   6.403  1.1410 -0.0658 -0.3658
  806MOL0     H 8779  11.020   7.210   6.542 -0.4853  1.5765 -0.3867
  806MOL0     H 8780  11.132   7.288   6.314 -1.8712  0.3398  0.7974
  806MOL0     H 8781  11.275   7.296   6.431  0.4777 -1.4158  3.1920
  806MOL0     H 8782  11.104   7.432   6.568  0.6210 -1.2952 -1.1356
  806MOL0     H 8783  11.187   7.508   6.441  2.4332 -1.6650  0.6300
  806MOL0     H 8784  10.914   7.541   6.454  1.6289  0.6274  0.6397
  806MOL0     H 8785  10.901   7.385   6.381 -1.2565 -0.4722  1.6870
  806MOL0     H 8786  11.076   7.610   6.246 -0.8718  0.7399 -3.1504
  806MOL0     H 8787  11.044   7.453   6.182 -0.4342 -1.7399 -0.0990
  806MOL0     H 8788  10.807   7.611   6.270 -1.4304 -1.6658  0.9389
  806MOL0     H 8789  10.821   7.462   6.181 -0.4031  0.7346 -0.6815
  806MOL0     H 8790  10.990   7.600   6.018  0.2243 -1.6983  1.3595
  806MOL0     H 8791  10.915   7.741   6.099 -2.0671  0.5957 -2.9954
  806MOL0     H 8792  11.407   7.007   6.712  2.5140 -2.1828 -0.0955
  806MOL0     H 8793  11.508   6.852   6.886 -0.0505 -1.4769  0.1569
  806MOL0     H 8794  11.452   6.406   7.001 -2.5229 -1.8488  0.5912
  806MOL0     H 8795  11.496   6.205   7.118  1.4929 -0.7695  0.3641
  806MOL0     H 8796  11.010   5.329   9.068 -1.8947  0.5896 -1.0649
  806MOL0     H 8797  10.924   5.124   9.119 -1.6425  1.2350 -0.6868
  806MOL0     H 8798  10.519   4.883   9.096  0.3193  0.0817 -3.6522
  806MOL0     H 8799  10.403   4.677   9.137 -0.7470  0.6813 -0.2043
  806MOL0     H 8800  10.622   4.296   9.080 -0.3939  1.1157 -0.8922
  806MOL0     H 8801  10.625   4.297   9.256 -0.3648 -0.0304 -1.0856
  806MOL0     H 8802  10.360   4.223   9.234 -2.9645  1.1786 -2.5964
  806MOL0     H 8803  10.503   4.118   9.208 -0.3561 -0.4198 -0.8850
  806MOL0     H 8804  10.368   4.283   8.993  0.4497  1.6399  2.4445
  806MOL0     H 8805  10.299   4.126   9.043 -0.6636  0.4878  4.4838
  806MOL0     H 8806  10.485   4.003   8.981 -0.2213 -3.1465 -5.5930
  806MOL0     H 8807  10.575   4.147   8.923 -1.3696  3.7161  3.6472
  806MOL0     H 8808  10.305   4.047   8.618 -1.2021 -1.9146  1.0601
  806MOL0     H 8809  10.767   4.468   9.142 -2.9549 -2.1752 -4.6776
  806MOL0     H 8810  10.889   4.660   9.077 -0.8690 -2.4303  1.5609
  807MOL0     O 8811   0.079  11.068   5.687 -0.1910  0.9942  0.5495
  807MOL0     C 8812   0.108  11.089   5.799 -0.3112 -0.6072 -0.6623
  807MOL0     O 8813   0.076  11.014   5.906  0.0649 -0.4071  0.0030
  807MOL0     C 8814  -0.005  10.907   5.905  1.1239 -0.4397  0.7207
  807MOL0     C 8815  -0.097  10.881   5.797 -0.4522  0.7577  0.2160
  807MOL0     C 8816  -0.185  10.775   5.794  0.2506 -0.3582  0.7082
  807MOL0     C 8817  -0.196  10.683   5.900 -0.1480 -0.0652 -0.5374
  807MOL0     O 8818  -0.279  10.570   5.905  0.1711  0.5274  0.6993
  807MOL0     C 8819  -0.211  10.451   5.857  0.0232  0.1456 -1.4113
  807MOL0     C 8820  -0.266  10.321   5.906 -0.7985 -0.2686  0.2534
  807MOL0     C 8821  -0.257  10.293   6.058  0.5397 -0.3584 -0.2045
  807MOL0     C 8822  -0.116  10.241   6.090 -0.7751 -0.8593  0.4594
  807MOL0     C 8823  -0.100  10.197   6.230 -0.4127 -0.8969  0.2755
  807MOL0     C 8824   0.035  10.117   6.234  0.3678 -0.3129 -0.1284
  807MOL0     C 8825   0.084  10.086   6.376 -0.6183 -0.0387  0.5454
  807MOL0     C 8826   0.216  10.001   6.364  0.4175  0.3619 -0.0815
  807MOL0     N 8827   0.297  10.028   6.481  0.1228 -0.4405 -0.6697
  807MOL0     C 8828   0.260  10.043   6.615 -0.1435  0.3854 -0.1708
  807MOL0     C 8829   0.380  10.046   6.688  0.2844  0.4099 -0.2494
  807MOL0     C 8830   0.383  10.055   6.839  0.2268 -0.8212  0.2381
  807MOL0     C 8831   0.414   9.923   6.898  0.7195  0.2736  0.0338
  807MOL0     C 8832   0.550   9.869   6.882  0.6205  0.7618  0.9301
  807MOL0     C 8833   0.580   9.731   6.941 -0.1111 -0.0380  0.3492
  807MOL0     O 8834   0.587   9.738   7.086  1.0682 -0.5858  0.8442
  807MOL0     C 8835   0.635   9.620   7.139 -0.2806  0.9945  0.3521
  807MOL0     C 8836   0.634   9.494   7.076  0.1551  0.6484  1.0394
  807MOL0     C 8837   0.683   9.384   7.149 -0.4119  0.3151  0.4459
  807MOL0     C 8838   0.684   9.253   7.069 -0.5235  0.2210 -0.1571
  807MOL0     C 8839   0.708   9.388   7.287 -0.4941 -0.3097  0.6037
  807MOL0     C 8840   0.733   9.269   7.382  0.1127 -0.4896 -1.1834
  807MOL0     O 8841   0.686   9.274   7.507 -0.4020  0.3138 -0.1460
  807MOL0     C 8842   0.674   9.149   7.567 -1.1279 -0.0571  1.1438
  807MOL0     C 8843   0.779   9.061   7.595 -0.7187  0.4610 -0.0407
  807MOL0     C 8844   0.758   8.935   7.642 -0.2360  0.8492  0.0650
  807MOL0     C 8845   0.637   8.895   7.687 -0.2178  0.0280 -0.4581
  807MOL0     O 8846   0.603   8.770   7.742 -0.2454 -0.0182 -0.1986
  807MOL0     C 8847   0.701   8.688   7.805 -0.0346 -0.3801 -0.0851
  807MOL0     C 8848   0.663   8.539   7.818 -0.3662  0.8442  0.1121
  807MOL0     C 8849   0.680   8.475   7.675  0.4158 -0.0112  0.2592
  807MOL0     C 8850   0.661   8.322   7.673 -0.3637 -1.1415 -0.3304
  807MOL0     C 8851   0.514   8.283   7.683 -0.9492 -0.3420  1.1475
  807MOL0     C 8852   0.480   8.128   7.658  0.7825 -0.7173 -0.1637
  807MOL0     C 8853   0.357   8.104   7.570  0.2436  0.4355  0.9322
  807MOL0     C 8854   0.298   7.970   7.571 -0.4982  1.2072 -0.4145
  807MOL0    Cl 8855   0.209   7.958   7.719 -0.6171 -0.1109  0.2661
  807MOL0     C 8856   0.538   8.984   7.667  0.4015 -0.3224  0.7867
  807MOL0     C 8857   0.542   9.111   7.601 -0.1149  0.0333  0.3349
  807MOL0     O 8858   0.778   9.174   7.327 -0.0749  0.3178 -0.2853
  807MOL0     C 8859   0.701   9.521   7.341 -0.1388 -0.5247 -0.2682
  807MOL0     C 8860   0.667   9.628   7.271 -0.1519 -0.1959  0.1026
  807MOL0     N 8861   0.489  10.036   6.602 -0.2358 -0.3157  0.4028
  807MOL0     N 8862   0.431  10.015   6.478 -0.3274 -0.5693 -0.5877
  807MOL0     C 8863  -0.113  10.715   6.017  0.7821  0.5740  0.3640
  807MOL0     C 8864  -0.023  10.825   6.021  0.1600  0.2815  0.2652
  807MOL0     C 8865   0.172  11.218   5.836 -0.7093 -0.0313  0.2344
  807MOL0     C 8866   0.219  11.299   5.737  0.2421 -0.2197 -0.0346
  807MOL0     C 8867   0.274  11.424   5.762  0.8136 -0.0767 -0.0448
  807MOL0     C 8868   0.278  11.485   5.886  0.4036  0.0535 -0.2370
  807MOL0     O 8869   0.314  11.610   5.918  0.5746  0.1647  0.3511
  807MOL0     C 8870   0.316  11.704   5.805 -0.4518  0.7269 -0.1435
  807MOL0     C 8871   0.454  11.693   5.736  0.3946  0.5911 -0.5361
  807MOL0     C 8872   0.438  11.812   5.640  0.4930  0.7171  0.4195
  807MOL0     C 8873   0.561  11.822   5.554 -1.2282 -0.9375 -0.1097
  807MOL0     C 8874   0.538  11.920   5.448  0.3006 -0.9443 -0.2708
  807MOL0     C 8875   0.517  11.975   5.341  0.1778 -0.4170  0.4585
  807MOL0     C 8876   0.222  11.407   5.991  0.1006 -0.1837  0.9077
  807MOL0     C 8877   0.166  11.273   5.965 -0.4633  0.2378 -0.3684
  807MOL0     H 8878  -0.125  10.953   5.720  1.4387 -1.3752 -2.6642
  807MOL0     H 8879  -0.254  10.769   5.710 -1.4529 -0.7685  2.0870
  807MOL0     H 8880  -0.205  10.453   5.748  3.8584 -2.0582 -1.3889
  807MOL0     H 8881  -0.106  10.458   5.885  0.4690 -0.1974 -2.9139
  807MOL0     H 8882  -0.371  10.301   5.883 -0.4872 -3.2332  1.0654
  807MOL0     H 8883  -0.223  10.242   5.844 -0.6100  0.7023 -0.8973
  807MOL0     H 8884  -0.283  10.374   6.126 -0.8978 -0.1194 -0.9972
  807MOL0     H 8885  -0.334  10.221   6.089 -0.5788  1.5789  1.8283
  807MOL0     H 8886  -0.099  10.156   6.023 -0.0033 -0.8127  0.5945
  807MOL0     H 8887  -0.045  10.322   6.075 -0.6684 -0.4263  2.9186
  807MOL0     H 8888  -0.093  10.286   6.293  0.6478  0.0278 -1.0944
  807MOL0     H 8889  -0.184  10.133   6.259 -0.4037  1.2590  6.4102
  807MOL0     H 8890   0.015  10.023   6.183  1.7588  0.3154 -1.9196
  807MOL0     H 8891   0.118  10.159   6.177  1.1566 -2.4446 -0.6159
  807MOL0     H 8892   0.112  10.179   6.426  2.4741 -0.7986  0.4554
  807MOL0     H 8893   0.016  10.024   6.435 -1.2954 -1.7552 -1.8847
  807MOL0     H 8894   0.264  10.033   6.271  3.7365 -0.0722  1.3340
  807MOL0     H 8895   0.193   9.894   6.355  1.3031  0.2968 -1.8487
  807MOL0     H 8896   0.160  10.047   6.656  0.5379  0.6598  1.5535
  807MOL0     H 8897   0.458  10.131   6.864  0.0011 -1.6467  4.0598
  807MOL0     H 8898   0.286  10.092   6.873  1.0772  2.4393 -0.5198
  807MOL0     H 8899   0.347   9.844   6.862  0.3450  0.6717 -0.1453
  807MOL0     H 8900   0.386   9.925   7.004 -3.9827 -3.1136 -0.7944
  807MOL0     H 8901   0.630   9.934   6.919  1.2298  0.2201  0.5952
  807MOL0     H 8902   0.568   9.857   6.775  2.0077 -3.2530  1.4508
  807MOL0     H 8903   0.675   9.701   6.895 -0.3708  0.6547 -0.6747
  807MOL0     H 8904   0.507   9.658   6.903  1.5262 -0.8357 -1.4381
  807MOL0     H 8905   0.598   9.485   6.974  1.9837  2.5393  0.1413
  807MOL0     H 8906   0.787   9.241   7.033 -0.7787  0.5470 -1.0252
  807MOL0     H 8907   0.662   9.160   7.123  0.8866 -0.1736 -0.2035
  807MOL0     H 8908   0.608   9.260   6.991 -0.4727 -0.8335 -0.3193
  807MOL0     H 8909   0.881   9.091   7.573 -0.8760  2.1830  1.3242
  807MOL0     H 8910   0.845   8.872   7.660  0.5680  1.6274 -0.9949
  807MOL0     H 8911   0.800   8.690   7.760 -0.5250  1.0676 -1.1423
  807MOL0     H 8912   0.702   8.727   7.907 -0.1563 -1.2560  0.2681
  807MOL0     H 8913   0.721   8.482   7.891 -2.6765 -2.3037 -0.2796
  807MOL0     H 8914   0.558   8.527   7.847  0.1125 -2.2704  0.8570
  807MOL0     H 8915   0.783   8.490   7.643  0.5960 -1.6770  0.0161
  807MOL0     H 8916   0.606   8.537   7.622  0.4173  1.2737  1.6612
  807MOL0     H 8917   0.696   8.281   7.578  0.9394 -3.2917  0.9880
  807MOL0     H 8918   0.722   8.271   7.748  1.1690  1.4028  0.2619
  807MOL0     H 8919   0.457   8.354   7.622 -0.2998  1.5233  2.5859
  807MOL0     H 8920   0.481   8.313   7.783  1.1580  0.9706  1.5067
  807MOL0     H 8921   0.572   8.083   7.620  1.5314  0.1586  0.5453
  807MOL0     H 8922   0.468   8.080   7.756 -1.8619 -1.5724 -0.8370
  807MOL0     H 8923   0.390   8.126   7.468 -0.4931  3.3314  1.2302
  807MOL0     H 8924   0.273   8.169   7.597  0.2731  0.9373 -0.1494
  807MOL0     H 8925   0.376   7.893   7.578 -2.0688 -0.3349  1.4660
  807MOL0     H 8926   0.247   7.945   7.478 -0.1667 -2.6373  0.2748
  807MOL0     H 8927   0.438   8.959   7.701 -1.3330  0.1599 -3.3686
  807MOL0     H 8928   0.453   9.172   7.587 -2.3715 -1.9686  4.0936
  807MOL0     H 8929   0.736   9.532   7.443 -1.4086 -2.8712  0.4915
  807MOL0     H 8930   0.671   9.723   7.324 -0.7070  0.2911 -0.7120
  807MOL0     H 8931  -0.113  10.650   6.105  0.6680 -1.0836 -0.8083
  807MOL0     H 8932   0.043  10.848   6.103  1.6254 -0.5111 -0.6335
  807MOL0     H 8933   0.210  11.260   5.636  5.5090  0.8748 -1.2253
  807MOL0     H 8934   0.319  11.461   5.670  0.5004  0.1499 -0.1062
  807MOL0     H 8935   0.235  11.703   5.732  0.0869 -1.1925 -0.7890
  807MOL0     H 8936   0.318  11.803   5.850  0.3426 -0.0839  1.7058
  807MOL0     H 8937   0.460  11.589   5.703 -3.5575  0.1752 -0.4810
  807MOL0     H 8938   0.525  11.721   5.813  1.0495 -1.3156 -0.4004
  807MOL0     H 8939   0.430  11.906   5.694  3.8077 -0.9331  4.2919
  807MOL0     H 8940   0.344  11.814   5.584 -2.4848  0.5367  4.9352
  807MOL0     H 8941   0.587  11.726   5.507  1.3368 -1.3936  1.9868
  807MOL0     H 8942   0.643  11.861   5.616 -2.9477 -0.3311  1.8936
  807MOL0     H 8943   0.501  12.011   5.241  0.3168  1.8405  1.2010
  807MOL0     H 8944   0.219  11.464   6.083  2.9965  2.6060 -0.5199
  807MOL0     H 8945   0.118  11.229   6.052  3.6565 -1.5673  1.2172
  808MOL0     O 8946  11.157   5.099   2.929  0.2547 -0.6855 -0.1611
  808MOL0     C 8947  11.266   5.049   2.936  0.0825  1.2245  1.0210
  808MOL0     O 8948  11.360   5.069   3.023  0.5466 -0.1202 -0.3125
  808MOL0     C 8949  11.348   5.167   3.115 -0.6725 -0.2107  0.7642
  808MOL0     C 8950  11.331   5.292   3.068 -0.5006 -0.5085  0.1832
  808MOL0     C 8951  11.325   5.403   3.159 -0.8441  1.1130 -0.6450
  808MOL0     C 8952  11.351   5.384   3.294  0.7153 -0.1429 -0.3783
  808MOL0     O 8953  11.352   5.495   3.368  0.8906  1.3103 -0.3880
  808MOL0     C 8954  11.393   5.476   3.510 -0.5001  0.0223 -0.1231
  808MOL0     C 8955  11.388   5.611   3.582 -0.6213 -0.7714  0.2574
  808MOL0     C 8956  11.420   5.594   3.727  0.3405 -0.0552  0.1654
  808MOL0     C 8957  11.460   5.727   3.787 -1.5269 -0.5290 -0.4225
  808MOL0     C 8958  11.557   5.693   3.917  0.2198 -0.5528  0.3083
  808MOL0     C 8959  11.473   5.631   4.020  0.6846 -1.0760 -0.1694
  808MOL0     C 8960  11.534   5.605   4.157 -0.3075  1.0391 -0.5376
  808MOL0     C 8961  11.633   5.491   4.141  0.1699 -0.5460  0.4357
  808MOL0     N 8962  11.714   5.500   4.268  0.0839 -0.6090 -0.4716
  808MOL0     C 8963  11.704   5.411   4.371  0.7782  0.6284  0.0816
  808MOL0     C 8964  11.811   5.436   4.456 -0.3306 -0.2909 -1.1254
  808MOL0     C 8965  11.844   5.349   4.576 -0.1481 -0.1481 -0.5551
  808MOL0     C 8966  11.964   5.415   4.653 -0.2520  1.1811 -0.1861
  808MOL0     C 8967  12.000   5.328   4.772 -0.4120 -0.6008  0.2293
  808MOL0     C 8968  12.145   5.368   4.828  0.4001  0.5842  1.3105
  808MOL0     O 8969  12.251   5.324   4.750 -1.3742  0.4202 -0.4977
  808MOL0     C 8970  12.369   5.370   4.800  0.0257 -0.1922 -0.2754
  808MOL0     C 8971  12.411   5.496   4.751  0.0345  0.5141  0.6823
  808MOL0     C 8972  12.514   5.569   4.806  0.6269  0.0229  0.3917
  808MOL0     C 8973  12.558   5.702   4.749  0.3431  0.1198  0.0533
  808MOL0     C 8974  12.567   5.523   4.928 -1.0363  1.2195 -0.1549
  808MOL0     C 8975  12.660   5.598   5.020 -0.4916 -0.1002  0.0036
  808MOL0     O 8976  12.645   5.573   5.150 -0.0572  0.2727 -0.4382
  808MOL0     C 8977  12.751   5.590   5.239  0.5032  0.3813 -0.7529
  808MOL0     C 8978  12.810   5.471   5.280 -0.3581 -0.3523 -0.3001
  808MOL0     C 8979  12.901   5.478   5.388 -1.0371  0.3693  0.3021
  808MOL0     C 8980  12.939   5.606   5.438 -0.3542  0.2845 -0.1076
  808MOL0     O 8981  13.051   5.607   5.521 -0.3757 -0.0213 -0.4223
  808MOL0     C 8982  13.174   5.629   5.444 -0.1408 -0.0877 -0.5015
  808MOL0     C 8983  13.295   5.611   5.533 -0.0453  0.1088  0.1851
  808MOL0     C 8984  13.347   5.463   5.536 -0.0897  0.9023  0.1091
  808MOL0     C 8985  13.245   5.358   5.556  0.5880 -0.1573  0.5054
  808MOL0     C 8986  13.297   5.213   5.581  0.4815 -0.8805 -0.6812
  808MOL0     C 8987  13.169   5.127   5.617  0.3616  0.5019 -0.4498
  808MOL0     C 8988  13.207   4.988   5.638  0.4142 -0.2658 -0.7026
  808MOL0     C 8989  13.101   4.903   5.722  0.0717 -0.4147  0.0418
  808MOL0    Cl 8990  12.936   4.888   5.630  0.0480 -0.0526 -0.1473
  808MOL0     C 8991  12.874   5.724   5.413  0.2715 -0.2996  0.9103
  808MOL0     C 8992  12.779   5.710   5.305  0.2967 -0.1886 -0.7939
  808MOL0     O 8993  12.749   5.665   4.977  0.0673 -0.1579 -0.3468
  808MOL0     C 8994  12.532   5.395   4.969 -0.2926  0.3155 -0.1868
  808MOL0     C 8995  12.440   5.315   4.905  0.3074 -0.3207 -0.1040
  808MOL0     N 8996  11.872   5.553   4.418  0.0979  0.1894 -0.2483
  808MOL0     N 8997  11.817   5.585   4.297 -0.0205  0.0169 -0.2803
  808MOL0     C 8998  11.396   5.256   3.341 -0.2537 -0.0525  0.9988
  808MOL0     C 8999  11.382   5.145   3.245  0.1309 -0.0470 -0.7177
  808MOL0     C 9000  11.302   4.951   2.822 -0.3394  0.0622 -1.1836
  808MOL0     C 9001  11.432   4.931   2.795 -1.0805  0.2498 -0.4588
  808MOL0     C 9002  11.468   4.836   2.702 -1.2809  1.2104  0.0650
  808MOL0     C 9003  11.375   4.762   2.631  0.1566 -0.3768  0.8419
  808MOL0     O 9004  11.407   4.658   2.546  0.2347  0.2925  0.1769
  808MOL0     C 9005  11.533   4.669   2.471  0.4374 -0.1593 -0.0542
  808MOL0     C 9006  11.528   4.567   2.351  0.3285  1.0060 -0.3590
  808MOL0     C 9007  11.678   4.536   2.321 -0.0723 -0.1790 -0.2114
  808MOL0     C 9008  11.741   4.644   2.233  0.8110 -0.6798  0.2870
  808MOL0     C 9009  11.880   4.613   2.200  0.0850 -0.0944 -0.4883
  808MOL0     C 9010  12.000   4.588   2.178 -0.4075 -0.1564 -0.0346
  808MOL0     C 9011  11.241   4.795   2.648 -0.3547  0.5308  0.2939
  808MOL0     C 9012  11.204   4.885   2.747  1.0516  0.6019  0.8329
  808MOL0     H 9013  11.313   5.308   2.963  0.6424 -2.3809 -0.3462
  808MOL0     H 9014  11.310   5.506   3.128 -1.6062  1.3762  0.5257
  808MOL0     H 9015  11.324   5.408   3.561  0.8053  0.7614  2.8059
  808MOL0     H 9016  11.497   5.447   3.527 -0.9068 -0.1536  2.4125
  808MOL0     H 9017  11.471   5.670   3.541 -0.0757 -1.0735  0.9240
  808MOL0     H 9018  11.292   5.661   3.565  0.2937  0.7719 -0.7406
  808MOL0     H 9019  11.330   5.557   3.778  0.8419  0.6774  1.6355
  808MOL0     H 9020  11.502   5.522   3.734 -2.1723 -3.1287  0.6352
  808MOL0     H 9021  11.521   5.791   3.722 -1.8829 -0.8505 -1.0871
  808MOL0     H 9022  11.374   5.794   3.801 -1.0525  0.8553 -3.3905
  808MOL0     H 9023  11.641   5.628   3.891 -0.6037 -1.6741  0.4084
  808MOL0     H 9024  11.601   5.785   3.958  0.1491 -1.3127  2.1810
  808MOL0     H 9025  11.388   5.699   4.033  0.3436 -1.6511  0.6396
  808MOL0     H 9026  11.436   5.536   3.982  0.3395 -1.3113  0.7310
  808MOL0     H 9027  11.579   5.690   4.208 -0.9977  2.5175 -2.2970
  808MOL0     H 9028  11.452   5.569   4.219 -1.1150  1.8078 -1.1334
  808MOL0     H 9029  11.691   5.508   4.050 -0.2128  1.2936  0.5064
  808MOL0     H 9030  11.583   5.393   4.137 -1.2567  0.0289  2.4127
  808MOL0     H 9031  11.636   5.326   4.372  0.9591  0.4095 -2.0840
  808MOL0     H 9032  11.769   5.338   4.655  0.6102  0.2216  0.2263
  808MOL0     H 9033  11.874   5.249   4.542 -0.1856 -0.3496 -0.0043
  808MOL0     H 9034  11.930   5.518   4.668 -0.9567  0.8627  0.5112
  808MOL0     H 9035  12.047   5.410   4.582 -1.2316  1.7171 -1.4208
  808MOL0     H 9036  11.989   5.221   4.752 -1.0777 -0.3493 -0.8446
  808MOL0     H 9037  11.934   5.358   4.853  3.0000 -2.5939  4.1431
  808MOL0     H 9038  12.144   5.323   4.927 -1.2806 -2.8169 -0.0632
  808MOL0     H 9039  12.141   5.477   4.833 -1.9551  0.5644  1.2372
  808MOL0     H 9040  12.370   5.530   4.657  2.2714  0.1748 -0.4813
  808MOL0     H 9041  12.649   5.684   4.690  0.0102  0.1969 -0.4858
  808MOL0     H 9042  12.479   5.745   4.688  0.2438 -2.3070 -1.6636
  808MOL0     H 9043  12.596   5.772   4.824 -1.8177 -1.8997  3.2685
  808MOL0     H 9044  12.792   5.377   5.228  1.3367  0.8730 -3.3959
  808MOL0     H 9045  12.948   5.387   5.424 -1.5554 -1.7306 -3.7056
  808MOL0     H 9046  13.176   5.564   5.356  2.4087  1.9889 -2.1476
  808MOL0     H 9047  13.170   5.732   5.407  2.5779 -0.0052 -0.7750
  808MOL0     H 9048  13.377   5.680   5.510 -1.0458  1.3502  0.2054
  808MOL0     H 9049  13.271   5.638   5.636 -0.3001  0.0347  0.1469
  808MOL0     H 9050  13.417   5.457   5.619 -1.3191  0.3226  1.1327
  808MOL0     H 9051  13.381   5.440   5.434  1.2071  3.4127 -0.1126
  808MOL0     H 9052  13.188   5.382   5.645 -0.8004  0.1346 -0.4324
  808MOL0     H 9053  13.177   5.353   5.470  1.3012 -2.4512 -0.0072
  808MOL0     H 9054  13.368   5.204   5.663  1.8147 -2.8567 -1.9585
  808MOL0     H 9055  13.356   5.173   5.498  2.3297  0.7105 -0.1985
  808MOL0     H 9056  13.125   5.166   5.709  1.3386  0.1217  0.2025
  808MOL0     H 9057  13.101   5.142   5.533  1.8302  1.6460 -1.4975
  808MOL0     H 9058  13.297   4.982   5.700 -2.6025  1.1961  4.4803
  808MOL0     H 9059  13.227   4.947   5.539 -0.1727  1.2664 -1.4830
  808MOL0     H 9060  13.096   4.936   5.826 -1.3476 -2.9372  0.8806
  808MOL0     H 9061  13.147   4.807   5.746  0.8422 -0.5706 -1.8411
  808MOL0     H 9062  12.894   5.813   5.471 -1.0359 -0.1013  1.0853
  808MOL0     H 9063  12.711   5.783   5.262 -1.1903 -0.1796  1.4198
  808MOL0     H 9064  12.574   5.346   5.056  0.2549 -1.1489 -1.2264
  808MOL0     H 9065  12.420   5.218   4.949 -0.6399  0.8766  2.2838
  808MOL0     H 9066  11.441   5.237   3.438  1.9019 -0.2369  0.0220
  808MOL0     H 9067  11.394   5.044   3.284 -1.3145  0.3125  0.7716
  808MOL0     H 9068  11.508   4.992   2.842  0.7214 -1.0480 -1.5523
  808MOL0     H 9069  11.569   4.819   2.669 -2.1332  1.1378 -2.8011
  808MOL0     H 9070  11.544   4.769   2.428  0.9189 -2.1014 -5.2184
  808MOL0     H 9071  11.614   4.644   2.540  0.8736 -0.5282 -0.6891
  808MOL0     H 9072  11.464   4.598   2.268  0.8800 -0.1750 -1.2495
  808MOL0     H 9073  11.481   4.475   2.386  0.4328  1.0076 -0.2149
  808MOL0     H 9074  11.670   4.438   2.273  1.3779  0.5508 -2.0358
  808MOL0     H 9075  11.739   4.524   2.411  0.3601 -0.1920 -0.5026
  808MOL0     H 9076  11.735   4.741   2.285  2.2503  0.3513 -1.3804
  808MOL0     H 9077  11.685   4.653   2.140  1.4773 -1.7941 -0.2435
  808MOL0     H 9078  12.092   4.553   2.137 -1.1172 -0.0775 -1.7635
  808MOL0     H 9079  11.164   4.741   2.595 -1.3146  2.1084  0.0084
  808MOL0     H 9080  11.097   4.903   2.758  0.5178 -1.9956  0.7090
  809MOL0     O 9081   7.967   1.737   4.787 -0.1442  0.9970 -0.2623
  809MOL0     C 9082   8.029   1.644   4.845 -0.4638  0.0112 -1.2176
  809MOL0     O 9083   8.009   1.600   4.977 -0.3112 -0.4550 -0.1514
  809MOL0     C 9084   7.945   1.675   5.067  0.0292 -0.3842  0.0760
  809MOL0     C 9085   7.873   1.608   5.173  0.9332 -0.4304  0.8418
  809MOL0     C 9086   7.808   1.681   5.274  0.0342 -0.7027 -0.3887
  809MOL0     C 9087   7.814   1.821   5.273 -0.3947 -0.5452 -0.3881
  809MOL0     O 9088   7.754   1.903   5.368 -0.2831  0.8012 -0.0018
  809MOL0     C 9089   7.639   1.850   5.439 -1.1015  0.0835  0.5471
  809MOL0     C 9090   7.507   1.924   5.425 -0.7011  0.8234 -0.2050
  809MOL0     C 9091   7.504   2.072   5.416 -0.6997 -0.5038  0.4855
  809MOL0     C 9092   7.532   2.124   5.274 -0.5194  0.6044 -0.3416
  809MOL0     C 9093   7.510   2.278   5.256  0.7957 -0.5703  0.3961
  809MOL0     C 9094   7.614   2.360   5.327 -0.4529 -0.2609  0.9888
  809MOL0     C 9095   7.752   2.338   5.267 -0.3745 -0.0382  0.2620
  809MOL0     C 9096   7.837   2.444   5.343 -0.3139 -0.2226  0.1648
  809MOL0     N 9097   7.971   2.432   5.288 -0.8035  0.7448  0.2235
  809MOL0     C 9098   8.022   2.489   5.179  0.5915  0.3443  0.2562
  809MOL0     C 9099   8.147   2.450   5.157 -0.1270 -0.6110  0.3682
  809MOL0     C 9100   8.224   2.482   5.032  0.1702  0.5677 -0.3882
  809MOL0     C 9101   8.354   2.554   5.073  0.0268  0.2428 -0.3990
  809MOL0     C 9102   8.452   2.558   4.957  0.0558  0.3435 -0.0321
  809MOL0     C 9103   8.573   2.642   5.002  0.4525 -0.1792  0.1936
  809MOL0     O 9104   8.636   2.679   4.873 -0.4247 -0.5153  0.2252
  809MOL0     C 9105   8.766   2.728   4.882  0.7084  0.0812 -1.1648
  809MOL0     C 9106   8.853   2.690   4.783 -1.0485  0.1280  0.4167
  809MOL0     C 9107   8.981   2.739   4.784  0.3302 -0.4959  0.8762
  809MOL0     C 9108   9.072   2.691   4.677 -0.8329 -0.3809  0.1658
  809MOL0     C 9109   9.032   2.834   4.877  0.9762 -0.9099 -0.7033
  809MOL0     C 9110   9.156   2.924   4.862  0.4042  0.3550  0.7047
  809MOL0     O 9111   9.144   3.042   4.928 -0.0667  0.0127 -0.2285
  809MOL0     C 9112   9.256   3.105   4.985  0.8645 -0.7029 -0.5829
  809MOL0     C 9113   9.317   3.045   5.100 -0.1675 -0.3527 -0.1518
  809MOL0     C 9114   9.426   3.106   5.169 -0.3951 -0.1229  0.1973
  809MOL0     C 9115   9.489   3.221   5.110 -0.1461  0.5676 -0.8566
  809MOL0     O 9116   9.608   3.263   5.171  0.5696 -0.3175  0.7276
  809MOL0     C 9117   9.682   3.382   5.127  0.8036 -0.6651 -0.9158
  809MOL0     C 9118   9.662   3.506   5.218  0.0117  0.9205  0.9250
  809MOL0     C 9119   9.710   3.633   5.150 -0.2848  0.8454 -0.4203
  809MOL0     C 9120   9.643   3.755   5.221  0.3006 -0.7053  0.1001
  809MOL0     C 9121   9.508   3.777   5.154  0.6912  0.0659  0.1163
  809MOL0     C 9122   9.404   3.867   5.225  0.5892 -0.4596 -0.0984
  809MOL0     C 9123   9.451   4.016   5.250 -0.5814 -0.2825 -0.2674
  809MOL0     C 9124   9.344   4.130   5.253 -0.4139  0.0213  0.1596
  809MOL0    Cl 9125   9.314   4.159   5.077 -0.0169  0.2505 -0.0578
  809MOL0     C 9126   9.426   3.288   5.005 -0.9751  0.0401 -0.2604
  809MOL0     C 9127   9.304   3.234   4.948 -1.1083  0.4799  0.7257
  809MOL0     O 9128   9.256   2.872   4.808  0.4802  0.4365 -0.0238
  809MOL0     C 9129   8.934   2.873   4.981  1.1199 -0.5075 -0.0536
  809MOL0     C 9130   8.807   2.807   4.990 -0.4464 -0.8682  0.7792
  809MOL0     N 9131   8.176   2.362   5.260 -0.4049  0.2320 -0.0488
  809MOL0     N 9132   8.072   2.356   5.335 -0.6192 -0.3876 -0.0442
  809MOL0     C 9133   7.884   1.885   5.173  0.4798  0.5672  0.1441
  809MOL0     C 9134   7.953   1.811   5.074  0.6989  0.3591  0.2807
  809MOL0     C 9135   8.123   1.576   4.757  1.1214 -0.7783 -0.0683
  809MOL0     C 9136   8.183   1.634   4.641  0.0169 -0.9033 -0.1143
  809MOL0     C 9137   8.261   1.560   4.554 -1.1080 -0.3904 -0.2453
  809MOL0     C 9138   8.277   1.425   4.568  1.4839  0.6917 -0.0867
  809MOL0     O 9139   8.352   1.351   4.477 -0.0368  0.2299  0.0673
  809MOL0     C 9140   8.403   1.424   4.357  0.3622  0.4985 -1.2350
  809MOL0     C 9141   8.472   1.323   4.259  0.0849 -0.6508 -0.0341
  809MOL0     C 9142   8.491   1.378   4.124 -0.0647  0.1569  0.5102
  809MOL0     C 9143   8.569   1.286   4.034  0.0104 -0.6525 -0.2170
  809MOL0     C 9144   8.583   1.335   3.892 -0.5022 -0.1589 -0.1974
  809MOL0     C 9145   8.582   1.392   3.787  1.2556 -0.1539 -1.1003
  809MOL0     C 9146   8.208   1.364   4.677  0.0827  0.4321 -0.0783
  809MOL0     C 9147   8.132   1.434   4.770 -0.2582  0.0170 -0.2123
  809MOL0     H 9148   7.869   1.500   5.170 -2.6380 -0.4234 -0.9136
  809MOL0     H 9149   7.785   1.612   5.355  3.4544  0.4087  1.7581
  809MOL0     H 9150   7.606   1.753   5.400  1.4456 -0.6307  0.0028
  809MOL0     H 9151   7.664   1.845   5.546  1.2504  3.0340  0.2671
  809MOL0     H 9152   7.464   1.895   5.329  0.5682 -1.6973 -0.1025
  809MOL0     H 9153   7.437   1.892   5.503 -0.4135  3.4697  1.2370
  809MOL0     H 9154   7.403   2.102   5.447 -0.9786 -3.5898  3.0988
  809MOL0     H 9155   7.576   2.117   5.485  1.6604  0.3218 -2.3329
  809MOL0     H 9156   7.631   2.093   5.240 -0.6276 -1.9425  1.3501
  809MOL0     H 9157   7.467   2.073   5.202 -2.7169  0.1247  1.8046
  809MOL0     H 9158   7.512   2.298   5.149 -1.2729  0.3417  0.4705
  809MOL0     H 9159   7.410   2.312   5.286 -0.4653 -3.8592  0.3055
  809MOL0     H 9160   7.586   2.464   5.305 -2.1973 -0.6819  1.0303
  809MOL0     H 9161   7.615   2.334   5.433  2.8790 -0.0674  1.0984
  809MOL0     H 9162   7.786   2.244   5.310 -0.4349 -0.6193 -0.9196
  809MOL0     H 9163   7.754   2.351   5.158 -2.0372  2.0844  0.4093
  809MOL0     H 9164   7.846   2.441   5.452  3.8468  0.6898 -0.0068
  809MOL0     H 9165   7.793   2.539   5.312 -0.7955 -0.9518 -1.5440
  809MOL0     H 9166   7.953   2.552   5.125  1.3425  1.1305  0.1806
  809MOL0     H 9167   8.250   2.389   4.982  0.1709  1.0546 -1.3207
  809MOL0     H 9168   8.168   2.549   4.966  2.9427  5.5863  1.7715
  809MOL0     H 9169   8.396   2.497   5.157 -3.1805 -2.8078 -0.6238
  809MOL0     H 9170   8.339   2.650   5.123 -3.1897 -1.1376  1.7221
  809MOL0     H 9171   8.412   2.608   4.868  2.0331  0.2878 -1.0131
  809MOL0     H 9172   8.466   2.455   4.922 -1.9080 -0.2912  0.8976
  809MOL0     H 9173   8.640   2.572   5.054 -0.5727 -0.3383  1.3531
  809MOL0     H 9174   8.545   2.732   5.058 -1.8750 -0.2617 -0.7098
  809MOL0     H 9175   8.824   2.632   4.696  1.0459 -2.9501  1.6145
  809MOL0     H 9176   9.024   2.612   4.619 -0.4862 -1.0392  0.7736
  809MOL0     H 9177   9.095   2.779   4.615 -3.2574  0.0179 -0.2772
  809MOL0     H 9178   9.158   2.649   4.729 -2.0804 -0.0920  2.6289
  809MOL0     H 9179   9.280   2.945   5.122 -3.0240 -0.1429 -3.2418
  809MOL0     H 9180   9.473   3.073   5.261  1.1467  0.2408 -0.4267
  809MOL0     H 9181   9.785   3.348   5.136  0.8540 -0.2078  0.6325
  809MOL0     H 9182   9.657   3.406   5.023 -1.2070 -1.6610 -0.7142
  809MOL0     H 9183   9.562   3.514   5.260  0.5884  0.4092  2.4536
  809MOL0     H 9184   9.715   3.493   5.313 -1.6296  1.9812  2.0438
  809MOL0     H 9185   9.686   3.634   5.043  2.5520  2.9778 -1.1763
  809MOL0     H 9186   9.818   3.627   5.166 -0.4630 -0.7449  0.2980
  809MOL0     H 9187   9.643   3.740   5.329  3.4315  2.0134  0.6382
  809MOL0     H 9188   9.722   3.828   5.200 -0.8543  0.9711  1.2891
  809MOL0     H 9189   9.458   3.679   5.151  0.7199  0.0578 -0.1061
  809MOL0     H 9190   9.522   3.817   5.053  0.9010  0.6749  0.3812
  809MOL0     H 9191   9.313   3.861   5.165  0.0781  0.5406  0.5521
  809MOL0     H 9192   9.376   3.820   5.321 -4.1499 -0.1197 -1.0628
  809MOL0     H 9193   9.535   4.044   5.185 -0.7360 -0.8587 -0.7270
  809MOL0     H 9194   9.487   4.015   5.353 -0.4555 -0.6989 -0.3104
  809MOL0     H 9195   9.382   4.224   5.295 -3.3683  1.0895  0.7065
  809MOL0     H 9196   9.252   4.097   5.303 -1.5317  2.0617 -0.4392
  809MOL0     H 9197   9.464   3.378   4.958  3.5548 -0.6461  1.5904
  809MOL0     H 9198   9.267   3.294   4.866  4.8013  1.8004 -1.4551
  809MOL0     H 9199   8.956   2.939   5.065  0.3642 -1.0759  0.6156
  809MOL0     H 9200   8.752   2.830   5.080  3.3146  3.7553  2.3225
  809MOL0     H 9201   7.893   1.993   5.175 -0.4574  0.6482  0.6274
  809MOL0     H 9202   8.011   1.858   4.996 -0.6030 -0.2927 -1.1387
  809MOL0     H 9203   8.169   1.735   4.605  0.4608 -0.7312  0.1905
  809MOL0     H 9204   8.295   1.617   4.468  0.9651 -0.7016  0.3206
  809MOL0     H 9205   8.317   1.463   4.302  1.0769  0.1746 -2.6264
  809MOL0     H 9206   8.484   1.492   4.386  3.1115 -2.4171 -1.6157
  809MOL0     H 9207   8.411   1.232   4.250  1.6803 -1.7771  0.0706
  809MOL0     H 9208   8.565   1.286   4.303 -1.1576 -1.7031  1.8068
  809MOL0     H 9209   8.548   1.470   4.131 -1.6166  1.5813 -3.0869
  809MOL0     H 9210   8.394   1.396   4.077 -0.2781 -2.2901 -0.1270
  809MOL0     H 9211   8.515   1.191   4.023 -0.2637 -0.4362 -0.8056
  809MOL0     H 9212   8.667   1.276   4.081 -1.0037  0.6685  2.4061
  809MOL0     H 9213   8.581   1.454   3.700 -0.9065  0.7717 -0.4854
  809MOL0     H 9214   8.239   1.261   4.689  2.7597  1.1841  0.0957
  809MOL0     H 9215   8.089   1.384   4.856  2.8788 -0.5543  1.1596
  810MOL0     O 9216   0.391   6.706   2.991 -0.4805 -0.1353  0.3724
  810MOL0     C 9217   0.406   6.719   2.873  0.2111 -0.4486 -0.4935
  810MOL0     O 9218   0.472   6.637   2.790  1.0142 -0.0915 -0.1494
  810MOL0     C 9219   0.549   6.534   2.851 -0.0491 -0.3671 -0.1288
  810MOL0     C 9220   0.491   6.412   2.884  0.8360  0.0649 -0.1670
  810MOL0     C 9221   0.549   6.315   2.972 -0.0346 -0.5113  1.3005
  810MOL0     C 9222   0.672   6.340   3.024  0.2690 -0.0262 -0.6334
  810MOL0     O 9223   0.741   6.246   3.097 -0.0504  0.3935 -0.1011
  810MOL0     C 9224   0.676   6.119   3.127  0.0698 -0.9102 -0.0800
  810MOL0     C 9225   0.768   6.059   3.233 -0.1727  1.4954  0.1418
  810MOL0     C 9226   0.684   5.965   3.319 -0.0815 -0.2043 -0.4200
  810MOL0     C 9227   0.781   5.907   3.429  0.5695  0.5150  1.0744
  810MOL0     C 9228   0.701   5.861   3.550  0.2176 -0.6863 -0.4543
  810MOL0     C 9229   0.798   5.782   3.650  0.0473  0.1024  0.0833
  810MOL0     C 9230   0.725   5.744   3.778 -0.8697  0.4943 -1.2228
  810MOL0     C 9231   0.831   5.689   3.879  0.5164  0.7960 -0.0198
  810MOL0     N 9232   0.877   5.551   3.840 -1.2721  0.0705  0.2355
  810MOL0     C 9233   0.879   5.444   3.927 -0.8034  0.2178  0.0933
  810MOL0     C 9234   0.990   5.363   3.896  0.3789  0.3297  1.1506
  810MOL0     C 9235   1.029   5.230   3.957  0.9846 -0.1647 -0.3165
  810MOL0     C 9236   0.911   5.137   4.002 -0.1781 -0.2692  0.2223
  810MOL0     C 9237   0.969   4.996   4.021 -0.7149  0.0467  0.1762
  810MOL0     C 9238   0.853   4.891   4.044 -0.4216 -0.0438  0.4188
  810MOL0     O 9239   0.902   4.759   4.062 -0.0392 -0.2033 -0.2434
  810MOL0     C 9240   0.812   4.665   4.114 -0.8350  0.0528  0.1638
  810MOL0     C 9241   0.673   4.677   4.124 -0.2322 -1.8263 -0.1554
  810MOL0     C 9242   0.588   4.576   4.179 -0.0277 -0.2411 -0.9264
  810MOL0     C 9243   0.431   4.609   4.200 -0.4875  0.6741 -0.0896
  810MOL0     C 9244   0.646   4.447   4.200  0.1057 -0.4954 -0.6166
  810MOL0     C 9245   0.570   4.322   4.243  0.7794 -0.1691  0.3974
  810MOL0     O 9246   0.627   4.192   4.234 -1.1912 -0.4416 -0.1044
  810MOL0     C 9247   0.569   4.089   4.291  0.0064 -0.7265 -0.6359
  810MOL0     C 9248   0.551   4.091   4.430 -0.9426 -0.1260 -0.1181
  810MOL0     C 9249   0.484   3.978   4.480 -0.6596  0.3944  0.4320
  810MOL0     C 9250   0.436   3.870   4.409  0.7689  0.5727 -0.5693
  810MOL0     O 9251   0.359   3.776   4.470 -1.0768 -0.0525  0.3881
  810MOL0     C 9252   0.409   3.719   4.599 -0.2310 -0.0209 -0.3578
  810MOL0     C 9253   0.307   3.736   4.707  0.5475  0.1892  0.7857
  810MOL0     C 9254   0.306   3.881   4.754 -0.9115 -0.9106 -0.2252
  810MOL0     C 9255   0.208   3.889   4.874 -0.4285 -0.1211  0.2245
  810MOL0     C 9256   0.171   4.034   4.918 -0.1589 -0.2377  0.6386
  810MOL0     C 9257   0.130   4.066   5.059 -0.8732 -0.6870  0.2959
  810MOL0     C 9258   0.234   4.037   5.165  1.1173 -0.2361 -0.0660
  810MOL0     C 9259   0.187   4.076   5.303  1.1199  0.2856  0.4253
  810MOL0    Cl 9260   0.220   4.260   5.322  0.0857  0.0552 -0.1986
  810MOL0     C 9261   0.455   3.877   4.274  0.2355 -0.5755  0.2322
  810MOL0     C 9262   0.520   3.984   4.215  0.5790 -0.1523  0.2230
  810MOL0     O 9263   0.447   4.332   4.275 -0.2856  0.1740  0.0858
  810MOL0     C 9264   0.784   4.424   4.161 -0.3303 -0.4722  0.0850
  810MOL0     C 9265   0.857   4.537   4.123  0.0466  0.2218 -0.7616
  810MOL0     N 9266   1.056   5.416   3.781 -0.3425  0.1472 -0.2771
  810MOL0     N 9267   0.991   5.527   3.756 -1.1230  0.0268  0.0759
  810MOL0     C 9268   0.744   6.453   2.987  0.3204 -0.0011  0.2335
  810MOL0     C 9269   0.677   6.553   2.912  0.5896  0.8054 -0.1018
  810MOL0     C 9270   0.332   6.837   2.809 -0.5864 -0.0902 -0.0118
  810MOL0     C 9271   0.367   6.864   2.677  0.3525 -0.1961 -0.2259
  810MOL0     C 9272   0.304   6.971   2.608  0.1635  0.9870  0.2521
  810MOL0     C 9273   0.209   7.046   2.664  0.2943  0.2723 -0.2399
  810MOL0     O 9274   0.154   7.150   2.599  0.0379  0.1380 -0.3949
  810MOL0     C 9275   0.023   7.142   2.558 -1.6559  0.5970 -0.7815
  810MOL0     C 9276  -0.009   7.281   2.501  0.3475 -0.4101  0.4019
  810MOL0     C 9277  -0.098   7.377   2.588 -0.8769 -0.1104  0.4172
  810MOL0     C 9278  -0.226   7.318   2.656 -0.0560  0.2570 -0.6398
  810MOL0     C 9279  -0.299   7.405   2.744 -0.6562  0.0207  0.0229
  810MOL0     C 9280  -0.351   7.479   2.830  0.0173  0.1730 -0.4351
  810MOL0     C 9281   0.174   7.026   2.792 -0.9855 -0.3730 -0.2704
  810MOL0     C 9282   0.232   6.916   2.866 -0.2201  0.5740  0.0074
  810MOL0     H 9283   0.401   6.383   2.831  0.6428 -1.7592  1.0719
  810MOL0     H 9284   0.495   6.222   2.989 -0.6556 -0.9403 -2.2280
  810MOL0     H 9285   0.574   6.135   3.162  0.1014  4.1335 -1.5673
  810MOL0     H 9286   0.679   6.049   3.043 -1.2852 -1.8888  0.6532
  810MOL0     H 9287   0.844   5.993   3.191  0.2341 -0.5175  3.6846
  810MOL0     H 9288   0.811   6.141   3.291  0.9131  1.6362 -0.8138
  810MOL0     H 9289   0.602   6.020   3.365  0.3692 -1.2017  1.6849
  810MOL0     H 9290   0.646   5.876   3.268  1.6936 -1.2004 -0.0938
  810MOL0     H 9291   0.842   5.827   3.387  0.5289  1.2428 -0.4319
  810MOL0     H 9292   0.856   5.981   3.459 -0.0675  1.8074 -0.3763
  810MOL0     H 9293   0.656   5.948   3.598 -1.5587 -1.9263  0.2266
  810MOL0     H 9294   0.629   5.784   3.522 -0.2276 -2.4601  4.5773
  810MOL0     H 9295   0.843   5.691   3.609  0.8539 -1.2222  3.5535
  810MOL0     H 9296   0.883   5.850   3.667  0.3982  0.1295 -1.6250
  810MOL0     H 9297   0.672   5.827   3.825  2.0284  0.6105  2.3027
  810MOL0     H 9298   0.660   5.659   3.756  2.0661 -2.9011  1.7886
  810MOL0     H 9299   0.780   5.672   3.974  1.3762  1.4895  0.5823
  810MOL0     H 9300   0.916   5.756   3.895 -0.2171  1.4006  1.5743
  810MOL0     H 9301   0.822   5.434   4.019  1.6927 -1.4405  1.5657
  810MOL0     H 9302   1.096   5.177   3.890  0.7608  0.0786 -0.7351
  810MOL0     H 9303   1.077   5.258   4.051 -1.8460 -0.2637  1.2965
  810MOL0     H 9304   0.833   5.131   3.925 -2.2515 -1.0881  2.2807
  810MOL0     H 9305   0.865   5.157   4.100  0.5605 -5.2970  1.8833
  810MOL0     H 9306   1.030   5.009   4.110  0.0605  3.8859 -0.7169
  810MOL0     H 9307   1.018   4.966   3.928 -2.8110  0.1605 -1.0264
  810MOL0     H 9308   0.776   4.886   3.966 -2.1890  1.5049  1.9711
  810MOL0     H 9309   0.810   4.922   4.139 -1.0824  0.1537  0.0665
  810MOL0     H 9310   0.629   4.774   4.102 -0.4914 -1.7203  0.7833
  810MOL0     H 9311   0.370   4.532   4.151 -1.8016 -0.2306  2.7843
  810MOL0     H 9312   0.398   4.603   4.304 -0.2784 -0.6004 -0.0800
  810MOL0     H 9313   0.405   4.709   4.163 -0.5963 -0.6103 -3.9440
  810MOL0     H 9314   0.594   4.164   4.497  0.0537 -1.4561  0.7673
  810MOL0     H 9315   0.483   3.976   4.589 -0.9843 -0.8906  0.4217
  810MOL0     H 9316   0.424   3.611   4.585 -0.2380 -0.2670  1.3324
  810MOL0     H 9317   0.506   3.764   4.622  0.2937  0.6386 -3.3973
  810MOL0     H 9318   0.212   3.699   4.667 -0.8753  2.1714  2.1236
  810MOL0     H 9319   0.339   3.671   4.789  0.8777 -0.9947 -0.2576
  810MOL0     H 9320   0.269   3.954   4.681  0.8997  0.2604 -0.0416
  810MOL0     H 9321   0.409   3.910   4.780 -2.0983  1.8736  1.8776
  810MOL0     H 9322   0.117   3.834   4.851 -2.0039  0.8047  3.6216
  810MOL0     H 9323   0.260   3.832   4.952 -0.9357 -2.5890 -1.1305
  810MOL0     H 9324   0.081   4.061   4.862  0.9311 -1.8658 -2.1627
  810MOL0     H 9325   0.253   4.097   4.883  0.5935 -1.3568  0.3317
  810MOL0     H 9326   0.108   4.173   5.061 -2.0089 -0.7909 -2.2114
  810MOL0     H 9327   0.041   4.004   5.072  1.9833 -4.9575  1.7757
  810MOL0     H 9328   0.328   4.090   5.146 -0.3666  3.0519  0.9170
  810MOL0     H 9329   0.244   3.928   5.161 -0.6127 -0.4056 -2.8286
  810MOL0     H 9330   0.235   4.007   5.374  0.9667  2.2320  2.5367
  810MOL0     H 9331   0.079   4.063   5.313  0.4808  3.7053 -0.6890
  810MOL0     H 9332   0.415   3.796   4.214 -4.5228  1.3922  0.3210
  810MOL0     H 9333   0.542   3.989   4.109  2.0370 -1.7207  0.4131
  810MOL0     H 9334   0.823   4.322   4.157 -0.7657 -0.6201 -0.5265
  810MOL0     H 9335   0.951   4.517   4.072  1.4653  0.7766  1.4860
  810MOL0     H 9336   0.846   6.457   3.022 -0.1803 -0.0823  1.7930
  810MOL0     H 9337   0.718   6.653   2.904 -1.5224  1.8056  0.8446
  810MOL0     H 9338   0.450   6.815   2.628 -0.8148  0.2552 -2.8209
  810MOL0     H 9339   0.351   7.008   2.517  0.8738 -0.7332 -0.1298
  810MOL0     H 9340   0.019   7.069   2.476  2.3218  1.8641 -2.3451
  810MOL0     H 9341  -0.028   7.112   2.649  2.3996  1.4061  2.0435
  810MOL0     H 9342  -0.064   7.266   2.408 -2.8040  1.6300  1.7639
  810MOL0     H 9343   0.084   7.329   2.468  1.8747 -3.9320 -0.9285
  810MOL0     H 9344  -0.122   7.468   2.532 -1.9754  0.0304  1.0767
  810MOL0     H 9345  -0.015   7.407   2.653 -0.9647  2.5347 -0.5729
  810MOL0     H 9346  -0.214   7.222   2.707 -2.9344  0.4328  0.5584
  810MOL0     H 9347  -0.288   7.297   2.568  1.4269  0.1336 -1.6857
  810MOL0     H 9348  -0.413   7.548   2.883 -1.4384 -1.2179 -0.2526
  810MOL0     H 9349   0.104   7.100   2.830  0.3749 -0.1970  2.0476
  810MOL0     H 9350   0.186   6.882   2.958 -0.2225 -2.4907 -1.0098
  811MOL0     O 9351   2.603   2.171   2.174 -0.2509  0.4110 -0.3880
  811MOL0     C 9352   2.606   2.287   2.193  0.6310  0.0558  0.4160
  811MOL0     O 9353   2.716   2.369   2.189  0.1689  0.4151  0.6153
  811MOL0     C 9354   2.823   2.337   2.103 -0.4112 -0.0061  0.4168
  811MOL0     C 9355   2.855   2.421   1.995  0.5944  0.9723  0.6475
  811MOL0     C 9356   2.963   2.373   1.911 -0.1423  0.5298  0.2744
  811MOL0     C 9357   3.028   2.243   1.925  0.4197 -0.0253  0.0010
  811MOL0     O 9358   3.098   2.200   1.817 -0.2109  0.4058  0.3828
  811MOL0     C 9359   3.141   2.064   1.817  0.8560  0.3713  0.7150
  811MOL0     C 9360   3.272   2.051   1.896  0.0565 -0.0067  0.5493
  811MOL0     C 9361   3.310   1.902   1.906  0.1257 -0.0944  0.2873
  811MOL0     C 9362   3.261   1.826   2.033 -0.1936 -0.0131 -0.5819
  811MOL0     C 9363   3.124   1.757   2.017 -0.4730 -0.6806 -0.4666
  811MOL0     C 9364   3.077   1.703   2.152  0.7008  0.5598  0.7019
  811MOL0     C 9365   3.161   1.599   2.220  0.2369 -0.2094 -1.3680
  811MOL0     C 9366   3.147   1.457   2.167  0.4979  0.0482  0.7895
  811MOL0     N 9367   3.189   1.359   2.269 -0.0042  0.6443  0.6705
  811MOL0     C 9368   3.318   1.321   2.289  0.7008 -0.0228  0.3289
  811MOL0     C 9369   3.316   1.228   2.386 -1.0352  0.8775 -0.0909
  811MOL0     C 9370   3.423   1.120   2.399 -0.2923 -0.1614  0.7644
  811MOL0     C 9371   3.537   1.156   2.501 -0.5980  0.4330  0.2020
  811MOL0     C 9372   3.664   1.072   2.502 -0.3125  0.2941 -0.3336
  811MOL0     C 9373   3.745   1.064   2.377  0.6256 -0.3655 -0.3621
  811MOL0     O 9374   3.772   1.198   2.326 -0.9390 -0.3527 -0.2774
  811MOL0     C 9375   3.848   1.206   2.215 -0.2057 -0.5606  0.6737
  811MOL0     C 9376   3.871   1.114   2.110  0.0946 -0.3137  0.0316
  811MOL0     C 9377   3.956   1.151   1.997  0.2085 -0.0897 -0.3709
  811MOL0     C 9378   3.982   1.031   1.912 -1.1114 -0.3000  0.5873
  811MOL0     C 9379   4.025   1.271   1.996 -0.8674  0.4286  0.3734
  811MOL0     C 9380   4.128   1.311   1.897  1.1901 -0.4827  0.8195
  811MOL0     O 9381   4.163   1.450   1.906 -0.1875  0.0129  0.6280
  811MOL0     C 9382   4.271   1.503   1.844  0.8991  0.9111  0.3460
  811MOL0     C 9383   4.365   1.580   1.914  0.2763  0.7797  0.1015
  811MOL0     C 9384   4.479   1.636   1.852  0.5702  0.2475  0.4992
  811MOL0     C 9385   4.497   1.627   1.716 -0.1541 -1.1197 -0.3017
  811MOL0     O 9386   4.594   1.685   1.639 -0.5352 -0.4591  0.6079
  811MOL0     C 9387   4.721   1.703   1.695  1.0734 -1.3183  0.1000
  811MOL0     C 9388   4.795   1.735   1.563 -0.8299  0.0669 -0.8596
  811MOL0     C 9389   4.810   1.608   1.469 -0.1483  0.0157  0.1321
  811MOL0     C 9390   4.923   1.613   1.379  0.0516 -0.0942 -0.0210
  811MOL0     C 9391   4.923   1.499   1.271  0.0223 -1.0705  0.2472
  811MOL0     C 9392   5.038   1.506   1.161  1.5580  0.8286 -0.6733
  811MOL0     C 9393   5.054   1.360   1.096  0.1386 -0.6584 -0.1704
  811MOL0     C 9394   5.164   1.355   0.976  0.6217  0.0053 -0.4133
  811MOL0    Cl 9395   5.320   1.456   0.994 -0.1122 -0.1974 -0.1973
  811MOL0     C 9396   4.398   1.567   1.644  0.5141 -0.2430 -0.2909
  811MOL0     C 9397   4.284   1.505   1.710 -0.1162  0.2608 -0.0473
  811MOL0     O 9398   4.170   1.236   1.813  0.0426  0.1112 -0.0483
  811MOL0     C 9399   4.001   1.358   2.100 -1.0178  0.6020 -1.1180
  811MOL0     C 9400   3.914   1.324   2.205 -0.4084 -0.2587 -0.2277
  811MOL0     N 9401   3.185   1.217   2.439 -0.1603  1.1853 -0.1986
  811MOL0     N 9402   3.112   1.282   2.356  0.3171 -0.4461 -0.1047
  811MOL0     C 9403   3.006   2.176   2.049 -0.3381 -0.8379 -0.6589
  811MOL0     C 9404   2.913   2.236   2.132  0.5869  0.6058  0.0555
  811MOL0     C 9405   2.482   2.348   2.228 -0.7730  0.8958 -0.2789
  811MOL0     C 9406   2.464   2.482   2.260 -0.1976  0.8609 -0.0904
  811MOL0     C 9407   2.348   2.540   2.284  0.0654 -1.2300 -0.8790
  811MOL0     C 9408   2.225   2.466   2.294 -0.4492  0.1183  0.2951
  811MOL0     O 9409   2.103   2.518   2.336  0.2638  0.5103  0.5705
  811MOL0     C 9410   2.087   2.648   2.385 -0.8715  0.6737  0.7488
  811MOL0     C 9411   1.948   2.704   2.384  0.4771  0.1848  0.3032
  811MOL0     C 9412   1.837   2.630   2.472 -0.3097 -0.4640 -0.6037
  811MOL0     C 9413   1.792   2.485   2.418 -0.5869  0.2180 -0.6091
  811MOL0     C 9414   1.651   2.470   2.452  0.1738  0.6477 -0.3165
  811MOL0     C 9415   1.531   2.469   2.447 -0.5359 -0.0870 -0.7790
  811MOL0     C 9416   2.235   2.327   2.276 -0.3357 -0.3798 -0.4756
  811MOL0     C 9417   2.361   2.273   2.241  0.1956  0.3806  0.1618
  811MOL0     H 9418   2.800   2.512   1.974  0.4609  0.6110 -0.6645
  811MOL0     H 9419   2.988   2.438   1.828 -0.6051 -0.9857 -1.1160
  811MOL0     H 9420   3.061   1.995   1.846  0.2308  0.5201 -0.5743
  811MOL0     H 9421   3.175   2.032   1.718  1.5025  1.0639  0.7118
  811MOL0     H 9422   3.348   2.110   1.844  0.3964 -0.0795  0.9587
  811MOL0     H 9423   3.257   2.093   1.996 -0.1833  0.6035  0.2584
  811MOL0     H 9424   3.288   1.836   1.821 -1.6986  0.8414 -0.0405
  811MOL0     H 9425   3.419   1.900   1.915  0.1477 -0.5337 -0.0405
  811MOL0     H 9426   3.344   1.761   2.064 -0.5226  0.6463  1.8305
  811MOL0     H 9427   3.248   1.894   2.117 -2.9908 -1.4719  0.2818
  811MOL0     H 9428   3.050   1.826   1.975 -0.2587 -1.6742 -2.5991
  811MOL0     H 9429   3.124   1.684   1.935  0.5395  0.4218 -1.4800
  811MOL0     H 9430   3.066   1.783   2.226  1.7810  0.6375  0.7922
  811MOL0     H 9431   2.976   1.663   2.141  0.4810  0.7162  1.9721
  811MOL0     H 9432   3.267   1.622   2.228  0.3337 -0.4985 -1.7861
  811MOL0     H 9433   3.137   1.603   2.327  0.1071  2.3906 -1.4332
  811MOL0     H 9434   3.207   1.445   2.076 -3.3297 -0.2417 -1.9998
  811MOL0     H 9435   3.042   1.435   2.142 -0.0483  2.3376  0.7893
  811MOL0     H 9436   3.409   1.343   2.234 -0.0264 -0.1517 -0.9923
  811MOL0     H 9437   3.371   1.030   2.433 -1.5656  0.1544 -0.2403
  811MOL0     H 9438   3.461   1.093   2.300 -2.0777  1.5002 -0.4427
  811MOL0     H 9439   3.501   1.165   2.604  0.8047 -0.7999  0.8304
  811MOL0     H 9440   3.564   1.257   2.468  0.7083  0.7114  1.9673
  811MOL0     H 9441   3.643   0.973   2.542 -2.4608  1.3618  1.3987
  811MOL0     H 9442   3.726   1.105   2.586  0.4622 -1.4055 -0.1899
  811MOL0     H 9443   3.693   1.000   2.305 -2.1591  0.1757  1.0676
  811MOL0     H 9444   3.844   1.022   2.401  1.3338  0.8792 -0.9795
  811MOL0     H 9445   3.817   1.020   2.119 -0.0810 -0.7868 -4.1454
  811MOL0     H 9446   4.071   0.981   1.950 -0.7161  0.4502  0.6687
  811MOL0     H 9447   3.895   0.965   1.906 -0.3425 -1.2613 -4.5419
  811MOL0     H 9448   3.993   1.065   1.809 -2.5734 -2.0701 -0.2186
  811MOL0     H 9449   4.368   1.583   2.023 -1.3492 -1.8317  0.3150
  811MOL0     H 9450   4.550   1.695   1.909  2.5344 -0.8163 -0.6975
  811MOL0     H 9451   4.712   1.791   1.760  1.4780 -0.5584 -0.8323
  811MOL0     H 9452   4.765   1.620   1.749 -1.2964 -0.8167  3.0750
  811MOL0     H 9453   4.745   1.824   1.524  2.5361  1.8006 -1.5677
  811MOL0     H 9454   4.899   1.756   1.590 -0.1642 -4.8712  1.6362
  811MOL0     H 9455   4.720   1.607   1.406 -0.7468 -1.7218  0.9715
  811MOL0     H 9456   4.799   1.516   1.526  0.9858 -1.4948 -1.9441
  811MOL0     H 9457   4.918   1.705   1.320  0.0752 -0.2367 -0.2469
  811MOL0     H 9458   5.020   1.606   1.430  0.6845 -2.8616 -1.3854
  811MOL0     H 9459   4.829   1.519   1.219  0.3805 -2.5692 -1.0621
  811MOL0     H 9460   4.930   1.402   1.320 -0.4619 -0.7841  0.8906
  811MOL0     H 9461   5.010   1.572   1.078  1.1827  0.3143 -0.9632
  811MOL0     H 9462   5.135   1.536   1.202  1.1673  0.4961  0.5285
  811MOL0     H 9463   4.955   1.342   1.054  0.2166  2.7383 -2.1621
  811MOL0     H 9464   5.081   1.287   1.173  0.7926 -2.3170 -1.8988
  811MOL0     H 9465   5.125   1.391   0.881  0.8180  0.7852 -0.2025
  811MOL0     H 9466   5.200   1.255   0.949  4.2663  1.9494 -3.6615
  811MOL0     H 9467   4.403   1.567   1.536  1.7565 -0.9939 -0.2589
  811MOL0     H 9468   4.220   1.446   1.645  0.1881 -0.8575  0.6357
  811MOL0     H 9469   4.056   1.451   2.105 -0.5279  0.2984 -0.8871
  811MOL0     H 9470   3.898   1.405   2.276 -0.1551  1.4207 -2.0217
  811MOL0     H 9471   3.043   2.075   2.064  0.1796 -0.3817  1.4820
  811MOL0     H 9472   2.887   2.187   2.226 -1.5793  3.2328  0.9611
  811MOL0     H 9473   2.549   2.550   2.257 -1.6894  2.7906 -2.2803
  811MOL0     H 9474   2.356   2.646   2.305  0.0457 -1.3281 -0.3712
  811MOL0     H 9475   2.133   2.635   2.484  0.0761 -0.1251  0.2185
  811MOL0     H 9476   2.149   2.725   2.336 -1.0483  0.8011  0.7261
  811MOL0     H 9477   1.913   2.716   2.280 -0.7133 -1.5490  0.4589
  811MOL0     H 9478   1.952   2.808   2.416  0.7243  0.5543 -0.8540
  811MOL0     H 9479   1.746   2.690   2.477 -0.0879  0.0330 -1.9220
  811MOL0     H 9480   1.872   2.625   2.575 -3.7311 -2.1508  0.6059
  811MOL0     H 9481   1.847   2.405   2.468  1.6654  1.8562 -0.2879
  811MOL0     H 9482   1.797   2.480   2.309 -0.4121  1.8408 -0.7039
  811MOL0     H 9483   1.425   2.483   2.456 -0.4857  3.2827 -3.2768
  811MOL0     H 9484   2.140   2.276   2.287 -0.6154  0.5551  2.0584
  811MOL0     H 9485   2.358   2.166   2.230 -3.7469  0.4968 -1.5225
  812MOL0     O 9486  11.369  11.032   3.343 -0.4669 -0.0246 -0.3216
  812MOL0     C 9487  11.403  11.035   3.460  0.2759 -0.1629  0.6747
  812MOL0     O 9488  11.322  11.091   3.562 -0.2056  0.1012 -0.5650
  812MOL0     C 9489  11.199  11.135   3.523 -0.8920  0.6099 -0.5784
  812MOL0     C 9490  11.082  11.060   3.530 -0.2759 -0.4770  0.9089
  812MOL0     C 9491  10.963  11.111   3.477  1.1184  0.7319  0.3958
  812MOL0     C 9492  10.957  11.247   3.428  0.8862  0.9976  0.2995
  812MOL0     O 9493  10.836  11.280   3.384  0.0814 -0.3288 -0.4851
  812MOL0     C 9494  10.794  11.419   3.386  0.1147 -0.3000  0.2941
  812MOL0     C 9495  10.648  11.426   3.431 -0.8401 -0.4776 -0.3770
  812MOL0     C 9496  10.644  11.362   3.574  0.3191  0.6779 -0.9921
  812MOL0     C 9497  10.499  11.378   3.636 -0.6774 -0.0223  0.0872
  812MOL0     C 9498  10.496  11.429   3.776  0.5932  0.4865  0.6664
  812MOL0     C 9499  10.550  11.561   3.773 -0.0316  0.1922  0.5264
  812MOL0     C 9500  10.560  11.638   3.916  0.1387  0.8338  0.2500
  812MOL0     C 9501  10.620  11.563   4.034 -0.3110  0.7196  0.1849
  812MOL0     N 9502  10.542  11.568   4.152  1.0126  0.0718  0.2647
  812MOL0     C 9503  10.412  11.520   4.148  0.3958 -0.2419 -0.2282
  812MOL0     C 9504  10.358  11.541   4.271 -0.3072  0.1193 -0.8445
  812MOL0     C 9505  10.226  11.479   4.325  1.2220  0.6834 -0.1247
  812MOL0     C 9506  10.129  11.449   4.206  0.1897 -0.7762 -1.6437
  812MOL0     C 9507  10.081  11.581   4.151 -0.4747 -0.6468  0.4320
  812MOL0     C 9508   9.962  11.579   4.052 -0.4320 -0.3350  0.1313
  812MOL0     O 9509   9.956  11.464   3.973  0.6706  0.3126  0.9388
  812MOL0     C 9510  10.023  11.455   3.850  0.4085 -0.3909 -0.1040
  812MOL0     C 9511  10.109  11.558   3.788  0.6312  0.8868  0.5653
  812MOL0     C 9512  10.154  11.543   3.662 -0.6438 -0.2651  0.2465
  812MOL0     C 9513  10.215  11.674   3.607  0.3895  0.3533  1.0683
  812MOL0     C 9514  10.145  11.416   3.599 -0.0821  0.2830 -0.1335
  812MOL0     C 9515  10.202  11.386   3.470  0.1186  0.2034  0.4707
  812MOL0     O 9516  10.248  11.257   3.448  0.0424  0.3070  0.0852
  812MOL0     C 9517  10.277  11.215   3.323 -0.1478 -0.4178 -0.2575
  812MOL0     C 9518  10.402  11.156   3.299 -0.5205  0.7999  1.0389
  812MOL0     C 9519  10.431  11.116   3.166  0.1809  1.4221 -0.6338
  812MOL0     C 9520  10.343  11.140   3.058 -0.9175 -1.1664  0.4799
  812MOL0     O 9521  10.351  11.090   2.931 -0.6653 -0.3444 -0.3254
  812MOL0     C 9522  10.477  11.042   2.881  1.0515 -0.3296 -0.4885
  812MOL0     C 9523  10.508  10.897   2.884 -0.3762  0.3865  0.0791
  812MOL0     C 9524  10.411  10.825   2.781  0.7078  0.1224  0.4467
  812MOL0     C 9525  10.457  10.675   2.773  0.4531  0.3116 -0.2442
  812MOL0     C 9526  10.414  10.590   2.899  0.6383  0.6966  0.6559
  812MOL0     C 9527  10.392  10.445   2.864  0.1103  0.3676 -0.0738
  812MOL0     C 9528  10.328  10.361   2.973  0.3945 -0.4214 -0.5407
  812MOL0     C 9529  10.296  10.221   2.936  0.0348  0.0873  0.1563
  812MOL0    Cl 9530  10.172  10.196   2.810  0.2333  0.6081  0.2535
  812MOL0     C 9531  10.233  11.217   3.079  0.4275  0.3496 -0.9662
  812MOL0     C 9532  10.194  11.244   3.208  0.6927  0.1579 -0.3462
  812MOL0     O 9533  10.219  11.477   3.387  0.4403 -1.1367 -0.0416
  812MOL0     C 9534  10.090  11.306   3.675  0.4409  0.0570 -0.6629
  812MOL0     C 9535  10.029  11.328   3.798 -1.4264 -0.8855  0.5489
  812MOL0     N 9536  10.458  11.612   4.337  0.2655  0.9369  1.0312
  812MOL0     N 9537  10.573  11.621   4.272  0.3391 -0.0591  0.1489
  812MOL0     C 9538  11.075  11.323   3.439 -1.0044 -0.6835 -0.1388
  812MOL0     C 9539  11.193  11.272   3.475 -0.1234 -0.2744  0.0595
  812MOL0     C 9540  11.528  10.964   3.497  0.5699  0.6886  0.3650
  812MOL0     C 9541  11.553  10.965   3.630 -0.2122 -0.3351  0.7082
  812MOL0     C 9542  11.660  10.881   3.684  0.3253 -0.6226  0.2268
  812MOL0     C 9543  11.735  10.799   3.600 -0.1222  0.1574  0.0290
  812MOL0     O 9544  11.829  10.730   3.663 -0.5450 -0.9140 -0.8015
  812MOL0     C 9545  11.906  10.633   3.582 -0.8050  0.0917 -0.0684
  812MOL0     C 9546  12.024  10.681   3.498  0.7802 -0.7391 -0.7428
  812MOL0     C 9547  12.016  10.645   3.355  0.1129 -0.5906  0.0597
  812MOL0     C 9548  12.020  10.495   3.324  0.7372 -0.4034 -0.3699
  812MOL0     C 9549  11.895  10.440   3.262  0.6061  0.4670 -0.0745
  812MOL0     C 9550  11.791  10.403   3.209  0.2501  0.5793 -0.5207
  812MOL0     C 9551  11.710  10.799   3.461 -0.6670 -1.2482  0.8292
  812MOL0     C 9552  11.604  10.880   3.408 -0.5302 -0.0916 -0.2701
  812MOL0     H 9553  11.080  10.953   3.551  4.1989 -1.5703 -2.7464
  812MOL0     H 9554  10.872  11.052   3.480  0.9952  0.6761 -2.1322
  812MOL0     H 9555  10.853  11.484   3.451  1.1907  0.4135 -1.3525
  812MOL0     H 9556  10.786  11.465   3.288 -1.6178 -1.1515 -0.0021
  812MOL0     H 9557  10.622  11.532   3.439 -1.3846 -0.3651 -2.8804
  812MOL0     H 9558  10.586  11.374   3.358 -2.8291  0.8245  0.3091
  812MOL0     H 9559  10.664  11.255   3.563  1.2287  0.9892 -2.8404
  812MOL0     H 9560  10.715  11.411   3.640 -0.5237 -1.4826  1.7168
  812MOL0     H 9561  10.436  11.447   3.579 -0.1211 -0.0522 -0.5770
  812MOL0     H 9562  10.445  11.284   3.620  0.7114 -0.7633 -0.5045
  812MOL0     H 9563  10.396  11.430   3.819  1.2344  1.7899  2.2236
  812MOL0     H 9564  10.561  11.366   3.837 -0.1996 -1.3315 -0.2710
  812MOL0     H 9565  10.651  11.567   3.731 -0.5229 -2.1634 -1.1990
  812MOL0     H 9566  10.475  11.621   3.721  0.8323 -0.3436 -1.4294
  812MOL0     H 9567  10.627  11.723   3.900  0.5337  0.1181 -2.3651
  812MOL0     H 9568  10.463  11.678   3.945  0.8875  2.5551  0.5294
  812MOL0     H 9569  10.712  11.614   4.064  0.6033 -0.6816 -0.1059
  812MOL0     H 9570  10.654  11.461   4.011  0.1861  1.3392 -2.0285
  812MOL0     H 9571  10.380  11.467   4.059  2.3453  3.6695 -3.5436
  812MOL0     H 9572  10.236  11.391   4.390 -1.3324  0.3400 -0.0677
  812MOL0     H 9573  10.171  11.550   4.387 -1.3028 -1.1234 -0.1316
  812MOL0     H 9574  10.045  11.393   4.248  1.6527 -2.0087 -0.1990
  812MOL0     H 9575  10.169  11.377   4.134 -0.1224 -0.5377 -2.0557
  812MOL0     H 9576  10.168  11.628   4.104 -0.7368 -0.9019 -0.3208
  812MOL0     H 9577  10.056  11.642   4.239  1.3085 -1.3148  1.4524
  812MOL0     H 9578   9.967  11.668   3.989 -0.1869  1.2457  2.3012
  812MOL0     H 9579   9.870  11.581   4.110  0.0035  0.6314  0.8078
  812MOL0     H 9580  10.120  11.659   3.828 -1.2768  2.0765 -1.7055
  812MOL0     H 9581  10.325  11.679   3.602  0.4216 -0.9396 -2.2299
  812MOL0     H 9582  10.181  11.682   3.504  0.0206  0.0766  1.1661
  812MOL0     H 9583  10.176  11.765   3.652  1.4030  0.9642  0.7515
  812MOL0     H 9584  10.466  11.120   3.379  0.7951 -2.6326 -1.3371
  812MOL0     H 9585  10.521  11.057   3.153 -0.0066  0.9317  0.2308
  812MOL0     H 9586  10.494  11.078   2.779  0.6464  1.8932  0.1592
  812MOL0     H 9587  10.558  11.096   2.931 -0.1030 -0.7443  1.9668
  812MOL0     H 9588  10.610  10.878   2.849  0.2895  2.5580  0.7234
  812MOL0     H 9589  10.487  10.864   2.986 -2.1530  2.1281  0.3476
  812MOL0     H 9590  10.413  10.872   2.682  0.8318 -2.1136 -0.6903
  812MOL0     H 9591  10.318  10.844   2.834  1.4249  0.0763  1.7639
  812MOL0     H 9592  10.401  10.634   2.689 -1.7604  0.7856  0.9163
  812MOL0     H 9593  10.559  10.659   2.737 -0.3259 -3.9335 -1.1446
  812MOL0     H 9594  10.322  10.623   2.950 -0.3565  0.6000 -1.0065
  812MOL0     H 9595  10.492  10.607   2.974  1.9779 -0.4804 -0.4256
  812MOL0     H 9596  10.320  10.440   2.781 -1.1032 -2.6887  1.0337
  812MOL0     H 9597  10.482  10.392   2.831  1.2284  1.0086  1.8465
  812MOL0     H 9598  10.238  10.414   3.003  1.9579  1.6213  0.8193
  812MOL0     H 9599  10.406  10.357   3.050  0.4463  0.0265 -0.5655
  812MOL0     H 9600  10.265  10.172   3.029 -0.5841  0.4705  0.1553
  812MOL0     H 9601  10.391  10.175   2.908 -0.9455 -2.8933  1.3101
  812MOL0     H 9602  10.167  11.255   3.002  1.4781  0.2283 -1.9540
  812MOL0     H 9603  10.097  11.289   3.226  0.3954 -0.9194  0.8936
  812MOL0     H 9604  10.074  11.209   3.630  1.4409 -1.2638  1.6688
  812MOL0     H 9605   9.965  11.249   3.836 -0.3837 -4.0672 -3.5852
  812MOL0     H 9606  11.066  11.427   3.410  1.5288  0.0192  1.2221
  812MOL0     H 9607  11.287  11.328   3.480 -1.2388  1.8003 -0.8215
  812MOL0     H 9608  11.491  11.026   3.695 -2.4381 -1.4437 -0.2664
  812MOL0     H 9609  11.693  10.875   3.787  1.1380 -0.4028 -0.0116
  812MOL0     H 9610  11.958  10.558   3.642 -0.7378  1.0501  1.1189
  812MOL0     H 9611  11.839  10.584   3.511 -0.6501  2.7080 -2.1794
  812MOL0     H 9612  12.119  10.640   3.535  0.3742 -0.4996  0.6331
  812MOL0     H 9613  12.023  10.790   3.513  0.2077 -1.1348  3.5351
  812MOL0     H 9614  12.103  10.689   3.305  0.5129 -0.2358  1.0555
  812MOL0     H 9615  11.932  10.702   3.314 -0.1232  1.5532  3.1779
  812MOL0     H 9616  12.022  10.454   3.425 -1.7639  3.9521  1.7248
  812MOL0     H 9617  12.105  10.458   3.266  0.5501 -1.9967  0.3193
  812MOL0     H 9618  11.699  10.372   3.164 -0.6383 -0.0154  1.5654
  812MOL0     H 9619  11.742  10.723   3.391 -2.1872  0.9568 -2.4956
  812MOL0     H 9620  11.575  10.886   3.304 -0.1572 -3.6743 -0.7020
  813MOL0     O 9621   4.823   1.349  10.500  0.1027  0.5927  0.0919
  813MOL0     C 9622   4.885   1.265  10.439 -0.1053 -0.3376 -0.1481
  813MOL0     O 9623   4.874   1.125  10.457 -0.6193  0.2807 -0.1752
  813MOL0     C 9624   4.771   1.087  10.544 -0.2218 -0.2790 -0.2569
  813MOL0     C 9625   4.650   1.047  10.503  0.2930  0.8014 -0.0159
  813MOL0     C 9626   4.556   1.022  10.605 -0.2293 -0.2683 -0.6366
  813MOL0     C 9627   4.590   1.018  10.738  0.5143 -0.6409  0.6669
  813MOL0     O 9628   4.489   0.987  10.827 -0.2879  0.8282 -0.8291
  813MOL0     C 9629   4.510   0.964  10.963 -0.3047  0.2643  0.4404
  813MOL0     C 9630   4.380   0.929  11.029  0.7397  0.8348  0.3251
  813MOL0     C 9631   4.322   0.790  10.975 -0.7088  0.6396 -0.7737
  813MOL0     C 9632   4.212   0.751  11.069 -0.0935 -0.3949 -0.2888
  813MOL0     C 9633   4.193   0.599  11.047  0.4061 -0.0842  0.7643
  813MOL0     C 9634   4.045   0.569  11.067  0.2674  0.0382  0.9180
  813MOL0     C 9635   3.992   0.582  11.206 -0.3077  0.4797 -0.2889
  813MOL0     C 9636   4.031   0.460  11.293 -0.1473 -1.1672  0.4272
  813MOL0     N 9637   4.067   0.486  11.434  0.4873 -0.2918  1.2956
  813MOL0     C 9638   4.165   0.428  11.507  0.0468  0.2190 -0.4141
  813MOL0     C 9639   4.191   0.510  11.609  0.7592  0.4619 -0.2556
  813MOL0     C 9640   4.306   0.508  11.712 -0.5831 -0.6122 -0.6905
  813MOL0     C 9641   4.296   0.399  11.823 -0.7136  0.2558  0.6044
  813MOL0     C 9642   4.208   0.279  11.782 -0.3652 -0.6166 -0.5479
  813MOL0     C 9643   4.183   0.198  11.907 -0.3780 -0.8303  0.1409
  813MOL0     O 9644   4.107   0.088  11.857  0.1706  0.2309 -0.3387
  813MOL0     C 9645   4.051  -0.011  11.935 -0.4464  0.0346 -0.5386
  813MOL0     C 9646   3.912  -0.039  11.937 -0.3531  0.2946 -0.7924
  813MOL0     C 9647   3.857  -0.134  12.023  0.3270 -0.6932  0.0766
  813MOL0     C 9648   3.717  -0.136  12.045 -0.5714  0.1778  0.0643
  813MOL0     C 9649   3.946  -0.206  12.098  1.1530  1.1857 -0.3325
  813MOL0     C 9650   3.896  -0.322  12.173  0.2546  0.1404 -0.1223
  813MOL0     O 9651   3.952  -0.346  12.294 -0.1034  0.3057 -0.0986
  813MOL0     C 9652   3.909  -0.446  12.377  0.0462  0.2636  0.5339
  813MOL0     C 9653   3.787  -0.436  12.447  0.9006  0.3491  0.3088
  813MOL0     C 9654   3.750  -0.540  12.523  0.2434 -0.0241 -0.0199
  813MOL0     C 9655   3.813  -0.660  12.520 -0.6312  0.0108  0.3606
  813MOL0     O 9656   3.761  -0.754  12.607  0.3799 -0.7611  0.1609
  813MOL0     C 9657   3.806  -0.893  12.596  0.5086  0.2416 -1.3797
  813MOL0     C 9658   3.741  -0.984  12.697 -0.5245  0.1536 -0.6494
  813MOL0     C 9659   3.815  -1.108  12.728 -0.4263 -0.0310 -0.4206
  813MOL0     C 9660   3.752  -1.187  12.849  1.0530  0.5519  0.4372
  813MOL0     C 9661   3.836  -1.311  12.886 -0.8733 -0.0498 -0.5113
  813MOL0     C 9662   3.805  -1.382  13.016 -0.4423  0.8948  0.3141
  813MOL0     C 9663   3.928  -1.484  13.036  0.1225  0.5144 -0.8120
  813MOL0     C 9664   3.963  -1.597  12.937  0.9562  0.4771  0.2165
  813MOL0    Cl 9665   4.104  -1.688  12.997  0.1076 -0.1854 -0.4499
  813MOL0     C 9666   3.922  -0.682  12.438  0.1879 -0.3172  0.3780
  813MOL0     C 9667   3.970  -0.569  12.373  0.2056  0.1276  0.9262
  813MOL0     O 9668   3.821  -0.397  12.111  0.4727  0.2342 -0.2729
  813MOL0     C 9669   4.086  -0.187  12.094  0.3027 -0.8352  1.0497
  813MOL0     C 9670   4.137  -0.091  12.007 -0.1395 -1.1666 -1.2867
  813MOL0     N 9671   4.092   0.611  11.598 -0.5583  0.5486  0.6736
  813MOL0     N 9672   4.011   0.589  11.501 -0.7333  0.3148  0.5239
  813MOL0     C 9673   4.719   1.044  10.777  0.2887  0.3021  1.2719
  813MOL0     C 9674   4.806   1.085  10.679  0.6538  0.0646  0.4761
  813MOL0     C 9675   4.991   1.313  10.344  1.5035  0.2241  0.5248
  813MOL0     C 9676   5.060   1.214  10.269 -1.0556  0.8191  1.1634
  813MOL0     C 9677   5.164   1.240  10.178  1.0642  0.7068 -0.0453
  813MOL0     C 9678   5.212   1.378  10.170  0.0130  0.4553  1.1190
  813MOL0     O 9679   5.315   1.411  10.082  0.0257 -0.0477  0.3061
  813MOL0     C 9680   5.439   1.439  10.149  0.5906  0.0134 -0.6891
  813MOL0     C 9681   5.543   1.369  10.058 -1.1593 -0.3391  0.1680
  813MOL0     C 9682   5.511   1.225  10.004  0.1315 -0.5031  0.5633
  813MOL0     C 9683   5.528   1.119  10.122 -0.2929 -0.1801 -0.0153
  813MOL0     C 9684   5.663   1.092  10.162 -1.2913  0.9190 -1.0126
  813MOL0     C 9685   5.782   1.074  10.185  0.7447  0.3956  0.1106
  813MOL0     C 9686   5.154   1.478  10.255 -0.3301 -0.7903 -1.1245
  813MOL0     C 9687   5.047   1.436  10.347  0.7675 -0.4512  0.4186
  813MOL0     H 9688   4.622   1.028  10.400 -1.1606 -2.5704  0.8843
  813MOL0     H 9689   4.455   0.996  10.573 -0.2958  0.9499 -1.5048
  813MOL0     H 9690   4.582   0.886  10.989  1.8413  1.8364 -0.5069
  813MOL0     H 9691   4.553   1.057  10.999  1.6378 -0.3184 -0.2732
  813MOL0     H 9692   4.402   0.923  11.136  1.7080  0.6527  0.1222
  813MOL0     H 9693   4.316   1.014  11.007 -1.2762 -0.6370  0.1592
  813MOL0     H 9694   4.294   0.796  10.870  1.4409  1.6876 -1.3456
  813MOL0     H 9695   4.404   0.718  10.983 -0.4880  1.0009  0.4218
  813MOL0     H 9696   4.231   0.787  11.171 -1.1107  0.2151 -0.3092
  813MOL0     H 9697   4.119   0.803  11.046 -1.2594 -2.1627  0.2637
  813MOL0     H 9698   4.230   0.576  10.947  2.2225  1.1317  1.1073
  813MOL0     H 9699   4.257   0.555  11.124 -0.7470  0.2042  1.9330
  813MOL0     H 9700   3.982   0.633  11.004 -0.8072 -1.3441  0.5438
  813MOL0     H 9701   4.012   0.476  11.020  0.9062  1.9845 -4.0848
  813MOL0     H 9702   4.037   0.674  11.246  1.7372  0.2563 -1.9155
  813MOL0     H 9703   3.883   0.581  11.195 -0.4873 -1.9389  0.9216
  813MOL0     H 9704   4.104   0.398  11.241  0.3878 -0.4058  0.2616
  813MOL0     H 9705   3.941   0.397  11.292 -1.4673  0.6314 -0.2510
  813MOL0     H 9706   4.227   0.339  11.494  1.8939  1.6218 -1.7145
  813MOL0     H 9707   4.400   0.498  11.657  0.5146 -0.9208  1.1516
  813MOL0     H 9708   4.317   0.606  11.760  1.0323  1.0338 -4.0927
  813MOL0     H 9709   4.254   0.445  11.912 -2.3037 -0.5941  0.3285
  813MOL0     H 9710   4.400   0.369  11.835 -0.0572  2.8632  2.0868
  813MOL0     H 9711   4.250   0.224  11.697 -0.0388  1.0376 -1.5029
  813MOL0     H 9712   4.113   0.324  11.752 -0.1259 -1.8104 -3.4608
  813MOL0     H 9713   4.130   0.258  11.982 -0.8098 -0.2397 -0.6325
  813MOL0     H 9714   4.281   0.174  11.950 -0.6046 -0.0980  1.1120
  813MOL0     H 9715   3.850   0.031  11.881 -0.4824  0.6684 -0.1917
  813MOL0     H 9716   3.688  -0.228  11.992 -0.5240 -0.2984  0.8403
  813MOL0     H 9717   3.700  -0.124  12.152 -0.5708  2.4617 -0.1552
  813MOL0     H 9718   3.666  -0.050  12.001 -0.0899  0.2485 -0.3559
  813MOL0     H 9719   3.747  -0.336  12.460 -0.2077  0.0609 -0.7279
  813MOL0     H 9720   3.671  -0.517  12.595 -0.1173 -2.0040  0.2634
  813MOL0     H 9721   3.791  -0.944  12.501  1.7611  0.9276 -1.9812
  813MOL0     H 9722   3.914  -0.907  12.612 -0.1958 -1.5998  3.5002
  813MOL0     H 9723   3.724  -0.935  12.794 -0.4779 -1.9559  0.4813
  813MOL0     H 9724   3.644  -1.010  12.654 -0.4758 -1.0936 -0.0504
  813MOL0     H 9725   3.917  -1.083  12.760  0.4174  1.6472 -3.9267
  813MOL0     H 9726   3.823  -1.172  12.639 -2.6259 -0.1102 -0.6164
  813MOL0     H 9727   3.736  -1.136  12.945  0.5858  0.1101  0.5993
  813MOL0     H 9728   3.651  -1.217  12.817  1.8516 -1.2625 -0.5523
  813MOL0     H 9729   3.941  -1.281  12.889 -1.2804  1.3746  0.4520
  813MOL0     H 9730   3.817  -1.378  12.801  0.6943 -0.3773 -0.6305
  813MOL0     H 9731   3.822  -1.305  13.092  0.1581  2.8452 -1.7193
  813MOL0     H 9732   3.701  -1.412  13.007 -1.0735  1.8522  3.2052
  813MOL0     H 9733   3.903  -1.542  13.125  1.8280 -1.9121 -1.7745
  813MOL0     H 9734   4.014  -1.422  13.063 -0.2074  2.4928 -3.7431
  813MOL0     H 9735   3.977  -1.550  12.840  2.0759  2.1305  1.1317
  813MOL0     H 9736   3.875  -1.662  12.932 -0.9368  2.9857 -3.7395
  813MOL0     H 9737   3.988  -0.768  12.446  2.3918  0.6301 -4.3814
  813MOL0     H 9738   4.067  -0.580  12.327 -0.1787  0.9856 -0.1331
  813MOL0     H 9739   4.159  -0.238  12.155  0.7443 -4.6617 -2.2655
  813MOL0     H 9740   4.243  -0.074  11.996 -0.8241  3.1914 -3.2651
  813MOL0     H 9741   4.740   1.062  10.882 -1.4983 -0.8349  1.8591
  813MOL0     H 9742   4.904   1.117  10.713 -1.0968  2.1711  4.1791
  813MOL0     H 9743   5.037   1.108  10.276  0.1848  0.3167 -1.1923
  813MOL0     H 9744   5.203   1.156  10.122 -3.2001 -2.9624  1.9351
  813MOL0     H 9745   5.475   1.542  10.144  0.8407  0.1552  2.1848
  813MOL0     H 9746   5.443   1.403  10.252 -0.4103 -4.6298 -2.0316
  813MOL0     H 9747   5.642   1.374  10.103 -0.7142 -3.5928 -0.1976
  813MOL0     H 9748   5.555   1.422   9.964 -1.7945  1.8445  1.2578
  813MOL0     H 9749   5.589   1.207   9.930 -0.5483  2.5103 -1.0678
  813MOL0     H 9750   5.415   1.217   9.951  0.2419  1.5686 -0.0358
  813MOL0     H 9751   5.480   1.025  10.093 -0.0666 -1.0077  2.1464
  813MOL0     H 9752   5.475   1.157  10.210  2.5306  0.2414  1.6225
  813MOL0     H 9753   5.886   1.054  10.170  0.4793 -1.8024  0.8256
  813MOL0     H 9754   5.196   1.578  10.256  3.5465 -2.1689  1.5407
  813MOL0     H 9755   4.998   1.517  10.401  1.5643  0.7879 -0.6564
  814MOL0     O 9756   1.730  10.562   5.452 -0.1278 -0.3833 -0.4662
  814MOL0     C 9757   1.822  10.530   5.382  0.1788  0.4224  0.6018
  814MOL0     O 9758   1.935  10.598   5.374 -0.3129  0.1793  0.5482
  814MOL0     C 9759   1.948  10.717   5.432 -0.8714  0.4902  1.1643
  814MOL0     C 9760   1.941  10.736   5.571 -0.3069 -0.2121 -0.4201
  814MOL0     C 9761   1.965  10.864   5.632  0.3551 -0.1868  0.6490
  814MOL0     C 9762   1.984  10.972   5.541 -0.1916 -0.0916  0.4214
  814MOL0     O 9763   1.998  11.094   5.582 -0.1515 -0.0344 -0.3547
  814MOL0     C 9764   1.911  11.190   5.524 -0.3390  0.0823  0.5830
  814MOL0     C 9765   1.965  11.331   5.573  0.4106  0.4818 -0.1526
  814MOL0     C 9766   1.944  11.446   5.477  0.8537  0.1281  0.9528
  814MOL0     C 9767   1.796  11.477   5.457 -0.7331 -0.0286 -0.1334
  814MOL0     C 9768   1.765  11.573   5.336 -0.7771  0.5169  0.1550
  814MOL0     C 9769   1.622  11.638   5.348 -0.4804 -0.0208 -0.1331
  814MOL0     C 9770   1.592  11.743   5.240 -0.3165 -0.2397 -0.5129
  814MOL0     C 9771   1.674  11.870   5.262  0.2551  0.3303  0.5523
  814MOL0     N 9772   1.649  11.970   5.159 -0.2706  0.3767 -0.3352
  814MOL0     C 9773   1.528  12.037   5.147 -0.2769 -0.0908  0.0132
  814MOL0     C 9774   1.547  12.129   5.050 -0.4950 -0.1906 -0.4576
  814MOL0     C 9775   1.441  12.229   5.012  0.7787  0.2545  0.4078
  814MOL0     C 9776   1.338  12.179   4.904  0.0349  0.0036 -0.6712
  814MOL0     C 9777   1.401  12.117   4.781  0.3270  0.2424 -0.1392
  814MOL0     C 9778   1.300  12.069   4.680 -0.8764 -0.8197  0.0205
  814MOL0     O 9779   1.206  11.976   4.724  0.1856 -0.0348  0.0424
  814MOL0     C 9780   1.263  11.851   4.726 -0.3148  0.2138 -0.8339
  814MOL0     C 9781   1.255  11.785   4.848  0.2768  0.8820  0.0569
  814MOL0     C 9782   1.317  11.662   4.875 -0.3800 -0.1516 -0.0476
  814MOL0     C 9783   1.272  11.604   5.002  0.0856  0.8226 -0.7375
  814MOL0     C 9784   1.395  11.600   4.773  0.4075  0.1018  0.1876
  814MOL0     C 9785   1.467  11.471   4.776 -1.2193  0.0877  0.2234
  814MOL0     O 9786   1.458  11.409   4.896  0.1261  0.0294 -0.3472
  814MOL0     C 9787   1.533  11.302   4.923 -0.1190 -0.1939  0.1700
  814MOL0     C 9788   1.632  11.307   5.021  0.1912 -0.1048 -0.1448
  814MOL0     C 9789   1.717  11.197   5.058 -0.1407  0.5671  1.0068
  814MOL0     C 9790   1.715  11.071   4.991  1.4072  0.1011 -0.9206
  814MOL0     O 9791   1.791  10.970   5.039  0.1274 -0.7944  0.1654
  814MOL0     C 9792   1.737  10.835   5.030 -0.1795  0.0713 -0.4050
  814MOL0     C 9793   1.624  10.811   5.126 -0.2448 -0.0357 -0.0116
  814MOL0     C 9794   1.566  10.668   5.111 -0.6396  0.1373  0.7722
  814MOL0     C 9795   1.423  10.655   5.162  0.8003  0.0349 -0.3796
  814MOL0     C 9796   1.421  10.637   5.320  0.6745  0.2950  0.5624
  814MOL0     C 9797   1.300  10.690   5.393  0.0471 -1.1920 -0.3709
  814MOL0     C 9798   1.315  10.683   5.549  1.0349 -1.3070  0.7179
  814MOL0     C 9799   1.228  10.788   5.625  0.8872 -1.4584  1.0061
  814MOL0    Cl 9800   1.218  10.758   5.795 -0.0334 -0.3964  0.4104
  814MOL0     C 9801   1.620  11.068   4.885  0.3872  0.1604  0.3777
  814MOL0     C 9802   1.538  11.182   4.857 -0.1505  0.7873 -0.0853
  814MOL0     O 9803   1.526  11.417   4.679  0.6330 -0.6746 -0.5049
  814MOL0     C 9804   1.400  11.667   4.651  0.7247  0.2479 -0.7276
  814MOL0     C 9805   1.335  11.790   4.625 -0.3730  0.7390  0.2563
  814MOL0     N 9806   1.674  12.112   5.001 -0.4895 -0.1712 -0.2572
  814MOL0     N 9807   1.724  12.002   5.043 -0.5775 -0.1144 -0.2183
  814MOL0     C 9808   1.972  10.954   5.398  0.8836  0.2004 -0.0018
  814MOL0     C 9809   1.957  10.830   5.339 -0.9866  0.2470 -0.7333
  814MOL0     C 9810   1.801  10.412   5.298 -0.1824  0.2397 -0.1943
  814MOL0     C 9811   1.860  10.389   5.176 -0.5013 -0.1772 -0.1956
  814MOL0     C 9812   1.823  10.282   5.090  0.3513 -0.1154  0.4008
  814MOL0     C 9813   1.731  10.188   5.130  1.9867  0.1274 -0.5177
  814MOL0     O 9814   1.693  10.086   5.051  0.2100 -0.6667  0.3622
  814MOL0     C 9815   1.722  10.094   4.907  0.4592 -0.5414  0.2704
  814MOL0     C 9816   1.645  10.005   4.825  0.1032  1.3494  0.0315
  814MOL0     C 9817   1.662  10.015   4.674 -0.6880 -0.8639 -0.6555
  814MOL0     C 9818   1.603   9.886   4.621  0.1711  0.5664  0.4248
  814MOL0     C 9819   1.594   9.898   4.480 -0.4101 -0.9531  0.1093
  814MOL0     C 9820   1.586   9.907   4.357  0.4090  0.8934  0.7487
  814MOL0     C 9821   1.662  10.206   5.257  0.1718 -0.3635  0.4264
  814MOL0     C 9822   1.701  10.316   5.334  0.6817 -0.6810  0.8933
  814MOL0     H 9823   1.921  10.640   5.618  0.1159 -0.9796 -1.7254
  814MOL0     H 9824   1.969  10.877   5.740  1.3862 -2.2955  0.9006
  814MOL0     H 9825   1.915  11.193   5.415  0.0691  1.6829  0.6191
  814MOL0     H 9826   1.809  11.165   5.557  0.1189 -2.5947  0.1776
  814MOL0     H 9827   1.910  11.342   5.667 -0.0303 -3.4809  0.2385
  814MOL0     H 9828   2.070  11.333   5.604  0.0759 -2.0687  1.4803
  814MOL0     H 9829   2.003  11.537   5.491 -1.6742  2.1917 -0.8803
  814MOL0     H 9830   1.974  11.427   5.374  1.5078  0.9169  0.9906
  814MOL0     H 9831   1.740  11.385   5.438 -1.4138  0.6916 -1.7506
  814MOL0     H 9832   1.752  11.521   5.547 -0.5684  2.0802 -1.0369
  814MOL0     H 9833   1.843  11.648   5.323 -1.2875  0.6389 -2.8224
  814MOL0     H 9834   1.763  11.522   5.240  3.4638  0.7954 -0.2591
  814MOL0     H 9835   1.551  11.555   5.350 -0.8626  0.3179  0.6158
  814MOL0     H 9836   1.617  11.687   5.446 -1.6053 -0.3678 -0.0086
  814MOL0     H 9837   1.611  11.713   5.136 -3.6188  1.6146 -1.8047
  814MOL0     H 9838   1.484  11.759   5.243 -0.2959  0.7102 -2.9127
  814MOL0     H 9839   1.781  11.849   5.270 -0.3770 -3.7861  0.3576
  814MOL0     H 9840   1.639  11.912   5.357 -2.1872  0.9079 -0.5361
  814MOL0     H 9841   1.455  12.042   5.227  2.2142 -4.6661  3.0587
  814MOL0     H 9842   1.383  12.241   5.104 -2.3901  3.8227 -1.7834
  814MOL0     H 9843   1.492  12.318   4.975  1.5566 -0.7063 -0.9175
  814MOL0     H 9844   1.268  12.256   4.868 -0.6335 -0.0079  0.5491
  814MOL0     H 9845   1.271  12.106   4.949  0.2124  1.1982  1.6994
  814MOL0     H 9846   1.460  12.029   4.809 -0.5823 -0.5731 -0.7194
  814MOL0     H 9847   1.459  12.201   4.741 -0.0038 -0.4082 -2.0885
  814MOL0     H 9848   1.338  12.035   4.583 -0.8068 -3.9471  1.0275
  814MOL0     H 9849   1.236  12.154   4.657  0.2559 -0.2557 -1.2121
  814MOL0     H 9850   1.196  11.828   4.928  2.0371  1.4737  1.0908
  814MOL0     H 9851   1.358  11.583   5.067 -0.1062 -3.1015 -1.4679
  814MOL0     H 9852   1.213  11.667   5.069 -2.3138 -2.9891  1.0916
  814MOL0     H 9853   1.209  11.516   4.984 -2.0933  1.6898  1.8982
  814MOL0     H 9854   1.641  11.403   5.071  1.9163 -0.0311 -0.5505
  814MOL0     H 9855   1.774  11.215   5.149  4.4675 -4.0362 -0.5216
  814MOL0     H 9856   1.703  10.809   4.930  0.9571 -2.3552 -0.2155
  814MOL0     H 9857   1.804  10.758   5.069 -0.4034  1.5050  3.1932
  814MOL0     H 9858   1.657  10.815   5.230  1.6769  1.1235 -0.6220
  814MOL0     H 9859   1.538  10.878   5.114  0.2312  0.8778  1.4250
  814MOL0     H 9860   1.646  10.611   5.158  0.9498  1.4013 -0.3237
  814MOL0     H 9861   1.555  10.636   5.007 -3.6428 -1.1383  1.3766
  814MOL0     H 9862   1.366  10.746   5.138  2.5631  1.2536 -0.1340
  814MOL0     H 9863   1.385  10.565   5.113  0.3111 -0.4993  0.9367
  814MOL0     H 9864   1.513  10.688   5.350  1.2515  0.4982 -1.3854
  814MOL0     H 9865   1.429  10.529   5.332 -1.5118 -0.1344 -1.1833
  814MOL0     H 9866   1.282  10.793   5.360  2.9833 -0.9262 -1.4586
  814MOL0     H 9867   1.208  10.640   5.362 -1.1657  2.1430 -2.7024
  814MOL0     H 9868   1.419  10.689   5.582  1.3158 -0.5305 -0.2499
  814MOL0     H 9869   1.275  10.585   5.576 -2.2720 -0.0523  0.9406
  814MOL0     H 9870   1.130  10.788   5.578  1.5753 -0.6987 -0.5032
  814MOL0     H 9871   1.283  10.880   5.606  0.7550 -1.1628  1.9673
  814MOL0     H 9872   1.628  10.982   4.820 -3.0245  1.3341 -1.8409
  814MOL0     H 9873   1.472  11.165   4.773  0.3099 -1.6344 -0.0466
  814MOL0     H 9874   1.463  11.627   4.573 -0.0112  0.1441 -1.2834
  814MOL0     H 9875   1.366  11.829   4.528  2.4455 -1.9795 -0.0919
  814MOL0     H 9876   1.983  11.036   5.328  2.5240 -0.2407 -0.3188
  814MOL0     H 9877   1.944  10.813   5.233  2.7487 -0.2759 -1.2715
  814MOL0     H 9878   1.939  10.455   5.141  0.3364 -1.1081 -0.0928
  814MOL0     H 9879   1.881  10.276   4.998  2.2295 -3.1448  1.6040
  814MOL0     H 9880   1.717  10.201   4.882  3.2757 -0.9457 -2.7636
  814MOL0     H 9881   1.827  10.064   4.905  0.4615 -0.6810 -2.8114
  814MOL0     H 9882   1.539  10.029   4.836 -0.7323 -1.2882 -1.3887
  814MOL0     H 9883   1.656   9.901   4.859 -0.6473  0.4674 -2.2115
  814MOL0     H 9884   1.771  10.014   4.666 -0.8202 -1.4836 -3.3037
  814MOL0     H 9885   1.630  10.113   4.640  0.8749  1.7312  4.2827
  814MOL0     H 9886   1.502   9.861   4.657  1.1405  1.3642  4.0971
  814MOL0     H 9887   1.663   9.800   4.652  2.0861  1.2997 -1.0298
  814MOL0     H 9888   1.590   9.902   4.250  4.2412 -1.3171  0.8083
  814MOL0     H 9889   1.596  10.123   5.277 -0.8728 -0.5861 -3.2780
  814MOL0     H 9890   1.639  10.320   5.423 -0.7070  0.8282 -0.0833
  815MOL0     O 9891   7.580   0.700   6.686 -0.5414 -0.0511 -0.3658
  815MOL0     C 9892   7.547   0.618   6.771  0.4535  0.5137  0.1290
  815MOL0     O 9893   7.605   0.496   6.798  0.6223 -0.9233 -0.8933
  815MOL0     C 9894   7.692   0.432   6.711  0.6095 -0.7100 -0.5026
  815MOL0     C 9895   7.740   0.477   6.585 -0.6745 -0.2470  0.0773
  815MOL0     C 9896   7.801   0.397   6.484 -0.1120  0.2540 -0.0631
  815MOL0     C 9897   7.833   0.266   6.519 -0.3381 -0.1398  0.6434
  815MOL0     O 9898   7.896   0.170   6.446  0.2489 -0.7001 -0.1956
  815MOL0     C 9899   7.977   0.224   6.332 -0.0836  0.2577 -0.6922
  815MOL0     C 9900   8.038   0.119   6.235 -0.3966  0.2518 -0.3839
  815MOL0     C 9901   7.936   0.008   6.213  0.0532  0.3331 -0.1352
  815MOL0     C 9902   7.991  -0.095   6.106 -0.5636  0.2157 -0.2531
  815MOL0     C 9903   7.890  -0.126   5.997 -0.1090 -0.9424  0.2195
  815MOL0     C 9904   7.745  -0.175   6.032 -0.7598 -0.6107 -0.3243
  815MOL0     C 9905   7.762  -0.322   6.072 -0.0343  0.5649 -0.7777
  815MOL0     C 9906   7.631  -0.395   6.109  0.0857  0.5212  0.8061
  815MOL0     N 9907   7.557  -0.432   5.988  0.2637  0.3016  0.5738
  815MOL0     C 9908   7.520  -0.559   5.953 -0.3039  0.5832  0.4568
  815MOL0     C 9909   7.428  -0.549   5.850 -0.2869 -0.3225 -0.0161
  815MOL0     C 9910   7.350  -0.667   5.802  0.1163  0.5927  0.0130
  815MOL0     C 9911   7.456  -0.784   5.761 -0.2320  0.0703  0.3098
  815MOL0     C 9912   7.540  -0.745   5.633 -0.2121  0.4778 -0.7457
  815MOL0     C 9913   7.621  -0.856   5.565  0.5728  0.0804  0.2133
  815MOL0     O 9914   7.698  -0.922   5.662  0.6867 -0.1703 -0.0417
  815MOL0     C 9915   7.803  -0.857   5.721  1.3754  0.3905  0.7790
  815MOL0     C 9916   7.817  -0.881   5.858  0.2084  0.1059 -1.0797
  815MOL0     C 9917   7.920  -0.819   5.924 -0.6304  0.3830 -0.8131
  815MOL0     C 9918   7.954  -0.874   6.064 -0.1623 -0.2340 -0.8896
  815MOL0     C 9919   8.006  -0.726   5.877 -0.3787  0.8460  0.7283
  815MOL0     C 9920   8.102  -0.657   5.959  0.0227  0.4919  0.7420
  815MOL0     O 9921   8.059  -0.568   6.054  0.6612  0.0445 -0.4460
  815MOL0     C 9922   8.144  -0.513   6.141 -0.3095  0.9062 -1.0273
  815MOL0     C 9923   8.167  -0.589   6.259 -0.4229  0.3243  0.5137
  815MOL0     C 9924   8.264  -0.553   6.348  0.6054 -0.4269 -0.2478
  815MOL0     C 9925   8.329  -0.433   6.339  0.1387  0.0495  0.2612
  815MOL0     O 9926   8.424  -0.398   6.428 -0.0920 -0.4388  0.3343
  815MOL0     C 9927   8.484  -0.493   6.520  0.5384  0.5566  0.8688
  815MOL0     C 9928   8.617  -0.446   6.574  0.4922 -0.3718 -0.2884
  815MOL0     C 9929   8.594  -0.326   6.674 -0.2036  0.6694 -0.5793
  815MOL0     C 9930   8.561  -0.389   6.809 -0.2420 -0.2680 -0.0921
  815MOL0     C 9931   8.493  -0.282   6.900 -0.4650  0.1451 -0.3766
  815MOL0     C 9932   8.409  -0.332   7.019 -0.3326 -0.5034  0.0043
  815MOL0     C 9933   8.316  -0.228   7.092  0.0968  0.8307 -1.0759
  815MOL0     C 9934   8.398  -0.121   7.166 -0.5869 -0.0655 -0.2320
  815MOL0    Cl 9935   8.290  -0.014   7.269  0.7742  0.2340 -0.3160
  815MOL0     C 9936   8.302  -0.356   6.234  0.5701  0.4320  0.1930
  815MOL0     C 9937   8.213  -0.395   6.131  0.1525  0.2816  0.0605
  815MOL0     O 9938   8.218  -0.681   5.933  0.4582 -0.6880  0.0789
  815MOL0     C 9939   7.994  -0.714   5.736 -0.5095 -0.0965  0.5546
  815MOL0     C 9940   7.887  -0.768   5.665  0.2958 -0.3462 -0.2835
  815MOL0     N 9941   7.429  -0.412   5.807 -1.5692 -0.0359 -0.0047
  815MOL0     N 9942   7.499  -0.346   5.892 -0.4126  0.9028 -0.3628
  815MOL0     C 9943   7.793   0.221   6.652 -0.0188 -0.1496 -0.3169
  815MOL0     C 9944   7.717   0.303   6.743 -0.4928  0.6706  0.2037
  815MOL0     C 9945   7.433   0.666   6.863  0.2429  0.1589 -0.5935
  815MOL0     C 9946   7.424   0.638   7.000  0.2031 -1.2431  0.2105
  815MOL0     C 9947   7.333   0.689   7.088  0.4754 -0.2510 -0.0587
  815MOL0     C 9948   7.253   0.794   7.044  0.6996 -0.3462  0.1558
  815MOL0     O 9949   7.167   0.864   7.134  0.0419 -0.5484 -0.2274
  815MOL0     C 9950   7.155   1.007   7.110  0.4480 -0.5841  0.0649
  815MOL0     C 9951   7.113   1.081   7.241  0.2361 -0.5333 -0.3311
  815MOL0     C 9952   6.986   1.039   7.304  0.1052  0.5626  0.0630
  815MOL0     C 9953   6.859   1.031   7.217  0.7044 -0.2449  0.1353
  815MOL0     C 9954   6.813   1.144   7.143 -0.1542 -0.0747  0.7019
  815MOL0     C 9955   6.766   1.241   7.078 -1.4938  0.1440  0.1630
  815MOL0     C 9956   7.256   0.831   6.909  0.1489 -0.0356  0.5601
  815MOL0     C 9957   7.344   0.761   6.819  0.1198 -0.1365 -0.0951
  815MOL0     H 9958   7.725   0.581   6.559  1.7325  0.4994  1.3435
  815MOL0     H 9959   7.828   0.441   6.389  0.9380  3.3125  1.5426
  815MOL0     H 9960   7.931   0.301   6.271  1.6914  0.0581 -2.4016
  815MOL0     H 9961   8.061   0.278   6.377 -0.1409 -0.6945  0.6288
  815MOL0     H 9962   8.076   0.153   6.139 -2.2539 -1.9146 -2.0124
  815MOL0     H 9963   8.126   0.075   6.282 -0.5022 -1.7372 -1.9313
  815MOL0     H 9964   7.927  -0.052   6.304 -1.1185  0.1755 -0.3356
  815MOL0     H 9965   7.833   0.040   6.193 -0.1481  1.3763  2.1835
  815MOL0     H 9966   8.082  -0.068   6.051 -0.9289 -1.5904 -1.8504
  815MOL0     H 9967   8.006  -0.189   6.160  1.8912 -1.0092 -2.7823
  815MOL0     H 9968   7.882  -0.045   5.924  1.6131 -1.7134 -0.8920
  815MOL0     H 9969   7.934  -0.206   5.937 -0.4598 -0.9603 -0.0167
  815MOL0     H 9970   7.697  -0.110   6.106  0.7089 -1.3133  1.3338
  815MOL0     H 9971   7.687  -0.166   5.940  1.8489 -2.3457 -2.2902
  815MOL0     H 9972   7.805  -0.378   5.988  2.7986 -1.4577  1.8232
  815MOL0     H 9973   7.829  -0.334   6.157  0.7408 -3.1058 -1.7072
  815MOL0     H 9974   7.563  -0.334   6.169 -0.8000 -1.6516  2.1487
  815MOL0     H 9975   7.665  -0.484   6.164  0.1347 -3.2148 -4.5107
  815MOL0     H 9976   7.532  -0.657   5.999 -2.0156  0.8971  1.6746
  815MOL0     H 9977   7.277  -0.709   5.872 -2.9428  3.4912 -1.1198
  815MOL0     H 9978   7.285  -0.650   5.715 -1.3173 -0.6020  0.7981
  815MOL0     H 9979   7.389  -0.866   5.735 -0.1167  0.0887 -0.0511
  815MOL0     H 9980   7.520  -0.810   5.846 -0.3459 -1.1852  0.0336
  815MOL0     H 9981   7.613  -0.667   5.657  0.6197 -0.3406 -0.6091
  815MOL0     H 9982   7.474  -0.700   5.557 -1.5715  1.5542  0.9835
  815MOL0     H 9983   7.673  -0.814   5.478 -3.1874  1.2333 -1.7161
  815MOL0     H 9984   7.562  -0.943   5.532  2.4514 -0.6417 -1.4572
  815MOL0     H 9985   7.751  -0.954   5.903 -0.2603  2.0530  1.5866
  815MOL0     H 9986   7.968  -0.802   6.145  0.8824 -0.5812 -0.7478
  815MOL0     H 9987   7.870  -0.934   6.100  1.2008 -2.6390 -1.5378
  815MOL0     H 9988   8.039  -0.942   6.065  0.0672  0.0273  1.1690
  815MOL0     H 9989   8.116  -0.682   6.282  0.7878 -0.9857 -1.7400
  815MOL0     H 9990   8.272  -0.634   6.421 -2.7219 -1.8401 -1.2443
  815MOL0     H 9991   8.409  -0.510   6.598 -1.6747  0.7113 -1.1166
  815MOL0     H 9992   8.493  -0.591   6.472  1.5265  0.7916  0.5494
  815MOL0     H 9993   8.675  -0.529   6.614 -0.4262 -0.2648  1.3708
  815MOL0     H 9994   8.667  -0.412   6.483 -0.3921  3.9376  0.5925
  815MOL0     H 9995   8.513  -0.263   6.635 -0.5852 -0.3208 -1.4222
  815MOL0     H 9996   8.683  -0.262   6.684  0.1794 -0.1324  1.6290
  815MOL0     H 9997   8.491  -0.472   6.801 -0.6505 -0.1652  1.8645
  815MOL0     H 9998   8.654  -0.434   6.846  0.4087  3.2255  3.2189
  815MOL0     H 9999   8.409  -0.240   6.843 -0.4676  2.1670  0.9952
  815MOL0     H10000   8.560  -0.204   6.936 -1.9686  0.9959  0.6951
  815MOL0     H10001   8.345  -0.408   6.974 -1.7947  1.0880 -0.7582
  815MOL0     H10002   8.471  -0.382   7.093 -0.6653 -0.2790  0.4405
  815MOL0     H10003   8.251  -0.272   7.169  0.3433  2.1321 -0.0835
  815MOL0     H10004   8.245  -0.171   7.031  0.9708  2.5019 -0.6140
  815MOL0     H10005   8.437  -0.054   7.089 -2.3768  2.6813  1.1033
  815MOL0     H10006   8.480  -0.145   7.235 -0.7567  2.4936  0.9916
  815MOL0     H10007   8.343  -0.256   6.228 -0.1931  0.7157 -0.4943
  815MOL0     H10008   8.206  -0.327   6.046  1.8954  0.6618  0.1888
  815MOL0     H10009   8.063  -0.650   5.681  0.8402 -3.2069 -1.6673
  815MOL0     H10010   7.862  -0.755   5.561 -0.4024 -0.6456 -0.1559
  815MOL0     H10011   7.806   0.114   6.665 -0.2638 -0.2567 -0.9626
  815MOL0     H10012   7.675   0.253   6.830 -1.0610  0.9009  0.0666
  815MOL0     H10013   7.488   0.558   7.036  1.4197  0.0230  0.9823
  815MOL0     H10014   7.321   0.671   7.195 -3.7796  2.7216  0.2279
  815MOL0     H10015   7.249   1.047   7.072 -0.0468 -1.0731 -1.7802
  815MOL0     H10016   7.077   1.038   7.041  0.0690 -1.5829  0.0157
  815MOL0     H10017   7.108   1.187   7.218  0.4215 -0.1285  1.3755
  815MOL0     H10018   7.201   1.064   7.304 -0.5031 -2.8210  0.1722
  815MOL0     H10019   6.976   1.093   7.398  2.7787  0.0627  0.7009
  815MOL0     H10020   7.007   0.936   7.335 -0.2130  1.0154  1.8755
  815MOL0     H10021   6.776   1.006   7.283 -1.4769  0.2739 -2.2792
  815MOL0     H10022   6.854   0.948   7.146  1.8856 -0.9044  0.7804
  815MOL0     H10023   6.702   1.315   7.035 -1.6811  0.2448  0.6138
  815MOL0     H10024   7.195   0.914   6.876  0.0122  1.6150  4.4316
  815MOL0     H10025   7.346   0.795   6.716  1.2149 -1.2985 -0.4682
  816MOL0     O10026   8.059  10.093   7.082  0.1588 -0.0966  1.2843
  816MOL0     C10027   7.980   9.999   7.109 -0.8797 -0.6352 -0.0167
  816MOL0     O10028   7.850  10.007   7.144  0.4183  0.1113 -0.0598
  816MOL0     C10029   7.807  10.130   7.166 -0.4998  0.4986  0.9448
  816MOL0     C10030   7.760  10.196   7.054 -0.1787 -0.5489 -0.6779
  816MOL0     C10031   7.712  10.331   7.070  0.2471  1.2558  0.2451
  816MOL0     C10032   7.739  10.402   7.192 -0.3381 -0.2182  0.0761
  816MOL0     O10033   7.693  10.538   7.198  0.1352  0.6174 -0.1148
  816MOL0     C10034   7.678  10.605   7.323  0.1424 -0.4552 -0.7429
  816MOL0     C10035   7.570  10.536   7.410  0.4050  0.7430  0.2486
  816MOL0     C10036   7.434  10.534   7.343  1.1476  0.4632  0.7171
  816MOL0     C10037   7.330  10.466   7.433 -0.3022  0.3965 -0.4415
  816MOL0     C10038   7.197  10.510   7.391  0.6708 -0.0392 -0.5074
  816MOL0     C10039   7.086  10.406   7.437 -0.4648  0.6435  0.2210
  816MOL0     C10040   6.953  10.444   7.383  0.0921  0.3906  0.4892
  816MOL0     C10041   6.823  10.387   7.454 -0.3649  0.1017 -0.5501
  816MOL0     N10042   6.799  10.247   7.444  0.0790 -0.7248  0.4468
  816MOL0     C10043   6.875  10.153   7.500  0.3225  0.2344 -0.6820
  816MOL0     C10044   6.819  10.033   7.470  0.4639  0.1215 -1.0367
  816MOL0     C10045   6.865   9.900   7.526 -0.5293  0.1578 -1.3654
  816MOL0     C10046   6.741   9.816   7.570  0.0948  0.1390  0.0562
  816MOL0     C10047   6.777   9.683   7.640 -0.0442  0.9704  0.0497
  816MOL0     C10048   6.893   9.601   7.585  0.3291  0.0179 -0.1883
  816MOL0     O10049   7.015   9.665   7.632 -0.6246  0.3024 -0.1359
  816MOL0     C10050   7.126   9.589   7.665  0.0814 -0.4122  0.5517
  816MOL0     C10051   7.230   9.662   7.725  0.5743  0.7676  0.5347
  816MOL0     C10052   7.342   9.601   7.776 -0.5039 -0.2184 -0.2597
  816MOL0     C10053   7.448   9.686   7.842  0.5738 -0.7233  0.0949
  816MOL0     C10054   7.362   9.461   7.771  0.4097  0.7468  0.3895
  816MOL0     C10055   7.464   9.384   7.854 -0.5903  0.5654  0.7608
  816MOL0     O10056   7.449   9.249   7.852  0.0177  0.6112  0.8102
  816MOL0     C10057   7.541   9.157   7.903  0.4506  0.6231  0.3283
  816MOL0     C10058   7.590   9.158   8.025  0.1713 -0.1549 -0.8370
  816MOL0     C10059   7.672   9.055   8.087 -0.3811 -0.5371  0.4417
  816MOL0     C10060   7.688   8.942   8.016  0.2570  1.0254  0.6011
  816MOL0     O10061   7.757   8.847   8.088  0.1915 -0.1902 -0.4315
  816MOL0     C10062   7.690   8.722   8.116 -1.2170 -0.4488 -0.3461
  816MOL0     C10063   7.588   8.749   8.220 -0.3858 -0.0190  0.3895
  816MOL0     C10064   7.668   8.786   8.349 -0.5843  0.1379 -0.7335
  816MOL0     C10065   7.605   8.765   8.485  0.3892 -0.4404 -0.1140
  816MOL0     C10066   7.573   8.617   8.523  0.6985  0.8805 -0.5508
  816MOL0     C10067   7.695   8.522   8.502 -0.4919  0.1405 -1.0806
  816MOL0     C10068   7.825   8.573   8.576 -0.2775  0.9316  0.1504
  816MOL0     C10069   7.926   8.456   8.563  0.4910  0.2503  0.1375
  816MOL0    Cl10070   8.083   8.507   8.640  0.1501  0.7561  0.0212
  816MOL0     C10071   7.629   8.926   7.883 -0.2356 -0.3939 -1.0688
  816MOL0     C10072   7.563   9.038   7.835  0.7744 -0.3866 -0.5826
  816MOL0     O10073   7.546   9.439   7.913  0.4664 -0.0730 -0.1731
  816MOL0     C10074   7.259   9.384   7.700  0.2474 -0.5099 -0.2265
  816MOL0     C10075   7.149   9.450   7.641 -0.3325  0.8578  0.1849
  816MOL0     N10076   6.722  10.062   7.371 -0.4592  0.0885  0.3502
  816MOL0     N10077   6.715  10.190   7.357  0.8388 -0.6980  0.2136
  816MOL0     C10078   7.786  10.323   7.303  1.4892  0.1518 -0.2150
  816MOL0     C10079   7.829  10.186   7.289 -0.0840  0.2093 -0.1476
  816MOL0     C10080   8.028   9.861   7.095 -1.1778  0.3424  0.3072
  816MOL0     C10081   8.160   9.836   7.056 -0.4497 -0.1674  0.2129
  816MOL0     C10082   8.219   9.705   7.056  0.0046  0.2707 -0.0977
  816MOL0     C10083   8.135   9.596   7.101 -0.1137  0.2601 -0.1590
  816MOL0     O10084   8.194   9.478   7.109 -1.3328  0.8554  0.8815
  816MOL0     C10085   8.131   9.362   7.157  1.6924  0.3432  0.1662
  816MOL0     C10086   8.052   9.282   7.042  0.5797  0.2927 -0.3540
  816MOL0     C10087   8.019   9.137   7.094 -0.1129 -0.5968  0.2699
  816MOL0     C10088   7.958   9.048   6.984 -1.2373 -0.5335 -0.0476
  816MOL0     C10089   8.012   9.046   6.850 -1.0840 -0.7664  0.1374
  816MOL0     C10090   8.041   9.058   6.736 -0.1023 -0.5541 -0.5450
  816MOL0     C10091   7.997   9.624   7.134 -0.1510  0.8053  0.0071
  816MOL0     C10092   7.950   9.753   7.127  0.1649 -0.6938  0.0352
  816MOL0     H10093   7.747  10.141   6.961  2.8690 -0.3199 -1.3437
  816MOL0     H10094   7.665  10.384   6.988 -2.7638 -0.6682  0.5528
  816MOL0     H10095   7.776  10.614   7.372 -1.0487 -0.8960  1.8538
  816MOL0     H10096   7.643  10.706   7.301  0.5382  0.6916  3.1002
  816MOL0     H10097   7.603  10.438   7.446  0.4794  0.7438  0.1835
  816MOL0     H10098   7.563  10.603   7.496  0.1879  1.4645 -0.3267
  816MOL0     H10099   7.398  10.633   7.315  0.2648 -0.2702 -0.9243
  816MOL0     H10100   7.446  10.466   7.257  0.4334  1.8014 -0.4912
  816MOL0     H10101   7.338  10.357   7.424  3.2455  0.6116 -1.2132
  816MOL0     H10102   7.341  10.490   7.539  1.1266  3.2571 -1.1535
  816MOL0     H10103   7.170  10.608   7.431  0.5024 -0.1390 -0.3752
  816MOL0     H10104   7.190  10.497   7.283  1.6220  1.0673 -0.7213
  816MOL0     H10105   7.118  10.311   7.394  1.1169  0.8637  0.8571
  816MOL0     H10106   7.091  10.407   7.546  0.7357 -0.8707  0.2080
  816MOL0     H10107   6.947  10.553   7.394  2.6605  0.5946  0.5333
  816MOL0     H10108   6.960  10.444   7.273 -0.0534  0.2640  0.4794
  816MOL0     H10109   6.730  10.434   7.422  0.6959  3.6580  1.1172
  816MOL0     H10110   6.828  10.404   7.562 -2.1670 -1.3432 -0.1911
  816MOL0     H10111   6.966  10.174   7.554  0.3071  0.7406 -0.8477
  816MOL0     H10112   6.943   9.844   7.475  2.3883  2.0787  0.6808
  816MOL0     H10113   6.914   9.917   7.623 -2.6260 -1.0305 -0.0113
  816MOL0     H10114   6.693   9.794   7.475  0.5595 -2.0538  0.2748
  816MOL0     H10115   6.678   9.871   7.641 -0.3475 -1.6415  1.0986
  816MOL0     H10116   6.697   9.609   7.635  0.7643 -0.2993  3.2367
  816MOL0     H10117   6.803   9.692   7.746 -1.8456 -2.8287  1.0025
  816MOL0     H10118   6.886   9.567   7.481 -0.1624 -0.2836 -0.0634
  816MOL0     H10119   6.893   9.503   7.633  2.4496 -0.6139 -1.3413
  816MOL0     H10120   7.198   9.763   7.750 -0.8825  0.3106  0.6078
  816MOL0     H10121   7.429   9.793   7.825 -2.4525 -0.3930  3.9326
  816MOL0     H10122   7.457   9.691   7.951  1.3823  1.0503 -0.0105
  816MOL0     H10123   7.545   9.652   7.806  1.8981  1.9407  0.8573
  816MOL0     H10124   7.558   9.239   8.090  0.0791 -1.4626  0.8478
  816MOL0     H10125   7.716   9.061   8.186  0.1277  1.2796  0.1314
  816MOL0     H10126   7.649   8.668   8.031 -1.3640 -0.6328 -0.1598
  816MOL0     H10127   7.760   8.650   8.161 -0.2628  2.1102  2.6118
  816MOL0     H10128   7.527   8.833   8.184  2.0693  1.8086  0.2424
  816MOL0     H10129   7.533   8.658   8.246  1.5061 -1.3808 -0.1987
  816MOL0     H10130   7.710   8.886   8.348  0.5400 -0.3283 -1.2258
  816MOL0     H10131   7.753   8.717   8.348 -1.2086 -0.9583  3.3235
  816MOL0     H10132   7.683   8.809   8.547  0.4720  0.9896 -1.2100
  816MOL0     H10133   7.515   8.825   8.501  0.9703  0.1326  1.0985
  816MOL0     H10134   7.480   8.589   8.472 -0.2108  0.2420  1.3596
  816MOL0     H10135   7.544   8.617   8.628 -1.2566  3.6818 -0.9996
  816MOL0     H10136   7.661   8.423   8.534 -3.1366  0.1128 -3.6549
  816MOL0     H10137   7.712   8.504   8.396  0.4044 -0.6359 -0.8169
  816MOL0     H10138   7.806   8.578   8.684  0.8886 -0.4404  0.4524
  816MOL0     H10139   7.873   8.662   8.535  3.4177 -0.4975  0.9157
  816MOL0     H10140   7.945   8.430   8.458  0.0257  2.2504 -0.4841
  816MOL0     H10141   7.908   8.360   8.613  4.4783 -1.6636 -1.5915
  816MOL0     H10142   7.624   8.838   7.820 -2.8161  0.2319 -1.8311
  816MOL0     H10143   7.522   9.033   7.734 -0.5729 -4.8880 -0.0451
  816MOL0     H10144   7.279   9.287   7.656 -3.4144 -0.1384 -3.2134
  816MOL0     H10145   7.078   9.388   7.588  0.9761 -0.4608 -0.1056
  816MOL0     H10146   7.792  10.369   7.401 -2.0837  0.0646  0.1727
  816MOL0     H10147   7.867  10.138   7.379 -0.4171  0.0817 -0.0739
  816MOL0     H10148   8.222   9.924   7.047 -0.9836  0.3688  1.4350
  816MOL0     H10149   8.324   9.686   7.033 -0.9502 -2.6343 -2.7596
  816MOL0     H10150   8.198   9.290   7.204  3.8420 -1.3254 -4.8024
  816MOL0     H10151   8.054   9.391   7.229  0.8155  0.1959 -0.6979
  816MOL0     H10152   8.119   9.279   6.956  0.1783  0.5699 -0.6837
  816MOL0     H10153   7.961   9.335   7.011  0.8001  0.3398 -0.9386
  816MOL0     H10154   7.958   9.146   7.185 -1.0493 -0.2830 -0.3763
  816MOL0     H10155   8.115   9.088   7.114  0.7381  0.8233 -0.2616
  816MOL0     H10156   7.857   9.090   6.977  0.0245  2.8966  0.3404
  816MOL0     H10157   7.954   8.942   7.010 -2.6335 -1.1743 -2.4874
  816MOL0     H10158   8.092   9.063   6.641  4.6386  1.5341  1.7479
  816MOL0     H10159   7.926   9.549   7.167 -0.6583 -0.3212 -3.2470
  816MOL0     H10160   7.845   9.782   7.133  0.6638  1.2976  0.0872
  817MOL0     O10161   0.891   6.653   0.683  0.4025 -0.0042  0.2245
  817MOL0     C10162   0.883   6.586   0.577 -0.6793  0.1624 -1.2905
  817MOL0     O10163   0.768   6.541   0.526  0.4112  0.4117  0.4295
  817MOL0     C10164   0.641   6.555   0.585  0.2467  0.0164 -0.9254
  817MOL0     C10165   0.547   6.472   0.529  0.4885  0.5694 -0.2364
  817MOL0     C10166   0.412   6.473   0.576  1.3019 -0.0018  0.6521
  817MOL0     C10167   0.358   6.553   0.680  1.1131 -0.1632 -0.7757
  817MOL0     O10168   0.226   6.545   0.721  0.4881 -1.1963  0.0397
  817MOL0     C10169   0.182   6.673   0.775  1.7500 -0.1576 -0.2356
  817MOL0     C10170   0.186   6.789   0.663  0.3782  0.4034 -0.5600
  817MOL0     C10171   0.118   6.911   0.733  0.5046 -0.6773  0.3701
  817MOL0     C10172  -0.033   6.897   0.685 -0.8322 -0.0782 -0.0561
  817MOL0     C10173  -0.143   7.002   0.726  0.6215  0.4316  0.5656
  817MOL0     C10174  -0.274   6.977   0.653  0.2282 -0.4320  0.5692
  817MOL0     C10175  -0.377   7.089   0.689  0.3999 -0.5689 -0.1169
  817MOL0     C10176  -0.504   7.046   0.625  0.3739 -0.0723  0.3960
  817MOL0     N10177  -0.501   7.021   0.480  0.0637 -0.3546 -0.3116
  817MOL0     C10178  -0.486   7.133   0.409 -0.0148 -0.8679  0.2713
  817MOL0     C10179  -0.458   7.087   0.282  0.5974 -0.8323 -0.8733
  817MOL0     C10180  -0.471   7.174   0.163  0.7683 -0.1958 -0.0943
  817MOL0     C10181  -0.496   7.325   0.182  0.2526  0.1717 -0.6215
  817MOL0     C10182  -0.478   7.421   0.067  0.3819  0.2187  0.8957
  817MOL0     C10183  -0.336   7.421   0.008 -0.3021  0.0481 -0.0947
  817MOL0     O10184  -0.237   7.465   0.107  0.5946  0.7343 -0.2012
  817MOL0     C10185  -0.150   7.367   0.143  0.2416 -1.5765 -0.0895
  817MOL0     C10186  -0.128   7.341   0.276 -0.1804 -0.3551 -0.1638
  817MOL0     C10187  -0.026   7.254   0.327  0.1197 -0.7857  0.5864
  817MOL0     C10188  -0.001   7.244   0.477  0.3067  0.1298 -0.2651
  817MOL0     C10189   0.043   7.174   0.228  0.5346  0.6313 -0.2353
  817MOL0     C10190   0.146   7.071   0.257  1.2564 -0.5245  0.1641
  817MOL0     O10191   0.232   7.106   0.357  0.1258  0.0816  0.0652
  817MOL0     C10192   0.365   7.070   0.351 -0.2035 -0.3101  0.2398
  817MOL0     C10193   0.443   7.091   0.236  0.5367  0.8731 -0.0377
  817MOL0     C10194   0.577   7.054   0.251 -0.0641 -0.1320  0.3578
  817MOL0     C10195   0.625   6.991   0.369  0.1419  0.7380  0.1455
  817MOL0     O10196   0.748   6.950   0.367 -0.5958  0.4770  0.5414
  817MOL0     C10197   0.813   7.000   0.473 -0.2700 -0.6282 -1.3683
  817MOL0     C10198   0.962   6.999   0.437  0.2050  0.8535  0.4832
  817MOL0     C10199   1.061   6.975   0.544 -0.2204 -0.4894 -0.0187
  817MOL0     C10200   1.207   6.974   0.496 -0.6946 -0.4454  0.1552
  817MOL0     C10201   1.321   7.042   0.580 -1.0280  0.3610  0.2005
  817MOL0     C10202   1.436   7.083   0.488 -0.4014  0.4444  0.4804
  817MOL0     C10203   1.496   6.959   0.427  0.1069 -0.2098 -1.0744
  817MOL0     C10204   1.639   6.980   0.390 -0.2562  0.0417 -0.2873
  817MOL0    Cl10205   1.732   7.070   0.514  0.0210 -0.1499 -0.0571
  817MOL0     C10206   0.541   6.964   0.473 -0.1709  0.8694  0.4412
  817MOL0     C10207   0.412   7.011   0.466  0.1057  0.5601  0.3557
  817MOL0     O10208   0.150   6.971   0.190 -0.0094  0.4228  0.9639
  817MOL0     C10209   0.017   7.201   0.096 -0.1121 -0.4061  1.0539
  817MOL0     C10210  -0.077   7.299   0.051 -0.1618 -0.4916  0.4195
  817MOL0     N10211  -0.461   6.952   0.289 -1.4052 -0.0172  0.5460
  817MOL0     N10212  -0.486   6.905   0.413 -0.7678 -0.7570  0.5479
  817MOL0     C10213   0.454   6.653   0.722  0.3193 -0.7542  0.6314
  817MOL0     C10214   0.596   6.647   0.678  0.9881 -0.8364  0.2369
  817MOL0     C10215   1.005   6.579   0.503  0.8577 -0.4405  0.1184
  817MOL0     C10216   1.010   6.595   0.363 -0.2599  0.2131  0.6922
  817MOL0     C10217   1.130   6.590   0.292  0.5444 -0.8562  0.0762
  817MOL0     C10218   1.244   6.571   0.367 -0.3241  0.2483  0.7096
  817MOL0     O10219   1.358   6.546   0.288 -0.0753  0.6157  0.4548
  817MOL0     C10220   1.493   6.557   0.331  0.0309 -0.4194  1.0998
  817MOL0     C10221   1.584   6.559   0.206 -0.3356 -0.0865 -0.4059
  817MOL0     C10222   1.592   6.432   0.137 -0.0299  0.5855  0.1770
  817MOL0     C10223   1.653   6.461   0.001 -0.2075  0.7181  0.1099
  817MOL0     C10224   1.797   6.511   0.009 -0.3267 -0.1106 -0.3103
  817MOL0     C10225   1.908   6.559   0.009  0.7412  0.2834 -0.1601
  817MOL0     C10226   1.253   6.560   0.506  0.2602 -0.0815  1.1785
  817MOL0     C10227   1.124   6.556   0.564 -0.3095 -0.4115 -0.8433
  817MOL0     H10228   0.587   6.404   0.455  0.4759  0.5550 -0.2302
  817MOL0     H10229   0.346   6.395   0.541  1.1757 -0.2854  1.4883
  817MOL0     H10230   0.079   6.649   0.804  0.6669 -0.3209 -3.8104
  817MOL0     H10231   0.238   6.696   0.866 -1.2617  1.7597  1.3000
  817MOL0     H10232   0.291   6.815   0.649  0.6807  0.0695  0.8774
  817MOL0     H10233   0.142   6.767   0.566 -0.6728  3.4455 -0.8898
  817MOL0     H10234   0.127   6.906   0.842 -1.0595  1.4188  0.6694
  817MOL0     H10235   0.169   7.006   0.714 -0.0092  0.1299  2.7550
  817MOL0     H10236  -0.036   6.888   0.576  0.4213 -1.3946 -0.0141
  817MOL0     H10237  -0.082   6.806   0.721 -2.5093  0.5473 -0.6985
  817MOL0     H10238  -0.164   6.983   0.831 -0.4086 -0.5717  0.2007
  817MOL0     H10239  -0.110   7.104   0.702 -1.9321  1.0604 -0.7060
  817MOL0     H10240  -0.259   6.968   0.545 -2.0425 -1.9745  0.3152
  817MOL0     H10241  -0.305   6.880   0.692  1.7533 -0.3772  2.0364
  817MOL0     H10242  -0.394   7.092   0.797  0.2695 -1.6150 -0.0957
  817MOL0     H10243  -0.346   7.186   0.648 -4.4415  0.1742 -2.6697
  817MOL0     H10244  -0.582   7.119   0.646  0.9582  1.0551 -1.1218
  817MOL0     H10245  -0.549   6.962   0.678 -1.9403  1.6438  1.3277
  817MOL0     H10246  -0.496   7.238   0.436 -1.3472 -0.6926 -0.7333
  817MOL0     H10247  -0.377   7.156   0.109  1.5134  2.2600  0.2714
  817MOL0     H10248  -0.554   7.134   0.105  1.1227  2.3997 -2.5955
  817MOL0     H10249  -0.432   7.363   0.263 -0.2130 -3.0731  1.4795
  817MOL0     H10250  -0.599   7.328   0.220  0.4715 -1.6993  0.2177
  817MOL0     H10251  -0.505   7.526   0.087  1.3661 -0.0604  4.4365
  817MOL0     H10252  -0.547   7.388  -0.011  1.3133  1.3783 -0.4562
  817MOL0     H10253  -0.321   7.473  -0.087  0.9532 -0.8463 -0.4203
  817MOL0     H10254  -0.313   7.321  -0.029  0.5976  0.4103 -0.5483
  817MOL0     H10255  -0.176   7.407   0.348 -0.7648 -2.3319  1.3629
  817MOL0     H10256   0.010   7.138   0.503 -0.9646 -0.1209 -0.6737
  817MOL0     H10257   0.094   7.294   0.496 -1.1328  2.2825  1.7589
  817MOL0     H10258  -0.079   7.292   0.536 -0.9900 -2.8539  0.6326
  817MOL0     H10259   0.416   7.135   0.140  3.4382  1.2427 -0.8021
  817MOL0     H10260   0.638   7.073   0.163  0.1578  1.3212  0.7935
  817MOL0     H10261   0.784   7.104   0.488 -1.2788 -0.9698 -0.8466
  817MOL0     H10262   0.791   6.947   0.566  0.6378  0.2004 -0.6613
  817MOL0     H10263   0.988   6.917   0.371 -0.3404  2.0780 -1.3246
  817MOL0     H10264   0.979   7.085   0.372 -1.2371  1.9050  1.4194
  817MOL0     H10265   1.039   6.882   0.597  1.1061 -0.2319  1.0233
  817MOL0     H10266   1.064   7.059   0.614  3.9830  3.2204 -3.9650
  817MOL0     H10267   1.236   6.870   0.481 -0.9438 -0.5151  0.1503
  817MOL0     H10268   1.222   7.024   0.400  1.8703 -0.3773  0.5228
  817MOL0     H10269   1.356   6.982   0.665  2.4039 -1.0786 -2.0267
  817MOL0     H10270   1.262   7.126   0.619 -0.9949  0.5190 -0.0927
  817MOL0     H10271   1.397   7.139   0.403 -0.5922 -0.2414  0.1162
  817MOL0     H10272   1.506   7.152   0.536  2.1188 -1.3671 -0.3544
  817MOL0     H10273   1.432   6.913   0.351  1.7710 -2.2299 -1.3511
  817MOL0     H10274   1.507   6.881   0.503  0.1541 -2.0835 -2.8961
  817MOL0     H10275   1.638   7.050   0.306  0.2232  0.8591  0.3763
  817MOL0     H10276   1.692   6.890   0.357 -0.0982 -0.2124  0.6321
  817MOL0     H10277   0.577   6.898   0.552 -0.3057 -0.1554 -0.3220
  817MOL0     H10278   0.362   6.998   0.561  1.8171 -4.3653  0.8562
  817MOL0     H10279   0.076   7.148   0.023 -0.5853 -1.2668  1.2850
  817MOL0     H10280  -0.059   7.319  -0.054  2.0267  0.1176  0.8615
  817MOL0     H10281   0.426   6.718   0.804 -1.0762  2.0154 -1.8562
  817MOL0     H10282   0.665   6.723   0.714  1.4289 -1.5318  0.9069
  817MOL0     H10283   0.922   6.611   0.303  1.9036 -3.9459 -4.3627
  817MOL0     H10284   1.145   6.601   0.185  1.2078  2.1076  0.3727
  817MOL0     H10285   1.513   6.653   0.379  1.8851  0.4879 -1.2742
  817MOL0     H10286   1.528   6.482   0.402  0.5753 -1.1919  0.0462
  817MOL0     H10287   1.683   6.576   0.248 -0.8497 -1.9612  1.7507
  817MOL0     H10288   1.562   6.644   0.141  1.4575  0.7814  0.0724
  817MOL0     H10289   1.490   6.400   0.111 -0.6172  2.9601 -0.7877
  817MOL0     H10290   1.637   6.358   0.203  1.9567  0.2072 -1.4962
  817MOL0     H10291   1.580   6.511  -0.063 -2.8509 -0.5761  1.9393
  817MOL0     H10292   1.670   6.363  -0.046 -0.2463 -0.6836  2.8154
  817MOL0     H10293   2.004   6.607   0.021  0.7221  0.4181 -0.5499
  817MOL0     H10294   1.346   6.572   0.562  0.0468 -0.1065  1.5441
  817MOL0     H10295   1.137   6.543   0.672 -2.1676  0.4961 -0.4807
  818MOL0     O10296   2.310   2.645   4.801 -0.1396 -0.2438 -0.0763
  818MOL0     C10297   2.407   2.723   4.789 -0.0661 -0.7151 -0.9757
  818MOL0     O10298   2.416   2.834   4.708 -0.1593  0.0093  0.2390
  818MOL0     C10299   2.311   2.872   4.627 -0.2081 -0.2116 -0.5859
  818MOL0     C10300   2.353   2.967   4.536 -0.7071 -0.0582 -0.7325
  818MOL0     C10301   2.265   3.027   4.452  0.3675  0.3573  0.1597
  818MOL0     C10302   2.134   2.990   4.439  0.1544  0.7130  0.1739
  818MOL0     O10303   2.049   3.048   4.346  0.4678  0.0420  0.2248
  818MOL0     C10304   1.916   2.990   4.331  0.1225 -0.0376 -0.1262
  818MOL0     C10305   1.862   3.006   4.193  0.4875 -0.5577  0.1637
  818MOL0     C10306   1.803   3.150   4.183  0.8984  0.4136 -0.0093
  818MOL0     C10307   1.748   3.173   4.038 -0.9578  0.5334 -0.1860
  818MOL0     C10308   1.642   3.297   4.056 -0.0432  0.0048 -0.9891
  818MOL0     C10309   1.554   3.313   3.927 -0.2979  0.2800 -0.2978
  818MOL0     C10310   1.644   3.377   3.817  0.1709 -1.1238 -0.4879
  818MOL0     C10311   1.688   3.262   3.724  0.7833 -0.7313  0.0215
  818MOL0     N10312   1.579   3.198   3.643 -0.2779  0.2769  0.7868
  818MOL0     C10313   1.517   3.258   3.537  0.8071  0.6495  0.7369
  818MOL0     C10314   1.416   3.175   3.499  0.4080  0.5778  0.8488
  818MOL0     C10315   1.298   3.208   3.408  0.4973 -0.0006 -0.0065
  818MOL0     C10316   1.250   3.350   3.386 -0.9237 -1.0924 -0.2694
  818MOL0     C10317   1.130   3.363   3.294 -0.7819  0.5833 -0.8285
  818MOL0     C10318   1.088   3.509   3.278  0.3615  0.2405  0.0424
  818MOL0     O10319   1.036   3.562   3.402 -0.1864 -0.4425  0.0260
  818MOL0     C10320   0.924   3.639   3.387 -0.6135  0.0615 -0.5031
  818MOL0     C10321   0.918   3.779   3.359 -0.3779  1.0069  0.6920
  818MOL0     C10322   0.800   3.841   3.361  0.4663 -0.7296 -0.3555
  818MOL0     C10323   0.800   3.990   3.347 -0.1541 -0.4943  0.7632
  818MOL0     C10324   0.678   3.773   3.390 -0.0946 -0.5013 -0.2539
  818MOL0     C10325   0.542   3.831   3.412  1.2356  0.1426 -0.0755
  818MOL0     O10326   0.424   3.767   3.374  0.3825  0.0369  0.2480
  818MOL0     C10327   0.297   3.826   3.358 -0.4476  0.2605 -0.4758
  818MOL0     C10328   0.210   3.778   3.255 -0.5416 -0.2664 -0.0048
  818MOL0     C10329   0.080   3.827   3.244 -0.7120  0.0473  0.4041
  818MOL0     C10330   0.026   3.924   3.324 -0.0534  0.1637 -0.1230
  818MOL0     O10331  -0.090   3.989   3.304 -0.1603  1.0603 -1.2094
  818MOL0     C10332  -0.128   4.008   3.166  0.0792  0.1685  0.2527
  818MOL0     C10333  -0.196   4.149   3.170 -0.2192  0.8466 -0.1011
  818MOL0     C10334  -0.330   4.153   3.244  0.6648  0.7716 -0.2290
  818MOL0     C10335  -0.432   4.271   3.210 -0.9183  0.6204  1.3456
  818MOL0     C10336  -0.563   4.234   3.261  0.4825  0.6876 -0.4306
  818MOL0     C10337  -0.645   4.363   3.267 -0.6198  0.1985  0.3784
  818MOL0     C10338  -0.796   4.326   3.268  0.5990  0.4392  0.3188
  818MOL0     C10339  -0.857   4.304   3.411 -0.9049 -0.0634  0.5639
  818MOL0    Cl10340  -0.837   4.433   3.530 -0.6411 -0.4811 -0.1718
  818MOL0     C10341   0.113   3.974   3.425  0.1524 -0.0507  0.7274
  818MOL0     C10342   0.240   3.920   3.450  0.2780  0.1020 -0.3381
  818MOL0     O10343   0.546   3.941   3.470 -0.4516  0.5988 -0.2107
  818MOL0     C10344   0.678   3.631   3.406 -0.1039 -0.8832 -1.0106
  818MOL0     C10345   0.807   3.573   3.416  0.1618  0.5093 -1.1718
  818MOL0     N10346   1.425   3.066   3.567 -0.3093  0.0589 -0.2183
  818MOL0     N10347   1.527   3.076   3.651  0.1691  0.2749 -0.9090
  818MOL0     C10348   2.078   2.898   4.542 -0.7446 -0.1048  0.5917
  818MOL0     C10349   2.174   2.846   4.633 -0.0277 -0.2346  1.0104
  818MOL0     C10350   2.530   2.679   4.871 -0.0362  0.3092  0.9289
  818MOL0     C10351   2.637   2.767   4.898 -0.2181  0.1335  0.5106
  818MOL0     C10352   2.755   2.728   4.962 -0.5080 -0.1820  0.6589
  818MOL0     C10353   2.770   2.596   5.007  0.3814 -1.5007  0.4781
  818MOL0     O10354   2.885   2.540   5.053  0.1079 -0.6288 -0.3247
  818MOL0     C10355   3.016   2.601   5.036  0.1320  0.1151  0.3177
  818MOL0     C10356   3.078   2.582   4.899 -1.3068  0.0940 -0.3553
  818MOL0     C10357   2.997   2.622   4.772  0.2252 -0.2846  0.1778
  818MOL0     C10358   3.087   2.635   4.645 -0.9285 -0.3128  0.2709
  818MOL0     C10359   3.023   2.681   4.522  0.5781 -0.1808 -0.1569
  818MOL0     C10360   2.977   2.720   4.419  0.2111  0.4395  0.8839
  818MOL0     C10361   2.660   2.511   4.988 -0.0434 -0.9574 -0.1885
  818MOL0     C10362   2.543   2.547   4.924 -0.1314 -0.1916  0.4113
  818MOL0     H10363   2.457   2.995   4.545 -0.4924 -0.0586 -2.7742
  818MOL0     H10364   2.308   3.112   4.400  2.3776 -0.2627  0.7108
  818MOL0     H10365   1.923   2.882   4.346 -0.7415  0.0197  0.7760
  818MOL0     H10366   1.844   3.039   4.397 -0.3994 -0.8407 -0.0860
  818MOL0     H10367   1.951   2.991   4.131 -0.2585 -2.8787 -0.4702
  818MOL0     H10368   1.791   2.926   4.169  0.7908 -0.3955 -1.3866
  818MOL0     H10369   1.723   3.160   4.256  0.5933 -0.0337 -0.2750
  818MOL0     H10370   1.887   3.219   4.195 -0.1284  1.5345  0.8992
  818MOL0     H10371   1.835   3.207   3.982 -1.1267 -0.7317 -1.2656
  818MOL0     H10372   1.700   3.086   3.991 -3.7502  2.4751 -1.2086
  818MOL0     H10373   1.575   3.277   4.139  1.4592  0.3906  0.3603
  818MOL0     H10374   1.685   3.397   4.068 -3.9678  1.7256  0.2806
  818MOL0     H10375   1.525   3.208   3.912 -0.0259 -0.1765  2.0594
  818MOL0     H10376   1.467   3.377   3.940 -0.7339 -0.8244  3.1990
  818MOL0     H10377   1.595   3.467   3.779 -1.2010 -0.0090  3.4961
  818MOL0     H10378   1.733   3.423   3.860  0.9489 -2.6754 -0.3637
  818MOL0     H10379   1.745   3.189   3.783 -1.0974 -1.1038  1.4831
  818MOL0     H10380   1.753   3.316   3.655 -2.3420  0.6894 -2.0196
  818MOL0     H10381   1.515   3.352   3.483 -0.3398  0.5056  0.4919
  818MOL0     H10382   1.318   3.146   3.320 -0.3588 -3.4851  2.0215
  818MOL0     H10383   1.210   3.154   3.447  1.9581 -2.4560  0.0954
  818MOL0     H10384   1.328   3.402   3.330  0.3364  0.1168  2.4346
  818MOL0     H10385   1.221   3.394   3.481 -2.1631 -0.7425 -0.7776
  818MOL0     H10386   1.054   3.299   3.340  0.9960 -0.5744  0.6734
  818MOL0     H10387   1.158   3.317   3.199 -0.0626  0.6109 -0.6335
  818MOL0     H10388   1.003   3.504   3.210 -1.4343  0.8810  2.1026
  818MOL0     H10389   1.167   3.576   3.245 -0.6632  2.2717  1.4493
  818MOL0     H10390   1.014   3.831   3.354  0.2183  0.4432  3.9653
  818MOL0     H10391   0.800   4.036   3.446  3.1806  0.8366  0.2734
  818MOL0     H10392   0.887   4.030   3.294 -0.6992  0.2107  0.3898
  818MOL0     H10393   0.715   4.017   3.284  1.0865 -0.1378 -0.8160
  818MOL0     H10394   0.242   3.685   3.207 -2.7968 -2.2988  2.1492
  818MOL0     H10395   0.010   3.780   3.176 -3.2792  0.7152  2.4496
  818MOL0     H10396  -0.048   3.998   3.092 -0.3876 -5.8683  0.1385
  818MOL0     H10397  -0.199   3.932   3.135 -1.1611  0.6118  1.8140
  818MOL0     H10398  -0.131   4.223   3.217 -2.3703  1.7927  1.5687
  818MOL0     H10399  -0.219   4.183   3.068 -2.7977  3.4308  1.1811
  818MOL0     H10400  -0.308   4.152   3.351  2.1721 -1.4361 -0.4835
  818MOL0     H10401  -0.374   4.058   3.211  3.2990  0.7464 -4.4908
  818MOL0     H10402  -0.399   4.366   3.253 -0.1401 -0.4009  3.1005
  818MOL0     H10403  -0.454   4.284   3.104  0.5376  1.3368  1.1077
  818MOL0     H10404  -0.555   4.193   3.362 -1.0542  2.6630  0.5630
  818MOL0     H10405  -0.606   4.163   3.189  1.3057  0.7575 -0.9989
  818MOL0     H10406  -0.619   4.433   3.347 -0.6336  0.1416  0.4328
  818MOL0     H10407  -0.619   4.427   3.181  0.4509  1.1645  1.3793
  818MOL0     H10408  -0.819   4.233   3.215  1.3525 -0.0959  0.8942
  818MOL0     H10409  -0.855   4.400   3.215 -2.8441 -1.6759  0.8632
  818MOL0     H10410  -0.810   4.216   3.458 -0.0869  0.0149 -0.0820
  818MOL0     H10411  -0.964   4.284   3.406 -0.6138 -1.5992 -0.3136
  818MOL0     H10412   0.070   4.055   3.483 -1.9690  0.8528 -1.8874
  818MOL0     H10413   0.294   3.946   3.540 -1.2031  1.0421  0.3327
  818MOL0     H10414   0.588   3.573   3.422  0.6845 -1.6161  1.0725
  818MOL0     H10415   0.813   3.469   3.445  2.3327  0.9041 -0.0390
  818MOL0     H10416   1.973   2.873   4.550 -0.5879 -1.0084 -0.0849
  818MOL0     H10417   2.155   2.766   4.705  2.3846 -0.5806  1.3477
  818MOL0     H10418   2.631   2.871   4.867 -3.1376  0.5703  2.1878
  818MOL0     H10419   2.845   2.789   4.967 -0.2379 -0.6739  3.1928
  818MOL0     H10420   3.006   2.710   5.043  2.4094  0.3179  1.4489
  818MOL0     H10421   3.083   2.560   5.112 -2.0841 -0.8543  1.8721
  818MOL0     H10422   3.096   2.476   4.878 -3.9541 -0.4955  0.1184
  818MOL0     H10423   3.176   2.630   4.910 -2.0116  1.0396  2.8332
  818MOL0     H10424   2.963   2.724   4.788 -1.4143 -0.7326 -0.3186
  818MOL0     H10425   2.917   2.548   4.761  1.2121 -1.4608  0.6507
  818MOL0     H10426   3.130   2.537   4.627  0.3251  0.3141 -0.2346
  818MOL0     H10427   3.174   2.700   4.655 -1.5930  0.5637  0.5652
  818MOL0     H10428   2.935   2.772   4.336 -3.1087 -2.4253  0.5260
  818MOL0     H10429   2.660   2.409   5.027 -1.9190 -1.2644 -0.9074
  818MOL0     H10430   2.467   2.472   4.904 -0.9253  1.1133 -1.8142
  819MOL0     O10431  10.103   9.738   1.601 -0.4813 -0.7855 -0.1803
  819MOL0     C10432  10.037   9.762   1.501  0.7497  0.2993  0.2431
  819MOL0     O10433  10.028   9.888   1.450  0.2418 -0.0330  0.7616
  819MOL0     C10434  10.133   9.972   1.469  0.8731 -0.0851 -1.0592
  819MOL0     C10435  10.208  10.023   1.354 -0.2837  0.1659 -0.3826
  819MOL0     C10436  10.304  10.121   1.364  0.9892  0.6107 -0.3607
  819MOL0     C10437  10.345  10.161   1.488 -0.3626 -0.5304  0.1572
  819MOL0     O10438  10.444  10.262   1.507 -0.6089  0.1656  0.3870
  819MOL0     C10439  10.443  10.373   1.413 -1.1227  0.0416  0.1283
  819MOL0     C10440  10.561  10.340   1.320 -0.0928  0.2255 -0.5925
  819MOL0     C10441  10.558  10.435   1.198 -0.4926  0.4554 -0.3323
  819MOL0     C10442  10.686  10.411   1.111 -1.1577  0.0243 -0.1583
  819MOL0     C10443  10.706  10.522   1.008 -0.4455 -0.6385 -0.2588
  819MOL0     C10444  10.830  10.484   0.918  0.9331 -1.0131  0.0008
  819MOL0     C10445  10.843  10.578   0.803 -0.0053  0.9313  0.3971
  819MOL0     C10446  10.944  10.520   0.696 -0.4081 -0.5782  0.8593
  819MOL0     N10447  11.080  10.547   0.739 -1.2284 -0.0397  0.0658
  819MOL0     C10448  11.151  10.666   0.731 -0.2026 -0.4027  1.3418
  819MOL0     C10449  11.279  10.637   0.776  0.4358 -0.1436 -0.3450
  819MOL0     C10450  11.388  10.729   0.810  0.7037 -0.0712 -0.0649
  819MOL0     C10451  11.344  10.852   0.888 -0.0223  1.0183 -1.1899
  819MOL0     C10452  11.458  10.937   0.950  0.4638 -1.0826 -1.1986
  819MOL0     C10453  11.521  11.033   0.851 -0.2077 -0.3156 -0.0701
  819MOL0     O10454  11.427  11.133   0.806  0.3129  1.3753 -0.0874
  819MOL0     C10455  11.490  11.247   0.774  0.2070  0.2824 -0.0527
  819MOL0     C10456  11.575  11.248   0.663 -0.2139 -0.9223 -0.3321
  819MOL0     C10457  11.665  11.360   0.647  0.1975  0.1989 -0.1233
  819MOL0     C10458  11.734  11.366   0.517  1.0904 -0.0384  0.3361
  819MOL0     C10459  11.659  11.463   0.745  0.6365 -0.2538 -0.4333
  819MOL0     C10460  11.753  11.575   0.748  0.5836  0.3379  0.6556
  819MOL0     O10461  11.708  11.695   0.794 -0.3812  0.1341  0.4545
  819MOL0     C10462  11.775  11.808   0.754  0.6294  0.4423 -0.5244
  819MOL0     C10463  11.897  11.831   0.821 -0.5541 -1.0362  0.1197
  819MOL0     C10464  11.984  11.938   0.800  0.3943 -0.0011 -0.1536
  819MOL0     C10465  11.951  12.033   0.704  0.4315  0.1109  0.1768
  819MOL0     O10466  12.018  12.149   0.671  0.6570  0.2257  0.1416
  819MOL0     C10467  12.145  12.167   0.726 -0.1142 -0.0380 -0.3099
  819MOL0     C10468  12.214  12.294   0.660  0.9271 -0.3010  1.3834
  819MOL0     C10469  12.348  12.335   0.715 -0.4156 -0.1051 -0.5125
  819MOL0     C10470  12.404  12.457   0.644  0.4894 -0.1745  1.1300
  819MOL0     C10471  12.519  12.522   0.717  0.2826  0.4494  0.9030
  819MOL0     C10472  12.573  12.652   0.649 -0.1266  0.4570 -0.2128
  819MOL0     C10473  12.662  12.617   0.525  0.7830 -0.4202  0.8780
  819MOL0     C10474  12.713  12.743   0.458  0.2694  0.1110  0.7767
  819MOL0    Cl10475  12.809  12.702   0.312  0.2257  0.6913 -0.3029
  819MOL0     C10476  11.832  12.009   0.632  1.0767 -0.8721 -1.0950
  819MOL0     C10477  11.746  11.900   0.657 -0.0035 -0.2958  0.4089
  819MOL0     O10478  11.861  11.567   0.694 -0.3071 -0.1420  0.1194
  819MOL0     C10479  11.584  11.450   0.860 -0.6279 -0.1088  1.0227
  819MOL0     C10480  11.504  11.340   0.871  0.8421 -0.2885 -0.3918
  819MOL0     N10481  11.281  10.499   0.810  0.5700 -0.3071  0.7090
  819MOL0     N10482  11.163  10.447   0.787 -0.1597  0.5308 -0.1390
  819MOL0     C10483  10.285  10.113   1.603  0.3544 -0.0520 -0.4914
  819MOL0     C10484  10.174  10.021   1.599  0.8677  0.5179 -0.2895
  819MOL0     C10485   9.950   9.650   1.443 -0.8991 -0.1732  0.9914
  819MOL0     C10486   9.894   9.673   1.314  0.0796 -0.5115  1.3181
  819MOL0     C10487   9.808   9.576   1.255 -0.0889 -0.2274  0.4083
  819MOL0     C10488   9.771   9.461   1.328  0.7563 -0.1010  0.0085
  819MOL0     O10489   9.693   9.370   1.272  0.3130  0.8196 -0.4494
  819MOL0     C10490   9.658   9.387   1.130 -0.4583 -0.4251 -0.8220
  819MOL0     C10491   9.607   9.260   1.071 -0.0332  0.0299 -0.4455
  819MOL0     C10492   9.719   9.146   1.061  0.3242 -0.5937  0.3383
  819MOL0     C10493   9.668   9.033   0.977 -0.4881  0.6105 -0.2487
  819MOL0     C10494   9.717   8.897   1.000 -1.0671  0.4782 -0.1542
  819MOL0     C10495   9.764   8.786   1.028  0.8065  0.1115  0.8842
  819MOL0     C10496   9.849   9.432   1.441  0.0642 -0.6612 -1.4241
  819MOL0     C10497   9.932   9.525   1.501 -0.0595  0.1050  0.8444
  819MOL0     H10498  10.176   9.989   1.256 -2.4083 -2.3435  1.0326
  819MOL0     H10499  10.340  10.154   1.267 -1.3488  1.1707 -1.1048
  819MOL0     H10500  10.347  10.377   1.359 -0.7999  0.4273 -0.4256
  819MOL0     H10501  10.464  10.467   1.463  0.8294 -1.7297  2.9130
  819MOL0     H10502  10.649  10.359   1.383 -1.7443  1.7228  1.3762
  819MOL0     H10503  10.577  10.235   1.291 -1.0897  0.4998 -2.2789
  819MOL0     H10504  10.472  10.405   1.138  0.7638  0.2705 -2.1115
  819MOL0     H10505  10.551  10.539   1.230 -2.1814  0.2510  0.0475
  819MOL0     H10506  10.782  10.405   1.162 -0.6340 -1.8557 -1.2566
  819MOL0     H10507  10.681  10.314   1.061  2.0407 -1.3816  1.9952
  819MOL0     H10508  10.614  10.532   0.950 -0.0981  0.4253 -0.6491
  819MOL0     H10509  10.726  10.616   1.061 -2.8158 -0.5334  0.5683
  819MOL0     H10510  10.910  10.493   0.992  0.0101  0.5320  0.8646
  819MOL0     H10511  10.818  10.382   0.881  0.3994 -1.0800  0.3552
  819MOL0     H10512  10.745  10.599   0.758 -0.6433  0.7547  1.6324
  819MOL0     H10513  10.887  10.672   0.838 -0.3810  0.8298  1.1707
  819MOL0     H10514  10.931  10.580   0.605 -3.9483  0.9092  2.1699
  819MOL0     H10515  10.929  10.416   0.667  0.5287  0.3545 -3.9520
  819MOL0     H10516  11.114  10.765   0.708  0.7096  0.0125  1.6255
  819MOL0     H10517  11.453  10.669   0.874 -0.8885 -2.1821 -0.3562
  819MOL0     H10518  11.431  10.766   0.716  0.1977 -2.3960 -1.2808
  819MOL0     H10519  11.294  10.822   0.981  0.2004  2.7228 -0.4935
  819MOL0     H10520  11.274  10.903   0.822 -3.1660  1.9616  2.5348
  819MOL0     H10521  11.535  10.880   1.003 -1.2116  1.2943  4.4565
  819MOL0     H10522  11.422  11.002   1.030  1.6894 -1.0053 -0.6869
  819MOL0     H10523  11.574  10.979   0.772 -3.5074 -1.4352 -1.7012
  819MOL0     H10524  11.598  11.082   0.911 -0.7274 -2.5194  2.6198
  819MOL0     H10525  11.571  11.164   0.594  3.9903 -2.0514  0.4648
  819MOL0     H10526  11.700  11.286   0.450 -1.8706  1.9662 -0.7287
  819MOL0     H10527  11.738  11.464   0.469  2.1092 -0.7440 -1.0861
  819MOL0     H10528  11.843  11.360   0.526  1.0359  1.3467  2.7192
  819MOL0     H10529  11.937  11.755   0.888  0.0549 -0.0440  0.9076
  819MOL0     H10530  12.078  11.952   0.853 -0.2912  0.9617  0.8432
  819MOL0     H10531  12.135  12.178   0.834  1.8609  1.2424 -0.2196
  819MOL0     H10532  12.218  12.087   0.710  0.0637  0.1696 -0.5483
  819MOL0     H10533  12.200  12.295   0.551 -1.4564  1.7596  1.6147
  819MOL0     H10534  12.134  12.362   0.689 -0.4444 -0.1560 -2.1680
  819MOL0     H10535  12.417  12.249   0.712 -0.6928 -0.3402 -0.2609
  819MOL0     H10536  12.346  12.369   0.819 -1.9611 -1.5654 -0.0228
  819MOL0     H10537  12.431  12.415   0.547  2.0933  0.6418  1.1876
  819MOL0     H10538  12.331  12.538   0.636  0.5174 -0.1858  0.7574
  819MOL0     H10539  12.604  12.454   0.726 -0.6117 -2.2835 -5.8336
  819MOL0     H10540  12.485  12.541   0.820  0.0374 -0.6300  1.0336
  819MOL0     H10541  12.488  12.715   0.621  0.1887  2.0533  2.1549
  819MOL0     H10542  12.642  12.701   0.717  1.4228 -1.4726 -0.2982
  819MOL0     H10543  12.602  12.558   0.455  0.4825  1.1044 -0.2005
  819MOL0     H10544  12.749  12.561   0.561  2.5830  2.7016  1.7332
  819MOL0     H10545  12.768  12.806   0.528 -0.4500  0.7427  0.7756
  819MOL0     H10546  12.634  12.806   0.417  0.4922 -1.5573 -2.5462
  819MOL0     H10547  11.795  12.072   0.551 -0.7589 -2.6313 -1.7217
  819MOL0     H10548  11.649  11.891   0.609 -1.9111  2.6351  3.2514
  819MOL0     H10549  11.569  11.518   0.943 -2.5071 -0.2217  0.8248
  819MOL0     H10550  11.439  11.330   0.957 -0.4921  2.6037 -0.9144
  819MOL0     H10551  10.319  10.134   1.704  0.3580  3.0155 -1.0372
  819MOL0     H10552  10.107   9.998   1.681 -0.9801  3.8910 -0.6916
  819MOL0     H10553   9.908   9.761   1.253 -0.1687 -1.2588  0.1353
  819MOL0     H10554   9.756   9.603   1.164  0.6579  1.5973  0.4873
  819MOL0     H10555   9.593   9.473   1.114 -0.9473 -0.9972 -2.0415
  819MOL0     H10556   9.758   9.391   1.086 -0.5999 -2.0576 -1.3872
  819MOL0     H10557   9.548   9.273   0.980 -1.1755 -3.1909 -0.3206
  819MOL0     H10558   9.536   9.223   1.145  0.5322 -2.5433 -1.0835
  819MOL0     H10559   9.723   9.108   1.163 -2.2344 -0.7289  0.4673
  819MOL0     H10560   9.817   9.188   1.036  0.0875 -0.4357 -0.3653
  819MOL0     H10561   9.703   9.061   0.877 -2.3614  0.3146 -1.0262
  819MOL0     H10562   9.559   9.043   0.976 -0.6715 -1.0879 -1.0421
  819MOL0     H10563   9.806   8.690   1.051 -2.8924 -1.7149  0.8062
  819MOL0     H10564   9.856   9.334   1.487  1.5457 -0.0716 -0.2942
  819MOL0     H10565   9.997   9.496   1.584 -1.1546 -1.8387  1.1018
  820MOL0     O10566   3.831   5.453   3.125  0.0300  0.5778 -0.8336
  820MOL0     C10567   3.864   5.566   3.135  0.7075  0.0352  0.8899
  820MOL0     O10568   3.847   5.660   3.040 -0.4036  0.1548 -0.1958
  820MOL0     C10569   3.845   5.625   2.904  0.1218 -0.1369 -0.0858
  820MOL0     C10570   3.958   5.665   2.827 -0.9732  0.2500 -0.8451
  820MOL0     C10571   3.967   5.620   2.691  0.1526 -0.3161  0.7404
  820MOL0     C10572   3.855   5.563   2.628  0.5945  0.1431  0.1139
  820MOL0     O10573   3.871   5.517   2.505  0.5577  0.5000 -0.1191
  820MOL0     C10574   3.753   5.475   2.434  0.6627  1.1668 -0.0938
  820MOL0     C10575   3.759   5.473   2.284  0.1612  0.2311 -0.3839
  820MOL0     C10576   3.619   5.409   2.225 -0.0485 -0.6854 -0.2250
  820MOL0     C10577   3.600   5.476   2.088 -0.0528  0.0892 -0.3757
  820MOL0     C10578   3.461   5.437   2.045 -0.2716 -0.1872  0.8778
  820MOL0     C10579   3.432   5.288   2.027  0.7845 -0.6804  0.3068
  820MOL0     C10580   3.515   5.203   1.935 -0.3840  0.4004  0.1101
  820MOL0     C10581   3.453   5.057   1.919  0.4708 -0.5829 -0.8803
  820MOL0     N10582   3.560   4.973   1.875  0.5518 -1.0778  0.2817
  820MOL0     C10583   3.655   4.898   1.947  0.1594 -0.3631  0.3038
  820MOL0     C10584   3.734   4.843   1.855 -0.3685 -0.6962 -0.3607
  820MOL0     C10585   3.868   4.783   1.872  0.3848 -0.0960 -0.2340
  820MOL0     C10586   3.903   4.676   1.758  0.2500  0.2241 -0.5401
  820MOL0     C10587   3.821   4.548   1.781 -0.6606 -1.0268  0.8042
  820MOL0     C10588   3.895   4.434   1.834 -0.1204  0.8991 -0.7897
  820MOL0     O10589   3.807   4.337   1.897  0.0879 -0.0085  1.5521
  820MOL0     C10590   3.875   4.239   1.972  0.9542 -0.7380 -0.8977
  820MOL0     C10591   4.008   4.247   2.025  0.0458  0.5030  0.2078
  820MOL0     C10592   4.065   4.149   2.102 -0.2579  0.0233  0.5053
  820MOL0     C10593   4.200   4.177   2.144 -0.5667 -0.0252 -0.0015
  820MOL0     C10594   3.992   4.029   2.128  0.3617  0.5405 -0.3995
  820MOL0     C10595   4.032   3.915   2.231  0.7688  0.1305  0.4154
  820MOL0     O10596   4.136   3.935   2.305 -0.3744 -0.1428  1.1342
  820MOL0     C10597   4.205   3.836   2.376 -0.7371 -0.3853 -0.2656
  820MOL0     C10598   4.228   3.703   2.343  0.0731  0.5444  0.7836
  820MOL0     C10599   4.304   3.615   2.416 -0.8570 -0.0646 -1.1239
  820MOL0     C10600   4.368   3.653   2.538  0.5405 -0.4351  0.3820
  820MOL0     O10601   4.432   3.550   2.615  0.7816  0.7287  0.2796
  820MOL0     C10602   4.495   3.579   2.737  0.0360 -0.9954  0.7241
  820MOL0     C10603   4.610   3.483   2.754  0.2892  0.2759 -0.2060
  820MOL0     C10604   4.550   3.336   2.762 -0.7843 -0.3847  0.2585
  820MOL0     C10605   4.670   3.238   2.758  0.2570  0.1913  0.0302
  820MOL0     C10606   4.617   3.099   2.759 -0.8282  0.6846 -0.5769
  820MOL0     C10607   4.733   3.003   2.781 -0.6993  0.6163  0.8806
  820MOL0     C10608   4.690   2.859   2.803  0.0926 -0.0731  0.2560
  820MOL0     C10609   4.800   2.769   2.754 -0.0947 -0.4973  0.6298
  820MOL0    Cl10610   4.821   2.773   2.577 -0.2405 -0.0311  0.4586
  820MOL0     C10611   4.360   3.784   2.577 -0.1085 -1.5497  0.9312
  820MOL0     C10612   4.285   3.876   2.496  0.9308 -0.6000 -1.7247
  820MOL0     O10613   3.964   3.809   2.228 -0.3491 -0.8965  0.4898
  820MOL0     C10614   3.859   4.014   2.065  0.1587 -0.8457 -0.3435
  820MOL0     C10615   3.796   4.116   1.987 -0.5227 -0.1538 -0.2410
  820MOL0     N10616   3.682   4.871   1.731 -0.2161 -0.3076 -0.3522
  820MOL0     N10617   3.587   4.957   1.746 -0.3212 -0.5413  0.1072
  820MOL0     C10618   3.741   5.532   2.711 -0.4646  0.5109  1.4298
  820MOL0     C10619   3.744   5.560   2.845 -0.1762  0.5946  0.8164
  820MOL0     C10620   3.919   5.619   3.265  0.2457  0.2770 -0.2029
  820MOL0     C10621   3.924   5.522   3.370 -0.8903  0.1004  0.2753
  820MOL0     C10622   3.998   5.552   3.486  0.1768 -0.2202 -0.0104
  820MOL0     C10623   4.052   5.679   3.500 -0.5378 -0.0693  0.6540
  820MOL0     O10624   4.111   5.727   3.607  0.1636  0.4794  0.9964
  820MOL0     C10625   4.147   5.626   3.713  0.0985  0.2601 -0.8915
  820MOL0     C10626   4.232   5.680   3.820 -0.0977 -0.7638 -0.8498
  820MOL0     C10627   4.378   5.667   3.784 -0.8632 -0.3508 -0.3018
  820MOL0     C10628   4.475   5.757   3.854  1.2413  0.4911  0.2593
  820MOL0     C10629   4.614   5.727   3.819 -0.0870  0.6091 -0.4972
  820MOL0     C10630   4.732   5.702   3.784 -0.6051  0.6818 -0.1387
  820MOL0     C10631   4.048   5.776   3.392 -0.6895  0.1271 -0.1757
  820MOL0     C10632   3.982   5.742   3.273 -0.9395 -0.1285 -0.1481
  820MOL0     H10633   4.032   5.730   2.873 -1.2508  0.0017 -0.0313
  820MOL0     H10634   4.059   5.650   2.642 -1.2068  2.5765 -0.2521
  820MOL0     H10635   3.723   5.374   2.462 -0.5480  0.9876 -1.8181
  820MOL0     H10636   3.676   5.547   2.464 -0.1676  0.5366 -0.6656
  820MOL0     H10637   3.761   5.578   2.253  0.6339  0.5360  0.6348
  820MOL0     H10638   3.840   5.414   2.239 -0.5855 -1.9391  0.9764
  820MOL0     H10639   3.628   5.301   2.213  2.5041 -0.6757  0.9916
  820MOL0     H10640   3.542   5.418   2.302  0.3030  0.3758  0.0126
  820MOL0     H10641   3.602   5.584   2.104  2.3513 -0.0682  0.7549
  820MOL0     H10642   3.667   5.439   2.009 -2.7320 -2.0867 -1.7864
  820MOL0     H10643   3.379   5.486   2.100  0.9773  3.7244 -0.3972
  820MOL0     H10644   3.447   5.487   1.948 -1.5038 -1.0466  0.5886
  820MOL0     H10645   3.428   5.254   2.131 -0.8113 -0.8424  0.2177
  820MOL0     H10646   3.327   5.291   1.999  1.3072  3.8846 -2.0572
  820MOL0     H10647   3.520   5.249   1.835  2.7959  0.9975  0.4181
  820MOL0     H10648   3.616   5.187   1.975 -0.3400  0.7263  0.1355
  820MOL0     H10649   3.373   5.059   1.845 -0.5794  0.1935  0.2370
  820MOL0     H10650   3.410   5.023   2.014 -1.2567  1.5968 -0.8060
  820MOL0     H10651   3.684   4.921   2.049  0.0037  2.5775 -0.2184
  820MOL0     H10652   3.941   4.865   1.873  1.2835 -0.8538 -1.2289
  820MOL0     H10653   3.886   4.732   1.967 -0.3762 -0.9334 -0.5289
  820MOL0     H10654   4.010   4.651   1.754 -0.2877 -2.9604  1.6291
  820MOL0     H10655   3.886   4.725   1.662  0.1621 -0.5465 -0.9245
  820MOL0     H10656   3.795   4.527   1.677  4.6866 -0.2260 -0.9755
  820MOL0     H10657   3.722   4.561   1.827 -0.3446  4.0147  0.5791
  820MOL0     H10658   3.950   4.485   1.914 -1.6223  3.1934 -1.1346
  820MOL0     H10659   3.957   4.386   1.758 -2.6032 -3.4004 -0.4534
  820MOL0     H10660   4.077   4.328   2.001  2.4390 -1.7727 -1.0928
  820MOL0     H10661   4.249   4.231   2.063  0.2661  1.4541  1.4252
  820MOL0     H10662   4.206   4.251   2.224 -0.7678  2.1716 -1.9399
  820MOL0     H10663   4.261   4.090   2.173 -0.7442  0.5373  2.2546
  820MOL0     H10664   4.168   3.660   2.264  0.3215 -0.7723  1.2733
  820MOL0     H10665   4.305   3.511   2.385 -0.1435  0.5427 -3.2947
  820MOL0     H10666   4.538   3.680   2.733 -2.1469 -0.0423 -2.3314
  820MOL0     H10667   4.436   3.595   2.827 -0.2233 -1.0923  0.5731
  820MOL0     H10668   4.676   3.501   2.669  1.0696 -1.1003  0.0888
  820MOL0     H10669   4.669   3.506   2.843  1.6970 -2.0706 -0.4684
  820MOL0     H10670   4.492   3.323   2.671 -0.1961 -1.4222  0.0180
  820MOL0     H10671   4.497   3.329   2.858  1.5082  3.1124  2.0065
  820MOL0     H10672   4.717   3.245   2.659  0.3048 -2.4610 -0.2126
  820MOL0     H10673   4.734   3.256   2.845 -0.1284 -0.7274  0.5175
  820MOL0     H10674   4.561   3.076   2.667 -1.6443  0.4609 -0.0381
  820MOL0     H10675   4.550   3.092   2.845 -1.4024 -0.0875 -1.0612
  820MOL0     H10676   4.797   2.999   2.693 -1.5475  0.3881  0.2577
  820MOL0     H10677   4.800   3.013   2.867 -1.4348  1.0026  1.4268
  820MOL0     H10678   4.607   2.831   2.737 -0.1794  0.1854  0.4833
  820MOL0     H10679   4.654   2.852   2.906 -1.3868  3.4446  0.1168
  820MOL0     H10680   4.791   2.667   2.791  1.4986 -1.2990 -1.0630
  820MOL0     H10681   4.893   2.807   2.797  0.5566  1.5974 -2.3106
  820MOL0     H10682   4.403   3.829   2.667 -1.7824  0.3600  0.8490
  820MOL0     H10683   4.293   3.978   2.535 -0.3049 -2.2808  3.8265
  820MOL0     H10684   3.810   3.922   2.097  1.6624 -1.4764  0.2553
  820MOL0     H10685   3.695   4.105   1.949 -0.3302  2.8215 -1.8303
  820MOL0     H10686   3.652   5.496   2.659  0.0586  0.1180  0.8012
  820MOL0     H10687   3.649   5.538   2.892 -1.0741 -1.1446 -1.6476
  820MOL0     H10688   3.864   5.432   3.357 -0.8074  0.2616 -1.4695
  820MOL0     H10689   3.993   5.487   3.573 -1.7843  1.8411  1.5193
  820MOL0     H10690   4.056   5.590   3.762  0.3952 -1.8995 -1.7877
  820MOL0     H10691   4.202   5.545   3.665  0.3291 -0.0512 -0.1181
  820MOL0     H10692   4.204   5.631   3.913  1.0397 -0.7017 -0.4687
  820MOL0     H10693   4.206   5.785   3.834  1.2639 -0.8488  4.0832
  820MOL0     H10694   4.383   5.695   3.679  0.1784 -2.1819 -0.7976
  820MOL0     H10695   4.419   5.566   3.796 -1.0401 -0.0998  3.7374
  820MOL0     H10696   4.473   5.753   3.963  2.4459  0.3334  0.2897
  820MOL0     H10697   4.447   5.860   3.832  0.6962  0.3852  0.4394
  820MOL0     H10698   4.832   5.682   3.749 -1.7234 -3.4476 -1.5678
  820MOL0     H10699   4.101   5.868   3.414  2.2479 -1.6353  0.5894
  820MOL0     H10700   3.989   5.820   3.198  1.2442  3.2350  3.2106
  821MOL0     O10701  11.035   7.473   6.909  0.5388  0.6852 -0.0957
  821MOL0     C10702  11.142   7.483   6.947 -0.9839 -0.1064  0.4146
  821MOL0     O10703  11.243   7.567   6.896  0.3558  0.2751  0.0352
  821MOL0     C10704  11.210   7.645   6.788  0.5006 -0.1132  0.7442
  821MOL0     C10705  11.092   7.723   6.786 -1.0313 -0.7160  0.3719
  821MOL0     C10706  11.077   7.819   6.684 -0.3378 -0.3311  0.1894
  821MOL0     C10707  11.164   7.837   6.580  0.0314  1.0453  0.5831
  821MOL0     O10708  11.140   7.926   6.485 -0.1899  0.3006  0.3016
  821MOL0     C10709  11.015   7.914   6.406 -1.5186  0.6251  0.3837
  821MOL0     C10710  11.016   8.034   6.314 -0.2232 -0.6976 -1.4465
  821MOL0     C10711  11.024   8.167   6.393  0.5986  0.3069 -0.1947
  821MOL0     C10712  11.034   8.284   6.296 -0.3768 -0.2611  0.5738
  821MOL0     C10713  11.092   8.403   6.361  0.5783 -0.9066 -0.7737
  821MOL0     C10714  11.059   8.433   6.509  0.4303  1.0747  0.2200
  821MOL0     C10715  11.091   8.575   6.569  0.6569 -0.2397  0.5939
  821MOL0     C10716  11.036   8.690   6.482 -0.1924 -0.8264 -0.2263
  821MOL0     N10717  11.087   8.821   6.517  0.6206  0.3032 -0.6248
  821MOL0     C10718  11.195   8.878   6.467 -0.2410 -0.6271  0.2581
  821MOL0     C10719  11.191   9.012   6.504  0.7243 -0.0188  0.6638
  821MOL0     C10720  11.282   9.128   6.464  0.6044  0.0071 -0.4553
  821MOL0     C10721  11.280   9.126   6.307  0.0002  0.3554 -0.3350
  821MOL0     C10722  11.399   9.208   6.257 -0.4777 -0.3261  0.1092
  821MOL0     C10723  11.403   9.214   6.101 -0.0093 -0.3351  0.1240
  821MOL0     O10724  11.503   9.311   6.074 -0.2551  0.0187 -0.0627
  821MOL0     C10725  11.519   9.355   5.947  0.4526 -0.4489 -0.9319
  821MOL0     C10726  11.570   9.271   5.852  0.0105 -0.2499  0.2173
  821MOL0     C10727  11.597   9.323   5.727  0.5258 -0.3533 -1.1124
  821MOL0     C10728  11.657   9.220   5.629 -0.2585 -0.8392 -0.4476
  821MOL0     C10729  11.592   9.466   5.703 -0.2292 -0.1309 -0.0528
  821MOL0     C10730  11.630   9.528   5.578  0.2144  0.3945 -0.2380
  821MOL0     O10731  11.547   9.624   5.528  0.3610  0.2230  0.1300
  821MOL0     C10732  11.560   9.664   5.397  0.8396  0.0281 -0.1592
  821MOL0     C10733  11.559   9.805   5.366 -0.3672 -0.5426  0.0627
  821MOL0     C10734  11.574   9.855   5.236  1.1715 -0.1086 -1.6131
  821MOL0     C10735  11.596   9.766   5.132 -0.1194 -0.1043  0.3456
  821MOL0     O10736  11.591   9.820   5.001  0.2887 -0.1419  0.0020
  821MOL0     C10737  11.508   9.749   4.911  0.5418 -0.4155  0.1268
  821MOL0     C10738  11.431   9.847   4.820 -0.3122 -0.4490 -0.2745
  821MOL0     C10739  11.526   9.957   4.762  0.7170 -0.0563 -0.6985
  821MOL0     C10740  11.468  10.038   4.647  0.8723  0.2881 -0.4690
  821MOL0     C10741  11.558  10.139   4.586  1.0190  0.1039  0.0863
  821MOL0     C10742  11.494  10.221   4.470 -0.0285  0.8362 -1.0035
  821MOL0     C10743  11.594  10.240   4.358  0.9947  0.3056  0.3554
  821MOL0     C10744  11.551  10.361   4.275 -0.6837 -0.1333 -0.4162
  821MOL0    Cl10745  11.381  10.363   4.229 -0.3848  0.4417 -0.2705
  821MOL0     C10746  11.588   9.629   5.160  0.8601  0.5912 -0.8639
  821MOL0     C10747  11.569   9.575   5.286 -0.8801 -0.5685 -0.7850
  821MOL0     O10748  11.733   9.489   5.523 -0.5754 -0.3045  0.1710
  821MOL0     C10749  11.540   9.553   5.804 -0.1909 -0.6174 -0.0535
  821MOL0     C10750  11.502   9.494   5.921 -0.5788  0.6589 -0.2087
  821MOL0     N10751  11.077   9.022   6.587  0.1292  0.1549 -0.2172
  821MOL0     N10752  11.014   8.914   6.589  0.1372 -0.1689 -0.2495
  821MOL0     C10753  11.267   7.741   6.575 -0.5441  0.4412  0.7738
  821MOL0     C10754  11.299   7.658   6.681 -0.1909  1.1393 -0.7563
  821MOL0     C10755  11.180   7.397   7.055  0.2773  0.1179  0.3499
  821MOL0     C10756  11.153   7.257   7.068 -1.0051  0.6042 -0.6940
  821MOL0     C10757  11.201   7.198   7.179 -1.3037 -0.2961  0.1001
  821MOL0     C10758  11.286   7.261   7.274  0.1959  0.4354 -0.3082
  821MOL0     O10759  11.335   7.174   7.378  0.8343 -0.4996 -0.1522
  821MOL0     C10760  11.409   7.238   7.486  0.1669  0.1386 -0.3392
  821MOL0     C10761  11.305   7.299   7.585 -0.1619  1.0439  0.6301
  821MOL0     C10762  11.194   7.203   7.625 -0.9306  0.2184 -0.4040
  821MOL0     C10763  11.152   7.213   7.766  0.4011  0.3097  0.1676
  821MOL0     C10764  11.253   7.197   7.867  0.6970 -0.7357  0.2849
  821MOL0     C10765  11.348   7.164   7.935  0.9821 -0.4732  0.0084
  821MOL0     C10766  11.320   7.393   7.260  0.1208  0.5908  0.1132
  821MOL0     C10767  11.270   7.460   7.148  0.3722 -0.4355  0.9024
  821MOL0     H10768  11.034   7.722   6.878  2.3819 -2.2657  2.7119
  821MOL0     H10769  10.990   7.883   6.697 -0.1889 -0.3530  1.4645
  821MOL0     H10770  11.024   7.822   6.347  3.4062  1.1316 -0.0810
  821MOL0     H10771  10.923   7.910   6.465 -2.4739 -0.9420 -1.1026
  821MOL0     H10772  11.108   8.031   6.254  1.1847  2.0860  0.3231
  821MOL0     H10773  10.929   8.044   6.249 -0.5790  0.1559 -0.8616
  821MOL0     H10774  10.940   8.176   6.462  1.5280 -0.5001  1.0902
  821MOL0     H10775  11.119   8.160   6.447  1.2012  3.6160 -0.6544
  821MOL0     H10776  11.098   8.255   6.212  1.3622 -3.5058  2.7931
  821MOL0     H10777  10.936   8.297   6.251 -0.1569  1.0778  0.4173
  821MOL0     H10778  11.201   8.396   6.348  1.0985  3.0876  0.2224
  821MOL0     H10779  11.049   8.490   6.311 -1.0744 -1.8104 -1.0014
  821MOL0     H10780  10.952   8.412   6.522  1.0247 -0.8829  2.8272
  821MOL0     H10781  11.109   8.361   6.574  1.3874  1.2336 -0.3248
  821MOL0     H10782  11.038   8.564   6.664 -0.2828 -0.3660  0.0745
  821MOL0     H10783  11.198   8.584   6.587  1.0549 -3.1818  0.2364
  821MOL0     H10784  10.928   8.691   6.501 -0.0642  4.0940  1.5701
  821MOL0     H10785  11.047   8.687   6.374 -1.0107 -1.4797 -0.3069
  821MOL0     H10786  11.273   8.829   6.410  1.9104 -3.0925  4.7742
  821MOL0     H10787  11.229   9.219   6.492 -1.5689 -1.2787 -0.1554
  821MOL0     H10788  11.379   9.118   6.514  2.7727  0.8492 -4.1140
  821MOL0     H10789  11.188   9.174   6.273 -1.3364 -1.5512  0.4194
  821MOL0     H10790  11.292   9.026   6.264  1.1197  1.7778 -3.6876
  821MOL0     H10791  11.494   9.160   6.282  2.3431  4.5046 -0.0879
  821MOL0     H10792  11.400   9.310   6.297  2.1408 -0.1723 -0.1761
  821MOL0     H10793  11.315   9.236   6.041  0.9075  2.8905 -0.2151
  821MOL0     H10794  11.442   9.116   6.071  4.3516  1.0895  0.3914
  821MOL0     H10795  11.578   9.168   5.885 -2.8202 -0.7546 -0.4252
  821MOL0     H10796  11.626   9.118   5.654  1.9316 -1.5271 -0.3420
  821MOL0     H10797  11.613   9.233   5.530  1.7540 -0.1688 -1.3199
  821MOL0     H10798  11.766   9.225   5.634 -0.3126 -0.9833  1.5310
  821MOL0     H10799  11.533   9.871   5.448  1.0753  0.7074 -0.4492
  821MOL0     H10800  11.571   9.963   5.232 -1.6178 -0.1166 -1.6458
  821MOL0     H10801  11.577   9.693   4.848  2.3582  1.9551 -0.1522
  821MOL0     H10802  11.439   9.680   4.961  0.2967 -0.9966 -0.9967
  821MOL0     H10803  11.388   9.783   4.742  0.9653 -3.5425  1.3794
  821MOL0     H10804  11.351   9.887   4.883  1.5449 -1.8008  3.2135
  821MOL0     H10805  11.609   9.893   4.733 -0.7171 -3.6798  2.2919
  821MOL0     H10806  11.543  10.030   4.842 -0.2604 -1.1362  0.5604
  821MOL0     H10807  11.449   9.962   4.571  3.1495 -1.4274  0.5442
  821MOL0     H10808  11.369  10.077   4.671  0.1575 -2.4984  1.6038
  821MOL0     H10809  11.652  10.096   4.548 -0.7509 -3.7223 -0.4575
  821MOL0     H10810  11.585  10.202   4.671  2.9884 -2.0110  1.1492
  821MOL0     H10811  11.401  10.175   4.435 -1.3373  0.5462  2.4305
  821MOL0     H10812  11.478  10.325   4.500  0.8030  0.3434  1.3381
  821MOL0     H10813  11.599  10.152   4.294  1.9719 -1.7522  3.0642
  821MOL0     H10814  11.693  10.252   4.402  0.8913 -1.3039  1.0988
  821MOL0     H10815  11.620  10.361   4.190  0.5625  0.1021  0.5633
  821MOL0     H10816  11.573  10.449   4.337 -0.8022  0.2374 -0.8979
  821MOL0     H10817  11.588   9.564   5.073 -3.2050  1.4250 -1.6773
  821MOL0     H10818  11.578   9.468   5.304  2.5257 -0.3198 -0.4232
  821MOL0     H10819  11.534   9.661   5.790 -0.0344 -0.4745  0.9081
  821MOL0     H10820  11.475   9.565   5.998  0.0527 -1.1384  1.7670
  821MOL0     H10821  11.328   7.749   6.486  0.4478 -0.4107  1.3602
  821MOL0     H10822  11.390   7.599   6.668 -1.3032 -0.4345 -1.7576
  821MOL0     H10823  11.093   7.201   6.997 -1.8725 -0.2438  0.6844
  821MOL0     H10824  11.190   7.090   7.186 -0.8624 -0.4440 -1.2529
  821MOL0     H10825  11.461   7.168   7.551  0.9236  0.6986 -0.3274
  821MOL0     H10826  11.488   7.312   7.475 -3.1563  4.5923  2.4058
  821MOL0     H10827  11.253   7.383   7.538 -2.9579  0.4450  2.4119
  821MOL0     H10828  11.361   7.337   7.671 -1.7842  0.1692  2.1553
  821MOL0     H10829  11.214   7.099   7.601  0.5856  0.4562 -0.2355
  821MOL0     H10830  11.107   7.231   7.564 -0.8272 -2.8689 -2.1689
  821MOL0     H10831  11.073   7.143   7.791  0.9816 -0.2032  0.5985
  821MOL0     H10832  11.107   7.312   7.778 -3.5267 -1.1674 -1.0827
  821MOL0     H10833  11.427   7.143   8.004  1.8078 -0.2147 -0.8506
  821MOL0     H10834  11.372   7.459   7.330  1.4721 -1.2258  0.8869
  821MOL0     H10835  11.285   7.568   7.144  0.2935 -0.2049  4.1439
  822MOL0     O10836   1.275   0.076   9.743 -0.1592 -0.0134 -0.1641
  822MOL0     C10837   1.197   0.105   9.655 -0.0785  0.4313 -0.5905
  822MOL0     O10838   1.174   0.039   9.538 -0.3939  0.5304  0.3011
  822MOL0     C10839   1.267  -0.063   9.512  0.0133 -1.1098  0.5202
  822MOL0     C10840   1.301  -0.167   9.599  0.1549  0.0173 -0.0536
  822MOL0     C10841   1.382  -0.262   9.550 -0.2803 -0.2266 -0.3151
  822MOL0     C10842   1.409  -0.274   9.417 -0.4318  0.7732  0.0972
  822MOL0     O10843   1.485  -0.375   9.369  0.5760  0.3617 -0.1875
  822MOL0     C10844   1.601  -0.414   9.452  0.7011 -0.5362  0.9185
  822MOL0     C10845   1.708  -0.476   9.362  0.2143  0.6505  0.7398
  822MOL0     C10846   1.845  -0.501   9.429  0.1406 -0.0510 -0.0417
  822MOL0     C10847   1.832  -0.572   9.559 -1.2152 -0.0344  0.5804
  822MOL0     C10848   1.965  -0.630   9.622 -0.3858 -1.7943  0.1026
  822MOL0     C10849   2.086  -0.528   9.632 -0.2100 -0.0441  0.8538
  822MOL0     C10850   2.064  -0.411   9.733 -0.3208 -0.3820  1.0698
  822MOL0     C10851   2.162  -0.294   9.701  0.4170  0.0004  0.0572
  822MOL0     N10852   2.138  -0.246   9.573 -0.6516  0.5690  0.3161
  822MOL0     C10853   2.023  -0.204   9.520  0.3171  0.3081  0.0893
  822MOL0     C10854   2.063  -0.136   9.411 -0.2332 -0.5812 -0.0528
  822MOL0     C10855   1.970  -0.063   9.316 -0.3578  0.6318 -0.1745
  822MOL0     C10856   1.864  -0.160   9.238 -0.4173 -0.4826  0.2422
  822MOL0     C10857   1.798  -0.082   9.125  0.4086 -0.0798  0.7758
  822MOL0     C10858   1.686   0.004   9.167  0.1901 -0.6445 -0.3192
  822MOL0     O10859   1.640   0.102   9.074  0.0713 -0.2165  1.1264
  822MOL0     C10860   1.599   0.227   9.103 -0.0078  0.2438 -0.3763
  822MOL0     C10861   1.580   0.308   8.994  0.2025  0.3272  0.2475
  822MOL0     C10862   1.532   0.433   9.015  0.3125 -0.3666  0.0703
  822MOL0     C10863   1.526   0.524   8.888 -0.8187  1.0470  0.0112
  822MOL0     C10864   1.479   0.473   9.144  0.7376  0.7570  0.0446
  822MOL0     C10865   1.405   0.599   9.180  0.4786 -0.9168  0.7311
  822MOL0     O10866   1.358   0.616   9.305  0.4135  0.4680 -0.0075
  822MOL0     C10867   1.282   0.729   9.330 -0.4987 -1.5156  0.7543
  822MOL0     C10868   1.351   0.856   9.337  0.8548 -0.1716 -0.1183
  822MOL0     C10869   1.276   0.978   9.353 -0.4435 -0.7149  0.2498
  822MOL0     C10870   1.137   0.971   9.363 -0.6370 -0.6141  0.1001
  822MOL0     O10871   1.063   1.084   9.375  0.4812 -0.2988 -0.8521
  822MOL0     C10872   1.119   1.211   9.328 -0.3020 -0.0161 -0.3223
  822MOL0     C10873   1.014   1.321   9.347 -0.7738  0.0238  1.2301
  822MOL0     C10874   0.889   1.287   9.257  0.1938 -0.2133 -0.9882
  822MOL0     C10875   0.777   1.386   9.295  0.0182 -0.3773  0.0335
  822MOL0     C10876   0.641   1.344   9.237 -0.6927 -1.0511 -1.1696
  822MOL0     C10877   0.518   1.406   9.307 -0.0124 -0.2755 -0.3649
  822MOL0     C10878   0.389   1.420   9.222  0.7440  0.7498  1.3744
  822MOL0     C10879   0.280   1.496   9.291 -0.1998  1.4231  1.2334
  822MOL0    Cl10880   0.215   1.422   9.437  0.0519  0.4229 -0.3030
  822MOL0     C10881   1.068   0.851   9.347 -0.4568 -0.5402  0.2029
  822MOL0     C10882   1.145   0.732   9.343  0.3475  0.4915 -0.0254
  822MOL0     O10883   1.403   0.683   9.093 -0.5314 -0.0889  0.0470
  822MOL0     C10884   1.488   0.385   9.250  0.9062  1.1311 -0.0311
  822MOL0     C10885   1.554   0.263   9.234 -0.1358  0.6140 -0.1850
  822MOL0     N10886   2.199  -0.146   9.385  0.3105 -0.2079 -0.1159
  822MOL0     N10887   2.239  -0.206   9.494 -0.4526  0.2406 -0.3937
  822MOL0     C10888   1.362  -0.183   9.326  0.2549 -1.2129 -0.6948
  822MOL0     C10889   1.307  -0.065   9.376  0.2388  1.6129 -0.0629
  822MOL0     C10890   1.110   0.217   9.688 -0.7927 -0.1696 -0.5672
  822MOL0     C10891   1.031   0.266   9.585 -0.3787 -0.8234 -0.3216
  822MOL0     C10892   0.949   0.380   9.604 -0.8109 -0.1303 -0.7529
  822MOL0     C10893   0.929   0.438   9.731  0.1341 -0.4348  0.2982
  822MOL0     O10894   0.853   0.548   9.754 -0.1596  0.4150 -0.2637
  822MOL0     C10895   0.747   0.573   9.667  0.2412 -1.0435 -0.2755
  822MOL0     C10896   0.619   0.628   9.733  0.5003  0.1823  0.8097
  822MOL0     C10897   0.663   0.745   9.812 -0.1892 -0.3470  0.6587
  822MOL0     C10898   0.539   0.809   9.869 -0.0148  0.5661  0.4447
  822MOL0     C10899   0.568   0.943   9.915 -0.0976  0.4720 -0.5886
  822MOL0     C10900   0.611   1.054   9.945 -1.1285 -0.4613 -0.0399
  822MOL0     C10901   1.010   0.381   9.833 -0.8629 -0.5216  0.7399
  822MOL0     C10902   1.104   0.278   9.813 -0.7013  0.1172  0.4684
  822MOL0     H10903   1.261  -0.172   9.700  1.6480  0.6297  0.5976
  822MOL0     H10904   1.428  -0.320   9.630  0.5445 -0.1966 -0.7565
  822MOL0     H10905   1.634  -0.322   9.503  1.8280  0.1633 -0.9786
  822MOL0     H10906   1.565  -0.486   9.526 -0.0046 -3.7749 -2.3118
  822MOL0     H10907   1.656  -0.565   9.325 -0.9583 -0.2293  4.0794
  822MOL0     H10908   1.722  -0.416   9.272  4.2315 -0.8487  0.1267
  822MOL0     H10909   1.903  -0.573   9.370 -1.0188 -3.7646  2.9115
  822MOL0     H10910   1.898  -0.407   9.442  0.9894 -0.4186 -0.7041
  822MOL0     H10911   1.797  -0.494   9.627 -2.6731 -0.0155 -0.1617
  822MOL0     H10912   1.757  -0.651   9.558  0.5653 -1.8292 -1.5343
  822MOL0     H10913   1.931  -0.675   9.716 -0.3811 -0.0395  0.9970
  822MOL0     H10914   2.001  -0.711   9.559  1.4151 -0.9973  0.0463
  822MOL0     H10915   2.171  -0.594   9.650 -0.0188  0.3057  1.2430
  822MOL0     H10916   2.112  -0.483   9.535  4.4357 -2.5447  0.6637
  822MOL0     H10917   1.963  -0.374   9.715  1.2660  2.7535 -2.8830
  822MOL0     H10918   2.090  -0.444   9.835 -1.6877 -1.4624  1.0995
  822MOL0     H10919   2.270  -0.311   9.708  0.0569 -1.8941  2.7265
  822MOL0     H10920   2.122  -0.226   9.777 -3.0146 -2.1052  0.3031
  822MOL0     H10921   1.924  -0.205   9.565 -0.3219 -0.7959 -1.2638
  822MOL0     H10922   1.915   0.016   9.368  0.5118  2.9793 -2.5814
  822MOL0     H10923   2.036  -0.014   9.244  2.3206 -0.5654  1.2805
  822MOL0     H10924   1.784  -0.210   9.293 -3.5836  1.3663 -2.3100
  822MOL0     H10925   1.918  -0.242   9.190 -0.9759 -0.9840  0.4702
  822MOL0     H10926   1.758  -0.162   9.062 -1.8711  0.9379  0.8332
  822MOL0     H10927   1.863  -0.026   9.057  0.4379 -1.6419 -0.5351
  822MOL0     H10928   1.721   0.037   9.265 -0.1995  2.1277 -1.0512
  822MOL0     H10929   1.604  -0.065   9.191  2.5885 -2.9211  2.0914
  822MOL0     H10930   1.625   0.285   8.898  2.8933 -3.9646  2.2185
  822MOL0     H10931   1.420   0.553   8.886 -1.0078  0.4333  0.8419
  822MOL0     H10932   1.588   0.614   8.900  1.6625 -0.2177 -2.3080
  822MOL0     H10933   1.544   0.465   8.798 -0.4841 -0.0563  0.7781
  822MOL0     H10934   1.459   0.853   9.335  0.8985  0.8457  0.0204
  822MOL0     H10935   1.324   1.076   9.356 -0.4331 -0.5116 -2.9443
  822MOL0     H10936   1.199   1.245   9.395 -1.2864  2.6983 -0.3731
  822MOL0     H10937   1.160   1.220   9.227  1.4488  2.8189  0.5022
  822MOL0     H10938   0.977   1.324   9.450 -2.3529 -0.8226  0.7136
  822MOL0     H10939   1.061   1.416   9.321  1.1488 -0.3005  3.2114
  822MOL0     H10940   0.858   1.183   9.275  3.0655 -1.1073 -0.5880
  822MOL0     H10941   0.918   1.289   9.152 -1.6939  0.5548 -1.5318
  822MOL0     H10942   0.782   1.384   9.404  3.1277  0.0206 -0.0091
  822MOL0     H10943   0.812   1.482   9.257  5.4278 -2.5612 -1.4305
  822MOL0     H10944   0.628   1.235   9.239 -1.2989 -0.9837 -1.3199
  822MOL0     H10945   0.637   1.364   9.130  3.6445  1.6417 -1.0690
  822MOL0     H10946   0.504   1.355   9.403 -0.0520 -0.9191 -0.7085
  822MOL0     H10947   0.537   1.510   9.338 -3.7366  0.4328 -0.0207
  822MOL0     H10948   0.365   1.318   9.191  1.1596  0.7539  1.0253
  822MOL0     H10949   0.409   1.466   9.124  0.8173 -0.9756  0.5491
  822MOL0     H10950   0.196   1.519   9.225  0.7849  2.6570  0.3620
  822MOL0     H10951   0.327   1.592   9.315  0.8772  0.8484  1.4884
  822MOL0     H10952   0.960   0.848   9.347 -0.6826  2.4419  3.0972
  822MOL0     H10953   1.101   0.632   9.336 -0.2392  0.8858 -3.2328
  822MOL0     H10954   1.462   0.407   9.353 -1.2965  1.7198 -0.6776
  822MOL0     H10955   1.553   0.186   9.310  0.3345  1.4200  0.6505
  822MOL0     H10956   1.373  -0.197   9.219 -1.4691  0.7872 -1.1972
  822MOL0     H10957   1.292   0.023   9.313 -0.4119 -0.3475 -2.8215
  822MOL0     H10958   1.031   0.231   9.482 -2.8094 -0.3490 -0.5498
  822MOL0     H10959   0.904   0.414   9.512  1.4314 -2.1129 -2.7230
  822MOL0     H10960   0.803   0.638   9.599  1.7120  0.0630  1.9068
  822MOL0     H10961   0.722   0.483   9.610 -0.1732 -0.1253 -1.6045
  822MOL0     H10962   0.577   0.559   9.807  0.2589  2.5756  3.0461
  822MOL0     H10963   0.542   0.653   9.659  1.2202 -1.1487 -0.4463
  822MOL0     H10964   0.722   0.812   9.749  1.0636 -2.0583 -0.0963
  822MOL0     H10965   0.720   0.718   9.901 -0.8700  1.8202  1.8077
  822MOL0     H10966   0.496   0.756   9.954  0.0746 -0.3823 -0.0935
  822MOL0     H10967   0.454   0.812   9.799 -0.6442  0.0389  1.1719
  822MOL0     H10968   0.668   1.144   9.955 -1.1145  0.4677 -5.4395
  822MOL0     H10969   1.015   0.429   9.930  2.0564  1.2213 -0.1385
  822MOL0     H10970   1.175   0.265   9.895  0.7473  2.0880 -0.3953
  823MOL0     O10971   7.388   8.402  11.175  0.8319  0.0605 -0.5603
  823MOL0     C10972   7.354   8.448  11.282  0.1785 -0.2942 -0.5614
  823MOL0     O10973   7.433   8.515  11.375 -0.2683  0.3944  0.1826
  823MOL0     C10974   7.560   8.561  11.345  0.0606  0.6275  0.2990
  823MOL0     C10975   7.664   8.469  11.342 -0.6094  0.3460  0.6967
  823MOL0     C10976   7.794   8.513  11.307  0.3925 -0.4571 -0.4512
  823MOL0     C10977   7.830   8.650  11.280  0.3802  2.0369 -0.4228
  823MOL0     O10978   7.954   8.685  11.253 -0.4217  0.3967  0.5594
  823MOL0     C10979   8.070   8.604  11.263  0.6622 -0.4774 -0.5475
  823MOL0     C10980   8.114   8.596  11.411 -0.8236 -0.4608  0.6855
  823MOL0     C10981   8.222   8.497  11.446  0.1667  0.6154  0.2033
  823MOL0     C10982   8.369   8.528  11.393 -0.7820 -0.5997 -0.4380
  823MOL0     C10983   8.462   8.408  11.433 -0.2440  1.1308  0.4913
  823MOL0     C10984   8.448   8.309  11.321  0.8706  0.2546 -0.7948
  823MOL0     C10985   8.522   8.183  11.335 -0.6559  1.1125  0.3888
  823MOL0     C10986   8.471   8.096  11.458  0.1101  1.2414 -0.0980
  823MOL0     N10987   8.575   8.008  11.516 -0.2805  0.9252 -0.3644
  823MOL0     C10988   8.606   7.882  11.463 -0.4761  0.1993 -0.3892
  823MOL0     C10989   8.703   7.834  11.543  0.6223  0.4073 -0.4458
  823MOL0     C10990   8.799   7.719  11.521  0.3254 -0.2927 -0.3783
  823MOL0     C10991   8.879   7.743  11.393  1.0559 -0.4097 -0.2121
  823MOL0     C10992   9.023   7.693  11.408  1.0202 -0.2074  0.8735
  823MOL0     C10993   9.104   7.728  11.287 -0.3473 -0.0135 -0.6179
  823MOL0     O10994   9.039   7.687  11.164  0.3973 -0.1264  0.3604
  823MOL0     C10995   9.076   7.580  11.092 -0.5864  0.1736 -0.4942
  823MOL0     C10996   9.209   7.537  11.092  0.5376 -0.3233  0.8536
  823MOL0     C10997   9.243   7.418  11.019  0.1453 -0.5957  0.2312
  823MOL0     C10998   9.398   7.378  11.026  0.2884  0.6730  0.1897
  823MOL0     C10999   9.138   7.345  10.955 -0.1663  0.2551 -1.2830
  823MOL0     C11000   9.146   7.223  10.871  0.0774  0.7514  2.1155
  823MOL0     O11001   9.038   7.193  10.792  0.0270 -0.0735 -0.1874
  823MOL0     C11002   9.036   7.090  10.697 -0.0783  0.6109 -0.4596
  823MOL0     C11003   9.000   6.958  10.736  1.1986  0.1499  0.9728
  823MOL0     C11004   9.014   6.851  10.636 -0.3012 -0.9820  0.6185
  823MOL0     C11005   9.047   6.882  10.502 -0.5612 -0.2280 -0.9049
  823MOL0     O11006   9.070   6.784  10.409  0.2520 -0.2252  0.0590
  823MOL0     C11007   8.956   6.753  10.330  0.3332 -0.9215  0.6611
  823MOL0     C11008   8.958   6.623  10.248 -0.2292 -0.1088  0.4103
  823MOL0     C11009   9.051   6.619  10.122 -0.0797 -1.2867 -0.3550
  823MOL0     C11010   9.022   6.736  10.029 -0.2532  0.2236  0.3309
  823MOL0     C11011   9.106   6.724   9.893 -0.9517  0.0416 -0.2971
  823MOL0     C11012   9.063   6.822   9.784  0.7661 -0.1218 -0.0499
  823MOL0     C11013   9.115   6.967   9.814 -0.6306  0.3397 -0.1736
  823MOL0     C11014   9.080   7.050   9.687  0.1170 -0.0410  0.0530
  823MOL0    Cl11015   9.167   6.970   9.562  0.2115 -0.2830 -0.1320
  823MOL0     C11016   9.068   7.014  10.461 -0.8953 -1.3641 -0.0563
  823MOL0     C11017   9.065   7.115  10.560 -0.8370  0.2338 -0.3881
  823MOL0     O11018   9.238   7.146  10.883 -0.1697 -0.3587 -0.2901
  823MOL0     C11019   9.001   7.391  10.965 -1.5352  0.8225  0.0354
  823MOL0     C11020   8.972   7.498  11.045  0.4754  0.7138  0.5925
  823MOL0     N11021   8.709   7.919  11.653  0.6716  0.6603 -0.6060
  823MOL0     N11022   8.629   8.021  11.634 -0.5880  0.7197  0.1130
  823MOL0     C11023   7.721   8.741  11.303 -0.1546 -0.0502  0.7887
  823MOL0     C11024   7.594   8.699  11.331 -0.4398 -0.8097  0.1599
  823MOL0     C11025   7.224   8.410  11.339 -1.0717  0.3528 -0.2968
  823MOL0     C11026   7.181   8.472  11.459 -0.0392 -1.0022  0.0836
  823MOL0     C11027   7.050   8.455  11.501  0.3614  0.9621 -0.7385
  823MOL0     C11028   6.966   8.365  11.447 -0.1706  0.4827 -0.0731
  823MOL0     O11029   6.845   8.369  11.511 -0.5870 -0.3833 -0.5647
  823MOL0     C11030   6.743   8.268  11.498  0.0899  0.1691  0.6330
  823MOL0     C11031   6.618   8.349  11.559 -0.8468 -0.2165  0.0027
  823MOL0     C11032   6.493   8.268  11.557 -0.7265 -0.4362 -0.5041
  823MOL0     C11033   6.430   8.271  11.415 -1.3045  0.3178 -0.7235
  823MOL0     C11034   6.301   8.191  11.412  0.3471 -0.2666  0.5504
  823MOL0     C11035   6.201   8.128  11.428 -0.2128  0.5982  0.3544
  823MOL0     C11036   7.004   8.299  11.335 -0.1464 -0.6458  0.5337
  823MOL0     C11037   7.135   8.313  11.279 -0.9124 -0.4724 -0.0504
  823MOL0     H11038   7.642   8.363  11.355 -1.4777  0.5764  1.1944
  823MOL0     H11039   7.869   8.436  11.300 -0.1304 -1.2087  1.6086
  823MOL0     H11040   8.042   8.504  11.227 -2.6864 -0.5872  1.9033
  823MOL0     H11041   8.145   8.654  11.201 -1.6180  1.7841 -1.6361
  823MOL0     H11042   8.136   8.693  11.455 -0.6236  0.1334 -0.6896
  823MOL0     H11043   8.034   8.545  11.467  1.2271 -0.8406  3.4853
  823MOL0     H11044   8.230   8.489  11.555  0.6600 -2.8027  0.0087
  823MOL0     H11045   8.191   8.397  11.417  0.5199  1.1412 -2.2367
  823MOL0     H11046   8.375   8.557  11.288  0.1021  0.6086 -0.0891
  823MOL0     H11047   8.400   8.614  11.453 -0.2403 -3.9416  4.6717
  823MOL0     H11048   8.567   8.437  11.428 -0.0016  0.1877 -0.1594
  823MOL0     H11049   8.431   8.371  11.531 -2.0860  0.8882 -0.1255
  823MOL0     H11050   8.343   8.279  11.316  0.9072  0.2477 -1.7307
  823MOL0     H11051   8.469   8.351  11.222 -1.1060  2.6881 -0.2777
  823MOL0     H11052   8.517   8.115  11.249 -1.3487  0.0004  1.2897
  823MOL0     H11053   8.630   8.196  11.353 -0.4522 -2.6874  3.3537
  823MOL0     H11054   8.385   8.036  11.427  0.0040  1.0832  0.4910
  823MOL0     H11055   8.441   8.166  11.536 -2.0678  2.0661 -1.5899
  823MOL0     H11056   8.579   7.841  11.367  0.2604 -3.6574  0.8802
  823MOL0     H11057   8.861   7.713  11.611 -1.0718 -1.3902  0.5694
  823MOL0     H11058   8.746   7.623  11.520 -1.5046  0.6633 -0.0348
  823MOL0     H11059   8.872   7.849  11.369  1.8032  0.2857  2.2445
  823MOL0     H11060   8.826   7.676  11.325 -1.7149  0.4014  1.0115
  823MOL0     H11061   9.025   7.586  11.433  4.3976 -0.1111  1.4617
  823MOL0     H11062   9.073   7.743  11.491  0.6253  2.5832 -0.4818
  823MOL0     H11063   9.195   7.668  11.296 -2.0050 -2.3520  2.5934
  823MOL0     H11064   9.134   7.833  11.301 -0.5017 -0.3818  3.4461
  823MOL0     H11065   9.291   7.597  11.130  1.7730  0.2123 -2.3236
  823MOL0     H11066   9.405   7.271  11.005  0.5422  0.9275 -1.0955
  823MOL0     H11067   9.452   7.447  10.961 -0.5959 -2.4894 -4.2978
  823MOL0     H11068   9.422   7.384  11.133  1.4068  1.0642 -0.0675
  823MOL0     H11069   8.967   6.947  10.838 -0.4050  2.2663  0.7468
  823MOL0     H11070   8.985   6.750  10.663  1.6959 -1.5517  0.8216
  823MOL0     H11071   8.871   6.745  10.399 -1.2423 -0.9781 -1.1887
  823MOL0     H11072   8.921   6.833  10.264  0.9728 -0.6361  0.6589
  823MOL0     H11073   8.975   6.535  10.310 -5.0395 -1.2365  0.5210
  823MOL0     H11074   8.855   6.609  10.213  0.4936 -0.2384 -1.8435
  823MOL0     H11075   9.035   6.529  10.062  2.0251 -0.9651 -1.5257
  823MOL0     H11076   9.156   6.617  10.154 -0.0696  0.5319 -0.1923
  823MOL0     H11077   8.914   6.736  10.016 -0.4202  2.6949  1.2112
  823MOL0     H11078   9.045   6.835  10.069 -1.1357 -0.2798  2.2066
  823MOL0     H11079   9.085   6.623   9.857  0.5327 -0.1401 -0.7466
  823MOL0     H11080   9.215   6.732   9.899 -0.7402 -1.7602 -0.9613
  823MOL0     H11081   9.102   6.773   9.695 -1.0078  1.1966 -1.6372
  823MOL0     H11082   8.954   6.824   9.776  0.5464 -0.3520  2.1772
  823MOL0     H11083   9.224   6.969   9.822 -0.6947 -1.4263  2.0612
  823MOL0     H11084   9.067   7.011   9.902 -0.8598  0.3940 -0.3254
  823MOL0     H11085   9.115   7.153   9.689  3.0124 -0.7402 -3.4274
  823MOL0     H11086   8.974   7.032   9.664  0.1326 -1.0545  0.7089
  823MOL0     H11087   9.081   7.058  10.363  0.5938  3.7171  2.0893
  823MOL0     H11088   9.059   7.222  10.543 -3.9305  0.1295 -0.4920
  823MOL0     H11089   8.912   7.341  10.930  0.0132 -0.6388 -2.0415
  823MOL0     H11090   8.865   7.517  11.056 -0.3017  0.0727 -4.0338
  823MOL0     H11091   7.751   8.844  11.288 -4.9266  1.1983 -2.5843
  823MOL0     H11092   7.508   8.766  11.336 -1.3301 -1.9645  0.6338
  823MOL0     H11093   7.249   8.544  11.504  1.5046 -0.8742 -2.2445
  823MOL0     H11094   7.015   8.509  11.589 -0.1843 -1.1753  0.4199
  823MOL0     H11095   6.734   8.225  11.397  2.7511  0.2017  0.3180
  823MOL0     H11096   6.797   8.197  11.561  1.6595  1.2151  0.5363
  823MOL0     H11097   6.609   8.431  11.486  2.8294 -0.1166 -0.5188
  823MOL0     H11098   6.648   8.390  11.655  3.7647 -0.1910 -1.1965
  823MOL0     H11099   6.410   8.319  11.607  0.7335  1.6181 -0.0385
  823MOL0     H11100   6.494   8.165  11.593 -1.0505 -0.0917  0.5246
  823MOL0     H11101   6.493   8.221  11.341  2.5911  0.5888  2.0968
  823MOL0     H11102   6.423   8.374  11.379 -2.1240 -0.0397 -1.6301
  823MOL0     H11103   6.104   8.083  11.429 -0.9361  2.0500 -1.2233
  823MOL0     H11104   6.931   8.248  11.272 -0.5552 -0.4054  0.8133
  823MOL0     H11105   7.155   8.266  11.183 -3.2705 -1.1844 -0.2539
  824MOL0     O11106   5.905   0.618   7.201  0.7273  0.3243  0.3791
  824MOL0     C11107   5.788   0.659   7.203 -0.8572 -0.3658 -0.3411
  824MOL0     O11108   5.686   0.627   7.294 -0.4917 -0.2467 -0.0879
  824MOL0     C11109   5.712   0.541   7.394  0.7148  0.9510  0.3742
  824MOL0     C11110   5.630   0.538   7.506 -0.0467 -0.1479 -0.1220
  824MOL0     C11111   5.630   0.434   7.603 -0.5691 -0.4273 -0.5214
  824MOL0     C11112   5.720   0.321   7.573  0.4530 -0.6431  0.0785
  824MOL0     O11113   5.738   0.213   7.655  0.1150 -0.6376  0.2607
  824MOL0     C11114   5.636   0.167   7.753  0.4085  0.4608  0.3704
  824MOL0     C11115   5.527   0.088   7.685  0.8825  1.2200  0.4888
  824MOL0     C11116   5.576  -0.039   7.621 -0.7336 -0.1330 -0.2506
  824MOL0     C11117   5.458  -0.133   7.579  1.0651 -0.1667 -0.7533
  824MOL0     C11118   5.521  -0.249   7.506 -0.1421  0.9555  0.6434
  824MOL0     C11119   5.426  -0.338   7.419 -0.6065 -0.4088 -0.5753
  824MOL0     C11120   5.302  -0.387   7.496  0.0390  0.0238  0.5283
  824MOL0     C11121   5.210  -0.466   7.407  0.6742  0.4718  0.1372
  824MOL0     N11122   5.241  -0.606   7.408  0.2580 -0.7526  0.2759
  824MOL0     C11123   5.204  -0.685   7.516  1.2640  0.4643  0.7586
  824MOL0     C11124   5.257  -0.806   7.494 -0.3843  0.3764 -0.1554
  824MOL0     C11125   5.233  -0.925   7.579 -0.5896 -1.1215 -0.6808
  824MOL0     C11126   5.352  -0.953   7.675 -0.2215  0.2772 -0.1870
  824MOL0     C11127   5.370  -0.826   7.759  0.1939  0.1272  0.4408
  824MOL0     C11128   5.461  -0.864   7.876 -0.4380 -0.4351 -0.2368
  824MOL0     O11129   5.454  -0.769   7.985  0.0410 -0.4967 -0.6527
  824MOL0     C11130   5.499  -0.639   7.995 -0.6332  1.0718 -0.8339
  824MOL0     C11131   5.497  -0.572   8.125 -0.6525  0.3257  0.4358
  824MOL0     C11132   5.541  -0.440   8.138 -0.6869 -0.1637 -0.3341
  824MOL0     C11133   5.539  -0.381   8.283  0.3712 -0.0945 -0.0050
  824MOL0     C11134   5.575  -0.360   8.021 -0.1069 -0.2125  1.4712
  824MOL0     C11135   5.625  -0.217   8.025  0.4074  0.0000 -1.0125
  824MOL0     O11136   5.687  -0.177   8.135 -0.1420 -1.5094  0.3187
  824MOL0     C11137   5.742  -0.055   8.124 -0.5235 -0.4205 -0.2362
  824MOL0     C11138   5.849  -0.038   8.035 -0.3572  0.3419  0.1182
  824MOL0     C11139   5.929   0.082   8.038 -0.4978 -0.2151 -1.1717
  824MOL0     C11140   5.887   0.193   8.126 -0.0984 -0.3342 -0.2101
  824MOL0     O11141   5.957   0.310   8.134 -0.0780  0.4135  0.3615
  824MOL0     C11142   6.077   0.344   8.067  0.4533 -0.2608 -0.1232
  824MOL0     C11143   6.043   0.412   7.925  0.5640 -0.0264 -0.9649
  824MOL0     C11144   6.166   0.445   7.834  0.3412  0.9231 -0.3862
  824MOL0     C11145   6.285   0.513   7.915  0.2661 -0.6804  0.7777
  824MOL0     C11146   6.391   0.558   7.825  0.1672 -0.9841  0.2326
  824MOL0     C11147   6.507   0.461   7.808 -0.5347  0.4463  0.4966
  824MOL0     C11148   6.583   0.525   7.692 -0.5103  0.1596 -0.1112
  824MOL0     C11149   6.646   0.650   7.737 -0.4784 -0.7646  0.2561
  824MOL0    Cl11150   6.749   0.710   7.603  0.1602 -0.0877  0.0951
  824MOL0     C11151   5.775   0.171   8.217 -0.9242  0.5786  0.7124
  824MOL0     C11152   5.710   0.044   8.212  0.7837 -0.0181 -0.4785
  824MOL0     O11153   5.598  -0.147   7.925 -0.0398 -0.5626 -0.8674
  824MOL0     C11154   5.567  -0.424   7.893 -0.0406 -0.1126 -0.4291
  824MOL0     C11155   5.542  -0.556   7.888  0.6425  0.1823  0.6408
  824MOL0     N11156   5.322  -0.803   7.368  0.4201  0.0406 -0.1295
  824MOL0     N11157   5.330  -0.681   7.327 -0.1521 -0.7796  0.4231
  824MOL0     C11158   5.796   0.319   7.454 -0.5788  0.2353 -0.1136
  824MOL0     C11159   5.784   0.421   7.361  0.1860 -0.2048  0.4272
  824MOL0     C11160   5.763   0.772   7.119 -0.0107 -0.4798  0.6117
  824MOL0     C11161   5.844   0.805   7.006  0.1975  0.6692  0.8024
  824MOL0     C11162   5.828   0.918   6.931 -0.5300 -0.2721  0.8920
  824MOL0     C11163   5.720   1.006   6.970 -0.2514 -0.1723  0.1665
  824MOL0     O11164   5.675   1.112   6.886  0.4235  0.8166  0.1005
  824MOL0     C11165   5.605   1.063   6.779 -0.3429 -0.4899  0.7776
  824MOL0     C11166   5.455   1.033   6.794 -1.3908 -0.3662  1.0945
  824MOL0     C11167   5.393   0.991   6.649 -0.1319  0.2743 -0.4494
  824MOL0     C11168   5.393   1.119   6.550  0.4559  1.1470 -0.1243
  824MOL0     C11169   5.264   1.116   6.486 -0.1996 -0.5761 -0.2904
  824MOL0     C11170   5.172   1.117   6.413  0.7331 -0.3209  0.4194
  824MOL0     C11171   5.636   0.981   7.076 -0.3750 -0.4230 -0.0538
  824MOL0     C11172   5.656   0.860   7.147  0.1145  0.0293  0.1952
  824MOL0     H11173   5.554   0.615   7.516 -1.7578 -1.3879 -2.5106
  824MOL0     H11174   5.570   0.455   7.691 -0.4650 -1.2064 -0.2537
  824MOL0     H11175   5.682   0.105   7.831  1.7230 -1.4872 -1.8183
  824MOL0     H11176   5.587   0.248   7.808 -1.1014 -0.5784  0.6182
  824MOL0     H11177   5.447   0.074   7.758 -0.5059 -0.8246 -1.3214
  824MOL0     H11178   5.493   0.150   7.602  1.1156  0.0691 -0.4972
  824MOL0     H11179   5.631  -0.000   7.535  3.4089 -1.7384  1.4177
  824MOL0     H11180   5.651  -0.090   7.682 -0.1556  0.0305 -0.8127
  824MOL0     H11181   5.404  -0.170   7.667 -0.1882  0.8751 -1.0472
  824MOL0     H11182   5.389  -0.073   7.519  1.0432 -0.8014 -1.3740
  824MOL0     H11183   5.602  -0.210   7.444 -0.1032 -0.0769  0.0157
  824MOL0     H11184   5.568  -0.318   7.577 -1.2341  1.7475  2.1877
  824MOL0     H11185   5.382  -0.262   7.354 -3.1071  1.4375  2.9430
  824MOL0     H11186   5.489  -0.414   7.372  4.8015  1.5916  2.5317
  824MOL0     H11187   5.336  -0.448   7.580  0.2347  0.0519  0.4688
  824MOL0     H11188   5.254  -0.301   7.543  2.1352  0.9652  1.0676
  824MOL0     H11189   5.195  -0.432   7.305  0.3408 -0.2052 -0.0447
  824MOL0     H11190   5.111  -0.457   7.453  0.2806 -1.9928 -0.0960
  824MOL0     H11191   5.134  -0.676   7.598  0.3668 -2.3554  0.3916
  824MOL0     H11192   5.148  -0.903   7.644  0.6775  1.6781  0.2189
  824MOL0     H11193   5.220  -1.018   7.524  2.9831 -2.0470 -0.1918
  824MOL0     H11194   5.444  -0.990   7.627 -1.9215 -2.1468 -1.8170
  824MOL0     H11195   5.312  -1.028   7.744  0.4104  3.1009  3.5669
  824MOL0     H11196   5.276  -0.777   7.785 -0.8865 -0.9774 -1.2065
  824MOL0     H11197   5.430  -0.755   7.701 -0.9021  0.7673  0.0649
  824MOL0     H11198   5.562  -0.889   7.840 -0.1569  0.0715  0.1825
  824MOL0     H11199   5.435  -0.963   7.915  0.1954 -0.2710  0.6455
  824MOL0     H11200   5.454  -0.603   8.220  1.9541  2.5195  2.5437
  824MOL0     H11201   5.637  -0.337   8.303 -0.1676  0.4545  1.5833
  824MOL0     H11202   5.458  -0.310   8.301 -1.5263 -2.2303  0.3587
  824MOL0     H11203   5.527  -0.469   8.347  3.1552  0.0227  0.8050
  824MOL0     H11204   5.880  -0.114   7.964  1.3414  1.7440 -0.7206
  824MOL0     H11205   6.007   0.092   7.963 -0.5618  2.4990 -0.9974
  824MOL0     H11206   6.123   0.425   8.125  0.4568  0.8736 -1.6560
  824MOL0     H11207   6.135   0.252   8.073 -3.7360 -3.1561  0.0586
  824MOL0     H11208   5.975   0.342   7.876  0.6514 -2.3349  1.8868
  824MOL0     H11209   5.988   0.505   7.942  3.0329  1.1147  1.4354
  824MOL0     H11210   6.132   0.511   7.754  1.6960  1.1857 -0.7596
  824MOL0     H11211   6.205   0.354   7.787  4.6487  3.1736 -1.6597
  824MOL0     H11212   6.252   0.605   7.964  2.3504  0.9180 -0.6408
  824MOL0     H11213   6.326   0.443   7.989 -0.4388 -1.3034  0.5828
  824MOL0     H11214   6.441   0.643   7.872 -0.8333  1.1526 -2.3512
  824MOL0     H11215   6.343   0.567   7.727 -0.8951 -1.9797  0.6339
  824MOL0     H11216   6.569   0.450   7.897 -0.4562 -3.0575  0.1228
  824MOL0     H11217   6.476   0.359   7.784  1.6366  0.1907 -1.6176
  824MOL0     H11218   6.512   0.544   7.612 -1.9122  2.4817  1.5726
  824MOL0     H11219   6.648   0.448   7.649 -1.4978 -0.1664 -1.0631
  824MOL0     H11220   6.709   0.623   7.822  3.0819  1.2551 -1.5036
  824MOL0     H11221   6.587   0.735   7.772  0.2187 -0.2816  0.2890
  824MOL0     H11222   5.753   0.247   8.291  1.9782  1.7537  0.4942
  824MOL0     H11223   5.620   0.019   8.267  0.6383  3.2806  1.0285
  824MOL0     H11224   5.598  -0.362   7.810 -2.7792  0.3571 -1.1780
  824MOL0     H11225   5.546  -0.618   7.799 -1.0354 -0.6841  1.1237
  824MOL0     H11226   5.853   0.232   7.424  3.5898  2.0281  1.7806
  824MOL0     H11227   5.847   0.417   7.272 -1.5721  0.5074 -0.9035
  824MOL0     H11228   5.915   0.730   6.971 -2.3137 -2.3366  1.6707
  824MOL0     H11229   5.878   0.944   6.838  0.0800  1.9212  1.7465
  824MOL0     H11230   5.617   1.144   6.707 -0.2184 -0.5280  0.7549
  824MOL0     H11231   5.652   0.982   6.723 -1.7499 -0.7954  0.0017
  824MOL0     H11232   5.409   1.121   6.841 -1.4737  0.4932 -0.5355
  824MOL0     H11233   5.453   0.951   6.867  1.4667 -0.4983  1.1222
  824MOL0     H11234   5.290   0.956   6.667 -1.0737  2.7435 -0.6540
  824MOL0     H11235   5.449   0.911   6.600  0.1135  1.0241 -1.4150
  824MOL0     H11236   5.479   1.103   6.485  0.1850 -3.9217  0.3989
  824MOL0     H11237   5.412   1.214   6.601 -1.3027  2.2670 -1.4005
  824MOL0     H11238   5.103   1.116   6.331  0.5590 -1.1984  0.5674
  824MOL0     H11239   5.564   1.059   7.102  2.0981  1.5534  1.4532
  824MOL0     H11240   5.575   0.840   7.218  0.3630  0.7974  0.7050
  825MOL0     O11241   5.580   6.449  11.376 -0.5696 -0.9154  0.3130
  825MOL0     C11242   5.655   6.545  11.407  0.3868  0.5739  0.5715
  825MOL0     O11243   5.741   6.610  11.330 -0.2968 -0.0950  0.2160
  825MOL0     C11244   5.783   6.574  11.203  0.0170  0.4914 -0.5606
  825MOL0     C11245   5.882   6.648  11.137 -0.3797  0.2873  1.1886
  825MOL0     C11246   5.926   6.615  11.001  0.8219  0.0501 -0.3646
  825MOL0     C11247   5.869   6.507  10.933  0.5273  0.1970  0.6272
  825MOL0     O11248   5.906   6.481  10.803  0.2046  0.1759  0.6148
  825MOL0     C11249   5.859   6.366  10.733  0.9391  0.3839 -0.5760
  825MOL0     C11250   5.927   6.231  10.764  1.1066 -0.3621  0.5370
  825MOL0     C11251   5.894   6.109  10.686  0.6883 -0.4227 -0.4811
  825MOL0     C11252   5.932   6.107  10.538 -0.8206 -0.2451 -0.1014
  825MOL0     C11253   5.962   5.965  10.476  0.4540  0.2938 -0.0349
  825MOL0     C11254   5.946   5.962  10.321 -0.0949 -1.1602 -0.0860
  825MOL0     C11255   5.950   5.831  10.257  0.0268 -0.2973  0.3245
  825MOL0     C11256   5.917   5.830  10.102 -0.5482 -0.4823 -1.0554
  825MOL0     N11257   5.877   5.694  10.059  0.0344  0.0837 -0.2294
  825MOL0     C11258   5.936   5.581  10.090 -0.0335  0.4945 -0.1016
  825MOL0     C11259   5.862   5.485  10.033  0.6450  0.4392  0.0711
  825MOL0     C11260   5.901   5.338  10.022 -0.5017  0.2039  0.2107
  825MOL0     C11261   5.911   5.279   9.883 -0.4472  0.4683  0.1009
  825MOL0     C11262   5.988   5.377   9.786 -0.4807  0.5710 -0.1766
  825MOL0     C11263   6.064   5.298   9.669 -0.9249 -0.3016 -0.5622
  825MOL0     O11264   6.120   5.395   9.572  0.8003  0.5084 -0.3525
  825MOL0     C11265   6.127   5.356   9.436 -0.8710  0.0457  0.6648
  825MOL0     C11266   6.130   5.223   9.391  0.0989  0.4634  0.2823
  825MOL0     C11267   6.144   5.188   9.256  0.5613  0.9367  0.5144
  825MOL0     C11268   6.148   5.037   9.222 -0.9011  0.0965 -0.1164
  825MOL0     C11269   6.129   5.288   9.154  0.0328  0.2603 -0.2679
  825MOL0     C11270   6.126   5.260   9.010  0.4308 -0.8652 -0.4733
  825MOL0     O11271   6.075   5.355   8.940  0.2792 -0.8581 -0.1959
  825MOL0     C11272   6.071   5.335   8.801 -0.6611 -1.2465 -0.2026
  825MOL0     C11273   5.949   5.348   8.736  0.1852  0.1931  0.3451
  825MOL0     C11274   5.950   5.343   8.592  0.2677 -0.2915  0.6245
  825MOL0     C11275   6.071   5.314   8.529 -0.2620 -0.2622  0.0725
  825MOL0     O11276   6.071   5.295   8.395 -0.3351  0.0332  0.3097
  825MOL0     C11277   5.967   5.220   8.336  0.3329 -0.2453  0.3464
  825MOL0     C11278   6.029   5.170   8.211  0.3801 -0.0568 -0.2416
  825MOL0     C11279   5.931   5.089   8.126  0.4636  0.7341  0.2317
  825MOL0     C11280   6.002   5.000   8.011 -0.9976 -0.2662 -1.3592
  825MOL0     C11281   5.910   4.965   7.893 -0.6404  0.9619 -0.9292
  825MOL0     C11282   5.823   4.849   7.946 -0.3698  0.5196  0.0023
  825MOL0     C11283   5.747   4.777   7.837  0.4411 -0.4363  0.2155
  825MOL0     C11284   5.631   4.687   7.885 -0.3943  0.1853  0.8875
  825MOL0    Cl11285   5.695   4.546   7.988  0.3739  0.1615  0.3371
  825MOL0     C11286   6.191   5.318   8.595 -0.2984  0.4449  0.5990
  825MOL0     C11287   6.193   5.321   8.729  0.1678  0.1514 -0.1300
  825MOL0     O11288   6.178   5.154   8.967 -0.5710 -0.6011 -0.9130
  825MOL0     C11289   6.128   5.420   9.195 -0.6025  0.2625  0.1139
  825MOL0     C11290   6.125   5.453   9.331 -0.9857  0.0161  1.0022
  825MOL0     N11291   5.767   5.540   9.955  0.9930  0.1155  0.3258
  825MOL0     N11292   5.778   5.669   9.971 -0.0727  0.3874  0.5938
  825MOL0     C11293   5.772   6.429  11.004 -0.5821 -0.5507 -0.5733
  825MOL0     C11294   5.734   6.461  11.134  0.1368  0.3037  0.0235
  825MOL0     C11295   5.635   6.610  11.545  1.4817  0.9785  0.4234
  825MOL0     C11296   5.558   6.542  11.642  1.1453 -0.2881 -0.1156
  825MOL0     C11297   5.556   6.586  11.775  1.0099  0.5539 -0.5384
  825MOL0     C11298   5.643   6.689  11.812  0.4356  0.2669 -0.7483
  825MOL0     O11299   5.654   6.716  11.948  0.1600 -0.6129 -0.4566
  825MOL0     C11300   5.592   6.832  12.006  0.3468 -0.4181 -0.0556
  825MOL0     C11301   5.574   6.956  11.912 -0.7487 -0.1420 -0.5662
  825MOL0     C11302   5.533   7.084  11.985  0.2063 -0.8747  0.2491
  825MOL0     C11303   5.404   7.059  12.067 -0.6881 -0.2299  1.2795
  825MOL0     C11304   5.339   7.185  12.108  0.8096  0.2622  0.4001
  825MOL0     C11305   5.266   7.272  12.152 -0.2503 -0.8083 -1.1642
  825MOL0     C11306   5.726   6.745  11.711 -0.2370 -1.2419 -0.8203
  825MOL0     C11307   5.727   6.709  11.586 -0.4017  0.3346  0.0996
  825MOL0     H11308   5.928   6.737  11.180  3.1840 -0.9028  0.2086
  825MOL0     H11309   5.989   6.684  10.946 -3.6120  5.1277  0.0820
  825MOL0     H11310   5.750   6.366  10.741  1.0650  1.9773  4.3088
  825MOL0     H11311   5.875   6.398  10.630 -1.9740  3.9848 -0.1259
  825MOL0     H11312   6.033   6.238  10.741  1.1788 -0.2870  0.8871
  825MOL0     H11313   5.909   6.211  10.870  0.4663 -2.3985  0.0759
  825MOL0     H11314   5.943   6.033  10.747  0.4054 -0.8137 -0.7326
  825MOL0     H11315   5.789   6.095  10.712  1.1410 -1.4618  0.9262
  825MOL0     H11316   5.857   6.152  10.473  0.4522  0.5430 -1.0700
  825MOL0     H11317   6.012   6.179  10.517  0.3452 -1.8752 -1.5847
  825MOL0     H11318   6.059   5.927  10.509 -0.1672 -0.0568  1.4592
  825MOL0     H11319   5.895   5.891  10.520  1.2998 -0.5018 -0.0439
  825MOL0     H11320   5.844   5.996  10.299  0.6605  0.0921 -1.9127
  825MOL0     H11321   6.013   6.040  10.285 -2.9143  1.2588 -0.5520
  825MOL0     H11322   6.051   5.790  10.269  1.1929  1.2948 -2.7578
  825MOL0     H11323   5.865   5.775  10.296 -0.2486 -0.8880 -1.0807
  825MOL0     H11324   6.013   5.852  10.054  0.6814  0.4370  1.6122
  825MOL0     H11325   5.846   5.905  10.067  2.0459  2.2687 -0.8275
  825MOL0     H11326   6.019   5.563  10.158  0.5398  3.0211 -0.0461
  825MOL0     H11327   6.001   5.326  10.064  0.0911 -1.2475 -1.4835
  825MOL0     H11328   5.827   5.277  10.075  1.3335  0.5898  3.4772
  825MOL0     H11329   5.812   5.263   9.841 -0.0778 -2.1147  0.0795
  825MOL0     H11330   5.962   5.183   9.892 -0.3140  0.4466 -0.8088
  825MOL0     H11331   6.066   5.425   9.847 -1.3966  0.0928  1.4188
  825MOL0     H11332   5.926   5.436   9.717 -0.5363  0.5726 -0.1248
  825MOL0     H11333   6.004   5.220   9.623 -1.0754  0.0555 -0.9801
  825MOL0     H11334   6.152   5.244   9.706  0.1479  0.2017 -2.2839
  825MOL0     H11335   6.118   5.143   9.463  1.8328  0.7070  0.8975
  825MOL0     H11336   6.162   4.986   9.318  1.0918  1.3296  0.3063
  825MOL0     H11337   6.062   4.994   9.170  0.3159  0.8462 -2.9825
  825MOL0     H11338   6.232   5.008   9.157  0.8393 -0.6154  2.3047
  825MOL0     H11339   5.857   5.351   8.793  0.1190  0.4388  0.2313
  825MOL0     H11340   5.858   5.340   8.534  0.1129  1.4781  0.7353
  825MOL0     H11341   5.933   5.137   8.399  0.6714  2.2197  4.1067
  825MOL0     H11342   5.886   5.288   8.309  0.7756  0.7104  1.3491
  825MOL0     H11343   6.055   5.249   8.140  1.1835 -1.2945 -1.3661
  825MOL0     H11344   6.114   5.110   8.245  1.7497  2.5307  1.2075
  825MOL0     H11345   5.850   5.153   8.090 -2.3135 -1.4857  2.0588
  825MOL0     H11346   5.880   5.009   8.181  0.2399 -2.8016 -4.4779
  825MOL0     H11347   6.083   5.058   7.967 -0.2057 -1.0974 -1.0391
  825MOL0     H11348   6.047   4.909   8.053 -0.7777  1.0458  1.5441
  825MOL0     H11349   5.963   4.933   7.803 -0.3810  0.4864 -0.6124
  825MOL0     H11350   5.848   5.048   7.858 -0.6846  1.1305 -0.4620
  825MOL0     H11351   5.887   4.767   7.981  0.9723  2.0238  1.1894
  825MOL0     H11352   5.757   4.881   8.026 -0.1314 -1.5994  1.1011
  825MOL0     H11353   5.817   4.730   7.766  1.0040  2.4738 -1.2798
  825MOL0     H11354   5.696   4.854   7.779  0.6927 -0.4920 -0.0835
  825MOL0     H11355   5.577   4.651   7.797  0.7295 -1.5708  0.8716
  825MOL0     H11356   5.556   4.740   7.945 -0.5389 -0.7276  1.5501
  825MOL0     H11357   6.286   5.309   8.543 -1.5958  0.1822 -1.8862
  825MOL0     H11358   6.286   5.314   8.784 -0.8876 -2.4605  1.4896
  825MOL0     H11359   6.144   5.501   9.126 -3.5213  0.9069  0.0475
  825MOL0     H11360   6.134   5.558   9.357  0.0702  0.1644  0.1162
  825MOL0     H11361   5.705   6.357  10.958 -2.9339 -0.4175  2.3198
  825MOL0     H11362   5.652   6.398  11.167  1.7636 -2.8284 -1.3771
  825MOL0     H11363   5.490   6.463  11.609  2.2375 -1.5466  0.5442
  825MOL0     H11364   5.503   6.535  11.855  4.2698 -0.4830  1.1482
  825MOL0     H11365   5.489   6.804  12.030  0.2197 -1.0976 -1.3141
  825MOL0     H11366   5.641   6.863  12.099  0.0884 -2.3670  0.7644
  825MOL0     H11367   5.511   6.926  11.827 -0.9809  0.0507 -0.4638
  825MOL0     H11368   5.673   6.978  11.871  0.4824 -1.7875  1.3443
  825MOL0     H11369   5.513   7.165  11.915 -0.7166 -1.4778 -0.2228
  825MOL0     H11370   5.616   7.097  12.054  2.5205 -0.0687 -2.4817
  825MOL0     H11371   5.429   6.984  12.143 -0.5521 -2.6542 -1.0061
  825MOL0     H11372   5.330   7.009  12.005 -1.9437 -0.3265  2.7805
  825MOL0     H11373   5.211   7.357  12.189  0.5545 -0.5731 -0.4597
  825MOL0     H11374   5.805   6.816  11.735  0.8696 -2.7647  0.3027
  825MOL0     H11375   5.804   6.746  11.519 -0.7014 -0.5167 -0.7342
  826MOL0     O11376   2.738   0.370   0.525  0.8261  0.0272  0.3548
  826MOL0     C11377   2.844   0.318   0.566 -0.3830  0.2799  0.6665
  826MOL0     O11378   2.958   0.388   0.588 -0.1201  0.0832 -0.2706
  826MOL0     C11379   2.952   0.527   0.587 -0.7442  0.6512  0.5201
  826MOL0     C11380   2.937   0.606   0.471  0.0641 -0.7051  0.0160
  826MOL0     C11381   2.902   0.739   0.495 -0.6895 -0.4570  0.2223
  826MOL0     C11382   2.889   0.796   0.629 -0.1131 -0.7969  0.1589
  826MOL0     O11383   2.849   0.925   0.648  0.3003  0.1226  0.6539
  826MOL0     C11384   2.711   0.948   0.632 -1.7125  0.2909 -0.8445
  826MOL0     C11385   2.640   0.916   0.757  0.3332  0.1659  0.2375
  826MOL0     C11386   2.692   1.003   0.865 -0.5029  0.1787 -0.0973
  826MOL0     C11387   2.613   0.982   0.998  0.5692 -0.1914 -1.1608
  826MOL0     C11388   2.474   1.051   0.999 -1.0245 -0.2078 -1.4179
  826MOL0     C11389   2.409   1.077   1.131 -0.1980 -0.1638 -0.0172
  826MOL0     C11390   2.294   1.178   1.113  0.5835 -0.2804 -0.7136
  826MOL0     C11391   2.164   1.109   1.062  0.2220  0.3303  0.1732
  826MOL0     N11392   2.113   1.193   0.954 -0.6814  0.6538 -0.4197
  826MOL0     C11393   2.155   1.183   0.818 -0.2759 -0.2540 -0.4594
  826MOL0     C11394   2.054   1.237   0.751 -0.0308  0.5688 -0.1580
  826MOL0     C11395   2.037   1.249   0.601 -0.3473 -0.2103  0.7351
  826MOL0     C11396   2.047   1.394   0.537 -1.0002 -0.6054  0.3666
  826MOL0     C11397   2.015   1.384   0.389 -0.5689 -0.6032 -0.0340
  826MOL0     C11398   1.996   1.519   0.328  0.4797 -0.5873  0.6779
  826MOL0     O11399   1.958   1.521   0.194  0.5556 -0.8649  0.1613
  826MOL0     C11400   1.957   1.631   0.105  0.2319 -0.6766  0.1629
  826MOL0     C11401   2.062   1.724   0.097  1.1515  0.2347  0.5874
  826MOL0     C11402   2.046   1.833   0.009 -0.3254  0.2740 -0.8105
  826MOL0     C11403   2.161   1.940   0.010 -0.2534 -0.5502  0.3395
  826MOL0     C11404   1.932   1.854  -0.079 -0.9521  1.0274  0.2923
  826MOL0     C11405   1.921   1.965  -0.180 -0.4461  0.5844 -0.7604
  826MOL0     O11406   1.839   1.944  -0.287 -0.0129 -1.1642 -0.2441
  826MOL0     C11407   1.806   2.056  -0.360 -0.6943 -0.3252 -0.7384
  826MOL0     C11408   1.886   2.077  -0.474  0.6098  0.0882 -0.7798
  826MOL0     C11409   1.869   2.204  -0.549  0.1477 -0.1845 -0.1151
  826MOL0     C11410   1.774   2.303  -0.514 -0.0746 -0.2041 -0.7264
  826MOL0     O11411   1.757   2.424  -0.574  0.1396  0.0315 -0.2460
  826MOL0     C11412   1.875   2.482  -0.625 -0.3057 -0.6326  0.7463
  826MOL0     C11413   1.841   2.634  -0.654  0.1697  0.9483  0.6924
  826MOL0     C11414   1.939   2.698  -0.763  0.7361 -0.1986 -0.7612
  826MOL0     C11415   1.928   2.850  -0.803  1.5488 -0.4896  0.6174
  826MOL0     C11416   1.999   2.883  -0.933 -0.8497 -0.7105  0.6857
  826MOL0     C11417   1.909   2.928  -1.055 -0.1715  0.2583 -0.8749
  826MOL0     C11418   1.810   2.827  -1.109  0.1063  0.0069  0.7140
  826MOL0     C11419   1.734   2.867  -1.227 -0.5464  0.4218  0.0170
  826MOL0    Cl11420   1.636   2.728  -1.272  0.0030 -0.7581  0.5489
  826MOL0     C11421   1.685   2.262  -0.413 -0.1868 -0.2387 -0.8337
  826MOL0     C11422   1.700   2.147  -0.330  0.2059 -0.3046  0.0377
  826MOL0     O11423   1.961   2.070  -0.139  0.0003  0.3194 -0.3830
  826MOL0     C11424   1.845   1.749  -0.079  0.6066 -0.6298  0.3591
  826MOL0     C11425   1.852   1.645   0.013  0.2211 -0.3792  0.4342
  826MOL0     N11426   1.961   1.289   0.838  0.0191 -0.2274  0.1634
  826MOL0     N11427   1.995   1.269   0.957  0.1884  0.8529 -0.1214
  826MOL0     C11428   2.917   0.709   0.731 -0.2015 -0.4834  0.4423
  826MOL0     C11429   2.955   0.581   0.709 -0.2627 -0.6625 -0.6313
  826MOL0     C11430   2.836   0.172   0.567 -0.8173  0.5078  0.0774
  826MOL0     C11431   2.946   0.097   0.587 -0.4531  1.0678  0.0045
  826MOL0     C11432   2.943  -0.044   0.585  0.7304 -0.9947  0.0490
  826MOL0     C11433   2.824  -0.112   0.556 -0.6665 -0.0410 -0.3886
  826MOL0     O11434   2.817  -0.252   0.548  0.0996  0.4242  0.4654
  826MOL0     C11435   2.925  -0.333   0.600  0.6271  0.8728 -0.1617
  826MOL0     C11436   2.879  -0.484   0.601  1.0619 -0.9482 -0.0547
  826MOL0     C11437   2.984  -0.579   0.632  0.3263 -0.8448 -0.6373
  826MOL0     C11438   2.947  -0.731   0.623 -0.9945 -0.4203 -0.2934
  826MOL0     C11439   3.056  -0.817   0.668 -0.3753 -0.0112 -0.1227
  826MOL0     C11440   3.143  -0.902   0.690 -1.0061 -0.1029  0.0995
  826MOL0     C11441   2.715  -0.033   0.536 -0.1401 -0.4988 -0.3746
  826MOL0     C11442   2.717   0.100   0.540 -0.1270  0.3044  0.0347
  826MOL0     H11443   2.946   0.572   0.369 -2.9010  0.2601 -0.6907
  826MOL0     H11444   2.906   0.808   0.412  0.3184 -1.6615 -0.7671
  826MOL0     H11445   2.708   1.056   0.617  2.5333  0.7589  0.2414
  826MOL0     H11446   2.676   0.901   0.540 -0.9260 -0.7304 -0.6480
  826MOL0     H11447   2.531   0.929   0.748  0.0412 -2.0646 -0.0211
  826MOL0     H11448   2.642   0.811   0.785  0.4098 -0.1755 -0.9824
  826MOL0     H11449   2.794   0.972   0.890 -1.3824 -2.9101  0.1108
  826MOL0     H11450   2.698   1.109   0.839  1.6049 -0.3067 -1.9348
  826MOL0     H11451   2.585   0.876   1.005  1.1129 -0.5670 -3.7539
  826MOL0     H11452   2.686   0.995   1.079  1.1653 -2.3646 -1.2748
  826MOL0     H11453   2.480   1.146   0.944 -0.3776  0.6468  0.0800
  826MOL0     H11454   2.412   0.982   0.940  1.0919 -2.2873 -1.3639
  826MOL0     H11455   2.357   0.989   1.171 -1.2371  0.3701 -0.1726
  826MOL0     H11456   2.481   1.113   1.206 -0.0548 -1.2388  0.3806
  826MOL0     H11457   2.276   1.223   1.211 -1.3435 -0.8319 -0.7747
  826MOL0     H11458   2.324   1.254   1.041 -0.9054 -0.3310 -1.4370
  826MOL0     H11459   2.084   1.097   1.135  0.6038 -2.0087  0.2695
  826MOL0     H11460   2.188   1.011   1.019 -2.0396 -0.5429  0.7904
  826MOL0     H11461   2.242   1.142   0.768 -0.0047 -0.5340  0.2255
  826MOL0     H11462   2.113   1.186   0.554 -1.7934 -1.0229 -0.5961
  826MOL0     H11463   1.937   1.208   0.587 -0.3065  0.5672 -2.7917
  826MOL0     H11464   2.147   1.438   0.551  0.8959 -3.2224 -3.1791
  826MOL0     H11465   1.973   1.456   0.587 -2.2292 -2.3916  0.8332
  826MOL0     H11466   1.927   1.325   0.363 -2.1525  2.2907 -1.6903
  826MOL0     H11467   2.100   1.331   0.342 -0.3486 -2.1562  1.9830
  826MOL0     H11468   2.090   1.575   0.333  1.9267 -2.8406  0.3243
  826MOL0     H11469   1.924   1.567   0.394 -1.7718 -2.5565 -0.2077
  826MOL0     H11470   2.146   1.713   0.164 -1.2932  1.5822  4.1985
  826MOL0     H11471   2.183   1.993  -0.083  0.1192  0.3901  0.9472
  826MOL0     H11472   2.144   2.004   0.097 -0.4487  0.7241 -0.6031
  826MOL0     H11473   2.256   1.887   0.025 -0.9329 -1.1112  3.2432
  826MOL0     H11474   1.965   2.008  -0.500  1.5234  0.3772  1.0708
  826MOL0     H11475   1.935   2.221  -0.633 -0.3911 -0.4839 -0.6079
  826MOL0     H11476   1.963   2.479  -0.561 -1.0675  2.7568  2.1942
  826MOL0     H11477   1.907   2.431  -0.716 -0.6570  0.9944 -0.3371
  826MOL0     H11478   1.735   2.639  -0.681  0.9570  1.1574 -2.7953
  826MOL0     H11479   1.847   2.686  -0.558  0.2145 -1.2671  1.9777
  826MOL0     H11480   1.929   2.634  -0.851  0.0558 -2.0910  0.6298
  826MOL0     H11481   2.041   2.669  -0.735  1.3655 -0.1895 -2.8654
  826MOL0     H11482   1.823   2.866  -0.831  1.9143 -0.3237 -0.7400
  826MOL0     H11483   1.947   2.922  -0.723 -0.7859 -0.6404  1.4021
  826MOL0     H11484   2.054   2.796  -0.967 -4.1449 -3.0685  0.8930
  826MOL0     H11485   2.067   2.963  -0.902 -2.6227  1.0212  0.3107
  826MOL0     H11486   1.849   3.012  -1.019 -0.5501 -0.2250 -0.3663
  826MOL0     H11487   1.965   2.952  -1.146 -0.4110 -2.1261 -1.7336
  826MOL0     H11488   1.736   2.812  -1.029  2.2809 -0.0954  2.8214
  826MOL0     H11489   1.855   2.734  -1.145 -2.5259 -1.6519  1.4212
  826MOL0     H11490   1.798   2.899  -1.311  0.4740 -0.7508  0.3144
  826MOL0     H11491   1.671   2.950  -1.194 -2.4694 -0.2003 -1.8778
  826MOL0     H11492   1.602   2.328  -0.389 -1.3182 -1.0760 -2.2847
  826MOL0     H11493   1.640   2.110  -0.247 -1.2880  1.4773 -0.1842
  826MOL0     H11494   1.760   1.758  -0.146  1.2907  1.9556 -0.2563
  826MOL0     H11495   1.772   1.573   0.023  0.4260 -0.4059  2.2145
  826MOL0     H11496   2.898   0.738   0.834 -4.0482 -1.2945  0.0815
  826MOL0     H11497   2.987   0.528   0.799  2.2932  0.0424 -1.0453
  826MOL0     H11498   3.044   0.145   0.593 -0.7463  1.7234 -0.4227
  826MOL0     H11499   3.033  -0.104   0.582  0.5833 -1.4199  2.4789
  826MOL0     H11500   3.014  -0.325   0.538  0.6901 -3.1276 -0.8489
  826MOL0     H11501   2.947  -0.295   0.700 -3.2393  0.8755  0.8597
  826MOL0     H11502   2.857  -0.509   0.497  3.1110  3.5048 -1.8128
  826MOL0     H11503   2.795  -0.508   0.667  1.8248 -2.4651  0.4194
  826MOL0     H11504   3.027  -0.549   0.728 -0.3574  1.7566 -1.0750
  826MOL0     H11505   3.068  -0.567   0.562 -0.3583 -1.5277 -1.6050
  826MOL0     H11506   2.924  -0.756   0.519 -0.5952 -1.2076 -0.1972
  826MOL0     H11507   2.863  -0.755   0.689 -1.6337  3.4775  0.5589
  826MOL0     H11508   3.206  -0.984   0.718  3.3340  2.7784 -0.2216
  826MOL0     H11509   2.617  -0.078   0.520 -1.6336  2.0497  0.9902
  826MOL0     H11510   2.623   0.147   0.513  0.1644  1.6948  1.3042
  827MOL0     O11511  10.403   3.648   8.638 -0.3758  0.2578 -0.2767
  827MOL0     C11512  10.372   3.611   8.752 -0.4755  0.3891 -0.8139
  827MOL0     O11513  10.438   3.640   8.871  0.7203 -0.0152  0.4128
  827MOL0     C11514  10.564   3.698   8.883  0.9560  0.9326  0.3486
  827MOL0     C11515  10.624   3.683   9.009 -0.6961 -0.7197 -1.7536
  827MOL0     C11516  10.750   3.737   9.033 -0.4284  0.5684  0.5078
  827MOL0     C11517  10.811   3.819   8.935 -0.7021 -0.6128 -1.1449
  827MOL0     O11518  10.925   3.888   8.959 -0.1768  0.3750 -0.4560
  827MOL0     C11519  11.007   3.850   9.066  0.2935 -0.8664  0.4591
  827MOL0     C11520  11.125   3.931   9.063 -0.1367 -0.4487 -0.1027
  827MOL0     C11521  11.213   3.920   9.193  0.6746 -0.6349 -0.2231
  827MOL0     C11522  11.289   4.056   9.222  1.1491  0.0875  1.0967
  827MOL0     C11523  11.398   4.034   9.329  0.2877  0.4019  0.8850
  827MOL0     C11524  11.436   4.175   9.385 -0.7200  0.6378 -0.1731
  827MOL0     C11525  11.576   4.162   9.456 -0.4713 -0.3833  0.5859
  827MOL0     C11526  11.612   4.291   9.536  0.1114 -0.6222  0.7663
  827MOL0     N11527  11.526   4.295   9.654  0.7358 -0.7615 -0.1175
  827MOL0     C11528  11.543   4.221   9.763 -0.2318  0.0376 -0.5132
  827MOL0     C11529  11.438   4.272   9.843 -1.4515  0.1146  0.2989
  827MOL0     C11530  11.426   4.227   9.985 -0.1397 -0.7021  0.1599
  827MOL0     C11531  11.556   4.242  10.069 -0.2328  0.0883  0.4395
  827MOL0     C11532  11.549   4.225  10.217  0.0954 -0.6023 -0.2559
  827MOL0     C11533  11.528   4.081  10.261 -0.0145  0.2110  0.3480
  827MOL0     O11534  11.633   3.995  10.213 -0.5555  0.9830 -0.1574
  827MOL0     C11535  11.747   4.035  10.279 -0.1828  0.0015 -0.4582
  827MOL0     C11536  11.849   4.111  10.226 -0.5438  0.6347  0.4588
  827MOL0     C11537  11.965   4.143  10.307  0.3342 -0.7911  0.7160
  827MOL0     C11538  12.058   4.247  10.245 -0.1322  0.0343  1.2551
  827MOL0     C11539  11.987   4.082  10.432  0.1213 -0.8943 -0.1457
  827MOL0     C11540  12.093   4.113  10.532 -0.5075 -0.4910  1.0028
  827MOL0     O11541  12.100   4.031  10.645 -0.1970 -0.3249 -0.2971
  827MOL0     C11542  12.217   4.036  10.711  0.1549  0.4416 -0.1518
  827MOL0     C11543  12.205   4.068  10.845 -0.0036 -0.2732 -0.1717
  827MOL0     C11544  12.318   4.070  10.919  1.1845 -0.1753 -0.9255
  827MOL0     C11545  12.443   4.043  10.875 -0.3766 -0.2128 -0.3267
  827MOL0     O11546  12.559   4.067  10.953  0.3257  0.5542  0.0113
  827MOL0     C11547  12.655   3.964  10.967  0.0348 -0.7494  0.6290
  827MOL0     C11548  12.742   4.012  11.085 -0.5597  0.0919  0.2171
  827MOL0     C11549  12.873   3.931  11.086 -0.6907  1.3026  0.2595
  827MOL0     C11550  12.931   3.931  11.230 -0.2771 -0.0531 -0.1636
  827MOL0     C11551  12.975   3.790  11.276 -0.5331 -0.6394  0.1816
  827MOL0     C11552  13.100   3.747  11.202 -0.4793  0.0395 -0.0878
  827MOL0     C11553  13.220   3.825  11.249 -0.1819  0.0264  0.4116
  827MOL0     C11554  13.367   3.796  11.199  0.3812 -0.0348  0.4113
  827MOL0    Cl11555  13.476   3.895  11.300 -0.1620 -0.1643 -0.3389
  827MOL0     C11556  12.453   4.006  10.738  0.5848 -0.4527  0.2586
  827MOL0     C11557  12.343   4.001  10.653 -0.5145 -0.6926  0.6688
  827MOL0     O11558  12.168   4.207  10.513 -0.3539  0.4356 -0.0112
  827MOL0     C11559  11.883   4.002  10.488  0.8626  0.7528 -0.4934
  827MOL0     C11560  11.771   3.970  10.403  0.4372 -0.8002 -0.3802
  827MOL0     N11561  11.355   4.360   9.779 -0.3379 -0.1910  0.3520
  827MOL0     N11562  11.409   4.375   9.668 -0.3869 -0.7151  0.3714
  827MOL0     C11563  10.747   3.842   8.814 -0.0470 -0.5443  0.3574
  827MOL0     C11564  10.620   3.784   8.791 -0.2062 -0.4604 -0.2052
  827MOL0     C11565  10.249   3.530   8.772  0.4149 -0.3692  0.1536
  827MOL0     C11566  10.179   3.493   8.655 -0.7829  0.0896 -0.8856
  827MOL0     C11567  10.075   3.405   8.662 -0.3790  0.0503  0.9391
  827MOL0     C11568  10.034   3.361   8.795  0.0831  0.1292 -0.5711
  827MOL0     O11569   9.938   3.261   8.815 -0.0418  0.4006 -0.3364
  827MOL0     C11570   9.890   3.182   8.712 -0.1454  0.5849  0.4942
  827MOL0     C11571   9.746   3.119   8.746 -0.1756 -0.6949 -0.0698
  827MOL0     C11572   9.740   3.017   8.856  0.1972 -0.4272 -0.0324
  827MOL0     C11573   9.863   2.930   8.858 -1.3157  0.0496 -0.5831
  827MOL0     C11574   9.855   2.820   8.957  0.3653 -0.2017 -0.9934
  827MOL0     C11575   9.847   2.716   9.030  0.0235 -0.5052  0.0742
  827MOL0     C11576  10.091   3.409   8.913 -0.6721  0.7430  0.7140
  827MOL0     C11577  10.200   3.500   8.905 -0.2165  0.7767 -0.2769
  827MOL0     H11578  10.600   3.614   9.090 -0.0910 -0.8157 -1.6515
  827MOL0     H11579  10.799   3.721   9.129  1.4738  2.7646  0.0068
  827MOL0     H11580  10.940   3.861   9.152  1.0951 -4.9243  1.8293
  827MOL0     H11581  11.043   3.746   9.058  3.9809  0.0219  2.7726
  827MOL0     H11582  11.187   3.917   8.974 -1.1684  3.4619 -1.6563
  827MOL0     H11583  11.095   4.036   9.061  1.8926  0.2440  2.0106
  827MOL0     H11584  11.144   3.896   9.275  0.9448 -3.8414 -0.8263
  827MOL0     H11585  11.282   3.836   9.183 -2.1160 -3.0686 -0.2475
  827MOL0     H11586  11.314   4.108   9.130 -1.1953 -1.2406 -0.3868
  827MOL0     H11587  11.212   4.125   9.258 -1.0948 -1.2533 -0.9282
  827MOL0     H11588  11.355   3.965   9.403 -0.2782  0.5243  0.6790
  827MOL0     H11589  11.485   3.985   9.285 -0.7725 -1.5023  0.7847
  827MOL0     H11590  11.429   4.250   9.307  0.0370 -0.4813 -1.3509
  827MOL0     H11591  11.363   4.184   9.467 -0.6023 -1.5843  0.2572
  827MOL0     H11592  11.576   4.080   9.529 -1.8130 -0.1234  0.8949
  827MOL0     H11593  11.657   4.133   9.389 -1.0882  0.3424 -0.4996
  827MOL0     H11594  11.594   4.385   9.484 -0.0768 -0.6544  0.7720
  827MOL0     H11595  11.718   4.293   9.565 -0.1081 -0.7613  1.5936
  827MOL0     H11596  11.617   4.146   9.787 -1.0615 -0.3738  0.8688
  827MOL0     H11597  11.345   4.284  10.033 -1.9837 -3.5617  0.6805
  827MOL0     H11598  11.396   4.122   9.991 -2.4243 -0.1350 -0.3081
  827MOL0     H11599  11.608   4.338  10.061 -0.1403  0.0441  0.5170
  827MOL0     H11600  11.626   4.175  10.018  0.5310  1.6643 -0.6805
  827MOL0     H11601  11.466   4.280  10.263 -1.1699 -0.7853 -2.2068
  827MOL0     H11602  11.631   4.259  10.281  0.1255 -2.8633  1.0049
  827MOL0     H11603  11.436   4.040  10.217  0.8030 -0.4224 -0.8104
  827MOL0     H11604  11.523   4.070  10.370  1.2763 -2.2763  0.2356
  827MOL0     H11605  11.843   4.135  10.120  0.7773 -2.5179 -0.4555
  827MOL0     H11606  12.054   4.334  10.312  1.8346  2.8675 -1.9617
  827MOL0     H11607  12.160   4.208  10.238 -0.5474 -0.8636 -0.2971
  827MOL0     H11608  12.036   4.278  10.142  1.6898 -3.4739 -0.3507
  827MOL0     H11609  12.107   4.096  10.882  0.8219 -1.2216  3.0752
  827MOL0     H11610  12.296   4.109  11.018 -1.4370  1.1030 -1.9345
  827MOL0     H11611  12.610   3.866  10.987 -1.6621 -1.0258 -3.5360
  827MOL0     H11612  12.710   3.942  10.875 -0.2420 -1.9336  0.7232
  827MOL0     H11613  12.768   4.117  11.074 -2.0130  0.4441 -0.1044
  827MOL0     H11614  12.678   4.001  11.173  0.9696 -1.0663  1.2400
  827MOL0     H11615  12.941   3.979  11.015  1.5727 -0.4839  1.0707
  827MOL0     H11616  12.867   3.826  11.057  2.4481  0.5677  1.7524
  827MOL0     H11617  13.009   4.006  11.244  1.0596 -1.3367 -0.4972
  827MOL0     H11618  12.858   3.956  11.308  1.6580 -1.8601  2.4077
  827MOL0     H11619  12.900   3.710  11.264 -0.0368 -1.0911  0.0685
  827MOL0     H11620  12.984   3.798  11.385 -2.3184  0.0683  0.3155
  827MOL0     H11621  13.121   3.646  11.242  4.2164  1.6465  2.3221
  827MOL0     H11622  13.084   3.749  11.094 -1.5838  2.2947  0.0649
  827MOL0     H11623  13.233   3.821  11.358 -3.6600  2.6814  1.1403
  827MOL0     H11624  13.201   3.931  11.228 -1.2950 -0.3768 -0.7327
  827MOL0     H11625  13.369   3.826  11.094 -0.9807  1.4211  0.7836
  827MOL0     H11626  13.389   3.690  11.217 -0.7301  0.2679  4.3406
  827MOL0     H11627  12.556   3.987  10.710 -0.3104  0.3035 -4.2227
  827MOL0     H11628  12.350   3.953  10.556  0.7435  0.3434  0.2230
  827MOL0     H11629  11.883   3.961  10.589  1.5771  0.8995 -0.4278
  827MOL0     H11630  11.701   3.891  10.429 -0.7061  0.4647  0.5355
  827MOL0     H11631  10.793   3.910   8.743 -2.8035  0.8452 -0.2317
  827MOL0     H11632  10.567   3.801   8.697 -1.2239 -2.6248 -0.0816
  827MOL0     H11633  10.212   3.520   8.555 -0.5997 -1.9715 -1.4229
  827MOL0     H11634  10.028   3.363   8.574  0.0079  0.3313  0.5951
  827MOL0     H11635   9.873   3.252   8.630  0.6969  1.3181  0.9197
  827MOL0     H11636   9.963   3.111   8.672 -1.9968 -0.9789 -0.2110
  827MOL0     H11637   9.720   3.070   8.652  2.7088 -0.8440 -0.8855
  827MOL0     H11638   9.672   3.196   8.769  0.8758 -0.1639  1.7512
  827MOL0     H11639   9.654   2.950   8.867 -0.0983 -0.2004 -0.8684
  827MOL0     H11640   9.741   3.088   8.939  0.1336  0.3276 -0.6648
  827MOL0     H11641   9.953   2.990   8.870 -0.9918 -0.3861 -0.7962
  827MOL0     H11642   9.879   2.883   8.760  1.3408 -1.5119  0.5097
  827MOL0     H11643   9.839   2.630   9.095  1.0717 -0.5290  0.1900
  827MOL0     H11644  10.047   3.384   9.009  2.1811 -0.8571  1.7186
  827MOL0     H11645  10.246   3.528   8.999 -2.3611 -1.9628  1.7437
  828MOL0     O11646   8.674   2.797   7.348 -0.5513 -0.3984  0.4124
  828MOL0     C11647   8.747   2.808   7.243  0.1350 -0.5991 -0.2821
  828MOL0     O11648   8.716   2.894   7.135 -0.6962  0.4929 -0.4038
  828MOL0     C11649   8.589   2.936   7.123  0.7502  0.3683 -0.0621
  828MOL0     C11650   8.542   3.066   7.127 -0.3516  0.0526  0.1943
  828MOL0     C11651   8.408   3.097   7.108 -0.7938 -0.0096  0.1632
  828MOL0     C11652   8.318   2.997   7.068  0.4462 -0.1229 -0.2864
  828MOL0     O11653   8.188   3.050   7.062  0.7307 -0.3166  0.5060
  828MOL0     C11654   8.064   2.976   7.077 -0.6173  1.3224  0.4947
  828MOL0     C11655   8.042   2.949   7.232 -0.0660 -0.0391  0.7814
  828MOL0     C11656   8.021   3.086   7.308 -0.0434 -0.6266  0.2643
  828MOL0     C11657   7.875   3.139   7.324 -0.1151  0.3252 -0.3247
  828MOL0     C11658   7.852   3.285   7.360  0.1044 -0.2157 -0.5108
  828MOL0     C11659   7.705   3.305   7.390 -0.9856 -0.4050  0.7172
  828MOL0     C11660   7.677   3.430   7.460 -0.1087 -0.8161 -0.0408
  828MOL0     C11661   7.706   3.562   7.384  0.6251  0.2707 -0.1011
  828MOL0     N11662   7.680   3.678   7.470  0.2944  0.0190 -0.3039
  828MOL0     C11663   7.686   3.688   7.610 -0.1429 -0.0838 -0.1364
  828MOL0     C11664   7.632   3.807   7.643  1.1385  1.6801 -0.0547
  828MOL0     C11665   7.626   3.862   7.782  0.3663  0.0090  0.3274
  828MOL0     C11666   7.484   3.843   7.849 -0.3394  0.7017  0.7188
  828MOL0     C11667   7.469   3.925   7.976 -0.4719  0.5782 -0.8841
  828MOL0     C11668   7.326   3.915   8.028 -0.6483 -0.0854  1.0117
  828MOL0     O11669   7.233   3.975   7.935 -0.2914  0.6643 -0.7634
  828MOL0     C11670   7.115   3.917   7.915  0.0685  0.4859 -0.1044
  828MOL0     C11671   7.046   3.971   7.813 -0.3773  0.5329  0.3755
  828MOL0     C11672   6.906   3.949   7.790  1.1842 -0.0599 -0.6839
  828MOL0     C11673   6.840   4.027   7.677  0.0895  0.0589 -0.8193
  828MOL0     C11674   6.845   3.841   7.859 -0.1143 -0.4126 -0.7358
  828MOL0     C11675   6.702   3.814   7.870 -0.8044  0.0323  1.2638
  828MOL0     O11676   6.668   3.686   7.911 -0.1060 -0.5743  0.2315
  828MOL0     C11677   6.534   3.668   7.938  1.3466  0.0916 -0.3418
  828MOL0     C11678   6.493   3.663   8.069 -0.2843 -0.1798 -0.4624
  828MOL0     C11679   6.363   3.620   8.110  0.7340  0.3428  0.0802
  828MOL0     C11680   6.266   3.586   8.010  0.0360 -0.1134  0.1292
  828MOL0     O11681   6.151   3.535   8.057 -0.6323  0.2984  0.6792
  828MOL0     C11682   6.073   3.470   7.960  0.2944 -0.2966  0.6869
  828MOL0     C11683   5.962   3.395   8.031 -0.6728  0.6335  1.2456
  828MOL0     C11684   5.862   3.489   8.101  0.5399  0.5154 -0.6866
  828MOL0     C11685   5.730   3.410   8.119  0.3100  0.1311  0.2958
  828MOL0     C11686   5.627   3.498   8.186 -0.4625 -0.5023 -0.0139
  828MOL0     C11687   5.484   3.427   8.226 -0.9136 -0.6982 -0.8809
  828MOL0     C11688   5.419   3.519   8.325  0.3756 -0.5630 -0.5368
  828MOL0     C11689   5.291   3.459   8.374 -1.5096 -0.5062 -0.5536
  828MOL0    Cl11690   5.164   3.583   8.417  0.1668  0.0314 -0.3505
  828MOL0     C11691   6.308   3.592   7.871  0.1553 -0.1711  0.9573
  828MOL0     C11692   6.437   3.633   7.841 -0.7947 -0.1534  0.5659
  828MOL0     O11693   6.619   3.907   7.857 -0.5427  0.1837 -0.0623
  828MOL0     C11694   6.923   3.768   7.958  0.0935  1.4159 -0.4972
  828MOL0     C11695   7.056   3.808   7.983  0.1069  0.1179 -0.4397
  828MOL0     N11696   7.563   3.858   7.532  0.1157 -1.0536  0.4752
  828MOL0     N11697   7.605   3.786   7.428 -0.5723  0.3092 -0.6812
  828MOL0     C11698   8.362   2.865   7.059 -0.1399 -0.9898  0.4261
  828MOL0     C11699   8.495   2.839   7.086 -0.7183  0.9123 -1.1159
  828MOL0     C11700   8.880   2.733   7.224 -0.1084  0.8054 -0.8746
  828MOL0     C11701   8.968   2.755   7.118  0.4393 -0.2968  0.8016
  828MOL0     C11702   9.078   2.670   7.084 -0.6449  0.1808  0.1212
  828MOL0     C11703   9.108   2.569   7.174  0.5008 -0.1800 -1.0723
  828MOL0     O11704   9.209   2.487   7.148  0.5850 -0.6219 -0.2212
  828MOL0     C11705   9.230   2.357   7.203  0.4532 -0.3240  0.1085
  828MOL0     C11706   9.319   2.361   7.329  0.3593 -0.4162  0.1632
  828MOL0     C11707   9.287   2.255   7.434  0.2538 -0.1433 -0.3006
  828MOL0     C11708   9.356   2.262   7.571  0.8449 -0.4406 -1.0555
  828MOL0     C11709   9.259   2.190   7.668  0.8176 -0.4727 -0.1200
  828MOL0     C11710   9.176   2.139   7.751  0.5209  0.2967  0.0341
  828MOL0     C11711   9.032   2.550   7.288  0.6748  0.7353 -1.0003
  828MOL0     C11712   8.919   2.624   7.310  0.4030  0.6340 -0.4277
  828MOL0     H11713   8.618   3.137   7.159 -0.6297 -0.0325  1.0677
  828MOL0     H11714   8.363   3.196   7.109 -4.1676 -1.2958 -2.7480
  828MOL0     H11715   7.976   3.030   7.040 -1.7648 -0.1877  0.9504
  828MOL0     H11716   8.071   2.881   7.025 -2.9342  0.6026  1.3569
  828MOL0     H11717   7.960   2.877   7.242  0.7275 -1.5856 -2.3319
  828MOL0     H11718   8.127   2.896   7.276  0.7427  0.9381  0.4274
  828MOL0     H11719   8.070   3.089   7.405 -2.6335  2.4561  1.6631
  828MOL0     H11720   8.075   3.153   7.241  2.2557 -2.3549  0.2674
  828MOL0     H11721   7.820   3.117   7.232 -0.1810 -4.0646  0.5523
  828MOL0     H11722   7.825   3.078   7.400 -0.3318  1.6798  0.6485
  828MOL0     H11723   7.904   3.299   7.456 -0.4182 -2.6456  0.2043
  828MOL0     H11724   7.889   3.347   7.278 -0.3819 -2.5397 -2.6107
  828MOL0     H11725   7.651   3.305   7.295  2.1945  0.3901 -1.2834
  828MOL0     H11726   7.660   3.230   7.456  0.2327 -0.4357  1.5498
  828MOL0     H11727   7.573   3.431   7.494  0.3893  0.6681  1.5784
  828MOL0     H11728   7.731   3.417   7.554 -1.9832 -1.4553  0.9925
  828MOL0     H11729   7.655   3.559   7.287  2.3219 -0.7752 -1.0159
  828MOL0     H11730   7.812   3.559   7.359  0.1694 -2.1090 -2.1500
  828MOL0     H11731   7.728   3.618   7.681  0.7189 -0.5093 -1.0370
  828MOL0     H11732   7.697   3.815   7.852 -1.1922 -1.5640  0.9295
  828MOL0     H11733   7.649   3.969   7.779 -2.0393  0.5743 -0.6895
  828MOL0     H11734   7.464   3.735   7.856  0.4700  0.5551  0.8481
  828MOL0     H11735   7.406   3.879   7.780 -0.2322  2.7252  1.5859
  828MOL0     H11736   7.497   4.031   7.972  0.1346  0.6553  2.4728
  828MOL0     H11737   7.523   3.879   8.059  0.4771  0.8993 -1.3114
  828MOL0     H11738   7.323   3.963   8.127 -1.4131 -1.4020  1.6607
  828MOL0     H11739   7.306   3.809   8.048 -1.7785  0.3008  2.0403
  828MOL0     H11740   7.100   4.043   7.753  1.0277 -1.1965 -0.5179
  828MOL0     H11741   6.806   4.121   7.721 -4.3538 -1.8223  0.2512
  828MOL0     H11742   6.914   4.036   7.597  0.8656  0.5654 -0.0627
  828MOL0     H11743   6.764   3.964   7.631 -0.6534  0.0144  0.4406
  828MOL0     H11744   6.571   3.681   8.142  1.0982 -2.3826 -1.2945
  828MOL0     H11745   6.347   3.612   8.217  3.2666 -0.7670  0.4417
  828MOL0     H11746   6.035   3.531   7.878 -2.1367  0.3685  2.2137
  828MOL0     H11747   6.140   3.398   7.912 -0.6790 -0.5393 -0.3544
  828MOL0     H11748   5.909   3.334   7.957 -1.0628  1.9786  0.3737
  828MOL0     H11749   6.007   3.342   8.115 -0.3482  2.3589  2.2153
  828MOL0     H11750   5.835   3.579   8.044 -2.9074 -0.3993 -0.7324
  828MOL0     H11751   5.911   3.525   8.192  2.3491  1.2757 -1.9006
  828MOL0     H11752   5.689   3.386   8.020  0.3379 -1.9310  0.7613
  828MOL0     H11753   5.744   3.319   8.177  1.2458  0.9126  1.3320
  828MOL0     H11754   5.603   3.584   8.123 -1.6579 -0.9583 -0.2135
  828MOL0     H11755   5.681   3.532   8.275  1.8333 -1.4385 -0.9645
  828MOL0     H11756   5.418   3.399   8.144 -2.2843 -0.6895  0.1671
  828MOL0     H11757   5.525   3.338   8.274  3.0479  1.5299  0.2894
  828MOL0     H11758   5.393   3.611   8.271 -1.9904 -0.6927  0.2561
  828MOL0     H11759   5.479   3.542   8.414 -2.0610  2.8731  0.4795
  828MOL0     H11760   5.334   3.410   8.462  3.4182  3.2520 -0.3910
  828MOL0     H11761   5.248   3.390   8.301 -2.6126  1.8990 -2.3088
  828MOL0     H11762   6.239   3.569   7.791 -0.0348 -1.9264  1.5778
  828MOL0     H11763   6.477   3.642   7.740  0.4526  1.0404  1.1297
  828MOL0     H11764   6.882   3.688   8.018  3.1172 -0.2132 -0.3806
  828MOL0     H11765   7.108   3.752   8.060 -0.8890  0.5440  0.5735
  828MOL0     H11766   8.301   2.786   7.016  0.2815 -0.5152 -1.1028
  828MOL0     H11767   8.531   2.737   7.078  1.3877  1.5415 -0.5223
  828MOL0     H11768   8.948   2.848   7.066 -0.5424  1.0902  3.4411
  828MOL0     H11769   9.135   2.683   6.993 -0.3871  2.4055  0.5459
  828MOL0     H11770   9.143   2.296   7.230 -0.5960  1.5946  1.3218
  828MOL0     H11771   9.263   2.305   7.113  2.7082  0.0425  0.6780
  828MOL0     H11772   9.306   2.462   7.368  0.2712 -1.0767  1.9824
  828MOL0     H11773   9.420   2.352   7.288  0.7329  2.2138  0.3695
  828MOL0     H11774   9.291   2.151   7.401 -0.7022 -0.2373 -0.1346
  828MOL0     H11775   9.182   2.279   7.453  0.7048 -0.3767  3.0882
  828MOL0     H11776   9.367   2.364   7.610 -0.3892  0.0463 -1.9154
  828MOL0     H11777   9.454   2.214   7.570  2.0556  1.8417 -0.3302
  828MOL0     H11778   9.098   2.111   7.818  0.6494 -2.8174 -0.9398
  828MOL0     H11779   9.052   2.468   7.356  0.0779  0.6510 -0.9212
  828MOL0     H11780   8.860   2.587   7.393  3.2415  1.4710  2.1611
  829MOL0     O11781   9.282   0.117   9.421 -0.0093  0.0878  0.1968
  829MOL0     C11782   9.221   0.200   9.491 -0.1491 -0.3264 -0.6465
  829MOL0     O11783   9.233   0.207   9.629 -0.5057 -0.0609 -0.1715
  829MOL0     C11784   9.280   0.119   9.725  0.0410  0.2227  1.2154
  829MOL0     C11785   9.312  -0.015   9.708  0.5606 -0.3605 -0.0087
  829MOL0     C11786   9.327  -0.097   9.817 -0.6474  0.3952 -0.0535
  829MOL0     C11787   9.337  -0.044   9.947 -0.2930  0.7617  0.1313
  829MOL0     O11788   9.350  -0.124  10.059  0.2732 -0.4657 -0.2748
  829MOL0     C11789   9.409  -0.255  10.047  0.6332  1.2340 -0.2100
  829MOL0     C11790   9.413  -0.314  10.186 -0.0892 -0.7617  0.3320
  829MOL0     C11791   9.493  -0.449  10.202  0.1341 -0.2900  0.0226
  829MOL0     C11792   9.543  -0.475  10.341 -0.0980  0.2015  0.5254
  829MOL0     C11793   9.607  -0.620  10.332 -0.6823  0.1615  1.0667
  829MOL0     C11794   9.601  -0.700  10.465  1.1229  0.2172 -0.6675
  829MOL0     C11795   9.703  -0.819  10.482  0.7637  0.6909  0.3227
  829MOL0     C11796   9.690  -0.878  10.620 -0.3652 -0.1890  0.4151
  829MOL0     N11797   9.683  -1.028  10.612 -0.4468  0.1055 -0.2948
  829MOL0     C11798   9.569  -1.087  10.658  1.2255 -0.2075  0.2417
  829MOL0     C11799   9.583  -1.214  10.613  0.5497  0.3334 -0.2669
  829MOL0     C11800   9.489  -1.324  10.648  0.2441 -0.8586 -0.1046
  829MOL0     C11801   9.421  -1.306  10.787 -0.1830  0.2821 -0.1075
  829MOL0     C11802   9.530  -1.322  10.899 -0.3838 -0.5565  0.0956
  829MOL0     C11803   9.491  -1.357  11.046 -0.1723  0.4192 -0.2431
  829MOL0     O11804   9.398  -1.259  11.099  0.4939 -0.0019  0.0615
  829MOL0     C11805   9.450  -1.153  11.170 -0.1595  0.3818  0.0735
  829MOL0     C11806   9.380  -1.032  11.159 -0.0027 -0.3167 -0.6021
  829MOL0     C11807   9.414  -0.916  11.233 -0.7597  0.0309  0.5993
  829MOL0     C11808   9.321  -0.803  11.230 -0.1065 -1.2623 -0.0834
  829MOL0     C11809   9.534  -0.924  11.313  0.2100  0.6827  0.3034
  829MOL0     C11810   9.591  -0.809  11.392 -0.8050  1.3943 -0.4802
  829MOL0     O11811   9.695  -0.838  11.481 -0.3469 -0.0491  0.5460
  829MOL0     C11812   9.776  -0.741  11.528 -2.1378 -0.5475 -0.0963
  829MOL0     C11813   9.845  -0.656  11.434 -0.0021  0.3084  0.7440
  829MOL0     C11814   9.947  -0.562  11.475 -0.2804  0.2362  0.0119
  829MOL0     C11815   9.975  -0.550  11.608  0.8787  0.4410 -0.0878
  829MOL0     O11816  10.059  -0.451  11.663 -0.0028 -0.0620  0.6659
  829MOL0     C11817  10.139  -0.366  11.568  0.1967 -0.1342 -0.7796
  829MOL0     C11818  10.225  -0.274  11.648 -0.0760 -0.1297 -0.6765
  829MOL0     C11819  10.352  -0.329  11.721 -0.6930  0.0740 -0.6922
  829MOL0     C11820  10.426  -0.222  11.796  0.4232  0.7090 -0.0234
  829MOL0     C11821  10.447  -0.261  11.939 -0.5613  0.2996  0.9195
  829MOL0     C11822  10.552  -0.377  11.953 -0.4325 -0.3815  1.2836
  829MOL0     C11823  10.524  -0.446  12.093  1.1151  0.5093  0.0121
  829MOL0     C11824  10.664  -0.477  12.165 -0.0139  0.1126 -0.0752
  829MOL0    Cl11825  10.750  -0.604  12.078  0.2928  0.1664  0.4292
  829MOL0     C11826   9.919  -0.635  11.697  0.4281  0.3306  0.3718
  829MOL0     C11827   9.821  -0.731  11.662 -0.9669 -0.3540 -0.2545
  829MOL0     O11828   9.539  -0.697  11.387  0.0049  0.4284  0.2577
  829MOL0     C11829   9.603  -1.050  11.317  0.3223 -0.8405  0.2431
  829MOL0     C11830   9.556  -1.162  11.247  0.3515  0.9679  0.1305
  829MOL0     N11831   9.696  -1.226  10.532 -0.1008 -0.2939 -0.0180
  829MOL0     N11832   9.756  -1.110  10.529 -0.7273  0.5075 -0.3076
  829MOL0     C11833   9.315   0.095   9.962 -0.6071 -0.4917 -0.5805
  829MOL0     C11834   9.267   0.170   9.858 -0.7838  0.0903 -1.0732
  829MOL0     C11835   9.123   0.296   9.430 -0.3809  0.2483 -0.3504
  829MOL0     C11836   9.059   0.389   9.507  0.3276  0.3569  0.0950
  829MOL0     C11837   8.953   0.467   9.462 -0.7099  0.2079 -0.3493
  829MOL0     C11838   8.914   0.460   9.322  0.6649  0.4584 -0.2226
  829MOL0     O11839   8.801   0.525   9.275  0.7061 -0.2529 -0.9651
  829MOL0     C11840   8.814   0.671   9.268  0.0939 -0.8787 -0.2354
  829MOL0     C11841   8.897   0.704   9.134  0.0349 -0.1706 -1.8324
  829MOL0     C11842   8.825   0.660   9.011 -1.7167  0.6616 -0.3274
  829MOL0     C11843   8.698   0.735   9.001 -0.4410  0.2592  0.4081
  829MOL0     C11844   8.626   0.722   8.875 -0.5474 -0.2256 -0.2074
  829MOL0     C11845   8.564   0.745   8.769  0.1842  0.7512  0.3805
  829MOL0     C11846   8.983   0.372   9.239  0.5141 -0.3755 -0.0243
  829MOL0     C11847   9.088   0.297   9.288  0.1701 -1.3924  0.3302
  829MOL0     H11848   9.298  -0.054   9.608 -0.8999 -2.7045  1.0078
  829MOL0     H11849   9.333  -0.201   9.788  0.5390 -0.9841  4.3633
  829MOL0     H11850   9.341  -0.317   9.988  1.8224 -0.3588  0.0137
  829MOL0     H11851   9.505  -0.267   9.996  0.0439 -0.9673 -0.9298
  829MOL0     H11852   9.453  -0.230  10.244 -4.7813  1.1259  1.2883
  829MOL0     H11853   9.310  -0.321  10.223  0.6536  1.6609  3.2834
  829MOL0     H11854   9.427  -0.531  10.172  1.6074 -0.5766 -2.7788
  829MOL0     H11855   9.580  -0.450  10.135  1.9644  1.4860  2.2371
  829MOL0     H11856   9.611  -0.396  10.374 -0.4515 -0.0662  1.9856
  829MOL0     H11857   9.466  -0.463  10.418  0.9564 -0.1892  1.6796
  829MOL0     H11858   9.565  -0.686  10.255  0.9419 -1.1343  1.2248
  829MOL0     H11859   9.710  -0.602  10.299 -1.6889 -0.1105 -2.6797
  829MOL0     H11860   9.596  -0.624  10.543  1.3491  1.7747 -2.1071
  829MOL0     H11861   9.503  -0.746  10.476  1.5291 -0.6904 -0.7385
  829MOL0     H11862   9.690  -0.887  10.397  0.4556 -0.5091  1.2981
  829MOL0     H11863   9.807  -0.788  10.476  1.6431 -2.0533  0.3461
  829MOL0     H11864   9.600  -0.841  10.670 -0.1015  2.6176 -0.9524
  829MOL0     H11865   9.766  -0.839  10.688  0.9165  2.9826 -2.5252
  829MOL0     H11866   9.490  -1.047  10.721  0.2403  1.6426 -2.0113
  829MOL0     H11867   9.410  -1.332  10.573  1.2833 -1.6905 -1.1439
  829MOL0     H11868   9.538  -1.421  10.657  1.1166 -0.3827  0.5413
  829MOL0     H11869   9.334  -1.373  10.787 -0.3825  0.5165 -1.2411
  829MOL0     H11870   9.375  -1.208  10.803 -0.0720  0.3305 -0.0834
  829MOL0     H11871   9.572  -1.221  10.902  1.7383 -1.3836 -0.0790
  829MOL0     H11872   9.609  -1.389  10.863  0.8532  1.6080 -1.4967
  829MOL0     H11873   9.588  -1.364  11.097 -1.5416  0.1351  2.5410
  829MOL0     H11874   9.456  -1.458  11.066  0.0090  0.3815 -0.1099
  829MOL0     H11875   9.295  -1.033  11.092 -0.1124 -4.1766 -0.6749
  829MOL0     H11876   9.226  -0.839  11.188 -1.4871  0.8051  1.0371
  829MOL0     H11877   9.283  -0.761  11.324 -0.1066 -0.9857 -0.2063
  829MOL0     H11878   9.365  -0.725  11.167  0.4422 -2.5497 -1.3507
  829MOL0     H11879   9.829  -0.669  11.327 -1.5019  1.1243  0.8366
  829MOL0     H11880  10.009  -0.506  11.405 -1.6047 -0.7481 -2.0259
  829MOL0     H11881  10.201  -0.420  11.496  2.9129  0.6749  0.8171
  829MOL0     H11882  10.058  -0.309  11.522 -1.0526 -2.4226 -1.5712
  829MOL0     H11883  10.253  -0.184  11.593  0.1882  0.9294  1.1135
  829MOL0     H11884  10.164  -0.248  11.735  0.3922 -1.2011 -0.0135
  829MOL0     H11885  10.425  -0.377  11.655 -0.8958 -0.6736 -0.3765
  829MOL0     H11886  10.321  -0.408  11.789  0.6546  0.6567  0.6659
  829MOL0     H11887  10.526  -0.218  11.751  0.2371 -4.2843 -1.4658
  829MOL0     H11888  10.378  -0.124  11.802  0.7662  0.9247 -0.7303
  829MOL0     H11889  10.357  -0.290  11.994 -0.2677 -2.0227  0.2988
  829MOL0     H11890  10.471  -0.170  11.993 -1.0143  0.1243  1.4256
  829MOL0     H11891  10.542  -0.455  11.877  0.9105 -0.8011  1.5150
  829MOL0     H11892  10.649  -0.328  11.945 -1.4095  1.3692 -1.0253
  829MOL0     H11893  10.461  -0.535  12.106  0.1256  1.5381  3.1927
  829MOL0     H11894  10.479  -0.364  12.151  4.3352  1.9342  0.7192
  829MOL0     H11895  10.642  -0.496  12.271 -0.5322  1.3469  0.0520
  829MOL0     H11896  10.730  -0.391  12.156  0.6430 -0.5980 -3.2738
  829MOL0     H11897   9.939  -0.625  11.803  0.5948  1.1570  0.2689
  829MOL0     H11898   9.779  -0.798  11.735 -0.1227 -0.8433 -0.2102
  829MOL0     H11899   9.695  -1.055  11.375  0.5223  0.6355  0.0864
  829MOL0     H11900   9.604  -1.258  11.262  3.0111  2.5610  3.2703
  829MOL0     H11901   9.306   0.149  10.055 -0.2080 -1.4997  0.0599
  829MOL0     H11902   9.232   0.271   9.879 -0.4464  0.7724 -3.4278
  829MOL0     H11903   9.083   0.402   9.612 -1.1825  0.1790  0.4858
  829MOL0     H11904   8.901   0.531   9.532 -2.8995 -2.5725  0.7566
  829MOL0     H11905   8.718   0.723   9.263  1.9282  2.8420 -1.0398
  829MOL0     H11906   8.870   0.707   9.355  2.9072 -3.2535 -0.9083
  829MOL0     H11907   8.995   0.658   9.146  0.5762  1.4357  0.7776
  829MOL0     H11908   8.919   0.811   9.131  2.2378 -0.5746 -1.6342
  829MOL0     H11909   8.809   0.552   9.008 -0.1583  0.3716  0.6823
  829MOL0     H11910   8.883   0.697   8.926 -1.4816  0.9441 -0.0460
  829MOL0     H11911   8.714   0.839   9.032 -0.1204 -0.4318  2.7298
  829MOL0     H11912   8.624   0.688   9.065 -1.0987 -0.6129 -0.9465
  829MOL0     H11913   8.513   0.784   8.683  2.7086  1.8921 -0.7057
  829MOL0     H11914   8.949   0.368   9.136 -1.9666  1.2439  0.6474
  829MOL0     H11915   9.134   0.241   9.207 -1.6425  2.4482 -3.8216
  830MOL0     O11916   0.807   2.069  11.466 -0.0635 -0.0032  0.1740
  830MOL0     C11917   0.798   1.955  11.428 -0.0306  0.1181  0.5221
  830MOL0     O11918   0.805   1.920  11.294 -1.0515 -0.5005  0.2895
  830MOL0     C11919   0.868   2.001  11.196  0.2230 -0.0708  0.8270
  830MOL0     C11920   0.886   1.935  11.079  0.4232  0.8869 -0.4758
  830MOL0     C11921   0.942   1.989  10.965  0.1068  1.1536 -0.3728
  830MOL0     C11922   0.967   2.121  10.965  0.9610 -0.0234  0.6111
  830MOL0     O11923   1.011   2.180  10.844 -0.0717 -0.4271  0.4358
  830MOL0     C11924   0.927   2.156  10.727 -0.7121  0.3779 -0.2049
  830MOL0     C11925   0.998   2.196  10.607  0.1526  0.3428  0.2173
  830MOL0     C11926   1.133   2.120  10.577  0.2586  0.4395  0.6066
  830MOL0     C11927   1.159   2.082  10.430  0.3878 -0.0361 -0.1282
  830MOL0     C11928   1.293   2.013  10.416  0.2052  0.3670  1.0274
  830MOL0     C11929   1.366   2.028  10.280  0.9901  0.3116 -0.3200
  830MOL0     C11930   1.504   2.091  10.287 -0.5985 -0.0845  0.2213
  830MOL0     C11931   1.515   2.241  10.299  0.0925 -0.2394 -0.1823
  830MOL0     N11932   1.444   2.318  10.192 -0.0508  0.3239  0.8616
  830MOL0     C11933   1.329   2.382  10.218  0.0235 -0.3439  0.7935
  830MOL0     C11934   1.302   2.435  10.090 -0.5432 -0.5604 -0.8558
  830MOL0     C11935   1.178   2.527  10.070  0.5314 -0.2285 -0.5379
  830MOL0     C11936   1.207   2.623   9.958  0.1799  0.0505 -0.4434
  830MOL0     C11937   1.313   2.735  10.004 -0.0869 -0.3826 -0.2847
  830MOL0     C11938   1.341   2.849   9.902 -0.8986 -0.8540 -0.1481
  830MOL0     O11939   1.363   2.794   9.773  0.0981  0.9700  0.1372
  830MOL0     C11940   1.309   2.874   9.671  0.1331  0.6851  0.4396
  830MOL0     C11941   1.359   3.005   9.658 -0.1464 -0.5620 -0.2942
  830MOL0     C11942   1.308   3.094   9.561 -0.5728  0.5280  0.2769
  830MOL0     C11943   1.364   3.229   9.552 -0.2965 -0.5642  0.4451
  830MOL0     C11944   1.184   3.044   9.490 -0.7638 -0.6993  0.5368
  830MOL0     C11945   1.104   3.143   9.409 -0.0009 -1.0747  0.0433
  830MOL0     O11946   0.980   3.095   9.358 -0.4359  0.2659 -0.1877
  830MOL0     C11947   0.900   3.189   9.302  0.0603  0.1037  0.8401
  830MOL0     C11948   0.850   3.167   9.170  0.3101 -0.2581 -0.0453
  830MOL0     C11949   0.767   3.262   9.104  0.1652 -0.4965  0.5677
  830MOL0     C11950   0.729   3.372   9.184 -0.3414  0.4943 -0.1684
  830MOL0     O11951   0.637   3.447   9.121 -0.3516  0.5580 -0.5047
  830MOL0     C11952   0.664   3.589   9.104  0.2179  0.4767  0.0099
  830MOL0     C11953   0.663   3.600   8.950  0.3959  0.2944  0.0309
  830MOL0     C11954   0.515   3.615   8.911  0.1273 -0.2962 -0.1040
  830MOL0     C11955   0.504   3.748   8.826  0.6543  0.5988  0.9173
  830MOL0     C11956   0.556   3.731   8.675  0.4067 -0.6161  0.1554
  830MOL0     C11957   0.482   3.836   8.583 -0.1186  1.3423  0.1456
  830MOL0     C11958   0.505   3.983   8.623  0.4700  0.2096  0.4457
  830MOL0     C11959   0.424   4.082   8.541  0.3912 -0.6020 -0.5648
  830MOL0    Cl11960   0.509   4.094   8.389  0.0964 -0.1381  0.0260
  830MOL0     C11961   0.764   3.397   9.310 -0.4516  0.1072  0.3618
  830MOL0     C11962   0.856   3.308   9.367  0.1153  0.1047  0.1350
  830MOL0     O11963   1.141   3.262   9.401 -1.1907 -0.0827 -0.2827
  830MOL0     C11964   1.152   2.909   9.498  0.2237  0.7117  0.3288
  830MOL0     C11965   1.217   2.824   9.582 -0.9857  0.4971 -0.7252
  830MOL0     N11966   1.396   2.407   9.997 -0.1500  0.6039 -0.8869
  830MOL0     N11967   1.486   2.334  10.058  0.2372 -0.4987  0.0602
  830MOL0     C11968   0.962   2.195  11.080 -0.9100  0.3770 -0.0051
  830MOL0     C11969   0.913   2.128  11.195  0.6347 -0.3659 -0.1261
  830MOL0     C11970   0.738   1.851  11.520  1.0116 -0.2267  1.5783
  830MOL0     C11971   0.669   1.739  11.462 -0.5354  1.0556 -0.5925
  830MOL0     C11972   0.602   1.637  11.533 -0.4337  0.1147 -0.2584
  830MOL0     C11973   0.589   1.667  11.673  0.4149  0.1627  0.5746
  830MOL0     O11974   0.491   1.593  11.742  0.4113 -0.2641 -0.1640
  830MOL0     C11975   0.464   1.639  11.882  0.2587  1.2034  0.3926
  830MOL0     C11976   0.363   1.541  11.948 -1.0642  0.1305 -0.0055
  830MOL0     C11977   0.402   1.393  11.980 -0.5273 -0.5480 -0.5263
  830MOL0     C11978   0.296   1.326  12.073  0.4028  0.0057 -0.7215
  830MOL0     C11979   0.166   1.314  12.010  0.4484 -0.8571 -0.3541
  830MOL0     C11980   0.048   1.309  11.977  0.7360  0.6153 -0.7339
  830MOL0     C11981   0.664   1.779  11.736  0.0226 -0.6750  0.4615
  830MOL0     C11982   0.731   1.878  11.660  0.1589  0.0446  0.5868
  830MOL0     H11983   0.856   1.831  11.090  0.4939  1.0459  1.6834
  830MOL0     H11984   0.946   1.922  10.880 -1.7698  1.4614 -0.7545
  830MOL0     H11985   0.898   2.051  10.716 -0.4779 -0.0407  2.4068
  830MOL0     H11986   0.835   2.214  10.734 -0.9712 -0.1774  1.6720
  830MOL0     H11987   0.938   2.183  10.517 -2.1542  1.2354  1.5401
  830MOL0     H11988   1.024   2.302  10.618 -0.0146  0.3143  0.9694
  830MOL0     H11989   1.220   2.172  10.617 -1.6975  0.9745  4.7328
  830MOL0     H11990   1.125   2.030  10.639 -1.3839 -0.6985 -1.1644
  830MOL0     H11991   1.083   2.015  10.389 -0.2351 -0.4680  1.6632
  830MOL0     H11992   1.143   2.171  10.369 -1.7263 -1.0878 -1.2109
  830MOL0     H11993   1.355   2.054  10.496  2.1402 -1.0213  0.3114
  830MOL0     H11994   1.270   1.908  10.437  1.7802  0.4685  3.6124
  830MOL0     H11995   1.378   1.925  10.243  0.6372  0.3102 -0.4318
  830MOL0     H11996   1.307   2.085  10.208  4.0397  1.5119 -2.0548
  830MOL0     H11997   1.550   2.043  10.374  0.6939 -0.8236 -0.8263
  830MOL0     H11998   1.564   2.075  10.197  1.0405  2.2395  0.7947
  830MOL0     H11999   1.617   2.282  10.303  0.8349 -2.0535  0.4607
  830MOL0     H12000   1.469   2.256  10.397  2.0368 -0.7950  0.8617
  830MOL0     H12001   1.284   2.390  10.316  0.8175 -4.5568  1.6832
  830MOL0     H12002   1.087   2.474  10.040  0.4864 -0.2876 -0.2986
  830MOL0     H12003   1.150   2.582  10.161  0.7087 -1.5416  0.3418
  830MOL0     H12004   1.118   2.682   9.934  1.0468  0.9669 -1.5007
  830MOL0     H12005   1.242   2.569   9.869  3.4460 -2.0462  1.8954
  830MOL0     H12006   1.412   2.699  10.036  0.0836  0.6106  0.3898
  830MOL0     H12007   1.256   2.780  10.086 -0.3656  0.9778 -1.1914
  830MOL0     H12008   1.439   2.884   9.937 -2.1767  2.2864  0.6129
  830MOL0     H12009   1.267   2.929   9.889  0.2414 -0.0028 -1.8187
  830MOL0     H12010   1.449   3.021   9.715 -1.5204  2.6849  1.2203
  830MOL0     H12011   1.464   3.234   9.597 -0.1472  4.4894  0.1349
  830MOL0     H12012   1.368   3.237   9.443  0.3422 -0.3963  0.4718
  830MOL0     H12013   1.296   3.308   9.584 -0.4487  0.4041 -2.0113
  830MOL0     H12014   0.877   3.078   9.114 -2.3140  0.0925 -2.0742
  830MOL0     H12015   0.738   3.249   9.000  1.9869 -0.6872  0.0388
  830MOL0     H12016   0.596   3.656   9.158  1.8323  0.4153  2.2354
  830MOL0     H12017   0.762   3.617   9.144  1.2365 -2.1320 -0.4604
  830MOL0     H12018   0.728   3.680   8.913  2.1314  0.5046  3.2024
  830MOL0     H12019   0.705   3.514   8.898 -1.9796 -0.5094 -0.7062
  830MOL0     H12020   0.452   3.622   9.000  0.5515 -0.8957  0.2437
  830MOL0     H12021   0.473   3.534   8.850  0.6011 -2.6266  2.4642
  830MOL0     H12022   0.397   3.770   8.821  0.7129  0.5887 -0.8488
  830MOL0     H12023   0.555   3.824   8.886  0.8020  0.7815  0.5618
  830MOL0     H12024   0.541   3.631   8.633  1.9384 -0.8879  0.2064
  830MOL0     H12025   0.663   3.752   8.683  0.7782 -2.7510  1.7670
  830MOL0     H12026   0.528   3.815   8.486  1.0636  0.1794  0.9149
  830MOL0     H12027   0.376   3.810   8.585 -0.2145  1.6862  2.2874
  830MOL0     H12028   0.613   3.999   8.614  1.0584 -3.5242 -0.9320
  830MOL0     H12029   0.473   3.996   8.726 -1.8192  2.1036 -0.4197
  830MOL0     H12030   0.417   4.176   8.597  0.1296  0.0035 -1.5898
  830MOL0     H12031   0.321   4.047   8.528 -0.3361  0.2341  2.1365
  830MOL0     H12032   0.718   3.482   9.358 -1.6758 -0.6980  0.6484
  830MOL0     H12033   0.895   3.335   9.465 -1.5217 -0.4332  0.9693
  830MOL0     H12034   1.078   2.867   9.430  0.8332 -0.4914  0.3994
  830MOL0     H12035   1.184   2.721   9.590  2.4191 -0.5968  0.8263
  830MOL0     H12036   0.981   2.301  11.072 -2.5429  0.6113 -1.3685
  830MOL0     H12037   0.896   2.186  11.285 -0.0941  0.5314 -0.8228
  830MOL0     H12038   0.693   1.720  11.357 -2.0432  0.2694 -0.8104
  830MOL0     H12039   0.544   1.554  11.493  0.7991 -0.6258 -0.5716
  830MOL0     H12040   0.548   1.638  11.952  0.1347  1.5604  0.5459
  830MOL0     H12041   0.431   1.743  11.876 -2.1163  0.4543 -0.5600
  830MOL0     H12042   0.278   1.538  11.879  1.4954 -1.7920 -3.3723
  830MOL0     H12043   0.349   1.580  12.049  3.6320  1.1544  0.4411
  830MOL0     H12044   0.498   1.386  12.030 -0.2432 -2.3372 -1.2641
  830MOL0     H12045   0.415   1.338  11.886  4.8516  1.9498 -1.6074
  830MOL0     H12046   0.285   1.372  12.172 -0.5301  2.0106 -1.6813
  830MOL0     H12047   0.334   1.229  12.105 -0.2638  0.4030  1.4497
  830MOL0     H12048  -0.055   1.296  11.952  1.1803 -2.3025 -1.4014
  830MOL0     H12049   0.674   1.797  11.843  0.0986  0.7932  0.2280
  830MOL0     H12050   0.759   1.966  11.717  0.2911  1.7190 -1.8783
  831MOL0     O12051   4.196   8.392   9.252 -0.6375  0.0026 -0.0947
  831MOL0     C12052   4.268   8.482   9.300 -0.6748 -0.0146 -0.3564
  831MOL0     O12053   4.347   8.459   9.404  0.3054 -0.3461 -0.2765
  831MOL0     C12054   4.382   8.329   9.421 -0.3949  0.0894 -0.8643
  831MOL0     C12055   4.414   8.232   9.322  0.0040 -1.5027  1.3620
  831MOL0     C12056   4.437   8.100   9.360  0.6167  0.2899  0.4300
  831MOL0     C12057   4.434   8.062   9.496 -0.9100 -0.5394 -0.3235
  831MOL0     O12058   4.460   7.936   9.538 -0.9613 -0.4167 -0.2640
  831MOL0     C12059   4.473   7.829   9.441  0.4671 -0.4972 -0.3052
  831MOL0     C12060   4.338   7.774   9.398 -0.4491 -0.3767  0.4770
  831MOL0     C12061   4.224   7.798   9.500  0.2727  0.3698 -0.1558
  831MOL0     C12062   4.107   7.696   9.480 -0.1296 -0.0275 -0.7308
  831MOL0     C12063   3.976   7.742   9.545 -0.3108  0.7491  0.6870
  831MOL0     C12064   3.995   7.773   9.698 -0.4904  0.7497 -0.4731
  831MOL0     C12065   4.043   7.651   9.788  0.8210  0.9070  1.0982
  831MOL0     C12066   3.951   7.525   9.781 -0.2499 -0.4102  0.8228
  831MOL0     N12067   4.031   7.418   9.815 -0.3956  0.3085  0.9734
  831MOL0     C12068   4.044   7.364   9.938 -0.0101  0.3926 -0.5405
  831MOL0     C12069   4.139   7.270   9.940  0.1537  0.0586 -0.1843
  831MOL0     C12070   4.167   7.178  10.056  0.1885 -1.0970 -0.3540
  831MOL0     C12071   4.095   7.047  10.042  0.0031  0.4233 -0.6641
  831MOL0     C12072   4.079   6.960  10.169 -0.0625  1.0587  0.6282
  831MOL0     C12073   4.186   6.975  10.284  0.7190 -0.5528  0.2862
  831MOL0     O12074   4.152   6.902  10.401 -0.0752 -0.2194 -0.2787
  831MOL0     C12075   4.209   6.781  10.423 -0.3698  0.1998 -0.2578
  831MOL0     C12076   4.326   6.728  10.363  0.7424  0.2404  0.2033
  831MOL0     C12077   4.366   6.599  10.395  0.2960  1.1248  0.8571
  831MOL0     C12078   4.495   6.551  10.314  0.5331 -0.2523  0.3043
  831MOL0     C12079   4.294   6.520  10.485  0.9000  0.3226 -0.8450
  831MOL0     C12080   4.335   6.378  10.522 -0.1637 -0.3544 -0.2968
  831MOL0     O12081   4.428   6.312  10.447  0.1327 -1.2754  0.2855
  831MOL0     C12082   4.461   6.184  10.462  0.4306  0.1565  0.3717
  831MOL0     C12083   4.561   6.153  10.555 -0.0141  0.0414  0.4204
  831MOL0     C12084   4.574   6.026  10.608 -0.6329 -0.4753  0.3340
  831MOL0     C12085   4.492   5.929  10.563  0.7831 -0.3391 -0.9157
  831MOL0     O12086   4.482   5.795  10.617 -0.6086 -0.6730 -0.5941
  831MOL0     C12087   4.546   5.761  10.741  0.0468 -0.5724 -0.7287
  831MOL0     C12088   4.544   5.606  10.759 -0.1264 -0.2323 -0.1760
  831MOL0     C12089   4.672   5.543  10.716  1.0039  0.2685  0.7679
  831MOL0     C12090   4.658   5.392  10.698 -0.3582 -0.3880  0.1854
  831MOL0     C12091   4.766   5.351  10.593  0.3725  1.0787  0.2491
  831MOL0     C12092   4.769   5.197  10.571 -0.8656  0.2486 -0.1919
  831MOL0     C12093   4.647   5.141  10.493  0.0144 -0.5610 -0.8281
  831MOL0     C12094   4.662   4.990  10.472  0.0511 -1.3139  0.0215
  831MOL0    Cl12095   4.655   4.920  10.630 -0.0723  0.0419  0.4262
  831MOL0     C12096   4.413   5.955  10.455  0.2282  0.2179  0.5938
  831MOL0     C12097   4.388   6.085  10.412  0.5271 -0.3272  1.1830
  831MOL0     O12098   4.264   6.321  10.606  0.0526 -0.3453 -0.4491
  831MOL0     C12099   4.179   6.579  10.555 -0.2884  0.6582  0.2608
  831MOL0     C12100   4.147   6.709  10.526  0.8581  0.1658 -0.4609
  831MOL0     N12101   4.191   7.277   9.811 -0.3225 -0.2105  0.1687
  831MOL0     N12102   4.129   7.371   9.735 -0.9463  0.6643 -0.5191
  831MOL0     C12103   4.413   8.166   9.593  0.3487  0.5060 -1.0899
  831MOL0     C12104   4.391   8.293   9.557  0.2688 -0.1224  0.7997
  831MOL0     C12105   4.259   8.616   9.242 -0.4784 -0.2464  0.2758
  831MOL0     C12106   4.195   8.641   9.130 -0.6268 -0.6977  0.0075
  831MOL0     C12107   4.210   8.765   9.061  0.5932 -0.1249 -0.0204
  831MOL0     C12108   4.267   8.873   9.121  0.0143  0.1656  0.5324
  831MOL0     O12109   4.237   8.995   9.057  0.0555  0.2285 -0.2018
  831MOL0     C12110   4.306   9.108   9.103 -0.3934 -0.7130  0.5832
  831MOL0     C12111   4.269   9.232   9.016  0.2956  0.2430  0.0271
  831MOL0     C12112   4.333   9.371   9.062  0.1756 -0.1045 -0.7368
  831MOL0     C12113   4.277   9.424   9.188  0.7849  0.0658  0.3331
  831MOL0     C12114   4.131   9.435   9.193  0.4859 -0.2655  0.0303
  831MOL0     C12115   4.008   9.450   9.205 -0.3187  0.4663 -0.2392
  831MOL0     C12116   4.333   8.846   9.246 -0.4010 -0.1019  0.1393
  831MOL0     C12117   4.337   8.725   9.308 -0.5442  0.9137 -0.1571
  831MOL0     H12118   4.418   8.254   9.215  3.2237  0.0435  1.6827
  831MOL0     H12119   4.452   8.024   9.284  2.5988  1.3475 -0.3147
  831MOL0     H12120   4.534   7.850   9.353 -1.7550 -2.6425 -2.5270
  831MOL0     H12121   4.521   7.750   9.500 -0.1390 -2.6772 -2.5647
  831MOL0     H12122   4.324   7.824   9.302 -3.1135  0.3261  1.1514
  831MOL0     H12123   4.351   7.667   9.382  2.1853  0.0630 -0.9672
  831MOL0     H12124   4.266   7.773   9.598 -0.4094  0.7770  0.2460
  831MOL0     H12125   4.193   7.903   9.496  2.6747  1.1165 -2.0837
  831MOL0     H12126   4.097   7.679   9.372  1.8279 -0.6529 -0.8613
  831MOL0     H12127   4.146   7.601   9.517  0.6064 -1.1936 -4.1165
  831MOL0     H12128   3.936   7.824   9.484 -2.5422  0.7895  2.0992
  831MOL0     H12129   3.895   7.669   9.541 -1.1302  1.6699 -2.3069
  831MOL0     H12130   4.051   7.865   9.718 -0.7516  0.6484  0.7885
  831MOL0     H12131   3.896   7.798   9.738 -0.0156 -0.3315  1.5152
  831MOL0     H12132   4.144   7.633   9.750  0.1544  3.1625 -2.1571
  831MOL0     H12133   4.047   7.671   9.896  1.0058  3.5117  0.6670
  831MOL0     H12134   3.929   7.499   9.677  4.1735  0.2321 -0.4687
  831MOL0     H12135   3.861   7.541   9.843  0.1300  1.1946  1.0148
  831MOL0     H12136   3.975   7.397  10.015 -0.6365  1.6841 -1.6069
  831MOL0     H12137   4.275   7.164  10.059  0.2362 -0.6357  0.4966
  831MOL0     H12138   4.133   7.227  10.147 -0.0352 -0.9985 -0.4892
  831MOL0     H12139   4.150   6.983   9.974 -1.2240 -0.6394 -0.7058
  831MOL0     H12140   3.999   7.069   9.993 -0.9324 -0.2821  0.7620
  831MOL0     H12141   4.081   6.853  10.148  0.6135  1.3623 -1.0452
  831MOL0     H12142   3.980   6.980  10.209  0.5300 -1.7884  3.9914
  831MOL0     H12143   4.196   7.079  10.316  2.6575 -0.9139  0.9618
  831MOL0     H12144   4.287   6.949  10.251  1.7964  3.2719  0.1355
  831MOL0     H12145   4.382   6.780  10.285  0.7208  0.2304  0.1814
  831MOL0     H12146   4.489   6.449  10.274 -0.4693 -0.2394  0.3945
  831MOL0     H12147   4.512   6.622  10.232  0.7802 -0.9289 -0.2468
  831MOL0     H12148   4.578   6.556  10.385 -0.5453  0.4689  1.5586
  831MOL0     H12149   4.628   6.232  10.590  2.7605 -0.8705 -2.4027
  831MOL0     H12150   4.641   6.017  10.693 -2.3624 -1.8827  1.6263
  831MOL0     H12151   4.644   5.797  10.776 -1.5346  0.9125  2.6637
  831MOL0     H12152   4.477   5.786  10.822  0.6107 -0.4230 -0.2857
  831MOL0     H12153   4.539   5.587  10.866  0.4002 -5.1300 -0.8313
  831MOL0     H12154   4.452   5.566  10.714 -1.5527  3.0386 -0.4883
  831MOL0     H12155   4.751   5.573  10.784  1.1084 -1.2425  1.3544
  831MOL0     H12156   4.686   5.571  10.611 -4.4768  1.0741 -0.0885
  831MOL0     H12157   4.676   5.354  10.799  0.2709  3.8918  1.8747
  831MOL0     H12158   4.555   5.371  10.670 -0.6940 -0.6706  1.5465
  831MOL0     H12159   4.865   5.391  10.619  2.1125 -0.3023 -3.5444
  831MOL0     H12160   4.744   5.392  10.494 -1.3133  1.0088  0.5609
  831MOL0     H12161   4.859   5.184  10.510 -1.7260  0.8909 -1.6338
  831MOL0     H12162   4.782   5.143  10.665 -0.2990 -0.2701 -0.5610
  831MOL0     H12163   4.625   5.196  10.401 -0.7726  0.6784  0.0621
  831MOL0     H12164   4.563   5.161  10.560  2.1492  0.0794  1.8694
  831MOL0     H12165   4.755   4.947  10.434  1.7069  1.4545  0.6684
  831MOL0     H12166   4.577   4.945  10.420 -1.9041  0.4194  1.5992
  831MOL0     H12167   4.357   5.876  10.405  1.0560  0.4025 -0.6804
  831MOL0     H12168   4.313   6.120  10.342  0.9406 -0.3446  0.7192
  831MOL0     H12169   4.119   6.519  10.622  2.8425 -1.2583  1.5451
  831MOL0     H12170   4.056   6.750  10.569  0.2235  0.1940 -1.7601
  831MOL0     H12171   4.424   8.135   9.696  2.0668  4.0274 -0.0403
  831MOL0     H12172   4.352   8.358   9.635 -0.5900  0.9237 -0.4554
  831MOL0     H12173   4.151   8.562   9.070  0.2476  0.6569 -2.5523
  831MOL0     H12174   4.168   8.780   8.962  3.1564 -0.0414 -1.1513
  831MOL0     H12175   4.277   9.125   9.207 -0.4474 -1.7179  0.7405
  831MOL0     H12176   4.415   9.094   9.103 -0.1801  0.7228  1.1383
  831MOL0     H12177   4.160   9.244   9.016  0.3165  0.4633  0.5958
  831MOL0     H12178   4.295   9.202   8.914  1.8348  1.7170 -0.0558
  831MOL0     H12179   4.306   9.438   8.980 -2.9093 -0.1254  0.1302
  831MOL0     H12180   4.440   9.358   9.081  0.0156  0.5326  0.7776
  831MOL0     H12181   4.304   9.530   9.189  0.4106  0.1976 -1.5462
  831MOL0     H12182   4.323   9.361   9.265  3.0183 -0.5138 -1.3743
  831MOL0     H12183   3.902   9.461   9.191  0.1938  3.2787 -3.1312
  831MOL0     H12184   4.385   8.925   9.299 -1.7392  0.6600  0.3690
  831MOL0     H12185   4.393   8.729   9.401  0.7292  6.1602 -0.8420
  832MOL0     O12186   1.703   3.439   6.727  0.2979 -0.4846 -0.1784
  832MOL0     C12187   1.604   3.467   6.653  0.2624 -0.2135 -0.1207
  832MOL0     O12188   1.563   3.405   6.537  0.4470  0.0064  0.1967
  832MOL0     C12189   1.616   3.281   6.497  0.6630  0.6893 -0.3689
  832MOL0     C12190   1.521   3.187   6.467 -0.0158 -0.2506  0.7002
  832MOL0     C12191   1.557   3.055   6.440  1.4085 -0.8981 -0.6173
  832MOL0     C12192   1.688   3.020   6.436 -0.0602  0.2009 -0.0279
  832MOL0     O12193   1.736   2.894   6.391  0.5080 -0.1044  0.3019
  832MOL0     C12194   1.636   2.790   6.364  0.4729 -0.7644 -0.0823
  832MOL0     C12195   1.691   2.648   6.373 -0.3140  0.3452  0.6777
  832MOL0     C12196   1.605   2.541   6.303  0.5132 -0.3187 -0.2004
  832MOL0     C12197   1.455   2.537   6.360  0.4440 -0.8291 -0.4768
  832MOL0     C12198   1.386   2.412   6.315 -0.4032 -0.7632  0.3249
  832MOL0     C12199   1.257   2.383   6.378 -0.1863 -0.0895  0.4987
  832MOL0     C12200   1.133   2.474   6.330  0.3650  0.0922  0.0492
  832MOL0     C12201   1.009   2.420   6.402  0.0811  0.6562  0.3098
  832MOL0     N12202   0.891   2.473   6.336  0.0821  0.7969 -0.8771
  832MOL0     C12203   0.782   2.508   6.410 -0.4988 -0.6245 -0.0510
  832MOL0     C12204   0.697   2.557   6.317 -0.4956 -0.3665 -0.2253
  832MOL0     C12205   0.563   2.637   6.343  0.1606  0.9818 -0.1346
  832MOL0     C12206   0.440   2.551   6.312 -0.1493 -0.2484  1.0871
  832MOL0     C12207   0.445   2.409   6.377 -0.7122  0.7509  0.3707
  832MOL0     C12208   0.429   2.413   6.519 -0.9539  0.8905  0.2566
  832MOL0     O12209   0.537   2.466   6.594 -0.4356 -0.0830 -0.2209
  832MOL0     C12210   0.534   2.447   6.735 -0.4155 -0.1976  0.1407
  832MOL0     C12211   0.659   2.477   6.804  0.2275 -0.0461 -0.1079
  832MOL0     C12212   0.672   2.463   6.939 -0.3957  0.2944  0.1670
  832MOL0     C12213   0.813   2.477   6.992 -0.3509  0.6931 -0.6382
  832MOL0     C12214   0.562   2.422   7.021  0.9234 -0.7280  1.0766
  832MOL0     C12215   0.547   2.411   7.164 -0.1377  0.2510 -0.0915
  832MOL0     O12216   0.650   2.476   7.234 -0.0740 -0.5319  0.4842
  832MOL0     C12217   0.623   2.558   7.344  1.2684  0.5478 -0.0848
  832MOL0     C12218   0.736   2.604   7.413  0.8407  0.2264  0.5618
  832MOL0     C12219   0.721   2.691   7.527 -0.6746  0.1853 -0.4702
  832MOL0     C12220   0.596   2.728   7.563  0.0834  0.4661 -0.4679
  832MOL0     O12221   0.570   2.816   7.664  0.4447  0.5697  0.6828
  832MOL0     C12222   0.589   2.952   7.628  0.4641  0.1973  0.4855
  832MOL0     C12223   0.552   3.026   7.758  0.1738  0.0913  0.4838
  832MOL0     C12224   0.640   3.159   7.771  0.7509  0.6002  0.2427
  832MOL0     C12225   0.774   3.122   7.833  0.6286  0.7172 -0.4043
  832MOL0     C12226   0.748   3.110   7.989 -1.1978  0.2997  0.3851
  832MOL0     C12227   0.864   3.044   8.053  0.5340 -0.3323 -0.3998
  832MOL0     C12228   0.830   3.012   8.205  0.7397 -1.2846 -0.3305
  832MOL0     C12229   0.937   2.949   8.287 -0.6500 -0.5901  0.8548
  832MOL0    Cl12230   1.077   3.047   8.295 -0.2889 -0.2470  0.6224
  832MOL0     C12231   0.485   2.674   7.497  0.0320  1.2489  0.1237
  832MOL0     C12232   0.499   2.594   7.390  0.0402 -0.9214  0.6366
  832MOL0     O12233   0.459   2.345   7.220 -0.6835 -0.1736 -0.4262
  832MOL0     C12234   0.442   2.397   6.944  0.8665 -0.2534  0.2640
  832MOL0     C12235   0.425   2.397   6.807  0.0293 -0.8950  1.1155
  832MOL0     N12236   0.757   2.552   6.194 -0.3481 -0.4870 -1.0985
  832MOL0     N12237   0.870   2.494   6.205  0.1584  0.5363  0.3238
  832MOL0     C12238   1.787   3.118   6.467  0.9035  1.2757 -0.2144
  832MOL0     C12239   1.754   3.244   6.504 -0.3350  0.2655  0.6916
  832MOL0     C12240   1.502   3.579   6.685 -0.1623 -0.5994 -0.8554
  832MOL0     C12241   1.386   3.612   6.616  0.4899  0.2698  0.7559
  832MOL0     C12242   1.306   3.721   6.647 -0.1957  0.8882 -0.2902
  832MOL0     C12243   1.333   3.799   6.758 -0.7032 -0.1647  0.8403
  832MOL0     O12244   1.251   3.902   6.784 -0.1416  0.3036 -0.5569
  832MOL0     C12245   1.278   3.990   6.899 -0.1286 -0.0943 -0.6866
  832MOL0     C12246   1.191   4.110   6.886 -0.0529 -0.9328  0.2027
  832MOL0     C12247   1.041   4.069   6.887 -0.5326  0.1024 -0.2889
  832MOL0     C12248   0.950   4.183   6.841  0.0647  1.2651  0.5511
  832MOL0     C12249   0.929   4.280   6.949  0.6856  0.3853  0.6197
  832MOL0     C12250   0.894   4.369   7.019 -0.9952  0.4080 -1.2699
  832MOL0     C12251   1.449   3.774   6.826  0.0271  1.0205  0.2189
  832MOL0     C12252   1.528   3.664   6.796  0.3715  0.0948  0.0407
  832MOL0     H12253   1.417   3.216   6.477 -0.3169 -2.1473  4.8721
  832MOL0     H12254   1.471   2.994   6.417 -0.2316  0.6168  1.1006
  832MOL0     H12255   1.549   2.792   6.430  1.7450  1.3094  1.6702
  832MOL0     H12256   1.602   2.796   6.260  0.4941  0.1404 -0.0426
  832MOL0     H12257   1.786   2.646   6.318 -0.5438 -0.8576  0.3074
  832MOL0     H12258   1.704   2.606   6.473  1.5556 -5.3357 -1.5443
  832MOL0     H12259   1.606   2.566   6.197  0.7775 -1.5497 -0.5069
  832MOL0     H12260   1.649   2.441   6.309  0.7662 -0.1400  1.3044
  832MOL0     H12261   1.465   2.525   6.468 -0.0325 -0.7187 -0.4174
  832MOL0     H12262   1.398   2.628   6.341  0.0510 -0.8374  0.5676
  832MOL0     H12263   1.380   2.416   6.206  0.2730  2.3482  0.3044
  832MOL0     H12264   1.449   2.331   6.354 -1.2515 -2.4062 -1.6036
  832MOL0     H12265   1.229   2.278   6.365  0.3512 -0.0629 -1.0787
  832MOL0     H12266   1.276   2.396   6.485  0.5742 -0.3732  0.4042
  832MOL0     H12267   1.144   2.579   6.359 -1.7656  0.1910  0.6902
  832MOL0     H12268   1.120   2.476   6.221  0.7829 -1.6493 -0.0657
  832MOL0     H12269   1.011   2.453   6.507 -2.8061  0.9326  0.3574
  832MOL0     H12270   1.003   2.311   6.403 -0.8310  0.6864  1.8931
  832MOL0     H12271   0.776   2.509   6.518 -1.9729 -2.5192 -0.0858
  832MOL0     H12272   0.564   2.675   6.445  0.1475  0.5419  0.0312
  832MOL0     H12273   0.567   2.728   6.282 -2.4593  0.8505 -0.6214
  832MOL0     H12274   0.440   2.547   6.203 -1.1075  2.7950  0.8868
  832MOL0     H12275   0.351   2.608   6.339  1.7482  2.1964  2.6344
  832MOL0     H12276   0.538   2.361   6.346 -2.2494 -3.0546  1.0674
  832MOL0     H12277   0.368   2.341   6.341  0.9256 -1.5592  1.0221
  832MOL0     H12278   0.416   2.311   6.557  1.6411  0.9374  1.5099
  832MOL0     H12279   0.346   2.476   6.553 -0.4556  3.2171 -2.4509
  832MOL0     H12280   0.748   2.518   6.758  2.0167  1.5817  4.2576
  832MOL0     H12281   0.846   2.382   7.036 -0.1250 -0.1662 -2.5462
  832MOL0     H12282   0.887   2.502   6.915  2.1478  2.4845  2.1617
  832MOL0     H12283   0.833   2.559   7.061 -0.5551  3.5941 -3.7440
  832MOL0     H12284   0.837   2.574   7.385  1.8253  0.0994  3.8308
  832MOL0     H12285   0.812   2.729   7.572 -0.4508  0.7368 -1.3488
  832MOL0     H12286   0.692   2.970   7.595  0.9756 -1.6511  0.9572
  832MOL0     H12287   0.520   2.987   7.551  0.0818 -0.7263  0.3985
  832MOL0     H12288   0.444   3.038   7.770 -0.4167 -1.4858 -2.3643
  832MOL0     H12289   0.577   2.964   7.844  1.7199  0.8469  0.6218
  832MOL0     H12290   0.576   3.231   7.822 -2.9985 -3.0487  1.1874
  832MOL0     H12291   0.654   3.197   7.670  0.4659  2.8675  1.0034
  832MOL0     H12292   0.806   3.024   7.798 -2.7990 -0.5694 -0.2897
  832MOL0     H12293   0.846   3.203   7.819  3.2914 -1.5820 -0.7271
  832MOL0     H12294   0.665   3.046   8.020  1.2216 -3.6649 -0.4901
  832MOL0     H12295   0.748   3.212   8.028 -1.1730  1.3223 -2.1258
  832MOL0     H12296   0.878   2.953   7.994 -0.9065  0.4358 -2.0227
  832MOL0     H12297   0.947   3.115   8.041  1.0293  0.2145  4.3138
  832MOL0     H12298   0.753   2.933   8.200  0.2897 -0.8847  0.1284
  832MOL0     H12299   0.788   3.103   8.247  4.2953 -0.4836  1.8603
  832MOL0     H12300   0.964   2.855   8.238  1.9413  0.6320 -0.2054
  832MOL0     H12301   0.914   2.915   8.389  2.0660 -1.7836  1.1421
  832MOL0     H12302   0.392   2.694   7.550 -0.4589 -0.3940 -0.0812
  832MOL0     H12303   0.414   2.539   7.349 -2.3924  1.9025  1.5655
  832MOL0     H12304   0.351   2.359   6.989  0.1993 -0.3051 -1.0878
  832MOL0     H12305   0.326   2.386   6.762  0.1589  2.3740 -0.2938
  832MOL0     H12306   1.888   3.080   6.458 -0.0704 -1.9298  0.8551
  832MOL0     H12307   1.830   3.310   6.544 -0.6233 -0.3483  2.3559
  832MOL0     H12308   1.365   3.549   6.530  1.1417  0.8148  0.1836
  832MOL0     H12309   1.215   3.743   6.591 -0.0919  1.4239 -0.2556
  832MOL0     H12310   1.256   3.932   6.989  1.7452 -1.0495 -0.7907
  832MOL0     H12311   1.386   4.009   6.901  0.6944 -4.0226  1.9140
  832MOL0     H12312   1.209   4.164   6.793 -0.5636 -1.2368 -0.0799
  832MOL0     H12313   1.203   4.176   6.973  3.3638 -1.2713  0.1124
  832MOL0     H12314   1.006   4.039   6.986 -1.5292 -1.0292 -0.9585
  832MOL0     H12315   1.023   3.992   6.810 -2.9000  1.2425 -0.9849
  832MOL0     H12316   0.848   4.145   6.834  1.0431 -1.2447 -1.9484
  832MOL0     H12317   0.992   4.226   6.750  0.3039  1.0597  0.5625
  832MOL0     H12318   0.871   4.449   7.087 -2.5817 -0.6754 -0.4561
  832MOL0     H12319   1.473   3.850   6.900 -0.5554 -0.3839  1.9404
  832MOL0     H12320   1.613   3.645   6.861 -2.3566 -1.0300  3.5987
  833MOL0     O12321  10.729   5.902   4.513 -0.2064  0.6966  0.6366
  833MOL0     C12322  10.760   5.825   4.421  0.2370  0.6446 -0.5730
  833MOL0     O12323  10.776   5.691   4.436 -0.6057  0.2903  0.5671
  833MOL0     C12324  10.781   5.630   4.555 -0.1321  0.0512 -0.0860
  833MOL0     C12325  10.867   5.669   4.658  0.4056  0.1228 -0.5608
  833MOL0     C12326  10.865   5.605   4.784 -0.0899 -0.6869  0.9073
  833MOL0     C12327  10.769   5.513   4.807  0.2109  0.3138  0.4069
  833MOL0     O12328  10.771   5.476   4.937  0.7563 -0.1037 -0.5162
  833MOL0     C12329  10.684   5.366   4.987  0.2388  0.1773 -0.0523
  833MOL0     C12330  10.668   5.368   5.140 -0.9276 -0.2352  0.0539
  833MOL0     C12331  10.803   5.382   5.209 -0.4077 -0.2813 -0.0055
  833MOL0     C12332  10.791   5.372   5.361 -0.4259 -0.5176 -0.0997
  833MOL0     C12333  10.703   5.489   5.426 -1.1534  0.8845  0.7405
  833MOL0     C12334  10.776   5.611   5.488 -0.1839  0.4514  0.6496
  833MOL0     C12335  10.828   5.706   5.372 -0.1911  0.8288 -0.6353
  833MOL0     C12336  10.717   5.755   5.280  0.4840 -1.1450  0.2747
  833MOL0     N12337  10.777   5.853   5.190  0.5154  0.3941 -0.9644
  833MOL0     C12338  10.727   5.876   5.062 -0.2472 -0.8613 -0.7551
  833MOL0     C12339  10.819   5.967   5.019  0.1689 -0.1929  0.3708
  833MOL0     C12340  10.830   6.025   4.875 -0.6372  0.4848 -0.5946
  833MOL0     C12341  10.694   6.057   4.829 -0.7137 -0.8377 -1.1278
  833MOL0     C12342  10.715   6.153   4.715  0.5225 -0.0149 -0.2450
  833MOL0     C12343  10.579   6.184   4.647  0.9544 -0.2936  0.4175
  833MOL0     O12344  10.476   6.224   4.741  0.3249  0.0689 -1.3011
  833MOL0     C12345  10.357   6.274   4.695  0.1334  0.3291 -0.0535
  833MOL0     C12346  10.326   6.316   4.564  1.2428 -0.8642 -0.1033
  833MOL0     C12347  10.196   6.372   4.536 -0.0738  0.7386 -0.2421
  833MOL0     C12348  10.182   6.395   4.380 -0.2461 -0.3334 -0.5736
  833MOL0     C12349  10.098   6.386   4.643  0.0171  1.1122 -0.0614
  833MOL0     C12350   9.958   6.401   4.604  0.1589 -0.4810  0.5382
  833MOL0     O12351   9.903   6.386   4.482 -1.4338  0.0308 -0.2653
  833MOL0     C12352   9.772   6.410   4.469  0.6665 -0.4328  0.0812
  833MOL0     C12353   9.670   6.342   4.543  0.0712 -0.5831 -0.0484
  833MOL0     C12354   9.537   6.362   4.502  0.4150  1.2963 -0.1377
  833MOL0     C12355   9.512   6.456   4.407  1.4960  0.4449 -0.5341
  833MOL0     O12356   9.388   6.477   4.352 -0.3634 -0.2015  0.5269
  833MOL0     C12357   9.276   6.485   4.440  0.2824 -0.5002  0.3023
  833MOL0     C12358   9.259   6.625   4.496  0.8375  1.1384  0.2115
  833MOL0     C12359   9.265   6.735   4.396  0.5513  0.2884  0.5236
  833MOL0     C12360   9.140   6.754   4.293 -0.1057  0.8933 -0.0792
  833MOL0     C12361   9.158   6.878   4.201 -0.0771  0.1087  0.1754
  833MOL0     C12362   9.047   6.898   4.098  0.1891 -0.3887  0.0846
  833MOL0     C12363   8.914   6.912   4.182  0.5909  0.0401  0.5131
  833MOL0     C12364   8.813   6.960   4.077  0.8304 -0.3131  0.2506
  833MOL0    Cl12365   8.657   7.016   4.141  0.0443 -0.3958 -0.0313
  833MOL0     C12366   9.605   6.524   4.342  1.0451  0.0055 -0.0825
  833MOL0     C12367   9.739   6.498   4.363 -0.2897 -0.0506 -0.3283
  833MOL0     O12368   9.893   6.439   4.704 -0.0080  0.0820 -0.1524
  833MOL0     C12369  10.137   6.346   4.773  0.3880 -0.2252  0.0802
  833MOL0     C12370  10.261   6.294   4.795 -0.6450  0.3929 -0.1494
  833MOL0     N12371  10.914   5.991   5.120 -0.1867  0.2341  0.7483
  833MOL0     N12372  10.896   5.914   5.215  0.3071  0.4642  0.5662
  833MOL0     C12373  10.676   5.476   4.712  0.3346 -0.2935 -0.3818
  833MOL0     C12374  10.684   5.531   4.579 -1.1056  0.7541 -0.8264
  833MOL0     C12375  10.778   5.879   4.285  0.1047  0.3150  0.9014
  833MOL0     C12376  10.781   5.808   4.160 -0.0221 -0.0838 -0.3332
  833MOL0     C12377  10.797   5.880   4.047 -0.3327  0.1675 -0.1349
  833MOL0     C12378  10.826   6.016   4.042  0.8491 -0.3336 -0.1495
  833MOL0     O12379  10.846   6.073   3.921  0.6520  0.3675  0.0046
  833MOL0     C12380  10.918   6.205   3.910 -0.2365  0.1415  0.2780
  833MOL0     C12381  10.999   6.213   3.773 -0.3981  0.5523 -0.1202
  833MOL0     C12382  10.903   6.204   3.652 -0.5050  0.2679 -0.8289
  833MOL0     C12383  10.968   6.240   3.520  0.3926 -0.4956  0.6417
  833MOL0     C12384  11.057   6.138   3.463  0.2295  0.2145  0.7505
  833MOL0     C12385  11.139   6.061   3.410  1.2882 -0.3010  0.6560
  833MOL0     C12386  10.833   6.077   4.159  0.4972 -0.4316  0.1019
  833MOL0     C12387  10.806   6.018   4.285  0.8419  0.1291 -0.2144
  833MOL0     H12388  10.947   5.740   4.639  2.6730 -2.1982 -0.1884
  833MOL0     H12389  10.929   5.636   4.865 -0.5166  0.6904  0.7441
  833MOL0     H12390  10.585   5.354   4.943  1.7733 -2.7536 -3.1651
  833MOL0     H12391  10.742   5.274   4.976 -0.4495 -0.9565  4.0478
  833MOL0     H12392  10.606   5.455   5.161 -2.3101 -1.1453 -0.1629
  833MOL0     H12393  10.613   5.280   5.176  0.6566 -1.5730 -0.6289
  833MOL0     H12394  10.871   5.302   5.177 -0.2494  0.1321 -0.7307
  833MOL0     H12395  10.846   5.481   5.189  1.6753 -1.1474 -0.0964
  833MOL0     H12396  10.755   5.273   5.393 -2.5607  0.1955 -0.1802
  833MOL0     H12397  10.894   5.376   5.399  0.1533  0.8714 -1.7141
  833MOL0     H12398  10.617   5.516   5.364 -2.5863 -0.1583  2.1778
  833MOL0     H12399  10.641   5.455   5.510  1.4438  1.2305  2.9350
  833MOL0     H12400  10.703   5.673   5.541  0.4535  0.0355  2.0789
  833MOL0     H12401  10.867   5.590   5.546  1.3962  0.1169 -1.7805
  833MOL0     H12402  10.884   5.784   5.424  1.9655  0.1646 -1.8466
  833MOL0     H12403  10.893   5.657   5.300 -1.6985 -0.1290 -1.3979
  833MOL0     H12404  10.634   5.795   5.338 -0.4245 -2.9778  0.2990
  833MOL0     H12405  10.680   5.680   5.209  0.4284  1.7147 -2.9662
  833MOL0     H12406  10.634   5.840   5.018 -0.2595 -3.6995  1.3294
  833MOL0     H12407  10.902   6.107   4.876 -0.1116  0.0728  1.8118
  833MOL0     H12408  10.877   5.952   4.809 -1.3609  0.4842 -1.1255
  833MOL0     H12409  10.652   6.114   4.913  1.0922 -1.8785  0.5652
  833MOL0     H12410  10.647   5.961   4.807  0.3528 -1.7300  0.2965
  833MOL0     H12411  10.797   6.135   4.645  1.6031  3.6404 -0.1552
  833MOL0     H12412  10.757   6.241   4.765 -0.7486 -0.3292  1.4612
  833MOL0     H12413  10.544   6.098   4.590  2.0954  0.4415 -1.4554
  833MOL0     H12414  10.585   6.268   4.578 -6.4773  0.2386 -0.3996
  833MOL0     H12415  10.400   6.308   4.485  0.7333 -1.5330 -0.5255
  833MOL0     H12416  10.110   6.322   4.343 -2.6019 -0.9855  4.5189
  833MOL0     H12417  10.134   6.492   4.360  2.1384  0.8907 -0.6728
  833MOL0     H12418  10.277   6.389   4.326  0.1401  0.4329  0.0053
  833MOL0     H12419   9.691   6.275   4.625 -0.8652 -0.2724  0.4551
  833MOL0     H12420   9.457   6.305   4.547  0.2243  0.2426 -1.7065
  833MOL0     H12421   9.185   6.455   4.387 -0.0988 -1.1942  1.3190
  833MOL0     H12422   9.282   6.409   4.518  1.2827  1.1833  1.9383
  833MOL0     H12423   9.166   6.641   4.551 -0.3407  1.8864 -1.8913
  833MOL0     H12424   9.345   6.632   4.564  1.5154  0.3486 -0.5468
  833MOL0     H12425   9.354   6.722   4.333 -0.0463  1.0512 -0.5038
  833MOL0     H12426   9.275   6.836   4.438  0.9431  0.9898 -1.1593
  833MOL0     H12427   9.118   6.665   4.234 -1.5213  0.8186  0.5073
  833MOL0     H12428   9.057   6.770   4.363  1.6876 -1.6003  2.9405
  833MOL0     H12429   9.249   6.858   4.143  1.1353 -1.4023  2.4081
  833MOL0     H12430   9.175   6.964   4.266  2.8323 -0.0195 -0.2874
  833MOL0     H12431   9.065   6.987   4.039  2.6234 -0.4219  0.6997
  833MOL0     H12432   9.041   6.822   4.020  1.3853  0.9970 -1.4040
  833MOL0     H12433   8.928   6.990   4.258 -0.4402 -0.1873  0.9602
  833MOL0     H12434   8.857   6.830   4.228 -0.9760  1.0215  0.3982
  833MOL0     H12435   8.786   6.882   4.006 -1.0515  0.4814  0.0150
  833MOL0     H12436   8.850   7.044   4.017 -1.5658 -1.1891 -2.7038
  833MOL0     H12437   9.577   6.597   4.266 -2.7066 -2.6992 -1.6138
  833MOL0     H12438   9.823   6.547   4.315  1.7966 -3.3961 -0.3485
  833MOL0     H12439  10.068   6.349   4.856  0.6596 -3.3290  0.5155
  833MOL0     H12440  10.289   6.270   4.897  1.9453 -2.3000 -1.3592
  833MOL0     H12441  10.596   5.405   4.731  0.9194 -1.6290 -2.5224
  833MOL0     H12442  10.604   5.509   4.509 -1.0487  2.2458 -1.4065
  833MOL0     H12443  10.753   5.703   4.159 -0.8628  0.1403 -0.6008
  833MOL0     H12444  10.789   5.816   3.959 -0.0557  2.2854 -1.7910
  833MOL0     H12445  10.856   6.295   3.910 -0.1923  0.2245 -1.8056
  833MOL0     H12446  10.987   6.213   3.995  0.4370 -2.3352  0.0612
  833MOL0     H12447  11.074   6.133   3.777 -1.1907 -0.3131 -1.5273
  833MOL0     H12448  11.058   6.305   3.773 -0.9947  0.9413 -0.2366
  833MOL0     H12449  10.816   6.267   3.676 -1.8633 -2.0095  0.5789
  833MOL0     H12450  10.860   6.106   3.631 -1.9586  1.3568 -3.3981
  833MOL0     H12451  11.007   6.342   3.516 -1.2187  0.1333  0.0546
  833MOL0     H12452  10.894   6.253   3.440 -0.3691  1.5223  1.5877
  833MOL0     H12453  11.198   5.981   3.370  1.5824  0.4729 -0.5145
  833MOL0     H12454  10.856   6.183   4.165  2.0733 -0.7675  0.5675
  833MOL0     H12455  10.816   6.083   4.372 -2.6991 -0.9105  1.1786
  834MOL0     O12456   9.545   3.358   6.391 -0.6255 -0.4903 -0.2003
  834MOL0     C12457   9.463   3.413   6.462 -0.0070  1.2600 -1.0799
  834MOL0     O12458   9.332   3.448   6.429 -0.1901  0.1741  0.1643
  834MOL0     C12459   9.273   3.437   6.303 -0.0793 -0.0937 -0.0718
  834MOL0     C12460   9.199   3.541   6.244  0.1890 -1.3119 -0.2471
  834MOL0     C12461   9.129   3.524   6.132  1.1477 -0.3823  0.3873
  834MOL0     C12462   9.126   3.396   6.067 -0.3773 -0.1525  0.2227
  834MOL0     O12463   9.062   3.373   5.947  0.0212 -0.6542  0.1143
  834MOL0     C12464   9.079   3.253   5.868 -0.5613  0.0659  0.4888
  834MOL0     C12465   9.226   3.246   5.817  0.0977  0.0814 -0.1563
  834MOL0     C12466   9.247   3.162   5.692 -0.5438  1.0947  0.6667
  834MOL0     C12467   9.226   3.011   5.719 -0.4003 -0.8335  1.0136
  834MOL0     C12468   9.284   2.913   5.615  0.4316  0.1449 -0.7950
  834MOL0     C12469   9.433   2.932   5.583 -0.7468  0.3819 -1.3423
  834MOL0     C12470   9.493   2.834   5.488  0.1543  0.0928 -0.0077
  834MOL0     C12471   9.579   2.732   5.572  1.1171 -0.0980 -0.9791
  834MOL0     N12472   9.629   2.629   5.487 -0.1997  0.4806 -0.0991
  834MOL0     C12473   9.565   2.528   5.435  0.5663  0.3819  0.0589
  834MOL0     C12474   9.660   2.453   5.364  0.0224  0.5236 -0.6131
  834MOL0     C12475   9.635   2.326   5.284 -1.4172  0.3015 -0.0716
  834MOL0     C12476   9.603   2.343   5.145 -0.4681 -0.3463 -0.0962
  834MOL0     C12477   9.733   2.347   5.052 -0.3217  0.3825  0.2113
  834MOL0     C12478   9.816   2.215   5.052  0.0557  0.0868 -0.4482
  834MOL0     O12479   9.739   2.120   4.993 -0.1588 -0.5189 -0.4242
  834MOL0     C12480   9.779   1.989   4.988  0.6307  0.9902 -0.3627
  834MOL0     C12481   9.916   1.959   4.996  0.5061  0.4970  0.8253
  834MOL0     C12482   9.958   1.826   4.983 -0.3647  0.3383  0.2091
  834MOL0     C12483  10.110   1.801   4.987 -1.1201  0.4071 -0.1735
  834MOL0     C12484   9.858   1.724   4.962  0.2734  0.4348 -0.1869
  834MOL0     C12485   9.891   1.580   4.954 -0.8173 -0.5403  0.2330
  834MOL0     O12486   9.909   1.531   4.829  0.2076  0.1019 -0.3173
  834MOL0     C12487   9.904   1.391   4.815 -0.0174 -0.2581  0.7031
  834MOL0     C12488   9.970   1.295   4.895  0.7759  0.3051  0.2223
  834MOL0     C12489   9.962   1.159   4.871  0.0856 -0.5842 -0.2196
  834MOL0     C12490   9.881   1.119   4.758 -0.0753  0.0047  0.7812
  834MOL0     O12491   9.860   0.983   4.730 -0.1036  0.0267  0.0707
  834MOL0     C12492   9.904   0.878   4.817 -0.2632 -1.1382 -0.0056
  834MOL0     C12493   9.815   0.752   4.816 -0.5278 -0.5259 -0.6834
  834MOL0     C12494   9.808   0.696   4.678  0.7629  0.2960  0.4013
  834MOL0     C12495   9.689   0.597   4.644 -0.4708 -0.3036  0.2156
  834MOL0     C12496   9.695   0.465   4.712  0.5366  0.1962 -0.7706
  834MOL0     C12497   9.766   0.354   4.623 -0.7093  0.0368 -0.1545
  834MOL0     C12498   9.747   0.218   4.693 -0.1883  0.2284  0.9081
  834MOL0     C12499   9.818   0.111   4.618  0.2944 -0.3537  0.9095
  834MOL0    Cl12500   9.814   0.116   4.431 -0.0531  0.2976  0.1771
  834MOL0     C12501   9.814   1.214   4.684 -0.3586 -1.2502  0.3248
  834MOL0     C12502   9.832   1.347   4.702 -0.8584 -0.8178 -1.0027
  834MOL0     O12503   9.920   1.521   5.061  0.4727 -0.1000  0.6616
  834MOL0     C12504   9.721   1.754   4.958  0.3053  0.1014 -0.7546
  834MOL0     C12505   9.681   1.889   4.945 -0.7077 -0.2427 -0.0111
  834MOL0     N12506   9.781   2.515   5.373  0.3051 -0.8115  0.1387
  834MOL0     N12507   9.763   2.618   5.449 -0.5307  0.3124  0.0071
  834MOL0     C12508   9.198   3.296   6.128  0.1593 -0.2483 -0.2819
  834MOL0     C12509   9.277   3.313   6.238 -0.6961  0.1994 -0.6342
  834MOL0     C12510   9.498   3.429   6.606 -0.4357 -0.3367  0.0096
  834MOL0     C12511   9.633   3.430   6.652 -0.1500  0.7339 -0.0499
  834MOL0     C12512   9.662   3.440   6.787  0.0545 -0.8743  0.8647
  834MOL0     C12513   9.565   3.446   6.883  0.8395 -0.2661 -0.2659
  834MOL0     O12514   9.603   3.474   7.014  0.2772 -0.5868  0.8185
  834MOL0     C12515   9.512   3.479   7.125 -0.8964 -0.1331 -0.6282
  834MOL0     C12516   9.586   3.508   7.252 -0.0695 -0.2634  0.9249
  834MOL0     C12517   9.493   3.512   7.372  0.6674  0.2875  0.8832
  834MOL0     C12518   9.565   3.536   7.497 -0.5262 -0.4594 -0.1783
  834MOL0     C12519   9.507   3.440   7.592 -0.5886 -0.1089  1.0337
  834MOL0     C12520   9.474   3.364   7.675 -0.2523  0.0939  0.4777
  834MOL0     C12521   9.431   3.441   6.842  0.7571 -1.1387 -0.0177
  834MOL0     C12522   9.399   3.439   6.705 -0.5262  0.3356  0.2795
  834MOL0     H12523   9.190   3.630   6.306 -2.3331 -0.0055 -2.2826
  834MOL0     H12524   9.072   3.604   6.086 -0.4079 -1.1551  0.8874
  834MOL0     H12525   9.045   3.166   5.924  0.5957 -1.8624 -1.6212
  834MOL0     H12526   9.021   3.254   5.775  0.0674 -1.1595  0.0678
  834MOL0     H12527   9.236   3.352   5.791  1.4883  0.2442  0.8869
  834MOL0     H12528   9.303   3.230   5.893  1.2753  1.6924 -0.9416
  834MOL0     H12529   9.181   3.200   5.613  0.5908  1.8360  0.0562
  834MOL0     H12530   9.350   3.181   5.660 -0.7692 -0.0360 -0.8356
  834MOL0     H12531   9.275   2.985   5.813  1.6939 -3.8963 -0.7327
  834MOL0     H12532   9.117   3.003   5.720 -0.5839  0.4818 -1.7765
  834MOL0     H12533   9.266   2.814   5.657  0.1562  0.7740  0.6248
  834MOL0     H12534   9.215   2.930   5.532 -0.8598 -0.0364  0.2144
  834MOL0     H12535   9.439   3.033   5.543 -2.2737  1.2886  0.5647
  834MOL0     H12536   9.478   2.924   5.682 -0.5809  2.9781 -1.1508
  834MOL0     H12537   9.425   2.774   5.426  0.0220  1.6678 -1.4746
  834MOL0     H12538   9.557   2.880   5.412  2.2407 -1.4048  0.7288
  834MOL0     H12539   9.514   2.697   5.653  1.7330 -0.8962 -0.8142
  834MOL0     H12540   9.663   2.791   5.609 -0.6068  0.9598  1.6218
  834MOL0     H12541   9.465   2.498   5.465  0.2983 -1.5059 -2.3568
  834MOL0     H12542   9.719   2.256   5.295 -1.2504 -0.0611 -2.8886
  834MOL0     H12543   9.554   2.273   5.334 -0.5922 -1.0166 -0.0693
  834MOL0     H12544   9.557   2.442   5.134 -0.9550 -0.6483 -0.9455
  834MOL0     H12545   9.523   2.273   5.117  1.1010 -2.1276 -0.2990
  834MOL0     H12546   9.795   2.434   5.075 -1.3878  2.6720 -4.5340
  834MOL0     H12547   9.687   2.368   4.956 -2.2985  3.2945  1.6490
  834MOL0     H12548   9.856   2.195   5.152 -0.0175  3.5352  0.3984
  834MOL0     H12549   9.902   2.234   4.988  0.8029  0.8255  0.7306
  834MOL0     H12550   9.984   2.039   5.023 -0.4026  1.8220 -0.6322
  834MOL0     H12551  10.137   1.776   4.884  0.5542  1.4081 -0.0072
  834MOL0     H12552  10.172   1.886   5.017  2.6729 -1.7688 -1.3122
  834MOL0     H12553  10.123   1.710   5.046 -1.1241 -1.0908 -2.3795
  834MOL0     H12554  10.038   1.330   4.971  0.9264  4.3666 -1.5166
  834MOL0     H12555  10.015   1.088   4.933 -0.6543 -2.4627 -1.6637
  834MOL0     H12556  10.004   0.857   4.778 -1.1204 -2.7813 -1.4419
  834MOL0     H12557   9.910   0.914   4.920 -0.6497  2.1533 -1.0214
  834MOL0     H12558   9.849   0.680   4.891 -0.2660 -0.5407 -0.8150
  834MOL0     H12559   9.718   0.781   4.858 -0.3440 -1.1868  0.2338
  834MOL0     H12560   9.898   0.637   4.660  0.2877  0.2991 -2.4740
  834MOL0     H12561   9.800   0.776   4.604 -0.2975  0.0381  0.2123
  834MOL0     H12562   9.602   0.655   4.677  0.0961  0.8544 -0.2446
  834MOL0     H12563   9.685   0.577   4.536  1.5435  0.2979 -0.0163
  834MOL0     H12564   9.591   0.433   4.725 -0.2812  1.6543 -3.1307
  834MOL0     H12565   9.757   0.480   4.801 -0.5504  2.3446 -0.3021
  834MOL0     H12566   9.716   0.358   4.526 -3.2243  1.1495  1.0672
  834MOL0     H12567   9.872   0.375   4.608 -0.2146  0.0248  2.7125
  834MOL0     H12568   9.643   0.186   4.700  0.7404 -3.1323  0.9582
  834MOL0     H12569   9.801   0.229   4.788  2.5427  1.9754 -0.6976
  834MOL0     H12570   9.777   0.012   4.638 -0.8913 -1.1928 -4.2572
  834MOL0     H12571   9.924   0.100   4.646  0.7366  2.2621  0.4729
  834MOL0     H12572   9.738   1.191   4.609  1.2392  0.3314 -1.9268
  834MOL0     H12573   9.780   1.423   4.646  1.5730  2.5298  0.9210
  834MOL0     H12574   9.661   1.666   4.937  0.7643 -0.5656  0.6418
  834MOL0     H12575   9.580   1.919   4.921 -0.6485  0.0897  0.1338
  834MOL0     H12576   9.199   3.198   6.083  1.3927 -0.7746  0.8212
  834MOL0     H12577   9.325   3.228   6.286 -0.1893 -0.4016 -2.1351
  834MOL0     H12578   9.711   3.402   6.583 -2.8839  1.3436 -3.7015
  834MOL0     H12579   9.765   3.424   6.817  0.6865  2.5615  0.8794
  834MOL0     H12580   9.434   3.554   7.107 -0.1173  0.3710 -2.1125
  834MOL0     H12581   9.454   3.388   7.142 -1.7379  0.8695  2.7711
  834MOL0     H12582   9.634   3.606   7.244  0.2833 -0.5587 -0.9890
  834MOL0     H12583   9.660   3.430   7.270 -1.4479 -1.8407  0.0144
  834MOL0     H12584   9.439   3.417   7.380  2.7555 -0.8371  2.3264
  834MOL0     H12585   9.427   3.596   7.348  2.9820  0.7811 -5.8607
  834MOL0     H12586   9.557   3.634   7.546  3.4119 -1.2512  2.4997
  834MOL0     H12587   9.670   3.522   7.472 -1.0303 -2.8520 -1.2215
  834MOL0     H12588   9.434   3.296   7.747 -0.2524  0.5637  0.9323
  834MOL0     H12589   9.347   3.448   6.911 -1.0250 -1.4302 -2.0292
  834MOL0     H12590   9.295   3.438   6.677 -0.8300  2.5088  1.0700
  835MOL0     O12591   9.401   3.794   7.195 -0.0541 -0.3182 -0.4511
  835MOL0     C12592   9.311   3.874   7.171 -0.1561 -1.0924  0.6897
  835MOL0     O12593   9.278   3.978   7.251  0.1839 -0.2076 -0.2295
  835MOL0     C12594   9.344   3.968   7.370  0.4370  0.6188  0.3527
  835MOL0     C12595   9.316   3.871   7.471 -0.7437 -0.6256 -0.4741
  835MOL0     C12596   9.398   3.862   7.581  0.2368  0.2877  0.2234
  835MOL0     C12597   9.503   3.953   7.602 -0.8302 -0.0121 -0.1970
  835MOL0     O12598   9.569   3.932   7.719  0.4743  0.0571 -0.5193
  835MOL0     C12599   9.705   3.964   7.727  0.7124 -0.2615 -0.1950
  835MOL0     C12600   9.771   3.887   7.835 -0.5375  0.5994 -0.5859
  835MOL0     C12601   9.698   3.759   7.896  0.1054  0.1538 -0.6344
  835MOL0     C12602   9.748   3.732   8.038  0.5904  0.7109  0.5021
  835MOL0     C12603   9.688   3.599   8.096 -0.0981 -0.4623 -0.1758
  835MOL0     C12604   9.687   3.604   8.245  0.6702  0.5231 -0.3172
  835MOL0     C12605   9.600   3.495   8.310  1.9251 -0.1815 -0.0167
  835MOL0     C12606   9.635   3.468   8.453 -1.2237 -0.4404 -0.5780
  835MOL0     N12607   9.551   3.556   8.538 -0.6003  0.7678 -0.6325
  835MOL0     C12608   9.565   3.687   8.558 -0.2361 -0.1090  1.2227
  835MOL0     C12609   9.480   3.714   8.660 -0.4254  0.5548  0.1739
  835MOL0     C12610   9.463   3.842   8.729 -0.2006  0.6443  0.6507
  835MOL0     C12611   9.526   3.856   8.869 -0.2516 -0.0169 -0.2394
  835MOL0     C12612   9.429   3.829   8.989  0.0224 -0.0272  0.2132
  835MOL0     C12613   9.498   3.845   9.129  0.2785 -0.0491 -1.2252
  835MOL0     O12614   9.620   3.764   9.134 -0.2024  0.4599 -0.1215
  835MOL0     C12615   9.726   3.827   9.189  0.6948 -0.1355  0.5553
  835MOL0     C12616   9.849   3.772   9.162 -0.5774  0.0463  0.5735
  835MOL0     C12617   9.970   3.823   9.210 -1.2349 -0.0071  1.1886
  835MOL0     C12618  10.103   3.770   9.161 -0.5690 -0.4748  0.4084
  835MOL0     C12619   9.969   3.930   9.300 -0.9910  0.9876  0.2168
  835MOL0     C12620  10.088   3.998   9.361 -0.0593  0.3642  0.2006
  835MOL0     O12621  10.066   4.114   9.433  0.2335 -0.2682 -0.3393
  835MOL0     C12622  10.181   4.177   9.472  0.4572 -0.8459  0.0348
  835MOL0     C12623  10.205   4.312   9.449  0.2442  0.0892  0.0774
  835MOL0     C12624  10.317   4.386   9.511  0.7269  0.0915  0.0753
  835MOL0     C12625  10.404   4.312   9.594  0.2792 -0.5801  0.5536
  835MOL0     O12626  10.518   4.357   9.635  0.3502 -0.1816 -0.9129
  835MOL0     C12627  10.531   4.490   9.685 -0.6510 -0.2296  1.2953
  835MOL0     C12628  10.671   4.498   9.755  0.1435  0.5598 -0.1902
  835MOL0     C12629  10.700   4.372   9.842 -0.0798  0.1186  0.5338
  835MOL0     C12630  10.829   4.399   9.915  0.8371 -0.4480 -0.2257
  835MOL0     C12631  10.883   4.269   9.965 -0.6541 -0.1988  0.9218
  835MOL0     C12632  10.941   4.179   9.849 -0.7109  0.7429 -0.3827
  835MOL0     C12633  11.021   4.059   9.905  0.2331 -0.5622  0.0030
  835MOL0     C12634  11.088   3.976   9.791 -0.3384 -0.0591 -0.1626
  835MOL0    Cl12635  11.160   3.821   9.871 -0.5073  0.2935 -0.0972
  835MOL0     C12636  10.374   4.171   9.624 -1.0403 -0.4499 -0.2880
  835MOL0     C12637  10.265   4.112   9.567 -0.0180 -0.5842 -0.1852
  835MOL0     O12638  10.195   3.948   9.349  0.4334  0.9735  0.3604
  835MOL0     C12639   9.843   3.980   9.332  0.5714  0.5384 -0.0292
  835MOL0     C12640   9.724   3.926   9.285  0.6948 -1.1894  0.5991
  835MOL0     N12641   9.408   3.596   8.695 -0.1820 -0.0877 -0.4859
  835MOL0     N12642   9.448   3.502   8.619 -0.2399  0.0679  0.7676
  835MOL0     C12643   9.535   4.051   7.503 -0.4826 -0.5191  0.5420
  835MOL0     C12644   9.452   4.051   7.387  0.3880  0.0418  1.2376
  835MOL0     C12645   9.238   3.864   7.042 -1.3992  0.6701  0.3084
  835MOL0     C12646   9.254   3.753   6.951  0.1479 -0.0623 -0.3528
  835MOL0     C12647   9.194   3.756   6.830 -0.6989  0.5972 -0.7059
  835MOL0     C12648   9.104   3.856   6.798 -1.1721 -0.5643 -0.1859
  835MOL0     O12649   9.043   3.842   6.680  0.1377  0.1200  0.0820
  835MOL0     C12650   8.927   3.924   6.657  0.7132  0.5490 -0.1201
  835MOL0     C12651   8.878   3.893   6.516 -0.9698 -0.0296  0.6490
  835MOL0     C12652   8.729   3.927   6.492  0.2642 -0.1666  0.7485
  835MOL0     C12653   8.660   3.834   6.389 -0.2892 -1.0710 -0.9323
  835MOL0     C12654   8.704   3.861   6.251  0.7707  0.5370 -0.0089
  835MOL0     C12655   8.725   3.873   6.136 -0.7592  0.1901  0.4908
  835MOL0     C12656   9.081   3.963   6.890 -0.0216  0.0300  0.2944
  835MOL0     C12657   9.143   3.958   7.014  0.4538  0.2705  0.6811
  835MOL0     H12658   9.236   3.800   7.449 -0.7475 -0.6320 -0.4414
  835MOL0     H12659   9.373   3.780   7.647  0.7659 -0.3398 -0.3345
  835MOL0     H12660   9.755   3.933   7.635  0.2380 -0.4150 -0.4081
  835MOL0     H12661   9.721   4.072   7.736 -3.4119  0.4288  0.8377
  835MOL0     H12662   9.873   3.854   7.812 -0.5685  0.0897 -0.0159
  835MOL0     H12663   9.783   3.953   7.921 -1.3376 -1.3551  1.1321
  835MOL0     H12664   9.594   3.786   7.915  0.5864  1.5379  0.1778
  835MOL0     H12665   9.716   3.674   7.829 -1.5075  2.1468 -3.8266
  835MOL0     H12666   9.858   3.726   8.040  0.6549  1.4379  0.0143
  835MOL0     H12667   9.716   3.814   8.103  2.0526  1.2043  0.6374
  835MOL0     H12668   9.583   3.589   8.064 -0.1529  0.7202 -0.3883
  835MOL0     H12669   9.738   3.512   8.052  1.3105  1.0889 -1.7766
  835MOL0     H12670   9.790   3.580   8.273  0.3115  0.9612  1.4540
  835MOL0     H12671   9.659   3.701   8.288  2.2932 -0.4744  3.3755
  835MOL0     H12672   9.495   3.527   8.314  1.4466 -1.7902  1.2361
  835MOL0     H12673   9.592   3.403   8.250 -2.4111  0.6407 -1.1075
  835MOL0     H12674   9.740   3.480   8.482 -1.1694 -1.0711 -0.4940
  835MOL0     H12675   9.604   3.366   8.480 -5.2144  0.5034 -1.0795
  835MOL0     H12676   9.649   3.748   8.529 -0.0945 -0.2807  1.2731
  835MOL0     H12677   9.511   3.918   8.668  1.5652 -1.7132 -1.0997
  835MOL0     H12678   9.359   3.876   8.732  0.0849  1.5814  0.2931
  835MOL0     H12679   9.562   3.959   8.878 -0.1529 -0.1102  0.4383
  835MOL0     H12680   9.607   3.783   8.875 -0.6308 -0.3981  0.3717
  835MOL0     H12681   9.382   3.730   8.986  1.1639 -0.6193 -3.3950
  835MOL0     H12682   9.342   3.893   8.977  0.2348  0.1542 -0.4178
  835MOL0     H12683   9.434   3.810   9.211  4.1799 -1.3093  1.6129
  835MOL0     H12684   9.486   3.953   9.145  0.7861  0.1746 -2.2856
  835MOL0     H12685   9.845   3.686   9.097 -0.8822  0.2815  0.2772
  835MOL0     H12686  10.101   3.726   9.061  2.2749  1.3477 -0.6016
  835MOL0     H12687  10.168   3.858   9.147  3.1915 -2.6528  2.3879
  835MOL0     H12688  10.141   3.700   9.236 -3.0484 -0.7596  1.4786
  835MOL0     H12689  10.133   4.349   9.377  0.4698  0.3285 -0.0251
  835MOL0     H12690  10.337   4.492   9.494 -0.8768  0.6180  1.1703
  835MOL0     H12691  10.526   4.566   9.607  1.3865  1.1638  2.4339
  835MOL0     H12692  10.452   4.508   9.759 -1.4103  0.6072  0.3134
  835MOL0     H12693  10.760   4.503   9.692  0.8154  2.1985  0.8331
  835MOL0     H12694  10.672   4.586   9.820  1.2618 -0.6185  1.4836
  835MOL0     H12695  10.697   4.279   9.784  2.9364 -0.2301  0.7870
  835MOL0     H12696  10.628   4.361   9.923  1.0391 -0.8483  1.4153
  835MOL0     H12697  10.898   4.451   9.847 -0.5463  0.7851 -0.7436
  835MOL0     H12698  10.801   4.458  10.003 -2.3154 -3.0014  0.6745
  835MOL0     H12699  10.806   4.222  10.027 -1.9556  2.2191  1.2429
  835MOL0     H12700  10.969   4.287  10.031  0.0052 -1.6522  0.5233
  835MOL0     H12701  10.854   4.142   9.794  0.5809  0.7063 -2.4594
  835MOL0     H12702  11.000   4.248   9.789 -3.1683  1.3204 -2.2844
  835MOL0     H12703  10.959   3.997   9.971 -0.0244 -3.9957 -3.1399
  835MOL0     H12704  11.097   4.095   9.975 -2.0939  1.9122  1.4481
  835MOL0     H12705  11.173   4.038   9.760 -0.7485  1.1089  0.9906
  835MOL0     H12706  11.015   3.950   9.714  0.7980  0.6516 -1.5325
  835MOL0     H12707  10.431   4.109   9.694 -1.4922 -0.2845  0.2361
  835MOL0     H12708  10.238   4.011   9.595 -1.9014  0.2830  1.3164
  835MOL0     H12709   9.827   4.067   9.395 -1.2121  1.7964 -2.0576
  835MOL0     H12710   9.628   3.971   9.310  0.1676 -0.4683 -2.3532
  835MOL0     H12711   9.619   4.117   7.522 -1.9808  0.4203  5.0346
  835MOL0     H12712   9.476   4.132   7.318 -0.8830  0.2759  1.0401
  835MOL0     H12713   9.336   3.684   6.966 -0.4364 -0.2811  2.4698
  835MOL0     H12714   9.228   3.692   6.750  1.5393 -1.8010  1.9497
  835MOL0     H12715   8.844   3.889   6.719 -0.3898 -0.0039 -1.8489
  835MOL0     H12716   8.952   4.030   6.666  5.6486 -0.5506  2.3661
  835MOL0     H12717   8.880   3.785   6.504 -2.5395 -0.2790  2.2830
  835MOL0     H12718   8.947   3.940   6.445  0.9901 -2.1574  1.0280
  835MOL0     H12719   8.713   4.029   6.456  1.3426 -0.4879 -0.7567
  835MOL0     H12720   8.668   3.910   6.581 -2.6584 -1.6060 -1.3443
  835MOL0     H12721   8.553   3.855   6.396  0.3805  2.6895  1.8262
  835MOL0     H12722   8.667   3.728   6.412 -2.0683 -0.9560  0.3785
  835MOL0     H12723   8.745   3.893   6.033  0.3354  2.5239  1.0730
  835MOL0     H12724   8.989   4.020   6.877 -0.1739 -0.4247 -0.7406
  835MOL0     H12725   9.120   4.045   7.075 -1.6966  0.6073 -0.5053
  836MOL0     O12726   0.168   2.624   2.197  0.3471  0.2910  0.1193
  836MOL0     C12727   0.204   2.505   2.211 -0.6645 -1.1497 -1.1311
  836MOL0     O12728   0.130   2.391   2.218 -0.1665  0.4808  0.8817
  836MOL0     C12729  -0.002   2.397   2.206  0.7513  0.4599 -0.1580
  836MOL0     C12730  -0.074   2.475   2.116  0.5714 -0.7700  0.3563
  836MOL0     C12731  -0.216   2.478   2.102 -0.1465 -0.0553 -0.0717
  836MOL0     C12732  -0.290   2.383   2.176  0.6091 -0.7431  0.4505
  836MOL0     O12733  -0.431   2.379   2.160  0.2358 -0.4893 -0.1173
  836MOL0     C12734  -0.487   2.250   2.197 -0.0635  0.4372 -0.0525
  836MOL0     C12735  -0.644   2.237   2.160  0.3057 -0.2725 -0.3044
  836MOL0     C12736  -0.728   2.348   2.219  0.2713  1.3175 -0.2298
  836MOL0     C12737  -0.873   2.366   2.153  0.2743  0.3148 -1.3191
  836MOL0     C12738  -0.969   2.461   2.219  0.4662  0.5376 -0.1404
  836MOL0     C12739  -1.055   2.532   2.112 -0.6747  0.3998  0.1493
  836MOL0     C12740  -1.178   2.595   2.173 -0.1826 -0.5173  0.2846
  836MOL0     C12741  -1.307   2.523   2.144 -0.0533 -0.3551  0.7130
  836MOL0     N12742  -1.430   2.567   2.217  0.1575 -0.2202  0.5906
  836MOL0     C12743  -1.453   2.526   2.353 -0.5676  0.0992  0.2160
  836MOL0     C12744  -1.581   2.567   2.387 -0.2625  1.8324  0.2487
  836MOL0     C12745  -1.652   2.556   2.518 -0.2489 -0.7557  0.0203
  836MOL0     C12746  -1.683   2.414   2.555 -0.4869 -0.0365 -1.4095
  836MOL0     C12747  -1.742   2.391   2.705  0.4275 -0.4251  0.5955
  836MOL0     C12748  -1.805   2.251   2.703 -0.6154 -0.1926 -0.5413
  836MOL0     O12749  -1.831   2.215   2.840 -0.6965 -0.3141 -0.4121
  836MOL0     C12750  -1.951   2.264   2.882  0.0528  0.2233 -0.4171
  836MOL0     C12751  -2.062   2.198   2.841 -0.2186  0.6410  0.3710
  836MOL0     C12752  -2.195   2.240   2.869 -0.0144  0.2038 -0.3331
  836MOL0     C12753  -2.293   2.134   2.836 -0.3627  0.4731  0.8847
  836MOL0     C12754  -2.212   2.364   2.935 -0.3694  0.6924 -0.0827
  836MOL0     C12755  -2.344   2.424   2.967  0.0036 -0.4173 -0.5252
  836MOL0     O12756  -2.331   2.556   3.020  0.0659  0.8264 -0.0821
  836MOL0     C12757  -2.436   2.623   3.070  0.4219  0.0578  0.3391
  836MOL0     C12758  -2.458   2.759   3.037  1.0572 -0.1848  0.2477
  836MOL0     C12759  -2.572   2.829   3.069  0.2782  0.2286 -0.6562
  836MOL0     C12760  -2.677   2.764   3.146 -1.4348 -0.6726 -0.4208
  836MOL0     O12761  -2.786   2.836   3.181 -0.3889  0.1276 -0.2924
  836MOL0     C12762  -2.896   2.770   3.245  0.2288 -0.4643  1.0215
  836MOL0     C12763  -3.012   2.861   3.243 -0.7379  0.1954 -1.1246
  836MOL0     C12764  -2.989   3.010   3.273 -0.0712  0.1125  0.1147
  836MOL0     C12765  -3.127   3.082   3.270 -0.7036  0.6224 -1.0596
  836MOL0     C12766  -3.126   3.220   3.221  0.1494 -0.4572  0.0479
  836MOL0     C12767  -3.052   3.322   3.300 -1.0226 -0.3366 -0.4777
  836MOL0     C12768  -3.074   3.465   3.246 -0.1148 -0.7578  0.2919
  836MOL0     C12769  -2.999   3.571   3.331 -0.1453  0.6359 -0.0743
  836MOL0    Cl12770  -2.824   3.541   3.291 -0.1131  0.4256  0.2358
  836MOL0     C12771  -2.657   2.630   3.176  0.4360 -0.0196 -0.5247
  836MOL0     C12772  -2.537   2.560   3.143  0.1531  0.6880 -0.7595
  836MOL0     O12773  -2.442   2.352   2.969 -0.1089  0.5995  0.3614
  836MOL0     C12774  -2.094   2.433   2.978  0.4522  0.1262 -0.2295
  836MOL0     C12775  -1.966   2.382   2.946 -0.0281 -0.0361  0.0218
  836MOL0     N12776  -1.640   2.621   2.271 -0.7585 -0.6925  0.1311
  836MOL0     N12777  -1.549   2.617   2.172 -0.1899 -0.2092  0.4700
  836MOL0     C12778  -0.213   2.316   2.273  0.2137 -0.0110  0.2901
  836MOL0     C12779  -0.070   2.311   2.288  0.1548  0.4827  0.8182
  836MOL0     C12780   0.351   2.496   2.229 -0.6538 -0.1451 -0.2321
  836MOL0     C12781   0.419   2.372   2.239  1.1055 -0.5273  0.9808
  836MOL0     C12782   0.551   2.360   2.279 -0.1863 -1.1408 -0.6440
  836MOL0     C12783   0.631   2.480   2.287  1.2396 -0.6071  0.2370
  836MOL0     O12784   0.764   2.455   2.309  0.2037  0.1683 -0.4923
  836MOL0     C12785   0.837   2.539   2.398  0.6989 -0.6561  0.5755
  836MOL0     C12786   0.977   2.486   2.422  0.0811  0.5232 -1.0018
  836MOL0     C12787   1.084   2.531   2.328 -0.5364 -0.3645  0.5283
  836MOL0     C12788   1.103   2.686   2.347 -0.3434 -0.6548  1.1246
  836MOL0     C12789   1.225   2.724   2.280  0.3476  0.3015 -0.5260
  836MOL0     C12790   1.330   2.758   2.233  1.3395 -0.1997  0.8164
  836MOL0     C12791   0.566   2.611   2.265  0.4693  1.0389 -0.4391
  836MOL0     C12792   0.429   2.609   2.247  0.4153  0.6510 -1.0211
  836MOL0     H12793  -0.022   2.539   2.045 -3.1721 -0.7810 -2.7554
  836MOL0     H12794  -0.269   2.524   2.019 -0.4592  1.8041  1.1006
  836MOL0     H12795  -0.426   2.166   2.165 -0.0776 -0.3936  1.9465
  836MOL0     H12796  -0.478   2.240   2.306 -0.5528 -3.1798 -0.2060
  836MOL0     H12797  -0.646   2.251   2.052 -0.6416 -0.7754 -0.3587
  836MOL0     H12798  -0.691   2.141   2.181 -0.8959 -0.7177 -4.1826
  836MOL0     H12799  -0.743   2.334   2.326 -0.3820  3.4900  0.0196
  836MOL0     H12800  -0.681   2.446   2.205 -1.6460  2.3538  0.1748
  836MOL0     H12801  -0.868   2.414   2.055 -3.3308  0.7291 -1.4217
  836MOL0     H12802  -0.921   2.269   2.134  0.7335 -0.6091  1.6235
  836MOL0     H12803  -1.023   2.413   2.301 -0.1184  3.4805  1.3283
  836MOL0     H12804  -0.905   2.525   2.282 -1.1928  1.0482  1.0948
  836MOL0     H12805  -0.994   2.612   2.068 -2.0752  0.5254 -1.6757
  836MOL0     H12806  -1.078   2.465   2.029  0.8539 -0.6590  0.5406
  836MOL0     H12807  -1.166   2.604   2.281 -1.2480  0.8765  0.3084
  836MOL0     H12808  -1.179   2.700   2.142  1.9372 -0.3759  0.5300
  836MOL0     H12809  -1.272   2.421   2.164  3.6479 -0.2359 -3.5470
  836MOL0     H12810  -1.327   2.524   2.036  0.9372 -1.9546  0.4827
  836MOL0     H12811  -1.384   2.482   2.424  1.0641 -1.3835 -2.1532
  836MOL0     H12812  -1.591   2.601   2.597 -2.3442  5.2331 -1.3032
  836MOL0     H12813  -1.744   2.614   2.519  0.9130  1.1818 -0.9305
  836MOL0     H12814  -1.593   2.354   2.550 -1.4563 -2.4159  3.5675
  836MOL0     H12815  -1.756   2.375   2.483 -0.1100 -3.4302 -0.0938
  836MOL0     H12816  -1.813   2.468   2.736  3.7270  3.1281  0.0955
  836MOL0     H12817  -1.662   2.400   2.779 -1.2630 -2.7139  2.8691
  836MOL0     H12818  -1.735   2.174   2.668  0.6217  1.1382 -1.0711
  836MOL0     H12819  -1.898   2.249   2.646  0.1054  0.2780 -1.7807
  836MOL0     H12820  -2.041   2.104   2.791  0.0667  1.0742 -0.3481
  836MOL0     H12821  -2.284   2.113   2.729 -0.5633  2.5129  0.4300
  836MOL0     H12822  -2.264   2.045   2.893  2.2117 -0.2847 -1.4035
  836MOL0     H12823  -2.398   2.149   2.864 -0.2677  4.8274 -0.3774
  836MOL0     H12824  -2.384   2.808   2.974  2.1152 -1.0528  0.7727
  836MOL0     H12825  -2.590   2.931   3.036 -3.1961  0.1246  0.5701
  836MOL0     H12826  -2.924   2.678   3.193 -1.2895  1.7062 -2.3450
  836MOL0     H12827  -2.874   2.748   3.350 -1.1883 -1.7572  1.0971
  836MOL0     H12828  -3.061   2.852   3.146  0.8930 -1.5755 -1.8487
  836MOL0     H12829  -3.089   2.820   3.310  1.4956 -1.1209  0.7649
  836MOL0     H12830  -2.933   3.049   3.188 -0.0509  1.4963  0.7466
  836MOL0     H12831  -2.936   3.026   3.368  4.2051  0.3365 -2.0802
  836MOL0     H12832  -3.199   3.015   3.222 -2.4417  0.4130  1.6135
  836MOL0     H12833  -3.171   3.089   3.370 -2.2418  0.2315 -1.6754
  836MOL0     H12834  -3.231   3.242   3.204  0.5946  0.9539 -1.0312
  836MOL0     H12835  -3.082   3.221   3.121 -2.1746 -1.7808 -1.0699
  836MOL0     H12836  -3.083   3.310   3.404 -3.6208 -1.2548 -1.2788
  836MOL0     H12837  -2.948   3.288   3.289 -0.7430 -0.2778  1.5363
  836MOL0     H12838  -3.180   3.491   3.256  0.2999  1.0404  0.4120
  836MOL0     H12839  -3.050   3.471   3.140  0.9292 -3.0867  0.3541
  836MOL0     H12840  -3.018   3.556   3.437 -0.6485  0.8263 -0.1370
  836MOL0     H12841  -3.019   3.676   3.308 -0.1355  0.2321 -2.2042
  836MOL0     H12842  -2.741   2.581   3.223  0.9159  0.9124  1.4110
  836MOL0     H12843  -2.538   2.455   3.172 -3.6820  0.6275 -0.5780
  836MOL0     H12844  -2.087   2.518   3.046  0.5905 -0.6127  0.6993
  836MOL0     H12845  -1.889   2.452   2.976 -2.8634  2.4885  1.9514
  836MOL0     H12846  -0.265   2.246   2.338 -0.2420 -1.6349 -1.7227
  836MOL0     H12847  -0.020   2.267   2.374  3.4518  2.0766 -0.1117
  836MOL0     H12848   0.367   2.277   2.235  3.7105 -2.0692  1.2987
  836MOL0     H12849   0.598   2.265   2.302  2.7433 -0.8140 -4.1787
  836MOL0     H12850   0.833   2.647   2.384  0.1792 -0.6807  0.5269
  836MOL0     H12851   0.790   2.534   2.496 -0.6444  1.0834  0.0596
  836MOL0     H12852   0.969   2.377   2.435  0.6753  0.5934  0.0757
  836MOL0     H12853   1.006   2.518   2.523 -2.0081  2.5120 -0.9398
  836MOL0     H12854   1.054   2.495   2.229 -0.1856  0.8302 -0.0314
  836MOL0     H12855   1.183   2.488   2.349 -0.4127 -0.0032  0.7104
  836MOL0     H12856   1.116   2.714   2.452  1.0399  1.8854  0.3603
  836MOL0     H12857   1.024   2.743   2.297  0.9161 -1.3242 -1.8396
  836MOL0     H12858   1.423   2.791   2.192  0.9454  0.1577  0.1944
  836MOL0     H12859   0.617   2.705   2.246  2.4356  0.5461  1.9954
  836MOL0     H12860   0.396   2.712   2.248  1.6365  1.0593  0.4459
  837MOL0     O12861  10.624   8.808   7.455 -0.3431 -0.1515 -0.5101
  837MOL0     C12862  10.513   8.807   7.405 -0.1347 -0.2743 -0.2240
  837MOL0     O12863  10.403   8.751   7.460 -0.4802  0.8537  0.1513
  837MOL0     C12864  10.410   8.702   7.586  0.4933  0.7564 -0.2159
  837MOL0     C12865  10.327   8.755   7.693  0.3917 -0.5763 -0.8742
  837MOL0     C12866  10.314   8.703   7.816 -0.4482  0.1673 -0.1190
  837MOL0     C12867  10.390   8.588   7.843  0.1714 -0.5673  1.2333
  837MOL0     O12868  10.371   8.535   7.969 -0.1463 -0.1623  0.3648
  837MOL0     C12869  10.467   8.449   8.026  0.4544  0.5464  0.5229
  837MOL0     C12870  10.457   8.435   8.180 -0.5483 -0.1818  0.2634
  837MOL0     C12871  10.482   8.558   8.258 -0.4369  0.5157 -0.0476
  837MOL0     C12872  10.631   8.588   8.296  0.3253 -0.2182  0.3498
  837MOL0     C12873  10.645   8.674   8.429  0.4641 -0.6332 -0.4882
  837MOL0     C12874  10.594   8.605   8.554  0.2769  0.3484  0.5007
  837MOL0     C12875  10.612   8.685   8.687  0.3742  1.2480  0.3053
  837MOL0     C12876  10.599   8.603   8.813 -0.1148 -0.9213  0.2487
  837MOL0     N12877  10.684   8.484   8.838  0.3158 -0.3326 -0.5741
  837MOL0     C12878  10.639   8.358   8.843  0.1895  0.2856  1.0599
  837MOL0     C12879  10.750   8.282   8.877 -0.3127 -0.1827  0.0606
  837MOL0     C12880  10.734   8.141   8.914 -0.2768  0.9879  0.4037
  837MOL0     C12881  10.853   8.054   8.916  0.9092 -0.1785  1.0424
  837MOL0     C12882  10.897   8.028   8.774 -0.5152 -0.6330  0.2741
  837MOL0     C12883  11.030   7.955   8.761 -0.0530  0.8032 -0.6572
  837MOL0     O12884  11.012   7.814   8.799  0.5418 -0.5887 -0.0299
  837MOL0     C12885  11.129   7.735   8.797  0.6308  0.4726 -0.4360
  837MOL0     C12886  11.264   7.786   8.769  0.6845 -0.1893  0.1180
  837MOL0     C12887  11.382   7.716   8.779 -0.1715 -0.0508  0.2773
  837MOL0     C12888  11.510   7.789   8.801 -0.2550  0.0660  0.8176
  837MOL0     C12889  11.370   7.573   8.784 -0.7420 -0.4866  0.0231
  837MOL0     C12890  11.490   7.497   8.794 -0.3098  0.1674  0.1408
  837MOL0     O12891  11.471   7.390   8.874  0.0235 -0.2644 -0.0763
  837MOL0     C12892  11.580   7.312   8.901  0.6238  0.5231  0.2035
  837MOL0     C12893  11.678   7.345   8.992 -0.5165  0.4209 -0.8801
  837MOL0     C12894  11.784   7.249   9.019  0.4620  0.5258  0.3293
  837MOL0     C12895  11.801   7.140   8.941 -0.0871  1.0772 -0.0596
  837MOL0     O12896  11.893   7.041   8.973  0.0862 -1.0389 -0.8980
  837MOL0     C12897  11.845   6.918   9.001  0.1484  0.5118  0.4179
  837MOL0     C12898  11.964   6.824   9.023 -0.7805 -0.4011  0.8134
  837MOL0     C12899  12.082   6.872   9.117  0.6092 -0.5010 -0.4021
  837MOL0     C12900  12.036   6.920   9.254 -0.7385 -0.3578  0.3041
  837MOL0     C12901  12.161   6.926   9.350  1.0684 -0.4056 -0.1067
  837MOL0     C12902  12.272   7.034   9.316  1.3060  0.6041  0.2550
  837MOL0     C12903  12.394   7.008   9.403  0.6360 -0.0945  0.5108
  837MOL0     C12904  12.518   7.090   9.347 -0.4261  0.2978 -0.4989
  837MOL0    Cl12905  12.650   7.065   9.454 -0.0169 -0.0929  0.0727
  837MOL0     C12906  11.701   7.104   8.849  0.0863  0.4749 -0.2423
  837MOL0     C12907  11.591   7.186   8.835  0.2843 -0.9629  1.1285
  837MOL0     O12908  11.593   7.512   8.726 -1.0209 -0.3377  0.4999
  837MOL0     C12909  11.241   7.515   8.807  0.4145 -0.4873  0.2822
  837MOL0     C12910  11.125   7.597   8.822  0.0493  0.2427 -1.0042
  837MOL0     N12911  10.863   8.368   8.884 -0.8599 -0.0660 -0.4335
  837MOL0     N12912  10.821   8.481   8.850  0.2062 -0.0869  0.3350
  837MOL0     C12913  10.478   8.536   7.740 -0.1717 -1.0631  0.5423
  837MOL0     C12914  10.483   8.584   7.610  0.6087  0.1402 -0.5459
  837MOL0     C12915  10.494   8.887   7.277 -0.9573  0.8551 -0.1782
  837MOL0     C12916  10.368   8.888   7.216  0.1192 -0.4770 -0.5509
  837MOL0     C12917  10.338   8.953   7.090 -0.9792  0.2801 -0.2881
  837MOL0     C12918  10.440   9.013   7.017  0.1663 -0.2505 -1.8713
  837MOL0     O12919  10.425   9.060   6.885  0.0795 -0.5375  0.6417
  837MOL0     C12920  10.330   9.160   6.865  0.7483  0.4363  0.4807
  837MOL0     C12921  10.321   9.182   6.704 -0.5783  1.1446 -0.1313
  837MOL0     C12922  10.267   9.311   6.646  0.2472 -0.2983  0.6061
  837MOL0     C12923  10.124   9.348   6.695  1.4671 -0.1978  0.5749
  837MOL0     C12924  10.073   9.453   6.602 -0.2652  0.2574 -0.3281
  837MOL0     C12925  10.057   9.547   6.534 -0.3743 -0.1243  0.4225
  837MOL0     C12926  10.565   9.003   7.081  0.9941  1.5537  0.2776
  837MOL0     C12927  10.598   8.942   7.200 -0.4817 -0.8268 -0.2307
  837MOL0     H12928  10.275   8.844   7.660 -1.1995 -0.8417  0.7586
  837MOL0     H12929  10.250   8.743   7.894 -1.3890 -2.6908  0.7072
  837MOL0     H12930  10.456   8.351   7.981 -0.0113  0.2251  1.3119
  837MOL0     H12931  10.568   8.486   8.006 -0.3314  1.4738 -2.2051
  837MOL0     H12932  10.355   8.404   8.205  0.4753 -3.4568  0.8829
  837MOL0     H12933  10.528   8.360   8.215  0.9304  2.1683  2.6354
  837MOL0     H12934  10.445   8.645   8.203  2.2205  3.1425  1.9672
  837MOL0     H12935  10.414   8.559   8.344  2.5072  0.1351  2.4695
  837MOL0     H12936  10.696   8.501   8.305  0.6454  0.0933  1.0882
  837MOL0     H12937  10.669   8.645   8.210  0.2935 -1.3993 -0.4757
  837MOL0     H12938  10.749   8.700   8.451  0.4558 -2.1726  1.7301
  837MOL0     H12939  10.578   8.759   8.415 -2.7763 -3.0908 -1.0831
  837MOL0     H12940  10.485   8.596   8.551  0.2045  1.1391 -2.0708
  837MOL0     H12941  10.639   8.506   8.564 -2.8823 -1.4507 -1.2630
  837MOL0     H12942  10.711   8.730   8.677  0.7597  0.0400 -2.0776
  837MOL0     H12943  10.546   8.770   8.707 -0.1918  0.1576  3.7164
  837MOL0     H12944  10.495   8.593   8.845  0.3613  1.2821  2.9260
  837MOL0     H12945  10.633   8.679   8.885  0.8357 -1.2456  0.1583
  837MOL0     H12946  10.540   8.323   8.815  1.1767 -1.2637 -0.7620
  837MOL0     H12947  10.703   8.141   9.019  1.6530  0.0360  1.0320
  837MOL0     H12948  10.655   8.098   8.852 -0.0077  0.9591  0.0820
  837MOL0     H12949  10.841   7.956   8.962  0.1650 -2.3069 -3.2164
  837MOL0     H12950  10.932   8.109   8.969  0.2201  1.5220  0.3883
  837MOL0     H12951  10.908   8.120   8.715  0.5755  0.9614  2.7767
  837MOL0     H12952  10.814   7.973   8.729 -0.8936 -0.6028  0.9232
  837MOL0     H12953  11.094   8.004   8.835 -0.0211 -1.3934  0.8275
  837MOL0     H12954  11.071   7.965   8.659  0.2098 -1.0170 -0.7556
  837MOL0     H12955  11.291   7.891   8.757  1.8133 -0.3179  1.2901
  837MOL0     H12956  11.574   7.734   8.870  1.5329  0.3898 -0.5203
  837MOL0     H12957  11.559   7.782   8.704  0.2590  1.8622  0.8959
  837MOL0     H12958  11.498   7.890   8.841 -1.3846  0.0396  0.5848
  837MOL0     H12959  11.660   7.438   9.045 -0.6751 -0.0646 -0.0469
  837MOL0     H12960  11.866   7.262   9.090  0.0480 -0.1590  0.9590
  837MOL0     H12961  11.766   6.915   9.076 -2.5411  1.4998 -2.1798
  837MOL0     H12962  11.799   6.867   8.916  2.4201 -1.3797  0.2188
  837MOL0     H12963  11.928   6.730   9.065  1.5931 -0.9356  1.7943
  837MOL0     H12964  12.016   6.796   8.931 -2.3672  0.3201 -0.3511
  837MOL0     H12965  12.146   6.950   9.074 -0.0717 -1.0151 -2.4547
  837MOL0     H12966  12.142   6.782   9.136 -0.7698 -1.3995 -0.1649
  837MOL0     H12967  11.992   7.020   9.246  4.7167  2.3745 -0.6142
  837MOL0     H12968  11.969   6.846   9.299 -0.4886 -0.6436  0.2103
  837MOL0     H12969  12.208   6.827   9.358 -0.0688 -0.7886  2.8008
  837MOL0     H12970  12.126   6.945   9.451  2.5996  2.4160  0.0003
  837MOL0     H12971  12.304   7.019   9.212 -0.7226  0.8318 -0.4628
  837MOL0     H12972  12.231   7.134   9.332 -3.1614 -0.4708 -2.5231
  837MOL0     H12973  12.428   6.905   9.388 -3.0560 -1.4913  0.8910
  837MOL0     H12974  12.370   7.026   9.508 -2.4445 -0.9993  0.0558
  837MOL0     H12975  12.498   7.198   9.350 -0.6627  0.2476 -0.2540
  837MOL0     H12976  12.538   7.065   9.243 -1.5830  2.0133 -1.1654
  837MOL0     H12977  11.705   7.012   8.791  2.5685  1.1687 -1.2603
  837MOL0     H12978  11.513   7.166   8.762  1.7422 -2.5885 -0.0794
  837MOL0     H12979  11.225   7.409   8.822  0.8855 -0.6087 -0.0243
  837MOL0     H12980  11.029   7.548   8.829 -0.0985  0.7611  1.2863
  837MOL0     H12981  10.545   8.454   7.762  4.7704  2.7311  1.2716
  837MOL0     H12982  10.541   8.540   7.530  4.0847  2.6026  0.3969
  837MOL0     H12983  10.277   8.854   7.265  0.9685 -3.4442 -0.8747
  837MOL0     H12984  10.241   8.957   7.041  0.2146 -2.7581 -3.3244
  837MOL0     H12985  10.234   9.129   6.907  1.1541 -0.6923  0.6016
  837MOL0     H12986  10.353   9.250   6.923 -3.1008  1.8295  0.1477
  837MOL0     H12987  10.272   9.094   6.661  0.9488  1.2961 -2.3157
  837MOL0     H12988  10.423   9.179   6.664 -1.0974 -0.2461 -1.4460
  837MOL0     H12989  10.279   9.314   6.538  2.6837 -0.1663  0.8068
  837MOL0     H12990  10.333   9.383   6.695  2.6785 -0.8642 -1.5839
  837MOL0     H12991  10.117   9.396   6.793 -2.3171  1.0962 -0.1457
  837MOL0     H12992  10.054   9.263   6.690  0.9959  0.2490 -0.5792
  837MOL0     H12993  10.046   9.633   6.471 -0.8949 -0.2121  0.3840
  837MOL0     H12994  10.645   9.036   7.015 -0.5640 -1.9917 -3.7872
  837MOL0     H12995  10.694   8.945   7.250  1.0164  0.5738 -3.0145
  838MOL0     O12996   0.455   0.364   9.431  0.4567  0.6667 -0.3976
  838MOL0     C12997   0.475   0.242   9.411  0.2023  0.3253 -0.0147
  838MOL0     O12998   0.582   0.186   9.353 -0.0347  0.1245 -0.2801
  838MOL0     C12999   0.698   0.253   9.318 -0.9983  0.8634 -0.7895
  838MOL0     C13000   0.808   0.170   9.307 -1.0239 -0.0345 -0.6589
  838MOL0     C13001   0.925   0.221   9.255 -0.3293 -0.7882 -0.8071
  838MOL0     C13002   0.939   0.359   9.215 -0.3683  0.0586  0.4800
  838MOL0     O13003   1.050   0.421   9.159  0.2386 -0.7937  0.2678
  838MOL0     C13004   1.115   0.350   9.059 -0.5970 -0.4186  0.6613
  838MOL0     C13005   1.177   0.451   8.959  0.8792  0.2284  0.5811
  838MOL0     C13006   1.068   0.501   8.864 -1.7780  0.2480 -1.2757
  838MOL0     C13007   1.140   0.587   8.759 -0.5871  0.0946 -0.5753
  838MOL0     C13008   1.035   0.666   8.690 -0.2172 -0.3967  0.7151
  838MOL0     C13009   1.106   0.772   8.599 -0.3066  0.1884  0.4190
  838MOL0     C13010   1.004   0.816   8.486 -0.4771 -0.7811  0.1219
  838MOL0     C13011   1.072   0.834   8.351  0.0640  0.1805  0.4003
  838MOL0     N13012   1.083   0.706   8.276 -0.6690 -0.4339 -0.3112
  838MOL0     C13013   1.199   0.626   8.267  0.4694  0.2353 -0.6813
  838MOL0     C13014   1.168   0.524   8.181  0.0303 -1.1521  0.2975
  838MOL0     C13015   1.239   0.395   8.163 -0.2357  0.3784  0.3549
  838MOL0     C13016   1.220   0.308   8.279 -0.3826 -0.1848  0.0086
  838MOL0     C13017   1.276   0.167   8.254  0.2495 -0.5319  0.0652
  838MOL0     C13018   1.226   0.070   8.354  0.4982 -0.5732 -0.2783
  838MOL0     O13019   1.281   0.109   8.480 -0.2932  0.8860  0.6073
  838MOL0     C13020   1.277   0.021   8.583  0.1839  0.2068 -0.6587
  838MOL0     C13021   1.301   0.064   8.722  0.2894 -0.1326 -0.3840
  838MOL0     C13022   1.309  -0.024   8.826 -0.2363  0.2784 -0.8159
  838MOL0     C13023   1.325   0.019   8.971 -0.1155 -0.4935  0.7354
  838MOL0     C13024   1.305  -0.163   8.802 -0.0429 -0.3067  1.0663
  838MOL0     C13025   1.303  -0.263   8.900 -0.4397  0.1482  0.3479
  838MOL0     O13026   1.373  -0.382   8.878 -0.5403  0.0119 -0.7990
  838MOL0     C13027   1.344  -0.484   8.962 -0.2414 -0.5487  0.6125
  838MOL0     C13028   1.453  -0.532   9.038 -0.6663  0.4245  0.7004
  838MOL0     C13029   1.439  -0.638   9.117  0.2666  0.1618 -0.6712
  838MOL0     C13030   1.318  -0.707   9.124 -0.7936  0.6218  0.2070
  838MOL0     O13031   1.316  -0.822   9.200  0.2950  0.5684  0.6005
  838MOL0     C13032   1.194  -0.897   9.195 -0.1758  0.2928 -0.3379
  838MOL0     C13033   1.217  -1.030   9.271  0.1884 -0.4534  0.3053
  838MOL0     C13034   1.301  -1.131   9.199 -0.6090  0.9997  0.0062
  838MOL0     C13035   1.236  -1.191   9.077  0.5259  0.5166 -0.3009
  838MOL0     C13036   1.301  -1.320   9.033  0.4271 -0.2796  0.1934
  838MOL0     C13037   1.451  -1.297   8.996  0.2465  0.2929 -0.5021
  838MOL0     C13038   1.461  -1.283   8.844 -0.0355 -0.2876  0.5488
  838MOL0     C13039   1.610  -1.278   8.791 -0.0425 -0.4201  0.2801
  838MOL0    Cl13040   1.687  -1.121   8.826  0.5055  0.2525 -0.0289
  838MOL0     C13041   1.206  -0.652   9.051  0.2811 -0.4969 -0.1932
  838MOL0     C13042   1.217  -0.535   8.969 -0.2555  0.0785 -0.3350
  838MOL0     O13043   1.220  -0.247   8.990 -0.1087 -0.8090 -0.0309
  838MOL0     C13044   1.284  -0.204   8.672 -0.2839 -0.4849  0.0247
  838MOL0     C13045   1.263  -0.119   8.562 -0.0327 -0.2985  0.5705
  838MOL0     N13046   1.038   0.547   8.137 -1.3845 -0.6803  0.0597
  838MOL0     N13047   0.989   0.663   8.194  0.4237  0.8983  0.7575
  838MOL0     C13048   0.832   0.438   9.238 -0.2623  0.0044  0.7366
  838MOL0     C13049   0.713   0.387   9.289 -0.6272 -1.0113 -0.8036
  838MOL0     C13050   0.358   0.170   9.465 -0.7564  0.0111  0.8647
  838MOL0     C13051   0.240   0.230   9.503  0.0162  0.3421 -0.4099
  838MOL0     C13052   0.125   0.159   9.539  0.6057 -0.2238  0.0907
  838MOL0     C13053   0.121   0.019   9.556 -0.5646  0.5179  0.2758
  838MOL0     O13054   0.018  -0.052   9.619 -0.2384  0.0602  0.6405
  838MOL0     C13055  -0.117  -0.012   9.591  0.0374  0.6425 -0.5455
  838MOL0     C13056  -0.222  -0.122   9.632 -0.3321  0.2899  0.5771
  838MOL0     C13057  -0.361  -0.089   9.578 -0.6385 -0.0296 -0.4661
  838MOL0     C13058  -0.428   0.039   9.633  0.7029 -0.6614 -0.8320
  838MOL0     C13059  -0.572   0.048   9.618 -0.3181 -1.4205 -1.4664
  838MOL0     C13060  -0.688   0.059   9.621 -0.5067  0.1378 -0.6526
  838MOL0     C13061   0.246  -0.045   9.522  0.2122 -0.8838 -0.5871
  838MOL0     C13062   0.356   0.030   9.470 -0.6220  0.1280  0.1930
  838MOL0     H13063   0.807   0.063   9.325 -3.9576 -0.2377 -1.5312
  838MOL0     H13064   1.002   0.148   9.235 -1.1340 -1.6437 -0.8376
  838MOL0     H13065   1.193   0.284   9.098  0.0177  1.1068  2.1378
  838MOL0     H13066   1.047   0.285   9.003  0.3028 -0.0679 -0.8716
  838MOL0     H13067   1.226   0.537   9.004 -1.1714  0.8806  1.7160
  838MOL0     H13068   1.253   0.395   8.903  0.7907 -1.9618  2.4959
  838MOL0     H13069   1.028   0.410   8.819  4.2272 -3.3791 -0.3478
  838MOL0     H13070   1.000   0.569   8.918  1.9734  1.9671  1.7166
  838MOL0     H13071   1.214   0.658   8.796  0.1558  2.5773 -5.8378
  838MOL0     H13072   1.184   0.519   8.685 -2.7650 -1.2860 -0.6775
  838MOL0     H13073   0.972   0.602   8.627 -0.5529  0.8029 -0.2258
  838MOL0     H13074   0.963   0.717   8.755 -2.2500  0.3807 -1.9431
  838MOL0     H13075   1.145   0.855   8.659 -4.3314  0.1831  3.4805
  838MOL0     H13076   1.190   0.724   8.548 -1.7460 -1.4294 -0.5108
  838MOL0     H13077   0.918   0.749   8.482 -1.8018  0.8165  0.7286
  838MOL0     H13078   0.958   0.904   8.531 -1.4405 -1.6519  0.9069
  838MOL0     H13079   1.167   0.887   8.362  0.3059 -0.0875 -0.3268
  838MOL0     H13080   1.006   0.897   8.291  3.8203 -0.7777 -5.5761
  838MOL0     H13081   1.293   0.636   8.321 -0.7370 -2.0434  2.0827
  838MOL0     H13082   1.220   0.345   8.067  1.9191 -0.5806  0.3660
  838MOL0     H13083   1.342   0.431   8.153 -1.0183  3.1187  1.3052
  838MOL0     H13084   1.112   0.302   8.293 -0.4737  2.9225  1.4904
  838MOL0     H13085   1.252   0.350   8.375 -0.8295  0.6394 -0.1893
  838MOL0     H13086   1.385   0.179   8.253  0.2412 -0.4424  0.3934
  838MOL0     H13087   1.248   0.130   8.155  2.2707  0.2021 -0.8419
  838MOL0     H13088   1.278  -0.022   8.327  2.4353  0.5497 -0.5915
  838MOL0     H13089   1.117   0.068   8.348  0.2507 -0.5909  2.6657
  838MOL0     H13090   1.326   0.168   8.743  0.8845 -0.6655  1.8875
  838MOL0     H13091   1.344   0.127   8.976 -2.0032 -0.0767 -0.1744
  838MOL0     H13092   1.232   0.007   9.026 -1.5404  1.8628 -0.9696
  838MOL0     H13093   1.402  -0.031   9.031  1.8756 -0.2851 -1.5139
  838MOL0     H13094   1.544  -0.477   9.014 -1.4006  0.6994 -1.7677
  838MOL0     H13095   1.521  -0.691   9.164 -0.6426 -1.3582 -0.7336
  838MOL0     H13096   1.121  -0.835   9.248 -0.0526  0.3533 -0.2385
  838MOL0     H13097   1.158  -0.922   9.094  0.3576  0.5045 -0.5819
  838MOL0     H13098   1.256  -1.001   9.369 -0.8039  1.7478  0.1230
  838MOL0     H13099   1.120  -1.074   9.295  0.4897 -2.0432 -1.1946
  838MOL0     H13100   1.326  -1.214   9.266 -2.2938 -0.3010 -0.8747
  838MOL0     H13101   1.398  -1.083   9.183  0.5601 -0.9205  0.9511
  838MOL0     H13102   1.133  -1.217   9.101  0.7608  0.6981  0.9489
  838MOL0     H13103   1.230  -1.109   9.004 -2.4598  0.1280 -0.6034
  838MOL0     H13104   1.240  -1.364   8.955  0.6134 -0.5274  0.1864
  838MOL0     H13105   1.291  -1.378   9.125  0.4846 -0.2807  0.1986
  838MOL0     H13106   1.492  -1.204   9.036 -0.7659 -0.3366  2.2250
  838MOL0     H13107   1.521  -1.376   9.023 -1.3305 -1.0140 -0.0221
  838MOL0     H13108   1.408  -1.193   8.812 -1.3040  0.1703  3.5542
  838MOL0     H13109   1.413  -1.374   8.807 -1.6437  0.0305  1.7256
  838MOL0     H13110   1.610  -1.288   8.682  1.0153 -2.5535  0.4183
  838MOL0     H13111   1.681  -1.357   8.819 -1.8868 -2.4484 -0.4778
  838MOL0     H13112   1.109  -0.701   9.043 -0.9970  2.1041 -2.3082
  838MOL0     H13113   1.130  -0.498   8.916  0.5777  0.3198 -1.5442
  838MOL0     H13114   1.276  -0.311   8.655  0.3235 -0.5977  0.4020
  838MOL0     H13115   1.233  -0.170   8.471  0.8393 -1.5961  0.9754
  838MOL0     H13116   0.843   0.539   9.201 -4.2211  0.3272  0.0104
  838MOL0     H13117   0.638   0.465   9.283  0.0708 -0.4261 -2.5729
  838MOL0     H13118   0.249   0.338   9.515  0.4446  0.3387 -0.6664
  838MOL0     H13119   0.032   0.210   9.561  0.7531 -0.2544  0.8034
  838MOL0     H13120  -0.158   0.075   9.642 -1.4662 -0.6360  0.5237
  838MOL0     H13121  -0.133   0.013   9.485  1.5731  0.8955 -0.7332
  838MOL0     H13122  -0.213  -0.149   9.738  1.3404 -0.2386  0.3262
  838MOL0     H13123  -0.194  -0.218   9.587  4.7076  1.7906 -0.0855
  838MOL0     H13124  -0.426  -0.170   9.611 -1.1399  0.7259  0.4692
  838MOL0     H13125  -0.359  -0.085   9.468  0.2796 -1.8430 -0.5455
  838MOL0     H13126  -0.379   0.129   9.596  0.6196  1.6988  3.9522
  838MOL0     H13127  -0.405   0.046   9.740 -3.5567  0.3161  0.1931
  838MOL0     H13128  -0.793   0.079   9.613 -0.6737 -0.5433 -0.1722
  838MOL0     H13129   0.236  -0.150   9.546  1.6296 -0.5945  1.4885
  838MOL0     H13130   0.435  -0.029   9.424 -0.3788  0.8944 -0.3797
  839MOL0     O13131   7.589   6.342   2.302  0.2506  0.4215 -0.5533
  839MOL0     C13132   7.498   6.384   2.234 -0.8522  0.3385  0.2124
  839MOL0     O13133   7.476   6.514   2.190 -0.1594 -0.0305 -0.6797
  839MOL0     C13134   7.574   6.604   2.222 -0.5462 -0.5503 -0.5345
  839MOL0     C13135   7.647   6.659   2.115 -0.3268 -0.1261  0.0107
  839MOL0     C13136   7.761   6.738   2.155  0.6587 -0.1062  0.4931
  839MOL0     C13137   7.796   6.763   2.288 -1.0582  0.0303  1.2258
  839MOL0     O13138   7.893   6.855   2.301 -0.2962  0.1186 -0.4846
  839MOL0     C13139   7.966   6.862   2.428  0.1342 -0.0977 -0.5936
  839MOL0     C13140   7.907   6.979   2.509 -0.6356 -0.0535 -0.2419
  839MOL0     C13141   8.001   7.011   2.626  0.8903 -0.8803 -0.0837
  839MOL0     C13142   8.031   6.887   2.720  0.0278 -0.9120 -0.0122
  839MOL0     C13143   8.122   6.933   2.835 -0.8511  0.3553  0.0416
  839MOL0     C13144   8.183   6.816   2.923 -0.0162  0.7888  0.4953
  839MOL0     C13145   8.068   6.757   3.016 -1.4357 -0.4964 -0.3877
  839MOL0     C13146   8.132   6.660   3.119 -0.1692 -0.9961 -0.0153
  839MOL0     N13147   8.189   6.537   3.056  0.4808  0.4265 -0.0805
  839MOL0     C13148   8.105   6.446   2.996 -0.5127 -0.6861  0.0346
  839MOL0     C13149   8.181   6.334   2.969 -0.6483 -0.2757 -0.7670
  839MOL0     C13150   8.133   6.216   2.893 -0.0266 -0.5186 -0.2900
  839MOL0     C13151   8.248   6.113   2.858 -0.6730  0.1502  0.1356
  839MOL0     C13152   8.209   5.999   2.755  0.9529 -0.5990 -0.2049
  839MOL0     C13153   8.070   5.941   2.775 -0.4594 -1.3942 -0.7736
  839MOL0     O13154   8.023   5.887   2.650 -0.4483  0.7350  0.1993
  839MOL0     C13155   7.981   5.760   2.653 -0.1981  0.0862 -0.2355
  839MOL0     C13156   8.071   5.670   2.606  0.6187 -0.8810  0.0139
  839MOL0     C13157   8.034   5.538   2.592  0.0184  0.2664 -0.5277
  839MOL0     C13158   8.145   5.453   2.525  0.3038 -0.4266  0.2792
  839MOL0     C13159   7.900   5.493   2.621  1.0668  0.0167 -0.2326
  839MOL0     C13160   7.855   5.354   2.603 -0.3388 -0.5642  1.7167
  839MOL0     O13161   7.726   5.338   2.598  0.5115  0.2830 -0.9643
  839MOL0     C13162   7.676   5.210   2.559 -1.1402 -0.0736 -1.3926
  839MOL0     C13163   7.606   5.142   2.653  0.2686  0.6368  0.0066
  839MOL0     C13164   7.538   5.016   2.610 -0.9309 -0.3523 -1.0531
  839MOL0     C13165   7.557   4.955   2.481 -0.5842  0.5004  0.8594
  839MOL0     O13166   7.503   4.828   2.466 -0.6175  0.2496  0.1216
  839MOL0     C13167   7.529   4.767   2.343  0.2831 -0.4024  0.3824
  839MOL0     C13168   7.428   4.658   2.318 -0.1322 -0.3470  0.5895
  839MOL0     C13169   7.453   4.578   2.184  0.3840 -0.6519 -0.4127
  839MOL0     C13170   7.438   4.686   2.063 -0.1777  0.6484  0.1826
  839MOL0     C13171   7.449   4.605   1.929 -0.1569  0.3997 -0.1731
  839MOL0     C13172   7.392   4.672   1.813 -0.4889  0.7043  0.1399
  839MOL0     C13173   7.435   4.810   1.790  0.3722 -0.1684 -0.0438
  839MOL0     C13174   7.409   4.864   1.649  0.6871  0.1763  1.4151
  839MOL0    Cl13175   7.455   5.037   1.624 -0.5608 -0.2768  0.3867
  839MOL0     C13176   7.632   5.033   2.390 -0.0433 -0.7896 -0.8490
  839MOL0     C13177   7.689   5.161   2.425  0.7505 -0.7535 -0.2677
  839MOL0     O13178   7.937   5.265   2.600  0.1848 -0.2890  0.3746
  839MOL0     C13179   7.810   5.592   2.661 -0.6659 -0.2947  0.0382
  839MOL0     C13180   7.849   5.730   2.677  0.3675  0.2170  0.6036
  839MOL0     N13181   8.310   6.361   3.018  0.5445 -1.2181 -0.7372
  839MOL0     N13182   8.310   6.477   3.083  0.1654  0.6385 -0.4141
  839MOL0     C13183   7.728   6.704   2.386  0.4161 -1.0000 -0.3412
  839MOL0     C13184   7.616   6.626   2.354 -1.2389  0.0481 -0.2856
  839MOL0     C13185   7.398   6.276   2.187  0.4025  0.4305  0.3753
  839MOL0     C13186   7.401   6.146   2.239 -0.0531 -0.2161  0.7803
  839MOL0     C13187   7.321   6.039   2.205  0.2975  0.0247  0.0403
  839MOL0     C13188   7.210   6.058   2.132 -0.0764 -0.5514  0.6930
  839MOL0     O13189   7.122   5.962   2.116  0.9773  0.7311  0.2446
  839MOL0     C13190   7.055   5.932   2.240 -0.5312 -0.0394  0.2707
  839MOL0     C13191   6.911   5.904   2.212  0.1010  0.2113  0.3406
  839MOL0     C13192   6.892   5.788   2.109 -0.6567 -0.1724 -0.1356
  839MOL0     C13193   6.757   5.779   2.045  0.1161 -0.1556 -1.0334
  839MOL0     C13194   6.646   5.764   2.148  0.0293 -0.0725 -0.1621
  839MOL0     C13195   6.553   5.741   2.223 -0.4727 -0.4373 -0.1153
  839MOL0     C13196   7.196   6.190   2.072 -0.2568 -0.0684 -0.3281
  839MOL0     C13197   7.286   6.293   2.102  0.0500 -0.2302  0.1317
  839MOL0     H13198   7.619   6.653   2.011  1.7823  3.3479 -0.9149
  839MOL0     H13199   7.811   6.784   2.070  0.9751  2.0392  1.7711
  839MOL0     H13200   7.952   6.768   2.481 -3.2273 -0.0579 -1.1928
  839MOL0     H13201   8.072   6.886   2.423  0.3454 -1.1135 -1.5076
  839MOL0     H13202   7.891   7.063   2.441  0.9501 -0.9121 -1.7745
  839MOL0     H13203   7.807   6.967   2.551 -1.9000  2.4499 -2.2930
  839MOL0     H13204   8.096   7.045   2.585  0.6285  0.1018  0.0888
  839MOL0     H13205   7.955   7.089   2.688 -0.7384 -1.2082 -0.8260
  839MOL0     H13206   7.934   6.852   2.757 -1.2034  0.9878 -1.2640
  839MOL0     H13207   8.080   6.808   2.663  1.1951 -0.8495  0.8659
  839MOL0     H13208   8.196   7.004   2.796 -1.8608  1.6327  0.3548
  839MOL0     H13209   8.054   6.986   2.902 -2.5167  0.1860 -1.4401
  839MOL0     H13210   8.223   6.734   2.862 -3.1256 -0.2960 -0.2662
  839MOL0     H13211   8.266   6.870   2.970  2.0816  0.0220 -2.0740
  839MOL0     H13212   8.004   6.829   3.067  2.3666  0.2551  4.0032
  839MOL0     H13213   7.994   6.694   2.965 -0.0561 -3.2343  0.7390
  839MOL0     H13214   8.060   6.641   3.199 -2.3301  1.7593 -1.1294
  839MOL0     H13215   8.219   6.708   3.165 -1.9444  1.1589  1.2964
  839MOL0     H13216   8.000   6.459   2.971 -0.1507  0.1764 -1.1381
  839MOL0     H13217   8.050   6.178   2.954  0.3834 -4.5033 -1.9181
  839MOL0     H13218   8.091   6.259   2.802  1.6910  0.3326 -0.7108
  839MOL0     H13219   8.281   6.057   2.946  1.3324 -0.3301 -0.8652
  839MOL0     H13220   8.339   6.170   2.837 -0.3599  1.0851  3.3978
  839MOL0     H13221   8.277   5.914   2.749  2.0347  0.1968  0.4050
  839MOL0     H13222   8.223   6.047   2.657  2.2293 -0.5464 -0.0117
  839MOL0     H13223   8.007   6.024   2.807  0.3082 -1.1804  0.2414
  839MOL0     H13224   8.071   5.870   2.858 -0.0370 -1.2893 -0.6834
  839MOL0     H13225   8.178   5.683   2.600  0.3925  1.4977 -0.1422
  839MOL0     H13226   8.192   5.382   2.593  0.2716 -1.7804 -1.0428
  839MOL0     H13227   8.099   5.403   2.439 -1.3297  1.7430 -0.1846
  839MOL0     H13228   8.226   5.512   2.482  0.8853 -2.3092 -1.3729
  839MOL0     H13229   7.603   5.190   2.750  2.0216  0.0214  0.4038
  839MOL0     H13230   7.482   4.967   2.690  0.8638  3.0492  2.6277
  839MOL0     H13231   7.523   4.847   2.268  1.3990  3.3575  3.8967
  839MOL0     H13232   7.632   4.731   2.340  0.6761  0.7031 -0.0313
  839MOL0     H13233   7.432   4.590   2.404 -1.3743 -2.8382 -1.1894
  839MOL0     H13234   7.327   4.701   2.321  0.2085  1.1185 -3.2724
  839MOL0     H13235   7.395   4.486   2.170  2.0565 -1.8078  0.0220
  839MOL0     H13236   7.554   4.537   2.184  1.0872  0.9536 -1.3773
  839MOL0     H13237   7.338   4.732   2.068 -0.7132 -0.2977 -1.1087
  839MOL0     H13238   7.515   4.763   2.059 -1.5905  2.0930 -2.8930
  839MOL0     H13239   7.406   4.507   1.946  0.7962  0.4285  2.9573
  839MOL0     H13240   7.556   4.583   1.915  0.4020  2.5671  0.2119
  839MOL0     H13241   7.416   4.613   1.724 -2.0952  1.0254 -0.5421
  839MOL0     H13242   7.286   4.670   1.837 -0.2759 -1.3301  1.1106
  839MOL0     H13243   7.543   4.816   1.805  0.1921  0.9828  0.9624
  839MOL0     H13244   7.382   4.887   1.848  0.7736  1.7002 -2.0050
  839MOL0     H13245   7.301   4.859   1.631  0.6615 -1.1219  1.8223
  839MOL0     H13246   7.454   4.802   1.572 -1.3601 -0.6348  0.7989
  839MOL0     H13247   7.644   5.000   2.287 -1.1362 -2.5479 -0.4521
  839MOL0     H13248   7.728   5.233   2.354 -2.1268 -1.3963 -2.7314
  839MOL0     H13249   7.706   5.571   2.684 -0.5428 -0.9185  0.0377
  839MOL0     H13250   7.778   5.807   2.705  0.3449  1.3448 -2.1796
  839MOL0     H13251   7.750   6.721   2.491 -0.6426  2.0800 -0.5058
  839MOL0     H13252   7.571   6.575   2.439  0.8386  0.1615  0.9417
  839MOL0     H13253   7.484   6.118   2.303 -0.2506 -0.4078  0.9538
  839MOL0     H13254   7.337   5.932   2.220  3.4085  0.5032  0.8631
  839MOL0     H13255   7.096   5.840   2.283 -0.4159 -1.8430 -3.3183
  839MOL0     H13256   7.057   6.025   2.296 -1.5260  0.1735 -0.0252
  839MOL0     H13257   6.864   5.992   2.166  1.7309 -0.1053 -2.1897
  839MOL0     H13258   6.852   5.886   2.302  0.5575  1.8408  1.0050
  839MOL0     H13259   6.901   5.701   2.175 -1.0602  0.2619  0.4975
  839MOL0     H13260   6.979   5.783   2.043  0.2237  3.2102  0.5778
  839MOL0     H13261   6.742   5.684   1.993 -0.1539 -0.4883 -0.3640
  839MOL0     H13262   6.721   5.860   1.981  0.4675  0.5657 -0.3347
  839MOL0     H13263   6.466   5.715   2.279 -0.1516  1.5305  1.4446
  839MOL0     H13264   7.109   6.220   2.014 -1.6901  3.9484  3.3188
  839MOL0     H13265   7.253   6.391   2.071 -1.0333 -0.7573 -0.4534
  840MOL0     O13266   9.840   2.339   7.840  0.5206 -0.9109 -0.7458
  840MOL0     C13267   9.840   2.239   7.913 -0.6709  1.1651  0.6165
  840MOL0     O13268   9.733   2.196   7.996 -0.3424 -0.1800 -0.0303
  840MOL0     C13269   9.624   2.276   8.004  0.1452  0.3791  0.1260
  840MOL0     C13270   9.637   2.391   8.072 -0.4622  0.0991  0.3358
  840MOL0     C13271   9.526   2.472   8.096  0.3312  0.0525 -0.0619
  840MOL0     C13272   9.393   2.438   8.067 -0.0615  0.1064 -0.0354
  840MOL0     O13273   9.291   2.524   8.085  0.3999 -0.0702  0.2540
  840MOL0     C13274   9.170   2.504   8.009  0.5100 -0.1264  1.5593
  840MOL0     C13275   9.066   2.619   8.007 -0.0732  0.7906  0.5808
  840MOL0     C13276   9.040   2.671   8.147  0.0838  0.5782 -0.4051
  840MOL0     C13277   8.909   2.749   8.132  0.3102  0.0921  0.2129
  840MOL0     C13278   8.857   2.804   8.266  0.5461  0.3848 -0.0053
  840MOL0     C13279   8.726   2.892   8.255  0.5268  1.6035  0.2833
  840MOL0     C13280   8.689   2.964   8.384 -0.6156 -1.3484 -0.0069
  840MOL0     C13281   8.662   2.866   8.497 -1.6850 -0.0831  0.8698
  840MOL0     N13282   8.650   2.935   8.620  0.2552  0.4255 -0.1795
  840MOL0     C13283   8.552   3.023   8.655 -0.1479 -0.0817  0.3554
  840MOL0     C13284   8.587   3.081   8.769  1.3707  0.6216 -0.9804
  840MOL0     C13285   8.522   3.197   8.836  0.1054  0.4818 -0.2574
  840MOL0     C13286   8.581   3.331   8.797  0.0138  0.6441  0.4329
  840MOL0     C13287   8.515   3.434   8.892 -0.1511  0.5725  0.2728
  840MOL0     C13288   8.414   3.524   8.829  0.0126 -0.8248  0.5835
  840MOL0     O13289   8.482   3.617   8.752  0.1349 -0.4170 -0.0884
  840MOL0     C13290   8.491   3.745   8.799 -0.1810 -0.8308 -0.3730
  840MOL0     C13291   8.396   3.844   8.768 -0.8156  0.0991  0.7327
  840MOL0     C13292   8.414   3.984   8.810  0.5796 -0.3301 -0.7082
  840MOL0     C13293   8.312   4.091   8.773 -0.5976 -0.6578 -0.8470
  840MOL0     C13294   8.529   4.015   8.884 -0.4657 -0.8692 -0.5798
  840MOL0     C13295   8.574   4.153   8.909  0.3170 -0.5630  0.5162
  840MOL0     O13296   8.592   4.237   8.797  0.5502  0.2733  0.4047
  840MOL0     C13297   8.632   4.367   8.797 -0.5581  0.2864  0.1538
  840MOL0     C13298   8.685   4.396   8.671 -0.9090  0.1102  0.3963
  840MOL0     C13299   8.747   4.521   8.646 -0.0367 -0.2878  0.0297
  840MOL0     C13300   8.717   4.625   8.734 -0.8791 -0.0323 -0.8899
  840MOL0     O13301   8.762   4.755   8.722 -0.4829  1.1728  0.3985
  840MOL0     C13302   8.783   4.805   8.595 -0.2820 -0.1540  0.5225
  840MOL0     C13303   8.810   4.958   8.586 -0.1319 -0.6495  0.3935
  840MOL0     C13304   8.948   5.008   8.645 -1.9425 -0.6162 -0.1101
  840MOL0     C13305   8.963   5.164   8.646  0.4552  0.8152 -0.7710
  840MOL0     C13306   9.091   5.235   8.698  0.7534 -0.4278  0.3365
  840MOL0     C13307   9.198   5.211   8.578  0.5173 -0.4173 -0.6105
  840MOL0     C13308   9.334   5.265   8.609 -0.0519 -0.3149  0.2290
  840MOL0     C13309   9.386   5.354   8.491 -0.1839 -0.1186 -0.0975
  840MOL0    Cl13310   9.426   5.236   8.358 -0.5824  0.1285 -0.1180
  840MOL0     C13311   8.665   4.596   8.867 -0.0673  0.1606  1.3307
  840MOL0     C13312   8.615   4.468   8.892 -0.3127  0.0419  0.7004
  840MOL0     O13313   8.583   4.191   9.027 -0.2764  0.3826  0.2528
  840MOL0     C13314   8.622   3.908   8.914  0.2157  0.0636  0.8776
  840MOL0     C13315   8.597   3.772   8.882 -0.9831  0.0933 -0.0487
  840MOL0     N13316   8.709   3.027   8.814  0.7644 -0.2724  0.5111
  840MOL0     N13317   8.746   2.942   8.721 -0.6214  0.3065  0.4557
  840MOL0     C13318   9.378   2.311   8.009 -0.4913 -0.0907  0.1975
  840MOL0     C13319   9.494   2.229   7.968 -0.2471 -0.9289  0.1017
  840MOL0     C13320   9.968   2.180   7.947  0.1187  0.2120  0.5412
  840MOL0     C13321   9.972   2.085   8.058  0.6621 -0.7644 -0.2177
  840MOL0     C13322  10.092   2.027   8.101 -0.0471 -0.3003  1.3056
  840MOL0     C13323  10.207   2.054   8.020  0.6646  0.8617  0.0391
  840MOL0     O13324  10.338   2.006   8.044  0.3553 -0.2787  0.4282
  840MOL0     C13325  10.349   1.906   8.151  0.1883  0.0200 -0.2890
  840MOL0     C13326  10.488   1.838   8.145  0.0855  0.0643 -0.1610
  840MOL0     C13327  10.557   1.811   8.008  0.1878  0.8313 -0.0003
  840MOL0     C13328  10.588   1.654   7.996 -0.0167  0.2042  0.7236
  840MOL0     C13329  10.457   1.586   7.980 -0.1405 -1.0901  0.3916
  840MOL0     C13330  10.342   1.534   7.984 -0.7667  0.8644 -1.1151
  840MOL0     C13331  10.200   2.131   7.900 -0.0449  0.0524  0.3614
  840MOL0     C13332  10.083   2.200   7.863  1.1479  0.9524  0.9335
  840MOL0     H13333   9.734   2.425   8.106  0.3098 -1.0410 -0.6257
  840MOL0     H13334   9.545   2.563   8.153  0.7287 -0.1545  0.1367
  840MOL0     H13335   9.197   2.480   7.906 -4.2437  0.1697  0.0210
  840MOL0     H13336   9.107   2.423   8.048  1.0768 -1.6125 -0.4249
  840MOL0     H13337   9.120   2.694   7.950  0.6859 -1.2873 -1.5916
  840MOL0     H13338   8.973   2.581   7.963 -0.1050 -0.1134  1.3833
  840MOL0     H13339   9.019   2.584   8.211 -0.8648  3.3278  3.3196
  840MOL0     H13340   9.116   2.729   8.200 -1.5930  1.3509  1.2748
  840MOL0     H13341   8.939   2.834   8.070 -0.0262 -0.5893 -0.9199
  840MOL0     H13342   8.838   2.679   8.087 -0.0977  1.5625 -1.5163
  840MOL0     H13343   8.833   2.714   8.323  2.5452 -0.4527 -0.3838
  840MOL0     H13344   8.935   2.865   8.311  1.0454 -0.4950  0.3488
  840MOL0     H13345   8.738   2.956   8.167 -0.9090 -0.5781 -1.6158
  840MOL0     H13346   8.637   2.834   8.232  0.3901  0.6126  2.9697
  840MOL0     H13347   8.763   3.041   8.408 -2.8286  1.1886 -0.8696
  840MOL0     H13348   8.605   3.034   8.376 -0.1178 -0.1927  3.2020
  840MOL0     H13349   8.743   2.791   8.499 -0.0606  1.4244 -1.9985
  840MOL0     H13350   8.568   2.812   8.483 -1.6795 -0.3632  1.8161
  840MOL0     H13351   8.467   3.056   8.597 -0.8548 -0.1097  1.3458
  840MOL0     H13352   8.417   3.199   8.805  0.3411 -0.3584 -1.1196
  840MOL0     H13353   8.532   3.188   8.945  1.1616 -1.0100 -0.4689
  840MOL0     H13354   8.549   3.348   8.694 -0.0115  2.3778  0.6971
  840MOL0     H13355   8.690   3.321   8.804  0.2695 -1.4628 -3.4572
  840MOL0     H13356   8.586   3.505   8.936  1.2533 -0.6902  0.1168
  840MOL0     H13357   8.471   3.393   8.984 -2.3372  3.3802  0.6144
  840MOL0     H13358   8.370   3.579   8.913  0.0273 -0.1139  0.1368
  840MOL0     H13359   8.336   3.466   8.779 -2.2212  0.9588  1.8062
  840MOL0     H13360   8.300   3.830   8.718 -0.1811 -2.0079  0.0389
  840MOL0     H13361   8.237   4.094   8.853  1.1476 -0.7734  0.8477
  840MOL0     H13362   8.357   4.189   8.757 -2.8895  0.2358 -2.3759
  840MOL0     H13363   8.256   4.055   8.685  0.3286  0.6796 -2.0211
  840MOL0     H13364   8.706   4.310   8.608  0.1494 -1.1887  2.4227
  840MOL0     H13365   8.801   4.545   8.555 -1.0802  2.2078 -0.0074
  840MOL0     H13366   8.877   4.761   8.559  0.6017  2.2065 -0.2543
  840MOL0     H13367   8.694   4.774   8.540 -1.1914  2.8052  0.1659
  840MOL0     H13368   8.833   4.980   8.482  0.8813 -0.6271  0.6166
  840MOL0     H13369   8.726   5.019   8.621 -2.5040 -3.3883 -0.1289
  840MOL0     H13370   9.015   4.965   8.569 -1.6397  2.3476 -1.6416
  840MOL0     H13371   8.967   4.969   8.746  0.5852 -3.3470 -1.4512
  840MOL0     H13372   8.939   5.190   8.542 -1.6170 -0.9012 -0.7799
  840MOL0     H13373   8.884   5.208   8.708  2.1505  2.9094  0.0651
  840MOL0     H13374   9.125   5.197   8.795  2.5913 -4.7564 -1.7342
  840MOL0     H13375   9.077   5.344   8.704  0.3168  0.0656 -4.7534
  840MOL0     H13376   9.210   5.104   8.563  0.0419 -0.5438 -0.1172
  840MOL0     H13377   9.160   5.265   8.491 -2.5194  1.0666  1.4601
  840MOL0     H13378   9.403   5.183   8.630  3.2071  1.9485 -0.8391
  840MOL0     H13379   9.338   5.333   8.694  0.8687 -1.2877  0.9741
  840MOL0     H13380   9.483   5.402   8.509  1.0336 -2.3531 -0.3909
  840MOL0     H13381   9.322   5.440   8.467  1.5729  2.1804  2.7080
  840MOL0     H13382   8.667   4.672   8.944  1.1229  0.5304  0.9537
  840MOL0     H13383   8.564   4.444   8.985  0.0055 -0.2117  0.8094
  840MOL0     H13384   8.716   3.923   8.967  0.2109  1.0005  0.6249
  840MOL0     H13385   8.681   3.704   8.884 -0.7099  0.4319  1.7898
  840MOL0     H13386   9.287   2.262   7.974  0.2136 -0.4546 -1.1889
  840MOL0     H13387   9.477   2.136   7.914  0.6499 -0.5594 -0.8296
  840MOL0     H13388   9.888   2.075   8.127  3.0524  0.1735  3.0518
  840MOL0     H13389  10.103   1.960   8.186  3.8645 -1.4911  0.0568
  840MOL0     H13390  10.341   1.952   8.250  0.4918  1.1689 -0.7876
  840MOL0     H13391  10.263   1.838   8.146 -2.2389  2.9727 -3.7901
  840MOL0     H13392  10.491   1.745   8.203 -1.5279 -0.1186 -0.3305
  840MOL0     H13393  10.561   1.904   8.193 -0.1489 -1.0494  1.8339
  840MOL0     H13394  10.649   1.870   8.004  0.1074  0.9193 -0.6843
  840MOL0     H13395  10.490   1.844   7.928 -3.1516  0.5686  2.4732
  840MOL0     H13396  10.652   1.619   8.078  0.6501 -2.6163 -0.8752
  840MOL0     H13397  10.652   1.635   7.910 -3.0830 -2.9359 -1.1007
  840MOL0     H13398  10.245   1.493   7.968 -0.5376 -0.9618  1.5051
  840MOL0     H13399  10.294   2.125   7.846  1.2123  0.4922  2.3659
  840MOL0     H13400  10.079   2.262   7.773 -3.2574 -0.0593  0.2205
  841MOL0     O13401   9.089   9.206   9.555  0.8295 -0.6225  0.0086
  841MOL0     C13402   9.011   9.121   9.599 -0.1872  0.1499  0.0364
  841MOL0     O13403   8.882   9.133   9.602 -0.0078  0.9200 -0.2864
  841MOL0     C13404   8.812   9.246   9.582  0.9521 -0.8735  1.4502
  841MOL0     C13405   8.851   9.372   9.630  0.3478  0.5657  0.7765
  841MOL0     C13406   8.772   9.485   9.603  0.0493  0.2988 -0.7498
  841MOL0     C13407   8.650   9.464   9.532  0.3840  0.1215 -0.4281
  841MOL0     O13408   8.551   9.551   9.495 -0.5547 -0.3152 -0.1845
  841MOL0     C13409   8.543   9.682   9.559  0.6560 -0.4713  0.0438
  841MOL0     C13410   8.638   9.781   9.479 -0.8139 -0.7835  0.0768
  841MOL0     C13411   8.566   9.855   9.362  0.5597  0.3485 -0.4264
  841MOL0     C13412   8.646   9.988   9.328 -0.1172  0.8024  0.2086
  841MOL0     C13413   8.645  10.085   9.451  0.0862  0.7324  0.1976
  841MOL0     C13414   8.668  10.233   9.412  0.6781  0.0605 -0.0810
  841MOL0     C13415   8.810  10.251   9.350  1.2062 -1.0798 -0.0562
  841MOL0     C13416   8.825  10.389   9.301 -0.6710  0.6166  1.0446
  841MOL0     N13417   8.956  10.415   9.238 -0.0526 -0.0611 -0.4736
  841MOL0     C13418   9.074  10.399   9.299 -0.6150  0.6014 -0.4615
  841MOL0     C13419   9.174  10.433   9.210 -0.3902 -0.7087 -0.0520
  841MOL0     C13420   9.322  10.445   9.231  0.4544 -0.4123 -0.1845
  841MOL0     C13421   9.392  10.360   9.137 -0.6461  0.3023  0.0161
  841MOL0     C13422   9.406  10.413   8.995  0.0661 -0.6827  0.1603
  841MOL0     C13423   9.539  10.470   8.964  0.3051  0.2588 -0.3437
  841MOL0     O13424   9.623  10.354   8.945 -0.3123 -0.1083 -0.0513
  841MOL0     C13425   9.756  10.363   8.919 -0.2926  0.1921  0.0377
  841MOL0     C13426   9.834  10.254   8.873 -0.0961  0.2664  0.0393
  841MOL0     C13427   9.973  10.258   8.847 -0.4798  0.2404 -0.0239
  841MOL0     C13428  10.046  10.140   8.788  0.0232 -0.0717 -0.4948
  841MOL0     C13429  10.038  10.383   8.869 -0.4825  0.6804 -0.4503
  841MOL0     C13430  10.187  10.404   8.854  0.6122 -0.5855 -0.2993
  841MOL0     O13431  10.217  10.530   8.886 -0.3747  0.5480  0.4906
  841MOL0     C13432  10.354  10.569   8.888 -0.2993 -0.1252 -0.9339
  841MOL0     C13433  10.415  10.639   8.789 -0.9041 -1.0112 -0.5593
  841MOL0     C13434  10.545  10.680   8.814 -0.2745 -0.4072 -0.4801
  841MOL0     C13435  10.619  10.651   8.936  1.0947  0.5009  0.4940
  841MOL0     O13436  10.742  10.694   8.948 -0.3512  0.1462 -0.0802
  841MOL0     C13437  10.806  10.699   9.081  1.1295  0.7767  0.2987
  841MOL0     C13438  10.926  10.775   9.090 -0.4133  0.3070  0.3396
  841MOL0     C13439  11.039  10.700   9.012  0.5634 -0.1440 -0.5100
  841MOL0     C13440  11.167  10.778   9.036  0.6631 -0.1395  0.9682
  841MOL0     C13441  11.291  10.700   8.991 -0.2183 -0.1997  0.2963
  841MOL0     C13442  11.429  10.774   9.019  0.2745 -0.2044 -0.4586
  841MOL0     C13443  11.451  10.895   8.932  0.8776  0.0103 -0.2131
  841MOL0     C13444  11.512  10.868   8.798  0.5173  0.2936  0.5719
  841MOL0    Cl13445  11.540  11.028   8.722 -0.0040 -0.3851  0.1973
  841MOL0     C13446  10.550  10.580   9.034  0.0329  0.5820 -0.0435
  841MOL0     C13447  10.422  10.545   9.011 -0.3982  1.8484  0.1745
  841MOL0     O13448  10.273  10.326   8.823 -0.3346 -0.5289  0.3277
  841MOL0     C13449   9.959  10.490   8.912 -0.6556  0.3594  0.4598
  841MOL0     C13450   9.821  10.480   8.933 -0.0693  0.3785 -0.5559
  841MOL0     N13451   9.113  10.481   9.092  0.5813 -0.7734  0.0130
  841MOL0     N13452   8.982  10.465   9.114  0.2952  0.2776 -0.1341
  841MOL0     C13453   8.619   9.339   9.487  0.0009 -0.7418  0.3805
  841MOL0     C13454   8.700   9.228   9.507  1.0842  0.1322 -0.3696
  841MOL0     C13455   9.079   9.004   9.658 -0.7011  0.1270 -0.1431
  841MOL0     C13456   9.218   9.005   9.694 -0.1787  0.6374 -0.0664
  841MOL0     C13457   9.280   8.899   9.767  0.8686  0.5483  0.5543
  841MOL0     C13458   9.195   8.799   9.816 -0.1211 -0.6907 -0.4404
  841MOL0     O13459   9.252   8.711   9.902  0.2116 -0.6132  0.1663
  841MOL0     C13460   9.241   8.579   9.849 -0.0568 -0.1263 -0.4560
  841MOL0     C13461   9.149   8.498   9.947  0.1237 -0.1205 -0.1436
  841MOL0     C13462   9.075   8.381   9.885 -0.4088 -0.0952  0.3172
  841MOL0     C13463   8.998   8.278   9.979 -0.5336  0.0404  0.3852
  841MOL0     C13464   8.902   8.353  10.067  0.5201  0.3983 -1.2772
  841MOL0     C13465   8.842   8.429  10.142  0.3357  0.1356 -0.6332
  841MOL0     C13466   9.059   8.796   9.782  0.2387 -0.0602  0.1492
  841MOL0     C13467   9.001   8.898   9.714 -1.1150 -0.5308 -0.3374
  841MOL0     H13468   8.936   9.373   9.697  0.2526 -4.1250  1.2747
  841MOL0     H13469   8.807   9.578   9.648  2.0016 -0.5956 -0.2869
  841MOL0     H13470   8.445   9.729   9.551 -0.3223 -2.4473 -0.2656
  841MOL0     H13471   8.555   9.686   9.667  1.6096  5.2153  0.0096
  841MOL0     H13472   8.669   9.850   9.557  0.3559 -2.2683  0.9739
  841MOL0     H13473   8.726   9.730   9.440  1.5904  1.7373  1.8412
  841MOL0     H13474   8.552   9.786   9.279  2.4205 -1.1036  0.3907
  841MOL0     H13475   8.471   9.890   9.404 -0.0751 -1.0945 -0.6086
  841MOL0     H13476   8.745   9.967   9.288  1.5441  3.9706  2.2544
  841MOL0     H13477   8.591  10.034   9.246  0.1285  1.8956  0.6427
  841MOL0     H13478   8.547  10.075   9.499 -0.5888  2.0060 -0.8595
  841MOL0     H13479   8.717  10.048   9.524  0.1957 -1.1516 -0.8002
  841MOL0     H13480   8.584  10.263   9.348  0.8893  0.7416 -0.0439
  841MOL0     H13481   8.672  10.304   9.494  0.7580  0.7630 -0.6883
  841MOL0     H13482   8.877  10.240   9.435  1.0069 -0.7949  0.1432
  841MOL0     H13483   8.821  10.167   9.282 -2.3804 -1.1119 -0.8311
  841MOL0     H13484   8.814  10.464   9.381 -1.5196  3.7514 -1.7878
  841MOL0     H13485   8.745  10.413   9.231 -0.5588  0.4288  0.8512
  841MOL0     H13486   9.078  10.375   9.405  0.2833 -0.2811 -0.6829
  841MOL0     H13487   9.348  10.551   9.233  1.4212 -0.6460 -0.0928
  841MOL0     H13488   9.328  10.408   9.334 -3.2890  0.6075  0.5746
  841MOL0     H13489   9.342  10.263   9.144  2.1033 -1.4510 -2.4341
  841MOL0     H13490   9.494  10.347   9.174  0.1984  1.6282 -1.6787
  841MOL0     H13491   9.331  10.490   8.973  0.3480 -0.0548  1.2745
  841MOL0     H13492   9.394  10.343   8.912 -0.4512  0.4441 -0.7447
  841MOL0     H13493   9.574  10.532   9.047 -0.5873 -0.9271  0.9692
  841MOL0     H13494   9.535  10.528   8.872  0.3264  1.4346  0.3850
  841MOL0     H13495   9.775  10.164   8.858  2.2048 -1.8603  2.6152
  841MOL0     H13496  10.130  10.111   8.851  1.2239  0.0766 -1.9563
  841MOL0     H13497   9.983  10.054   8.763 -0.5443  0.0182  0.5589
  841MOL0     H13498  10.094  10.157   8.691 -0.0238 -0.9501 -0.6769
  841MOL0     H13499  10.372  10.663   8.692 -0.0231 -2.0807 -1.2357
  841MOL0     H13500  10.592  10.732   8.731  0.5748 -1.5099 -0.7023
  841MOL0     H13501  10.730  10.730   9.154  2.7660 -0.8934  2.8822
  841MOL0     H13502  10.823  10.596   9.112 -2.9627  0.2764  1.5042
  841MOL0     H13503  10.909  10.877   9.055 -3.0867 -0.4796 -0.9435
  841MOL0     H13504  10.941  10.778   9.199 -2.1847 -1.1959  0.6961
  841MOL0     H13505  11.014  10.690   8.907 -2.5868  3.2357 -0.2623
  841MOL0     H13506  11.065  10.609   9.067  0.4169  0.2757  0.2667
  841MOL0     H13507  11.168  10.874   8.984 -2.2003  0.2294  1.4394
  841MOL0     H13508  11.184  10.787   9.144  1.6839 -0.4410  0.8450
  841MOL0     H13509  11.280  10.684   8.883 -0.3379 -2.3128  0.5876
  841MOL0     H13510  11.300  10.606   9.046 -0.6778 -1.0492 -1.0335
  841MOL0     H13511  11.425  10.791   9.127 -0.9522 -4.5663  0.3644
  841MOL0     H13512  11.511  10.704   9.000 -2.2816 -3.2168 -1.3479
  841MOL0     H13513  11.499  10.978   8.984 -2.2985  2.6969 -1.2107
  841MOL0     H13514  11.349  10.931   8.919  0.6734  0.7415  2.6421
  841MOL0     H13515  11.442  10.812   8.735  1.4200  2.0862 -2.2513
  841MOL0     H13516  11.599  10.803   8.789  0.1545 -0.4104  1.9599
  841MOL0     H13517  10.602  10.531   9.116  1.8368  1.7287 -0.4456
  841MOL0     H13518  10.368  10.487   9.085 -0.0875  0.5603 -0.5857
  841MOL0     H13519   9.993  10.590   8.936  1.8262 -0.5566  1.0575
  841MOL0     H13520   9.768  10.567   8.968 -0.8606 -0.5990  0.7980
  841MOL0     H13521   8.523   9.323   9.441 -0.1450  0.6554  0.1620
  841MOL0     H13522   8.671   9.128   9.478  1.5187  0.9441 -4.1468
  841MOL0     H13523   9.288   9.083   9.664  1.1679 -0.2904  0.5475
  841MOL0     H13524   9.386   8.890   9.785  1.0878  1.6276 -0.0990
  841MOL0     H13525   9.202   8.592   9.748  0.2679  1.9237 -0.3601
  841MOL0     H13526   9.338   8.531   9.829 -0.2070 -0.6041 -0.0482
  841MOL0     H13527   9.079   8.565   9.996  0.1585 -0.5842  0.5521
  841MOL0     H13528   9.215   8.457  10.025  1.0020  0.1840 -0.7056
  841MOL0     H13529   9.139   8.330   9.813 -0.7312  1.3084 -1.0168
  841MOL0     H13530   8.998   8.423   9.819  0.2372 -0.1461 -0.4778
  841MOL0     H13531   9.067   8.211  10.031  0.3158 -0.0672 -0.8232
  841MOL0     H13532   8.938   8.212   9.916 -3.0545 -0.6684  3.3193
  841MOL0     H13533   8.793   8.500  10.206 -1.1970  0.5336 -2.1604
  841MOL0     H13534   8.991   8.717   9.814  0.7953 -1.7317 -2.4115
  841MOL0     H13535   8.895   8.918   9.716 -0.5839  3.0762  0.1201
  842MOL0     O13536  10.712   7.749  10.657 -0.6339 -0.2118  0.1405
  842MOL0     C13537  10.694   7.665  10.745  0.5806 -0.7108 -0.3327
  842MOL0     O13538  10.621   7.687  10.855 -0.1164  0.0895 -0.7919
  842MOL0     C13539  10.550   7.807  10.871 -0.1360 -1.0879  0.0297
  842MOL0     C13540  10.453   7.842  10.779 -0.4507 -0.5648  0.3276
  842MOL0     C13541  10.394   7.969  10.790 -0.7581  0.0986  0.0513
  842MOL0     C13542  10.434   8.053  10.895 -0.0294 -0.0303 -0.3063
  842MOL0     O13543  10.406   8.182  10.888 -0.6581 -0.2587 -0.2127
  842MOL0     C13544  10.514   8.281  10.911  0.2598  0.3630 -0.6818
  842MOL0     C13545  10.479   8.420  10.840  0.0453  0.1961  0.1613
  842MOL0     C13546  10.408   8.504  10.932  0.5955  0.6543 -0.7716
  842MOL0     C13547  10.342   8.632  10.876 -0.4166 -0.0593 -0.0508
  842MOL0     C13548  10.288   8.729  10.979 -0.2067 -0.1038  0.3480
  842MOL0     C13549  10.250   8.875  10.941 -0.0432 -0.4431  0.1731
  842MOL0     C13550  10.128   8.879  10.847  0.4752 -0.4538  0.6197
  842MOL0     C13551  10.165   8.963  10.731 -0.4716  0.8068  0.0889
  842MOL0     N13552  10.276   8.914  10.644  0.8765 -0.1051 -0.6734
  842MOL0     C13553  10.274   8.795  10.580  0.0264  0.4928  0.2343
  842MOL0     C13554  10.379   8.793  10.492  0.2301 -0.3297 -0.4608
  842MOL0     C13555  10.423   8.685  10.409  0.0474  0.1585 -0.6769
  842MOL0     C13556  10.360   8.546  10.445  0.7053 -0.4406  0.2690
  842MOL0     C13557  10.418   8.436  10.360  0.6055  0.1162 -0.4208
  842MOL0     C13558  10.342   8.310  10.389 -0.2158  0.4887  0.1466
  842MOL0     O13559  10.377   8.208  10.299 -0.0102  0.2602  0.5888
  842MOL0     C13560  10.491   8.123  10.333 -0.2626  0.6740 -0.0613
  842MOL0     C13561  10.582   8.137  10.446  0.8571 -0.9030  0.4541
  842MOL0     C13562  10.694   8.052  10.462 -0.8029 -0.2566  0.9464
  842MOL0     C13563  10.773   8.074  10.587 -0.4851  0.1222  0.3272
  842MOL0     C13564  10.714   7.954  10.367  0.2889 -0.1483  0.6458
  842MOL0     C13565  10.820   7.860  10.369  0.2588  0.2365  0.5247
  842MOL0     O13566  10.944   7.897  10.425 -0.1070  0.1519  0.6447
  842MOL0     C13567  11.052   7.815  10.396  0.5470 -0.6555  0.3902
  842MOL0     C13568  11.140   7.774  10.494 -0.1879 -0.0245  0.4156
  842MOL0     C13569  11.261   7.703  10.458 -0.5766 -1.5148 -0.3308
  842MOL0     C13570  11.291   7.665  10.325 -0.3250 -0.1475 -0.2860
  842MOL0     O13571  11.393   7.587  10.278 -0.1106  0.8917  1.1210
  842MOL0     C13572  11.488   7.529  10.364 -0.4055  0.3383  0.3572
  842MOL0     C13573  11.590   7.635  10.417 -0.6588  0.7131 -0.6168
  842MOL0     C13574  11.691   7.563  10.517  0.3693  0.5088  0.1074
  842MOL0     C13575  11.661   7.581  10.666  0.3459 -0.2421  0.2438
  842MOL0     C13576  11.767   7.531  10.751  0.5729  0.9539 -0.1118
  842MOL0     C13577  11.764   7.377  10.742  0.4815  0.3513  0.4342
  842MOL0     C13578  11.873   7.312  10.835  0.8226 -0.3405 -0.8444
  842MOL0     C13579  12.011   7.366  10.810  0.3158  0.1115 -0.0114
  842MOL0    Cl13580  12.046   7.530  10.887  0.9678  0.6390 -0.5149
  842MOL0     C13581  11.194   7.712  10.224 -0.7586  0.1222  0.0468
  842MOL0     C13582  11.087   7.786  10.266 -0.1896  0.1514 -0.0625
  842MOL0     O13583  10.797   7.748  10.319  0.1554  0.5504  1.1778
  842MOL0     C13584  10.625   7.952  10.255  0.9360 -0.1066  0.9824
  842MOL0     C13585  10.511   8.023  10.241 -0.8442 -0.6088  0.1270
  842MOL0     N13586  10.451   8.912  10.517  0.2184 -0.3058  0.6155
  842MOL0     N13587  10.382   8.983  10.601  0.2382  0.3844 -0.3096
  842MOL0     C13588  10.516   8.008  10.994  0.6203 -0.3985  0.0573
  842MOL0     C13589  10.589   7.887  10.975 -0.1462  0.1588 -0.7349
  842MOL0     C13590  10.755   7.534  10.743  0.4192 -0.5678 -0.3976
  842MOL0     C13591  10.812   7.498  10.621  1.1896 -0.0365  0.3120
  842MOL0     C13592  10.864   7.375  10.604  0.7435 -0.2168 -0.8155
  842MOL0     C13593  10.867   7.278  10.711  0.2291  0.3519  0.5265
  842MOL0     O13594  10.931   7.153  10.690 -0.2533 -0.2446  0.0765
  842MOL0     C13595  10.953   7.111  10.560  0.4478  0.2619  0.4285
  842MOL0     C13596  10.998   6.967  10.583 -1.3488 -0.6023 -0.0754
  842MOL0     C13597  11.047   6.903  10.460 -0.3858  0.7402 -0.3623
  842MOL0     C13598  11.054   6.754  10.476  0.0365 -0.6490 -0.9883
  842MOL0     C13599  11.067   6.688  10.345 -0.4075 -0.7051  0.7055
  842MOL0     C13600  11.074   6.618  10.246  1.1709  0.7109 -0.3486
  842MOL0     C13601  10.820   7.321  10.828 -0.7246  0.6466 -0.9389
  842MOL0     C13602  10.766   7.444  10.850  0.9050 -0.0331  0.6617
  842MOL0     H13603  10.421   7.771  10.704  1.3322 -1.1805  0.1041
  842MOL0     H13604  10.336   7.994  10.702 -0.8304 -2.1836 -0.6137
  842MOL0     H13605  10.531   8.284  11.019 -2.8799  1.2129 -0.0861
  842MOL0     H13606  10.607   8.239  10.872  0.8272  2.1657 -1.3785
  842MOL0     H13607  10.573   8.472  10.819 -0.3452  0.6128 -0.5611
  842MOL0     H13608  10.421   8.413  10.748 -0.2640  5.0693 -0.2354
  842MOL0     H13609  10.330   8.438  10.970  0.4824  1.2610  0.0823
  842MOL0     H13610  10.472   8.536  11.015 -1.5921  1.1090  0.8284
  842MOL0     H13611  10.412   8.695  10.822 -0.9889  0.9194  0.3195
  842MOL0     H13612  10.255   8.616  10.811  0.2551  2.9051 -1.8369
  842MOL0     H13613  10.203   8.678  11.026 -1.0815  1.5860  0.6533
  842MOL0     H13614  10.361   8.727  11.061  0.9360 -0.7045 -0.6500
  842MOL0     H13615  10.225   8.934  11.029 -1.0623 -2.1329  1.0660
  842MOL0     H13616  10.341   8.917  10.896  0.6522  0.9539  2.6745
  842MOL0     H13617  10.088   8.785  10.810  1.7706 -0.2864 -1.3273
  842MOL0     H13618  10.044   8.937  10.887 -1.1879 -2.4065  0.1284
  842MOL0     H13619  10.183   9.066  10.762  1.4086  0.0790  1.6746
  842MOL0     H13620  10.075   8.948  10.670 -2.7616 -1.6437  3.6641
  842MOL0     H13621  10.204   8.712  10.583  1.2081 -0.4976  2.2708
  842MOL0     H13622  10.416   8.707  10.302 -2.2630 -1.8987 -1.0577
  842MOL0     H13623  10.532   8.682  10.420  0.0590  3.0662  0.9792
  842MOL0     H13624  10.253   8.552  10.425  1.3806  0.4234 -4.3533
  842MOL0     H13625  10.382   8.529  10.551 -1.5294 -2.8694  0.4256
  842MOL0     H13626  10.524   8.423  10.384  0.0764  0.8636  2.7458
  842MOL0     H13627  10.406   8.469  10.256 -0.7479 -0.6700 -0.5310
  842MOL0     H13628  10.233   8.316  10.374 -0.5107 -0.1054  1.8379
  842MOL0     H13629  10.356   8.272  10.490 -0.8847 -1.8106 -0.5648
  842MOL0     H13630  10.558   8.211  10.521  0.2748 -1.9393  1.3253
  842MOL0     H13631  10.848   8.146  10.555  0.7178 -0.7253  1.1729
  842MOL0     H13632  10.707   8.120  10.662  0.5255 -1.4037  2.2737
  842MOL0     H13633  10.826   7.986  10.627  1.9858  0.7627 -1.3418
  842MOL0     H13634  11.115   7.806  10.594 -0.0646 -0.8314  0.7125
  842MOL0     H13635  11.334   7.684  10.536  0.7973  0.8138 -0.9627
  842MOL0     H13636  11.429   7.499  10.450 -0.4805  0.8262  0.4828
  842MOL0     H13637  11.534   7.447  10.307  0.6239  1.0494  0.1153
  842MOL0     H13638  11.652   7.677  10.337 -0.0841  0.0432 -0.5357
  842MOL0     H13639  11.540   7.717  10.469 -0.0686 -0.4748  2.0270
  842MOL0     H13640  11.793   7.601  10.517  0.5079  0.1974 -1.7518
  842MOL0     H13641  11.687   7.458  10.487  1.3836  0.8156 -1.1479
  842MOL0     H13642  11.647   7.687  10.692 -0.7675 -0.0953 -0.8815
  842MOL0     H13643  11.565   7.532  10.682  0.1619 -0.7094 -2.0446
  842MOL0     H13644  11.754   7.562  10.855  3.0544 -1.8555  1.1967
  842MOL0     H13645  11.863   7.569  10.716  0.9344  2.0276  1.9154
  842MOL0     H13646  11.664   7.346  10.774  0.6789  0.3906  1.1030
  842MOL0     H13647  11.793   7.332  10.647 -1.6272  1.3643 -0.7514
  842MOL0     H13648  11.867   7.204  10.824 -0.9391 -0.4399  0.5207
  842MOL0     H13649  11.839   7.329  10.938 -1.6154  0.2652 -1.6824
  842MOL0     H13650  12.019   7.393  10.705  1.9961  0.0035  0.0541
  842MOL0     H13651  12.098   7.303  10.832  0.8665  0.9380  0.2353
  842MOL0     H13652  11.198   7.678  10.121 -2.5039 -2.2106  0.6480
  842MOL0     H13653  11.018   7.808  10.185 -2.4122 -2.8762  0.8148
  842MOL0     H13654  10.641   7.873  10.183 -2.0472 -0.0825  0.1573
  842MOL0     H13655  10.439   8.006  10.162 -1.6977  0.6717  0.6034
  842MOL0     H13656  10.538   8.077  11.074 -0.3155  3.1789 -2.5146
  842MOL0     H13657  10.656   7.844  11.049 -1.7029 -0.8826  0.1298
  842MOL0     H13658  10.809   7.567  10.537  1.8944  2.3617  2.1608
  842MOL0     H13659  10.910   7.351  10.509  0.5320 -1.7697 -0.5571
  842MOL0     H13660  10.862   7.099  10.500  1.7858 -0.1346 -1.6566
  842MOL0     H13661  11.032   7.163  10.504 -0.8123 -2.8154 -4.9977
  842MOL0     H13662  10.922   6.900  10.623 -0.1048 -1.9792  0.0396
  842MOL0     H13663  11.081   6.961  10.653 -1.7262 -0.3428  0.3983
  842MOL0     H13664  11.150   6.924  10.430  0.0048 -0.3122  0.2126
  842MOL0     H13665  10.982   6.920  10.373 -2.7780  0.1741  1.2044
  842MOL0     H13666  10.970   6.705  10.524  0.2211 -0.0438 -0.0256
  842MOL0     H13667  11.142   6.727  10.535  1.8435 -0.4733 -3.4325
  842MOL0     H13668  11.056   6.562  10.156 -3.8790  1.4604 -0.1256
  842MOL0     H13669  10.837   7.260  10.916 -0.6349  0.5169 -1.0459
  842MOL0     H13670  10.729   7.483  10.945 -0.2478 -1.0497  0.6616
  843MOL0     O13671   6.470   5.837   0.714  0.1867  0.3271 -0.1546
  843MOL0     C13672   6.382   5.761   0.743 -0.4054  0.3717  0.5536
  843MOL0     O13673   6.365   5.710   0.869  0.1079 -0.0314 -0.6096
  843MOL0     C13674   6.446   5.766   0.966 -0.6353 -0.1390  0.0451
  843MOL0     C13675   6.417   5.888   1.022  0.1607  0.2626  0.1386
  843MOL0     C13676   6.488   5.960   1.113  0.2194  0.4583 -0.9016
  843MOL0     C13677   6.617   5.906   1.155 -0.9687 -0.3059 -0.2467
  843MOL0     O13678   6.703   5.969   1.246 -0.1457 -0.3644  0.7991
  843MOL0     C13679   6.671   6.077   1.329  0.2009 -0.6134 -0.0288
  843MOL0     C13680   6.760   6.192   1.297  0.0638 -0.2899 -0.4026
  843MOL0     C13681   6.760   6.303   1.407  0.4144 -0.2868 -0.2639
  843MOL0     C13682   6.627   6.391   1.417  0.0367 -0.4749  0.0687
  843MOL0     C13683   6.604   6.460   1.280  0.5809  0.9394 -0.2621
  843MOL0     C13684   6.705   6.575   1.271  0.1474 -0.0859  0.1611
  843MOL0     C13685   6.648   6.684   1.184  0.5316 -0.4434 -0.0981
  843MOL0     C13686   6.727   6.816   1.227 -0.2771  0.6586 -0.3731
  843MOL0     N13687   6.656   6.931   1.174 -0.2030  0.7981  0.3678
  843MOL0     C13688   6.645   6.973   1.048  1.0760  0.1794  0.4303
  843MOL0     C13689   6.540   7.054   1.040  1.3158  1.0237 -0.4345
  843MOL0     C13690   6.485   7.117   0.912 -0.7522  0.2385 -1.1266
  843MOL0     C13691   6.358   7.206   0.942 -0.0178  0.0458  0.0611
  843MOL0     C13692   6.345   7.315   0.841 -0.0474  0.0150  0.8335
  843MOL0     C13693   6.434   7.437   0.869  0.5998  0.9746 -0.0962
  843MOL0     O13694   6.376   7.540   0.783 -0.0643 -0.2447  0.3406
  843MOL0     C13695   6.392   7.676   0.806  0.8287 -0.0414  0.5929
  843MOL0     C13696   6.507   7.738   0.862 -0.6702  0.0205  0.5151
  843MOL0     C13697   6.521   7.875   0.887  0.4585 -0.5704 -0.6588
  843MOL0     C13698   6.647   7.929   0.946  0.2902  0.5742  0.3478
  843MOL0     C13699   6.416   7.962   0.840 -0.5251 -0.3087 -0.5532
  843MOL0     C13700   6.401   8.104   0.890  0.6049 -0.6311  0.4846
  843MOL0     O13701   6.468   8.130   1.015 -0.6690 -0.6259 -0.8355
  843MOL0     C13702   6.434   8.257   1.067  0.1077 -0.8451  0.3302
  843MOL0     C13703   6.470   8.377   1.005  0.1254 -0.9288  0.3113
  843MOL0     C13704   6.426   8.502   1.056 -0.2764  0.2734  0.0193
  843MOL0     C13705   6.349   8.511   1.174 -0.0541 -1.0809  0.4530
  843MOL0     O13706   6.309   8.630   1.229 -0.2701  0.1103 -0.3460
  843MOL0     C13707   6.384   8.746   1.191  0.2805 -0.7009 -0.4145
  843MOL0     C13708   6.331   8.850   1.284  0.7013 -0.0609  1.0495
  843MOL0     C13709   6.395   8.988   1.245  0.2545  0.3114  0.0631
  843MOL0     C13710   6.368   9.094   1.350  0.0546 -0.4055  0.2792
  843MOL0     C13711   6.224   9.153   1.333 -0.4246  0.2891 -0.5350
  843MOL0     C13712   6.190   9.259   1.446 -0.3967 -0.3037  0.4225
  843MOL0     C13713   6.046   9.311   1.414  0.0574  0.3990 -0.5320
  843MOL0     C13714   6.020   9.422   1.506  0.0142 -0.4565  0.0977
  843MOL0    Cl13715   6.025   9.399   1.681  0.6024  0.0853  0.0695
  843MOL0     C13716   6.314   8.397   1.238  0.5877  0.1489 -0.3348
  843MOL0     C13717   6.351   8.275   1.185 -0.2395 -0.4510 -0.3230
  843MOL0     O13718   6.335   8.184   0.828  0.5771 -0.1743  0.0143
  843MOL0     C13719   6.306   7.906   0.772  0.1766 -0.6080 -0.4356
  843MOL0     C13720   6.297   7.768   0.757 -0.1247 -0.7319 -0.6277
  843MOL0     N13721   6.489   7.050   1.165 -0.1801 -0.0059  0.0813
  843MOL0     N13722   6.554   6.978   1.245  0.3169  0.5660  0.0021
  843MOL0     C13723   6.658   5.783   1.098  0.4558 -0.3005  0.4436
  843MOL0     C13724   6.575   5.719   1.012 -0.2876 -0.8394  0.0465
  843MOL0     C13725   6.287   5.714   0.637  0.1181 -0.1475  0.7023
  843MOL0     C13726   6.329   5.727   0.502  0.2615  0.1833  0.4862
  843MOL0     C13727   6.258   5.664   0.396 -0.8995 -1.1156  0.0013
  843MOL0     C13728   6.149   5.577   0.416 -0.5527 -0.0293  0.7074
  843MOL0     O13729   6.104   5.524   0.303  0.1898 -0.3346  0.0958
  843MOL0     C13730   5.964   5.498   0.311 -0.5754  0.4312 -0.3633
  843MOL0     C13731   5.905   5.430   0.175 -0.4081 -0.7194  0.2477
  843MOL0     C13732   5.914   5.510   0.051 -0.6973 -0.8533 -0.3558
  843MOL0     C13733   5.825   5.462  -0.056  0.7262  1.2327 -0.3947
  843MOL0     C13734   5.682   5.464  -0.025  0.0954  0.2437  0.0279
  843MOL0     C13735   5.565   5.452   0.001 -0.3632 -0.0612  0.7317
  843MOL0     C13736   6.110   5.565   0.545 -0.7271 -0.1751 -2.4439
  843MOL0     C13737   6.179   5.627   0.654 -0.0647 -0.7385  0.7120
  843MOL0     H13738   6.328   5.940   0.990 -0.5801 -0.9284  0.2056
  843MOL0     H13739   6.448   6.055   1.147 -2.1177  0.2975 -2.9015
  843MOL0     H13740   6.565   6.106   1.322  0.9900  2.5562 -0.2311
  843MOL0     H13741   6.703   6.050   1.430 -0.1791  3.4356  1.3430
  843MOL0     H13742   6.857   6.141   1.302 -0.2968 -1.1125 -1.5152
  843MOL0     H13743   6.765   6.231   1.195  1.9066 -0.3922 -0.3867
  843MOL0     H13744   6.788   6.266   1.507  0.4509 -1.3827 -0.6701
  843MOL0     H13745   6.840   6.371   1.376 -2.6270  3.9222  0.3461
  843MOL0     H13746   6.531   6.345   1.446  0.5625 -2.0357 -0.5585
  843MOL0     H13747   6.634   6.468   1.495  1.0900  0.3711 -0.8478
  843MOL0     H13748   6.608   6.388   1.197  0.0185  0.8583 -0.2196
  843MOL0     H13749   6.504   6.502   1.285 -0.4904 -1.4465 -0.0733
  843MOL0     H13750   6.747   6.613   1.365 -0.0573  0.2058  0.1368
  843MOL0     H13751   6.793   6.525   1.227  0.5857  0.8114 -0.0039
  843MOL0     H13752   6.663   6.649   1.081 -0.0166  0.4139 -0.4760
  843MOL0     H13753   6.541   6.700   1.202  0.6371 -0.4356  0.5361
  843MOL0     H13754   6.830   6.820   1.191 -0.3180 -1.1644 -0.7984
  843MOL0     H13755   6.731   6.840   1.333  3.2312 -0.2494 -0.1712
  843MOL0     H13756   6.708   6.925   0.973  0.7049 -0.6830  0.6655
  843MOL0     H13757   6.573   7.177   0.888  1.2992  0.2233  4.7821
  843MOL0     H13758   6.464   7.034   0.843  3.2303 -3.9321  2.0373
  843MOL0     H13759   6.364   7.248   1.043  3.6236  1.5702 -0.6600
  843MOL0     H13760   6.275   7.135   0.932 -0.7204  0.1162  3.9093
  843MOL0     H13761   6.239   7.341   0.846 -0.3846 -0.4791 -2.0161
  843MOL0     H13762   6.357   7.275   0.740 -1.1308 -0.2446  0.7873
  843MOL0     H13763   6.541   7.425   0.850  0.1051 -3.4661 -1.2657
  843MOL0     H13764   6.427   7.468   0.973 -2.1975 -0.4743  0.2624
  843MOL0     H13765   6.592   7.677   0.891  1.4600  2.7891  0.5093
  843MOL0     H13766   6.695   8.008   0.887  0.1491 -0.8623 -1.7827
  843MOL0     H13767   6.630   7.975   1.044  0.1864  0.7321  0.2562
  843MOL0     H13768   6.729   7.857   0.956  2.5928  2.6540 -1.8903
  843MOL0     H13769   6.509   8.374   0.904 -4.8369 -0.5444 -1.8837
  843MOL0     H13770   6.457   8.594   1.009  0.5115 -0.2390 -0.4950
  843MOL0     H13771   6.488   8.732   1.222  0.2739  0.9582  0.4624
  843MOL0     H13772   6.372   8.778   1.087 -0.8335  1.0953  0.2328
  843MOL0     H13773   6.222   8.852   1.272  0.7649  1.0306  0.6498
  843MOL0     H13774   6.364   8.836   1.388  0.3626 -2.5412  0.8907
  843MOL0     H13775   6.390   9.025   1.142  3.9862  0.9834 -0.0258
  843MOL0     H13776   6.503   8.970   1.243  0.5133  1.4910  1.4436
  843MOL0     H13777   6.387   9.064   1.454  2.0578 -3.1423 -0.7522
  843MOL0     H13778   6.442   9.171   1.325  0.1821  1.1748  4.6408
  843MOL0     H13779   6.165   9.062   1.345  1.7972 -1.0532  0.9144
  843MOL0     H13780   6.230   9.189   1.230  2.1780 -1.9157 -1.2612
  843MOL0     H13781   6.177   9.208   1.542  1.8210  1.0396  1.5114
  843MOL0     H13782   6.267   9.337   1.448 -0.2362 -0.4646  0.4474
  843MOL0     H13783   5.988   9.223   1.442 -1.7176  0.7711 -2.7792
  843MOL0     H13784   6.022   9.341   1.312 -2.6304 -0.1823 -0.1354
  843MOL0     H13785   5.926   9.469   1.475  0.4936  1.4062  1.3142
  843MOL0     H13786   6.093   9.499   1.483 -1.8604  2.0351  1.8962
  843MOL0     H13787   6.264   8.407   1.334  1.7713 -1.6363  0.5053
  843MOL0     H13788   6.323   8.186   1.241  4.2560 -0.5193  2.2755
  843MOL0     H13789   6.225   7.965   0.730  1.0223  0.4665 -0.5917
  843MOL0     H13790   6.203   7.733   0.716  0.7254 -1.6500 -1.9127
  843MOL0     H13791   6.754   5.740   1.124  1.3406  0.6834 -1.0009
  843MOL0     H13792   6.610   5.624   0.972  0.3044 -1.2988  1.5967
  843MOL0     H13793   6.415   5.789   0.479  1.0515 -0.9989  0.1818
  843MOL0     H13794   6.287   5.683   0.294  2.3912  1.6963  1.2886
  843MOL0     H13795   5.929   5.439   0.396 -0.4877  2.2237  0.9700
  843MOL0     H13796   5.928   5.601   0.307  1.7810  1.4095  1.2814
  843MOL0     H13797   5.802   5.399   0.197 -0.4592 -0.4487  0.3913
  843MOL0     H13798   5.950   5.336   0.141  0.7349  0.8233 -3.0371
  843MOL0     H13799   6.021   5.505   0.032 -0.0637  0.3094  2.3916
  843MOL0     H13800   5.910   5.619   0.053  3.5151 -0.5405  0.5061
  843MOL0     H13801   5.850   5.360  -0.087 -2.7655  0.5423 -1.3256
  843MOL0     H13802   5.834   5.525  -0.145  1.6665  0.5985 -0.7656
  843MOL0     H13803   5.462   5.437   0.028 -0.0206 -2.8284  0.8310
  843MOL0     H13804   6.028   5.503   0.583  1.3798 -1.2823  0.7399
  843MOL0     H13805   6.153   5.620   0.759 -1.3228  0.0859  0.4809
  844MOL0     O13806   7.768   4.590   8.265  0.1171 -1.1314  0.0030
  844MOL0     C13807   7.885   4.617   8.294  1.3209  0.2236  0.0703
  844MOL0     O13808   7.974   4.542   8.364 -0.2626 -0.3706 -0.1716
  844MOL0     C13809   7.942   4.417   8.399  0.4589 -0.0635  0.3769
  844MOL0     C13810   7.919   4.393   8.527 -0.1496 -0.3975  0.2004
  844MOL0     C13811   7.896   4.263   8.565 -0.4507 -0.5085 -0.5252
  844MOL0     C13812   7.880   4.155   8.470  0.4255 -1.7456 -0.3084
  844MOL0     O13813   7.851   4.023   8.508  0.2281  0.2668  0.4119
  844MOL0     C13814   7.820   3.993   8.643  0.2961  0.1403  0.7613
  844MOL0     C13815   7.680   4.035   8.688 -0.0216  1.1501  1.0741
  844MOL0     C13816   7.601   3.927   8.760  0.5036 -0.2150  0.2779
  844MOL0     C13817   7.454   3.965   8.809  0.1234 -0.5710 -0.2418
  844MOL0     C13818   7.344   3.961   8.705  0.6689 -0.1315 -0.7312
  844MOL0     C13819   7.202   3.972   8.755  0.2446  0.6007  0.0405
  844MOL0     C13820   7.114   4.052   8.657 -0.9101 -0.1147  0.6365
  844MOL0     C13821   6.979   4.105   8.719 -0.6331 -0.1469 -0.4820
  844MOL0     N13822   6.892   3.994   8.741  0.4561 -0.1167 -0.0202
  844MOL0     C13823   6.754   4.005   8.730  0.8440 -0.3477  0.3959
  844MOL0     C13824   6.697   3.884   8.755 -1.0277 -0.2884  0.6638
  844MOL0     C13825   6.550   3.838   8.751  1.3995 -0.1457  0.4687
  844MOL0     C13826   6.464   3.911   8.639 -0.2034  0.3651  0.3219
  844MOL0     C13827   6.316   3.885   8.659 -0.4125  0.7773 -0.2218
  844MOL0     C13828   6.232   3.990   8.580 -0.1649 -0.4558 -0.2533
  844MOL0     O13829   6.229   4.124   8.632 -1.2199 -0.6357 -0.4403
  844MOL0     C13830   6.126   4.160   8.707  0.6443 -0.2686 -0.0788
  844MOL0     C13831   6.115   4.297   8.728 -0.0817 -0.8575 -0.0006
  844MOL0     C13832   6.008   4.362   8.802 -0.1593  0.7056  0.0477
  844MOL0     C13833   6.009   4.511   8.809 -0.2641 -0.2137  0.3763
  844MOL0     C13834   5.922   4.269   8.863  0.2711  0.2580 -0.4473
  844MOL0     C13835   5.797   4.322   8.937 -0.4279 -0.2543  0.2937
  844MOL0     O13836   5.729   4.220   8.996  0.4423  0.1598  0.6517
  844MOL0     C13837   5.596   4.230   9.022 -0.3797  0.2610 -0.6705
  844MOL0     C13838   5.544   4.236   9.151 -0.1257  0.3911  0.3121
  844MOL0     C13839   5.405   4.252   9.172  0.2932 -0.7903  0.0823
  844MOL0     C13840   5.321   4.258   9.070 -0.0782  0.1586  0.4104
  844MOL0     O13841   5.190   4.284   9.095  0.5649 -0.3540  0.1991
  844MOL0     C13842   5.088   4.191   9.058 -0.0729 -0.3030 -0.1590
  844MOL0     C13843   4.986   4.158   9.173 -0.4687  0.2656  0.2917
  844MOL0     C13844   4.937   4.012   9.171 -0.5503 -0.5208 -0.8180
  844MOL0     C13845   4.903   3.963   9.315  0.8064  0.1745  0.0782
  844MOL0     C13846   5.022   3.953   9.415 -0.5182 -0.6379  0.3928
  844MOL0     C13847   5.136   3.862   9.368 -0.3408 -1.1901  0.8633
  844MOL0     C13848   5.267   3.861   9.461  0.4782  0.3601 -0.1885
  844MOL0     C13849   5.353   3.981   9.450  0.5793  0.6442 -0.2120
  844MOL0    Cl13850   5.422   3.981   9.287 -0.1919  0.2859 -0.0404
  844MOL0     C13851   5.371   4.246   8.938  0.1035  0.2230 -0.3399
  844MOL0     C13852   5.505   4.220   8.918  0.0960  1.1412  0.7372
  844MOL0     O13853   5.756   4.442   8.928 -0.8698 -0.0490  0.8442
  844MOL0     C13854   5.939   4.130   8.852  1.3280 -0.3472 -0.2172
  844MOL0     C13855   6.040   4.075   8.775  0.1569 -0.0940  1.0937
  844MOL0     N13856   6.809   3.804   8.782 -0.2399  0.0210  0.2107
  844MOL0     N13857   6.924   3.864   8.777 -0.7975 -0.7531 -0.1237
  844MOL0     C13858   7.898   4.188   8.336 -0.6356  0.3112 -0.4176
  844MOL0     C13859   7.938   4.320   8.297 -0.7058  1.0432 -0.4952
  844MOL0     C13860   7.929   4.749   8.242  0.0380 -0.6038 -0.2500
  844MOL0     C13861   8.050   4.807   8.284  0.3918  0.1477 -0.5133
  844MOL0     C13862   8.091   4.932   8.247 -0.4178 -0.2219 -0.2875
  844MOL0     C13863   8.005   5.003   8.160 -0.5886 -0.0435 -0.4512
  844MOL0     O13864   8.029   5.130   8.108  0.0019 -0.0515  0.1038
  844MOL0     C13865   8.096   5.223   8.191  0.0674 -0.8824  0.2804
  844MOL0     C13866   8.230   5.255   8.130  0.0201  1.1816 -0.5088
  844MOL0     C13867   8.223   5.279   7.982 -0.1331 -0.6654  0.3010
  844MOL0     C13868   8.336   5.371   7.934  0.1501  0.2636  0.0929
  844MOL0     C13869   8.416   5.309   7.828  0.3324  0.0731 -0.7281
  844MOL0     C13870   8.455   5.271   7.721 -0.5527 -0.1783 -0.3481
  844MOL0     C13871   7.888   4.946   8.119  0.4261 -0.0026  0.3312
  844MOL0     C13872   7.841   4.828   8.162  0.1739 -0.1991  0.4729
  844MOL0     H13873   7.892   4.464   8.605 -2.8456 -1.8902  0.7525
  844MOL0     H13874   7.880   4.249   8.672  1.1769  1.2984  0.0162
  844MOL0     H13875   7.830   3.884   8.643  3.5735  0.3283 -0.4744
  844MOL0     H13876   7.903   4.020   8.710  0.2467 -0.5661  1.1172
  844MOL0     H13877   7.678   4.120   8.756 -3.3303  1.0649  1.2553
  844MOL0     H13878   7.622   4.070   8.602  1.6545  1.3537 -0.0145
  844MOL0     H13879   7.595   3.826   8.718  1.6755 -0.0563 -0.3145
  844MOL0     H13880   7.649   3.904   8.855 -0.0077  0.9476  0.8410
  844MOL0     H13881   7.427   3.892   8.887  1.7941 -0.6708  0.3041
  844MOL0     H13882   7.452   4.060   8.862 -1.5997 -1.4972  1.4848
  844MOL0     H13883   7.374   4.040   8.636  0.2726  1.4130  0.7962
  844MOL0     H13884   7.353   3.868   8.648 -4.1305 -0.8838 -0.6837
  844MOL0     H13885   7.162   3.874   8.784  0.8085  0.3335 -0.0812
  844MOL0     H13886   7.203   4.020   8.854  0.4558  3.0679 -1.1023
  844MOL0     H13887   7.174   4.137   8.623  1.0469  0.7306  5.3473
  844MOL0     H13888   7.095   4.001   8.562 -0.2202  0.2742  0.2797
  844MOL0     H13889   6.940   4.172   8.642  0.5197  0.4287 -0.5897
  844MOL0     H13890   6.998   4.157   8.813 -0.4052  0.3822 -0.8172
  844MOL0     H13891   6.706   4.094   8.694 -3.1521 -2.7510 -0.8689
  844MOL0     H13892   6.543   3.730   8.740  0.6481 -0.0070 -0.5754
  844MOL0     H13893   6.493   3.861   8.842 -2.1061 -2.7084 -0.8505
  844MOL0     H13894   6.489   3.882   8.536  2.2998  1.8521  0.4329
  844MOL0     H13895   6.471   4.020   8.647  2.0997  0.2688  0.3208
  844MOL0     H13896   6.281   3.883   8.763  0.6816 -0.7521  0.1588
  844MOL0     H13897   6.285   3.785   8.627  0.7204  1.0127 -2.1542
  844MOL0     H13898   6.133   3.948   8.559 -2.3779  1.9209  4.1464
  844MOL0     H13899   6.286   4.003   8.486 -0.2655 -0.6275 -0.3356
  844MOL0     H13900   6.201   4.352   8.693  0.2345 -1.9117 -0.9321
  844MOL0     H13901   6.085   4.547   8.739 -0.3609 -0.2447  0.2555
  844MOL0     H13902   5.915   4.565   8.793  2.0814  4.4506  0.8388
  844MOL0     H13903   6.044   4.534   8.910  0.5933  1.6594 -0.3137
  844MOL0     H13904   5.614   4.234   9.234  0.9974  1.0282 -0.6011
  844MOL0     H13905   5.366   4.251   9.274 -0.5969  0.0668 -0.2336
  844MOL0     H13906   5.031   4.239   8.978 -0.3560  0.8482  0.7077
  844MOL0     H13907   5.128   4.095   9.022  1.0199 -0.3925  1.2211
  844MOL0     H13908   5.037   4.173   9.268  1.1711 -1.2351 -0.3027
  844MOL0     H13909   4.896   4.220   9.182  0.6571  1.9343  0.3086
  844MOL0     H13910   5.009   3.949   9.118 -1.1896  1.7254 -4.7401
  844MOL0     H13911   4.847   4.006   9.110 -0.7824  1.9539 -0.8184
  844MOL0     H13912   4.835   4.028   9.370  1.6407  1.6835 -0.5699
  844MOL0     H13913   4.864   3.861   9.314 -0.3593  0.6086 -0.9823
  844MOL0     H13914   4.986   3.916   9.512  1.0002 -2.3624  0.3376
  844MOL0     H13915   5.067   4.051   9.436  1.9411 -1.6624  0.2190
  844MOL0     H13916   5.090   3.763   9.362 -2.7099 -0.1738  0.8400
  844MOL0     H13917   5.174   3.897   9.272  0.0235 -2.4222  0.5496
  844MOL0     H13918   5.330   3.773   9.448  1.9266  0.7983  2.9689
  844MOL0     H13919   5.232   3.840   9.563 -0.9232  1.3384 -0.4447
  844MOL0     H13920   5.428   3.979   9.530  1.8662  3.5349 -1.2139
  844MOL0     H13921   5.290   4.071   9.457 -0.9648 -0.4291  0.4905
  844MOL0     H13922   5.313   4.251   8.846 -2.0859 -0.9899  0.8901
  844MOL0     H13923   5.539   4.212   8.815  0.7244 -0.3477  1.0307
  844MOL0     H13924   5.868   4.063   8.899  0.0998  0.2570 -1.1874
  844MOL0     H13925   6.053   3.968   8.764 -2.1505 -0.4806  1.6237
  844MOL0     H13926   7.888   4.119   8.252 -1.3002  1.2620 -1.1402
  844MOL0     H13927   7.935   4.344   8.192 -0.9892 -0.6568 -0.9037
  844MOL0     H13928   8.116   4.763   8.358 -0.5488 -1.3467 -0.5207
  844MOL0     H13929   8.191   4.967   8.269 -0.6063 -0.3916  0.9017
  844MOL0     H13930   8.032   5.311   8.205 -0.9464 -1.6087  0.2604
  844MOL0     H13931   8.106   5.187   8.294 -0.1530 -3.6770 -0.6073
  844MOL0     H13932   8.287   5.165   8.158 -1.8561  0.5977  1.7333
  844MOL0     H13933   8.272   5.341   8.183 -0.2518 -1.1159  3.9132
  844MOL0     H13934   8.131   5.335   7.960  2.6339  4.6679  0.7430
  844MOL0     H13935   8.236   5.186   7.926 -1.9195 -2.9063  3.2895
  844MOL0     H13936   8.415   5.379   8.009  0.9247 -2.2770 -0.3776
  844MOL0     H13937   8.287   5.466   7.906  0.5103  1.0411  1.9591
  844MOL0     H13938   8.484   5.225   7.629 -0.1659  0.4046 -0.5251
  844MOL0     H13939   7.836   5.000   8.040  0.8035 -3.0366 -2.1551
  844MOL0     H13940   7.744   4.801   8.121 -0.9485  0.9947  2.2048
  845MOL0     O13941  10.506   3.424   7.353  0.4193 -0.1126 -0.3697
  845MOL0     C13942  10.472   3.542   7.337 -0.6263  0.8821 -0.0955
  845MOL0     O13943  10.437   3.622   7.440  0.7582  0.0869 -0.5209
  845MOL0     C13944  10.459   3.567   7.567  0.0998  0.4793  1.0791
  845MOL0     C13945  10.357   3.498   7.632  0.1844  0.2131 -0.3177
  845MOL0     C13946  10.380   3.448   7.755 -0.1347 -0.4832 -0.1109
  845MOL0     C13947  10.512   3.441   7.802 -0.4224 -1.5962 -0.3889
  845MOL0     O13948  10.542   3.384   7.924  0.0127 -0.6726 -0.4990
  845MOL0     C13949  10.441   3.325   8.017 -0.8435 -0.7025  0.2008
  845MOL0     C13950  10.511   3.252   8.128 -0.1853  1.2783 -0.6554
  845MOL0     C13951  10.499   3.327   8.267 -0.4489 -0.8734 -0.8665
  845MOL0     C13952  10.564   3.249   8.388 -0.3003  0.2133  0.3371
  845MOL0     C13953  10.495   3.287   8.525  0.5587  0.1180  0.0044
  845MOL0     C13954  10.563   3.214   8.643  0.8373 -0.4638 -0.5102
  845MOL0     C13955  10.530   3.264   8.784  0.1848  0.4157  0.4493
  845MOL0     C13956  10.404   3.194   8.837 -0.6189 -0.6332 -0.2292
  845MOL0     N13957  10.400   3.214   8.978  0.8935  0.5612  0.2015
  845MOL0     C13958  10.434   3.320   9.059 -0.9640 -0.3204 -0.4585
  845MOL0     C13959  10.386   3.296   9.179 -0.3484  0.5988  0.0797
  845MOL0     C13960  10.417   3.377   9.302  0.6260 -0.1180 -0.4931
  845MOL0     C13961  10.527   3.331   9.406  0.1659 -0.3447 -0.5055
  845MOL0     C13962  10.520   3.181   9.439  0.3553 -0.6071  0.5146
  845MOL0     C13963  10.603   3.133   9.547 -0.5574  0.3552 -0.9771
  845MOL0     O13964  10.732   3.149   9.500 -0.0950 -0.1534  0.6948
  845MOL0     C13965  10.839   3.092   9.566  0.2249  0.5643  0.6318
  845MOL0     C13966  10.838   3.017   9.687  0.6351  0.0717 -0.0144
  845MOL0     C13967  10.957   2.968   9.741  0.0621  0.1057 -0.1401
  845MOL0     C13968  10.937   2.881   9.871  0.5681  0.7207  0.6215
  845MOL0     C13969  11.086   2.993   9.676 -0.1889 -0.9757 -0.7031
  845MOL0     C13970  11.218   2.942   9.724  0.6345  1.1283  0.4424
  845MOL0     O13971  11.333   2.978   9.666 -0.6121 -0.6304 -0.4803
  845MOL0     C13972  11.452   2.965   9.734 -0.1819 -0.1475 -1.8223
  845MOL0     C13973  11.507   3.079   9.799 -0.4420 -0.1930  0.0827
  845MOL0     C13974  11.629   3.064   9.869 -0.3604  0.7852 -0.1121
  845MOL0     C13975  11.689   2.941   9.889  0.6639  0.1034  0.3880
  845MOL0     O13976  11.817   2.927   9.947 -0.3839  0.0364  0.3421
  845MOL0     C13977  11.856   2.789   9.982 -0.2563 -0.6228 -0.1796
  845MOL0     C13978  11.987   2.774  10.074  0.6599  0.2293  0.2713
  845MOL0     C13979  12.099   2.879  10.042 -0.2947  0.3174  0.6865
  845MOL0     C13980  12.230   2.843  10.114  0.6915  1.2652 -0.4292
  845MOL0     C13981  12.346   2.942  10.102  0.2619 -0.1684 -0.4095
  845MOL0     C13982  12.422   2.963   9.979 -0.1584  0.3995  0.0987
  845MOL0     C13983  12.371   3.084   9.911  0.1527  0.3198 -0.7580
  845MOL0     C13984  12.428   3.113   9.777 -0.3080  0.2819 -0.5962
  845MOL0    Cl13985  12.377   3.269   9.726 -0.0242  0.4888  0.1995
  845MOL0     C13986  11.630   2.835   9.823 -0.2449  0.2589  0.1107
  845MOL0     C13987  11.518   2.839   9.740 -0.4373 -0.2312 -0.7320
  845MOL0     O13988  11.209   2.862   9.810  0.3061  0.4831 -0.2227
  845MOL0     C13989  11.086   3.087   9.569  0.5097 -1.4730  0.6611
  845MOL0     C13990  10.961   3.141   9.519  0.9635  0.0424 -0.6107
  845MOL0     N13991  10.322   3.173   9.180 -1.0029 -0.0044  0.3312
  845MOL0     N13992  10.339   3.122   9.060  0.4741 -0.2726  0.3931
  845MOL0     C13993  10.618   3.495   7.735 -0.2262  0.1316  0.4923
  845MOL0     C13994  10.595   3.558   7.614  0.2648  1.7581 -1.1733
  845MOL0     C13995  10.475   3.604   7.202  1.1953 -0.5996 -0.3063
  845MOL0     C13996  10.393   3.709   7.167  0.7790 -0.6914  0.2179
  845MOL0     C13997  10.382   3.751   7.029  0.0768  0.4848  0.5587
  845MOL0     C13998  10.456   3.682   6.935 -0.6301 -0.1859  0.2155
  845MOL0     O13999  10.447   3.692   6.801 -0.5214  0.1003 -0.1041
  845MOL0     C14000  10.340   3.779   6.757  0.0122 -0.5519 -0.8879
  845MOL0     C14001  10.342   3.771   6.610  0.2390 -0.7086 -0.2771
  845MOL0     C14002  10.234   3.868   6.558  1.1743 -0.8460  0.2206
  845MOL0     C14003  10.233   3.898   6.408 -0.8548  0.7266 -0.0749
  845MOL0     C14004  10.257   3.766   6.331 -0.3099 -0.1639  0.2095
  845MOL0     C14005  10.287   3.675   6.260  1.4333 -0.0998 -1.2992
  845MOL0     C14006  10.533   3.572   6.970 -0.2003 -0.5808 -0.5715
  845MOL0     C14007  10.545   3.530   7.106 -0.0439  0.8113  0.4666
  845MOL0     H14008  10.259   3.500   7.586 -0.8219  3.9404  1.5273
  845MOL0     H14009  10.291   3.405   7.800 -1.4624 -2.3409 -3.9753
  845MOL0     H14010  10.381   3.407   8.057 -1.4957 -1.3518  0.5692
  845MOL0     H14011  10.385   3.248   7.964  0.0033 -2.6885  2.0475
  845MOL0     H14012  10.466   3.153   8.142 -0.6456  1.7219  1.4365
  845MOL0     H14013  10.615   3.230   8.105  0.1084 -2.0102  2.8123
  845MOL0     H14014  10.569   3.411   8.263  2.0475 -2.5818  2.0496
  845MOL0     H14015  10.396   3.362   8.271 -0.2124 -0.0920 -1.4103
  845MOL0     H14016  10.557   3.141   8.373 -0.0961 -0.0846  2.1273
  845MOL0     H14017  10.673   3.255   8.388 -0.2994  0.1983  0.3565
  845MOL0     H14018  10.503   3.395   8.533  0.5158  0.0926  0.3990
  845MOL0     H14019  10.393   3.248   8.518  0.2965  0.8671 -0.4338
  845MOL0     H14020  10.538   3.108   8.645  0.5021 -0.3937  1.7428
  845MOL0     H14021  10.671   3.222   8.626  0.5753 -0.4249 -2.3035
  845MOL0     H14022  10.616   3.232   8.844  2.4622 -2.3966 -3.7702
  845MOL0     H14023  10.527   3.373   8.790 -0.0798  0.5354 -1.4327
  845MOL0     H14024  10.415   3.087   8.813  1.2810 -0.7799  1.0494
  845MOL0     H14025  10.320   3.238   8.782  0.5398  1.9869 -0.0474
  845MOL0     H14026  10.499   3.405   9.043  1.0992 -1.4614  1.3040
  845MOL0     H14027  10.427   3.484   9.286  4.0720 -0.1021  0.8719
  845MOL0     H14028  10.325   3.375   9.362 -0.3604 -0.3656 -1.9562
  845MOL0     H14029  10.522   3.386   9.501  3.1163 -1.3558  0.3304
  845MOL0     H14030  10.625   3.362   9.369 -0.0007 -0.3624 -0.9636
  845MOL0     H14031  10.536   3.131   9.343  0.6509 -1.1339  0.8371
  845MOL0     H14032  10.414   3.176   9.468  0.0333  1.0807 -0.2350
  845MOL0     H14033  10.594   3.026   9.568  1.4047  0.4841  0.8336
  845MOL0     H14034  10.568   3.188   9.636 -0.6088 -1.2334  0.0249
  845MOL0     H14035  10.743   2.994   9.735  1.3489 -1.0611  0.9357
  845MOL0     H14036  10.832   2.881   9.899  0.2671 -1.3945 -0.2944
  845MOL0     H14037  10.963   2.778   9.843  0.7964  0.7946  0.5571
  845MOL0     H14038  10.998   2.914   9.955  3.6315  1.5197 -1.7033
  845MOL0     H14039  11.473   3.177   9.769  0.9517 -0.4119 -2.5344
  845MOL0     H14040  11.680   3.146   9.918 -1.4014  1.3246  0.0924
  845MOL0     H14041  11.765   2.747  10.025 -0.9430 -1.1470 -2.0137
  845MOL0     H14042  11.893   2.735   9.894  0.8809 -2.8496  1.5571
  845MOL0     H14043  11.953   2.799  10.175 -1.1679 -2.9761  0.5975
  845MOL0     H14044  12.021   2.671  10.073 -1.1616 -0.4022  0.0595
  845MOL0     H14045  12.083   2.985  10.062 -1.5946  0.1525  0.5691
  845MOL0     H14046  12.117   2.873   9.934  0.4007  1.0519  0.7478
  845MOL0     H14047  12.226   2.816  10.220  1.2317 -3.0213 -1.3370
  845MOL0     H14048  12.263   2.756  10.056  0.8775 -1.3111  3.2313
  845MOL0     H14049  12.418   2.906  10.177 -0.1937  2.1972  1.2988
  845MOL0     H14050  12.311   3.036  10.146  2.2724  1.8650 -2.8370
  845MOL0     H14051  12.522   2.984  10.019 -1.2577  0.9198  2.7962
  845MOL0     H14052  12.437   2.883   9.905 -1.0424  0.8306 -0.5543
  845MOL0     H14053  12.391   3.178   9.963  5.0937  0.6077 -2.6848
  845MOL0     H14054  12.266   3.053   9.908  1.0298 -3.1832 -0.3121
  845MOL0     H14055  12.381   3.039   9.712  0.2838  1.0554 -1.9386
  845MOL0     H14056  12.536   3.109   9.796 -0.3033  1.2382 -0.4004
  845MOL0     H14057  11.673   2.736   9.812 -1.1511 -0.1612  0.1756
  845MOL0     H14058  11.476   2.757   9.682 -0.5357 -0.4731 -0.3178
  845MOL0     H14059  11.183   3.122   9.535  0.5337  0.7808  2.7441
  845MOL0     H14060  10.986   3.200   9.431  5.0035  2.0074  1.5929
  845MOL0     H14061  10.716   3.484   7.779 -0.8983 -1.5372  1.6625
  845MOL0     H14062  10.679   3.609   7.568  0.2348  2.3707 -0.5649
  845MOL0     H14063  10.322   3.757   7.234  0.1994 -2.2552  0.7929
  845MOL0     H14064  10.326   3.841   7.007  0.3685  1.0165  1.8855
  845MOL0     H14065  10.246   3.730   6.785 -2.2959  1.0226 -4.9237
  845MOL0     H14066  10.350   3.878   6.802  0.1894 -1.3201  0.8412
  845MOL0     H14067  10.302   3.672   6.586 -1.1289 -0.4001  0.5994
  845MOL0     H14068  10.444   3.786   6.574  1.2665 -0.0078  2.6237
  845MOL0     H14069  10.254   3.966   6.603  2.5802 -1.7233  1.6214
  845MOL0     H14070  10.134   3.834   6.584  1.0770 -0.8669 -0.1779
  845MOL0     H14071  10.325   3.950   6.383 -1.2082  2.0692  1.2725
  845MOL0     H14072  10.138   3.943   6.380 -1.3139  0.8548  1.5705
  845MOL0     H14073  10.317   3.589   6.204  0.1681 -2.1696  1.0259
  845MOL0     H14074  10.562   3.517   6.881 -1.8435 -1.2051 -0.7696
  845MOL0     H14075  10.596   3.438   7.131  1.2411  1.0238 -1.1842
  846MOL0     O14076  11.492   1.402   4.557  0.0132 -0.3432  0.2720
  846MOL0     C14077  11.370   1.433   4.567 -0.6593  0.0991 -0.3071
  846MOL0     O14078  11.274   1.357   4.638  0.3887 -0.3152  0.7693
  846MOL0     C14079  11.321   1.249   4.704 -0.0003  0.3538  0.0607
  846MOL0     C14080  11.432   1.249   4.781 -1.1682 -0.4981  0.1961
  846MOL0     C14081  11.482   1.135   4.843  0.2725 -0.1020 -1.0684
  846MOL0     C14082  11.405   1.011   4.835  0.7099 -0.0702 -0.0035
  846MOL0     O14083  11.439   0.895   4.893 -0.3969 -0.0381 -0.6593
  846MOL0     C14084  11.576   0.848   4.909 -0.1114  0.1533 -0.2953
  846MOL0     C14085  11.581   0.728   5.006 -0.1620 -1.6603  0.3057
  846MOL0     C14086  11.488   0.738   5.125  0.6033 -0.4307  0.0401
  846MOL0     C14087  11.541   0.645   5.230  0.5695  0.6083  0.2499
  846MOL0     C14088  11.441   0.643   5.343  0.0066 -0.6796  1.2475
  846MOL0     C14089  11.477   0.562   5.463  0.1291  0.4828  0.3314
  846MOL0     C14090  11.492   0.416   5.436  0.4036  0.0643 -1.2592
  846MOL0     C14091  11.373   0.348   5.360 -0.1199 -0.0553  0.8441
  846MOL0     N14092  11.378   0.206   5.379 -0.2969 -0.6118 -0.6504
  846MOL0     C14093  11.351   0.133   5.492 -0.1265 -0.0191  0.5728
  846MOL0     C14094  11.361   0.002   5.462 -0.4415 -0.0735 -0.5219
  846MOL0     C14095  11.343  -0.112   5.562  0.2881 -1.1722  0.7956
  846MOL0     C14096  11.204  -0.136   5.607 -0.3156 -0.3798 -0.6345
  846MOL0     C14097  11.194  -0.263   5.694  0.2030 -0.2340  0.2988
  846MOL0     C14098  11.177  -0.231   5.844  0.4291 -0.4414 -0.1701
  846MOL0     O14099  11.058  -0.150   5.845  0.6371 -0.0868  0.0906
  846MOL0     C14100  10.955  -0.182   5.931 -0.0661  0.2742  0.0439
  846MOL0     C14101  10.932  -0.079   6.018  0.2449  0.5579 -0.8069
  846MOL0     C14102  10.824  -0.083   6.102  0.1503 -0.2695  1.1182
  846MOL0     C14103  10.792   0.039   6.194  0.5802  0.1077  1.6364
  846MOL0     C14104  10.752  -0.202   6.122  0.4093 -0.4196  0.7020
  846MOL0     C14105  10.640  -0.224   6.208  0.4007 -1.0511 -0.5336
  846MOL0     O14106  10.541  -0.302   6.160 -0.1081 -0.5285 -0.4806
  846MOL0     C14107  10.419  -0.321   6.220 -0.3112 -0.0827 -0.2684
  846MOL0     C14108  10.360  -0.437   6.195  0.6871 -0.0187 -0.3655
  846MOL0     C14109  10.230  -0.467   6.243  0.4209  1.1502  0.1112
  846MOL0     C14110  10.149  -0.376   6.306  0.5722 -0.2690 -0.3658
  846MOL0     O14111  10.019  -0.419   6.339 -0.9856  0.0441  0.1606
  846MOL0     C14112   9.910  -0.328   6.361  0.1095  0.1614 -0.0133
  846MOL0     C14113   9.779  -0.404   6.380  0.4360  0.6803 -0.8869
  846MOL0     C14114   9.781  -0.474   6.518 -0.5616 -0.0723  0.2080
  846MOL0     C14115   9.649  -0.554   6.555 -1.4664  0.2806 -1.0477
  846MOL0     C14116   9.678  -0.632   6.674 -0.0278 -0.2019 -0.4145
  846MOL0     C14117   9.549  -0.683   6.735 -0.6930  0.1239 -0.9767
  846MOL0     C14118   9.584  -0.795   6.835  0.1829  0.1937  0.9445
  846MOL0     C14119   9.465  -0.883   6.884 -0.1099  0.0507 -0.5995
  846MOL0    Cl14120   9.318  -0.783   6.917 -0.3392 -0.2635 -0.1947
  846MOL0     C14121  10.208  -0.253   6.337  0.2891  0.0011 -0.1757
  846MOL0     C14122  10.346  -0.232   6.303  0.4974 -0.1759 -0.0385
  846MOL0     O14123  10.646  -0.173   6.316 -0.1022 -0.1171  0.4737
  846MOL0     C14124  10.780  -0.311   6.030  0.2717 -0.7650 -0.9892
  846MOL0     C14125  10.882  -0.297   5.932  0.3473  0.3223  0.0434
  846MOL0     N14126  11.386   0.001   5.324  0.5269 -0.5973  0.1436
  846MOL0     N14127  11.394   0.124   5.274  0.0068 -0.6967 -0.2232
  846MOL0     C14128  11.283   1.016   4.770 -0.5784  0.5726 -0.1255
  846MOL0     C14129  11.249   1.133   4.699  0.8937  0.4921  0.6521
  846MOL0     C14130  11.328   1.568   4.518 -0.1456 -1.0951  0.1030
  846MOL0     C14131  11.196   1.573   4.469 -0.7716 -0.7335  0.3626
  846MOL0     C14132  11.165   1.696   4.414  0.3215 -0.6147 -0.4898
  846MOL0     C14133  11.259   1.807   4.411 -0.6513 -0.1457  0.1636
  846MOL0     O14134  11.223   1.928   4.367  0.7807  0.0241  0.4460
  846MOL0     C14135  11.088   1.960   4.330  0.1167 -0.2840  0.3550
  846MOL0     C14136  10.996   1.984   4.448  0.6374 -0.0826  0.2399
  846MOL0     C14137  11.064   2.070   4.559 -0.3468  0.9349 -1.2211
  846MOL0     C14138  11.100   2.215   4.518 -0.2702 -0.9275  0.5094
  846MOL0     C14139  10.982   2.278   4.472 -0.2483 -0.2826  0.3159
  846MOL0     C14140  10.871   2.311   4.443 -0.7350  0.3034  0.3195
  846MOL0     C14141  11.381   1.794   4.472  0.1765  0.0714  0.6065
  846MOL0     C14142  11.415   1.670   4.526 -0.0778 -0.2757  0.2917
  846MOL0     H14143  11.500   1.333   4.778  0.4109 -1.7509 -1.1795
  846MOL0     H14144  11.576   1.133   4.896  0.6891 -1.5628 -1.8160
  846MOL0     H14145  11.627   0.821   4.816  0.5324 -0.3477  0.1882
  846MOL0     H14146  11.638   0.929   4.946 -2.1334  0.7116  2.1729
  846MOL0     H14147  11.550   0.637   4.955 -4.6626 -1.3633  2.0855
  846MOL0     H14148  11.679   0.710   5.050 -0.9019 -1.2126  2.2226
  846MOL0     H14149  11.487   0.838   5.169 -1.9777 -1.2289  2.0098
  846MOL0     H14150  11.386   0.714   5.094  0.8613  0.0053 -1.2279
  846MOL0     H14151  11.540   0.545   5.187 -3.4505  0.8227 -0.6163
  846MOL0     H14152  11.637   0.678   5.270  0.8433  0.3690 -0.1938
  846MOL0     H14153  11.439   0.741   5.391 -0.2952 -1.4446  2.8356
  846MOL0     H14154  11.337   0.628   5.312 -0.4942 -1.0185  3.0069
  846MOL0     H14155  11.570   0.600   5.508 -0.4394  3.1634 -0.5692
  846MOL0     H14156  11.403   0.569   5.543 -1.2202 -0.7936 -0.7522
  846MOL0     H14157  11.584   0.407   5.378 -0.3465  1.5723 -2.7903
  846MOL0     H14158  11.504   0.361   5.529 -2.6070 -2.5492 -2.2182
  846MOL0     H14159  11.383   0.367   5.252  4.1697 -0.1613  1.0229
  846MOL0     H14160  11.279   0.394   5.390  1.0459  1.9068  1.6963
  846MOL0     H14161  11.330   0.172   5.591 -1.7876  1.5541 -0.3499
  846MOL0     H14162  11.380  -0.202   5.512 -0.4200 -2.0646  1.8326
  846MOL0     H14163  11.394  -0.093   5.657 -1.2281  1.0756  1.2258
  846MOL0     H14164  11.132  -0.142   5.525 -0.3103 -1.8452 -0.5589
  846MOL0     H14165  11.175  -0.053   5.672 -3.3678 -2.4633  0.8951
  846MOL0     H14166  11.286  -0.321   5.679  2.3045  2.1691  2.8753
  846MOL0     H14167  11.116  -0.329   5.654 -2.5204  1.8338  1.8680
  846MOL0     H14168  11.264  -0.183   5.888  0.9252  0.9210 -2.4785
  846MOL0     H14169  11.174  -0.332   5.887  2.3179 -0.3669  0.2167
  846MOL0     H14170  10.981   0.017   6.006 -0.1936  1.4386  3.0353
  846MOL0     H14171  10.684   0.053   6.204  0.1032  1.5955 -2.9060
  846MOL0     H14172  10.850   0.025   6.285  3.0949 -0.4700  0.0403
  846MOL0     H14173  10.825   0.139   6.164  1.7879 -0.8164 -0.3427
  846MOL0     H14174  10.421  -0.505   6.138  3.1413  0.9813  0.9028
  846MOL0     H14175  10.198  -0.570   6.229 -0.2107  0.7074  3.8079
  846MOL0     H14176   9.926  -0.263   6.448  2.5479  4.9250 -3.5527
  846MOL0     H14177   9.909  -0.263   6.273  0.8838  1.7049  1.0610
  846MOL0     H14178   9.685  -0.349   6.378 -0.4244 -0.7268 -1.0361
  846MOL0     H14179   9.753  -0.475   6.301 -1.1455 -0.9427  0.9664
  846MOL0     H14180   9.814  -0.415   6.604  1.1791 -1.2086  0.3598
  846MOL0     H14181   9.857  -0.550   6.499  0.8489  0.9831  1.4201
  846MOL0     H14182   9.564  -0.486   6.570 -3.2968 -1.0900 -4.1063
  846MOL0     H14183   9.623  -0.627   6.478 -1.7062  0.9135 -1.5810
  846MOL0     H14184   9.736  -0.578   6.749  0.7761 -0.7240 -0.6528
  846MOL0     H14185   9.730  -0.724   6.646 -1.1766 -0.6429 -1.2079
  846MOL0     H14186   9.494  -0.596   6.772 -0.5389  0.5290 -1.6812
  846MOL0     H14187   9.501  -0.733   6.650  0.2138  1.4936 -2.3455
  846MOL0     H14188   9.632  -0.762   6.928  2.4369  0.3522 -0.2068
  846MOL0     H14189   9.658  -0.857   6.785 -0.2417 -1.4197  2.2157
  846MOL0     H14190   9.487  -0.943   6.973  0.3196  1.1023  0.0264
  846MOL0     H14191   9.449  -0.954   6.803  0.6360 -1.2974  0.3769
  846MOL0     H14192  10.157  -0.175   6.391 -0.0593  0.8357 -1.6513
  846MOL0     H14193  10.382  -0.133   6.331 -3.8000  1.3772  0.6782
  846MOL0     H14194  10.727  -0.406   6.035 -0.9515 -0.0575 -0.0661
  846MOL0     H14195  10.904  -0.375   5.859  0.3943  2.0654 -1.8948
  846MOL0     H14196  11.226   0.926   4.747  1.1266 -0.2809 -1.2003
  846MOL0     H14197  11.153   1.130   4.649  1.0226 -0.2217  0.4451
  846MOL0     H14198  11.115   1.501   4.477 -1.5887  0.0918 -0.3348
  846MOL0     H14199  11.071   1.712   4.362  0.6695  1.3083 -0.6184
  846MOL0     H14200  11.112   2.050   4.274  1.8920  1.4289  3.6107
  846MOL0     H14201  11.043   1.893   4.256 -2.7777 -1.9068  3.2638
  846MOL0     H14202  10.963   1.889   4.490  1.5459 -0.6428 -0.2831
  846MOL0     H14203  10.903   2.036   4.423 -0.2940 -2.7207 -2.3813
  846MOL0     H14204  11.147   2.016   4.604 -0.3965  0.5813 -1.5494
  846MOL0     H14205  10.999   2.079   4.646  1.3402 -0.0065  0.1836
  846MOL0     H14206  11.181   2.218   4.445 -0.3813  3.3141  0.3287
  846MOL0     H14207  11.135   2.270   4.605 -1.4318  1.1301 -0.2455
  846MOL0     H14208  10.769   2.333   4.418 -1.5482 -1.7911  1.5359
  846MOL0     H14209  11.450   1.878   4.466  0.7260 -0.3145  1.4529
  846MOL0     H14210  11.509   1.645   4.575  0.0556  0.9105  0.6595
  847MOL0     O14211   9.578   6.856   0.138  0.1936  0.3383  0.5708
  847MOL0     C14212   9.541   6.960   0.082  0.4014 -0.1018  0.5960
  847MOL0     O14213   9.407   7.011   0.056  0.0215  0.1382  0.0115
  847MOL0     C14214   9.301   6.929   0.072  0.6712  0.6048  0.1168
  847MOL0     C14215   9.198   6.954   0.159 -0.4294  0.8784 -0.0411
  847MOL0     C14216   9.096   6.859   0.185 -0.0505 -0.1607 -0.2410
  847MOL0     C14217   9.080   6.752   0.096  0.1636  0.5343  0.8399
  847MOL0     O14218   8.959   6.679   0.114  0.0699 -0.2493  0.5093
  847MOL0     C14219   8.948   6.560   0.039  0.4146  0.6497 -0.7072
  847MOL0     C14220   8.872   6.589  -0.086 -0.2765  0.3293  0.2053
  847MOL0     C14221   8.924   6.500  -0.205  0.1766 -0.1855  0.7510
  847MOL0     C14222   8.860   6.554  -0.333 -0.7296  0.0272 -0.0324
  847MOL0     C14223   8.921   6.505  -0.462 -0.5022 -1.2354  1.6333
  847MOL0     C14224   9.075   6.538  -0.475 -0.0586  0.1632  0.5179
  847MOL0     C14225   9.116   6.587  -0.614  0.6400 -0.2779  0.7595
  847MOL0     C14226   9.268   6.572  -0.643  0.3689  0.5016 -0.1568
  847MOL0     N14227   9.360   6.658  -0.568  0.5161  0.7388 -0.0228
  847MOL0     C14228   9.345   6.795  -0.549 -0.0004 -0.1260 -0.0772
  847MOL0     C14229   9.438   6.827  -0.452 -0.1983  0.1502  1.0038
  847MOL0     C14230   9.448   6.963  -0.390 -0.2272  0.0014  0.0577
  847MOL0     C14231   9.567   7.019  -0.460  1.0882  0.0242  0.6652
  847MOL0     C14232   9.640   7.139  -0.393  0.1197 -0.1567  0.2278
  847MOL0     C14233   9.693   7.219  -0.507  0.0358  0.2717  1.1016
  847MOL0     O14234   9.756   7.325  -0.432 -0.4786 -0.2131  0.6529
  847MOL0     C14235   9.749   7.453  -0.491 -0.6688  1.1130 -0.4920
  847MOL0     C14236   9.739   7.565  -0.403 -1.1557  0.7597  0.2947
  847MOL0     C14237   9.737   7.694  -0.443 -0.3734 -0.5835  0.1189
  847MOL0     C14238   9.743   7.807  -0.341 -0.2938 -0.5190  0.4634
  847MOL0     C14239   9.726   7.715  -0.582  0.1025  0.2425 -0.3175
  847MOL0     C14240   9.706   7.849  -0.639 -0.5569 -0.1142  0.2410
  847MOL0     O14241   9.693   7.849  -0.779 -0.2966  0.4501 -0.3133
  847MOL0     C14242   9.648   7.960  -0.851 -0.3024  0.3806 -0.4888
  847MOL0     C14243   9.620   7.939  -0.987 -0.1231  0.0248 -0.2256
  847MOL0     C14244   9.574   8.042  -1.060 -0.1561 -0.6122  0.4646
  847MOL0     C14245   9.563   8.171  -1.017  0.4010 -0.5071 -1.0444
  847MOL0     O14246   9.513   8.251  -1.111 -0.2790 -0.0337 -0.5477
  847MOL0     C14247   9.529   8.393  -1.106  0.3497 -0.6917  0.2202
  847MOL0     C14248   9.511   8.433  -1.253 -0.9209  0.3686  0.7310
  847MOL0     C14249   9.556   8.580  -1.282 -1.1559 -0.0782 -0.3239
  847MOL0     C14250   9.448   8.686  -1.282  0.6389 -0.5966 -0.2703
  847MOL0     C14251   9.511   8.821  -1.309  0.3183  0.3528  0.3306
  847MOL0     C14252   9.400   8.923  -1.310 -0.3518  0.0047  0.5147
  847MOL0     C14253   9.371   8.967  -1.163  1.5565 -1.3198 -0.7803
  847MOL0     C14254   9.257   9.071  -1.165  0.6471 -0.0903 -0.5869
  847MOL0    Cl14255   9.315   9.227  -1.232 -0.0897 -0.1488 -0.6244
  847MOL0     C14256   9.605   8.207  -0.889 -0.2614  0.2973 -0.1486
  847MOL0     C14257   9.645   8.091  -0.806  0.2261 -0.2753  0.0759
  847MOL0     O14258   9.691   7.947  -0.569 -0.6192  0.2919  0.4194
  847MOL0     C14259   9.744   7.600  -0.674 -0.2076 -0.5134 -0.2774
  847MOL0     C14260   9.764   7.475  -0.627 -0.0084  0.3228  0.9494
  847MOL0     N14261   9.501   6.709  -0.413 -0.7034  0.4670 -0.0219
  847MOL0     N14262   9.448   6.615  -0.480  0.0403 -0.1956 -1.1569
  847MOL0     C14263   9.187   6.728   0.008 -0.5438 -1.0612 -0.0602
  847MOL0     C14264   9.299   6.812  -0.001 -0.0560  0.7043  0.4627
  847MOL0     C14265   9.653   7.054   0.052 -0.1756 -0.9354 -0.2238
  847MOL0     C14266   9.635   7.168  -0.027 -0.0026 -1.0899 -0.3778
  847MOL0     C14267   9.748   7.254  -0.048 -0.1980  0.1056  0.5400
  847MOL0     C14268   9.874   7.234   0.018  0.3493 -0.2375 -0.3849
  847MOL0     O14269   9.981   7.320  -0.010  0.3145  0.5345 -0.1426
  847MOL0     C14270  10.066   7.272  -0.124  0.3909  0.5449 -0.2861
  847MOL0     C14271  10.155   7.149  -0.108 -0.2619  0.1328 -0.6608
  847MOL0     C14272  10.275   7.185  -0.016 -0.3504  0.4653  0.7934
  847MOL0     C14273  10.329   7.060   0.048  0.8871  0.3797  0.0958
  847MOL0     C14274  10.245   7.006   0.152 -0.5038  0.0159  0.2587
  847MOL0     C14275  10.182   6.985   0.252  0.7147  1.1452  0.1295
  847MOL0     C14276   9.885   7.122   0.102  0.2066  0.5352 -0.6443
  847MOL0     C14277   9.779   7.031   0.113  0.5041 -0.2493 -0.3677
  847MOL0     H14278   9.219   7.043   0.216  3.5932  0.2549 -0.2835
  847MOL0     H14279   9.018   6.882   0.256  1.2142 -0.6722  1.3665
  847MOL0     H14280   9.042   6.507   0.024  0.3879 -0.1197  1.4733
  847MOL0     H14281   8.885   6.491   0.096  1.3681  0.8413  0.6306
  847MOL0     H14282   8.763   6.591  -0.072 -0.2490  2.8638  0.5540
  847MOL0     H14283   8.891   6.694  -0.111 -0.7127  0.6194  1.0496
  847MOL0     H14284   9.033   6.504  -0.207  0.2878 -2.3319  0.4744
  847MOL0     H14285   8.893   6.395  -0.203  0.2843 -0.2140  1.2425
  847MOL0     H14286   8.753   6.533  -0.343 -0.8390  0.5053  0.0748
  847MOL0     H14287   8.872   6.662  -0.348  1.3051 -0.5915 -4.8407
  847MOL0     H14288   8.899   6.399  -0.477 -2.2567 -1.0507  2.6795
  847MOL0     H14289   8.870   6.556  -0.545  2.7482 -0.1780  0.1215
  847MOL0     H14290   9.101   6.624  -0.411 -2.2341  2.4262 -1.4317
  847MOL0     H14291   9.134   6.450  -0.446 -0.1649 -0.0206  0.1717
  847MOL0     H14292   9.052   6.529  -0.682 -0.3007  1.6251 -0.0306
  847MOL0     H14293   9.083   6.689  -0.636  0.3034 -0.8248 -1.5240
  847MOL0     H14294   9.273   6.598  -0.749  0.2083 -0.6227 -0.4487
  847MOL0     H14295   9.293   6.468  -0.620  2.2564  1.4113  2.3808
  847MOL0     H14296   9.262   6.849  -0.593 -0.4221 -2.4973 -2.4653
  847MOL0     H14297   9.358   7.022  -0.407  0.0906  0.8875  1.3302
  847MOL0     H14298   9.449   6.956  -0.281 -1.7634 -2.8116 -0.0189
  847MOL0     H14299   9.529   7.050  -0.557 -0.6656 -1.4442  0.8224
  847MOL0     H14300   9.641   6.939  -0.475  1.9967  0.8759  0.5333
  847MOL0     H14301   9.725   7.122  -0.326  1.2878  0.8617 -0.9395
  847MOL0     H14302   9.564   7.195  -0.339  0.1844 -1.3461  1.6415
  847MOL0     H14303   9.612   7.247  -0.575  0.6583  0.5588  0.4648
  847MOL0     H14304   9.763   7.163  -0.570 -1.6058 -0.8033  0.1667
  847MOL0     H14305   9.751   7.542  -0.297 -1.7950  1.2606  0.4841
  847MOL0     H14306   9.825   7.875  -0.367  0.9721 -0.9479  3.0216
  847MOL0     H14307   9.651   7.865  -0.334  0.8367  1.4426 -0.1007
  847MOL0     H14308   9.775   7.777  -0.241  3.4877 -2.1746 -1.0315
  847MOL0     H14309   9.644   7.841  -1.026  3.9313  1.7513 -2.6051
  847MOL0     H14310   9.564   8.021  -1.166  1.4823 -2.5807  0.6595
  847MOL0     H14311   9.460   8.442  -1.037 -0.4634 -1.6253  0.0954
  847MOL0     H14312   9.633   8.412  -1.077 -0.2338  0.9115  1.4101
  847MOL0     H14313   9.565   8.358  -1.311 -1.5487  0.1620  0.4035
  847MOL0     H14314   9.407   8.414  -1.280 -1.6037 -0.2664  3.4626
  847MOL0     H14315   9.597   8.579  -1.383 -0.1489 -0.0518  0.0699
  847MOL0     H14316   9.638   8.616  -1.219 -0.6128  0.2407 -1.1990
  847MOL0     H14317   9.368   8.649  -1.348 -2.7780  2.9134  1.4542
  847MOL0     H14318   9.413   8.672  -1.180  0.2851 -1.1903 -0.4642
  847MOL0     H14319   9.562   8.815  -1.405 -1.8878 -1.9227 -0.8263
  847MOL0     H14320   9.585   8.854  -1.236  0.6741  0.8930 -0.2621
  847MOL0     H14321   9.426   9.010  -1.371 -0.3887 -1.7326 -2.1328
  847MOL0     H14322   9.312   8.877  -1.356  0.6886 -1.4743 -0.0912
  847MOL0     H14323   9.455   9.016  -1.112  0.1243 -0.7124  1.0897
  847MOL0     H14324   9.339   8.880  -1.106 -1.6389 -0.6867 -1.4310
  847MOL0     H14325   9.232   9.083  -1.059  0.8911  1.3921 -0.6744
  847MOL0     H14326   9.172   9.033  -1.222  2.0100 -1.0066 -2.0853
  847MOL0     H14327   9.612   8.307  -0.847 -0.6711  1.0678 -1.8402
  847MOL0     H14328   9.691   8.122  -0.712  1.8982  1.6539 -1.2811
  847MOL0     H14329   9.751   7.628  -0.779 -2.5204  1.6722  0.0665
  847MOL0     H14330   9.774   7.391  -0.696 -1.3927  1.1557 -0.3266
  847MOL0     H14331   9.176   6.647  -0.063 -0.8212 -2.8813  1.9616
  847MOL0     H14332   9.382   6.776  -0.061 -0.8537  0.7688 -0.7084
  847MOL0     H14333   9.545   7.185  -0.086 -0.3327  0.5527  0.5363
  847MOL0     H14334   9.726   7.349  -0.096  1.1587  1.5757  2.6337
  847MOL0     H14335   9.999   7.261  -0.210 -0.7112  1.2947  0.4376
  847MOL0     H14336  10.127   7.360  -0.147 -0.9271  2.6839  3.4296
  847MOL0     H14337  10.190   7.115  -0.205  0.2262  0.8434 -0.7480
  847MOL0     H14338  10.096   7.068  -0.064  0.1007 -0.5950 -1.4941
  847MOL0     H14339  10.241   7.260   0.056 -1.0015  0.5803  0.3679
  847MOL0     H14340  10.353   7.230  -0.079  0.3186 -3.5790 -1.6279
  847MOL0     H14341  10.419   7.093   0.100  0.6467 -1.0922  1.5426
  847MOL0     H14342  10.356   6.984  -0.026 -2.0371 -1.1058  0.3882
  847MOL0     H14343  10.118   6.969   0.336  0.8319 -3.1837 -0.3533
  847MOL0     H14344   9.975   7.102   0.159 -1.7788 -1.1178  2.1192
  847MOL0     H14345   9.800   6.945   0.176  2.0088  0.5772  0.3113
  848MOL0     O14346   9.565  10.122   3.739 -1.3289  0.5594 -0.5005
  848MOL0     C14347   9.575  10.232   3.695 -0.0266  0.7199  1.1070
  848MOL0     O14348   9.654  10.338   3.735 -0.0538 -0.4698 -0.0863
  848MOL0     C14349   9.757  10.311   3.821 -1.0552 -0.8492  0.7521
  848MOL0     C14350   9.826  10.192   3.863 -1.0413 -0.7295 -0.6703
  848MOL0     C14351   9.918  10.184   3.963  0.1088 -0.3668  0.0898
  848MOL0     C14352   9.968  10.307   4.012 -0.2030  0.4413  0.3246
  848MOL0     O14353  10.075  10.320   4.098 -0.1196  0.3777  0.1700
  848MOL0     C14354  10.098  10.217   4.192  0.2114  0.2203 -0.0302
  848MOL0     C14355  10.236  10.222   4.246 -0.5839 -0.5899 -0.3613
  848MOL0     C14356  10.250  10.317   4.362  0.6737  0.5271  0.4052
  848MOL0     C14357  10.386  10.290   4.440  0.6073  0.3755 -0.0017
  848MOL0     C14358  10.391  10.376   4.577 -0.0804 -0.2868 -0.2564
  848MOL0     C14359  10.517  10.463   4.607 -0.8954  0.4282 -0.0130
  848MOL0     C14360  10.513  10.516   4.755 -0.5755  0.0874  0.2272
  848MOL0     C14361  10.431  10.633   4.782  0.0280 -0.5656 -0.0713
  848MOL0     N14362  10.473  10.746   4.694 -1.0056 -0.1715  0.2293
  848MOL0     C14363  10.578  10.828   4.723 -1.2200 -0.1075  0.4140
  848MOL0     C14364  10.577  10.927   4.625 -0.9535  0.5414 -0.5953
  848MOL0     C14365  10.669  11.049   4.632  0.8402 -0.2112 -0.5706
  848MOL0     C14366  10.782  11.022   4.538  0.1506 -0.3942  0.3874
  848MOL0     C14367  10.915  11.108   4.571 -0.0376 -0.1523 -0.8528
  848MOL0     C14368  10.958  11.194   4.451  0.1632  0.8689 -0.3439
  848MOL0     O14369  11.073  11.277   4.484 -0.4214 -0.8661 -0.3732
  848MOL0     C14370  11.207  11.240   4.474  0.9139  0.4948  0.4012
  848MOL0     C14371  11.285  11.350   4.481 -0.0524  0.2281 -0.8750
  848MOL0     C14372  11.426  11.343   4.500  0.4869  0.4688 -0.3641
  848MOL0     C14373  11.509  11.472   4.527  0.4032  0.2899  1.0791
  848MOL0     C14374  11.476  11.212   4.482  0.0565  0.0908 -0.6540
  848MOL0     C14375  11.621  11.188   4.487 -0.1440  0.6005  0.1349
  848MOL0     O14376  11.706  11.279   4.448  0.0800  0.2162  0.0016
  848MOL0     C14377  11.839  11.264   4.441  0.0285  0.0018 -0.0807
  848MOL0     C14378  11.898  11.148   4.398 -0.8581 -0.2217  0.0017
  848MOL0     C14379  12.035  11.120   4.401 -0.6694 -0.2130 -0.4340
  848MOL0     C14380  12.115  11.235   4.421  0.2030 -0.8654 -0.1425
  848MOL0     O14381  12.249  11.210   4.430  0.0102  0.8832  0.4719
  848MOL0     C14382  12.307  11.100   4.346 -0.2914 -0.1243  0.0260
  848MOL0     C14383  12.272  11.115   4.199 -0.9858  0.6968  0.3401
  848MOL0     C14384  12.348  11.018   4.114  0.0752  0.6726  0.9361
  848MOL0     C14385  12.429  11.102   4.009  0.9168  0.9156  0.2003
  848MOL0     C14386  12.513  11.012   3.920  0.6598 -0.0951  0.1935
  848MOL0     C14387  12.622  10.925   3.972  0.3991 -0.1457 -0.4842
  848MOL0     C14388  12.727  10.998   4.061  0.1856 -0.6833 -0.2390
  848MOL0     C14389  12.844  10.919   4.120  0.6032  0.7120  0.5190
  848MOL0    Cl14390  12.920  10.835   3.985  0.4341  0.0989  0.5661
  848MOL0     C14391  12.058  11.366   4.450  0.2775  0.5001 -0.9150
  848MOL0     C14392  11.924  11.372   4.467 -0.4589 -0.5023 -0.1942
  848MOL0     O14393  11.652  11.087   4.541  0.5069 -0.3445 -0.0350
  848MOL0     C14394  11.390  11.101   4.455 -0.0601 -0.2311  0.0539
  848MOL0     C14395  11.256  11.117   4.452 -0.2477  0.2224 -0.2202
  848MOL0     N14396  10.470  10.899   4.542 -0.7296  0.1918 -0.7874
  848MOL0     N14397  10.407  10.797   4.587  0.0629  0.5444  1.0599
  848MOL0     C14398   9.919  10.427   3.960 -0.7103 -0.1650  0.2578
  848MOL0     C14399   9.816  10.426   3.867 -1.4483  0.1501 -0.2048
  848MOL0     C14400   9.500  10.255   3.571  0.0180 -0.3501  0.4090
  848MOL0     C14401   9.515  10.368   3.499  0.4005 -0.0841 -0.0329
  848MOL0     C14402   9.441  10.396   3.382  1.1124 -0.0436 -0.9826
  848MOL0     C14403   9.348  10.301   3.339  0.3227  0.6598  0.6574
  848MOL0     O14404   9.280  10.326   3.219  0.5518  0.6960  0.5118
  848MOL0     C14405   9.141  10.283   3.207 -0.6221  0.9696  1.1517
  848MOL0     C14406   9.126  10.167   3.104 -0.1173  0.3436  0.3372
  848MOL0     C14407   8.983  10.147   3.071 -0.6334  0.4134  0.3416
  848MOL0     C14408   8.947  10.073   2.942 -0.1474  0.4750 -0.5411
  848MOL0     C14409   8.801  10.063   2.948  0.3809 -0.4964  0.6373
  848MOL0     C14410   8.682  10.036   2.936  0.7171 -0.6254  0.3702
  848MOL0     C14411   9.331  10.182   3.412  1.1797  0.5805 -0.4027
  848MOL0     C14412   9.407  10.157   3.526 -0.1889 -0.9277  1.1367
  848MOL0     H14413   9.785  10.096   3.831  0.1285 -1.5647  0.2477
  848MOL0     H14414   9.940  10.085   3.999 -1.3370 -0.9544 -0.5659
  848MOL0     H14415  10.022  10.218   4.271  0.1539 -1.6181 -0.0152
  848MOL0     H14416  10.087  10.120   4.142  2.2317 -0.4168  0.6414
  848MOL0     H14417  10.277  10.122   4.265 -3.9202 -2.1150 -0.6005
  848MOL0     H14418  10.302  10.258   4.166  0.5227 -1.4337  0.1366
  848MOL0     H14419  10.253  10.420   4.326  3.8890 -0.2027 -1.8969
  848MOL0     H14420  10.181  10.300   4.445 -0.8278  1.3834 -0.6126
  848MOL0     H14421  10.404  10.184   4.459 -1.2945 -0.0077 -0.0661
  848MOL0     H14422  10.459  10.326   4.367 -1.8467 -1.2601 -3.5714
  848MOL0     H14423  10.316  10.456   4.578 -0.9170 -1.0429 -1.0171
  848MOL0     H14424  10.369  10.307   4.659 -1.1252 -1.0369 -1.1231
  848MOL0     H14425  10.606  10.400   4.613 -0.1609  1.4356 -0.0415
  848MOL0     H14426  10.526  10.543   4.533 -1.3016 -1.7262 -2.5751
  848MOL0     H14427  10.474  10.436   4.818 -1.9298  0.2215 -0.4124
  848MOL0     H14428  10.611  10.548   4.793 -0.2014 -3.0884  2.3309
  848MOL0     H14429  10.454  10.649   4.888 -1.4100 -1.7242  0.4594
  848MOL0     H14430  10.324  10.610   4.769 -0.4436  1.1152  0.5683
  848MOL0     H14431  10.643  10.825   4.810  1.5515 -1.4354 -1.5636
  848MOL0     H14432  10.614  11.136   4.596  1.7218 -0.0049 -1.4694
  848MOL0     H14433  10.709  11.069   4.731  2.2620  1.2697 -1.4008
  848MOL0     H14434  10.742  11.057   4.442  0.9023  3.3148  1.2492
  848MOL0     H14435  10.814  10.918   4.527  2.4239  0.3944 -1.1248
  848MOL0     H14436  11.000  11.043   4.595 -0.2642 -0.7848 -1.7254
  848MOL0     H14437  10.907  11.154   4.670  2.7951  0.2403 -0.7067
  848MOL0     H14438  10.872  11.257   4.428 -0.3975  1.2908  2.4978
  848MOL0     H14439  10.990  11.118   4.380 -4.0908 -2.4378  0.8740
  848MOL0     H14440  11.235  11.440   4.516  0.5573 -1.0329  4.0877
  848MOL0     H14441  11.448  11.548   4.576  4.1209  2.4995  2.7126
  848MOL0     H14442  11.598  11.456   4.588  3.0666  3.3103 -1.5918
  848MOL0     H14443  11.542  11.507   4.428  2.3196 -1.1168  1.1455
  848MOL0     H14444  11.841  11.061   4.366  2.8577 -4.4025  3.2993
  848MOL0     H14445  12.068  11.018   4.383 -0.8228 -0.6631  1.5288
  848MOL0     H14446  12.414  11.123   4.349 -0.6256  1.4051  1.2798
  848MOL0     H14447  12.288  10.998   4.383 -2.6551  0.1286 -0.3866
  848MOL0     H14448  12.164  11.096   4.189 -0.8257 -0.9902  1.3462
  848MOL0     H14449  12.301  11.215   4.165  0.3606 -0.1518 -1.1138
  848MOL0     H14450  12.278  10.950   4.064  0.7285  0.0758  0.8114
  848MOL0     H14451  12.427  10.974   4.175 -0.7056 -1.9324  0.1870
  848MOL0     H14452  12.368  11.170   3.949 -1.2725  0.3071  1.6609
  848MOL0     H14453  12.499  11.164   4.066  3.3583 -0.8833 -0.6551
  848MOL0     H14454  12.568  11.075   3.850 -2.1639  1.3402 -0.8610
  848MOL0     H14455  12.448  10.954   3.854  1.9366 -1.8327  0.3914
  848MOL0     H14456  12.581  10.845   4.034  2.2451  0.1320  1.2166
  848MOL0     H14457  12.665  10.867   3.890  0.7877  2.8278 -2.5324
  848MOL0     H14458  12.678  11.053   4.142  4.2260  2.2710  0.4610
  848MOL0     H14459  12.764  11.070   3.987 -2.0594 -0.3847 -1.1797
  848MOL0     H14460  12.817  10.852   4.202  2.3999  0.3964  0.9119
  848MOL0     H14461  12.934  10.959   4.169  1.1156 -0.9593  1.0248
  848MOL0     H14462  12.127  11.444   4.477 -1.0138  1.1941  0.5409
  848MOL0     H14463  11.875  11.462   4.502 -2.2628 -2.5716  3.0323
  848MOL0     H14464  11.431  11.002   4.439 -1.8104 -0.6981 -2.1037
  848MOL0     H14465  11.198  11.029   4.431 -0.7618  0.4369  0.2863
  848MOL0     H14466   9.959  10.522   3.994 -0.4440  0.2268 -1.0745
  848MOL0     H14467   9.779  10.524   3.838  3.6381  1.8235 -2.0973
  848MOL0     H14468   9.579  10.451   3.530  2.6353 -2.0099  0.7946
  848MOL0     H14469   9.453  10.485   3.321  1.0865 -0.5270 -1.7086
  848MOL0     H14470   9.115  10.250   3.308  1.7489 -0.6607  1.3220
  848MOL0     H14471   9.081  10.370   3.182 -0.0427  1.4175  1.3001
  848MOL0     H14472   9.161  10.076   3.153 -1.0830 -1.6793 -2.4646
  848MOL0     H14473   9.187  10.175   3.013 -1.3154 -1.6724 -0.7247
  848MOL0     H14474   8.939  10.247   3.057 -0.3094  0.6346  0.8758
  848MOL0     H14475   8.951  10.084   3.155  2.1254 -0.6656  0.6847
  848MOL0     H14476   8.988   9.972   2.946  0.3683  0.7093  0.2201
  848MOL0     H14477   8.985  10.110   2.847 -2.1596  0.6799 -1.3107
  848MOL0     H14478   8.577  10.049   2.921  1.1487  3.5802  0.0002
  848MOL0     H14479   9.274  10.101   3.367  3.7490 -1.7840  0.3041
  848MOL0     H14480   9.395  10.070   3.589 -0.1275 -1.9735 -0.2375
  849MOL0     O14481   9.228  10.952   7.585 -0.4992  0.4646 -0.8287
  849MOL0     C14482   9.292  11.053   7.560 -0.4799  0.0538  0.8828
  849MOL0     O14483   9.257  11.178   7.609 -0.5540  0.2736  0.9191
  849MOL0     C14484   9.129  11.181   7.660 -0.2921 -0.4831 -0.5504
  849MOL0     C14485   9.020  11.196   7.570  0.6723  0.0640  0.4890
  849MOL0     C14486   8.890  11.195   7.612  0.7645 -0.5731 -0.4551
  849MOL0     C14487   8.862  11.210   7.755 -0.2200  0.5763 -0.0623
  849MOL0     O14488   8.738  11.218   7.803  0.2616 -0.3863 -0.0796
  849MOL0     C14489   8.648  11.108   7.775 -0.3944  0.5717 -0.2188
  849MOL0     C14490   8.526  11.145   7.860  0.1397  0.2900 -0.0854
  849MOL0     C14491   8.437  11.025   7.874  0.0227  0.0261  0.1873
  849MOL0     C14492   8.305  11.081   7.942 -0.5307  0.7980 -0.6882
  849MOL0     C14493   8.193  10.982   7.945 -0.6185 -0.0871  0.2371
  849MOL0     C14494   8.065  11.037   8.015  0.3722 -0.7322  0.1574
  849MOL0     C14495   7.970  10.924   8.014 -0.6946  0.2607 -0.4114
  849MOL0     C14496   7.826  10.949   8.044 -0.5748 -0.4482 -0.8743
  849MOL0     N14497   7.736  10.837   8.004  0.5963  0.2415 -0.2698
  849MOL0     C14498   7.730  10.717   8.079  0.0592 -0.3703 -0.1888
  849MOL0     C14499   7.657  10.636   8.001 -0.1916  0.2787  0.5569
  849MOL0     C14500   7.602  10.502   8.040  0.8800  1.1473 -1.3816
  849MOL0     C14501   7.703  10.385   8.034  0.9342  0.6836 -0.4035
  849MOL0     C14502   7.841  10.413   8.103  0.1463  0.1184 -0.2506
  849MOL0     C14503   7.926  10.282   8.108  1.2167 -0.4104  0.1385
  849MOL0     O14504   8.042  10.308   8.196  0.3772  0.5273 -0.0808
  849MOL0     C14505   8.117  10.199   8.227 -0.1788  0.2849  0.5917
  849MOL0     C14506   8.153  10.168   8.355 -0.5130 -0.7009  0.6197
  849MOL0     C14507   8.228  10.055   8.390 -0.6319 -0.1029  1.0200
  849MOL0     C14508   8.264  10.038   8.537 -0.1595 -0.1755 -0.7468
  849MOL0     C14509   8.288   9.973   8.285  0.2807  0.0938 -0.6091
  849MOL0     C14510   8.364   9.851   8.302  0.3880 -0.6949  0.4921
  849MOL0     O14511   8.392   9.784   8.192 -0.1369  0.4311  0.5112
  849MOL0     C14512   8.444   9.655   8.196  0.0550 -0.8791 -0.2076
  849MOL0     C14513   8.586   9.634   8.194  0.3013 -0.6879  0.3303
  849MOL0     C14514   8.643   9.506   8.192 -0.5730  0.0638  0.5952
  849MOL0     C14515   8.557   9.397   8.180 -0.4800  0.0777 -0.1220
  849MOL0     O14516   8.612   9.277   8.185  0.8236  1.2462 -0.0337
  849MOL0     C14517   8.733   9.240   8.105 -1.1830 -0.3927  0.4938
  849MOL0     C14518   8.816   9.129   8.180 -1.5236 -1.1486  0.3927
  849MOL0     C14519   8.903   9.186   8.292  0.2694 -0.0608 -0.4956
  849MOL0     C14520   8.985   9.073   8.359  0.9643  0.1781  0.4964
  849MOL0     C14521   8.926   8.989   8.473  0.3711  0.0383  0.5152
  849MOL0     C14522   8.946   9.062   8.606  1.0518 -1.3115 -0.4523
  849MOL0     C14523   8.908   8.972   8.729 -0.3773  0.7345  0.2071
  849MOL0     C14524   8.904   9.051   8.863  0.3376  0.4651 -0.1569
  849MOL0    Cl14525   8.903   8.960   9.018  0.3054 -0.2416 -0.6846
  849MOL0     C14526   8.413   9.417   8.184  0.3750 -0.5911 -0.4188
  849MOL0     C14527   8.362   9.548   8.186  0.3264  0.2095 -0.0783
  849MOL0     O14528   8.405   9.818   8.412  0.9113 -0.7739 -0.6795
  849MOL0     C14529   8.249  10.000   8.160  0.7013 -1.1237  0.5785
  849MOL0     C14530   8.173  10.113   8.124  0.0346  1.1435 -0.7605
  849MOL0     N14531   7.642  10.697   7.879 -1.0246 -0.0594  0.3334
  849MOL0     N14532   7.684  10.818   7.878  0.4717 -0.1546 -0.5812
  849MOL0     C14533   8.972  11.194   7.840  0.1941 -0.4970 -0.6108
  849MOL0     C14534   9.102  11.180   7.798  0.2377 -0.0895 -0.1644
  849MOL0     C14535   9.421  11.030   7.482  1.0847 -0.4155  0.4862
  849MOL0     C14536   9.511  11.130   7.468 -0.7812 -0.2282  0.3561
  849MOL0     C14537   9.631  11.116   7.403 -0.0140  0.3565  0.0819
  849MOL0     C14538   9.666  10.996   7.349  0.0087  0.1269  0.6478
  849MOL0     O14539   9.776  10.973   7.265  0.6237 -0.5248 -0.2277
  849MOL0     C14540   9.894  11.053   7.271 -0.2582  0.1430 -0.0709
  849MOL0     C14541   9.951  11.036   7.408  0.3432 -0.4313 -0.3523
  849MOL0     C14542  10.015  10.901   7.420 -0.8625  0.6597 -0.3714
  849MOL0     C14543   9.935  10.773   7.461  0.1148  0.0807 -1.1921
  849MOL0     C14544   9.873  10.694   7.357  0.2114  0.9789 -0.9654
  849MOL0     C14545   9.818  10.623   7.282 -0.5762 -0.8845  0.1601
  849MOL0     C14546   9.571  10.896   7.346  0.1134  0.8604 -0.9434
  849MOL0     C14547   9.447  10.907   7.419 -0.0065 -0.2779 -0.3791
  849MOL0     H14548   9.025  11.178   7.463 -2.0692  0.0518  0.2900
  849MOL0     H14549   8.810  11.204   7.540  0.7741 -1.5175 -0.6020
  849MOL0     H14550   8.622  11.104   7.668 -0.2563 -2.9763 -0.2124
  849MOL0     H14551   8.686  11.009   7.801 -1.9313  0.4722  1.9646
  849MOL0     H14552   8.567  11.183   7.954 -0.2293 -0.6740  0.4784
  849MOL0     H14553   8.475  11.230   7.815  2.6383  1.4532 -0.8957
  849MOL0     H14554   8.407  10.991   7.774  1.5635 -0.2581 -0.2016
  849MOL0     H14555   8.490  10.938   7.912 -0.4475 -0.2625  0.1976
  849MOL0     H14556   8.323  11.111   8.046 -4.2552  2.0197 -0.2662
  849MOL0     H14557   8.272  11.175   7.896 -2.7887  0.0314 -0.7363
  849MOL0     H14558   8.180  10.939   7.846  0.1989 -1.9358  0.9084
  849MOL0     H14559   8.221  10.899   8.011 -1.9589  0.4453  1.5534
  849MOL0     H14560   8.090  11.072   8.115 -0.7466 -0.5369  0.3853
  849MOL0     H14561   8.033  11.128   7.962  3.7113  0.9305  0.7219
  849MOL0     H14562   7.986  10.873   7.918  1.1234  0.4484 -0.2275
  849MOL0     H14563   7.991  10.844   8.086 -3.8409 -0.2224  0.1140
  849MOL0     H14564   7.784  11.036   7.993 -2.5953 -0.8918 -0.0458
  849MOL0     H14565   7.823  10.966   8.152  0.1179  1.6494 -1.1296
  849MOL0     H14566   7.759  10.695   8.181 -1.3488 -1.3623  0.0334
  849MOL0     H14567   7.560  10.508   8.140 -1.2275 -0.7909 -2.0751
  849MOL0     H14568   7.516  10.477   7.977  1.5688 -0.7812 -1.6163
  849MOL0     H14569   7.717  10.363   7.927  3.6437  2.6148 -0.5504
  849MOL0     H14570   7.664  10.295   8.083  3.0291 -0.6385 -1.0192
  849MOL0     H14571   7.813  10.444   8.204  3.5121  0.0999  0.7917
  849MOL0     H14572   7.906  10.484   8.051 -1.0918  0.5421 -1.2986
  849MOL0     H14573   7.951  10.249   8.007 -0.7844 -2.7719  0.3371
  849MOL0     H14574   7.869  10.199   8.151 -1.6784  0.9276 -0.8587
  849MOL0     H14575   8.120  10.237   8.433  0.7918  2.4261 -1.4150
  849MOL0     H14576   8.368  10.065   8.554 -0.8403  3.7484 -1.7920
  849MOL0     H14577   8.195  10.105   8.590  0.8036  2.2456 -2.3904
  849MOL0     H14578   8.241   9.936   8.569 -1.8619  0.6310  0.8004
  849MOL0     H14579   8.650   9.721   8.203 -0.5995  0.2622 -1.7160
  849MOL0     H14580   8.751   9.492   8.188 -0.6222 -0.5629  1.2192
  849MOL0     H14581   8.710   9.205   8.004  2.6415 -1.2597 -0.2199
  849MOL0     H14582   8.802   9.320   8.077  0.2871 -0.0147  4.6107
  849MOL0     H14583   8.745   9.059   8.225 -1.1482 -0.6394  1.8084
  849MOL0     H14584   8.872   9.069   8.108 -1.4947 -0.4729 -0.1624
  849MOL0     H14585   8.842   9.228   8.373  1.2731 -0.3399  0.4412
  849MOL0     H14586   8.960   9.266   8.244 -0.6786  0.6960 -0.3931
  849MOL0     H14587   9.024   9.003   8.284 -2.5670  1.5240 -2.9578
  849MOL0     H14588   9.080   9.118   8.386  0.9883  2.4367 -2.7244
  849MOL0     H14589   8.986   8.898   8.473 -0.2234 -0.3597  1.0090
  849MOL0     H14590   8.823   8.964   8.449 -2.0193  4.0706  4.8201
  849MOL0     H14591   9.050   9.097   8.614  0.6260  0.5166 -2.1119
  849MOL0     H14592   8.885   9.153   8.607  2.0006 -0.6043  1.9684
  849MOL0     H14593   8.983   8.893   8.740 -2.4121 -1.1660  1.1607
  849MOL0     H14594   8.811   8.925   8.714 -0.3821  0.9437 -0.4661
  849MOL0     H14595   8.817   9.118   8.866  0.0099  0.3077 -2.9952
  849MOL0     H14596   8.992   9.115   8.867  0.5744  0.0688  1.4305
  849MOL0     H14597   8.341   9.336   8.186  1.3419 -1.5348  2.7687
  849MOL0     H14598   8.258   9.577   8.174 -0.3615 -1.5937  1.1807
  849MOL0     H14599   8.284   9.943   8.074  1.5071 -1.3692  1.0568
  849MOL0     H14600   8.153  10.140   8.021 -0.2074  1.0774 -0.7296
  849MOL0     H14601   8.944  11.201   7.945 -2.8114  0.4775 -1.3894
  849MOL0     H14602   9.191  11.174   7.858  0.3699  3.6310  0.2453
  849MOL0     H14603   9.474  11.219   7.518 -0.3417  0.0211  0.2373
  849MOL0     H14604   9.703  11.197   7.404 -0.9432  1.2412  2.7797
  849MOL0     H14605   9.961  11.012   7.195  0.6799  0.5228  0.5362
  849MOL0     H14606   9.881  11.160   7.254 -0.0789  0.5984  2.3468
  849MOL0     H14607   9.876  11.046   7.486 -1.3538 -3.3352 -1.4525
  849MOL0     H14608  10.020  11.119   7.429 -1.5242  2.0435 -3.0547
  849MOL0     H14609  10.078  10.919   7.508 -1.6425 -1.0349  0.5985
  849MOL0     H14610  10.081  10.868   7.340 -0.1621 -1.0446  0.8367
  849MOL0     H14611   9.856  10.811   7.527 -1.2065 -0.4272 -2.4124
  849MOL0     H14612   9.998  10.705   7.518 -0.1444  0.1005 -0.8818
  849MOL0     H14613   9.743  10.565   7.234 -0.8275 -0.4066 -0.0361
  849MOL0     H14614   9.575  10.808   7.283 -0.3248 -1.1361  1.6654
  849MOL0     H14615   9.375  10.826   7.418 -0.0369 -0.4086  2.4883
  850MOL0     O14616   3.578  10.134  10.014  0.4248  0.3032  0.0192
  850MOL0     C14617   3.529  10.186  10.114 -1.4767 -0.3245 -0.1703
  850MOL0     O14618   3.399  10.201  10.139 -0.2000 -0.0505 -0.4514
  850MOL0     C14619   3.306  10.200  10.034 -0.0787  0.1832 -0.2957
  850MOL0     C14620   3.231  10.091   9.999  0.0059  0.0045 -0.2324
  850MOL0     C14621   3.140  10.099   9.894 -0.7969  0.0588 -0.7940
  850MOL0     C14622   3.103  10.229   9.845  0.0768 -0.4483  0.4150
  850MOL0     O14623   2.997  10.240   9.751 -0.3755  0.7308 -0.2413
  850MOL0     C14624   2.896  10.131   9.759  0.3693  0.0908 -0.2108
  850MOL0     C14625   2.772  10.164   9.678 -0.3227  0.5142 -0.4243
  850MOL0     C14626   2.795  10.172   9.528 -0.8499  0.1305 -0.4751
  850MOL0     C14627   2.690  10.116   9.433  0.2470 -0.2146  0.1030
  850MOL0     C14628   2.549  10.187   9.453 -0.8033  0.3049 -0.2091
  850MOL0     C14629   2.457  10.170   9.329  0.2487 -0.4662 -0.2302
  850MOL0     C14630   2.398  10.034   9.304 -0.3015 -0.2925 -0.2414
  850MOL0     C14631   2.265  10.044   9.232 -0.4359 -0.0149 -0.3047
  850MOL0     N14632   2.206   9.912   9.212  0.4459 -0.7002  0.2261
  850MOL0     C14633   2.219   9.836   9.098  0.3175  0.7636  0.6982
  850MOL0     C14634   2.148   9.725   9.132 -0.3149  0.5320  0.4579
  850MOL0     C14635   2.129   9.599   9.056  0.9565  0.0952 -0.2089
  850MOL0     C14636   2.259   9.513   9.021  0.6200 -0.8533  0.2767
  850MOL0     C14637   2.359   9.587   8.928 -0.2630  0.2474 -0.7577
  850MOL0     C14638   2.477   9.644   9.004 -1.0186 -0.0593  0.6059
  850MOL0     O14639   2.531   9.749   8.910 -0.3639 -0.3545  0.2000
  850MOL0     C14640   2.625   9.844   8.954  0.3307 -0.0629 -0.4503
  850MOL0     C14641   2.656   9.938   8.856 -0.1003 -0.7040 -0.8996
  850MOL0     C14642   2.751  10.042   8.878  0.7468  0.5368  0.1875
  850MOL0     C14643   2.787  10.132   8.760  0.3996 -0.4878  0.8903
  850MOL0     C14644   2.813  10.044   9.006 -0.1815 -0.2099  0.0061
  850MOL0     C14645   2.905  10.159   9.044 -0.9488  0.1067 -0.2268
  850MOL0     O14646   2.998  10.207   8.950  0.5315 -0.7605 -0.1591
  850MOL0     C14647   3.071  10.326   8.969 -0.4405 -1.3060  1.1975
  850MOL0     C14648   3.102  10.392   9.086  0.3816  0.1930 -0.9070
  850MOL0     C14649   3.192  10.502   9.080  0.1670 -0.7507 -0.2248
  850MOL0     C14650   3.264  10.542   8.965  0.3108  1.3804  0.7824
  850MOL0     O14651   3.337  10.650   8.971 -0.3296 -0.2896 -0.2503
  850MOL0     C14652   3.366  10.718   8.854  0.2883 -0.0331 -0.6372
  850MOL0     C14653   3.423  10.849   8.898  0.1442 -0.4530  0.2106
  850MOL0     C14654   3.577  10.832   8.913 -0.9053 -0.3568  0.8507
  850MOL0     C14655   3.628  10.958   8.972 -0.0435 -0.4700  0.2522
  850MOL0     C14656   3.780  10.980   8.954  0.3354  0.7962 -1.1624
  850MOL0     C14657   3.822  11.117   9.013  0.1077 -0.1480 -0.5110
  850MOL0     C14658   3.973  11.151   9.009 -0.3379  0.3707  0.7045
  850MOL0     C14659   3.997  11.299   9.054 -0.0139 -0.5006 -0.3368
  850MOL0    Cl14660   4.169  11.352   9.016  0.2019  0.6124  0.2047
  850MOL0     C14661   3.240  10.468   8.851  1.1009  0.1479  0.1836
  850MOL0     C14662   3.146  10.364   8.853  0.1515  0.5083  0.5609
  850MOL0     O14663   2.893  10.204   9.158  0.2821 -0.4347 -0.5979
  850MOL0     C14664   2.777   9.942   9.108 -0.7562 -0.3297  0.1221
  850MOL0     C14665   2.679   9.848   9.078 -0.0069  0.9690 -0.9130
  850MOL0     N14666   2.104   9.739   9.266  0.7195  0.5220  0.4199
  850MOL0     N14667   2.137   9.850   9.314 -0.3660 -0.7258 -0.8228
  850MOL0     C14668   3.178  10.341   9.891  0.2622 -0.1585 -0.5253
  850MOL0     C14669   3.279  10.322   9.986  0.4465  0.0169  1.0866
  850MOL0     C14670   3.629  10.215  10.226 -0.1521 -1.1665  0.5543
  850MOL0     C14671   3.582  10.298  10.336  0.8920  0.3855  0.1134
  850MOL0     C14672   3.679  10.333  10.434 -0.6439  0.8664 -0.2099
  850MOL0     C14673   3.813  10.285  10.421 -0.3245  0.6710  0.5576
  850MOL0     O14674   3.913  10.315  10.502 -0.2319 -0.3306 -0.8103
  850MOL0     C14675   3.901  10.415  10.606 -0.1566  0.0248  0.0617
  850MOL0     C14676   3.990  10.392  10.727  0.4269  0.0618 -0.0218
  850MOL0     C14677   4.141  10.364  10.694 -0.4766  0.5845 -0.5933
  850MOL0     C14678   4.239  10.347  10.825  0.1330  0.0508  0.5785
  850MOL0     C14679   4.373  10.373  10.794 -0.9187  0.3722  0.1148
  850MOL0     C14680   4.493  10.393  10.757  0.8935  0.5763 -0.2362
  850MOL0     C14681   3.858  10.220  10.302 -0.1369 -0.6219 -0.7668
  850MOL0     C14682   3.766  10.185  10.207  0.6665  0.2588 -0.8371
  850MOL0     H14683   3.237   9.997  10.054  1.1578  0.6888  0.8587
  850MOL0     H14684   3.089  10.008   9.864 -0.1265 -0.2716 -0.9410
  850MOL0     H14685   2.937  10.036   9.722  0.7753  0.8729 -1.8350
  850MOL0     H14686   2.871  10.097   9.860 -4.1969 -1.4224 -1.6072
  850MOL0     H14687   2.705  10.078   9.689  3.9411 -3.1036  0.4624
  850MOL0     H14688   2.717  10.250   9.717 -1.1728 -1.4117  3.1118
  850MOL0     H14689   2.803  10.277   9.498 -2.1580  1.0975  2.1679
  850MOL0     H14690   2.891  10.125   9.506 -2.2656 -2.2454 -1.9750
  850MOL0     H14691   2.720  10.134   9.329 -0.6877 -0.9203 -0.3052
  850MOL0     H14692   2.691  10.007   9.445 -0.1541 -0.2929 -0.5478
  850MOL0     H14693   2.500  10.152   9.544 -1.0353 -1.0566 -0.8315
  850MOL0     H14694   2.572  10.293   9.466  1.2397  0.1649 -1.9796
  850MOL0     H14695   2.374  10.239   9.344 -2.2489 -2.7069 -2.5841
  850MOL0     H14696   2.504  10.198   9.234  0.7383  3.2539  0.9726
  850MOL0     H14697   2.467   9.977   9.240  1.3800 -0.8352  1.9272
  850MOL0     H14698   2.382   9.979   9.398  0.8557 -0.2000  0.0250
  850MOL0     H14699   2.284  10.092   9.136  2.6157 -1.7411 -0.6746
  850MOL0     H14700   2.195  10.105   9.291  1.6595  1.2785  0.9794
  850MOL0     H14701   2.277   9.847   9.007 -0.6430  0.5410  0.0362
  850MOL0     H14702   2.066   9.524   9.104 -0.4573 -1.9938 -4.7448
  850MOL0     H14703   2.078   9.625   8.963 -0.0264 -0.9150  0.0351
  850MOL0     H14704   2.224   9.415   8.988 -1.1880  0.1453 -0.9378
  850MOL0     H14705   2.320   9.505   9.112 -0.4949  0.9835  1.2391
  850MOL0     H14706   2.307   9.669   8.879  0.4786  2.1097  1.4086
  850MOL0     H14707   2.390   9.514   8.852 -0.9862 -1.4655  0.5508
  850MOL0     H14708   2.559   9.573   9.018 -1.8086 -1.2488 -0.5736
  850MOL0     H14709   2.439   9.689   9.097 -2.6358 -1.2950  0.5909
  850MOL0     H14710   2.597   9.922   8.767 -2.5540 -3.9511  1.1131
  850MOL0     H14711   2.757  10.085   8.666 -0.0659  0.7671  0.3887
  850MOL0     H14712   2.745  10.230   8.785  4.5812  1.7994 -0.0592
  850MOL0     H14713   2.895  10.130   8.745  0.0296 -2.7808 -2.4416
  850MOL0     H14714   3.061  10.355   9.179 -1.4391 -2.2239 -2.5410
  850MOL0     H14715   3.203  10.572   9.163 -2.3785  1.0207 -1.2634
  850MOL0     H14716   3.440  10.658   8.799 -1.0704 -1.1065 -1.3786
  850MOL0     H14717   3.278  10.741   8.794  1.9818  2.2015 -2.4493
  850MOL0     H14718   3.404  10.913   8.811  1.3837 -2.0356 -1.3030
  850MOL0     H14719   3.375  10.874   8.993  1.0938  0.4841  0.4642
  850MOL0     H14720   3.617  10.817   8.812 -1.4420  1.2553  0.3813
  850MOL0     H14721   3.612  10.742   8.966  1.7788  0.1937  0.1535
  850MOL0     H14722   3.579  11.047   8.932 -0.8808 -1.1771 -0.3167
  850MOL0     H14723   3.603  10.970   9.078  2.5658 -1.5926  1.0712
  850MOL0     H14724   3.824  10.970   8.854  2.3617 -2.1995 -0.1059
  850MOL0     H14725   3.829  10.901   9.012  0.5082  0.5932 -1.5834
  850MOL0     H14726   3.769  11.207   8.978  1.6824  1.4169  0.9036
  850MOL0     H14727   3.807  11.109   9.121 -2.7328 -0.4870 -0.8460
  850MOL0     H14728   4.017  11.127   8.912 -0.0472 -0.2589  0.9854
  850MOL0     H14729   4.029  11.085   9.076 -0.0496  0.7673  0.8602
  850MOL0     H14730   3.987  11.304   9.163 -3.5246 -1.3664 -0.5060
  850MOL0     H14731   3.937  11.368   8.994  1.1231  3.1585  2.3823
  850MOL0     H14732   3.278  10.496   8.754  0.3705  4.0709  0.8696
  850MOL0     H14733   3.118  10.311   8.763 -2.6572  1.2582  0.8832
  850MOL0     H14734   2.818   9.947   9.209 -3.3326 -3.7756  1.5604
  850MOL0     H14735   2.643   9.782   9.156  1.4651  1.1934 -0.0145
  850MOL0     H14736   3.155  10.434   9.838 -1.2563 -0.5272 -0.5637
  850MOL0     H14737   3.325  10.412  10.026 -1.3591  2.1057 -1.1955
  850MOL0     H14738   3.479  10.329  10.349  1.2016  1.2333  0.6114
  850MOL0     H14739   3.639  10.406  10.504 -1.3375 -0.4579  0.8159
  850MOL0     H14740   3.940  10.508  10.565 -0.9051  1.5346  2.5342
  850MOL0     H14741   3.802  10.436  10.647 -0.0683  0.3647  0.1008
  850MOL0     H14742   3.941  10.311  10.782 -1.3366  1.3231  0.3495
  850MOL0     H14743   3.972  10.481  10.789 -1.6023 -2.1595  2.8501
  850MOL0     H14744   4.185  10.448  10.640  0.8807  0.7213  0.6715
  850MOL0     H14745   4.156  10.271  10.638 -0.8391  0.8134 -1.0780
  850MOL0     H14746   4.229  10.242  10.855  2.9320 -0.1576  1.0272
  850MOL0     H14747   4.211  10.426  10.895  3.7366  4.5074 -2.4677
  850MOL0     H14748   4.597  10.409  10.735  0.4351  1.1029 -2.2555
  850MOL0     H14749   3.965  10.202  10.298  0.3097  0.7074  2.5462
  850MOL0     H14750   3.794  10.137  10.113  2.6023 -0.3831  0.0240
  851MOL0     O14751   6.749   2.570   0.463 -0.7202  0.1224 -0.1847
  851MOL0     C14752   6.843   2.509   0.518 -1.0298  0.8100 -0.1487
  851MOL0     O14753   6.858   2.504   0.656 -0.7636 -0.9529  0.2075
  851MOL0     C14754   6.789   2.591   0.739 -0.4523  0.4464 -0.6319
  851MOL0     C14755   6.855   2.649   0.851 -0.0301  0.2255 -0.0109
  851MOL0     C14756   6.782   2.722   0.953  0.3876  0.7901 -0.0146
  851MOL0     C14757   6.642   2.731   0.941 -0.5532 -0.2733  0.5396
  851MOL0     O14758   6.562   2.785   1.031  0.2717 -0.7104 -0.9112
  851MOL0     C14759   6.618   2.870   1.129 -0.5195  0.2533  0.0800
  851MOL0     C14760   6.514   2.936   1.224 -0.8888 -1.0359  0.1425
  851MOL0     C14761   6.408   3.026   1.162 -0.9121 -0.9914 -0.1841
  851MOL0     C14762   6.325   3.101   1.268  0.6101  1.0411  0.0059
  851MOL0     C14763   6.218   3.191   1.210  0.0180 -0.1335  0.1689
  851MOL0     C14764   6.091   3.108   1.183  0.5166 -0.3143 -0.3438
  851MOL0     C14765   5.993   3.192   1.101 -0.2827 -0.1874  0.0371
  851MOL0     C14766   5.850   3.146   1.096 -0.1215 -0.4019 -0.3911
  851MOL0     N14767   5.819   3.028   1.012 -0.2517 -0.1834  0.5072
  851MOL0     C14768   5.904   2.971   0.915  0.4755  0.0406  0.6702
  851MOL0     C14769   5.826   2.877   0.862  0.1241  0.3050  0.2772
  851MOL0     C14770   5.875   2.784   0.756 -1.1175  0.1796  0.6367
  851MOL0     C14771   5.876   2.636   0.806  0.3083  0.3915  1.0370
  851MOL0     C14772   5.887   2.540   0.685 -0.0200 -0.2701 -0.7190
  851MOL0     C14773   5.889   2.390   0.712 -0.4414 -0.1185  0.3054
  851MOL0     O14774   5.932   2.320   0.595  0.3306  0.2283 -0.2738
  851MOL0     C14775   5.975   2.187   0.605  0.2773 -1.2190  0.5677
  851MOL0     C14776   6.074   2.140   0.521 -0.4694  0.2606  0.1854
  851MOL0     C14777   6.110   2.009   0.513 -0.3234  1.1857 -0.2212
  851MOL0     C14778   6.215   1.969   0.403 -0.2328  0.3346 -0.1850
  851MOL0     C14779   6.049   1.906   0.591 -0.3948  0.3069  0.6901
  851MOL0     C14780   6.089   1.759   0.594  0.5065 -0.1988 -0.5933
  851MOL0     O14781   5.993   1.674   0.649  0.4931 -0.0595 -0.1504
  851MOL0     C14782   5.993   1.536   0.637  0.4202 -0.2072 -1.1180
  851MOL0     C14783   6.062   1.450   0.543 -0.3235 -0.2333  0.3894
  851MOL0     C14784   6.051   1.307   0.546 -0.3714  0.3307 -0.1265
  851MOL0     C14785   5.967   1.257   0.641 -0.3843 -0.0277  0.2703
  851MOL0     O14786   5.944   1.128   0.635 -0.0034  0.8786  0.5129
  851MOL0     C14787   5.963   1.055   0.747 -0.0616  0.0521 -0.6516
  851MOL0     C14788   5.909   0.912   0.728  0.0284  0.5498  0.1810
  851MOL0     C14789   6.016   0.807   0.755  0.7339  0.4859 -0.1607
  851MOL0     C14790   6.136   0.807   0.672  0.7447 -1.1536 -0.6475
  851MOL0     C14791   6.219   0.691   0.700 -0.6759  0.1922 -0.2255
  851MOL0     C14792   6.341   0.700   0.609 -0.2598  0.7657 -0.0917
  851MOL0     C14793   6.404   0.555   0.605 -1.1917  0.5103  0.3251
  851MOL0     C14794   6.549   0.562   0.670 -0.7180 -0.1242 -0.2712
  851MOL0    Cl14795   6.649   0.690   0.592 -0.2623 -0.1838  0.1704
  851MOL0     C14796   5.880   1.331   0.716  0.3250 -0.4200 -0.3911
  851MOL0     C14797   5.886   1.473   0.717 -0.5045  0.2388 -0.0586
  851MOL0     O14798   6.189   1.728   0.525  0.9544 -0.3512 -0.0396
  851MOL0     C14799   5.958   1.955   0.678 -0.3300  0.4681 -0.4221
  851MOL0     C14800   5.917   2.083   0.679 -0.2918 -0.6968 -0.6904
  851MOL0     N14801   5.699   2.873   0.915 -0.3966 -0.4427 -0.5292
  851MOL0     N14802   5.701   2.960   1.013 -0.2686 -0.7810  0.2853
  851MOL0     C14803   6.582   2.677   0.835  0.4610  0.0341  0.3358
  851MOL0     C14804   6.644   2.614   0.730 -0.6990 -0.6185  0.8326
  851MOL0     C14805   6.939   2.428   0.438 -0.5244  0.5836 -0.0297
  851MOL0     C14806   7.046   2.373   0.503  0.1969 -0.3598 -0.2943
  851MOL0     C14807   7.151   2.312   0.434 -0.3747 -0.1397  0.1427
  851MOL0     C14808   7.140   2.292   0.298 -0.7359  0.0828 -0.5712
  851MOL0     O14809   7.231   2.223   0.219 -0.4313 -0.0710 -0.2523
  851MOL0     C14810   7.358   2.186   0.278  0.9480  1.0988  0.3732
  851MOL0     C14811   7.450   2.097   0.194  0.9508  0.7431  0.1042
  851MOL0     C14812   7.505   2.177   0.062 -0.1294 -0.7570 -0.7616
  851MOL0     C14813   7.544   2.083  -0.051 -0.1079 -0.3501  0.0060
  851MOL0     C14814   7.413   2.031  -0.099 -0.1426 -0.7478  0.1060
  851MOL0     C14815   7.297   2.022  -0.127 -0.3104 -0.1439 -0.7974
  851MOL0     C14816   7.030   2.354   0.230  0.3411  0.7815  0.0096
  851MOL0     C14817   6.924   2.412   0.295 -0.6943 -1.3498  0.9093
  851MOL0     H14818   6.962   2.631   0.860 -0.1023 -0.1254  0.1639
  851MOL0     H14819   6.831   2.763   1.041  0.3699  1.5544 -0.3445
  851MOL0     H14820   6.685   2.814   1.194  1.3929  4.8682  2.5560
  851MOL0     H14821   6.667   2.954   1.079 -2.5366  1.3618 -0.1723
  851MOL0     H14822   6.458   2.870   1.291 -0.3298 -0.8631  0.7908
  851MOL0     H14823   6.577   3.008   1.278 -2.8051  0.4871  0.4557
  851MOL0     H14824   6.441   3.087   1.078  1.2509 -0.4972  0.9605
  851MOL0     H14825   6.331   2.964   1.115 -2.3821  1.8679 -1.8661
  851MOL0     H14826   6.297   3.034   1.349 -0.3704 -0.2639 -1.3697
  851MOL0     H14827   6.397   3.171   1.314  1.5103 -0.4963  1.0194
  851MOL0     H14828   6.210   3.285   1.264 -1.6940  0.7425 -1.5228
  851MOL0     H14829   6.253   3.219   1.110  2.9704 -1.7901  0.5873
  851MOL0     H14830   6.123   3.019   1.127 -0.7412  1.1007 -3.5640
  851MOL0     H14831   6.037   3.075   1.272 -0.1988 -2.0508 -1.3647
  851MOL0     H14832   5.991   3.294   1.141 -0.3818 -0.2852  0.2821
  851MOL0     H14833   6.021   3.203   0.996 -1.5729  0.0010 -0.3027
  851MOL0     H14834   5.800   3.233   1.052  2.6083  2.1421  1.2126
  851MOL0     H14835   5.814   3.142   1.199 -1.0716 -3.0247 -0.7422
  851MOL0     H14836   5.998   2.999   0.869 -0.0652 -0.8399 -1.0590
  851MOL0     H14837   5.801   2.786   0.675  0.2854  0.8475 -0.6779
  851MOL0     H14838   5.961   2.835   0.712 -1.7982  2.4955  1.8283
  851MOL0     H14839   5.787   2.618   0.866  0.5874 -0.7086  1.1323
  851MOL0     H14840   5.959   2.619   0.875  2.2066  2.2291 -0.6393
  851MOL0     H14841   5.983   2.564   0.639  0.9949 -2.8373 -0.1219
  851MOL0     H14842   5.802   2.568   0.623  0.1537  0.1575 -0.7670
  851MOL0     H14843   5.786   2.363   0.735  0.0856 -2.5693  0.0923
  851MOL0     H14844   5.955   2.364   0.795  0.2640 -0.2408 -0.2832
  851MOL0     H14845   6.120   2.206   0.448  0.8841  0.0559  0.8209
  851MOL0     H14846   6.318   1.945   0.431  0.3944  2.9105 -0.0254
  851MOL0     H14847   6.178   1.885   0.344  2.9900 -1.0519 -0.4770
  851MOL0     H14848   6.237   2.053   0.336 -1.3596  2.0719  1.5197
  851MOL0     H14849   6.134   1.507   0.483 -0.7073  0.8479  0.9331
  851MOL0     H14850   6.114   1.239   0.490 -0.2193  0.8998 -0.6700
  851MOL0     H14851   6.064   1.054   0.787  0.2674  1.9107 -1.3427
  851MOL0     H14852   5.897   1.103   0.820 -0.1574 -0.6636 -0.2573
  851MOL0     H14853   5.849   0.894   0.818 -0.2863 -2.3349 -0.5238
  851MOL0     H14854   5.850   0.892   0.638 -0.0864  0.2857  0.3160
  851MOL0     H14855   5.961   0.715   0.738  1.8673  0.0612 -1.7302
  851MOL0     H14856   6.043   0.816   0.861  1.7646  3.4191 -0.5772
  851MOL0     H14857   6.121   0.801   0.564  3.4001 -0.7522 -1.1187
  851MOL0     H14858   6.206   0.888   0.694  0.2375 -0.8096 -0.2622
  851MOL0     H14859   6.160   0.600   0.683 -1.0622 -0.1831  2.6620
  851MOL0     H14860   6.259   0.696   0.801 -1.1762  3.2564 -0.0885
  851MOL0     H14861   6.299   0.720   0.510  1.9239 -1.5379 -1.6121
  851MOL0     H14862   6.409   0.783   0.628  0.8135  0.0830 -0.8126
  851MOL0     H14863   6.423   0.511   0.507 -2.8113 -4.4714  1.9248
  851MOL0     H14864   6.343   0.482   0.659  0.2376 -0.1256  1.1695
  851MOL0     H14865   6.593   0.466   0.642 -0.4080  0.2159 -0.9804
  851MOL0     H14866   6.539   0.583   0.777  2.4554  1.0019 -0.0797
  851MOL0     H14867   5.795   1.284   0.764  0.2574  1.2865  1.2819
  851MOL0     H14868   5.805   1.523   0.768  1.9529  3.1450  1.3257
  851MOL0     H14869   5.909   1.886   0.747  0.7759 -2.1549 -2.0819
  851MOL0     H14870   5.839   2.115   0.749 -1.1261  2.0789 -2.6956
  851MOL0     H14871   6.474   2.685   0.830  0.5321  1.0223  0.1423
  851MOL0     H14872   6.588   2.566   0.650  0.8069 -1.8124  0.4371
  851MOL0     H14873   7.047   2.387   0.611 -2.3238 -2.6799  0.1246
  851MOL0     H14874   7.239   2.279   0.489  1.6460 -1.2452 -3.4037
  851MOL0     H14875   7.411   2.278   0.305  2.5166 -0.0330  1.3276
  851MOL0     H14876   7.334   2.125   0.366  3.7028 -1.4795 -0.4892
  851MOL0     H14877   7.399   2.001   0.177  2.3314  0.2174 -1.3120
  851MOL0     H14878   7.544   2.077   0.244 -0.4909 -0.1009  2.6518
  851MOL0     H14879   7.595   2.239   0.073 -1.3106  0.9479 -0.3221
  851MOL0     H14880   7.429   2.246   0.025  0.2062  1.1363  1.7900
  851MOL0     H14881   7.611   2.003  -0.017  0.8256  0.5268  0.2991
  851MOL0     H14882   7.590   2.132  -0.137 -2.5647  0.1520 -1.0921
  851MOL0     H14883   7.191   2.010  -0.131 -0.7147  1.1692  2.7088
  851MOL0     H14884   7.026   2.335   0.124  2.1561  0.7152 -0.0763
  851MOL0     H14885   6.831   2.441   0.249 -1.5931 -5.9690 -0.7331
  852MOL0     O14886   7.239   1.965   0.612 -0.0654 -0.1283  0.1909
  852MOL0     C14887   7.344   2.025   0.637 -0.5852  0.3577 -0.0581
  852MOL0     O14888   7.473   1.988   0.606  0.2638  0.8955  0.3168
  852MOL0     C14889   7.494   1.876   0.540 -0.1686 -0.5924  1.0666
  852MOL0     C14890   7.597   1.888   0.447 -0.4467  0.0010  0.3104
  852MOL0     C14891   7.631   1.789   0.355 -0.0289  0.5898 -1.6807
  852MOL0     C14892   7.562   1.669   0.357 -0.2593 -0.3432  0.2437
  852MOL0     O14893   7.605   1.571   0.275  0.6944  0.2825  0.0634
  852MOL0     C14894   7.498   1.485   0.225  0.6147  0.7240  0.4045
  852MOL0     C14895   7.520   1.480   0.069 -0.0329 -0.3720 -0.2831
  852MOL0     C14896   7.476   1.617   0.017  0.1614 -0.3023  0.8869
  852MOL0     C14897   7.538   1.682  -0.108 -0.0621  0.2002  1.0181
  852MOL0     C14898   7.442   1.658  -0.229  0.3536  0.6993 -0.2659
  852MOL0     C14899   7.506   1.708  -0.362 -0.0005 -0.3441 -0.4002
  852MOL0     C14900   7.524   1.857  -0.367 -0.3791  0.1287 -0.2136
  852MOL0     C14901   7.577   1.915  -0.494 -0.3935  0.1766  0.0313
  852MOL0     N14902   7.560   2.061  -0.490  1.0289  0.2490  0.4303
  852MOL0     C14903   7.483   2.121  -0.579  0.2258 -0.2556  0.2509
  852MOL0     C14904   7.500   2.253  -0.556  0.0910  0.2027 -0.1951
  852MOL0     C14905   7.436   2.353  -0.641  0.1698 -0.1276  0.6670
  852MOL0     C14906   7.513   2.492  -0.632 -0.3430 -0.6365  0.2572
  852MOL0     C14907   7.655   2.498  -0.684  0.8898  0.7809  0.4006
  852MOL0     C14908   7.667   2.476  -0.839  0.3506  1.5217  0.4400
  852MOL0     O14909   7.805   2.496  -0.879  0.2887 -0.3050  0.2791
  852MOL0     C14910   7.847   2.505  -1.008  0.6744 -0.6650 -0.6468
  852MOL0     C14911   7.773   2.493  -1.127 -0.2531 -0.9403  0.1658
  852MOL0     C14912   7.826   2.502  -1.254 -0.2532 -0.0750 -0.6440
  852MOL0     C14913   7.732   2.459  -1.367 -0.1842 -0.9198  0.2413
  852MOL0     C14914   7.969   2.513  -1.263  0.2795  0.0073  0.5560
  852MOL0     C14915   8.046   2.489  -1.389 -1.0038 -0.6808 -0.5941
  852MOL0     O14916   8.179   2.515  -1.374 -0.4064  0.8511  0.2952
  852MOL0     C14917   8.253   2.476  -1.483 -0.3542 -0.2472  0.5312
  852MOL0     C14918   8.291   2.339  -1.480  0.7219 -0.3609  1.1839
  852MOL0     C14919   8.360   2.295  -1.590  0.7560 -0.0723  0.2930
  852MOL0     C14920   8.400   2.369  -1.698  0.4490  0.8696 -0.4383
  852MOL0     O14921   8.475   2.318  -1.800 -0.5225  1.8120 -0.1389
  852MOL0     C14922   8.601   2.256  -1.771 -1.0384  0.1997  0.1735
  852MOL0     C14923   8.641   2.140  -1.870  0.0100  0.0003  0.2291
  852MOL0     C14924   8.609   2.196  -2.001  0.2114 -0.4147  0.0635
  852MOL0     C14925   8.683   2.132  -2.120  0.2198  1.5020 -0.4961
  852MOL0     C14926   8.640   2.184  -2.264 -0.3914  0.1211 -0.3243
  852MOL0     C14927   8.582   2.067  -2.345 -0.4346  0.3285  0.2778
  852MOL0     C14928   8.443   2.013  -2.291 -0.4198 -0.0410  0.0258
  852MOL0     C14929   8.394   1.896  -2.383  0.1097  0.3562 -0.5191
  852MOL0    Cl14930   8.358   1.958  -2.548 -0.1611 -0.1349  0.3114
  852MOL0     C14931   8.347   2.494  -1.715 -0.0649  0.0314 -0.1750
  852MOL0     C14932   8.272   2.552  -1.605 -0.2096 -0.6650 -0.2463
  852MOL0     O14933   7.987   2.443  -1.486 -0.6687 -0.6236  0.9565
  852MOL0     C14934   8.042   2.533  -1.142  0.1668  0.2487 -0.3706
  852MOL0     C14935   7.982   2.519  -1.019 -0.0224  0.4720 -0.2795
  852MOL0     N14936   7.584   2.263  -0.443  0.0168 -0.1391  0.0904
  852MOL0     N14937   7.620   2.142  -0.412  0.8541 -0.0682 -0.2833
  852MOL0     C14938   7.459   1.657   0.455 -0.4079  0.2298 -0.4231
  852MOL0     C14939   7.422   1.756   0.549 -1.0855  0.5360 -0.0103
  852MOL0     C14940   7.330   2.127   0.743 -0.4235 -0.2156 -0.0830
  852MOL0     C14941   7.203   2.163   0.783  0.9494 -0.4831 -0.0661
  852MOL0     C14942   7.187   2.267   0.871  0.1257  0.2871 -0.2828
  852MOL0     C14943   7.291   2.320   0.935 -1.3559  0.4909 -0.1213
  852MOL0     O14944   7.296   2.413   1.037 -0.2461  0.7571  0.1666
  852MOL0     C14945   7.177   2.442   1.112  0.2158  0.3504  0.5554
  852MOL0     C14946   7.221   2.491   1.253  0.4822 -0.3325  0.1714
  852MOL0     C14947   7.237   2.652   1.265  0.6604 -0.2998 -0.5549
  852MOL0     C14948   7.117   2.756   1.259 -0.5536 -0.0049  0.2631
  852MOL0     C14949   6.999   2.699   1.325  0.0650 -0.7478 -0.2851
  852MOL0     C14950   6.909   2.628   1.358 -0.3636  0.3825  0.5026
  852MOL0     C14951   7.422   2.286   0.896  0.0018 -0.2571  0.2722
  852MOL0     C14952   7.440   2.184   0.807  0.7829  0.3080  1.0552
  852MOL0     H14953   7.642   1.987   0.435  0.9898 -0.3281  2.4420
  852MOL0     H14954   7.711   1.797   0.282 -0.4216  2.1732 -1.9798
  852MOL0     H14955   7.516   1.387   0.269 -3.2188 -1.0332 -1.4929
  852MOL0     H14956   7.394   1.512   0.245  0.9169  2.1420  0.1820
  852MOL0     H14957   7.629   1.480   0.070  0.1685  2.2993  4.2983
  852MOL0     H14958   7.482   1.394   0.013 -0.0525 -1.1835  0.9533
  852MOL0     H14959   7.366   1.615   0.010  0.2206  0.3001 -0.3557
  852MOL0     H14960   7.499   1.691   0.094 -2.4791  1.4973  0.0750
  852MOL0     H14961   7.541   1.790  -0.096 -2.6314  0.0946  3.4486
  852MOL0     H14962   7.636   1.634  -0.120 -0.3190 -0.7498  2.4297
  852MOL0     H14963   7.412   1.552  -0.230  2.7619 -0.1036  1.9646
  852MOL0     H14964   7.347   1.712  -0.230  1.6461  3.0745 -0.9736
  852MOL0     H14965   7.598   1.650  -0.373 -0.3720 -0.9336 -0.4439
  852MOL0     H14966   7.440   1.684  -0.446 -0.9696  0.1338  0.2053
  852MOL0     H14967   7.426   1.902  -0.350 -0.4842  0.8034 -2.3136
  852MOL0     H14968   7.588   1.887  -0.283 -3.9506  4.4889  1.3334
  852MOL0     H14969   7.526   1.867  -0.578  1.8578 -3.4128  0.4881
  852MOL0     H14970   7.681   1.887  -0.508  0.6904  3.3566  0.8914
  852MOL0     H14971   7.410   2.078  -0.647  1.1362  0.2283 -1.0694
  852MOL0     H14972   7.435   2.315  -0.743 -0.4319  0.1739  0.5597
  852MOL0     H14973   7.332   2.359  -0.608  0.7705  0.7719  2.5713
  852MOL0     H14974   7.515   2.519  -0.526  2.8595  1.1141 -0.1112
  852MOL0     H14975   7.454   2.566  -0.686  0.7181 -1.2270 -1.7974
  852MOL0     H14976   7.715   2.428  -0.625 -1.5593 -0.2719  1.7818
  852MOL0     H14977   7.686   2.602  -0.669  0.1163  1.3914 -1.8490
  852MOL0     H14978   7.595   2.542  -0.888 -1.8571 -0.3209  1.0685
  852MOL0     H14979   7.647   2.373  -0.871 -0.0390  0.5067  3.6235
  852MOL0     H14980   7.674   2.451  -1.115 -0.2458 -0.6654  1.3085
  852MOL0     H14981   7.627   2.451  -1.336 -0.3934 -4.0697 -0.8530
  852MOL0     H14982   7.736   2.523  -1.455 -2.9484  3.9852  3.2209
  852MOL0     H14983   7.758   2.357  -1.396  0.8031 -0.1173 -1.8822
  852MOL0     H14984   8.288   2.280  -1.388  2.4277 -0.9123  0.9205
  852MOL0     H14985   8.400   2.194  -1.594 -2.1995 -1.2955 -0.6400
  852MOL0     H14986   8.674   2.338  -1.771  1.7342 -2.1155 -0.2829
  852MOL0     H14987   8.603   2.218  -1.668  1.4631  1.1245  0.5282
  852MOL0     H14988   8.749   2.134  -1.854  0.0743 -2.6585 -0.7174
  852MOL0     H14989   8.591   2.045  -1.847 -1.2328  1.0590  2.2238
  852MOL0     H14990   8.611   2.304  -2.020 -3.2278 -0.1831  0.3079
  852MOL0     H14991   8.502   2.181  -2.022  0.4627 -1.2372 -0.6835
  852MOL0     H14992   8.792   2.140  -2.108  0.4085 -0.1466 -0.8913
  852MOL0     H14993   8.670   2.024  -2.111  0.5821  1.4873 -0.1554
  852MOL0     H14994   8.732   2.196  -2.321 -0.3894  2.1717  0.0417
  852MOL0     H14995   8.568   2.266  -2.260 -0.2156  0.3525  5.0655
  852MOL0     H14996   8.566   2.088  -2.451 -0.7188 -1.0205  0.0356
  852MOL0     H14997   8.656   1.987  -2.330  2.4188  2.1465 -2.8023
  852MOL0     H14998   8.365   2.090  -2.292  0.5186  0.9432  1.0632
  852MOL0     H14999   8.445   1.976  -2.189  0.9023 -1.3416 -0.4459
  852MOL0     H15000   8.310   1.843  -2.339 -1.0387  0.4511 -2.4920
  852MOL0     H15001   8.475   1.823  -2.395  0.7391  1.0165 -0.3375
  852MOL0     H15002   8.371   2.557  -1.800 -2.8146  0.3036 -0.8484
  852MOL0     H15003   8.239   2.654  -1.619 -2.3482 -1.2907 -0.0018
  852MOL0     H15004   8.150   2.543  -1.138  0.1925 -0.1888  0.2227
  852MOL0     H15005   8.037   2.529  -0.926 -1.1531  0.8179  0.3702
  852MOL0     H15006   7.401   1.567   0.473 -1.2399  1.2400  2.3787
  852MOL0     H15007   7.351   1.728   0.627 -1.6270 -5.9066 -2.2093
  852MOL0     H15008   7.119   2.134   0.721  0.3511  2.2560 -0.6754
  852MOL0     H15009   7.092   2.308   0.904  2.0174  5.7094 -0.6691
  852MOL0     H15010   7.119   2.517   1.057 -0.4535  0.1036  0.9151
  852MOL0     H15011   7.120   2.348   1.112 -2.6681  1.7726 -3.6980
  852MOL0     H15012   7.315   2.442   1.276 -0.5995 -1.0229  3.7053
  852MOL0     H15013   7.143   2.469   1.327 -0.3079  0.1540 -0.4935
  852MOL0     H15014   7.309   2.680   1.188  1.2819 -1.6614 -0.5140
  852MOL0     H15015   7.304   2.679   1.348  4.7448 -0.6390 -3.4682
  852MOL0     H15016   7.098   2.775   1.153 -1.6774  2.9980  0.9034
  852MOL0     H15017   7.146   2.854   1.297 -0.1195 -0.3141  0.7418
  852MOL0     H15018   6.832   2.563   1.395  0.2366  1.1790  3.4402
  852MOL0     H15019   7.513   2.329   0.938  0.7185 -0.4515 -1.0496
  852MOL0     H15020   7.541   2.161   0.774  0.0457 -1.3240 -0.2119
  853MOL0     O15021   0.438  11.485   4.958 -0.0369  0.2209 -0.6230
  853MOL0     C15022   0.484  11.392   4.893  0.6621  0.0457 -0.0347
  853MOL0     O15023   0.404  11.296   4.838  0.4245 -0.6623  0.3699
  853MOL0     C15024   0.268  11.283   4.859  0.1985  0.4951  1.2640
  853MOL0     C15025   0.214  11.152   4.850 -0.0088  0.1417  0.1292
  853MOL0     C15026   0.072  11.143   4.863  0.6595  0.1281  0.3343
  853MOL0     C15027  -0.012  11.254   4.877 -0.2364  0.1012 -0.8891
  853MOL0     O15028  -0.141  11.225   4.906 -0.1171  0.7998 -0.7349
  853MOL0     C15029  -0.244  11.294   4.844  0.1761  0.2388 -0.1972
  853MOL0     C15030  -0.384  11.217   4.878 -0.2465 -0.6231  0.8126
  853MOL0     C15031  -0.399  11.070   4.834  0.0505  0.8790 -1.4420
  853MOL0     C15032  -0.334  10.981   4.940  0.3516 -0.6957 -0.3700
  853MOL0     C15033  -0.343  10.831   4.895  0.5307 -0.9210  0.4712
  853MOL0     C15034  -0.460  10.748   4.941 -0.4539 -0.5717  0.3683
  853MOL0     C15035  -0.457  10.609   4.867 -0.0346 -0.5730  0.1485
  853MOL0     C15036  -0.512  10.616   4.729  0.3858 -0.2804 -0.1640
  853MOL0     N15037  -0.526  10.495   4.658  0.0882  0.7812 -0.3145
  853MOL0     C15038  -0.407  10.418   4.623 -0.2648  0.2725 -1.0560
  853MOL0     C15039  -0.468  10.319   4.554  1.1653  0.3595 -0.4058
  853MOL0     C15040  -0.390  10.210   4.480 -0.0230 -0.0176 -0.0603
  853MOL0     C15041  -0.422  10.073   4.544 -0.6238 -0.1193 -1.1801
  853MOL0     C15042  -0.387   9.949   4.461  0.6250 -0.9297  0.6942
  853MOL0     C15043  -0.479   9.835   4.503  0.6036  0.4078  0.1417
  853MOL0     O15044  -0.434   9.804   4.637  0.0560 -0.2222 -0.1688
  853MOL0     C15045  -0.500   9.693   4.692 -0.3865  0.4344  0.2299
  853MOL0     C15046  -0.547   9.582   4.620  0.4842 -0.2177 -0.5842
  853MOL0     C15047  -0.603   9.479   4.700 -0.5702 -0.2292  0.2598
  853MOL0     C15048  -0.652   9.360   4.614 -0.0993 -0.0580  0.3826
  853MOL0     C15049  -0.618   9.487   4.843  0.6987  0.1164  0.0436
  853MOL0     C15050  -0.671   9.383   4.927  0.1053  1.2867  0.3018
  853MOL0     O15051  -0.663   9.391   5.073  0.5993 -0.2841  0.3466
  853MOL0     C15052  -0.709   9.290   5.166  0.3606  0.0424  0.1645
  853MOL0     C15053  -0.772   9.171   5.143  0.4353  0.2438  0.0030
  853MOL0     C15054  -0.775   9.077   5.251  0.2556  0.4808 -0.1411
  853MOL0     C15055  -0.749   9.106   5.387 -0.8798  0.1055  0.0084
  853MOL0     O15056  -0.777   9.014   5.488 -0.2905 -0.1495 -0.8997
  853MOL0     C15057  -0.806   9.055   5.621  0.2783  0.3149  0.4384
  853MOL0     C15058  -0.791   8.926   5.706 -0.0577 -0.4232 -0.3314
  853MOL0     C15059  -0.910   8.908   5.797  0.0211 -0.6270  0.4933
  853MOL0     C15060  -1.038   8.881   5.718  0.8021 -0.1015 -0.0672
  853MOL0     C15061  -1.146   8.826   5.804  0.2520 -0.9873  0.1325
  853MOL0     C15062  -1.275   8.803   5.716 -0.6653 -0.3048 -0.6631
  853MOL0     C15063  -1.396   8.744   5.796 -0.2834  0.8604 -0.0541
  853MOL0     C15064  -1.521   8.751   5.707 -0.9407  0.5003  0.3127
  853MOL0    Cl15065  -1.565   8.929   5.689 -0.2587 -0.0236 -0.3155
  853MOL0     C15066  -0.704   9.238   5.411 -0.6287  0.3035  0.2086
  853MOL0     C15067  -0.677   9.324   5.295  0.3473  0.0167  0.3549
  853MOL0     O15068  -0.728   9.288   4.871 -0.4568 -0.4075 -0.3342
  853MOL0     C15069  -0.578   9.601   4.905  0.5596  0.3545 -0.8459
  853MOL0     C15070  -0.509   9.699   4.838 -0.0195 -0.2536  0.5944
  853MOL0     N15071  -0.614  10.338   4.556  0.4317  0.0161  0.7578
  853MOL0     N15072  -0.642  10.438   4.613  0.3242 -0.1472  0.1433
  853MOL0     C15073   0.038  11.382   4.886 -0.1326  0.3487  0.3570
  853MOL0     C15074   0.182  11.390   4.869  0.9075 -0.9111 -0.8122
  853MOL0     C15075   0.629  11.375   4.885 -0.1556 -0.7266 -0.4501
  853MOL0     C15076   0.684  11.308   4.773  0.0246 -0.1872 -0.0835
  853MOL0     C15077   0.823  11.299   4.760  0.7293  0.4090  0.4625
  853MOL0     C15078   0.910  11.354   4.851  0.4561  0.0772 -0.0291
  853MOL0     O15079   1.046  11.355   4.850  0.4468  0.4266  0.0272
  853MOL0     C15080   1.124  11.270   4.765 -0.5873  0.3656 -0.3911
  853MOL0     C15081   1.145  11.359   4.643 -0.3058 -1.5045 -0.1028
  853MOL0     C15082   1.255  11.315   4.556  0.6582 -0.2057 -0.1466
  853MOL0     C15083   1.207  11.254   4.432  0.2689  0.7446 -0.0281
  853MOL0     C15084   1.304  11.254   4.320 -0.1537  0.0157 -0.6036
  853MOL0     C15085   1.372  11.257   4.230 -0.8018  0.1860  0.9833
  853MOL0     C15086   0.852  11.420   4.955  0.4048  0.0487  0.1003
  853MOL0     C15087   0.721  11.434   4.978  0.2710  0.8381 -0.1379
  853MOL0     H15088   0.287  11.071   4.854  2.9191  2.6025  0.2114
  853MOL0     H15089   0.016  11.050   4.861  1.4201 -0.3366 -1.1906
  853MOL0     H15090  -0.247  11.393   4.892  2.3447  1.1937 -1.8486
  853MOL0     H15091  -0.232  11.308   4.736 -2.6536  1.0806 -0.4989
  853MOL0     H15092  -0.407  11.225   4.984  3.3681  0.3434  1.6890
  853MOL0     H15093  -0.460  11.272   4.822 -0.8883 -3.0862 -0.8692
  853MOL0     H15094  -0.500  11.032   4.817  0.3229 -1.2609  1.0503
  853MOL0     H15095  -0.336  11.065   4.745 -0.2576  0.5101 -1.6395
  853MOL0     H15096  -0.232  11.011   4.965 -0.5394  1.5397  0.8010
  853MOL0     H15097  -0.388  11.000   5.033 -0.4274  2.8067 -1.3918
  853MOL0     H15098  -0.333  10.838   4.786  2.3394  3.4738  0.7132
  853MOL0     H15099  -0.248  10.785   4.923  1.5958 -1.1543 -2.9913
  853MOL0     H15100  -0.443  10.740   5.049  0.4509 -2.0263  0.1466
  853MOL0     H15101  -0.559  10.791   4.926 -1.7112 -3.7667 -1.2794
  853MOL0     H15102  -0.359  10.560   4.875 -0.5051 -1.3865  1.2241
  853MOL0     H15103  -0.530  10.542   4.914  0.1724  0.6862  2.4121
  853MOL0     H15104  -0.442  10.671   4.666 -0.1334  1.2579  0.5458
  853MOL0     H15105  -0.602  10.677   4.733 -0.0259 -0.9162  1.2067
  853MOL0     H15106  -0.302  10.442   4.633 -0.4125  1.1557 -1.5232
  853MOL0     H15107  -0.422  10.216   4.375 -2.1431 -1.0616  0.4552
  853MOL0     H15108  -0.284  10.235   4.483  0.3583 -1.2077 -1.7831
  853MOL0     H15109  -0.528  10.076   4.569  0.2086 -2.4083  4.0526
  853MOL0     H15110  -0.360  10.082   4.634 -0.6278 -2.8957 -0.8292
  853MOL0     H15111  -0.280   9.925   4.468  1.1760  1.0429 -0.3344
  853MOL0     H15112  -0.403   9.973   4.356  2.7728 -0.7949  0.3544
  853MOL0     H15113  -0.466   9.746   4.441 -1.7463  0.4368 -0.5004
  853MOL0     H15114  -0.586   9.861   4.500  0.3219 -0.4463  1.7110
  853MOL0     H15115  -0.522   9.568   4.516 -0.0751 -2.4272 -0.4718
  853MOL0     H15116  -0.650   9.377   4.506 -1.5602 -0.0934  0.3323
  853MOL0     H15117  -0.581   9.279   4.635  1.6750  1.6712  1.3341
  853MOL0     H15118  -0.751   9.321   4.638 -0.3956 -1.5631 -2.7612
  853MOL0     H15119  -0.813   9.145   5.046  2.1416 -3.3594  0.0973
  853MOL0     H15120  -0.812   8.975   5.251 -0.3206  0.6679  1.1166
  853MOL0     H15121  -0.738   9.127   5.670 -1.9391  0.8134  3.0380
  853MOL0     H15122  -0.907   9.096   5.632  0.2286 -0.5342  4.9395
  853MOL0     H15123  -0.786   8.839   5.640 -0.3907 -0.3453 -0.4622
  853MOL0     H15124  -0.700   8.936   5.766 -1.2719  2.0019  1.2803
  853MOL0     H15125  -0.929   8.992   5.864  0.0129  0.3442 -0.6859
  853MOL0     H15126  -0.891   8.815   5.850 -0.0288 -0.6154  0.5319
  853MOL0     H15127  -1.072   8.975   5.672  0.0172 -0.9506 -1.2705
  853MOL0     H15128  -1.018   8.804   5.643  0.7201  1.9216 -2.2822
  853MOL0     H15129  -1.166   8.894   5.887  2.4304  0.5072 -0.4853
  853MOL0     H15130  -1.130   8.731   5.856 -0.6062 -1.2571 -0.0867
  853MOL0     H15131  -1.303   8.896   5.665  0.4281  1.7306  2.2005
  853MOL0     H15132  -1.251   8.726   5.641 -1.9711 -1.8226  0.3971
  853MOL0     H15133  -1.408   8.807   5.885 -0.1640 -0.5265  0.9755
  853MOL0     H15134  -1.366   8.648   5.838  0.6560  1.1005 -0.1508
  853MOL0     H15135  -1.600   8.683   5.739  1.1134 -1.4243  1.6124
  853MOL0     H15136  -1.485   8.718   5.609 -1.6457 -2.7187  1.0267
  853MOL0     H15137  -0.687   9.256   5.517  0.0161 -5.1673  1.3110
  853MOL0     H15138  -0.627   9.419   5.316 -2.0367  1.9029 -1.8319
  853MOL0     H15139  -0.605   9.601   5.011 -2.2776 -0.3994 -1.4834
  853MOL0     H15140  -0.473   9.792   4.881  0.0510  0.5994 -1.1932
  853MOL0     H15141  -0.025  11.468   4.902 -1.1826  0.2769 -2.8063
  853MOL0     H15142   0.209  11.494   4.859  0.2096 -0.6971 -0.5640
  853MOL0     H15143   0.612  11.276   4.698 -0.1092  0.7552 -0.3627
  853MOL0     H15144   0.874  11.246   4.680 -0.7723 -3.8983  2.0358
  853MOL0     H15145   1.222  11.257   4.812 -1.6333 -0.0445  1.7929
  853MOL0     H15146   1.084  11.174   4.730  0.7416  0.6588 -2.9637
  853MOL0     H15147   1.175  11.458   4.677  2.3381 -1.9837 -0.8480
  853MOL0     H15148   1.054  11.373   4.583 -0.6892 -1.1255  0.5507
  853MOL0     H15149   1.331  11.251   4.601  1.7840 -0.6552 -2.5323
  853MOL0     H15150   1.307  11.407   4.528  0.2065  1.1747  3.0638
  853MOL0     H15151   1.110  11.298   4.409  0.6438  1.0255 -1.1535
  853MOL0     H15152   1.183  11.150   4.457 -1.1445  0.7511 -1.2411
  853MOL0     H15153   1.435  11.250   4.143  0.8732  1.7098  2.0028
  853MOL0     H15154   0.916  11.471   5.025  1.3546 -0.4695 -0.3794
  853MOL0     H15155   0.690  11.484   5.069 -0.5785  0.2482 -0.0959
  854MOL0     O15156   6.589   6.268   7.778 -0.4522 -0.5418 -0.1235
  854MOL0     C15157   6.560   6.389   7.796  0.3662 -0.4260  0.0274
  854MOL0     O15158   6.616   6.473   7.884  0.6070 -0.7875 -0.0258
  854MOL0     C15159   6.722   6.442   7.968  1.2934  0.5165  0.2607
  854MOL0     C15160   6.848   6.400   7.920 -0.2765  1.2050  0.3028
  854MOL0     C15161   6.949   6.362   8.004  0.0924 -0.2356  0.2669
  854MOL0     C15162   6.940   6.370   8.144  1.3995 -0.6080  0.9372
  854MOL0     O15163   7.037   6.319   8.220 -0.7392  0.2522 -0.4593
  854MOL0     C15164   7.029   6.322   8.356 -0.1340 -0.7475 -0.6001
  854MOL0     C15165   7.157   6.264   8.405 -0.2035  0.4593 -0.6623
  854MOL0     C15166   7.249   6.382   8.429  0.0736  0.7867  0.1717
  854MOL0     C15167   7.396   6.338   8.481  0.7896  0.5996  0.3377
  854MOL0     C15168   7.490   6.455   8.504 -0.8804  0.5254  0.2261
  854MOL0     C15169   7.451   6.539   8.629  0.6702 -0.4183 -0.2577
  854MOL0     C15170   7.550   6.650   8.674 -0.2187  0.3387  0.7575
  854MOL0     C15171   7.504   6.750   8.776  0.5803  0.3571 -0.1478
  854MOL0     N15172   7.490   6.694   8.916 -0.5394 -0.4215  0.4542
  854MOL0     C15173   7.378   6.693   8.992  0.7836  0.9545 -0.3487
  854MOL0     C15174   7.429   6.669   9.115 -0.1292  0.3178 -0.8879
  854MOL0     C15175   7.349   6.669   9.244 -0.7694 -0.3466 -0.8100
  854MOL0     C15176   7.417   6.786   9.328  0.2730  0.3422  0.6818
  854MOL0     C15177   7.317   6.839   9.426  1.0805 -0.7381 -0.2154
  854MOL0     C15178   7.331   6.773   9.558  1.1544 -0.2998 -0.6392
  854MOL0     O15179   7.292   6.635   9.547  0.3378 -0.3721 -0.4078
  854MOL0     C15180   7.350   6.547   9.636  0.3621 -0.9691  0.5516
  854MOL0     C15181   7.428   6.571   9.753  0.6174  0.2235  0.0193
  854MOL0     C15182   7.486   6.473   9.831 -0.7766 -0.0023  0.7655
  854MOL0     C15183   7.582   6.528   9.935  0.4091  0.3403 -0.1067
  854MOL0     C15184   7.454   6.340   9.806  0.2148 -0.7541 -0.5977
  854MOL0     C15185   7.499   6.229   9.894 -0.6040  0.2115 -0.4723
  854MOL0     O15186   7.502   6.105   9.832  0.1760 -0.5699  0.3982
  854MOL0     C15187   7.502   6.004   9.924  0.8554  0.3106 -0.4811
  854MOL0     C15188   7.620   5.950   9.963  0.4394 -0.4450 -0.0469
  854MOL0     C15189   7.630   5.841  10.045  0.3094  0.7370 -0.8211
  854MOL0     C15190   7.517   5.797  10.118 -0.5893  0.3941  0.5058
  854MOL0     O15191   7.516   5.686  10.195  0.0793  0.1172  0.2813
  854MOL0     C15192   7.444   5.578  10.132  0.4130  0.8415  0.0124
  854MOL0     C15193   7.480   5.436  10.176  0.4666  0.3737 -0.1993
  854MOL0     C15194   7.626   5.412  10.208  0.0055  0.4383 -0.1532
  854MOL0     C15195   7.660   5.273  10.227  0.6173 -0.2121 -1.1196
  854MOL0     C15196   7.705   5.202  10.100  0.1121 -0.1123  0.3164
  854MOL0     C15197   7.708   5.058  10.088  0.4476  0.9086 -0.3377
  854MOL0     C15198   7.805   5.010  10.210  0.6199 -0.3898 -0.0304
  854MOL0     C15199   7.827   4.856  10.209  0.2868 -0.9694 -0.2348
  854MOL0    Cl15200   7.922   4.798  10.076 -0.3519 -0.0117 -0.1822
  854MOL0     C15201   7.392   5.869  10.096  0.2066  1.1451  0.3122
  854MOL0     C15202   7.383   5.955   9.993  0.1134 -0.2306  0.7876
  854MOL0     O15203   7.513   6.253  10.016  0.1278 -0.0846  0.4131
  854MOL0     C15204   7.377   6.313   9.696 -0.0463  0.0303  0.5173
  854MOL0     C15205   7.324   6.414   9.610 -0.2478  0.1241 -0.5677
  854MOL0     N15206   7.560   6.631   9.114  0.2877 -0.1903 -0.1333
  854MOL0     N15207   7.597   6.642   8.987 -0.2786 -0.5073 -0.6863
  854MOL0     C15208   6.819   6.422   8.195  0.5460  0.0151  0.1887
  854MOL0     C15209   6.718   6.462   8.109 -0.4088  0.2876  0.5787
  854MOL0     C15210   6.456   6.449   7.702  0.3080 -0.9879 -0.7739
  854MOL0     C15211   6.444   6.592   7.698 -0.3670  0.0711  0.2448
  854MOL0     C15212   6.383   6.648   7.588 -1.0776 -0.5223  0.2047
  854MOL0     C15213   6.324   6.561   7.492  0.3666 -0.1662 -0.8991
  854MOL0     O15214   6.245   6.630   7.400  0.6167  0.1473 -0.1819
  854MOL0     C15215   6.189   6.566   7.283  0.3532  0.2907 -0.3706
  854MOL0     C15216   6.283   6.502   7.180  0.8851  0.5866 -0.2709
  854MOL0     C15217   6.391   6.606   7.153 -0.5750  0.1461 -1.2643
  854MOL0     C15218   6.525   6.568   7.192 -0.8006  0.3052  0.4811
  854MOL0     C15219   6.584   6.469   7.110 -1.0634  0.3705  0.8859
  854MOL0     C15220   6.606   6.375   7.029 -0.4074 -0.4084  0.1608
  854MOL0     C15221   6.330   6.424   7.497 -0.6487 -0.1931 -0.3621
  854MOL0     C15222   6.409   6.367   7.600  1.2264  0.1932  1.5287
  854MOL0     H15223   6.864   6.373   7.816 -0.3297 -0.8893  0.7879
  854MOL0     H15224   7.044   6.315   7.978 -0.5185 -0.6459 -1.3686
  854MOL0     H15225   6.991   6.414   8.402 -0.2549 -1.6858  1.2560
  854MOL0     H15226   6.955   6.248   8.386  0.5395 -1.4411 -0.6166
  854MOL0     H15227   7.136   6.199   8.490  0.7662  0.8534 -0.1054
  854MOL0     H15228   7.202   6.213   8.319 -4.0209  2.6695 -4.3562
  854MOL0     H15229   7.262   6.447   8.343  0.3309  2.7543  1.6395
  854MOL0     H15230   7.202   6.434   8.514  1.2092  1.3543  0.4660
  854MOL0     H15231   7.393   6.283   8.576  0.6830 -0.9217 -0.5027
  854MOL0     H15232   7.440   6.274   8.404 -0.9865 -1.5964  1.0105
  854MOL0     H15233   7.588   6.414   8.530 -1.2620 -0.9659 -0.6090
  854MOL0     H15234   7.493   6.532   8.426 -2.3279  1.4187  1.0026
  854MOL0     H15235   7.355   6.590   8.612  0.5402  0.3890  2.4291
  854MOL0     H15236   7.444   6.478   8.720 -0.4993 -0.8158 -0.6019
  854MOL0     H15237   7.635   6.603   8.724  1.7375  1.6837 -1.1208
  854MOL0     H15238   7.582   6.709   8.588  0.6505 -1.1018  0.0365
  854MOL0     H15239   7.411   6.805   8.758 -2.0808 -4.4675 -3.4573
  854MOL0     H15240   7.583   6.825   8.774 -2.3346  3.6741 -0.4150
  854MOL0     H15241   7.276   6.708   8.958  0.7758  0.6460 -0.4700
  854MOL0     H15242   7.244   6.679   9.213 -0.7273  5.0661 -0.1515
  854MOL0     H15243   7.378   6.573   9.287  3.5364  1.6557  1.3880
  854MOL0     H15244   7.445   6.863   9.256 -3.7441  1.6386  0.3160
  854MOL0     H15245   7.497   6.739   9.386 -0.4458 -2.2857 -0.3249
  854MOL0     H15246   7.221   6.837   9.374  2.0257  0.2491 -2.1110
  854MOL0     H15247   7.343   6.941   9.458  0.5199 -0.4422 -0.6772
  854MOL0     H15248   7.275   6.833   9.631  1.0717  0.4143 -1.2824
  854MOL0     H15249   7.436   6.778   9.589  1.1406 -5.6488  1.3871
  854MOL0     H15250   7.437   6.673   9.789 -0.3062  0.3922 -0.2004
  854MOL0     H15251   7.520   6.551  10.022 -0.6734  1.4143 -1.1362
  854MOL0     H15252   7.670   6.469   9.965  2.5676  3.6553  0.6663
  854MOL0     H15253   7.628   6.624   9.913 -0.8952  2.2610  4.3628
  854MOL0     H15254   7.714   5.994   9.930  0.9200  1.1213  3.0582
  854MOL0     H15255   7.729   5.798  10.046  1.4077  3.0893  0.5852
  854MOL0     H15256   7.337   5.597  10.139 -0.0545 -1.4975  0.2705
  854MOL0     H15257   7.469   5.580  10.025  0.8937 -3.3205 -0.1256
  854MOL0     H15258   7.417   5.403  10.259  1.0437 -1.4567 -0.4310
  854MOL0     H15259   7.445   5.374  10.092 -0.0616  1.4029 -0.7517
  854MOL0     H15260   7.658   5.460  10.302 -0.4653  2.6979 -1.0965
  854MOL0     H15261   7.689   5.461  10.134  0.8329 -0.1516  0.1413
  854MOL0     H15262   7.739   5.265  10.302 -0.4009  0.5028  0.0526
  854MOL0     H15263   7.568   5.221  10.256  2.3216 -3.9470 -1.8327
  854MOL0     H15264   7.801   5.243  10.066 -1.9546  3.3752 -2.0558
  854MOL0     H15265   7.638   5.226  10.016  2.1535 -0.6478 -1.5402
  854MOL0     H15266   7.608   5.017  10.103  1.6352 -2.2078 -0.3269
  854MOL0     H15267   7.750   5.022   9.994 -0.7440  2.4796 -1.5402
  854MOL0     H15268   7.749   5.041  10.299 -0.8565  0.5531 -1.2495
  854MOL0     H15269   7.899   5.065  10.201  0.4021  1.0625  4.1696
  854MOL0     H15270   7.728   4.810  10.197 -0.1849  0.6069 -4.0015
  854MOL0     H15271   7.872   4.822  10.302  1.0366 -0.9359 -0.5792
  854MOL0     H15272   7.295   5.834  10.130  0.5326 -3.1274 -2.4491
  854MOL0     H15273   7.285   5.992   9.965  1.7739  3.9175 -0.4009
  854MOL0     H15274   7.351   6.210   9.673  0.5319 -0.0048 -0.0049
  854MOL0     H15275   7.252   6.379   9.537 -2.2477 -1.2124  1.8848
  854MOL0     H15276   6.809   6.442   8.301 -0.2614  2.8528 -0.3445
  854MOL0     H15277   6.627   6.489   8.161 -0.5075  0.4411  0.3281
  854MOL0     H15278   6.483   6.648   7.783 -0.7914 -0.1352  0.5792
  854MOL0     H15279   6.357   6.753   7.576  0.9147  0.3620  2.6560
  854MOL0     H15280   6.116   6.499   7.329 -0.7607  2.7316  1.6856
  854MOL0     H15281   6.132   6.641   7.227  0.7823  1.5786  0.8369
  854MOL0     H15282   6.237   6.479   7.083  0.8473 -1.2419  0.1323
  854MOL0     H15283   6.328   6.407   7.212 -2.0303 -1.2695 -1.3105
  854MOL0     H15284   6.371   6.701   7.202 -0.6249  0.2000 -1.3876
  854MOL0     H15285   6.386   6.624   7.045 -3.2910 -3.6554 -1.9675
  854MOL0     H15286   6.526   6.537   7.297 -0.5144 -1.5397 -0.0356
  854MOL0     H15287   6.581   6.661   7.181  1.7007 -1.0259  1.1964
  854MOL0     H15288   6.633   6.290   6.970  0.5444  0.2610 -0.4048
  854MOL0     H15289   6.279   6.351   7.435 -1.9376  0.3971 -0.0330
  854MOL0     H15290   6.406   6.259   7.615 -3.7833 -0.5873 -2.4271
  855MOL0     O15291  10.077   0.049   4.864  0.9402 -0.5879 -0.3584
  855MOL0     C15292  10.182  -0.000   4.836  0.7311 -0.6552  0.5488
  855MOL0     O15293  10.205  -0.127   4.793  0.1098  0.4580 -0.2724
  855MOL0     C15294  10.126  -0.236   4.803  0.0954 -0.2291  0.5821
  855MOL0     C15295   9.995  -0.233   4.855  0.9375 -0.4821 -0.5342
  855MOL0     C15296   9.931  -0.360   4.886 -0.1138  0.2806 -0.1530
  855MOL0     C15297   9.987  -0.487   4.859  0.1362 -0.9174  0.3309
  855MOL0     O15298   9.952  -0.617   4.885  0.2270  0.3199 -0.5687
  855MOL0     C15299   9.873  -0.640   5.000  0.3806 -0.5107  0.8625
  855MOL0     C15300   9.725  -0.617   4.983  1.0782  0.1393 -0.8347
  855MOL0     C15301   9.645  -0.727   5.064  0.7695 -0.0542  0.8727
  855MOL0     C15302   9.498  -0.740   5.015 -0.9651  0.2827  0.2365
  855MOL0     C15303   9.410  -0.810   5.116 -0.1657 -0.1486 -0.6507
  855MOL0     C15304   9.359  -0.693   5.216  1.0742 -0.4702 -0.7521
  855MOL0     C15305   9.241  -0.734   5.312 -0.2064 -0.5211  0.1847
  855MOL0     C15306   9.178  -0.617   5.386  0.5128  0.2827  0.1631
  855MOL0     N15307   9.267  -0.538   5.480 -0.3946  0.7236 -0.2370
  855MOL0     C15308   9.388  -0.587   5.528  0.3483 -0.1203 -0.5577
  855MOL0     C15309   9.437  -0.471   5.589  0.3279 -1.3895  0.2147
  855MOL0     C15310   9.572  -0.454   5.642 -0.5973 -0.1074 -0.1704
  855MOL0     C15311   9.683  -0.452   5.530  0.4947 -0.2076 -0.1306
  855MOL0     C15312   9.661  -0.330   5.426 -0.3895 -0.2266  0.5340
  855MOL0     C15313   9.713  -0.373   5.290 -0.3584  0.6772  0.6217
  855MOL0     O15314   9.657  -0.283   5.181 -0.0971  0.4867 -0.8065
  855MOL0     C15315   9.710  -0.159   5.150 -0.0899 -0.5002 -0.0114
  855MOL0     C15316   9.612  -0.070   5.103  0.7579  0.0472 -0.2340
  855MOL0     C15317   9.643   0.062   5.065  0.3257 -0.5061 -0.1335
  855MOL0     C15318   9.523   0.147   5.017  0.4959 -0.4447 -0.2514
  855MOL0     C15319   9.776   0.114   5.066  0.0598  0.2210 -0.2301
  855MOL0     C15320   9.817   0.254   5.033 -1.0946  0.2053  0.0683
  855MOL0     O15321   9.951   0.267   5.037 -0.1720 -0.2581 -0.6560
  855MOL0     C15322  10.019   0.376   4.996 -0.8471 -0.4405  0.2551
  855MOL0     C15323  10.028   0.483   5.090  0.5221  0.9462  0.3908
  855MOL0     C15324  10.101   0.599   5.067  0.9466  1.2191  0.8397
  855MOL0     C15325  10.172   0.608   4.947  0.3134 -1.0815 -0.6768
  855MOL0     O15326  10.244   0.725   4.911 -0.4114 -0.2139 -0.2626
  855MOL0     C15327  10.245   0.838   5.000 -0.6440 -0.2296 -0.5656
  855MOL0     C15328  10.341   0.932   4.942  0.3527  0.0128 -0.4469
  855MOL0     C15329  10.359   1.061   5.021 -0.8252  0.6812  0.7568
  855MOL0     C15330  10.468   1.143   4.961  0.2446 -0.8292 -0.5693
  855MOL0     C15331  10.467   1.291   5.015  0.2607 -0.3931 -0.0714
  855MOL0     C15332  10.586   1.364   4.959 -0.3034  0.0211 -0.3899
  855MOL0     C15333  10.590   1.516   4.967  0.5216 -0.1325  0.0636
  855MOL0     C15334  10.583   1.569   5.116  0.1886 -0.1685  0.2824
  855MOL0    Cl15335  10.590   1.745   5.092 -0.3381  0.0161  0.2409
  855MOL0     C15336  10.170   0.512   4.852  0.2510  0.1872  1.4586
  855MOL0     C15337  10.099   0.391   4.879  0.3884  0.1949  0.2653
  855MOL0     O15338   9.743   0.338   4.988  0.2618  0.2020  0.3370
  855MOL0     C15339   9.873   0.019   5.118 -0.1431 -0.9582  0.5787
  855MOL0     C15340   9.845  -0.114   5.154  0.0597 -0.0616 -0.6803
  855MOL0     N15341   9.351  -0.370   5.579  1.1978  0.2918 -0.7120
  855MOL0     N15342   9.245  -0.411   5.510  0.4753 -0.6448 -1.1019
  855MOL0     C15343  10.110  -0.480   4.789  0.2411 -0.3405 -0.1429
  855MOL0     C15344  10.178  -0.357   4.762  0.7502 -0.0184  0.6212
  855MOL0     C15345  10.299   0.078   4.862 -0.4024  0.2740 -0.0693
  855MOL0     C15346  10.317   0.149   4.985 -0.5197  0.3185 -0.1769
  855MOL0     C15347  10.400   0.249   5.004 -0.2716 -0.5907 -0.1354
  855MOL0     C15348  10.487   0.284   4.902 -0.2611 -0.2310 -0.1803
  855MOL0     O15349  10.582   0.391   4.920 -0.0530  0.1056 -0.1427
  855MOL0     C15350  10.545   0.493   5.015 -0.2720  0.5656 -1.0923
  855MOL0     C15351  10.619   0.629   4.987  0.0003 -0.2230 -0.2919
  855MOL0     C15352  10.624   0.664   4.829  0.2426  1.1835  0.4785
  855MOL0     C15353  10.701   0.795   4.797 -0.0426 -0.3329  0.2367
  855MOL0     C15354  10.833   0.798   4.862  0.0055  0.6414  0.3675
  855MOL0     C15355  10.947   0.806   4.891  0.0057  0.2487  0.1232
  855MOL0     C15356  10.487   0.211   4.783  0.5591  0.0017  0.5234
  855MOL0     C15357  10.387   0.113   4.758 -0.7538 -0.4783  0.0261
  855MOL0     H15358   9.954  -0.134   4.866  0.9162 -0.7239  2.4732
  855MOL0     H15359   9.848  -0.361   4.956  1.2254  1.8858  1.5627
  855MOL0     H15360   9.890  -0.747   5.018  1.3016 -0.4454  0.4734
  855MOL0     H15361   9.917  -0.585   5.084 -0.0084 -0.2133  0.8756
  855MOL0     H15362   9.682  -0.522   5.016 -0.8945 -1.6191  2.1109
  855MOL0     H15363   9.699  -0.622   4.877 -1.5447 -0.1530 -0.2312
  855MOL0     H15364   9.697  -0.823   5.056 -0.5651 -0.7078 -0.4573
  855MOL0     H15365   9.646  -0.693   5.168 -3.3636  0.0209  1.0565
  855MOL0     H15366   9.458  -0.646   4.977  0.2929  1.3886  1.5536
  855MOL0     H15367   9.506  -0.797   4.922 -1.9169  1.7952 -0.8243
  855MOL0     H15368   9.334  -0.865   5.061  1.1870 -2.8133 -0.0158
  855MOL0     H15369   9.466  -0.884   5.173  1.7177  3.0603  2.0196
  855MOL0     H15370   9.447  -0.668   5.277  0.4143  0.1034 -0.0109
  855MOL0     H15371   9.322  -0.603   5.166 -1.5112 -2.0107 -1.8119
  855MOL0     H15372   9.172  -0.794   5.252  0.7384 -1.4286 -0.0297
  855MOL0     H15373   9.285  -0.801   5.387  3.0517  1.5243  0.3204
  855MOL0     H15374   9.102  -0.662   5.450  0.2057  2.4717  1.4342
  855MOL0     H15375   9.128  -0.554   5.312  1.3262  0.5467 -0.1730
  855MOL0     H15376   9.441  -0.680   5.512 -2.2495 -1.6503 -0.8413
  855MOL0     H15377   9.564  -0.367   5.707 -1.3889 -2.0375  2.5310
  855MOL0     H15378   9.604  -0.537   5.705 -0.4548  0.7924  0.9670
  855MOL0     H15379   9.673  -0.550   5.483 -2.1333 -0.4320  0.7441
  855MOL0     H15380   9.783  -0.452   5.576  0.1763  1.7075  0.6844
  855MOL0     H15381   9.727  -0.245   5.444 -0.8474  1.1728 -3.4581
  855MOL0     H15382   9.556  -0.299   5.419 -0.0980  0.7064  0.1239
  855MOL0     H15383   9.684  -0.477   5.272  1.5835 -0.2959  2.6564
  855MOL0     H15384   9.821  -0.377   5.279 -0.4202  1.9516 -0.8084
  855MOL0     H15385   9.512  -0.110   5.092  2.2395 -4.3649  0.3521
  855MOL0     H15386   9.539   0.201   4.923 -1.8770  3.7565  1.4605
  855MOL0     H15387   9.428   0.095   4.998 -2.0660  3.3736  0.8251
  855MOL0     H15388   9.490   0.220   5.092 -0.7416 -3.5040  2.4371
  855MOL0     H15389  10.002   0.462   5.194  0.7540 -4.5247 -0.3675
  855MOL0     H15390  10.079   0.658   5.156 -0.8748  0.6383  0.8277
  855MOL0     H15391  10.145   0.883   5.002 -1.2008 -1.4426 -0.1382
  855MOL0     H15392  10.288   0.798   5.092  2.1180  1.7083 -0.8949
  855MOL0     H15393  10.439   0.885   4.951 -0.0202 -0.3967  1.9429
  855MOL0     H15394  10.306   0.956   4.841  2.2590  1.5154 -0.8115
  855MOL0     H15395  10.389   1.053   5.126  3.2831  3.4166 -0.0281
  855MOL0     H15396  10.267   1.120   5.013 -1.8817 -1.1032 -1.2408
  855MOL0     H15397  10.563   1.094   4.985 -0.0570 -1.8162 -1.3233
  855MOL0     H15398  10.458   1.156   4.852 -0.4471  1.6897 -0.2816
  855MOL0     H15399  10.485   1.286   5.123 -1.0918 -3.3037  0.1222
  855MOL0     H15400  10.374   1.347   5.001  1.0575  0.7538 -1.0602
  855MOL0     H15401  10.679   1.328   5.004  0.0468 -0.0830 -1.1806
  855MOL0     H15402  10.601   1.340   4.853  0.9862  0.1992 -0.2604
  855MOL0     H15403  10.509   1.560   4.908  1.0613 -0.7457 -1.1639
  855MOL0     H15404  10.686   1.549   4.926  2.8917  1.2480  5.7588
  855MOL0     H15405  10.669   1.541   5.178  0.1291  1.1112  0.9903
  855MOL0     H15406  10.491   1.530   5.160 -0.0169 -2.4569 -1.9910
  855MOL0     H15407  10.224   0.513   4.758 -1.9400 -1.5471  0.0981
  855MOL0     H15408  10.116   0.309   4.810 -0.4986 -0.8734  1.2892
  855MOL0     H15409   9.980   0.040   5.124 -0.4023  0.7919 -0.4541
  855MOL0     H15410   9.918  -0.184   5.193  2.2949  0.9601 -2.7557
  855MOL0     H15411  10.167  -0.567   4.759 -0.4207  0.2090 -3.2824
  855MOL0     H15412  10.278  -0.352   4.720  0.5814 -1.3138  0.0133
  855MOL0     H15413  10.252   0.114   5.064  1.6484  0.5644  1.8099
  855MOL0     H15414  10.414   0.301   5.098  2.0809 -1.5562  0.1154
  855MOL0     H15415  10.438   0.517   5.014  0.3662  3.9341 -0.2348
  855MOL0     H15416  10.569   0.457   5.115  5.0324  2.8951 -1.1958
  855MOL0     H15417  10.715   0.634   5.038 -1.2321  0.7563  2.1190
  855MOL0     H15418  10.571   0.715   5.037  1.1358 -0.9343  2.1890
  855MOL0     H15419  10.521   0.668   4.793 -0.5196 -3.0148  1.5534
  855MOL0     H15420  10.677   0.585   4.776 -0.1983  1.6064 -0.6121
  855MOL0     H15421  10.642   0.883   4.823  0.3982 -0.2880  1.0985
  855MOL0     H15422  10.710   0.809   4.689  0.4536 -0.8788  0.2022
  855MOL0     H15423  11.047   0.800   4.930 -0.9419  0.5526  2.8615
  855MOL0     H15424  10.565   0.225   4.708  2.8252 -3.1003  2.0782
  855MOL0     H15425  10.384   0.058   4.664 -1.5457 -2.0705  0.9438
  856MOL0     O15426   9.753   3.666  10.744  0.2972 -0.0366 -0.3497
  856MOL0     C15427   9.788   3.685  10.623 -0.6925 -0.8626  0.3243
  856MOL0     O15428   9.913   3.725  10.578 -0.1894 -0.0231  0.8831
  856MOL0     C15429  10.014   3.768  10.666 -0.5711  0.2667 -0.0062
  856MOL0     C15430  10.041   3.908  10.673 -0.7793  1.2350  0.5171
  856MOL0     C15431  10.152   3.949  10.755 -0.0328  1.0690  0.2728
  856MOL0     C15432  10.215   3.857  10.844 -0.2024 -0.1720 -0.2526
  856MOL0     O15433  10.316   3.896  10.919  0.2166 -0.4011 -0.2877
  856MOL0     C15434  10.297   4.020  10.990  0.0805  0.6230  1.7160
  856MOL0     C15435  10.434   4.055  11.053 -0.2988 -0.1877 -0.1996
  856MOL0     C15436  10.444   4.158  11.162 -0.9251 -0.7297  1.3279
  856MOL0     C15437  10.544   4.109  11.267  0.2476 -0.5278  0.0933
  856MOL0     C15438  10.527   4.206  11.387  0.2529 -0.5288 -1.3114
  856MOL0     C15439  10.608   4.175  11.515  1.4357  0.2680 -0.1561
  856MOL0     C15440  10.735   4.251  11.516  0.1297  0.2705  0.3107
  856MOL0     C15441  10.831   4.209  11.632 -0.7696  0.3524  0.2388
  856MOL0     N15442  10.792   4.252  11.766  0.2047  0.3095  0.1668
  856MOL0     C15443  10.866   4.338  11.850 -1.1050 -1.1480  0.0382
  856MOL0     C15444  10.816   4.316  11.968 -0.7835 -0.5298 -0.3302
  856MOL0     C15445  10.823   4.400  12.096 -0.6789  0.7007  0.1556
  856MOL0     C15446  10.698   4.489  12.094 -0.5174 -1.2483 -0.4940
  856MOL0     C15447  10.698   4.607  12.203 -0.0799  0.1346  0.2011
  856MOL0     C15448  10.615   4.583  12.331 -0.3575 -0.4183  1.0813
  856MOL0     O15449  10.649   4.462  12.399 -0.2025 -0.5536 -0.1323
  856MOL0     C15450  10.550   4.383  12.452 -0.0989 -0.4710  0.2065
  856MOL0     C15451  10.417   4.422  12.475  0.2186 -0.1442 -0.3199
  856MOL0     C15452  10.316   4.334  12.527 -0.3505  0.5721 -0.0369
  856MOL0     C15453  10.169   4.376  12.499  0.2074  0.1188  0.7012
  856MOL0     C15454  10.356   4.208  12.567 -0.0555  0.2373 -0.3625
  856MOL0     C15455  10.258   4.121  12.637  0.2684 -0.1366  0.2490
  856MOL0     O15456  10.306   4.006  12.674  0.0462  0.4651 -0.8338
  856MOL0     C15457  10.227   3.938  12.762 -0.2594  0.5861  0.2659
  856MOL0     C15458  10.145   3.834  12.713 -0.3850 -0.4733 -0.1617
  856MOL0     C15459  10.055   3.769  12.790  0.5059 -0.3990 -1.0253
  856MOL0     C15460  10.042   3.802  12.928 -0.5405  0.8465  1.3527
  856MOL0     O15461   9.976   3.728  13.029 -0.5114 -0.3104  0.6258
  856MOL0     C15462   9.931   3.594  12.994  0.6358  0.7509  0.2269
  856MOL0     C15463   9.825   3.558  13.089  0.7961 -0.3567 -0.1916
  856MOL0     C15464   9.692   3.641  13.044  0.5286 -0.4045 -0.3477
  856MOL0     C15465   9.574   3.614  13.151  0.0808  0.1088  0.7386
  856MOL0     C15466   9.480   3.510  13.088  0.2141  0.3082  0.1524
  856MOL0     C15467   9.347   3.488  13.172  0.0471 -0.5310  1.2486
  856MOL0     C15468   9.255   3.610  13.175 -0.1073 -0.2925  0.0818
  856MOL0     C15469   9.181   3.608  13.312 -0.1610  0.2408 -0.2470
  856MOL0    Cl15470   9.285   3.657  13.445 -0.1043 -0.0048  0.1444
  856MOL0     C15471  10.131   3.911  12.973 -0.3016  0.5751  0.1654
  856MOL0     C15472  10.221   3.979  12.897  0.6774  0.3936  0.0708
  856MOL0     O15473  10.146   4.163  12.677 -0.4354 -0.4294  0.1076
  856MOL0     C15474  10.483   4.164  12.531 -0.2889 -0.3254 -0.1303
  856MOL0     C15475  10.584   4.250  12.481  0.5523 -0.3839 -0.2697
  856MOL0     N15476  10.731   4.206  11.965 -0.2158  0.6930  0.2621
  856MOL0     N15477  10.707   4.177  11.844 -0.7874  1.0491 -0.0439
  856MOL0     C15478  10.182   3.718  10.834 -0.1237 -0.5034 -0.2421
  856MOL0     C15479  10.086   3.676  10.748  0.9249  0.1330 -0.6445
  856MOL0     C15480   9.706   3.656  10.506 -0.2916 -0.3752 -0.0163
  856MOL0     C15481   9.758   3.645  10.376  0.7055 -0.8293 -0.1854
  856MOL0     C15482   9.668   3.618  10.273 -0.7780  0.0382  0.8525
  856MOL0     C15483   9.535   3.589  10.302  0.5220  0.1801 -0.1877
  856MOL0     O15484   9.441   3.580  10.195 -0.7530 -0.3039 -1.2849
  856MOL0     C15485   9.398   3.698  10.124 -0.3444  0.3433 -0.1683
  856MOL0     C15486   9.488   3.824  10.126  0.1527  0.3827  0.7449
  856MOL0     C15487   9.408   3.951  10.072  0.3274 -0.8538  0.6543
  856MOL0     C15488   9.508   4.071  10.041 -0.0643  0.4123  0.4020
  856MOL0     C15489   9.444   4.187   9.991  0.0927 -0.2943 -0.7965
  856MOL0     C15490   9.374   4.267   9.933 -0.5460 -0.2719  0.0201
  856MOL0     C15491   9.484   3.594  10.435 -0.6167 -0.7653  0.5205
  856MOL0     C15492   9.577   3.630  10.530  0.0935  1.1791  0.1197
  856MOL0     H15493   9.981   3.977  10.615 -0.9123 -0.5294 -1.6275
  856MOL0     H15494  10.173   4.055  10.756  3.8428  0.4739 -1.8122
  856MOL0     H15495  10.264   4.106  10.930 -1.7301  0.0182  1.7991
  856MOL0     H15496  10.228   4.016  11.074 -0.4361  3.0631  1.5027
  856MOL0     H15497  10.460   3.960  11.101  1.4736  1.3762  2.1939
  856MOL0     H15498  10.496   4.080  10.967 -1.9804 -1.3398 -1.8070
  856MOL0     H15499  10.489   4.251  11.123  2.4142 -2.7789 -0.1965
  856MOL0     H15500  10.353   4.186  11.216  0.0676 -1.9266  3.7754
  856MOL0     H15501  10.524   4.008  11.304 -2.2504 -0.7269 -1.5594
  856MOL0     H15502  10.641   4.113  11.217  0.2172  0.2600  0.0938
  856MOL0     H15503  10.542   4.312  11.362 -2.2841  0.0360 -0.7660
  856MOL0     H15504  10.420   4.197  11.411  0.5372 -2.9082 -0.7195
  856MOL0     H15505  10.550   4.206  11.603 -0.9201 -0.7488 -1.2603
  856MOL0     H15506  10.627   4.067  11.519  0.6397  0.1589  1.9807
  856MOL0     H15507  10.785   4.233  11.421 -1.9807 -0.4507 -0.7395
  856MOL0     H15508  10.714   4.358  11.519 -1.0334  0.0531  0.5209
  856MOL0     H15509  10.923   4.260  11.605 -0.7571  0.8549  1.1591
  856MOL0     H15510  10.841   4.100  11.629  0.5314  0.4812 -2.3025
  856MOL0     H15511  10.958   4.393  11.830 -0.4821 -1.7652  1.0610
  856MOL0     H15512  10.829   4.349  12.192 -1.8027  2.5971  1.2971
  856MOL0     H15513  10.914   4.460  12.087 -0.2802  0.3818  1.7866
  856MOL0     H15514  10.604   4.436  12.110 -1.3582  0.4371  0.5478
  856MOL0     H15515  10.694   4.533  11.994  2.3589  2.5953  0.8166
  856MOL0     H15516  10.649   4.695  12.160  0.5209  0.2530 -0.2517
  856MOL0     H15517  10.799   4.640  12.231  0.4254 -1.7221  0.6799
  856MOL0     H15518  10.510   4.595  12.301  0.3411  4.8347 -0.3257
  856MOL0     H15519  10.631   4.667  12.400  0.4374 -0.9757  1.5893
  856MOL0     H15520  10.375   4.519  12.454  1.7876  0.9107  1.1356
  856MOL0     H15521  10.117   4.416  12.587 -0.9441 -1.4865  0.8072
  856MOL0     H15522  10.166   4.446  12.416  2.6511  0.4681  0.8440
  856MOL0     H15523  10.111   4.288  12.468 -1.3254  0.8347  1.4118
  856MOL0     H15524  10.143   3.800  12.609  1.2584  1.1547 -0.7727
  856MOL0     H15525   9.999   3.689  12.742 -1.1546 -0.4539  0.8813
  856MOL0     H15526   9.878   3.598  12.898 -3.1962  3.2445  2.2195
  856MOL0     H15527  10.013   3.523  13.010 -0.8118 -1.2113 -0.5506
  856MOL0     H15528   9.798   3.454  13.069 -0.5948  0.2789 -1.9124
  856MOL0     H15529   9.859   3.571  13.192  0.2568 -1.0189  0.0750
  856MOL0     H15530   9.659   3.611  12.944  0.4901  4.4395 -2.0704
  856MOL0     H15531   9.717   3.748  13.043  0.0139 -0.2565 -2.6430
  856MOL0     H15532   9.621   3.586  13.246  3.4104  2.4836 -0.0071
  856MOL0     H15533   9.517   3.704  13.175 -0.0388  0.1147  0.4327
  856MOL0     H15534   9.532   3.415  13.076  1.8631  0.7713  2.6866
  856MOL0     H15535   9.448   3.546  12.990 -1.0747  2.5291  1.2822
  856MOL0     H15536   9.287   3.410  13.125 -0.5684  0.5257  0.2147
  856MOL0     H15537   9.361   3.450  13.273 -0.1441  0.7030  1.7592
  856MOL0     H15538   9.193   3.593  13.087  0.0402 -0.9197  0.0955
  856MOL0     H15539   9.291   3.713  13.166  2.6312 -1.2813 -1.6523
  856MOL0     H15540   9.141   3.509  13.337  0.0450  0.9480  3.4955
  856MOL0     H15541   9.096   3.676  13.318  0.0446  0.6480  6.9142
  856MOL0     H15542  10.126   3.926  13.081  0.7127 -0.3067  0.3493
  856MOL0     H15543  10.266   4.070  12.934 -0.6258  1.5850 -1.1326
  856MOL0     H15544  10.511   4.061  12.546  2.2381  0.2536 -0.3529
  856MOL0     H15545  10.687   4.220  12.468  0.7731  0.1974  0.1066
  856MOL0     H15546  10.241   3.649  10.893 -0.2955 -1.0595 -0.7164
  856MOL0     H15547  10.058   3.572  10.733  0.9966 -0.1586  1.0633
  856MOL0     H15548   9.863   3.669  10.364  1.1073 -2.5800 -0.3285
  856MOL0     H15549   9.688   3.635  10.168 -1.5460 -1.0663  0.5120
  856MOL0     H15550   9.393   3.688  10.015 -0.8677  2.9040 -0.4363
  856MOL0     H15551   9.301   3.726  10.166 -0.6611 -1.0296  0.0962
  856MOL0     H15552   9.581   3.812  10.070 -1.6940  0.9619 -2.7717
  856MOL0     H15553   9.523   3.856  10.224 -0.3544 -1.4942  1.5754
  856MOL0     H15554   9.319   3.976  10.130 -0.0533 -0.9463  0.1167
  856MOL0     H15555   9.371   3.928   9.972  0.0476  2.2859 -0.0717
  856MOL0     H15556   9.584   4.045   9.967  1.2529 -2.1603  2.4980
  856MOL0     H15557   9.557   4.105  10.132  0.3907  0.6401  0.0698
  856MOL0     H15558   9.324   4.357   9.903  1.6150  1.3679  1.0557
  856MOL0     H15559   9.392   3.545  10.464 -0.9151 -0.1931  0.5416
  856MOL0     H15560   9.540   3.606  10.630 -4.8511  1.8821 -1.2832
  857MOL0     O15561   5.382   5.216   3.915  0.9912 -0.3689  0.3279
  857MOL0     C15562   5.484   5.150   3.936  0.2615  0.6602  0.0462
  857MOL0     O15563   5.517   5.113   4.070 -0.8467 -0.3289  0.0769
  857MOL0     C15564   5.460   5.183   4.176  0.1513  0.5056 -0.3420
  857MOL0     C15565   5.550   5.194   4.292  0.1596 -0.4136 -0.9582
  857MOL0     C15566   5.507   5.250   4.413  0.1014  0.0634  1.1294
  857MOL0     C15567   5.375   5.294   4.430  0.6587 -0.9183  0.0754
  857MOL0     O15568   5.326   5.325   4.558 -0.1777  0.3756  0.8634
  857MOL0     C15569   5.200   5.381   4.588  0.7326 -0.1181  0.8838
  857MOL0     C15570   5.212   5.537   4.584  0.6252  0.2615 -0.6846
  857MOL0     C15571   5.072   5.594   4.631 -1.6730 -0.8773 -0.8221
  857MOL0     C15572   4.968   5.590   4.514  0.5022 -1.1930 -0.2424
  857MOL0     C15573   5.026   5.594   4.371  0.9324 -0.2208 -0.0588
  857MOL0     C15574   4.934   5.652   4.267 -0.3030  0.2623 -0.5765
  857MOL0     C15575   4.998   5.640   4.128 -0.3954  0.9362 -0.3356
  857MOL0     C15576   5.017   5.493   4.081  0.3927  0.0036  0.5533
  857MOL0     N15577   5.084   5.486   3.950 -0.0361 -0.1401  0.1052
  857MOL0     C15578   5.208   5.538   3.913  0.1354 -0.1583 -0.5789
  857MOL0     C15579   5.213   5.511   3.782 -0.1573 -0.6762  0.2410
  857MOL0     C15580   5.333   5.529   3.702  0.2429  0.7365  0.9437
  857MOL0     C15581   5.339   5.679   3.664 -1.0192 -0.0918  0.0332
  857MOL0     C15582   5.477   5.713   3.602 -0.2299  0.4495 -1.7153
  857MOL0     C15583   5.483   5.851   3.553 -0.0516 -0.3510  0.6235
  857MOL0     O15584   5.609   5.879   3.487 -0.2213  0.3888  0.9048
  857MOL0     C15585   5.603   5.962   3.377  0.3903 -0.0681 -0.1986
  857MOL0     C15586   5.556   6.089   3.384 -0.2870 -0.5971 -0.3869
  857MOL0     C15587   5.557   6.179   3.275 -0.4223  1.4081  0.2875
  857MOL0     C15588   5.485   6.310   3.289  0.2266  0.6690  0.5487
  857MOL0     C15589   5.633   6.148   3.158 -0.3854 -1.1296 -0.3313
  857MOL0     C15590   5.653   6.257   3.056  0.4080  0.0875  0.1276
  857MOL0     O15591   5.547   6.285   2.978  0.0138  0.0369 -0.1701
  857MOL0     C15592   5.569   6.348   2.863 -0.4648  0.3542  0.3040
  857MOL0     C15593   5.618   6.275   2.745  0.5117 -0.4193  0.2176
  857MOL0     C15594   5.617   6.334   2.615 -0.4207 -0.5367 -0.2602
  857MOL0     C15595   5.581   6.468   2.594  0.3156 -0.3683 -1.0072
  857MOL0     O15596   5.567   6.510   2.465  0.1311  0.4988  0.3467
  857MOL0     C15597   5.522   6.647   2.445 -0.8919 -0.2422 -0.1308
  857MOL0     C15598   5.388   6.660   2.396 -0.7338 -0.4786 -0.6332
  857MOL0     C15599   5.373   6.618   2.255  0.1305  0.5256 -0.2951
  857MOL0     C15600   5.253   6.684   2.193  0.7231  0.0370  0.4712
  857MOL0     C15601   5.254   6.697   2.043 -0.2795 -0.5678  1.6571
  857MOL0     C15602   5.200   6.575   1.972  0.9376 -0.1643 -0.3626
  857MOL0     C15603   5.218   6.564   1.814 -0.2597 -0.2529  0.1667
  857MOL0     C15604   5.148   6.445   1.774 -0.2730  0.1237 -0.1058
  857MOL0    Cl15605   5.232   6.374   1.644 -0.3067 -0.3834  0.4362
  857MOL0     C15606   5.548   6.539   2.713  0.1650 -0.0607  0.3631
  857MOL0     C15607   5.534   6.481   2.838 -0.4817 -0.8212  0.0635
  857MOL0     O15608   5.757   6.316   3.045 -0.3897 -0.7463  0.2913
  857MOL0     C15609   5.689   6.019   3.155  0.5747  0.1681  0.2476
  857MOL0     C15610   5.670   5.925   3.259 -0.0657 -0.4833  0.2165
  857MOL0     N15611   5.093   5.463   3.743 -0.0173  0.0913  0.1583
  857MOL0     N15612   5.024   5.439   3.843  0.7571 -0.0760 -0.0097
  857MOL0     C15613   5.295   5.296   4.314  1.0950  0.0629 -0.9627
  857MOL0     C15614   5.337   5.240   4.194 -0.0007 -0.9639 -0.3799
  857MOL0     C15615   5.579   5.096   3.823  0.6400  0.0277  0.3125
  857MOL0     C15616   5.708   5.085   3.851 -0.7646  0.4253  0.7855
  857MOL0     C15617   5.801   5.019   3.759  0.4796 -0.4840  0.0198
  857MOL0     C15618   5.744   4.959   3.647  1.0285  1.5086 -1.2486
  857MOL0     O15619   5.808   4.877   3.557 -0.1951 -0.0217  0.6140
  857MOL0     C15620   5.938   4.834   3.586  0.0555 -0.4231  0.2301
  857MOL0     C15621   6.052   4.935   3.571 -0.2730  0.8845  0.5377
  857MOL0     C15622   6.042   5.047   3.460  0.9424  0.4230 -0.5748
  857MOL0     C15623   6.179   5.112   3.439  0.1461 -0.0210  0.0867
  857MOL0     C15624   6.250   5.036   3.329  1.3420  0.3757 -0.7751
  857MOL0     C15625   6.316   4.957   3.259  0.0664 -0.7449  0.0616
  857MOL0     C15626   5.609   4.988   3.613  0.0885  1.1279  0.1006
  857MOL0     C15627   5.529   5.053   3.698 -0.7213 -0.1130 -0.2990
  857MOL0     H15628   5.653   5.164   4.277  1.9216  3.5474  1.4497
  857MOL0     H15629   5.575   5.240   4.497  1.8556 -0.2584 -0.2644
  857MOL0     H15630   5.120   5.343   4.524  0.9514  1.6497 -0.5198
  857MOL0     H15631   5.170   5.340   4.685  0.6585  1.0008  1.3510
  857MOL0     H15632   5.277   5.581   4.660 -0.0043  2.3957 -1.3013
  857MOL0     H15633   5.241   5.558   4.481 -3.6974  5.4370 -1.3140
  857MOL0     H15634   5.048   5.545   4.725  0.1515  2.8904  1.8691
  857MOL0     H15635   5.080   5.697   4.666  2.0976 -1.4517  0.4903
  857MOL0     H15636   4.890   5.514   4.507 -0.7111 -0.0114  0.0913
  857MOL0     H15637   4.916   5.685   4.529  2.1183 -0.4439  1.0255
  857MOL0     H15638   5.120   5.650   4.373 -1.5918  4.5478  1.2734
  857MOL0     H15639   5.040   5.488   4.352 -0.1091 -1.1348  3.4705
  857MOL0     H15640   4.833   5.610   4.264  0.7232 -2.3279 -1.0114
  857MOL0     H15641   4.926   5.758   4.295  1.8337  0.7817 -1.6674
  857MOL0     H15642   4.921   5.693   4.071 -1.1811  0.1588 -0.0253
  857MOL0     H15643   5.094   5.691   4.126  0.2274 -0.1993 -0.4517
  857MOL0     H15644   4.915   5.452   4.082  0.5755 -0.5608 -1.1316
  857MOL0     H15645   5.083   5.430   4.141  0.6643 -3.5858 -3.0290
  857MOL0     H15646   5.289   5.567   3.980  0.6839 -0.3330 -1.1584
  857MOL0     H15647   5.424   5.495   3.753  2.5320  0.9772 -2.6471
  857MOL0     H15648   5.330   5.469   3.610  0.6961  0.5809  1.0249
  857MOL0     H15649   5.322   5.753   3.743 -1.1333  1.0854 -1.0483
  857MOL0     H15650   5.260   5.693   3.589 -0.8558 -1.7205 -0.4719
  857MOL0     H15651   5.502   5.642   3.522  2.9087 -1.2783  0.5698
  857MOL0     H15652   5.544   5.706   3.687 -0.3702  1.5924 -1.4991
  857MOL0     H15653   5.460   5.922   3.633  0.5860  4.6906 -3.0937
  857MOL0     H15654   5.411   5.876   3.474  0.5045 -2.1617 -0.5037
  857MOL0     H15655   5.511   6.115   3.479  1.8381  2.8105 -0.1437
  857MOL0     H15656   5.563   6.381   3.320  0.3822  0.4368  0.6930
  857MOL0     H15657   5.433   6.335   3.196 -0.5211  0.9985  1.0442
  857MOL0     H15658   5.403   6.303   3.360 -1.9604  2.5943 -1.6110
  857MOL0     H15659   5.640   6.169   2.750 -0.1806 -0.5445  0.8578
  857MOL0     H15660   5.651   6.263   2.541  2.5480 -1.5686  1.9055
  857MOL0     H15661   5.524   6.716   2.530  1.1493 -0.6926  0.2576
  857MOL0     H15662   5.597   6.675   2.370  0.9023 -1.3782  1.1350
  857MOL0     H15663   5.322   6.592   2.450 -2.1187  0.7917 -0.6502
  857MOL0     H15664   5.361   6.761   2.428  1.2101 -0.0551 -0.2546
  857MOL0     H15665   5.365   6.510   2.242 -0.2625  0.8173 -3.2782
  857MOL0     H15666   5.464   6.646   2.201  2.0798 -0.5110  2.2236
  857MOL0     H15667   5.165   6.624   2.219  0.5765  0.5185  1.0941
  857MOL0     H15668   5.240   6.786   2.230 -0.2226 -0.6278  2.0777
  857MOL0     H15669   5.357   6.702   2.008 -0.3170 -2.0485  1.2786
  857MOL0     H15670   5.190   6.781   2.016  1.8776  1.0768  1.4426
  857MOL0     H15671   5.254   6.495   2.022 -2.0722 -1.5210  0.9806
  857MOL0     H15672   5.096   6.556   1.998  0.2691 -0.0969 -2.7020
  857MOL0     H15673   5.323   6.538   1.797 -0.8164 -2.0136 -0.8207
  857MOL0     H15674   5.197   6.644   1.744 -1.7917 -0.3832  0.4523
  857MOL0     H15675   5.044   6.469   1.746  0.0948  1.6902 -0.2510
  857MOL0     H15676   5.132   6.370   1.852  2.5521 -0.8646 -0.4056
  857MOL0     H15677   5.515   6.642   2.710  3.6377  1.1700 -1.1923
  857MOL0     H15678   5.508   6.547   2.920 -2.1193 -3.1904  1.5818
  857MOL0     H15679   5.745   5.983   3.070 -0.9922  0.0858 -0.8020
  857MOL0     H15680   5.705   5.823   3.264  1.1271 -0.2617 -2.1888
  857MOL0     H15681   5.196   5.341   4.313  1.6669  1.3836 -0.6197
  857MOL0     H15682   5.259   5.238   4.119 -0.6660 -0.8103  0.2888
  857MOL0     H15683   5.750   5.124   3.943 -0.8357 -1.2281  1.5583
  857MOL0     H15684   5.903   4.994   3.785 -0.6997 -5.7419  0.5812
  857MOL0     H15685   5.944   4.789   3.686  3.9644 -1.3771 -0.2587
  857MOL0     H15686   5.940   4.749   3.518  3.3795 -0.2312 -0.0645
  857MOL0     H15687   6.139   4.874   3.541 -0.2426  2.2663 -2.5467
  857MOL0     H15688   6.072   4.984   3.667  1.6153 -0.0932  0.7099
  857MOL0     H15689   5.966   5.123   3.481  0.9498 -0.2085  2.1588
  857MOL0     H15690   6.016   4.996   3.367 -3.3767  3.1725 -1.1890
  857MOL0     H15691   6.235   5.116   3.533  1.2245  2.6557 -0.5841
  857MOL0     H15692   6.153   5.217   3.428 -0.8546  0.1712  3.2032
  857MOL0     H15693   6.352   4.890   3.184 -1.0373  0.9498 -2.0926
  857MOL0     H15694   5.563   4.951   3.522  0.1976 -0.3945  0.6212
  857MOL0     H15695   5.426   5.076   3.673 -1.0449 -1.5535 -0.3722
  858MOL0     O15696   1.532   8.436  10.495 -0.2774 -0.3964  0.1836
  858MOL0     C15697   1.463   8.341  10.509  0.5134  0.5077  0.3351
  858MOL0     O15698   1.330   8.348  10.558 -0.1120  0.1127  0.7533
  858MOL0     C15699   1.253   8.451  10.540 -0.2919 -0.1910  0.0328
  858MOL0     C15700   1.271   8.565  10.459  0.1322  0.3926 -0.4563
  858MOL0     C15701   1.165   8.653  10.449  0.0880 -0.3050 -0.0187
  858MOL0     C15702   1.038   8.627  10.511  0.2577 -0.0222  0.6380
  858MOL0     O15703   0.955   8.733  10.492 -0.3004 -0.2729 -0.8879
  858MOL0     C15704   0.828   8.749  10.543  0.9360 -0.7131 -0.2180
  858MOL0     C15705   0.782   8.896  10.528  0.2549 -0.4700 -0.1414
  858MOL0     C15706   0.894   8.985  10.579 -0.1639  0.7669 -0.3594
  858MOL0     C15707   0.931   8.954  10.727  1.3006  0.3391 -0.0850
  858MOL0     C15708   1.061   9.013  10.761  0.3008 -0.9093  0.9735
  858MOL0     C15709   1.103   8.985  10.902 -0.2331  0.5889  0.0191
  858MOL0     C15710   1.200   9.091  10.957 -0.8628  0.3989  0.1622
  858MOL0     C15711   1.251   9.039  11.092  0.1086  0.1847 -0.1337
  858MOL0     N15712   1.364   9.117  11.128 -0.2932 -0.5329 -0.9133
  858MOL0     C15713   1.494   9.124  11.091 -0.3882  0.4829  0.5370
  858MOL0     C15714   1.548   9.237  11.154  0.4982 -0.3471 -1.3369
  858MOL0     C15715   1.685   9.283  11.158  0.0740 -1.2179  0.0004
  858MOL0     C15716   1.795   9.199  11.226  0.4296 -0.2342 -0.0652
  858MOL0     C15717   1.780   9.054  11.177 -0.4699 -1.0541 -0.1093
  858MOL0     C15718   1.906   8.973  11.222  0.3522  1.3199  0.4106
  858MOL0     O15719   1.999   8.943  11.122 -0.6090 -0.4111  0.3833
  858MOL0     C15720   2.076   8.828  11.121  0.6496 -0.0877 -0.1187
  858MOL0     C15721   2.183   8.830  11.214 -0.1309 -0.1776 -0.3358
  858MOL0     C15722   2.274   8.727  11.222  0.0197  0.7769 -0.4514
  858MOL0     C15723   2.394   8.759  11.317  0.1354 -1.2402  0.7887
  858MOL0     C15724   2.242   8.607  11.155  0.0278 -0.6313 -0.1667
  858MOL0     C15725   2.342   8.494  11.143  0.1639  0.7555 -0.7293
  858MOL0     O15726   2.291   8.369  11.132 -0.6507  0.4586  0.0034
  858MOL0     C15727   2.373   8.279  11.068 -0.4968 -0.1225 -0.6720
  858MOL0     C15728   2.320   8.219  10.956 -0.6755  0.7780  0.2387
  858MOL0     C15729   2.372   8.116  10.888 -0.9897  0.5359 -0.3084
  858MOL0     C15730   2.500   8.063  10.937  0.2288 -0.4213  0.1321
  858MOL0     O15731   2.546   7.950  10.873  0.8951  0.5082 -0.7389
  858MOL0     C15732   2.685   7.905  10.896  0.9208  0.0496  0.5040
  858MOL0     C15733   2.715   7.797  10.802  0.8487 -0.0200 -0.3495
  858MOL0     C15734   2.753   7.833  10.663 -0.5379 -0.2894  0.2062
  858MOL0     C15735   2.800   7.707  10.580 -0.7176 -0.8439  0.5678
  858MOL0     C15736   2.820   7.724  10.431  0.0791 -0.3349 -0.4105
  858MOL0     C15737   2.953   7.785  10.385  0.0678  0.7384 -0.0068
  858MOL0     C15738   3.060   7.684  10.398  0.8794  0.2915  0.0138
  858MOL0     C15739   3.165   7.698  10.284 -0.1164 -0.4848  0.2280
  858MOL0    Cl15740   3.247   7.848  10.294  0.5493  0.3745  0.0022
  858MOL0     C15741   2.559   8.134  11.043  0.1830  0.2135 -0.8609
  858MOL0     C15742   2.500   8.245  11.113 -0.6336  0.1097  0.0954
  858MOL0     O15743   2.464   8.521  11.155 -0.4353  0.2000 -0.0038
  858MOL0     C15744   2.139   8.600  11.063  0.2410 -0.1352  0.3110
  858MOL0     C15745   2.060   8.717  11.038 -1.0434 -0.0716  0.6190
  858MOL0     N15746   1.448   9.299  11.228  0.1405  0.0404 -0.2900
  858MOL0     N15747   1.338   9.226  11.209  0.7228 -0.7052 -0.3127
  858MOL0     C15748   1.025   8.521  10.590  0.9492 -0.4136  0.7310
  858MOL0     C15749   1.133   8.432  10.606 -0.0412 -0.0471 -1.0208
  858MOL0     C15750   1.527   8.208  10.488 -0.0967  0.7630  0.6767
  858MOL0     C15751   1.662   8.197  10.433 -0.5600 -0.4074 -0.0947
  858MOL0     C15752   1.721   8.073  10.425 -0.5059 -1.1804  0.1810
  858MOL0     C15753   1.657   7.957  10.467  0.7941  0.2022 -0.9626
  858MOL0     O15754   1.725   7.842  10.437 -0.8974  1.4569 -0.7330
  858MOL0     C15755   1.662   7.711  10.451  0.5713 -0.8568  0.9063
  858MOL0     C15756   1.558   7.693  10.335 -0.4612  0.1268 -0.0423
  858MOL0     C15757   1.464   7.566  10.361  0.2028 -0.7463 -0.4818
  858MOL0     C15758   1.334   7.602  10.430  0.0855 -0.4978 -0.4341
  858MOL0     C15759   1.273   7.481  10.478 -1.0567  0.4289 -0.0029
  858MOL0     C15760   1.210   7.382  10.502 -0.2322  0.0575  0.0643
  858MOL0     C15761   1.533   7.965  10.538 -0.0753  0.4863 -1.1602
  858MOL0     C15762   1.468   8.092  10.537  0.8106  0.1648 -0.7524
  858MOL0     H15763   1.364   8.594  10.412 -0.0706 -0.9517 -1.7473
  858MOL0     H15764   1.177   8.742  10.388  0.8313 -0.3237  0.0948
  858MOL0     H15765   0.763   8.690  10.478  2.0150  1.2882 -3.3537
  858MOL0     H15766   0.819   8.702  10.641 -2.5165  0.4349  0.1735
  858MOL0     H15767   0.776   8.902  10.419  1.0432 -3.1047 -0.3996
  858MOL0     H15768   0.684   8.910  10.574 -0.1993  0.6258 -1.3778
  858MOL0     H15769   0.976   8.972  10.509 -0.1415 -4.2159  0.1896
  858MOL0     H15770   0.862   9.089  10.576  0.8905  1.1941  1.5535
  858MOL0     H15771   0.856   9.002  10.789  3.7873  4.3823  0.2044
  858MOL0     H15772   0.941   8.847  10.747  0.4593  0.6512  2.2692
  858MOL0     H15773   1.130   8.974  10.685 -3.4298 -0.1304 -3.2066
  858MOL0     H15774   1.059   9.118  10.733 -0.8684 -1.0754  0.3965
  858MOL0     H15775   1.017   8.988  10.971 -1.1897  2.1431 -1.1777
  858MOL0     H15776   1.150   8.887  10.913 -0.6679  0.6379  3.6318
  858MOL0     H15777   1.283   9.093  10.886  1.3275 -4.6973  2.1273
  858MOL0     H15778   1.147   9.186  10.966  0.8833  1.5389 -1.0166
  858MOL0     H15779   1.272   8.932  11.091  1.1722  0.3338  1.3568
  858MOL0     H15780   1.164   9.042  11.159 -0.4280 -2.9308 -0.5683
  858MOL0     H15781   1.528   9.044  11.027  1.2255  0.6523  1.1285
  858MOL0     H15782   1.715   9.292  11.053  0.0633  1.1652  0.1642
  858MOL0     H15783   1.694   9.384  11.198  0.1467 -0.3755 -2.0056
  858MOL0     H15784   1.785   9.198  11.335  0.4458  1.0991 -0.0271
  858MOL0     H15785   1.892   9.245  11.203 -0.1670  3.1369  3.1589
  858MOL0     H15786   1.777   9.052  11.067 -0.3307 -4.2203 -0.1435
  858MOL0     H15787   1.687   9.005  11.205 -0.8694  0.6285  1.6987
  858MOL0     H15788   1.869   8.877  11.260 -3.1253  2.0073 -0.8219
  858MOL0     H15789   1.951   9.042  11.294  2.7168  0.8993 -0.5770
  858MOL0     H15790   2.182   8.925  11.267  0.5598 -0.0397 -0.5509
  858MOL0     H15791   2.386   8.702  11.410 -1.7741  0.3071  1.6417
  858MOL0     H15792   2.490   8.733  11.271  1.9674  0.3654  3.4191
  858MOL0     H15793   2.407   8.864  11.346 -0.2287 -1.5933  2.3405
  858MOL0     H15794   2.226   8.253  10.914 -1.4604 -1.4237  0.0619
  858MOL0     H15795   2.343   8.079  10.790  1.3330 -0.5815 -0.6565
  858MOL0     H15796   2.758   7.987  10.888  0.5556  0.6275  2.4447
  858MOL0     H15797   2.700   7.863  10.996 -2.5044 -2.2460  0.1918
  858MOL0     H15798   2.790   7.729  10.844 -0.0124  1.7092  4.6982
  858MOL0     H15799   2.633   7.726  10.796  0.1952  0.7685 -1.0429
  858MOL0     H15800   2.829   7.911  10.665  0.2557 -1.0616  0.4117
  858MOL0     H15801   2.662   7.882  10.624 -0.1363  1.4904  1.4034
  858MOL0     H15802   2.896   7.665  10.613 -0.0775  0.5291  0.5182
  858MOL0     H15803   2.721   7.632  10.591 -1.5827 -0.5027 -2.5029
  858MOL0     H15804   2.740   7.789  10.395  0.6866  1.0326  0.6058
  858MOL0     H15805   2.818   7.631  10.373 -0.5437 -0.4553 -0.2071
  858MOL0     H15806   2.948   7.816  10.280  2.1464 -0.4616 -0.5231
  858MOL0     H15807   2.981   7.872  10.444 -0.8305  0.5582  0.7081
  858MOL0     H15808   3.022   7.581  10.387 -1.1989  1.0412 -0.3020
  858MOL0     H15809   3.112   7.685  10.493  0.1399 -0.1380  0.4357
  858MOL0     H15810   3.117   7.689  10.186 -2.1402 -0.0017  1.1246
  858MOL0     H15811   3.242   7.621  10.291 -1.9229 -2.7058 -2.3781
  858MOL0     H15812   2.657   8.100  11.077  0.4633  1.7324 -0.0609
  858MOL0     H15813   2.555   8.300  11.188  0.3380  0.7685 -1.0510
  858MOL0     H15814   2.110   8.515  11.002 -0.8116  0.7485 -0.4620
  858MOL0     H15815   1.983   8.727  10.962  0.4346  2.7349 -0.6665
  858MOL0     H15816   0.931   8.496  10.638 -0.0719  0.6916 -0.5816
  858MOL0     H15817   1.112   8.339  10.659 -0.2756 -2.0541 -4.3494
  858MOL0     H15818   1.724   8.286  10.420  2.9940 -2.6283  0.4376
  858MOL0     H15819   1.820   8.067  10.382  0.6619  0.3841  2.4505
  858MOL0     H15820   1.723   7.620  10.447  0.1847 -1.1019  0.4788
  858MOL0     H15821   1.606   7.695  10.543 -1.3932 -0.3516 -0.1510
  858MOL0     H15822   1.623   7.663  10.252 -0.5851  1.1848 -0.5421
  858MOL0     H15823   1.503   7.786  10.319  2.8769  2.0783 -1.1075
  858MOL0     H15824   1.522   7.488  10.411  0.7533 -1.7486 -2.5943
  858MOL0     H15825   1.444   7.523  10.263 -0.0776  2.4070 -1.9367
  858MOL0     H15826   1.270   7.656  10.360  1.7109 -0.0064 -1.6064
  858MOL0     H15827   1.356   7.682  10.501 -1.9635 -2.1652  2.3079
  858MOL0     H15828   1.147   7.298  10.526 -1.4062  1.0298  0.5017
  858MOL0     H15829   1.482   7.878  10.578 -0.7325  0.7463 -1.4125
  858MOL0     H15830   1.377   8.097  10.597  1.7741  2.9325  0.6271
  859MOL0     O15831   5.736   0.577  11.252 -0.0682  0.0555  0.5056
  859MOL0     C15832   5.619   0.580  11.284 -0.6597 -0.5123  0.1507
  859MOL0     O15833   5.524   0.656  11.226 -0.1394 -0.5629 -0.3933
  859MOL0     C15834   5.578   0.726  11.117 -0.8789  0.5922  0.5706
  859MOL0     C15835   5.659   0.843  11.130 -0.5287  0.1493  0.0792
  859MOL0     C15836   5.713   0.906  11.013  0.0063 -0.1977  0.1255
  859MOL0     C15837   5.672   0.867  10.885 -0.2717  0.4581  0.4235
  859MOL0     O15838   5.726   0.929  10.770 -0.5005 -0.2002  0.5546
  859MOL0     C15839   5.752   1.069  10.768  1.1583 -0.1978  0.2739
  859MOL0     C15840   5.828   1.111  10.642  0.4439  0.1935 -0.1708
  859MOL0     C15841   5.978   1.082  10.639  0.1356  1.1798 -0.6669
  859MOL0     C15842   6.057   1.131  10.761  0.5535  0.1262  0.1177
  859MOL0     C15843   6.197   1.172  10.722 -1.3490  0.3351  0.5085
  859MOL0     C15844   6.277   1.076  10.643 -0.4505  0.5880 -0.4295
  859MOL0     C15845   6.282   0.930  10.709 -0.9187  0.3613 -0.8504
  859MOL0     C15846   6.387   0.830  10.645 -0.0173  0.8994  0.4184
  859MOL0     N15847   6.537   0.870  10.667 -0.0696 -0.2211 -0.4053
  859MOL0     C15848   6.592   0.916  10.781 -0.3938 -0.0533  0.2282
  859MOL0     C15849   6.719   0.946  10.762  0.0616  0.0135 -0.5265
  859MOL0     C15850   6.834   0.980  10.847  0.0825  0.2458 -1.2018
  859MOL0     C15851   6.832   1.127  10.905  0.3258  0.5428  0.4594
  859MOL0     C15852   6.738   1.132  11.028 -1.3042 -0.4913 -0.2332
  859MOL0     C15853   6.796   1.073  11.162 -0.6017  0.2141  0.3446
  859MOL0     O15854   6.912   1.153  11.193 -0.2008  0.6739  0.1615
  859MOL0     C15855   6.986   1.119  11.300 -0.3758 -0.0510  1.4234
  859MOL0     C15856   6.973   1.022  11.397 -0.1478 -0.8897 -0.0622
  859MOL0     C15857   7.058   1.008  11.504 -0.7273 -0.6614 -1.4325
  859MOL0     C15858   7.009   0.917  11.614 -0.3586 -0.6468  0.5715
  859MOL0     C15859   7.175   1.089  11.525  0.1663 -0.1807  0.3251
  859MOL0     C15860   7.270   1.087  11.635  0.0416 -0.1379 -0.3076
  859MOL0     O15861   7.225   1.041  11.751  0.4807 -0.5961 -0.0837
  859MOL0     C15862   7.319   1.050  11.854  0.5797  0.1454 -0.8163
  859MOL0     C15863   7.278   1.136  11.959 -0.7092  0.2684  0.2848
  859MOL0     C15864   7.359   1.138  12.073  1.1935 -0.7604 -0.4694
  859MOL0     C15865   7.455   1.044  12.090  0.6436 -0.2922  0.3571
  859MOL0     O15866   7.527   1.038  12.205 -0.2267 -0.0818 -0.1325
  859MOL0     C15867   7.489   1.109  12.322  1.0414  0.0124 -0.1195
  859MOL0     C15868   7.594   1.093  12.432 -0.8753  0.6548 -0.0783
  859MOL0     C15869   7.613   0.952  12.482  0.1596  0.3759  0.6754
  859MOL0     C15870   7.701   0.943  12.604 -0.2372 -0.0543  1.1237
  859MOL0     C15871   7.670   0.817  12.679  0.7584 -0.8043  0.7490
  859MOL0     C15872   7.775   0.795  12.787 -0.4471  0.5115  0.8113
  859MOL0     C15873   7.746   0.648  12.841 -0.0238  0.8103 -0.3906
  859MOL0     C15874   7.817   0.619  12.971 -0.2556 -0.8307  0.2878
  859MOL0    Cl15875   7.986   0.676  12.973  0.2294  0.1186 -0.0136
  859MOL0     C15876   7.485   0.957  11.991 -0.3950 -0.6928  0.6351
  859MOL0     C15877   7.420   0.956  11.872 -0.3130  0.5319 -0.4765
  859MOL0     O15878   7.385   1.116  11.608 -0.2073  0.0762  0.4898
  859MOL0     C15879   7.188   1.190  11.420 -0.5337  1.2511 -0.5579
  859MOL0     C15880   7.100   1.203  11.322  0.6388 -0.2531  0.7726
  859MOL0     N15881   6.740   0.929  10.625  0.3638 -0.9118  0.3906
  859MOL0     N15882   6.628   0.897  10.566 -0.4139  0.1544  0.2801
  859MOL0     C15883   5.603   0.737  10.871 -0.4057  0.1969 -0.4371
  859MOL0     C15884   5.553   0.671  10.988 -0.9041  0.4761  1.3629
  859MOL0     C15885   5.574   0.499  11.404 -0.6004  0.0471 -0.1513
  859MOL0     C15886   5.666   0.412  11.470 -0.4567 -0.6795 -0.1114
  859MOL0     C15887   5.636   0.360  11.597  0.1420 -1.2216  0.0812
  859MOL0     C15888   5.510   0.379  11.648  0.8077 -0.8577 -0.4944
  859MOL0     O15889   5.496   0.347  11.783 -0.9689 -0.0643 -0.2456
  859MOL0     C15890   5.403   0.422  11.874  0.5661  0.1942  0.2180
  859MOL0     C15891   5.425   0.370  12.013 -0.7321  0.1612 -0.6559
  859MOL0     C15892   5.313   0.426  12.096  0.1870  0.5781  0.0732
  859MOL0     C15893   5.321   0.356  12.228 -0.3382 -0.0024  0.7394
  859MOL0     C15894   5.443   0.377  12.314  0.2364 -0.7593  0.0494
  859MOL0     C15895   5.542   0.427  12.374 -0.0925 -0.8001 -0.1032
  859MOL0     C15896   5.414   0.449  11.576  0.1995 -0.5907 -0.5972
  859MOL0     C15897   5.448   0.514  11.455  0.8298  1.4185 -0.4926
  859MOL0     H15898   5.705   0.894  11.214 -0.2107  2.1820 -1.2448
  859MOL0     H15899   5.788   0.984  11.021  1.4250 -1.5609  0.7742
  859MOL0     H15900   5.663   1.131  10.777  0.7648 -0.5438 -0.9983
  859MOL0     H15901   5.818   1.098  10.850  1.7845 -1.3757  0.2169
  859MOL0     H15902   5.784   1.079  10.548  0.4720  1.6801 -0.7233
  859MOL0     H15903   5.821   1.221  10.642 -0.1826  0.2149 -2.8120
  859MOL0     H15904   5.989   0.973  10.637 -3.3054  0.5862  2.3053
  859MOL0     H15905   6.011   1.129  10.546 -0.6440 -0.8957 -2.0594
  859MOL0     H15906   6.007   1.219  10.804 -1.0086 -0.7351  0.1699
  859MOL0     H15907   6.056   1.054  10.838  5.5059 -0.1017  0.2161
  859MOL0     H15908   6.198   1.267  10.668 -0.1433  1.2659  2.0630
  859MOL0     H15909   6.250   1.207  10.811  0.2978 -0.2555 -0.2030
  859MOL0     H15910   6.229   1.064  10.546 -0.6102 -1.4006 -0.1507
  859MOL0     H15911   6.373   1.129  10.641 -0.8448  1.6107  2.6649
  859MOL0     H15912   6.315   0.949  10.811 -1.6346 -1.4315 -0.2411
  859MOL0     H15913   6.187   0.877  10.694  0.4241 -2.5401  0.0492
  859MOL0     H15914   6.369   0.806  10.540  0.7353  2.1206 -0.0124
  859MOL0     H15915   6.385   0.730  10.688  2.5966  0.7615  0.3773
  859MOL0     H15916   6.543   0.917  10.878 -0.7782  0.0696  0.0335
  859MOL0     H15917   6.843   0.901  10.921 -2.6245 -0.2116 -1.2603
  859MOL0     H15918   6.920   0.979  10.779  0.9431  0.4064 -0.1356
  859MOL0     H15919   6.793   1.199  10.833 -1.8996 -0.7128  0.3148
  859MOL0     H15920   6.937   1.152  10.923  0.5842  1.2986 -1.8033
  859MOL0     H15921   6.636   1.100  11.002 -0.4052 -0.9803 -3.6607
  859MOL0     H15922   6.735   1.240  11.043 -0.2344 -0.6952  1.8864
  859MOL0     H15923   6.820   0.970  11.136 -1.3028  0.8705 -3.6402
  859MOL0     H15924   6.731   1.081  11.249  0.8202 -2.1627  1.7270
  859MOL0     H15925   6.881   0.965  11.394 -1.2579  0.8048  0.3731
  859MOL0     H15926   6.982   0.967  11.708 -3.7496  1.5506 -1.3702
  859MOL0     H15927   6.919   0.870  11.572 -0.5640 -0.1122  0.4045
  859MOL0     H15928   7.081   0.840  11.643 -0.6035 -1.2048 -0.2708
  859MOL0     H15929   7.198   1.204  11.932  0.5366  1.5149 -0.3592
  859MOL0     H15930   7.338   1.212  12.149 -0.5433 -1.2172 -0.4558
  859MOL0     H15931   7.479   1.216  12.301  2.2580 -0.5592 -4.9142
  859MOL0     H15932   7.398   1.061  12.359  1.5221  0.5855  1.9027
  859MOL0     H15933   7.690   1.131  12.397  1.4294 -4.1337  0.3533
  859MOL0     H15934   7.560   1.145  12.522 -4.9461  2.7400 -2.5177
  859MOL0     H15935   7.666   0.892  12.408 -0.1693  1.9293 -0.8682
  859MOL0     H15936   7.517   0.901  12.495 -0.7626  1.0529 -2.5838
  859MOL0     H15937   7.806   0.937  12.576 -0.4180 -0.5962  0.5108
  859MOL0     H15938   7.706   1.029  12.670  1.0791 -3.3310  5.7883
  859MOL0     H15939   7.655   0.739  12.604  0.1846  1.8287 -2.0617
  859MOL0     H15940   7.579   0.838  12.735  0.2623  1.0795 -0.6680
  859MOL0     H15941   7.877   0.799  12.748 -0.1757 -0.9956  1.3005
  859MOL0     H15942   7.765   0.875  12.860  0.5618  2.3555 -0.9500
  859MOL0     H15943   7.778   0.584  12.759  3.4692 -0.0402  1.4235
  859MOL0     H15944   7.640   0.630  12.864 -0.3799  4.1924  1.3126
  859MOL0     H15945   7.818   0.515  13.005  1.6174 -1.0821 -0.4365
  859MOL0     H15946   7.768   0.674  13.052 -0.9696  1.0790 -1.3571
  859MOL0     H15947   7.570   0.893  12.009 -0.3921 -0.5531  1.1380
  859MOL0     H15948   7.451   0.899  11.785 -1.0940 -2.0168  0.8106
  859MOL0     H15949   7.277   1.252  11.423  1.7105 -1.7179  0.2272
  859MOL0     H15950   7.106   1.280  11.245  0.1438 -0.0325  0.9541
  859MOL0     H15951   5.579   0.699  10.772 -2.1224  5.0961 -2.1733
  859MOL0     H15952   5.495   0.581  10.975  0.9739 -0.3374 -3.0758
  859MOL0     H15953   5.762   0.403  11.419 -1.9583  0.7762 -3.5241
  859MOL0     H15954   5.716   0.325  11.661  2.4905  2.6984 -0.4024
  859MOL0     H15955   5.422   0.530  11.868  1.7419 -0.0604 -1.4650
  859MOL0     H15956   5.296   0.413  11.851  0.5702  1.0454 -0.2095
  859MOL0     H15957   5.517   0.401  12.064 -0.8874 -2.0650  1.1566
  859MOL0     H15958   5.422   0.261  12.005  1.3046  0.1505 -1.9103
  859MOL0     H15959   5.218   0.413  12.045 -0.1243  0.7209  0.6095
  859MOL0     H15960   5.337   0.529  12.125  1.0425 -0.3129  2.9215
  859MOL0     H15961   5.318   0.250  12.201  0.3572  0.7622 -2.9905
  859MOL0     H15962   5.235   0.397  12.282 -1.2968 -0.2417 -0.5566
  859MOL0     H15963   5.626   0.463  12.430 -1.4614  0.5824  1.1502
  859MOL0     H15964   5.316   0.470  11.618  1.3059  0.7055  1.5096
  859MOL0     H15965   5.373   0.581  11.416 -0.8335 -0.4392 -0.6336
  860MOL0     O15966  10.982   4.794   4.362 -0.0586  0.8906 -0.3480
  860MOL0     C15967  10.965   4.734   4.257  0.9187 -0.8705  0.1625
  860MOL0     O15968  10.994   4.598   4.239 -0.1149 -0.5078  0.4032
  860MOL0     C15969  11.041   4.531   4.345 -0.2665  0.3637  0.4721
  860MOL0     C15970  11.138   4.427   4.326 -1.0100 -0.2772  0.5150
  860MOL0     C15971  11.198   4.351   4.426  0.2844 -0.1976 -0.7792
  860MOL0     C15972  11.130   4.359   4.557  0.8203  0.8312  1.2261
  860MOL0     O15973  11.172   4.276   4.658 -0.7112 -0.3793  0.0426
  860MOL0     C15974  11.232   4.351   4.767  0.2085 -0.8883 -0.2128
  860MOL0     C15975  11.298   4.256   4.863  0.0082 -0.0551  0.7050
  860MOL0     C15976  11.218   4.128   4.888  0.5537 -0.2287  0.3743
  860MOL0     C15977  11.233   4.074   5.023  0.5341  0.7323 -0.0976
  860MOL0     C15978  11.134   3.950   5.049  0.7271 -0.5526 -0.2638
  860MOL0     C15979  11.099   3.937   5.199  0.6740  0.1152 -0.5063
  860MOL0     C15980  10.996   3.836   5.223  0.0759  0.4573 -0.3337
  860MOL0     C15981  11.047   3.696   5.185 -0.5279 -0.3069 -0.3918
  860MOL0     N15982  10.980   3.591   5.256 -0.6350  0.2136 -0.0290
  860MOL0     C15983  11.032   3.469   5.287  0.8005  0.5733 -0.2772
  860MOL0     C15984  10.944   3.412   5.378  0.8816  0.3978 -0.4117
  860MOL0     C15985  10.938   3.284   5.451  0.2392 -1.0606 -1.1566
  860MOL0     C15986  10.889   3.169   5.368  0.2386  0.0917  0.1647
  860MOL0     C15987  10.932   3.043   5.447 -0.7221  0.3685  0.5373
  860MOL0     C15988  10.870   2.912   5.402  0.3761  0.3596 -0.2208
  860MOL0     O15989  10.877   2.905   5.257 -0.8347  0.0840  0.2560
  860MOL0     C15990  10.768   2.932   5.186  0.3342 -0.4244  0.1725
  860MOL0     C15991  10.639   2.909   5.223 -0.1287 -0.3530 -0.0190
  860MOL0     C15992  10.534   2.970   5.154  0.2966 -0.6805  0.0962
  860MOL0     C15993  10.390   2.943   5.210 -0.5989  0.8576  0.5220
  860MOL0     C15994  10.556   3.061   5.038 -0.4118 -0.1067 -0.5952
  860MOL0     C15995  10.456   3.144   4.970  0.0454 -0.2841  0.3001
  860MOL0     O15996  10.343   3.086   4.928  0.4087 -0.0291  0.2956
  860MOL0     C15997  10.226   3.148   4.906  0.0449 -0.0394  0.1731
  860MOL0     C15998  10.117   3.066   4.868 -0.0057  0.1909 -0.6120
  860MOL0     C15999   9.985   3.109   4.843  1.7099 -1.0170  0.2396
  860MOL0     C16000   9.967   3.247   4.845 -0.4255  0.3344 -0.3111
  860MOL0     O16001   9.848   3.293   4.821  0.0482 -0.1418  0.9722
  860MOL0     C16002   9.832   3.323   4.682  0.8764 -0.4244 -0.6235
  860MOL0     C16003   9.679   3.343   4.656  0.8626 -0.2880 -0.0674
  860MOL0     C16004   9.609   3.216   4.682  0.3820 -0.5158 -0.7785
  860MOL0     C16005   9.497   3.211   4.583  0.0184 -0.0729  0.6392
  860MOL0     C16006   9.426   3.078   4.609  0.8417  0.5141 -0.1041
  860MOL0     C16007   9.299   3.055   4.540 -0.1615 -0.3324  0.8696
  860MOL0     C16008   9.324   3.055   4.388 -0.4027  0.5183  0.2702
  860MOL0     C16009   9.217   2.974   4.305 -0.2870  0.5477 -0.3147
  860MOL0    Cl16010   9.256   2.791   4.323  0.2674  0.3729 -0.6737
  860MOL0     C16011  10.064   3.338   4.871 -0.0909 -0.4258  0.5861
  860MOL0     C16012  10.195   3.282   4.901  0.5555  0.7022 -0.2806
  860MOL0     O16013  10.502   3.251   4.926 -0.3438  0.2693  0.3725
  860MOL0     C16014  10.692   3.067   4.996  0.5683 -0.6423  0.7593
  860MOL0     C16015  10.792   2.997   5.067 -0.1772  0.5212 -0.2947
  860MOL0     N16016  10.836   3.496   5.390  0.3208 -0.6697  0.2807
  860MOL0     N16017  10.862   3.604   5.320 -0.3015  0.0403 -0.3038
  860MOL0     C16018  11.015   4.441   4.573  0.4093  0.2904  0.0292
  860MOL0     C16019  10.979   4.529   4.477  0.4163 -0.2629 -0.8473
  860MOL0     C16020  10.919   4.818   4.142 -0.8398 -0.8702  0.1706
  860MOL0     C16021  10.930   4.964   4.130  0.0309 -0.3578 -0.1777
  860MOL0     C16022  10.881   5.029   4.019 -0.2985  0.2441 -0.2092
  860MOL0     C16023  10.828   4.961   3.913 -0.5444  0.2965  0.2054
  860MOL0     O16024  10.803   5.035   3.801 -0.0211  1.0303  0.6736
  860MOL0     C16025  10.751   4.961   3.680  0.6471  0.0512 -0.3275
  860MOL0     C16026  10.755   5.047   3.559  0.5799  0.5329 -0.2922
  860MOL0     C16027  10.683   5.183   3.566 -0.3849  0.0492  0.0206
  860MOL0     C16028  10.532   5.171   3.579 -0.2752 -0.6080 -0.4177
  860MOL0     C16029  10.472   5.311   3.553 -0.2721 -0.5825  0.1904
  860MOL0     C16030  10.424   5.425   3.527 -0.3647 -0.2190 -0.0085
  860MOL0     C16031  10.800   4.826   3.927  0.0462 -0.2290  0.3176
  860MOL0     C16032  10.855   4.751   4.029 -0.2339  0.4364  0.6139
  860MOL0     H16033  11.159   4.407   4.221  2.5836  2.2547  0.5624
  860MOL0     H16034  11.285   4.292   4.398  1.6054  1.7613 -1.0095
  860MOL0     H16035  11.298   4.428   4.727 -3.0661  2.1856 -0.1741
  860MOL0     H16036  11.158   4.412   4.820  2.0007 -1.8200  3.6683
  860MOL0     H16037  11.388   4.227   4.808 -1.0676 -2.3705  0.0603
  860MOL0     H16038  11.331   4.306   4.955 -1.6682  3.0791 -0.2608
  860MOL0     H16039  11.112   4.148   4.869  0.4087  1.0497  2.2756
  860MOL0     H16040  11.245   4.043   4.824 -0.3090 -2.5928  2.9552
  860MOL0     H16041  11.337   4.048   5.043  0.6075  1.6579  0.8256
  860MOL0     H16042  11.211   4.146   5.103 -0.3131 -1.0975  1.3768
  860MOL0     H16043  11.035   3.966   5.005 -0.3696 -2.5664  1.3008
  860MOL0     H16044  11.185   3.859   5.015  2.6890 -0.3755  1.8925
  860MOL0     H16045  11.186   3.913   5.262 -1.2711 -4.4606  0.8769
  860MOL0     H16046  11.045   4.028   5.225 -2.2958 -1.4729 -0.6194
  860MOL0     H16047  10.965   3.842   5.328 -0.0670 -1.8549 -0.1943
  860MOL0     H16048  10.903   3.850   5.167  0.5039  1.3847 -0.8270
  860MOL0     H16049  11.153   3.694   5.212 -0.6281 -0.8556 -0.0228
  860MOL0     H16050  11.038   3.675   5.078  3.2030 -1.9395 -0.5334
  860MOL0     H16051  11.128   3.431   5.254  1.4319  2.4834 -0.7645
  860MOL0     H16052  11.040   3.265   5.486  0.3482 -0.8118 -1.3336
  860MOL0     H16053  10.871   3.294   5.536  1.4964 -0.2363 -0.2185
  860MOL0     H16054  10.936   3.151   5.271  0.4292 -0.3484  0.3374
  860MOL0     H16055  10.783   3.178   5.341 -0.0936  2.4773  1.9517
  860MOL0     H16056  10.900   3.058   5.550 -0.4170  1.6657  0.4603
  860MOL0     H16057  11.041   3.032   5.445 -0.9018 -1.8645  0.8433
  860MOL0     H16058  10.768   2.912   5.443  0.4143 -1.3710 -0.0607
  860MOL0     H16059  10.919   2.824   5.445 -0.4582 -0.8110 -1.5862
  860MOL0     H16060  10.610   2.849   5.309 -1.1974  1.2589  0.7849
  860MOL0     H16061  10.331   2.912   5.124  1.4656  1.2753 -1.1247
  860MOL0     H16062  10.393   2.862   5.283  2.4572  1.6141  1.3723
  860MOL0     H16063  10.357   3.041   5.246  1.2548  1.5365  0.5112
  860MOL0     H16064  10.125   2.958   4.872 -2.6253 -0.1126 -2.0067
  860MOL0     H16065   9.903   3.042   4.819  1.2345 -0.1885 -0.5486
  860MOL0     H16066   9.885   3.411   4.645 -2.2513  2.2394  0.7089
  860MOL0     H16067   9.856   3.232   4.626  1.5419 -0.6643  0.0386
  860MOL0     H16068   9.639   3.432   4.706  3.8829  0.2663  1.6194
  860MOL0     H16069   9.666   3.369   4.551 -1.5522 -0.7740  0.0572
  860MOL0     H16070   9.579   3.235   4.785  1.2778  3.6414 -1.1163
  860MOL0     H16071   9.679   3.132   4.682  0.0129 -0.9352  2.3895
  860MOL0     H16072   9.428   3.294   4.602 -1.5024 -1.0201 -0.5279
  860MOL0     H16073   9.543   3.215   4.484  0.8505 -2.0541  0.8908
  860MOL0     H16074   9.412   3.043   4.712  1.4698 -1.0865 -0.5305
  860MOL0     H16075   9.496   3.004   4.569  1.7089  2.9692 -3.4879
  860MOL0     H16076   9.264   2.958   4.577 -1.3854 -0.7887 -1.3022
  860MOL0     H16077   9.229   3.136   4.561 -1.3742 -0.4509 -2.1941
  860MOL0     H16078   9.420   3.006   4.366 -2.5195 -2.9264 -2.2096
  860MOL0     H16079   9.321   3.160   4.359  1.6982  0.1864 -1.4344
  860MOL0     H16080   9.215   2.989   4.197 -2.1025 -2.7243 -0.8810
  860MOL0     H16081   9.114   2.988   4.339 -1.5814 -0.8467 -3.2948
  860MOL0     H16082  10.055   3.447   4.871  1.6571 -0.2302  2.0403
  860MOL0     H16083  10.270   3.354   4.932 -1.7018  2.3999  1.5362
  860MOL0     H16084  10.729   3.114   4.906 -1.1789  1.1617  0.9225
  860MOL0     H16085  10.896   3.003   5.036 -0.1649  1.0461 -0.1665
  860MOL0     H16086  10.960   4.436   4.666 -2.0361 -1.9938 -1.4147
  860MOL0     H16087  10.900   4.599   4.503  1.8668  0.2299  2.7865
  860MOL0     H16088  10.965   5.016   4.219  1.1989 -3.4045  1.2896
  860MOL0     H16089  10.884   5.137   4.028  3.8279  0.2478  0.2452
  860MOL0     H16090  10.824   4.882   3.663  1.0083  0.0830  0.9774
  860MOL0     H16091  10.658   4.910   3.705  1.6755 -0.3971  3.1606
  860MOL0     H16092  10.718   4.987   3.476  0.9227 -0.9044  0.5543
  860MOL0     H16093  10.860   5.064   3.536  0.9121  1.8314  1.8668
  860MOL0     H16094  10.698   5.240   3.473 -3.6458  0.7116 -0.2241
  860MOL0     H16095  10.715   5.246   3.649 -1.5728  1.7727 -0.7639
  860MOL0     H16096  10.495   5.131   3.674 -0.5115  5.4952  2.5398
  860MOL0     H16097  10.497   5.115   3.492 -1.6357 -0.8157  0.2394
  860MOL0     H16098  10.381   5.514   3.485 -0.4203 -0.2812 -0.0856
  860MOL0     H16099  10.746   4.769   3.852  2.2913  0.6819 -2.1453
  860MOL0     H16100  10.858   4.643   4.024  0.4262  0.4174  1.2953
  861MOL0     O16101   1.652   2.156   7.302 -0.4162  0.0664  0.0691
  861MOL0     C16102   1.585   2.106   7.211 -0.1302  0.1320  0.1483
  861MOL0     O16103   1.647   2.041   7.107  0.2102  0.4179 -0.0996
  861MOL0     C16104   1.779   2.039   7.079  0.1379  0.2980 -1.2253
  861MOL0     C16105   1.848   1.920   7.086 -0.4593  0.9034 -0.5659
  861MOL0     C16106   1.982   1.924   7.048 -0.0010  0.6758  0.0680
  861MOL0     C16107   2.049   2.039   7.017 -0.3137 -0.4090  1.4030
  861MOL0     O16108   2.184   2.022   6.999  0.3120 -0.0054  0.0957
  861MOL0     C16109   2.251   2.138   6.944 -0.1936  1.0482 -0.7123
  861MOL0     C16110   2.383   2.095   6.870  0.3473  0.7086 -0.5521
  861MOL0     C16111   2.359   2.034   6.734  0.0043 -0.8722 -0.8826
  861MOL0     C16112   2.484   1.982   6.663 -0.2371 -0.5774  0.0369
  861MOL0     C16113   2.616   2.065   6.635 -0.2674  0.2503 -0.7004
  861MOL0     C16114   2.593   2.207   6.570  0.6594  0.1966  0.0795
  861MOL0     C16115   2.701   2.307   6.597 -0.1430 -0.5215  0.4494
  861MOL0     C16116   2.852   2.268   6.558 -0.6537 -0.3819 -0.1978
  861MOL0     N16117   2.851   2.241   6.413  0.1158  0.6241 -0.9873
  861MOL0     C16118   2.894   2.332   6.318  0.9989 -0.4170 -0.4712
  861MOL0     C16119   2.882   2.274   6.200 -0.5376  0.6228 -0.2349
  861MOL0     C16120   2.917   2.349   6.065 -0.7345 -0.2576  0.2476
  861MOL0     C16121   2.952   2.501   6.070 -0.2036 -0.4197 -0.9282
  861MOL0     C16122   3.106   2.513   6.081  1.0190  0.3577 -0.3072
  861MOL0     C16123   3.189   2.454   6.194 -0.5153  0.1188  0.7413
  861MOL0     O16124   3.151   2.534   6.308 -0.1312  1.3667 -0.0551
  861MOL0     C16125   3.205   2.508   6.431 -0.6725 -0.7954 -0.1924
  861MOL0     C16126   3.179   2.385   6.495  0.0627  0.0621 -0.3451
  861MOL0     C16127   3.233   2.345   6.611 -0.5294  0.2221  0.3587
  861MOL0     C16128   3.194   2.196   6.665 -0.4470 -0.5243  0.2798
  861MOL0     C16129   3.322   2.434   6.680  0.4774 -0.3121  0.0443
  861MOL0     C16130   3.365   2.396   6.817 -0.1718 -0.5057 -0.5909
  861MOL0     O16131   3.462   2.478   6.875 -0.1884  0.0308  0.2294
  861MOL0     C16132   3.502   2.452   7.004  0.0149  0.4874  0.3897
  861MOL0     C16133   3.636   2.421   7.019  0.4656  0.2448 -0.4052
  861MOL0     C16134   3.694   2.392   7.137  0.4850 -0.6515 -0.7726
  861MOL0     C16135   3.621   2.401   7.258  0.0586  0.1678  0.3007
  861MOL0     O16136   3.675   2.371   7.383 -0.4418  0.3279 -0.6538
  861MOL0     C16137   3.779   2.276   7.396  1.2587 -0.5922 -0.2667
  861MOL0     C16138   3.885   2.330   7.484 -0.8900 -0.2474  0.0847
  861MOL0     C16139   3.998   2.228   7.496 -0.1645  0.2448 -0.0929
  861MOL0     C16140   4.087   2.270   7.620 -0.7407 -0.8019 -1.0824
  861MOL0     C16141   4.190   2.158   7.661 -0.1939  0.9244  0.3045
  861MOL0     C16142   4.184   2.140   7.817  0.2297  0.3795  0.2041
  861MOL0     C16143   4.275   2.227   7.895  0.7582 -0.3438  1.3005
  861MOL0     C16144   4.384   2.146   7.960  1.5693  0.1693  0.7482
  861MOL0    Cl16145   4.479   2.063   7.843  0.3285 -0.1483 -0.1769
  861MOL0     C16146   3.482   2.431   7.247  0.3536 -0.2304 -1.3015
  861MOL0     C16147   3.428   2.454   7.122  0.7029 -0.3586 -0.2766
  861MOL0     O16148   3.311   2.305   6.880 -0.5200 -0.0784  0.0949
  861MOL0     C16149   3.361   2.547   6.611 -0.5555 -0.2097  0.0214
  861MOL0     C16150   3.305   2.591   6.495  0.2235  0.1026  0.0050
  861MOL0     N16151   2.833   2.148   6.220  0.5937  1.2192 -0.0550
  861MOL0     N16152   2.814   2.126   6.347  0.0391 -0.0618  0.2506
  861MOL0     C16153   1.978   2.159   7.017  0.5481 -0.2159  0.1079
  861MOL0     C16154   1.837   2.160   7.052 -0.8035  0.5813  0.1504
  861MOL0     C16155   1.435   2.127   7.232 -0.9636 -0.9929  0.3325
  861MOL0     C16156   1.389   2.256   7.263 -0.5232 -1.0457  0.2000
  861MOL0     C16157   1.257   2.282   7.298  0.2215  0.5223 -0.6463
  861MOL0     C16158   1.161   2.181   7.288  0.4255 -0.1041  0.1315
  861MOL0     O16159   1.031   2.219   7.327  1.1234  0.4928  0.7598
  861MOL0     C16160   0.928   2.119   7.323 -0.3392 -0.6139 -0.5813
  861MOL0     C16161   0.788   2.179   7.349 -0.5506  0.2563  0.0344
  861MOL0     C16162   0.761   2.228   7.494 -1.0268  0.2888  0.0447
  861MOL0     C16163   0.611   2.220   7.529  0.6006 -0.8423 -0.2770
  861MOL0     C16164   0.592   2.306   7.646  0.1196  0.2161 -0.8843
  861MOL0     C16165   0.561   2.378   7.736 -0.6571  0.6306 -0.1271
  861MOL0     C16166   1.209   2.053   7.253 -0.5027  0.5029 -0.2431
  861MOL0     C16167   1.338   2.026   7.217 -0.3408 -0.3814 -0.3434
  861MOL0     H16168   1.795   1.830   7.114  1.6008  0.0210  0.7161
  861MOL0     H16169   2.041   1.833   7.048 -2.8890 -1.3284 -0.1005
  861MOL0     H16170   2.186   2.190   6.872 -1.1855  1.4213  0.4102
  861MOL0     H16171   2.272   2.210   7.024  1.7149  0.1629 -0.3524
  861MOL0     H16172   2.444   2.186   6.866  0.2045  0.9030  0.8984
  861MOL0     H16173   2.445   2.027   6.929  3.0087 -1.8741 -5.6808
  861MOL0     H16174   2.284   1.955   6.733 -2.1377  1.0642 -1.3640
  861MOL0     H16175   2.309   2.106   6.669 -1.7116 -2.7377 -1.7294
  861MOL0     H16176   2.509   1.896   6.725 -1.1422  0.0763  1.3569
  861MOL0     H16177   2.448   1.937   6.570  1.2798  0.1323 -0.9307
  861MOL0     H16178   2.669   2.084   6.728 -0.8903  0.1665 -0.3249
  861MOL0     H16179   2.690   2.013   6.574  0.4658  0.4670  0.0007
  861MOL0     H16180   2.570   2.185   6.465 -0.8634 -4.9694  1.1869
  861MOL0     H16181   2.505   2.253   6.615  0.6815  1.9896 -1.5910
  861MOL0     H16182   2.678   2.401   6.545 -3.4940  0.2645  3.0093
  861MOL0     H16183   2.698   2.345   6.700  2.2951  0.5172  0.2217
  861MOL0     H16184   2.889   2.184   6.618 -0.2761  0.7368  1.1818
  861MOL0     H16185   2.917   2.351   6.585  0.6823 -1.4479 -0.0413
  861MOL0     H16186   2.922   2.433   6.345  2.6646 -1.2035  0.9910
  861MOL0     H16187   2.997   2.294   6.014 -1.1305 -3.8094  2.9920
  861MOL0     H16188   2.839   2.333   5.990 -1.2487  0.8404  0.5278
  861MOL0     H16189   2.892   2.550   6.148  0.5298  0.7103 -1.0628
  861MOL0     H16190   2.923   2.556   5.980  1.8361  3.2910  0.4882
  861MOL0     H16191   3.117   2.621   6.085  1.5661  0.2749  1.5227
  861MOL0     H16192   3.137   2.467   5.987  1.6981  0.1861 -0.0075
  861MOL0     H16193   3.297   2.451   6.175 -0.0171 -2.2543  3.2337
  861MOL0     H16194   3.155   2.352   6.214 -0.7777  0.1447  0.4262
  861MOL0     H16195   3.107   2.316   6.452 -0.0243  0.4325 -0.7855
  861MOL0     H16196   3.120   2.151   6.599 -0.0612 -0.5562 -0.1303
  861MOL0     H16197   3.286   2.137   6.659 -1.7795 -2.6161 -0.7114
  861MOL0     H16198   3.148   2.193   6.765 -3.1481 -0.9275 -0.8867
  861MOL0     H16199   3.691   2.424   6.925  2.7357 -1.2649  0.7578
  861MOL0     H16200   3.802   2.394   7.146  0.3434 -1.8005  2.2836
  861MOL0     H16201   3.748   2.180   7.437  2.0526  0.5610  3.4496
  861MOL0     H16202   3.822   2.248   7.300  2.0113  2.0627 -0.7824
  861MOL0     H16203   3.940   2.407   7.430 -0.0711 -2.2974 -2.1648
  861MOL0     H16204   3.851   2.362   7.583  1.1573 -0.6009  0.9461
  861MOL0     H16205   4.059   2.227   7.406 -0.0425  0.8671 -0.0241
  861MOL0     H16206   3.962   2.126   7.507  0.8278 -0.0797  0.2205
  861MOL0     H16207   4.155   2.352   7.596  3.5515 -2.3587  3.8554
  861MOL0     H16208   4.019   2.301   7.700 -0.1912 -0.0759 -0.8847
  861MOL0     H16209   4.287   2.190   7.622  0.8749 -1.6490  0.6428
  861MOL0     H16210   4.166   2.076   7.593 -1.2323  1.2399  0.2753
  861MOL0     H16211   4.077   2.152   7.837 -0.0834  1.0260 -1.6066
  861MOL0     H16212   4.204   2.037   7.846 -0.3562 -0.2810 -1.5601
  861MOL0     H16213   4.209   2.261   7.975  1.5538  0.2597  1.7140
  861MOL0     H16214   4.301   2.315   7.835 -0.3536 -1.3024 -0.6877
  861MOL0     H16215   4.333   2.083   8.034 -2.8290  0.1273 -1.9314
  861MOL0     H16216   4.444   2.225   8.006 -0.7168  2.0234  0.7719
  861MOL0     H16217   3.420   2.428   7.336  2.7194  3.9331  0.7978
  861MOL0     H16218   3.322   2.464   7.104  0.6137  0.1691  0.5028
  861MOL0     H16219   3.445   2.603   6.650 -0.3189  0.1858 -1.0146
  861MOL0     H16220   3.336   2.673   6.431 -0.8023 -1.1521 -2.2185
  861MOL0     H16221   2.026   2.255   7.005  0.2083 -0.2970 -2.3439
  861MOL0     H16222   1.776   2.250   7.051  1.7789  2.4430  0.7329
  861MOL0     H16223   1.467   2.332   7.258 -0.4074 -1.2438 -2.0955
  861MOL0     H16224   1.231   2.379   7.339  1.5313  0.5998  0.0491
  861MOL0     H16225   0.937   2.046   7.243  0.9501 -4.7930  2.9685
  861MOL0     H16226   0.958   2.053   7.405 -1.9295  1.1292  1.5491
  861MOL0     H16227   0.707   2.107   7.336 -0.3620  0.2862 -1.4777
  861MOL0     H16228   0.773   2.256   7.273 -0.1151 -2.2552 -2.8086
  861MOL0     H16229   0.805   2.326   7.516  2.1285 -1.6254  3.5768
  861MOL0     H16230   0.814   2.159   7.561 -2.1120 -1.4419 -0.8309
  861MOL0     H16231   0.578   2.116   7.536 -1.7456 -0.1845 -0.4317
  861MOL0     H16232   0.550   2.274   7.455  0.2477  0.7184  1.0985
  861MOL0     H16233   0.527   2.437   7.818 -1.9531 -0.4728  0.1645
  861MOL0     H16234   1.139   1.971   7.268 -1.0650  1.2247  1.2835
  861MOL0     H16235   1.364   1.921   7.214  0.3219 -0.7327  5.5433
  862MOL0     O16236  11.109   5.729   4.387 -0.2995  0.1002  0.2111
  862MOL0     C16237  11.227   5.741   4.349  0.0633 -0.7791  0.8153
  862MOL0     O16238  11.337   5.691   4.413  0.0331 -0.4748  0.4363
  862MOL0     C16239  11.322   5.601   4.527  0.5635 -0.4351  0.3383
  862MOL0     C16240  11.358   5.469   4.516 -0.6698 -0.6775  0.5530
  862MOL0     C16241  11.323   5.380   4.613 -0.5373  0.5494 -0.1965
  862MOL0     C16242  11.269   5.417   4.738  0.1025 -1.1277  0.7480
  862MOL0     O16243  11.247   5.331   4.840 -0.2000  0.7563 -0.3343
  862MOL0     C16244  11.122   5.358   4.913 -0.3746 -0.2422  0.2669
  862MOL0     C16245  11.127   5.250   5.015 -0.6265 -0.3643 -0.6597
  862MOL0     C16246  11.187   5.290   5.150 -0.0747  0.5091 -0.3147
  862MOL0     C16247  11.216   5.160   5.232  0.0887 -0.6454 -0.3970
  862MOL0     C16248  11.081   5.098   5.286 -0.0101  0.6001 -0.5879
  862MOL0     C16249  11.095   4.980   5.382 -0.9410 -0.1649 -0.2468
  862MOL0     C16250  11.147   5.038   5.516 -0.2612  0.0926 -0.4653
  862MOL0     C16251  11.080   4.980   5.644  0.6483  0.4523  0.4794
  862MOL0     N16252  11.131   5.050   5.769  0.1355  0.9015 -0.3376
  862MOL0     C16253  11.232   5.002   5.852  0.4867 -0.1992 -0.0964
  862MOL0     C16254  11.237   5.101   5.943 -0.1578 -0.4439  0.2325
  862MOL0     C16255  11.336   5.107   6.060 -0.0236 -0.3944 -0.3520
  862MOL0     C16256  11.414   5.235   6.044 -0.6203 -0.0452  0.5377
  862MOL0     C16257  11.517   5.242   6.158  0.0472 -0.7336 -0.2795
  862MOL0     C16258  11.460   5.299   6.284  0.2424 -0.0948  0.5322
  862MOL0     O16259  11.433   5.442   6.265 -0.9095 -0.0212  0.1830
  862MOL0     C16260  11.409   5.514   6.374 -0.0425 -0.4620 -0.7997
  862MOL0     C16261  11.432   5.641   6.348 -0.2485 -0.2685  0.3553
  862MOL0     C16262  11.427   5.740   6.446  0.8071  0.6736  0.4351
  862MOL0     C16263  11.466   5.869   6.397 -0.6148 -0.0653 -0.0296
  862MOL0     C16264  11.370   5.705   6.583 -0.9317  0.3665  0.7412
  862MOL0     C16265  11.354   5.811   6.675  0.3121  0.6346 -1.4961
  862MOL0     O16266  11.356   5.779   6.814  0.4709 -0.1987 -0.2673
  862MOL0     C16267  11.326   5.868   6.909 -0.6909 -0.5193 -0.7809
  862MOL0     C16268  11.356   6.004   6.905  1.0886 -1.0709  0.2783
  862MOL0     C16269  11.302   6.087   6.991 -0.5096 -0.3490 -0.9521
  862MOL0     C16270  11.220   6.049   7.101 -0.1378  0.1472  0.0037
  862MOL0     O16271  11.190   6.150   7.191 -0.5909  0.5297 -0.7495
  862MOL0     C16272  11.132   6.115   7.321  0.0049 -0.1439 -0.3922
  862MOL0     C16273  11.122   6.244   7.411 -0.2874  0.7140  0.1984
  862MOL0     C16274  11.024   6.214   7.530 -0.1936  0.0254  0.2511
  862MOL0     C16275  10.997   6.345   7.600 -0.2498 -0.8240 -0.7139
  862MOL0     C16276  10.851   6.365   7.620 -0.2924 -0.8531 -0.9973
  862MOL0     C16277  10.814   6.507   7.674 -0.9981  0.0430 -0.4768
  862MOL0     C16278  10.721   6.504   7.785  0.9687 -0.0580  0.2312
  862MOL0     C16279  10.767   6.437   7.912 -0.4745  1.1251  0.1901
  862MOL0    Cl16280  10.904   6.542   7.962  0.0883  0.2003  0.3579
  862MOL0     C16281  11.187   5.916   7.118 -0.3759  0.9055 -0.4425
  862MOL0     C16282  11.247   5.828   7.018  0.9542  0.5234  0.4265
  862MOL0     O16283  11.326   5.924   6.632  0.3638 -0.6099 -0.3055
  862MOL0     C16284  11.343   5.570   6.609 -0.2205  0.0838 -0.1602
  862MOL0     C16285  11.367   5.470   6.507 -0.0331  0.1824  0.5958
  862MOL0     N16286  11.134   5.193   5.934  0.2952  0.3137  0.0470
  862MOL0     N16287  11.074   5.166   5.821 -0.5572  0.0984 -0.5995
  862MOL0     C16288  11.242   5.551   4.758  0.7176  0.0452  0.6147
  862MOL0     C16289  11.268   5.645   4.651 -0.3584  0.7120 -0.5874
  862MOL0     C16290  11.249   5.827   4.240  0.4186  0.1994 -0.6655
  862MOL0     C16291  11.376   5.884   4.218 -0.3516 -0.4591 -0.1689
  862MOL0     C16292  11.398   5.988   4.125  0.3005 -0.6034 -0.3127
  862MOL0     C16293  11.305   6.012   4.025  0.0099  1.1380 -0.1835
  862MOL0     O16294  11.313   6.111   3.925 -0.8112  0.0942 -0.4323
  862MOL0     C16295  11.431   6.192   3.914  0.1381 -0.7293 -0.4531
  862MOL0     C16296  11.412   6.287   3.800  0.2096  0.0376 -1.0142
  862MOL0     C16297  11.417   6.217   3.669 -0.4317 -0.6302  1.1242
  862MOL0     C16298  11.437   6.327   3.552 -0.4968 -0.1846 -0.3179
  862MOL0     C16299  11.323   6.411   3.524 -0.3356  0.8038  0.0457
  862MOL0     C16300  11.249   6.493   3.502  0.2170 -0.4365  0.3022
  862MOL0     C16301  11.172   5.953   4.038  0.6171  0.2976 -0.2780
  862MOL0     C16302  11.147   5.863   4.153  0.0395  1.8160 -1.0127
  862MOL0     H16303  11.383   5.429   4.418  1.7497 -1.5786  1.4635
  862MOL0     H16304  11.337   5.274   4.593  0.0455  0.5983 -0.0630
  862MOL0     H16305  11.107   5.455   4.961 -3.2196  1.8018 -4.1642
  862MOL0     H16306  11.051   5.349   4.830  0.3466 -3.0214 -0.1444
  862MOL0     H16307  11.030   5.202   5.032 -2.0485  2.2564 -0.8406
  862MOL0     H16308  11.191   5.174   4.969  1.5414  0.6270  0.5747
  862MOL0     H16309  11.277   5.352   5.146  1.8094 -1.9986  0.3506
  862MOL0     H16310  11.110   5.357   5.188  0.2867  1.3946 -1.1270
  862MOL0     H16311  11.283   5.088   5.184 -0.5375 -0.8192 -1.0376
  862MOL0     H16312  11.267   5.196   5.322 -2.1076  1.1305  0.2285
  862MOL0     H16313  11.025   5.177   5.337 -0.4349  1.6827 -2.5946
  862MOL0     H16314  11.027   5.068   5.196  0.7969 -0.8948 -0.5990
  862MOL0     H16315  10.998   4.934   5.406 -1.2287  0.0091 -1.0384
  862MOL0     H16316  11.164   4.908   5.338  1.8212  3.5168 -2.5465
  862MOL0     H16317  11.256   5.027   5.524 -0.4298 -0.5416  1.1947
  862MOL0     H16318  11.126   5.146   5.519  0.8025  0.5537 -4.4455
  862MOL0     H16319  11.112   4.876   5.657  1.7475  0.7395  0.1743
  862MOL0     H16320  10.971   4.983   5.639  0.6094 -0.9307  0.0732
  862MOL0     H16321  11.307   4.923   5.845  0.2242 -0.7156  2.0668
  862MOL0     H16322  11.277   5.103   6.152  1.8455  0.2254  0.9306
  862MOL0     H16323  11.396   5.017   6.078 -0.3772 -0.1019  2.9192
  862MOL0     H16324  11.354   5.325   6.055 -2.1608 -1.2620  2.9787
  862MOL0     H16325  11.469   5.224   5.950  1.7245 -0.9163  1.8985
  862MOL0     H16326  11.603   5.304   6.131 -1.1516 -0.0545 -2.8954
  862MOL0     H16327  11.562   5.147   6.187  2.7027  0.7684  0.8765
  862MOL0     H16328  11.533   5.287   6.364  0.8404  0.1887  0.0455
  862MOL0     H16329  11.365   5.254   6.315 -2.4615  3.5867 -1.5692
  862MOL0     H16330  11.458   5.674   6.248 -1.0026 -0.1165  0.2044
  862MOL0     H16331  11.535   5.926   6.461 -0.6620 -0.2825  0.2165
  862MOL0     H16332  11.513   5.869   6.298 -1.7153 -1.6847 -0.5888
  862MOL0     H16333  11.374   5.925   6.380  1.0353  3.8891  2.3970
  862MOL0     H16334  11.426   6.029   6.827  0.5407  0.8848  0.3691
  862MOL0     H16335  11.318   6.194   6.978  1.7226 -0.5854 -0.5543
  862MOL0     H16336  11.030   6.087   7.293  0.5735  0.8740 -3.9814
  862MOL0     H16337  11.194   6.029   7.350 -1.2662 -1.7817 -2.2866
  862MOL0     H16338  11.216   6.265   7.463 -0.6053  2.9905 -0.0681
  862MOL0     H16339  11.104   6.324   7.339  3.6619  1.8249  0.1835
  862MOL0     H16340  11.096   6.163   7.594 -1.4065  0.9204  2.4307
  862MOL0     H16341  10.938   6.150   7.507 -1.5541  1.2700  1.6240
  862MOL0     H16342  11.061   6.353   7.687 -0.4508  1.4552 -0.7078
  862MOL0     H16343  11.042   6.427   7.544 -1.8138  1.7069  1.5284
  862MOL0     H16344  10.816   6.287   7.689 -0.2298 -2.1044 -2.3209
  862MOL0     H16345  10.809   6.348   7.520  0.1860 -0.6632 -1.2319
  862MOL0     H16346  10.902   6.561   7.710  0.3844 -2.2863 -0.1778
  862MOL0     H16347  10.773   6.575   7.599 -1.2823 -0.0974 -0.4517
  862MOL0     H16348  10.631   6.451   7.752 -2.1677  2.7209  3.5296
  862MOL0     H16349  10.672   6.594   7.821 -2.2881 -1.5482 -0.1409
  862MOL0     H16350  10.790   6.332   7.892 -1.3893  1.0210 -0.3614
  862MOL0     H16351  10.685   6.435   7.985  0.7025  0.0467  1.5448
  862MOL0     H16352  11.115   5.875   7.187 -1.3292  0.8824 -1.4300
  862MOL0     H16353  11.217   5.724   7.013  3.0651 -0.1022 -4.3745
  862MOL0     H16354  11.326   5.545   6.713 -0.1920  0.7200  0.0013
  862MOL0     H16355  11.334   5.368   6.523  0.9445 -0.1827  0.3273
  862MOL0     H16356  11.192   5.593   4.845  3.6983 -1.3249  3.1417
  862MOL0     H16357  11.237   5.748   4.665 -3.1348  0.2221 -2.4129
  862MOL0     H16358  11.452   5.869   4.295 -1.7692 -3.1098  0.8229
  862MOL0     H16359  11.489   6.046   4.132  1.4123 -2.1157 -1.6330
  862MOL0     H16360  11.427   6.260   4.000 -1.1205 -0.6663 -0.5437
  862MOL0     H16361  11.530   6.145   3.915  1.0795  1.1264  0.9168
  862MOL0     H16362  11.491   6.363   3.793  0.6936 -0.4834 -1.2340
  862MOL0     H16363  11.309   6.322   3.812 -0.7215 -2.9346  0.7008
  862MOL0     H16364  11.314   6.182   3.659 -0.1895 -1.0154 -0.3372
  862MOL0     H16365  11.492   6.137   3.666 -0.3060 -0.5323 -1.7395
  862MOL0     H16366  11.462   6.272   3.461  0.8748 -3.3745  1.8018
  862MOL0     H16367  11.531   6.380   3.573  0.5391 -1.1595 -2.2630
  862MOL0     H16368  11.173   6.565   3.481 -1.0577 -1.7613  0.1644
  862MOL0     H16369  11.086   5.983   3.979 -1.0604 -1.4894  1.0954
  862MOL0     H16370  11.048   5.821   4.163  0.6893  0.6946  1.4796
  863MOL0     O16371   9.479   0.981   5.213 -0.1866 -0.3137 -0.7479
  863MOL0     C16372   9.536   0.906   5.139 -0.1860 -0.3792 -0.8201
  863MOL0     O16373   9.672   0.894   5.118 -0.0333 -0.1678  0.0959
  863MOL0     C16374   9.770   0.964   5.189 -0.3589 -0.2826 -0.6992
  863MOL0     C16375   9.782   1.109   5.186  0.6637  0.3456 -0.4533
  863MOL0     C16376   9.893   1.171   5.258 -0.4313  0.0528  0.0022
  863MOL0     C16377   9.994   1.087   5.311 -0.0863  0.8968 -0.1368
  863MOL0     O16378  10.087   1.136   5.391  0.3899  0.0099 -0.4931
  863MOL0     C16379  10.124   1.275   5.379 -0.1049  1.1648 -0.6461
  863MOL0     C16380  10.226   1.295   5.489  0.6778 -0.1081  0.2896
  863MOL0     C16381  10.287   1.424   5.449  0.1923 -0.0213 -0.8724
  863MOL0     C16382  10.375   1.471   5.561 -1.0389 -0.7252 -0.2588
  863MOL0     C16383  10.486   1.564   5.505 -0.4273  0.3041  0.1387
  863MOL0     C16384  10.591   1.597   5.613  0.1703 -0.6946  0.0428
  863MOL0     C16385  10.539   1.720   5.691 -0.7259 -1.1702  0.2409
  863MOL0     C16386  10.532   1.685   5.844 -0.0921  0.6226  0.3710
  863MOL0     N16387  10.488   1.797   5.932 -0.0295  0.2526  1.5356
  863MOL0     C16388  10.408   1.900   5.891  0.2356 -0.2048 -0.2233
  863MOL0     C16389  10.392   1.966   6.011 -0.2520 -0.7628  0.7259
  863MOL0     C16390  10.313   2.093   6.038  0.4230 -0.3525 -0.0313
  863MOL0     C16391  10.171   2.049   6.047  0.6422  0.5389 -0.4138
  863MOL0     C16392  10.128   1.995   6.186  0.8767  0.2901  1.1259
  863MOL0     C16393   9.981   2.011   6.190  0.4632  0.0910  0.3290
  863MOL0     O16394   9.938   2.005   6.330  0.1514 -0.4868 -0.6694
  863MOL0     C16395   9.983   1.906   6.411  0.6484  0.3253 -0.0353
  863MOL0     C16396   9.966   1.765   6.389 -0.5208 -0.1340 -0.0840
  863MOL0     C16397  10.007   1.679   6.491 -0.0728  0.4247 -0.5340
  863MOL0     C16398   9.978   1.538   6.472  0.6288  0.2026 -0.6892
  863MOL0     C16399  10.076   1.718   6.607 -0.4605 -0.6698 -0.2612
  863MOL0     C16400  10.134   1.626   6.713 -0.8084  0.1935 -0.9350
  863MOL0     O16401  10.233   1.678   6.789 -0.4773  0.6055  0.3625
  863MOL0     C16402  10.302   1.621   6.895  0.4752 -0.1249 -0.0721
  863MOL0     C16403  10.245   1.537   6.994 -0.6029  0.5052  0.0869
  863MOL0     C16404  10.310   1.489   7.112 -0.1335 -0.3165  0.3281
  863MOL0     C16405  10.438   1.538   7.138 -1.0146  0.3213 -0.6917
  863MOL0     O16406  10.507   1.500   7.251 -0.6366  0.1180  0.3334
  863MOL0     C16407  10.445   1.428   7.358 -0.7765 -0.0231 -0.5298
  863MOL0     C16408  10.538   1.416   7.486  0.3968  0.0725  0.4200
  863MOL0     C16409  10.510   1.295   7.570 -0.0626 -0.8051 -0.4990
  863MOL0     C16410  10.408   1.301   7.699  0.0183 -0.4943 -0.7336
  863MOL0     C16411  10.269   1.300   7.650 -0.4035 -0.3421  0.0426
  863MOL0     C16412  10.166   1.232   7.749 -0.1460  0.0645 -0.4221
  863MOL0     C16413  10.022   1.284   7.718  0.4420 -0.2122  0.1965
  863MOL0     C16414   9.943   1.187   7.640  0.0921  0.7899  0.1921
  863MOL0    Cl16415   9.770   1.216   7.677  0.2760  0.1056  0.2853
  863MOL0     C16416  10.500   1.631   7.047  1.0285  0.1442  0.4889
  863MOL0     C16417  10.429   1.680   6.930 -1.1462  0.5108 -0.2038
  863MOL0     O16418  10.097   1.514   6.731 -0.6596  0.1090 -0.4652
  863MOL0     C16419  10.089   1.856   6.617 -0.7600 -0.2820  0.7498
  863MOL0     C16420  10.044   1.948   6.527  0.8905 -0.2486 -0.1116
  863MOL0     N16421  10.472   1.907   6.114 -0.6942 -0.5128  0.1231
  863MOL0     N16422  10.519   1.801   6.064  0.6532 -0.0828  0.1113
  863MOL0     C16423   9.984   0.951   5.300  0.6420  0.4710  0.6490
  863MOL0     C16424   9.878   0.891   5.238 -0.1292 -0.1510  0.3079
  863MOL0     C16425   9.450   0.806   5.068  0.0650  1.4534  0.0843
  863MOL0     C16426   9.312   0.818   5.064 -0.7619 -0.3283 -0.4298
  863MOL0     C16427   9.236   0.710   5.017  0.3515  0.0274 -0.7396
  863MOL0     C16428   9.291   0.595   4.960 -0.7834 -0.2547  0.8758
  863MOL0     O16429   9.227   0.489   4.903 -0.4816  0.3856  1.0889
  863MOL0     C16430   9.080   0.488   4.888  0.4947 -0.3465 -0.3969
  863MOL0     C16431   9.004   0.455   5.020 -1.2479 -0.4978 -0.1733
  863MOL0     C16432   9.006   0.308   5.048 -0.3532  0.2432 -1.2134
  863MOL0     C16433   8.911   0.219   4.974  0.2946 -0.8235  0.1626
  863MOL0     C16434   8.885   0.082   5.027 -0.2623  0.2343  0.8890
  863MOL0     C16435   8.854  -0.030   5.064 -0.0679 -0.2375  0.0199
  863MOL0     C16436   9.424   0.584   4.962  0.6019 -0.3025 -0.4277
  863MOL0     C16437   9.504   0.685   5.016 -0.1507  0.1408 -0.1388
  863MOL0     H16438   9.689   1.159   5.161 -1.5041 -1.9383  2.3832
  863MOL0     H16439   9.878   1.279   5.262 -1.2241 -0.0753  1.0270
  863MOL0     H16440  10.163   1.301   5.281 -3.3430 -0.0851 -2.4329
  863MOL0     H16441  10.038   1.340   5.400  0.2249  1.2316  0.5855
  863MOL0     H16442  10.185   1.292   5.590  2.8101 -1.2458  1.1919
  863MOL0     H16443  10.298   1.212   5.484 -2.5025 -3.1933  1.2797
  863MOL0     H16444  10.346   1.415   5.357  0.8207  0.4465 -0.5241
  863MOL0     H16445  10.209   1.499   5.436 -1.2294 -1.3888 -0.5349
  863MOL0     H16446  10.312   1.520   5.637 -2.9580 -2.7935 -0.4271
  863MOL0     H16447  10.421   1.383   5.606 -0.2762 -0.9011 -1.3725
  863MOL0     H16448  10.542   1.513   5.426  2.0995  3.0137 -0.0085
  863MOL0     H16449  10.439   1.655   5.465  2.7264  1.9350 -0.0998
  863MOL0     H16450  10.603   1.507   5.674 -3.2615 -1.0973  0.3321
  863MOL0     H16451  10.692   1.621   5.579  1.3626 -2.0448  2.3556
  863MOL0     H16452  10.615   1.797   5.681 -1.3891 -0.2602  1.8450
  863MOL0     H16453  10.443   1.758   5.655 -1.2791 -1.4908  1.3242
  863MOL0     H16454  10.634   1.651   5.868 -0.3722  0.0802  0.8281
  863MOL0     H16455  10.471   1.595   5.856 -0.5235  0.8679  0.0249
  863MOL0     H16456  10.367   1.930   5.795 -0.8631 -0.9308 -0.0002
  863MOL0     H16457  10.352   2.122   6.136  1.0233  0.2841 -0.4484
  863MOL0     H16458  10.328   2.160   5.953 -1.0335 -4.1988 -3.7021
  863MOL0     H16459  10.141   1.978   5.969 -0.8681  3.2598 -2.4906
  863MOL0     H16460  10.109   2.138   6.031 -1.2648 -0.7314 -0.3614
  863MOL0     H16461  10.179   2.058   6.259  0.2675  1.7587  0.3261
  863MOL0     H16462  10.159   1.891   6.196  5.2521  1.0925 -1.2769
  863MOL0     H16463   9.922   1.931   6.144 -1.2939  1.1171  0.6848
  863MOL0     H16464   9.949   2.113   6.169  1.4190  0.5848  1.2304
  863MOL0     H16465   9.913   1.727   6.302  0.8096 -0.9140 -0.5906
  863MOL0     H16466  10.056   1.467   6.502 -0.9897 -0.2772  3.0473
  863MOL0     H16467   9.898   1.516   6.544  1.2072  2.0420  0.5990
  863MOL0     H16468   9.941   1.503   6.375  2.4175  0.0176 -1.3399
  863MOL0     H16469  10.142   1.509   6.972 -0.3610  0.1923 -0.6626
  863MOL0     H16470  10.253   1.422   7.175 -3.8716 -0.8130 -3.1675
  863MOL0     H16471  10.347   1.464   7.391 -0.0895 -0.0475  1.6914
  863MOL0     H16472  10.427   1.322   7.337 -0.4828  0.1329 -1.6305
  863MOL0     H16473  10.639   1.412   7.447 -0.3583 -0.9296 -1.5572
  863MOL0     H16474  10.544   1.513   7.537  2.3236 -0.0392  0.4556
  863MOL0     H16475  10.602   1.267   7.623 -1.5617  0.1194  2.8277
  863MOL0     H16476  10.486   1.207   7.509  1.6539 -1.2950 -0.5173
  863MOL0     H16477  10.425   1.214   7.762 -1.2560 -1.5228 -1.7536
  863MOL0     H16478  10.430   1.395   7.752 -0.0330  1.4918 -3.9800
  863MOL0     H16479  10.264   1.243   7.557 -2.8377 -2.4330  1.3413
  863MOL0     H16480  10.240   1.403   7.627 -3.6901 -1.1454  0.1285
  863MOL0     H16481  10.170   1.122   7.747 -0.7994  0.0411 -1.2648
  863MOL0     H16482  10.201   1.276   7.842  1.5535  5.0462 -3.0527
  863MOL0     H16483  10.036   1.381   7.669  2.3030  0.7384  2.4179
  863MOL0     H16484   9.957   1.314   7.801 -1.6812 -1.2116 -1.0392
  863MOL0     H16485   9.978   1.087   7.668  0.9162  2.1618  5.0500
  863MOL0     H16486   9.954   1.196   7.532  0.7393 -1.6551 -0.0117
  863MOL0     H16487  10.592   1.685   7.062  0.5976  0.9968  0.1362
  863MOL0     H16488  10.461   1.755   6.859 -0.4304 -1.2272 -1.8228
  863MOL0     H16489  10.142   1.882   6.708  0.9074  0.3705 -0.3601
  863MOL0     H16490  10.062   2.054   6.537  1.8105 -0.1218 -2.5335
  863MOL0     H16491  10.070   0.895   5.335  1.5944  1.3451 -0.2209
  863MOL0     H16492   9.871   0.783   5.232  3.4744 -0.7183  3.0237
  863MOL0     H16493   9.272   0.917   5.081  3.6806  2.7666 -5.0974
  863MOL0     H16494   9.128   0.713   5.028  0.3813 -0.2021 -0.3691
  863MOL0     H16495   9.043   0.580   4.843 -3.2033 -0.7587  1.4751
  863MOL0     H16496   9.051   0.415   4.811 -1.7076 -1.0713  1.0309
  863MOL0     H16497   8.907   0.504   5.005 -0.1629  2.4251  1.6192
  863MOL0     H16498   9.063   0.499   5.101  0.0364  1.1150 -1.9065
  863MOL0     H16499   8.993   0.277   5.153 -0.6242  2.8701 -0.4026
  863MOL0     H16500   9.108   0.278   5.021  0.6218  1.8353  0.4173
  863MOL0     H16501   8.946   0.210   4.870  3.3325  2.7051  0.6630
  863MOL0     H16502   8.813   0.267   4.983  1.0206  0.6015  0.7538
  863MOL0     H16503   8.834  -0.130   5.097 -1.2909  0.0222  0.1255
  863MOL0     H16504   9.469   0.499   4.912 -2.7802 -1.2675 -2.0641
  863MOL0     H16505   9.612   0.676   5.023 -0.0845 -0.8348 -1.8473
  864MOL0     O16506   0.252   2.063   5.455 -0.4957 -0.5936 -0.3104
  864MOL0     C16507   0.289   1.959   5.407  0.5858  0.5690  0.0857
  864MOL0     O16508   0.304   1.838   5.471  0.1961  0.1251 -0.1332
  864MOL0     C16509   0.331   1.852   5.606 -0.5628 -0.3552  0.5804
  864MOL0     C16510   0.444   1.913   5.664 -0.0035 -0.5265  0.2751
  864MOL0     C16511   0.460   1.920   5.809  0.2464 -0.3082  0.4535
  864MOL0     C16512   0.362   1.863   5.891  0.2828  0.4666  0.6703
  864MOL0     O16513   0.376   1.862   6.023  0.5001 -0.0990 -0.2356
  864MOL0     C16514   0.474   1.947   6.100  0.1350  0.2516  0.0346
  864MOL0     C16515   0.477   1.900   6.246  0.5529  0.4951 -0.0921
  864MOL0     C16516   0.338   1.939   6.305 -0.1300  0.5881 -0.6651
  864MOL0     C16517   0.338   1.966   6.459 -0.2552 -0.8545  0.7256
  864MOL0     C16518   0.191   1.969   6.521  0.1709  0.5554  0.6192
  864MOL0     C16519   0.106   2.090   6.472 -0.5056  0.6050 -0.9602
  864MOL0     C16520  -0.032   2.090   6.545 -0.1111  0.5103 -1.0312
  864MOL0     C16521  -0.029   2.165   6.689  0.5190 -0.0260  0.6631
  864MOL0     N16522  -0.002   2.311   6.659  0.5081 -0.1897  0.2188
  864MOL0     C16523  -0.086   2.413   6.691  0.2435 -0.2639  0.2857
  864MOL0     C16524  -0.008   2.531   6.685  1.5259 -0.0869 -0.5477
  864MOL0     C16525  -0.052   2.678   6.701  0.6813  1.7428 -0.0489
  864MOL0     C16526  -0.066   2.732   6.852  0.6137  0.5861  0.1488
  864MOL0     C16527   0.078   2.738   6.909  0.1364 -0.0209  0.7907
  864MOL0     C16528   0.088   2.766   7.055 -1.0912 -0.0867 -1.0362
  864MOL0     O16529   0.230   2.777   7.101 -0.0308 -0.8573  0.6452
  864MOL0     C16530   0.298   2.900   7.088  0.8058  0.4673 -0.6874
  864MOL0     C16531   0.426   2.900   7.141 -0.1392  0.3462 -0.2904
  864MOL0     C16532   0.498   3.018   7.156 -1.6601 -0.3641  0.6525
  864MOL0     C16533   0.630   3.005   7.230  0.6976  0.6527 -0.6387
  864MOL0     C16534   0.443   3.146   7.120 -0.4116  1.1183 -0.6829
  864MOL0     C16535   0.500   3.285   7.148  0.5006  0.5207  0.0191
  864MOL0     O16536   0.419   3.383   7.109  0.5408 -0.5873 -0.5730
  864MOL0     C16537   0.458   3.516   7.132 -0.6315 -0.1856 -1.2166
  864MOL0     C16538   0.464   3.601   7.026  0.6181 -0.9318  0.4182
  864MOL0     C16539   0.478   3.739   7.043  0.3022  0.1766 -0.6533
  864MOL0     C16540   0.505   3.783   7.176 -0.6636 -1.1827  0.2013
  864MOL0     O16541   0.548   3.911   7.212 -0.0910 -0.4959 -0.0848
  864MOL0     C16542   0.578   4.013   7.111  1.3378  0.2968 -0.9163
  864MOL0     C16543   0.632   4.132   7.181 -0.1090 -0.5635 -0.1926
  864MOL0     C16544   0.531   4.206   7.275 -0.5064 -0.1514 -0.7622
  864MOL0     C16545   0.586   4.339   7.310 -0.9820 -0.4615 -0.1729
  864MOL0     C16546   0.552   4.442   7.199 -0.3645 -0.3641  1.9872
  864MOL0     C16547   0.395   4.471   7.190  0.5327  0.5340  0.7613
  864MOL0     C16548   0.318   4.515   7.320 -0.6835 -0.9084 -0.2410
  864MOL0     C16549   0.191   4.575   7.293 -0.3656 -0.0699 -0.5368
  864MOL0    Cl16550   0.216   4.730   7.211  0.2387  0.1561 -0.0814
  864MOL0     C16551   0.518   3.694   7.275  0.5484  0.8604 -0.1693
  864MOL0     C16552   0.491   3.557   7.260  0.3916 -0.0445  0.5089
  864MOL0     O16553   0.615   3.299   7.179 -0.4400 -0.1770 -0.3313
  864MOL0     C16554   0.314   3.135   7.057  0.8136  0.2209 -0.2860
  864MOL0     C16555   0.238   3.013   7.044  0.2477 -1.1380  0.4876
  864MOL0     N16556   0.123   2.493   6.658  0.6034 -1.0773 -0.6214
  864MOL0     N16557   0.120   2.370   6.630 -0.6964  0.3643 -0.6717
  864MOL0     C16558   0.253   1.794   5.832 -0.2148  0.2956  0.5133
  864MOL0     C16559   0.234   1.784   5.695 -0.8042 -0.0863 -0.3605
  864MOL0     C16560   0.308   1.947   5.259 -0.1324 -0.7047 -0.2917
  864MOL0     C16561   0.244   2.045   5.175  0.1807  0.4202 -0.4089
  864MOL0     C16562   0.263   2.053   5.041  0.3473 -0.5283  0.2464
  864MOL0     C16563   0.336   1.949   4.977  0.9541  0.5053 -0.4192
  864MOL0     O16564   0.363   1.960   4.847 -0.4019  0.6516  0.8167
  864MOL0     C16565   0.249   1.959   4.757 -0.0032  0.0029 -0.7837
  864MOL0     C16566   0.257   2.099   4.692  0.2317  0.2728  0.1318
  864MOL0     C16567   0.361   2.093   4.583  0.6738 -0.1635 -0.6020
  864MOL0     C16568   0.322   2.183   4.459  0.3351 -0.0711 -0.3992
  864MOL0     C16569   0.340   2.327   4.493  0.6631 -0.3319  0.3130
  864MOL0     C16570   0.369   2.445   4.515  0.1900 -0.0754 -0.1584
  864MOL0     C16571   0.391   1.847   5.056 -0.2234 -0.4869  0.0175
  864MOL0     C16572   0.379   1.853   5.197  0.6068  0.3118  0.4972
  864MOL0     H16573   0.522   1.941   5.594 -2.2404  1.8429 -1.4424
  864MOL0     H16574   0.532   1.989   5.850 -4.2095  3.7107  2.4516
  864MOL0     H16575   0.571   1.952   6.050 -0.4477  1.9672 -1.0273
  864MOL0     H16576   0.437   2.050   6.100  0.4255  0.3539  0.1506
  864MOL0     H16577   0.492   1.792   6.256  0.1996  0.5219  0.8842
  864MOL0     H16578   0.551   1.953   6.307  1.6258 -0.9249 -0.1118
  864MOL0     H16579   0.297   2.031   6.261 -3.7046  1.3497  3.5029
  864MOL0     H16580   0.264   1.863   6.280 -1.0069  1.1535  0.1244
  864MOL0     H16581   0.392   1.883   6.506  0.0703 -1.2019 -0.2295
  864MOL0     H16582   0.382   2.064   6.479 -0.8286  0.0032 -1.8544
  864MOL0     H16583   0.131   1.881   6.498  0.7275  0.8435 -2.3323
  864MOL0     H16584   0.214   1.975   6.628 -0.7837 -3.1766  1.1784
  864MOL0     H16585   0.169   2.174   6.505  2.7920 -1.5875 -1.2008
  864MOL0     H16586   0.093   2.083   6.364 -1.9090 -2.2501 -0.7150
  864MOL0     H16587  -0.100   2.153   6.488 -2.1008 -0.1564  0.4787
  864MOL0     H16588  -0.087   1.996   6.548 -0.3312  0.5942  2.4725
  864MOL0     H16589   0.063   2.125   6.732  2.2381  1.2027 -1.5869
  864MOL0     H16590  -0.124   2.149   6.740  0.7769  0.1632  1.2101
  864MOL0     H16591  -0.193   2.399   6.701  0.3319 -0.3979  1.1641
  864MOL0     H16592   0.019   2.737   6.642  1.0957  0.5802 -0.7508
  864MOL0     H16593  -0.153   2.687   6.660 -0.2322  0.0625  1.6872
  864MOL0     H16594  -0.126   2.661   6.910  1.3836 -1.8156 -1.8296
  864MOL0     H16595  -0.110   2.832   6.856 -0.4563  0.2385 -1.9545
  864MOL0     H16596   0.133   2.821   6.864 -0.8960  1.6610  2.5017
  864MOL0     H16597   0.145   2.654   6.890  0.9814 -0.9265  6.1212
  864MOL0     H16598   0.042   2.682   7.107  0.4197 -0.7586 -0.7426
  864MOL0     H16599   0.030   2.855   7.080 -0.2146 -0.0664  1.1622
  864MOL0     H16600   0.455   2.802   7.175 -2.3006  0.6452  2.8504
  864MOL0     H16601   0.698   3.034   7.149 -2.5887 -3.7743 -5.7175
  864MOL0     H16602   0.637   3.064   7.322  2.2190 -2.1940  1.2329
  864MOL0     H16603   0.663   2.901   7.245 -0.5395  0.1358 -1.3723
  864MOL0     H16604   0.431   3.565   6.929 -1.3252 -2.7938  1.6662
  864MOL0     H16605   0.462   3.809   6.961 -1.0763 -0.3466 -0.8551
  864MOL0     H16606   0.647   3.973   7.036 -2.4468 -4.0329 -2.5786
  864MOL0     H16607   0.482   4.036   7.064  0.5787  1.5009  1.1149
  864MOL0     H16608   0.715   4.086   7.235 -1.9794 -3.1712  0.6561
  864MOL0     H16609   0.663   4.197   7.098 -0.2872 -3.3275 -2.5913
  864MOL0     H16610   0.524   4.145   7.365 -2.1855 -2.7043 -2.5213
  864MOL0     H16611   0.429   4.205   7.237 -1.6522 -0.7945  2.0973
  864MOL0     H16612   0.541   4.379   7.402 -2.5480  1.7859 -1.7975
  864MOL0     H16613   0.694   4.325   7.326 -1.2920 -2.9613  0.0549
  864MOL0     H16614   0.577   4.416   7.095 -1.0052 -1.1154  2.0105
  864MOL0     H16615   0.594   4.541   7.218 -1.6884  0.4230  1.0557
  864MOL0     H16616   0.383   4.545   7.111  2.4128 -2.7939 -2.9688
  864MOL0     H16617   0.349   4.378   7.156  1.0868 -0.0732  1.6229
  864MOL0     H16618   0.373   4.598   7.364 -0.3413  0.5202 -3.1670
  864MOL0     H16619   0.306   4.435   7.394 -1.8287  0.1752  0.8100
  864MOL0     H16620   0.137   4.587   7.387 -1.1950  2.3877 -1.2203
  864MOL0     H16621   0.121   4.510   7.239 -0.0071 -1.1393  0.2505
  864MOL0     H16622   0.561   3.717   7.372 -0.4640  2.3653 -0.0492
  864MOL0     H16623   0.496   3.484   7.340  1.4498  0.3333  0.8024
  864MOL0     H16624   0.268   3.227   7.024  1.0539  1.2597  2.0634
  864MOL0     H16625   0.142   3.025   6.996  0.5766 -2.7538 -0.6570
  864MOL0     H16626   0.183   1.734   5.889  0.4305  0.0982  1.1059
  864MOL0     H16627   0.153   1.723   5.655 -0.8894 -1.7310  2.1354
  864MOL0     H16628   0.180   2.115   5.228  0.1129 -0.2762  0.4500
  864MOL0     H16629   0.238   2.145   4.990  2.7005  0.5012  0.8066
  864MOL0     H16630   0.254   1.883   4.678 -2.8169 -0.2985 -0.7950
  864MOL0     H16631   0.153   1.955   4.809 -0.1544  3.7272 -0.5022
  864MOL0     H16632   0.285   2.182   4.758 -0.4421  0.8519 -0.2962
  864MOL0     H16633   0.157   2.130   4.660  0.1734  4.3164  3.3497
  864MOL0     H16634   0.380   1.992   4.547  0.8515 -0.4741  0.3245
  864MOL0     H16635   0.457   2.117   4.628  0.9692 -0.1341 -1.2383
  864MOL0     H16636   0.224   2.164   4.415  0.4257 -0.8059 -0.2882
  864MOL0     H16637   0.388   2.157   4.377 -1.8617 -0.4904 -2.1462
  864MOL0     H16638   0.398   2.548   4.509 -1.0898  0.3093 -0.1157
  864MOL0     H16639   0.445   1.770   5.003  0.8132  1.8212 -2.5075
  864MOL0     H16640   0.424   1.773   5.255 -0.1116 -1.3670 -1.1696
  865MOL0     O16641   7.324   3.233   8.649  0.3633 -0.3385  0.9166
  865MOL0     C16642   7.402   3.143   8.670 -1.8759 -0.5189  0.0308
  865MOL0     O16643   7.529   3.166   8.718  0.0200  0.6805  0.1385
  865MOL0     C16644   7.543   3.277   8.799 -1.5510  0.2349 -0.2314
  865MOL0     C16645   7.593   3.394   8.747  0.7805  0.0630  0.7715
  865MOL0     C16646   7.608   3.516   8.814  0.3333  0.7716 -1.0507
  865MOL0     C16647   7.557   3.512   8.943 -0.0038  0.0077 -0.3955
  865MOL0     O16648   7.565   3.635   9.018  0.1781  0.2074 -0.2135
  865MOL0     C16649   7.608   3.632   9.155  0.0072  0.0911  0.4171
  865MOL0     C16650   7.527   3.737   9.255  0.5177  0.4215  0.5375
  865MOL0     C16651   7.562   3.726   9.400  0.5925 -0.4132 -0.3754
  865MOL0     C16652   7.696   3.783   9.435 -0.2013  0.2531  1.0987
  865MOL0     C16653   7.714   3.777   9.583  0.6630 -0.6391 -0.4040
  865MOL0     C16654   7.856   3.824   9.625  0.6889  0.6651 -0.3688
  865MOL0     C16655   7.903   3.747   9.743 -0.1393  0.2935 -0.2990
  865MOL0     C16656   8.042   3.784   9.793  0.1210 -0.1463 -0.0950
  865MOL0     N16657   8.037   3.898   9.889  0.1614  0.1922  0.5308
  865MOL0     C16658   8.103   4.023   9.861 -0.9472 -0.3925  0.1181
  865MOL0     C16659   8.077   4.101   9.970  1.0970 -0.2157  0.0734
  865MOL0     C16660   8.124   4.236  10.008 -0.3375 -0.1219  1.1306
  865MOL0     C16661   8.017   4.350   9.988  0.4714 -0.6355  0.6511
  865MOL0     C16662   7.952   4.344   9.852  0.7160 -0.1275 -0.1821
  865MOL0     C16663   8.050   4.398   9.746 -0.6666 -0.1737 -0.8949
  865MOL0     O16664   7.977   4.393   9.618 -0.5094  0.7161  0.2312
  865MOL0     C16665   7.895   4.493   9.571  0.9353 -0.5384  0.4928
  865MOL0     C16666   7.843   4.476   9.446 -0.8724 -0.4256 -0.8060
  865MOL0     C16667   7.767   4.573   9.381 -0.3186  1.3772  0.3124
  865MOL0     C16668   7.739   4.551   9.235 -0.6778  0.0556  0.4640
  865MOL0     C16669   7.731   4.694   9.449  0.9305  0.0078  0.3324
  865MOL0     C16670   7.642   4.796   9.388 -0.4720  0.4472  0.5054
  865MOL0     O16671   7.681   4.928   9.414 -0.2392  0.4663  0.0559
  865MOL0     C16672   7.620   5.045   9.372 -0.2319  0.3588  0.4666
  865MOL0     C16673   7.654   5.157   9.441  0.6476  0.2092 -0.6164
  865MOL0     C16674   7.594   5.283   9.419  0.3673  0.9173  0.2142
  865MOL0     C16675   7.502   5.303   9.317  0.7545 -0.2028  0.3726
  865MOL0     O16676   7.446   5.433   9.304 -0.9013  0.3450  0.1960
  865MOL0     C16677   7.352   5.458   9.195  0.2588  0.8567 -0.3078
  865MOL0     C16678   7.335   5.599   9.153  0.2776 -0.8344 -0.4637
  865MOL0     C16679   7.341   5.716   9.254 -0.3735  0.5391 -1.0956
  865MOL0     C16680   7.236   5.709   9.370  0.1497 -0.0709 -0.2836
  865MOL0     C16681   7.088   5.666   9.341  0.3340 -0.7113  1.0407
  865MOL0     C16682   7.013   5.743   9.237  0.0116  0.1277  1.1858
  865MOL0     C16683   7.032   5.889   9.280  0.5063  0.8742 -0.3176
  865MOL0     C16684   6.982   5.999   9.189  0.1589  0.1873 -0.8152
  865MOL0    Cl16685   7.055   6.151   9.264  0.1571  0.3408 -0.0951
  865MOL0     C16686   7.465   5.182   9.250 -0.2597  0.4263 -0.2384
  865MOL0     C16687   7.520   5.055   9.278  0.0757 -0.1467  0.4013
  865MOL0     O16688   7.534   4.763   9.333 -0.9624 -0.0711  0.8548
  865MOL0     C16689   7.787   4.715   9.583 -1.0375 -0.1281 -0.2175
  865MOL0     C16690   7.861   4.608   9.639  1.1555 -0.1534 -0.4596
  865MOL0     N16691   7.993   4.033  10.049  0.1568  0.0604 -0.3671
  865MOL0     N16692   7.964   3.923  10.001  0.3119 -1.0656  0.1996
  865MOL0     C16693   7.509   3.395   9.001 -0.0117  0.8736 -0.1380
  865MOL0     C16694   7.510   3.271   8.937 -0.2581  0.1123  0.3546
  865MOL0     C16695   7.363   3.009   8.634  0.6074 -0.4898  0.2565
  865MOL0     C16696   7.231   2.992   8.583 -0.4310 -0.8949  0.4757
  865MOL0     C16697   7.181   2.861   8.568  0.2556 -0.5298  1.0180
  865MOL0     C16698   7.258   2.748   8.615  1.0970  0.3007  0.0136
  865MOL0     O16699   7.215   2.618   8.613 -0.0341 -1.2700  0.7223
  865MOL0     C16700   7.170   2.575   8.479  0.3073  0.1330  0.5227
  865MOL0     C16701   7.296   2.506   8.425  0.0389 -0.2523 -0.0655
  865MOL0     C16702   7.266   2.437   8.291 -0.7616  0.2973  0.8805
  865MOL0     C16703   7.244   2.280   8.295 -0.2713 -0.6939  0.0433
  865MOL0     C16704   7.111   2.255   8.353 -0.2641  0.8074 -0.6066
  865MOL0     C16705   6.998   2.226   8.390  0.2165 -0.6453  0.4191
  865MOL0     C16706   7.390   2.762   8.663 -0.2400 -0.4223  0.7093
  865MOL0     C16707   7.443   2.893   8.661 -0.1289 -0.0376 -1.1570
  865MOL0     H16708   7.623   3.398   8.643  3.4365  0.2472  1.4670
  865MOL0     H16709   7.655   3.598   8.760  3.6434 -0.0026  0.4189
  865MOL0     H16710   7.598   3.536   9.206  0.0699 -1.0199 -1.5596
  865MOL0     H16711   7.717   3.639   9.160 -0.0715  1.5184  0.5847
  865MOL0     H16712   7.548   3.836   9.213  4.5122 -0.5858 -0.2192
  865MOL0     H16713   7.420   3.716   9.253  0.6331 -0.3497  1.5303
  865MOL0     H16714   7.485   3.772   9.463 -1.4343 -2.0509 -1.5144
  865MOL0     H16715   7.561   3.620   9.428  1.8997 -0.6636 -1.1877
  865MOL0     H16716   7.765   3.722   9.376  0.8624  0.4969  2.0504
  865MOL0     H16717   7.727   3.880   9.397  2.4843 -0.6282  0.8702
  865MOL0     H16718   7.637   3.841   9.629 -1.1250 -2.3517 -0.8791
  865MOL0     H16719   7.690   3.676   9.617 -2.0662 -0.8066 -2.5116
  865MOL0     H16720   7.920   3.803   9.539  0.6110  0.2049 -0.3184
  865MOL0     H16721   7.858   3.928   9.659 -1.5671  0.1587  1.6053
  865MOL0     H16722   7.840   3.770   9.829  0.9152  1.0241  0.3075
  865MOL0     H16723   7.893   3.647   9.700  0.1546  0.5035 -0.8661
  865MOL0     H16724   8.108   3.806   9.708  0.9707 -3.1269 -0.3218
  865MOL0     H16725   8.079   3.694   9.844 -1.7261 -0.9544 -0.0847
  865MOL0     H16726   8.169   4.032   9.776 -1.3454  1.3954 -0.0318
  865MOL0     H16727   8.151   4.237  10.114 -2.3639  0.6349  1.6786
  865MOL0     H16728   8.214   4.268   9.954  1.4112 -3.1375  2.0473
  865MOL0     H16729   8.059   4.449  10.004 -2.3171  0.7663 -0.0774
  865MOL0     H16730   7.950   4.340  10.075  1.3070 -1.3420  1.2358
  865MOL0     H16731   7.861   4.403   9.841  0.9181  0.1753 -0.2426
  865MOL0     H16732   7.915   4.243   9.829  0.3661  0.3788 -2.0659
  865MOL0     H16733   8.140   4.336   9.739  0.1159  0.4430  2.1147
  865MOL0     H16734   8.083   4.499   9.772  2.4792 -1.4626  0.6812
  865MOL0     H16735   7.887   4.394   9.390 -0.2780 -1.7178  1.4130
  865MOL0     H16736   7.738   4.646   9.181 -3.0148 -0.8222 -1.2002
  865MOL0     H16737   7.821   4.497   9.189 -2.8010 -4.1733  1.1900
  865MOL0     H16738   7.643   4.501   9.221 -1.2451  1.8932 -3.7162
  865MOL0     H16739   7.721   5.131   9.523  2.7206 -0.8030 -2.5269
  865MOL0     H16740   7.616   5.364   9.488  2.4007  0.8907 -0.3165
  865MOL0     H16741   7.388   5.396   9.112 -1.0802  1.4871 -1.3901
  865MOL0     H16742   7.256   5.424   9.235 -1.0457 -0.5851 -4.1815
  865MOL0     H16743   7.408   5.633   9.079  0.3411  0.6002  0.2366
  865MOL0     H16744   7.236   5.595   9.108  0.1255 -3.0673 -0.0611
  865MOL0     H16745   7.339   5.812   9.203 -0.6101  1.9617  1.4366
  865MOL0     H16746   7.443   5.713   9.295 -0.7538 -0.6578 -0.1903
  865MOL0     H16747   7.272   5.621   9.425  2.1579  0.4321 -0.7104
  865MOL0     H16748   7.252   5.799   9.430 -0.7106  0.9661 -1.5566
  865MOL0     H16749   7.028   5.667   9.432 -1.8449 -0.4104 -0.3182
  865MOL0     H16750   7.088   5.562   9.308 -1.5871 -0.8428  1.3714
  865MOL0     H16751   7.060   5.728   9.140 -1.4038 -3.2444  0.8819
  865MOL0     H16752   6.909   5.710   9.226 -0.3236  1.6624 -0.5952
  865MOL0     H16753   7.141   5.903   9.286  0.7531 -0.8465 -0.4564
  865MOL0     H16754   6.983   5.913   9.375 -1.0970 -0.0410 -0.8791
  865MOL0     H16755   6.873   6.012   9.190  0.4079  3.4031 -1.6114
  865MOL0     H16756   7.032   5.985   9.093  2.3073 -0.6363  0.3570
  865MOL0     H16757   7.390   5.187   9.172 -2.3219 -1.1370  1.5243
  865MOL0     H16758   7.502   4.971   9.213  0.8509 -1.3815  1.7375
  865MOL0     H16759   7.755   4.804   9.635 -4.1350 -1.4194  0.2772
  865MOL0     H16760   7.896   4.626   9.740  1.6060 -0.6461 -0.5243
  865MOL0     H16761   7.480   3.402   9.105  2.2414  0.6602  0.5581
  865MOL0     H16762   7.462   3.179   8.971  2.1817 -0.5935  2.1916
  865MOL0     H16763   7.168   3.080   8.579  0.7493  0.0001  1.1094
  865MOL0     H16764   7.078   2.858   8.532  0.1895  2.3612  0.7017
  865MOL0     H16765   7.094   2.497   8.489  0.9906 -0.4127  1.6172
  865MOL0     H16766   7.134   2.655   8.414 -2.3151 -0.9052  0.5962
  865MOL0     H16767   7.338   2.437   8.498  4.3824  1.2294 -0.9028
  865MOL0     H16768   7.376   2.580   8.430  1.0359 -1.3856  2.3538
  865MOL0     H16769   7.346   2.457   8.219 -1.1432  0.3486  0.4598
  865MOL0     H16770   7.175   2.481   8.248  0.1863  1.1196 -0.3479
  865MOL0     H16771   7.316   2.220   8.352  1.0469 -1.3048 -2.1595
  865MOL0     H16772   7.246   2.241   8.193  0.9722 -1.8865  0.4924
  865MOL0     H16773   6.900   2.213   8.430 -1.5377 -1.0422 -3.5645
  865MOL0     H16774   7.450   2.673   8.675 -0.5370 -0.8523 -0.7378
  865MOL0     H16775   7.539   2.912   8.707 -1.0952  2.6809 -0.0700
  866MOL0     O16776  10.974  10.143   5.203  0.0368  0.2475 -0.7635
  866MOL0     C16777  11.073  10.082   5.239  0.3587 -0.5833  0.0232
  866MOL0     O16778  11.186  10.149   5.271  0.2849  0.1122 -0.4128
  866MOL0     C16779  11.172  10.287   5.292 -0.1347  0.3759 -0.3091
  866MOL0     C16780  11.090  10.338   5.393  0.2306  0.1608 -0.4138
  866MOL0     C16781  11.084  10.477   5.414 -0.6419 -0.1597 -0.0588
  866MOL0     C16782  11.169  10.568   5.356  1.2013  0.8412  0.0565
  866MOL0     O16783  11.160  10.694   5.407 -0.7643  0.2959 -0.0517
  866MOL0     C16784  11.268  10.785   5.376  0.6107  0.4418  0.2291
  866MOL0     C16785  11.217  10.926   5.423 -0.3321 -0.0461  0.4567
  866MOL0     C16786  11.325  11.039   5.409  0.2731  0.7296 -0.3575
  866MOL0     C16787  11.370  11.060   5.262  0.0386 -0.4091 -0.3403
  866MOL0     C16788  11.511  11.125   5.243 -0.0111  0.0458  0.4480
  866MOL0     C16789  11.632  11.026   5.258  0.0910  0.3934 -0.0655
  866MOL0     C16790  11.617  10.871   5.229  0.0371  0.2696 -1.7091
  866MOL0     C16791  11.580  10.836   5.083 -0.0804 -0.6942  0.1249
  866MOL0     N16792  11.588  10.694   5.048 -0.0914  0.3622  0.4135
  866MOL0     C16793  11.698  10.622   5.039  0.5581 -0.0668  0.5140
  866MOL0     C16794  11.653  10.501   4.977 -0.4012 -0.4232  0.2857
  866MOL0     C16795  11.736  10.383   4.960  0.3346 -0.8731 -0.2859
  866MOL0     C16796  11.820  10.417   4.828  0.3369  0.0059 -0.0209
  866MOL0     C16797  11.939  10.323   4.804 -0.9989  0.0285  1.1004
  866MOL0     C16798  11.987  10.344   4.656 -0.7187 -0.3413 -1.1587
  866MOL0     O16799  12.119  10.299   4.620 -0.8886  0.4765  0.5888
  866MOL0     C16800  12.142  10.252   4.496  0.5725 -0.3667  1.0013
  866MOL0     C16801  12.275  10.256   4.457 -0.7634  0.4011 -1.0137
  866MOL0     C16802  12.314  10.218   4.322 -0.7324  0.1233 -0.6742
  866MOL0     C16803  12.456  10.239   4.276 -0.3318  0.2646 -0.4204
  866MOL0     C16804  12.217  10.160   4.243 -0.7715  0.0893 -0.1247
  866MOL0     C16805  12.244  10.119   4.095  0.2575 -0.0409 -0.1764
  866MOL0     O16806  12.175  10.189   3.993 -0.0485  0.1256  0.2659
  866MOL0     C16807  12.235  10.225   3.873 -0.3763  0.1261 -0.7162
  866MOL0     C16808  12.345  10.162   3.821 -0.7640 -0.2830  0.0631
  866MOL0     C16809  12.408  10.202   3.699  0.2099 -0.6690  0.8899
  866MOL0     C16810  12.350  10.295   3.618  0.4229 -0.2139 -0.5222
  866MOL0     O16811  12.414  10.320   3.499 -0.3502  0.7591  0.1353
  866MOL0     C16812  12.464  10.452   3.486  0.5579  0.6696  0.8521
  866MOL0     C16813  12.400  10.536   3.368  0.4406 -0.0517  0.8730
  866MOL0     C16814  12.373  10.446   3.236  0.9630  0.3119 -0.7309
  866MOL0     C16815  12.500  10.390   3.184  0.8930 -0.1241  0.1499
  866MOL0     C16816  12.490  10.300   3.056  0.9150 -0.3183  0.1733
  866MOL0     C16817  12.618  10.240   3.017 -0.4683 -0.2330  0.0999
  866MOL0     C16818  12.606  10.121   2.931 -1.0568  0.3498  0.9079
  866MOL0     C16819  12.738  10.043   2.916  0.8247 -0.0315 -0.9465
  866MOL0    Cl16820  12.712   9.877   2.862  0.5218  0.0477  0.3902
  866MOL0     C16821  12.232  10.351   3.665 -0.6040  0.4642  0.0859
  866MOL0     C16822  12.183  10.332   3.799  0.7073  0.1949  0.8494
  866MOL0     O16823  12.334  10.040   4.086 -0.2708 -0.6249 -0.5327
  866MOL0     C16824  12.082  10.152   4.280 -0.0869  0.0248 -0.4674
  866MOL0     C16825  12.049  10.195   4.407  0.6200  0.4249  0.3370
  866MOL0     N16826  11.516  10.510   4.950  0.4291  0.3469 -0.2688
  866MOL0     N16827  11.475  10.619   4.995  0.5266 -1.0757 -0.1982
  866MOL0     C16828  11.248  10.519   5.251 -0.3529 -0.3195 -0.5836
  866MOL0     C16829  11.253  10.380   5.225  0.0212 -0.0317 -0.2277
  866MOL0     C16830  11.084   9.935   5.223  0.5505 -0.4539 -0.0507
  866MOL0     C16831  11.203   9.873   5.191  0.7200  0.4282 -0.0243
  866MOL0     C16832  11.204   9.739   5.164 -0.5914  0.8843 -0.3296
  866MOL0     C16833  11.086   9.663   5.190 -0.0212 -0.1910 -0.9698
  866MOL0     O16834  11.078   9.524   5.171  0.0794  0.1317  0.7462
  866MOL0     C16835  11.168   9.433   5.227  0.2984 -0.4629 -0.2523
  866MOL0     C16836  11.169   9.461   5.380 -0.1785 -0.6365 -0.0803
  866MOL0     C16837  11.243   9.350   5.459 -0.0766 -0.3550 -1.2320
  866MOL0     C16838  11.157   9.227   5.503  0.1037 -0.8068 -0.2210
  866MOL0     C16839  11.226   9.174   5.628  0.6167 -0.4601  0.3895
  866MOL0     C16840  11.273   9.115   5.726 -0.1797  0.4446  0.0555
  866MOL0     C16841  10.966   9.726   5.230  0.0318 -0.0647 -0.2189
  866MOL0     C16842  10.969   9.862   5.252 -0.3413 -0.4163  0.4464
  866MOL0     H16843  11.022  10.266   5.437  0.7513 -0.8192 -1.1682
  866MOL0     H16844  11.017  10.505   5.495  1.5495 -0.5045  1.9845
  866MOL0     H16845  11.361  10.755   5.426  1.1046  2.1071  0.3581
  866MOL0     H16846  11.282  10.789   5.268 -2.7787  2.6709 -0.2852
  866MOL0     H16847  11.131  10.939   5.357 -1.9699 -1.9801  2.0618
  866MOL0     H16848  11.178  10.923   5.525 -0.9334 -0.6156  0.2216
  866MOL0     H16849  11.276  11.135   5.425 -1.1801  0.2353 -1.6182
  866MOL0     H16850  11.399  11.017   5.487 -1.0119  1.7324  1.2199
  866MOL0     H16851  11.365  10.963   5.212 -3.1611 -0.6308  0.2372
  866MOL0     H16852  11.300  11.132   5.218 -1.1346 -0.3916  1.4577
  866MOL0     H16853  11.509  11.178   5.148 -0.3963  0.3973  0.6471
  866MOL0     H16854  11.518  11.202   5.321 -0.8546 -0.5634  1.1423
  866MOL0     H16855  11.718  11.068   5.204 -1.1427  2.9544 -0.1829
  866MOL0     H16856  11.661  11.030   5.363  1.2653  2.2423 -0.4033
  866MOL0     H16857  11.709  10.823   5.263 -2.3037 -3.3815  0.1805
  866MOL0     H16858  11.540  10.825   5.291  1.3822  0.2977  0.0354
  866MOL0     H16859  11.649  10.876   5.008 -4.6339  0.7284 -3.8232
  866MOL0     H16860  11.481  10.876   5.059  0.3972 -0.0494 -0.8122
  866MOL0     H16861  11.793  10.666   5.068  0.7861  1.4218 -2.1722
  866MOL0     H16862  11.804  10.369   5.044  1.0776 -3.6695 -1.2597
  866MOL0     H16863  11.680  10.290   4.942 -0.4858 -0.3553 -0.4618
  866MOL0     H16864  11.852  10.522   4.836 -3.1589  1.0884  3.5259
  866MOL0     H16865  11.742  10.410   4.752 -1.7956 -2.0934  2.1610
  866MOL0     H16866  11.916  10.216   4.805 -1.4502  0.1156  0.5672
  866MOL0     H16867  12.030  10.344   4.862  0.1103  3.3427 -1.5045
  866MOL0     H16868  12.002  10.452   4.658 -0.2618 -0.3705  2.3159
  866MOL0     H16869  11.904  10.318   4.589 -0.7360 -0.6461 -1.0230
  866MOL0     H16870  12.344  10.293   4.531 -0.2140 -2.2050 -0.1227
  866MOL0     H16871  12.517  10.300   4.343  1.0540 -1.6802  0.2019
  866MOL0     H16872  12.498  10.138   4.288  2.9276  1.3716 -1.5104
  866MOL0     H16873  12.450  10.265   4.170 -0.8086  2.2276  0.0545
  866MOL0     H16874  12.402  10.085   3.872  3.0360  1.6285 -0.9182
  866MOL0     H16875  12.504  10.161   3.670  0.8165  2.1612 -1.5838
  866MOL0     H16876  12.443  10.503   3.580  0.2752  2.8469 -0.3300
  866MOL0     H16877  12.573  10.451   3.476  0.3526 -0.0258 -2.4877
  866MOL0     H16878  12.310  10.591   3.396 -0.0358 -0.5272  0.2794
  866MOL0     H16879  12.473  10.612   3.338 -0.3182  0.3473  0.0165
  866MOL0     H16880  12.324  10.512   3.164  1.7811  1.7307 -0.0333
  866MOL0     H16881  12.302  10.367   3.263  2.3853 -1.1874 -1.1962
  866MOL0     H16882  12.566  10.473   3.154 -0.2397  0.5641 -0.5139
  866MOL0     H16883  12.539  10.325   3.262 -4.5600 -3.9424  0.2233
  866MOL0     H16884  12.448  10.356   2.972 -0.5778 -0.8095  0.5662
  866MOL0     H16885  12.425  10.213   3.064  0.3874 -0.6184 -4.5409
  866MOL0     H16886  12.679  10.317   2.968  1.3244 -1.0161  1.0360
  866MOL0     H16887  12.663  10.200   3.108  0.2744 -1.7942 -0.9040
  866MOL0     H16888  12.574  10.154   2.832 -3.9450  3.9725  2.8265
  866MOL0     H16889  12.533  10.053   2.976 -0.4221 -0.2803  1.0231
  866MOL0     H16890  12.785  10.026   3.014 -3.1248 -1.0356  0.9541
  866MOL0     H16891  12.800  10.109   2.853  3.5597 -1.2558  0.2844
  866MOL0     H16892  12.176  10.422   3.605  2.5190  3.2789  0.2595
  866MOL0     H16893  12.091  10.377   3.836 -0.2503  0.9977 -2.1831
  866MOL0     H16894  12.011  10.109   4.211  0.1702  0.7161 -1.1852
  866MOL0     H16895  11.943  10.176   4.422  0.6649 -0.9598 -0.8399
  866MOL0     H16896  11.306  10.590   5.194 -1.3224 -0.9199 -2.4118
  866MOL0     H16897  11.306  10.329   5.146 -1.9731 -0.4874 -1.3381
  866MOL0     H16898  11.284   9.943   5.173  0.0957  0.5109 -3.1216
  866MOL0     H16899  11.290   9.688   5.123 -1.2035  0.3018 -0.9269
  866MOL0     H16900  11.129   9.335   5.199 -1.1158  0.0259 -0.0427
  866MOL0     H16901  11.271   9.436   5.190 -0.0910  3.4906 -1.4938
  866MOL0     H16902  11.063   9.463   5.409  0.1681  2.5119  1.3179
  866MOL0     H16903  11.230   9.545   5.412  2.3404 -2.1761 -0.5430
  866MOL0     H16904  11.302   9.401   5.536  0.7308 -2.6864 -0.2146
  866MOL0     H16905  11.324   9.316   5.394  0.3705  2.2621 -2.1588
  866MOL0     H16906  11.146   9.153   5.423  1.1951 -0.1049 -1.0537
  866MOL0     H16907  11.065   9.277   5.534  2.2789  2.5140  1.4217
  866MOL0     H16908  11.304   9.074   5.820 -0.0099 -2.9645 -1.3551
  866MOL0     H16909  10.879   9.666   5.256 -1.6358  3.0091  2.0729
  866MOL0     H16910  10.884   9.918   5.289  0.2208 -1.0228  2.8666
  867MOL0     O16911   7.561   1.808   9.161 -0.3006 -0.1118 -0.0133
  867MOL0     C16912   7.586   1.872   9.058  0.0800 -0.5350 -1.1832
  867MOL0     O16913   7.526   1.866   8.928  0.3102  0.2173 -0.2687
  867MOL0     C16914   7.412   1.786   8.906  0.0007  0.0182 -0.7460
  867MOL0     C16915   7.307   1.793   9.002 -0.1838 -0.0089  0.8567
  867MOL0     C16916   7.189   1.721   8.979  0.0407  0.1651  0.4812
  867MOL0     C16917   7.178   1.635   8.868 -0.0243 -0.8681 -0.1830
  867MOL0     O16918   7.077   1.553   8.859  0.4598 -0.2523 -0.7402
  867MOL0     C16919   7.134   1.419   8.843 -0.7787 -0.1952 -0.3473
  867MOL0     C16920   7.029   1.312   8.902 -0.2704  0.1492 -0.7671
  867MOL0     C16921   6.932   1.271   8.795  0.7007 -0.3925  0.9258
  867MOL0     C16922   6.818   1.185   8.849  0.3580  0.3488 -0.2815
  867MOL0     C16923   6.704   1.175   8.735 -0.7693  0.3093  1.6001
  867MOL0     C16924   6.597   1.080   8.769  0.2989  0.5158  0.1966
  867MOL0     C16925   6.466   1.083   8.676 -0.0840 -0.5391 -0.7221
  867MOL0     C16926   6.482   0.983   8.563 -0.3423  0.7788  0.7886
  867MOL0     N16927   6.457   0.843   8.606 -0.1753  0.1686 -0.3240
  867MOL0     C16928   6.337   0.801   8.660  0.3370 -0.6110  0.4457
  867MOL0     C16929   6.345   0.663   8.657 -0.6942  0.0182  0.3092
  867MOL0     C16930   6.234   0.574   8.709 -0.8395  0.0811  0.5256
  867MOL0     C16931   6.218   0.613   8.859  0.5938  0.8045 -0.2614
  867MOL0     C16932   6.067   0.586   8.896 -0.1619 -0.1333  0.7181
  867MOL0     C16933   6.056   0.490   9.004  0.0716  0.6647  1.1892
  867MOL0     O16934   5.939   0.503   9.083 -0.7498 -0.1027 -0.8275
  867MOL0     C16935   5.913   0.410   9.190  0.3939  0.0234 -0.0444
  867MOL0     C16936   5.785   0.421   9.244 -0.6932  0.4052  0.9779
  867MOL0     C16937   5.737   0.324   9.337  0.1942 -0.6613  0.7161
  867MOL0     C16938   5.605   0.358   9.399 -0.2901  0.1765  0.0105
  867MOL0     C16939   5.818   0.216   9.374 -0.2227 -0.5230  0.4186
  867MOL0     C16940   5.774   0.108   9.469  0.4141 -0.1214  0.2867
  867MOL0     O16941   5.671   0.141   9.557 -0.2623 -0.2566 -0.1340
  867MOL0     C16942   5.625   0.067   9.669 -0.8945 -0.7490  0.6656
  867MOL0     C16943   5.558   0.135   9.772 -0.2725 -0.0242  0.5029
  867MOL0     C16944   5.498   0.062   9.881  0.8693  0.1786 -0.3506
  867MOL0     C16945   5.487  -0.077   9.871  0.0102 -0.2710  0.4993
  867MOL0     O16946   5.411  -0.146   9.965 -0.2135 -0.7085 -1.0040
  867MOL0     C16947   5.399  -0.286   9.973  0.2372  0.5644  0.1252
  867MOL0     C16948   5.278  -0.332  10.051  0.4143 -0.6368 -1.5300
  867MOL0     C16949   5.139  -0.316   9.973 -0.5480 -0.1694 -0.8358
  867MOL0     C16950   5.023  -0.303  10.073  0.3755 -0.5582 -0.7465
  867MOL0     C16951   4.893  -0.286  10.011  0.2963  0.4740  0.0325
  867MOL0     C16952   4.780  -0.275  10.110  0.1107 -0.5611 -0.1667
  867MOL0     C16953   4.757  -0.395  10.202 -0.1692 -0.0171 -0.8247
  867MOL0     C16954   4.619  -0.409  10.257 -0.8305 -0.3031  0.1175
  867MOL0    Cl16955   4.559  -0.252  10.334 -0.0578  0.1899 -0.4794
  867MOL0     C16956   5.555  -0.145   9.773 -0.0518  0.4274 -0.6812
  867MOL0     C16957   5.623  -0.076   9.678  0.5774 -0.3913  0.3049
  867MOL0     O16958   5.838   0.003   9.469 -0.0960  0.2952  0.0512
  867MOL0     C16959   5.954   0.210   9.331 -0.3641  0.5586  0.1429
  867MOL0     C16960   6.001   0.310   9.235 -0.2871 -0.0028 -0.3802
  867MOL0     N16961   6.462   0.631   8.594 -0.3077  0.1782  0.6423
  867MOL0     N16962   6.532   0.738   8.569 -0.0260  0.2960 -0.4866
  867MOL0     C16963   7.282   1.643   8.774  0.0207  0.1442  0.5858
  867MOL0     C16964   7.392   1.724   8.791 -0.3401 -0.4162  0.4833
  867MOL0     C16965   7.678   1.989   9.082  0.7028  0.2225  0.5669
  867MOL0     C16966   7.741   2.026   9.201  0.0778  0.0715 -0.0467
  867MOL0     C16967   7.841   2.124   9.206  0.0159  0.4889 -0.2828
  867MOL0     C16968   7.862   2.211   9.094  0.2645  0.0002 -0.0000
  867MOL0     O16969   7.962   2.307   9.094  0.3654  0.2367  0.0031
  867MOL0     C16970   8.073   2.250   9.023  1.0143 -1.2423  0.0148
  867MOL0     C16971   8.167   2.364   8.982  0.0230  0.4174  0.2959
  867MOL0     C16972   8.287   2.304   8.904 -0.3579  0.5813  0.3919
  867MOL0     C16973   8.407   2.407   8.898  1.6504 -0.0588  0.3816
  867MOL0     C16974   8.360   2.538   8.863 -0.2893  0.5497  0.6833
  867MOL0     C16975   8.323   2.653   8.848  0.0500  0.7473 -0.4042
  867MOL0     C16976   7.791   2.183   8.975  0.2952 -1.1221 -0.5995
  867MOL0     C16977   7.708   2.065   8.966 -0.7597  1.1849 -0.0087
  867MOL0     H16978   7.320   1.840   9.099  0.0429  1.0623  0.3188
  867MOL0     H16979   7.107   1.722   9.051 -1.0638  1.8792 -0.7330
  867MOL0     H16980   7.148   1.389   8.738  0.2235 -2.8632  0.4526
  867MOL0     H16981   7.222   1.409   8.907 -1.2369  1.8746  0.6803
  867MOL0     H16982   7.099   1.229   8.917  0.3253  0.3065 -2.4313
  867MOL0     H16983   6.992   1.343   9.000  0.2729 -0.0395 -0.4943
  867MOL0     H16984   6.885   1.363   8.762 -0.1089 -0.9449  0.5115
  867MOL0     H16985   6.987   1.223   8.713 -0.5691 -0.0139 -0.1821
  867MOL0     H16986   6.855   1.086   8.878  2.1791  1.4382  1.3732
  867MOL0     H16987   6.768   1.227   8.937 -1.0964 -1.2902 -0.2622
  867MOL0     H16988   6.655   1.272   8.722  0.4596  0.6541 -1.4420
  867MOL0     H16989   6.739   1.159   8.632 -0.8316  3.4424  0.9885
  867MOL0     H16990   6.628   0.975   8.757 -2.7765 -0.4164 -0.4487
  867MOL0     H16991   6.571   1.097   8.874  1.8853 -2.0722  1.1197
  867MOL0     H16992   6.376   1.059   8.733  1.5299 -2.6144  1.1555
  867MOL0     H16993   6.452   1.185   8.639 -3.6572 -0.3608  0.7247
  867MOL0     H16994   6.580   0.981   8.514 -0.6946  0.4831  0.0713
  867MOL0     H16995   6.409   1.012   8.487  0.8163  0.3376 -0.5380
  867MOL0     H16996   6.248   0.862   8.677  0.9035  0.5968 -0.7754
  867MOL0     H16997   6.143   0.590   8.650  0.2518 -0.0264 -1.2866
  867MOL0     H16998   6.256   0.466   8.711 -0.6190 -0.0159 -2.2652
  867MOL0     H16999   6.234   0.720   8.875 -2.6005  1.3953 -0.3939
  867MOL0     H17000   6.285   0.561   8.928  2.1082  0.8030 -1.6720
  867MOL0     H17001   6.010   0.548   8.810 -2.1158 -1.2263  2.3804
  867MOL0     H17002   6.020   0.681   8.921  4.9118  3.3212 -1.3380
  867MOL0     H17003   6.145   0.502   9.066 -0.7659  2.9691  2.0958
  867MOL0     H17004   6.054   0.390   8.962 -0.2789  1.0610  0.2309
  867MOL0     H17005   5.716   0.496   9.209 -0.3830  0.2518  0.0272
  867MOL0     H17006   5.633   0.364   9.505 -0.2620 -0.0087  0.0145
  867MOL0     H17007   5.564   0.453   9.363 -1.2489  0.7970  2.5002
  867MOL0     H17008   5.533   0.278   9.384  0.6890 -1.3688  2.7436
  867MOL0     H17009   5.547   0.242   9.755 -1.9185 -0.1666  0.4657
  867MOL0     H17010   5.437   0.113   9.955  1.3666 -1.3450  1.1756
  867MOL0     H17011   5.396  -0.327   9.872 -2.7138  0.4245  0.1910
  867MOL0     H17012   5.485  -0.333  10.022 -0.3308 -0.6962 -0.0579
  867MOL0     H17013   5.289  -0.439  10.074 -1.7710 -0.8805 -1.3841
  867MOL0     H17014   5.285  -0.270  10.140 -0.0572 -0.1233 -1.8468
  867MOL0     H17015   5.127  -0.402   9.906  1.4928 -0.4158 -0.9538
  867MOL0     H17016   5.151  -0.226   9.913 -0.5200  0.0219 -0.5436
  867MOL0     H17017   5.026  -0.395  10.132  1.1827  1.1873  2.1422
  867MOL0     H17018   5.031  -0.221  10.145 -1.0528 -1.2292  0.2298
  867MOL0     H17019   4.876  -0.366   9.938  2.2587  1.8887 -2.1262
  867MOL0     H17020   4.900  -0.192   9.955  2.1603 -0.8876 -2.1999
  867MOL0     H17021   4.797  -0.186  10.171 -0.6917  1.2281 -2.4366
  867MOL0     H17022   4.687  -0.253  10.058 -1.5548  0.8554  3.1296
  867MOL0     H17023   4.833  -0.381  10.279 -1.2941  3.5369 -0.1609
  867MOL0     H17024   4.779  -0.492  10.156 -0.5821 -2.4838  3.6007
  867MOL0     H17025   4.617  -0.496  10.324  1.0889  0.0594  0.7143
  867MOL0     H17026   4.555  -0.423  10.170  2.5397 -0.2633 -2.5596
  867MOL0     H17027   5.561  -0.253   9.764  0.0972  0.5846 -3.9377
  867MOL0     H17028   5.658  -0.130   9.591 -1.6666  2.3795 -2.5698
  867MOL0     H17029   6.016   0.136   9.380 -3.0977 -2.4113 -0.5826
  867MOL0     H17030   6.106   0.308   9.208  0.1827  3.7420  0.6088
  867MOL0     H17031   7.284   1.585   8.682  0.4546  1.1439 -0.0552
  867MOL0     H17032   7.463   1.735   8.710  1.1291 -1.3603  1.6080
  867MOL0     H17033   7.700   1.968   9.283 -1.8830  1.3359 -0.0814
  867MOL0     H17034   7.905   2.133   9.294  0.2236  2.4212 -0.5989
  867MOL0     H17035   8.118   2.200   9.109 -1.3266  0.7732  2.5888
  867MOL0     H17036   8.039   2.187   8.940 -3.5429 -0.9155  1.3443
  867MOL0     H17037   8.210   2.393   9.078  2.1711 -0.4053 -0.3715
  867MOL0     H17038   8.117   2.455   8.948 -0.0613 -0.0964 -1.0029
  867MOL0     H17039   8.268   2.273   8.801  2.4944 -0.2403  0.0215
  867MOL0     H17040   8.320   2.217   8.962 -2.2185 -1.2963 -1.1904
  867MOL0     H17041   8.486   2.371   8.832 -0.3859  0.4353 -2.5223
  867MOL0     H17042   8.453   2.416   8.997  0.8221 -0.9116  0.8573
  867MOL0     H17043   8.289   2.753   8.834 -1.8295  0.3947  1.0446
  867MOL0     H17044   7.832   2.245   8.896  2.3891 -1.0162  0.5027
  867MOL0     H17045   7.661   2.048   8.870  0.3912 -4.0461  0.1165
  868MOL0     O17046   4.407  10.949   0.842 -0.9851  0.4401  0.2026
  868MOL0     C17047   4.487  10.853   0.870 -0.3151  0.4576 -0.1699
  868MOL0     O17048   4.618  10.847   0.832 -0.8952  0.0922  0.7431
  868MOL0     C17049   4.667  10.977   0.817 -0.0375 -0.1165 -0.8127
  868MOL0     C17050   4.706  11.017   0.692  0.0103  1.0716  0.2737
  868MOL0     C17051   4.759  11.139   0.669 -0.7072 -0.1065  0.3946
  868MOL0     C17052   4.768  11.229   0.781  0.2319 -0.6312 -0.3871
  868MOL0     O17053   4.809  11.358   0.772 -0.6930 -1.1422  0.5187
  868MOL0     C17054   4.891  11.404   0.664  0.2943  0.4720 -0.3862
  868MOL0     C17055   4.922  11.550   0.690  0.6702 -0.1641 -1.0090
  868MOL0     C17056   5.026  11.603   0.585  0.4414  1.0515 -0.5417
  868MOL0     C17057   4.996  11.562   0.444 -0.9335  0.5196  0.1978
  868MOL0     C17058   5.072  11.639   0.341 -0.5533  0.1270 -0.2466
  868MOL0     C17059   4.996  11.640   0.212 -0.5934 -0.0426  0.9418
  868MOL0     C17060   5.068  11.718   0.091  0.2761 -0.9296 -0.3537
  868MOL0     C17061   4.982  11.776  -0.011 -0.2418 -1.8561  0.8166
  868MOL0     N17062   4.897  11.679  -0.077 -0.0151  0.1335  0.1781
  868MOL0     C17063   4.937  11.577  -0.160  0.6046  0.0516 -0.3258
  868MOL0     C17064   4.826  11.512  -0.205 -0.0263 -0.2603 -0.4963
  868MOL0     C17065   4.826  11.385  -0.290 -0.2691  0.2291  1.2936
  868MOL0     C17066   4.723  11.281  -0.246 -0.7575 -0.0039  1.0037
  868MOL0     C17067   4.721  11.153  -0.335 -0.2743 -0.4149 -0.1821
  868MOL0     C17068   4.577  11.093  -0.335 -0.7970 -0.0138  0.1723
  868MOL0     O17069   4.500  11.187  -0.422 -0.3506  0.3506 -0.4375
  868MOL0     C17070   4.364  11.183  -0.399 -0.0637  0.5581  0.4970
  868MOL0     C17071   4.290  11.077  -0.334 -0.2358  0.7166  0.2029
  868MOL0     C17072   4.152  11.078  -0.301  0.1425 -0.0897 -0.5507
  868MOL0     C17073   4.104  10.962  -0.216 -0.0906 -0.4656 -0.6481
  868MOL0     C17074   4.078  11.194  -0.336 -0.2394 -0.8884  0.1385
  868MOL0     C17075   3.931  11.210  -0.324 -0.3151 -0.8380 -0.1932
  868MOL0     O17076   3.888  11.337  -0.295  0.3196 -0.1476  0.1466
  868MOL0     C17077   3.750  11.376  -0.306 -0.5224 -0.5252 -0.6142
  868MOL0     C17078   3.733  11.507  -0.343 -0.9476 -0.4655  0.0641
  868MOL0     C17079   3.615  11.577  -0.343 -0.0492  1.0017 -0.5192
  868MOL0     C17080   3.500  11.496  -0.313  0.5871  0.7285  0.5871
  868MOL0     O17081   3.383  11.570  -0.327 -1.3236 -0.0829 -0.1800
  868MOL0     C17082   3.253  11.511  -0.311 -0.2181 -0.4775  0.2935
  868MOL0     C17083   3.147  11.620  -0.310  0.0411  0.2192  0.3674
  868MOL0     C17084   2.995  11.577  -0.322 -0.5202  0.1435  0.7842
  868MOL0     C17085   2.975  11.445  -0.406  0.0059  0.2404  0.6759
  868MOL0     C17086   3.001  11.463  -0.557 -0.0253 -0.5572  1.1455
  868MOL0     C17087   3.061  11.330  -0.628 -0.5685 -0.0725  0.2463
  868MOL0     C17088   2.971  11.258  -0.719  0.9200 -0.6765  0.4654
  868MOL0     C17089   2.871  11.171  -0.648  0.3348 -0.0735 -0.3528
  868MOL0    Cl17090   2.757  11.101  -0.760 -0.1604  0.4204  0.6624
  868MOL0     C17091   3.507  11.354  -0.281 -0.1391 -0.4775 -0.0027
  868MOL0     C17092   3.638  11.303  -0.272 -0.9463 -0.3110 -0.1050
  868MOL0     O17093   3.861  11.118  -0.369 -0.3056  0.2654  0.4865
  868MOL0     C17094   4.149  11.302  -0.400  0.2184  0.2431 -0.0857
  868MOL0     C17095   4.279  11.294  -0.441  0.1161 -0.9391 -0.5158
  868MOL0     N17096   4.718  11.583  -0.162 -0.6190  0.4569  0.4288
  868MOL0     N17097   4.759  11.677  -0.082  0.1043  0.3998  0.5843
  868MOL0     C17098   4.744  11.183   0.909 -0.2684  0.2832 -0.3765
  868MOL0     C17099   4.683  11.062   0.929  0.3865  0.1952 -0.4488
  868MOL0     C17100   4.440  10.728   0.938 -0.5113 -0.5448  0.0833
  868MOL0     C17101   4.305  10.714   0.982  0.8170  0.9125 -0.0816
  868MOL0     C17102   4.261  10.594   1.042  0.2003  1.0670 -0.7468
  868MOL0     C17103   4.362  10.499   1.064  0.2412  0.7607  0.4544
  868MOL0     O17104   4.318  10.373   1.108  0.1243  0.9426  0.0185
  868MOL0     C17105   4.365  10.347   1.240 -0.1993 -1.0038  0.5789
  868MOL0     C17106   4.252  10.322   1.339 -1.2619 -0.6452 -0.0967
  868MOL0     C17107   4.302  10.286   1.480 -0.3616  0.3204  0.3332
  868MOL0     C17108   4.369  10.155   1.470 -0.1231 -0.3664 -0.2458
  868MOL0     C17109   4.406  10.096   1.601  0.2119  0.1727  0.5222
  868MOL0     C17110   4.411  10.053   1.713 -0.1131 -0.1343 -0.6127
  868MOL0     C17111   4.493  10.507   1.018 -0.1404 -0.0893  0.2039
  868MOL0     C17112   4.528  10.621   0.947 -0.3623 -0.2435 -0.8036
  868MOL0     H17113   4.714  10.940   0.616  1.7354 -1.6252  2.9640
  868MOL0     H17114   4.797  11.174   0.573  1.6330  2.3443  2.0453
  868MOL0     H17115   4.984  11.347   0.669 -0.4197 -0.6570  3.5958
  868MOL0     H17116   4.836  11.390   0.570 -0.1718  0.3459 -0.0953
  868MOL0     H17117   4.828  11.605   0.685  1.0878  0.5331 -1.4712
  868MOL0     H17118   4.964  11.547   0.791 -2.1658  0.3816  0.2949
  868MOL0     H17119   5.013  11.711   0.588 -3.1039  0.7578 -0.1357
  868MOL0     H17120   5.129  11.573   0.605  0.0902  1.0799  1.5637
  868MOL0     H17121   5.019  11.455   0.432  0.9082  0.8855  0.1088
  868MOL0     H17122   4.888  11.560   0.428 -1.3366  4.1207  1.5992
  868MOL0     H17123   5.081  11.747   0.361  0.7560 -0.3630  2.3368
  868MOL0     H17124   5.172  11.598   0.325 -0.1763  1.0777 -0.3926
  868MOL0     H17125   4.953  11.541   0.192 -1.8280  0.2466  2.0334
  868MOL0     H17126   4.907  11.696   0.243 -1.8344 -1.6926  0.5475
  868MOL0     H17127   5.136  11.791   0.136  0.1548 -1.1084  0.1324
  868MOL0     H17128   5.129  11.653   0.028  1.0159  2.5921 -3.6127
  868MOL0     H17129   5.051  11.813  -0.088  0.5499 -2.0397  1.4216
  868MOL0     H17130   4.917  11.851   0.036  1.0342 -1.4537  2.0020
  868MOL0     H17131   5.038  11.558  -0.194  0.3010  1.1441 -1.9626
  868MOL0     H17132   4.811  11.408  -0.396  1.5381 -0.0512  0.9424
  868MOL0     H17133   4.928  11.351  -0.269  0.3289 -0.7721 -2.3894
  868MOL0     H17134   4.625  11.327  -0.229  0.2915  2.4988  0.6328
  868MOL0     H17135   4.763  11.261  -0.146 -3.3142 -0.8739  1.9548
  868MOL0     H17136   4.776  11.078  -0.276 -1.9036 -0.0391  1.9539
  868MOL0     H17137   4.765  11.173  -0.433 -2.0906  0.6575 -0.8251
  868MOL0     H17138   4.544  11.083  -0.231  2.5109  0.0353  1.3502
  868MOL0     H17139   4.583  10.997  -0.388  3.0291  0.9433 -1.4960
  868MOL0     H17140   4.342  10.988  -0.299  0.7541  1.8087  1.6310
  868MOL0     H17141   4.053  10.887  -0.277 -0.4664 -2.1833  1.6432
  868MOL0     H17142   4.188  10.911  -0.166 -3.0986 -4.4551  0.8538
  868MOL0     H17143   4.027  10.991  -0.144 -2.8630 -0.1617 -3.5283
  868MOL0     H17144   3.825  11.555  -0.372 -0.1005 -1.0555  1.6809
  868MOL0     H17145   3.614  11.682  -0.373 -1.0593  1.2502  0.3528
  868MOL0     H17146   3.241  11.440  -0.394  2.6564 -0.5587 -0.1627
  868MOL0     H17147   3.238  11.452  -0.220 -0.9317 -3.2162 -1.4746
  868MOL0     H17148   3.175  11.668  -0.216 -0.6485 -0.6428  1.0255
  868MOL0     H17149   3.166  11.693  -0.390 -0.7995 -1.7003 -1.6871
  868MOL0     H17150   2.945  11.662  -0.371  0.4702  0.6145  0.5608
  868MOL0     H17151   2.944  11.568  -0.226 -0.9614  3.1508  0.9222
  868MOL0     H17152   3.033  11.361  -0.367  0.4754  1.8257  3.6663
  868MOL0     H17153   2.870  11.418  -0.395 -0.0806  0.7229  1.0548
  868MOL0     H17154   3.075  11.542  -0.574 -2.6242  2.2452  1.9320
  868MOL0     H17155   2.906  11.483  -0.608  1.3178 -2.8534 -2.7357
  868MOL0     H17156   3.136  11.370  -0.698 -0.9180  0.3449  0.1094
  868MOL0     H17157   3.110  11.254  -0.566 -1.3716 -0.7933  0.0169
  868MOL0     H17158   3.039  11.194  -0.777  1.7353 -1.5880  2.3279
  868MOL0     H17159   2.920  11.332  -0.781  1.9533  1.1447  1.6878
  868MOL0     H17160   2.819  11.222  -0.566  0.6682 -1.7118  0.9361
  868MOL0     H17161   2.928  11.096  -0.592  1.2987  0.1844 -0.9527
  868MOL0     H17162   3.424  11.291  -0.253  2.1996 -4.6041 -1.4728
  868MOL0     H17163   3.649  11.198  -0.247  1.3793  0.2119  1.4507
  868MOL0     H17164   4.089  11.384  -0.440 -0.7467 -0.5570 -0.3093
  868MOL0     H17165   4.322  11.380  -0.492 -2.0284  2.0376  2.2426
  868MOL0     H17166   4.756  11.251   0.993  0.7911 -3.2261  2.5557
  868MOL0     H17167   4.653  11.027   1.028  1.1490  1.6146  0.3179
  868MOL0     H17168   4.236  10.790   0.946 -0.5302  0.1479  0.7933
  868MOL0     H17169   4.160  10.561   1.066  0.4434  1.2825  0.6560
  868MOL0     H17170   4.437  10.265   1.234  3.5466  2.0275  0.3529
  868MOL0     H17171   4.428  10.426   1.282 -0.6278 -0.3265 -0.0292
  868MOL0     H17172   4.181  10.248   1.303 -1.5759  0.3192 -1.5626
  868MOL0     H17173   4.206  10.420   1.353  1.4398  0.6695  0.2696
  868MOL0     H17174   4.205  10.269   1.526 -0.6099  0.5767 -0.0911
  868MOL0     H17175   4.349  10.362   1.542  1.7387  0.4564 -1.3166
  868MOL0     H17176   4.463  10.173   1.418 -1.0764 -0.2781 -2.0087
  868MOL0     H17177   4.311  10.074   1.424  1.2825 -1.5417 -0.0360
  868MOL0     H17178   4.406  10.030   1.818  1.3477  1.4201 -0.1645
  868MOL0     H17179   4.558  10.421   1.032  0.3277  0.1680 -0.3622
  868MOL0     H17180   4.632  10.625   0.917 -0.5088  0.9034 -1.1955
  869MOL0     O17181   1.063   0.463  10.194 -0.2208 -0.7183 -0.1953
  869MOL0     C17182   0.959   0.508  10.239 -0.5153 -0.2811 -0.5923
  869MOL0     O17183   0.952   0.619  10.321  0.5399 -0.0684 -0.2991
  869MOL0     C17184   1.056   0.708  10.353  0.1788  1.0607  0.3271
  869MOL0     C17185   1.074   0.822  10.274  0.9417 -0.6386  0.4911
  869MOL0     C17186   1.163   0.924  10.310 -0.3602  0.9980  0.1493
  869MOL0     C17187   1.254   0.897  10.414 -1.4687  0.7324  0.8188
  869MOL0     O17188   1.339   0.995  10.454 -0.3235 -0.1554  0.4571
  869MOL0     C17189   1.472   0.955  10.452 -0.8331  0.0012 -0.8539
  869MOL0     C17190   1.557   1.074  10.483 -0.5388  0.3899  0.3498
  869MOL0     C17191   1.561   1.129  10.629 -0.7057 -0.1712 -0.3173
  869MOL0     C17192   1.653   1.046  10.723 -0.6575  0.2684 -0.4109
  869MOL0     C17193   1.681   1.115  10.859 -0.4629  0.0171  0.2125
  869MOL0     C17194   1.566   1.143  10.955 -0.2988  0.0096  0.6392
  869MOL0     C17195   1.539   1.009  11.022  0.7614 -0.0517 -0.1558
  869MOL0     C17196   1.408   0.996  11.100  1.1159 -0.1546 -0.1165
  869MOL0     N17197   1.419   0.870  11.181 -0.8302  0.5322  0.0794
  869MOL0     C17198   1.396   0.745  11.133 -0.0144  0.9070 -0.9634
  869MOL0     C17199   1.434   0.653  11.227 -0.3627 -0.4657 -0.4011
  869MOL0     C17200   1.400   0.508  11.220 -0.7261 -0.7959  0.2168
  869MOL0     C17201   1.513   0.431  11.150  0.9957 -0.6253 -0.6238
  869MOL0     C17202   1.643   0.416  11.239 -0.7468  0.1937 -0.7202
  869MOL0     C17203   1.638   0.323  11.364 -0.8975 -0.0878  0.1482
  869MOL0     O17204   1.632   0.186  11.322  0.6211  0.5544 -0.3932
  869MOL0     C17205   1.631   0.088  11.414  0.8661 -1.0844 -0.5886
  869MOL0     C17206   1.520   0.071  11.498  0.3551 -0.4063  1.2613
  869MOL0     C17207   1.511  -0.042  11.580 -0.1166 -0.7960  1.0740
  869MOL0     C17208   1.402  -0.034  11.680 -0.0813  0.7629 -0.0943
  869MOL0     C17209   1.615  -0.137  11.584  0.7651  1.4380 -0.4975
  869MOL0     C17210   1.610  -0.252  11.668  0.0369 -0.1630  0.1069
  869MOL0     O17211   1.485  -0.303  11.706  0.5251 -0.0260 -0.1312
  869MOL0     C17212   1.479  -0.417  11.780  0.0105  1.1158  0.1129
  869MOL0     C17213   1.522  -0.539  11.733 -0.0174  0.5716 -0.4085
  869MOL0     C17214   1.504  -0.661  11.798  0.6426 -0.1691 -0.3327
  869MOL0     C17215   1.453  -0.650  11.928 -0.3190  0.5876 -0.7669
  869MOL0     O17216   1.453  -0.762  12.007  0.0560 -0.2545  0.2435
  869MOL0     C17217   1.329  -0.838  11.998  1.0622 -1.1246  0.9682
  869MOL0     C17218   1.371  -0.964  11.922 -0.7074  1.2869  0.2012
  869MOL0     C17219   1.261  -1.080  11.903  0.2715 -1.0516  0.2668
  869MOL0     C17220   1.285  -1.213  11.987 -0.4730  0.1733 -0.6854
  869MOL0     C17221   1.152  -1.281  12.025 -0.8938  0.8628 -0.3971
  869MOL0     C17222   1.116  -1.384  11.915 -0.2923 -0.5057  0.0969
  869MOL0     C17223   0.986  -1.457  11.935 -0.9229 -0.1821 -0.4920
  869MOL0     C17224   0.960  -1.567  11.833 -0.0079 -0.2216  0.1591
  869MOL0    Cl17225   0.965  -1.482  11.683  0.0534  0.2161 -0.0339
  869MOL0     C17226   1.423  -0.521  11.984  0.0813  0.2539 -0.7479
  869MOL0     C17227   1.422  -0.410  11.909  0.5662  0.1500  0.5702
  869MOL0     O17228   1.717  -0.298  11.704 -0.2644 -1.3724 -0.7812
  869MOL0     C17229   1.725  -0.118  11.495 -0.0775  0.1382 -0.7667
  869MOL0     C17230   1.733  -0.005  11.413  0.5669  1.0722  0.3655
  869MOL0     N17231   1.494   0.720  11.330 -0.0660 -0.0194 -0.2798
  869MOL0     N17232   1.488   0.845  11.299  0.2848 -0.4914  0.0176
  869MOL0     C17233   1.242   0.780  10.485  0.1169  0.8393 -0.3085
  869MOL0     C17234   1.150   0.678  10.459  0.2359  0.2888 -0.1484
  869MOL0     C17235   0.833   0.446  10.190 -0.6567 -0.1678 -0.0412
  869MOL0     C17236   0.711   0.513  10.221 -0.5916  0.5981  0.3741
  869MOL0     C17237   0.591   0.455  10.205  0.1870 -0.5946 -0.0152
  869MOL0     C17238   0.584   0.326  10.143 -0.3637  0.0052 -0.2456
  869MOL0     O17239   0.468   0.250  10.106 -1.0207  0.2393 -0.5898
  869MOL0     C17240   0.336   0.300  10.102 -0.3871  0.0582 -0.9340
  869MOL0     C17241   0.325   0.396   9.992  0.3857  0.3119 -0.1790
  869MOL0     C17242   0.200   0.482   9.971 -1.2345  0.0937 -0.2901
  869MOL0     C17243   0.064   0.440  10.026  0.0835 -0.2885  0.3900
  869MOL0     C17244   0.033   0.323   9.944  0.4937 -1.4564 -0.8361
  869MOL0     C17245   0.018   0.212   9.890 -0.4157  0.0144  0.4062
  869MOL0     C17246   0.710   0.263  10.112  0.2335  0.1530  0.9740
  869MOL0     C17247   0.830   0.324  10.133  0.1173 -0.0565  0.0058
  869MOL0     H17248   1.001   0.832  10.195  1.9728 -0.2410 -0.4468
  869MOL0     H17249   1.170   1.016  10.253 -1.8445  2.5713  2.3266
  869MOL0     H17250   1.494   0.875  10.522 -2.3384 -1.0368 -1.5221
  869MOL0     H17251   1.507   0.919  10.354  1.6155 -1.0593  0.3273
  869MOL0     H17252   1.661   1.046  10.464 -1.3508 -3.2656  0.5099
  869MOL0     H17253   1.526   1.166  10.432 -2.8128 -0.0007  0.9233
  869MOL0     H17254   1.597   1.232  10.633  0.2906 -0.5158 -0.0834
  869MOL0     H17255   1.462   1.123  10.675 -0.4112  0.1636  0.3730
  869MOL0     H17256   1.611   0.947  10.745 -1.1809  0.3017 -1.2076
  869MOL0     H17257   1.745   1.016  10.672 -0.7419 -2.3033  0.7993
  869MOL0     H17258   1.756   1.053  10.910  3.7460  3.7400 -0.7389
  869MOL0     H17259   1.732   1.207  10.831 -0.6609  0.0488 -0.0455
  869MOL0     H17260   1.590   1.219  11.030 -1.1747 -1.2657  2.2830
  869MOL0     H17261   1.487   1.175  10.886 -1.3472 -2.6446  0.4902
  869MOL0     H17262   1.539   0.929  10.948  0.4476 -1.8152  1.6546
  869MOL0     H17263   1.616   1.007  11.100 -0.9048  1.3503  1.6082
  869MOL0     H17264   1.338   0.970  11.021 -0.3455 -0.6473  1.2757
  869MOL0     H17265   1.394   1.092  11.152 -0.7212 -0.4549  0.0195
  869MOL0     H17266   1.346   0.723  11.040 -2.6556 -2.4681  1.0540
  869MOL0     H17267   1.385   0.475  11.323  2.6486 -1.3869  0.6588
  869MOL0     H17268   1.309   0.499  11.160 -1.5774 -2.3737  1.6616
  869MOL0     H17269   1.525   0.478  11.051 -2.9357 -3.1468 -2.5586
  869MOL0     H17270   1.488   0.327  11.127 -0.2273 -0.4331 -0.2029
  869MOL0     H17271   1.678   0.518  11.258 -0.1458 -0.4784  2.1957
  869MOL0     H17272   1.723   0.382  11.171  1.8963  3.1400  0.6529
  869MOL0     H17273   1.556   0.339  11.434 -1.7596 -1.9079 -0.3843
  869MOL0     H17274   1.724   0.326  11.433 -0.4000 -2.7705 -0.2348
  869MOL0     H17275   1.456   0.158  11.512 -0.7526 -0.6442 -1.5688
  869MOL0     H17276   1.348   0.061  11.673 -0.2484  0.7800  1.2506
  869MOL0     H17277   1.327  -0.113  11.670 -0.8278  1.7556 -4.4727
  869MOL0     H17278   1.456  -0.034  11.775  0.7848  1.9944 -0.5458
  869MOL0     H17279   1.579  -0.536  11.640  0.5235 -2.8549 -0.3080
  869MOL0     H17280   1.545  -0.749  11.750 -3.1765 -1.9399 -0.7124
  869MOL0     H17281   1.282  -0.859  12.095 -1.3965 -0.4965 -0.0109
  869MOL0     H17282   1.249  -0.782  11.949  3.1415  1.8155  0.6705
  869MOL0     H17283   1.407  -0.935  11.823 -2.8201  0.8580 -0.7423
  869MOL0     H17284   1.460  -1.007  11.969  0.9255  1.7025 -2.3549
  869MOL0     H17285   1.248  -1.115  11.800  0.1749  0.1307 -0.1408
  869MOL0     H17286   1.169  -1.030  11.935 -0.0786 -1.2543 -0.4111
  869MOL0     H17287   1.375  -1.267  11.956  1.3201  4.5369 -4.0306
  869MOL0     H17288   1.310  -1.167  12.083  0.7057 -1.7357 -0.0163
  869MOL0     H17289   1.071  -1.209  12.037 -0.1653  1.7163 -0.5834
  869MOL0     H17290   1.174  -1.325  12.123 -0.2016 -0.5785 -1.1601
  869MOL0     H17291   1.096  -1.321  11.828 -1.7975 -0.5745  0.3684
  869MOL0     H17292   1.204  -1.444  11.891 -0.2926 -0.7098  0.5965
  869MOL0     H17293   0.900  -1.391  11.919 -0.1319  0.8834 -0.3615
  869MOL0     H17294   0.978  -1.500  12.035 -2.2581 -0.8321 -0.8473
  869MOL0     H17295   0.860  -1.599  11.862  0.6455 -0.7698  1.8765
  869MOL0     H17296   1.027  -1.651  11.811 -0.0985 -0.5388  1.0706
  869MOL0     H17297   1.378  -0.521  12.083 -0.4267 -2.1238 -0.9149
  869MOL0     H17298   1.391  -0.315  11.952 -0.9205 -0.5798  1.1454
  869MOL0     H17299   1.808  -0.188  11.494  1.3322  1.7234  0.3997
  869MOL0     H17300   1.818   0.007  11.347 -1.5451 -1.4243 -3.1542
  869MOL0     H17301   1.308   0.765  10.570  1.6984  0.3704 -1.5730
  869MOL0     H17302   1.134   0.587  10.516  0.1778  0.6595  0.4358
  869MOL0     H17303   0.701   0.604  10.279  0.2430  0.0327  1.4595
  869MOL0     H17304   0.500   0.506  10.233  0.3725  1.5935 -2.9341
  869MOL0     H17305   0.270   0.213  10.093  1.8308 -1.5629 -2.6397
  869MOL0     H17306   0.304   0.341  10.198 -0.1267 -3.4951  0.8213
  869MOL0     H17307   0.333   0.337   9.900 -0.1444  0.0927 -0.0885
  869MOL0     H17308   0.404   0.471  10.001 -1.3994  2.1792  1.0033
  869MOL0     H17309   0.179   0.507   9.867 -1.2796 -0.5311 -0.4397
  869MOL0     H17310   0.220   0.568  10.035 -4.4261  1.0034 -0.3472
  869MOL0     H17311  -0.003   0.526  10.016  0.0680 -0.2967  0.4272
  869MOL0     H17312   0.066   0.416  10.132  0.6734  1.8656  0.9195
  869MOL0     H17313   0.012   0.120   9.836 -2.0050 -1.1342  2.4043
  869MOL0     H17314   0.712   0.160  10.080  3.4144  1.0701 -2.4683
  869MOL0     H17315   0.922   0.272  10.108 -0.2686 -0.7008 -0.0977
  870MOL0     O17316   7.231   9.788   1.151 -0.0174 -0.0595 -0.1518
  870MOL0     C17317   7.150   9.850   1.078 -1.1396  0.3086  0.7498
  870MOL0     O17318   7.143   9.818   0.939 -0.7387  0.4482  0.0071
  870MOL0     C17319   7.234   9.744   0.876  0.9548  0.4541 -0.4605
  870MOL0     C17320   7.314   9.795   0.770  0.5888 -0.0554  0.3608
  870MOL0     C17321   7.406   9.713   0.704 -0.4225 -0.0388 -0.0391
  870MOL0     C17322   7.405   9.576   0.724 -0.0515  0.3959 -0.0824
  870MOL0     O17323   7.482   9.493   0.646 -0.3689  0.9716 -0.6585
  870MOL0     C17324   7.619   9.476   0.681  0.1841  0.8346 -0.5066
  870MOL0     C17325   7.691   9.438   0.544 -0.7664  0.4508 -0.2132
  870MOL0     C17326   7.853   9.440   0.565  1.1090 -0.6533 -0.1250
  870MOL0     C17327   7.881   9.355   0.695 -0.1127  0.6203  0.0657
  870MOL0     C17328   8.033   9.324   0.725  0.0746  0.1712  0.2912
  870MOL0     C17329   8.049   9.241   0.855  0.2306 -0.3845  1.7032
  870MOL0     C17330   7.958   9.130   0.876 -0.1756  0.7033 -0.6887
  870MOL0     C17331   8.000   9.052   1.000  0.3236 -1.0206 -0.1939
  870MOL0     N17332   8.126   8.977   0.963  0.1184 -1.0853 -0.1892
  870MOL0     C17333   8.127   8.863   0.888  0.0218 -0.8287  0.7549
  870MOL0     C17334   8.251   8.810   0.900  0.3253 -0.7800  0.1169
  870MOL0     C17335   8.299   8.696   0.820  0.4657  1.1137  0.3007
  870MOL0     C17336   8.457   8.684   0.805  0.3952  0.0022 -0.1352
  870MOL0     C17337   8.496   8.595   0.693  1.0728 -0.2262  0.4530
  870MOL0     C17338   8.650   8.568   0.706  0.3339  0.0807  0.6845
  870MOL0     O17339   8.670   8.481   0.815  0.2124  0.4563  0.1629
  870MOL0     C17340   8.791   8.462   0.873 -0.3815  0.3206 -0.4670
  870MOL0     C17341   8.795   8.381   0.988  0.4441  0.1522 -0.1341
  870MOL0     C17342   8.919   8.362   1.064  0.2682 -0.3158 -0.0019
  870MOL0     C17343   8.917   8.263   1.185  0.0736  0.3933 -0.1679
  870MOL0     C17344   9.034   8.439   1.030 -0.5223  0.3610 -0.6467
  870MOL0     C17345   9.167   8.447   1.106 -0.4318 -0.0940 -0.5226
  870MOL0     O17346   9.178   8.372   1.215 -0.3683 -0.0747 -1.1218
  870MOL0     C17347   9.292   8.380   1.294  0.2428  0.2457 -0.1488
  870MOL0     C17348   9.373   8.271   1.318  0.0272  0.2163  0.6672
  870MOL0     C17349   9.494   8.281   1.399 -0.6813  0.6023  0.0541
  870MOL0     C17350   9.529   8.417   1.445 -1.1152 -0.2759  1.2011
  870MOL0     O17351   9.622   8.439   1.541  0.3944  0.4465 -0.2231
  870MOL0     C17352   9.576   8.392   1.662 -0.5055 -0.3203  0.0021
  870MOL0     C17353   9.674   8.406   1.768  0.1915 -0.3673 -0.4434
  870MOL0     C17354   9.813   8.351   1.720 -0.5655 -0.0688 -0.3773
  870MOL0     C17355   9.913   8.350   1.843 -0.4828  0.1227  0.2884
  870MOL0     C17356  10.059   8.297   1.800  0.4106  1.5063  0.4197
  870MOL0     C17357  10.137   8.265   1.918 -0.1175  0.6683 -0.5309
  870MOL0     C17358  10.284   8.220   1.878  0.4428 -0.0389 -0.9243
  870MOL0     C17359  10.366   8.187   1.997 -0.4407 -1.2525 -0.8341
  870MOL0    Cl17360  10.520   8.118   1.933 -0.5432 -0.6075 -0.1544
  870MOL0     C17361   9.439   8.524   1.423 -0.1832  0.8293 -0.6458
  870MOL0     C17362   9.322   8.505   1.347  0.5387 -0.9365  0.1171
  870MOL0     O17363   9.263   8.505   1.049 -0.0239  1.0558 -0.1155
  870MOL0     C17364   9.023   8.523   0.912 -0.9700  0.8030 -0.9148
  870MOL0     C17365   8.905   8.535   0.838 -0.0755  0.7409  0.5053
  870MOL0     N17366   8.322   8.897   0.985 -0.1544 -0.2091  0.0639
  870MOL0     N17367   8.244   9.000   1.025  0.1793  0.6285 -0.0890
  870MOL0     C17368   7.315   9.512   0.809  0.5397  0.4056 -0.2925
  870MOL0     C17369   7.222   9.597   0.879  0.2440 -0.0579  0.6109
  870MOL0     C17370   7.056   9.946   1.143 -0.7145 -0.7965 -0.6419
  870MOL0     C17371   7.030   9.935   1.278 -0.0811  0.2349  0.7899
  870MOL0     C17372   6.938  10.013   1.340  0.4191 -0.6706  0.9772
  870MOL0     C17373   6.870  10.107   1.271 -0.0101 -0.3121  0.0852
  870MOL0     O17374   6.774  10.193   1.333 -0.1616 -0.1571  0.1161
  870MOL0     C17375   6.790  10.226   1.470 -0.4099  0.1835  0.8159
  870MOL0     C17376   6.911  10.299   1.525  0.4190  0.6751  0.7414
  870MOL0     C17377   6.972  10.400   1.419  0.3948 -0.0096 -0.4062
  870MOL0     C17378   6.892  10.537   1.448  0.6618  0.4688  0.3042
  870MOL0     C17379   6.933  10.606   1.570 -0.3111  0.4869 -0.3973
  870MOL0     C17380   6.960  10.679   1.662 -0.8907 -0.8802 -0.4638
  870MOL0     C17381   6.890  10.120   1.133  0.8279  0.1729 -0.7870
  870MOL0     C17382   6.987  10.044   1.069 -0.7824  0.2497  0.7954
  870MOL0     H17383   7.325   9.899   0.742  0.0798 -0.0346  0.2251
  870MOL0     H17384   7.484   9.746   0.636  1.3558 -3.0988  0.3146
  870MOL0     H17385   7.670   9.567   0.714  2.2753 -1.2472  2.5674
  870MOL0     H17386   7.629   9.388   0.745  3.8054  1.6856  0.3275
  870MOL0     H17387   7.657   9.339   0.512  0.0647  0.0846 -0.0099
  870MOL0     H17388   7.667   9.511   0.466 -1.2851  1.6049  0.9772
  870MOL0     H17389   7.901   9.401   0.475  0.8464  2.6020 -1.8190
  870MOL0     H17390   7.890   9.542   0.575 -0.1810 -0.3669  3.4323
  870MOL0     H17391   7.834   9.399   0.783 -0.5608 -1.7522  1.0923
  870MOL0     H17392   7.833   9.258   0.675  4.4751 -1.9487  0.0065
  870MOL0     H17393   8.073   9.261   0.646 -1.1009  0.9414 -0.9710
  870MOL0     H17394   8.093   9.415   0.710 -1.0735  0.6908 -1.4612
  870MOL0     H17395   8.156   9.226   0.868  0.5268  1.9352  2.5474
  870MOL0     H17396   8.015   9.310   0.933 -2.6030  2.8216 -1.9740
  870MOL0     H17397   7.855   9.157   0.902 -0.7315 -1.5903 -0.3470
  870MOL0     H17398   7.954   9.068   0.786 -1.3023  1.3373 -1.1019
  870MOL0     H17399   7.922   8.989   1.043  0.0321 -2.0116 -2.0703
  870MOL0     H17400   8.033   9.122   1.077 -2.0794  1.1954 -1.0633
  870MOL0     H17401   8.044   8.819   0.834  0.0502  1.7146 -1.6236
  870MOL0     H17402   8.252   8.607   0.863 -2.0783  2.5628  0.7475
  870MOL0     H17403   8.267   8.706   0.716 -0.0416  0.5839  0.4039
  870MOL0     H17404   8.507   8.647   0.894 -0.6855 -0.7048  0.1993
  870MOL0     H17405   8.501   8.784   0.794  1.7098 -0.1157  3.1449
  870MOL0     H17406   8.483   8.643   0.595 -2.4788 -0.8251  0.5152
  870MOL0     H17407   8.444   8.499   0.687  1.4905 -0.3892 -1.0176
  870MOL0     H17408   8.687   8.669   0.728  0.5652  0.3630 -0.8767
  870MOL0     H17409   8.688   8.527   0.612  2.0571 -0.4429  1.5649
  870MOL0     H17410   8.699   8.351   1.029  1.1867 -0.0166  1.5783
  870MOL0     H17411   8.938   8.331   1.269  2.9813  1.3335 -1.5194
  870MOL0     H17412   8.818   8.218   1.197  0.0193  0.9576  1.8846
  870MOL0     H17413   8.993   8.184   1.186  1.6187  1.8050  1.0464
  870MOL0     H17414   9.360   8.173   1.273  1.9150 -0.0962  0.7212
  870MOL0     H17415   9.555   8.194   1.424  0.0885  0.9249 -0.6400
  870MOL0     H17416   9.487   8.448   1.691 -1.1942 -1.6059  0.4192
  870MOL0     H17417   9.562   8.285   1.645  2.9006 -0.9083  0.0418
  870MOL0     H17418   9.680   8.512   1.797  0.2951 -0.4987  0.0284
  870MOL0     H17419   9.648   8.347   1.856  1.0523 -1.5208 -0.9516
  870MOL0     H17420   9.854   8.412   1.639 -0.9203 -0.3504 -0.7733
  870MOL0     H17421   9.799   8.248   1.687  0.0851 -0.6466  1.0480
  870MOL0     H17422   9.921   8.454   1.876 -2.6996  0.4844 -0.1736
  870MOL0     H17423   9.878   8.279   1.918 -2.1312  0.3077 -0.2689
  870MOL0     H17424  10.097   8.382   1.743  0.7768  2.6978  2.3564
  870MOL0     H17425  10.046   8.201   1.750  0.0197  0.4700  2.4157
  870MOL0     H17426  10.134   8.343   1.994  0.4581  1.0269 -0.8698
  870MOL0     H17427  10.095   8.180   1.973  4.7955 -0.5906  1.8455
  870MOL0     H17428  10.344   8.298   1.829  4.8515 -0.6151  2.8585
  870MOL0     H17429  10.271   8.133   1.814 -0.4836 -0.3885 -0.2848
  870MOL0     H17430  10.319   8.113   2.061 -0.8623 -0.4015 -0.1298
  870MOL0     H17431  10.392   8.259   2.075  2.4157 -4.7304  1.7639
  870MOL0     H17432   9.469   8.623   1.455 -1.3550  1.3999 -1.2668
  870MOL0     H17433   9.266   8.593   1.315 -1.7979 -1.9282  1.2521
  870MOL0     H17434   9.103   8.585   0.874 -0.8047  1.7914  0.9590
  870MOL0     H17435   8.909   8.604   0.753 -0.3320  0.3223  0.1516
  870MOL0     H17436   7.305   9.405   0.824 -1.2859  0.7552  1.4408
  870MOL0     H17437   7.144   9.553   0.941 -1.8992  0.6989 -1.3571
  870MOL0     H17438   7.081   9.858   1.335  0.6825 -0.9683 -1.4059
  870MOL0     H17439   6.900   9.996   1.440 -0.2477 -0.9712  0.6767
  870MOL0     H17440   6.714  10.301   1.496 -0.9923 -0.6087  1.4547
  870MOL0     H17441   6.781  10.133   1.527 -2.0597  0.2749  0.7420
  870MOL0     H17442   6.991  10.226   1.540  0.9568  1.0203 -0.3544
  870MOL0     H17443   6.883  10.343   1.621  1.0551  0.7441  0.9026
  870MOL0     H17444   6.959  10.372   1.314  3.6815  0.5763 -1.0653
  870MOL0     H17445   7.081  10.407   1.425  0.8073 -2.6592 -2.6580
  870MOL0     H17446   6.790  10.499   1.453  0.0943  2.0841  2.0819
  870MOL0     H17447   6.899  10.602   1.360  3.4050 -1.5463 -1.1644
  870MOL0     H17448   6.980  10.738   1.749  0.2067  0.4677 -1.5801
  870MOL0     H17449   6.818  10.187   1.090 -0.5584 -0.3322  0.6512
  870MOL0     H17450   7.007  10.060   0.964 -3.7801  0.1415  0.1199
  871MOL0     O17451   1.553   7.890   7.209  0.0655  0.7976 -0.1208
  871MOL0     C17452   1.658   7.847   7.256  0.0694  0.7122 -1.0311
  871MOL0     O17453   1.767   7.804   7.181 -0.2454 -0.2244 -0.1846
  871MOL0     C17454   1.752   7.810   7.044 -0.2950  0.1774  0.0254
  871MOL0     C17455   1.752   7.684   6.975  0.3725 -0.3041 -0.4962
  871MOL0     C17456   1.741   7.681   6.836 -0.1309 -0.0497 -0.3189
  871MOL0     C17457   1.739   7.806   6.757  0.4960 -0.4450  0.1215
  871MOL0     O17458   1.748   7.809   6.619 -0.3592 -0.2296  0.0875
  871MOL0     C17459   1.712   7.681   6.548  0.5919 -0.5824 -0.1987
  871MOL0     C17460   1.670   7.708   6.400 -0.2854 -0.3227  0.0940
  871MOL0     C17461   1.559   7.813   6.386  0.5489 -0.2979 -0.6434
  871MOL0     C17462   1.413   7.747   6.368  0.5528 -0.4114 -0.4128
  871MOL0     C17463   1.305   7.867   6.343 -1.1958  1.4995 -0.0829
  871MOL0     C17464   1.159   7.804   6.358 -0.5485  0.1840 -0.2084
  871MOL0     C17465   1.042   7.898   6.324  0.5132  0.6830 -1.0805
  871MOL0     C17466   1.041   8.013   6.420 -0.5267  0.7022  0.4558
  871MOL0     N17467   0.931   8.100   6.381  0.3835  0.7951  0.7871
  871MOL0     C17468   0.925   8.201   6.297 -0.3065 -0.5902 -0.0963
  871MOL0     C17469   0.808   8.268   6.326 -0.2224 -0.3552  1.1314
  871MOL0     C17470   0.776   8.396   6.269  1.1896 -0.2013 -0.1223
  871MOL0     C17471   0.873   8.507   6.320 -0.6047 -0.2213  0.5235
  871MOL0     C17472   0.862   8.558   6.465 -0.0248  0.9623 -0.1415
  871MOL0     C17473   0.959   8.683   6.494 -0.1031  0.1294  0.2442
  871MOL0     O17474   1.102   8.659   6.477 -0.0192 -0.4774  0.1143
  871MOL0     C17475   1.187   8.773   6.471 -0.3881  0.6399  0.0386
  871MOL0     C17476   1.323   8.739   6.456  0.1321 -0.1814 -0.5782
  871MOL0     C17477   1.429   8.836   6.484 -0.3382  0.9336  0.0838
  871MOL0     C17478   1.575   8.782   6.461 -0.1712 -0.7321  0.4740
  871MOL0     C17479   1.395   8.963   6.528 -0.3660 -0.3169 -0.1241
  871MOL0     C17480   1.495   9.076   6.545  0.1113  0.5248  0.2461
  871MOL0     O17481   1.455   9.195   6.496 -0.2350  0.0759  0.1234
  871MOL0     C17482   1.535   9.305   6.506 -0.0649  0.2434 -0.6544
  871MOL0     C17483   1.522   9.402   6.412  1.4514  0.4407 -0.1670
  871MOL0     C17484   1.590   9.523   6.424 -0.2283  0.3384 -0.7888
  871MOL0     C17485   1.671   9.545   6.524  0.3186  0.0983  1.2587
  871MOL0     O17486   1.745   9.664   6.527 -0.3685  0.2284 -0.2676
  871MOL0     C17487   1.883   9.650   6.566  1.0599 -0.4944  0.7214
  871MOL0     C17488   1.924   9.792   6.600 -0.2891  0.0992  0.9060
  871MOL0     C17489   1.930   9.893   6.484 -0.5908 -0.0042  0.7031
  871MOL0     C17490   1.971  10.041   6.528 -0.5276 -0.1473 -0.5611
  871MOL0     C17491   2.002  10.124   6.399  0.0850 -0.0463  0.2299
  871MOL0     C17492   2.031  10.267   6.446 -0.2846 -0.4461  0.1349
  871MOL0     C17493   2.148  10.281   6.532 -0.6427  0.3277  0.0228
  871MOL0     C17494   2.225  10.406   6.527 -0.8972  0.7675 -0.2285
  871MOL0    Cl17495   2.122  10.538   6.578  0.1481  0.1165  0.1169
  871MOL0     C17496   1.667   9.466   6.635 -0.0760 -1.7639  0.1943
  871MOL0     C17497   1.608   9.346   6.623 -0.3805 -0.2990  0.4133
  871MOL0     O17498   1.615   9.047   6.573  0.0780 -0.1321  0.0556
  871MOL0     C17499   1.254   8.994   6.529 -0.4976  0.4212 -0.4809
  871MOL0     C17500   1.155   8.899   6.501  0.3024 -0.4504  0.4556
  871MOL0     N17501   0.744   8.203   6.428 -0.4000 -0.2382 -0.1360
  871MOL0     N17502   0.826   8.109   6.463  0.0537 -0.3616  0.0765
  871MOL0     C17503   1.738   7.926   6.828 -0.4307 -0.4401 -0.3520
  871MOL0     C17504   1.749   7.927   6.970 -0.7112 -0.0720  0.3768
  871MOL0     C17505   1.662   7.828   7.403  0.5327  0.3458 -0.2778
  871MOL0     C17506   1.587   7.914   7.482 -0.3235 -1.0040  0.0801
  871MOL0     C17507   1.596   7.893   7.621  0.9244  0.0249  0.2868
  871MOL0     C17508   1.682   7.787   7.678 -0.2096 -0.1663 -0.0856
  871MOL0     O17509   1.689   7.773   7.811  0.1229 -0.2830 -0.5631
  871MOL0     C17510   1.823   7.754   7.871  0.0959  0.1852  0.0453
  871MOL0     C17511   1.823   7.645   7.973 -0.4374 -0.2514 -1.5451
  871MOL0     C17512   1.748   7.516   7.928 -0.2027 -0.0385 -0.0020
  871MOL0     C17513   1.729   7.416   8.046 -0.2842  0.4236 -0.8069
  871MOL0     C17514   1.648   7.453   8.162  0.8896  0.7540 -0.4007
  871MOL0     C17515   1.595   7.506   8.255  0.6309 -0.6885  0.2310
  871MOL0     C17516   1.732   7.695   7.588  0.0245 -0.0479  0.5903
  871MOL0     C17517   1.721   7.713   7.454 -0.1274  0.3087  0.1164
  871MOL0     H17518   1.753   7.597   7.039 -1.9050  0.2330  0.3723
  871MOL0     H17519   1.718   7.581   6.801  1.3320  0.2325 -2.2386
  871MOL0     H17520   1.804   7.623   6.554  0.3459 -0.8665  1.2219
  871MOL0     H17521   1.635   7.628   6.606 -0.0496 -1.3669 -1.7078
  871MOL0     H17522   1.755   7.754   6.350 -0.4480 -2.1925 -2.0837
  871MOL0     H17523   1.641   7.619   6.344 -3.0001  0.2660  0.4210
  871MOL0     H17524   1.563   7.889   6.464 -3.8998 -2.1358  1.7489
  871MOL0     H17525   1.577   7.875   6.297 -0.5536  2.2709  0.7947
  871MOL0     H17526   1.415   7.676   6.284  1.0232 -1.3549  0.3717
  871MOL0     H17527   1.394   7.694   6.462  5.1608 -1.4316  0.1732
  871MOL0     H17528   1.314   7.949   6.415 -0.4614  2.2717 -1.0155
  871MOL0     H17529   1.311   7.920   6.247  3.9178 -0.7922 -1.3418
  871MOL0     H17530   1.161   7.735   6.274  0.5370  3.3319 -3.0237
  871MOL0     H17531   1.141   7.749   6.450 -5.6077  2.4191  0.4423
  871MOL0     H17532   1.035   7.945   6.226  1.1082  1.9443 -0.5520
  871MOL0     H17533   0.943   7.851   6.330  1.4088 -1.7044 -3.2906
  871MOL0     H17534   1.139   8.062   6.414 -0.0269 -0.0965  1.5519
  871MOL0     H17535   1.021   7.975   6.521  0.8228  0.6054  0.7082
  871MOL0     H17536   1.001   8.245   6.233  0.5081 -1.6685  0.1172
  871MOL0     H17537   0.765   8.385   6.161  1.6678  0.5256 -0.2527
  871MOL0     H17538   0.677   8.419   6.308  2.3675 -1.7677  4.5087
  871MOL0     H17539   0.846   8.590   6.255 -4.9553 -1.4657  0.3972
  871MOL0     H17540   0.977   8.486   6.294 -0.9743  0.6365 -1.8538
  871MOL0     H17541   0.894   8.482   6.536  0.2567  1.0025 -0.2233
  871MOL0     H17542   0.758   8.585   6.485  0.0650 -0.9280  3.8089
  871MOL0     H17543   0.922   8.724   6.588  0.4766 -2.0803  1.5177
  871MOL0     H17544   0.935   8.758   6.418  1.1648  1.0535  0.7250
  871MOL0     H17545   1.344   8.639   6.419 -2.1392 -1.2171  0.7188
  871MOL0     H17546   1.563   8.726   6.367 -1.0986 -3.1269  1.9378
  871MOL0     H17547   1.655   8.854   6.440 -0.7789  0.3002  1.5704
  871MOL0     H17548   1.602   8.711   6.540 -1.3701 -1.5780  0.1560
  871MOL0     H17549   1.454   9.390   6.328  1.6102  1.0511 -0.3842
  871MOL0     H17550   1.574   9.597   6.347 -3.2330 -0.7872 -1.3859
  871MOL0     H17551   1.893   9.586   6.654  0.3238  0.5423  1.5798
  871MOL0     H17552   1.940   9.605   6.484  0.5495 -0.1837  0.1858
  871MOL0     H17553   1.859   9.837   6.677  0.3487  1.9266  0.4290
  871MOL0     H17554   2.025   9.787   6.643  0.4135  0.8709 -0.5778
  871MOL0     H17555   1.849   9.897   6.410  2.1201 -0.3508 -2.5284
  871MOL0     H17556   2.007   9.861   6.413 -2.6279 -0.9888 -1.1908
  871MOL0     H17557   1.891  10.089   6.584  0.0934  0.8958 -0.5365
  871MOL0     H17558   2.060  10.031   6.591 -1.0004 -2.3322 -0.1670
  871MOL0     H17559   1.912  10.119   6.337  0.8987 -2.4172 -0.8840
  871MOL0     H17560   2.086  10.087   6.340  0.7724  2.3754 -0.4138
  871MOL0     H17561   2.053  10.324   6.355 -0.0040  1.7300  1.4965
  871MOL0     H17562   1.939  10.309   6.488  0.3650  1.0926  0.1006
  871MOL0     H17563   2.218  10.199   6.512 -1.1200  0.2607 -1.4632
  871MOL0     H17564   2.116  10.259   6.634  0.8135 -0.7414  0.2890
  871MOL0     H17565   2.276  10.431   6.433  2.2862  0.7724  1.3928
  871MOL0     H17566   2.312  10.395   6.592 -0.8991 -0.6016 -0.4240
  871MOL0     H17567   1.716   9.493   6.728 -1.0993 -1.7989  0.7639
  871MOL0     H17568   1.617   9.280   6.709  2.5880 -1.5307 -0.7251
  871MOL0     H17569   1.215   9.093   6.549  0.4344  0.4104  1.6343
  871MOL0     H17570   1.055   8.932   6.475  0.9651 -0.5546 -2.5598
  871MOL0     H17571   1.739   8.022   6.779 -1.0987 -1.0389 -1.5771
  871MOL0     H17572   1.741   8.021   7.024 -2.7694  0.7372 -1.1991
  871MOL0     H17573   1.529   7.989   7.431  0.0873  0.1821  1.2936
  871MOL0     H17574   1.544   7.946   7.700 -0.8163 -1.1317 -0.0455
  871MOL0     H17575   1.891   7.725   7.790  1.0917  1.3083  0.4575
  871MOL0     H17576   1.863   7.846   7.915  1.4695 -1.4671  2.4639
  871MOL0     H17577   1.768   7.669   8.064  1.0132  1.4326 -1.0572
  871MOL0     H17578   1.925   7.641   8.013 -2.1553  2.4805  4.1362
  871MOL0     H17579   1.785   7.461   7.841  0.0033  1.1850 -0.7109
  871MOL0     H17580   1.644   7.540   7.904  0.4341  1.0370 -1.8538
  871MOL0     H17581   1.826   7.372   8.073 -0.2789 -1.1315 -3.0550
  871MOL0     H17582   1.671   7.335   8.002 -1.5400  0.3032  0.9554
  871MOL0     H17583   1.559   7.549   8.346  0.2532  0.5738 -0.4887
  871MOL0     H17584   1.766   7.603   7.635 -2.2072 -0.1064  2.2332
  871MOL0     H17585   1.743   7.642   7.375 -0.3452  1.8282 -1.3608
  872MOL0     O17586   4.026  11.111   4.065  0.3019  0.4024 -0.7321
  872MOL0     C17587   3.965  11.192   4.135  0.2161 -0.1512 -0.8005
  872MOL0     O17588   3.896  11.304   4.100  0.7298  0.1348  0.0922
  872MOL0     C17589   3.881  11.325   3.968 -0.3744 -1.1940 -0.4567
  872MOL0     C17590   3.814  11.230   3.891  0.9137  0.3997  0.3986
  872MOL0     C17591   3.775  11.258   3.757 -0.2986 -0.0535  0.6574
  872MOL0     C17592   3.817  11.378   3.700 -0.0258  0.3580  0.1517
  872MOL0     O17593   3.780  11.412   3.574  0.1267 -0.4209 -0.2253
  872MOL0     C17594   3.704  11.320   3.489 -1.1190 -0.7988 -0.9852
  872MOL0     C17595   3.642  11.415   3.387 -0.6560 -1.0256 -1.1724
  872MOL0     C17596   3.738  11.488   3.293 -0.0683  0.8153  0.2275
  872MOL0     C17597   3.800  11.397   3.192  0.0804  0.9838  0.1019
  872MOL0     C17598   3.854  11.486   3.081  0.6425  0.6498  0.1877
  872MOL0     C17599   3.936  11.403   2.984  0.0387  0.1527 -0.9632
  872MOL0     C17600   4.022  11.472   2.884  0.0000 -1.2925  0.5948
  872MOL0     C17601   4.123  11.578   2.943  1.1413  0.4879 -0.0260
  872MOL0     N17602   4.235  11.610   2.858 -0.0475 -0.1706 -1.0973
  872MOL0     C17603   4.339  11.533   2.833 -0.2002  0.3696  0.5263
  872MOL0     C17604   4.427  11.609   2.757  0.5713  0.0791  0.7128
  872MOL0     C17605   4.553  11.567   2.692 -0.3735  0.7876 -0.0483
  872MOL0     C17606   4.547  11.431   2.618 -0.1237  0.0999 -1.1807
  872MOL0     C17607   4.433  11.424   2.515  0.0410 -0.2564  0.2759
  872MOL0     C17608   4.450  11.311   2.421  0.2764  0.8988  0.4254
  872MOL0     O17609   4.547  11.351   2.325  0.0558  0.1094  0.9195
  872MOL0     C17610   4.624  11.265   2.255  0.7037 -0.4236 -1.1416
  872MOL0     C17611   4.594  11.135   2.232  0.5962  0.4323  0.0240
  872MOL0     C17612   4.675  11.059   2.150 -0.2187  0.1058  0.6337
  872MOL0     C17613   4.636  10.906   2.141  0.1395 -0.3954  0.2995
  872MOL0     C17614   4.782  11.117   2.083 -0.1685 -0.7402 -1.0172
  872MOL0     C17615   4.868  11.041   1.989 -0.5543  0.5472 -0.0801
  872MOL0     O17616   5.002  11.087   1.988  0.6294  0.1982 -0.3600
  872MOL0     C17617   5.086  11.039   1.888 -0.6105  0.5028 -0.7485
  872MOL0     C17618   5.088  10.901   1.845 -0.4137 -0.2962 -0.9258
  872MOL0     C17619   5.169  10.858   1.733 -0.1493 -0.6619 -0.0084
  872MOL0     C17620   5.240  10.957   1.669 -0.1936  0.9751  0.0239
  872MOL0     O17621   5.341  10.927   1.583  0.4277  0.0923  0.1668
  872MOL0     C17622   5.302  10.840   1.476 -0.3860  0.6427  0.6946
  872MOL0     C17623   5.365  10.870   1.351  0.3316 -0.7032  0.4366
  872MOL0     C17624   5.362  10.755   1.257  0.4179 -0.0179 -0.0093
  872MOL0     C17625   5.222  10.738   1.179 -0.9679  0.0322  0.1200
  872MOL0     C17626   5.245  10.629   1.071 -0.1912 -0.2516 -0.3734
  872MOL0     C17627   5.119  10.560   1.041  0.3059  0.0803  0.0494
  872MOL0     C17628   5.028  10.640   0.946  0.4094  0.3450  0.4481
  872MOL0     C17629   4.903  10.555   0.903 -0.1934  0.1967  0.2479
  872MOL0    Cl17630   4.836  10.610   0.751  0.1023 -0.0332  0.4665
  872MOL0     C17631   5.241  11.089   1.711 -0.1700  0.5386 -1.0687
  872MOL0     C17632   5.161  11.132   1.827  0.7910  0.1373  0.7164
  872MOL0     O17633   4.816  10.968   1.911  0.2500  0.2431 -0.1586
  872MOL0     C17634   4.809  11.254   2.101  1.3313 -0.4295  0.5949
  872MOL0     C17635   4.729  11.321   2.189 -0.5426  0.7064 -0.6038
  872MOL0     N17636   4.369  11.729   2.727  0.2068  0.4582  0.0443
  872MOL0     N17637   4.252  11.724   2.787 -0.3288 -0.3574 -0.4637
  872MOL0     C17638   3.886  11.476   3.778 -0.0096  0.5010 -0.5972
  872MOL0     C17639   3.906  11.454   3.913  0.0491  0.0555 -0.2497
  872MOL0     C17640   3.977  11.187   4.286  1.0842 -0.7817 -0.3646
  872MOL0     C17641   3.998  11.066   4.352  0.5456 -1.0421  0.2977
  872MOL0     C17642   3.993  11.053   4.486  0.9803  0.1992 -0.0687
  872MOL0     C17643   3.963  11.165   4.559 -0.2377  0.6714 -0.0263
  872MOL0     O17644   3.984  11.153   4.693  0.3674  0.0145 -0.6397
  872MOL0     C17645   3.923  11.055   4.773 -0.1635  0.4516  0.1106
  872MOL0     C17646   3.776  11.069   4.772  1.0313 -0.1845 -0.8202
  872MOL0     C17647   3.708  11.010   4.901 -0.6466  0.0745 -0.5771
  872MOL0     C17648   3.562  10.976   4.886  0.0772 -0.0225 -0.1389
  872MOL0     C17649   3.483  11.100   4.884  0.6590 -0.1620 -0.3395
  872MOL0     C17650   3.406  11.192   4.893 -1.0005  0.5136 -0.9753
  872MOL0     C17651   3.962  11.290   4.498  0.1512 -0.5560 -0.9319
  872MOL0     C17652   3.961  11.308   4.358 -0.2598  0.1897 -0.2309
  872MOL0     H17653   3.811  11.128   3.928 -1.1017  0.6221  0.9886
  872MOL0     H17654   3.721  11.189   3.694  1.1558  1.9079 -3.0220
  872MOL0     H17655   3.765  11.241   3.443  2.1413  0.3615  0.9831
  872MOL0     H17656   3.626  11.267   3.543 -0.2995  1.6222  2.9767
  872MOL0     H17657   3.586  11.347   3.322 -0.4549 -2.0552 -0.3082
  872MOL0     H17658   3.574  11.488   3.431 -0.0436 -1.1712  0.0734
  872MOL0     H17659   3.665  11.556   3.248 -2.4536  1.0690  3.9713
  872MOL0     H17660   3.813  11.546   3.349 -0.8244  0.7140  1.3790
  872MOL0     H17661   3.879  11.333   3.232 -0.2024  1.4573  1.4457
  872MOL0     H17662   3.723  11.328   3.156  0.4915 -0.1710  1.3807
  872MOL0     H17663   3.768  11.516   3.020  1.7025 -1.1372 -2.3242
  872MOL0     H17664   3.906  11.574   3.121 -2.0463  1.6845  1.6995
  872MOL0     H17665   3.999  11.339   3.046 -1.6650 -0.2774  0.3931
  872MOL0     H17666   3.875  11.334   2.926  2.4057 -2.1933 -0.8304
  872MOL0     H17667   4.069  11.386   2.835 -1.3945 -0.2939 -2.8004
  872MOL0     H17668   3.956  11.518   2.810  0.4877  2.4433  2.2347
  872MOL0     H17669   4.156  11.533   3.037  0.3046  1.1893  0.6192
  872MOL0     H17670   4.065  11.670   2.955 -0.5820 -0.2328 -2.1403
  872MOL0     H17671   4.358  11.433   2.871  0.2183  0.4138  0.4299
  872MOL0     H17672   4.576  11.640   2.613 -0.8017 -0.2848 -1.2017
  872MOL0     H17673   4.628  11.559   2.771 -1.0944  0.0764  0.5854
  872MOL0     H17674   4.527  11.354   2.693  1.1828  1.7103  0.9631
  872MOL0     H17675   4.647  11.419   2.575 -0.3230 -1.4199 -1.2636
  872MOL0     H17676   4.433  11.526   2.475 -0.8170  0.0631  1.0710
  872MOL0     H17677   4.340  11.413   2.570  0.9953  0.4474  2.1262
  872MOL0     H17678   4.360  11.274   2.372  2.7048 -2.7978 -1.7443
  872MOL0     H17679   4.488  11.227   2.481  1.0665  1.4989  0.7937
  872MOL0     H17680   4.507  11.078   2.264 -0.5035  0.5840 -2.4994
  872MOL0     H17681   4.581  10.877   2.051  1.2969  2.9389 -1.6966
  872MOL0     H17682   4.732  10.856   2.133  0.1495 -0.1801 -1.1454
  872MOL0     H17683   4.579  10.881   2.231 -0.6879  0.4660  0.0322
  872MOL0     H17684   5.029  10.827   1.898 -1.4056  1.4173  0.4574
  872MOL0     H17685   5.177  10.755   1.698  0.0046  0.3604 -3.2900
  872MOL0     H17686   5.332  10.741   1.512  0.5457  1.1909  1.4489
  872MOL0     H17687   5.193  10.846   1.468 -0.3373  0.9681  0.2414
  872MOL0     H17688   5.315  10.955   1.302 -3.0035 -2.2813  0.7887
  872MOL0     H17689   5.470  10.895   1.368  0.0356 -0.2357  1.7011
  872MOL0     H17690   5.382  10.674   1.329 -0.1890  2.2289  2.8925
  872MOL0     H17691   5.449  10.763   1.190  0.5129 -2.8063 -0.3371
  872MOL0     H17692   5.135  10.723   1.243 -1.6147 -1.4983 -1.0452
  872MOL0     H17693   5.207  10.832   1.126 -3.1223 -1.9250 -3.1473
  872MOL0     H17694   5.314  10.559   1.121 -0.3670  0.0812  0.3531
  872MOL0     H17695   5.288  10.659   0.975 -0.6279 -0.7385 -0.7260
  872MOL0     H17696   5.144  10.462   1.000  0.2190  1.4626 -3.6318
  872MOL0     H17697   5.068  10.544   1.137 -2.7320  1.0408 -1.2763
  872MOL0     H17698   5.077  10.667   0.851  1.7310  1.8327  1.4965
  872MOL0     H17699   4.985  10.728   0.995 -1.8107 -0.8871  0.8418
  872MOL0     H17700   4.834  10.548   0.988  1.3939 -4.3287  1.4624
  872MOL0     H17701   4.934  10.453   0.880 -0.8953 -0.0809  0.5003
  872MOL0     H17702   5.319  11.153   1.671  1.1759 -0.8655 -0.7799
  872MOL0     H17703   5.156  11.234   1.864 -0.5304  0.8578 -1.2547
  872MOL0     H17704   4.881  11.307   2.039  1.3222 -0.9871  0.0997
  872MOL0     H17705   4.733  11.427   2.211 -0.8029  0.2341  2.0989
  872MOL0     H17706   3.905  11.574   3.735 -0.6026  0.4572 -0.9799
  872MOL0     H17707   3.959  11.533   3.965 -2.3504  2.8718 -1.7749
  872MOL0     H17708   4.002  10.966   4.310 -1.5160 -1.2541  0.5357
  872MOL0     H17709   4.007  10.952   4.523  1.0636 -0.3080 -1.4251
  872MOL0     H17710   3.958  10.954   4.751 -0.1094 -0.0277  2.1246
  872MOL0     H17711   3.950  11.061   4.879  0.9307 -2.9029  0.1307
  872MOL0     H17712   3.728  11.019   4.686 -0.9190  0.1121  0.0381
  872MOL0     H17713   3.750  11.174   4.762  0.8497  0.1482  2.3625
  872MOL0     H17714   3.717  11.071   4.992 -1.8487 -1.4594  0.6502
  872MOL0     H17715   3.757  10.919   4.936 -1.4720 -0.5842 -1.0854
  872MOL0     H17716   3.520  10.919   4.969 -2.3373 -0.7419 -1.7413
  872MOL0     H17717   3.537  10.926   4.792 -1.1548  0.3629 -0.0385
  872MOL0     H17718   3.328  11.252   4.935 -0.8146  0.1410 -0.0736
  872MOL0     H17719   3.965  11.383   4.554 -0.3688  0.2302 -2.1500
  872MOL0     H17720   3.956  11.403   4.307  3.2524  0.1228 -0.8963
  873MOL0     O17721  10.561   7.338   7.355  0.6798 -0.9199 -0.4734
  873MOL0     C17722  10.523   7.446   7.310  0.0694  0.5068 -1.1251
  873MOL0     O17723  10.594   7.556   7.301 -0.3262  0.5059  1.2286
  873MOL0     C17724  10.720   7.562   7.354  0.0043  0.0870  0.4219
  873MOL0     C17725  10.736   7.638   7.466 -0.0233  0.1647  0.5437
  873MOL0     C17726  10.850   7.651   7.538 -1.5168  0.6940  0.4147
  873MOL0     C17727  10.973   7.605   7.472  0.0023 -0.1398  0.4518
  873MOL0     O17728  11.096   7.622   7.527 -0.0729 -1.0463 -0.9999
  873MOL0     C17729  11.097   7.697   7.655  0.2104 -0.2183  0.9592
  873MOL0     C17730  11.237   7.703   7.715 -0.5806 -0.1167  0.7226
  873MOL0     C17731  11.273   7.595   7.824  0.7940  1.1195  0.1559
  873MOL0     C17732  11.196   7.618   7.965  0.3153  0.1241  0.9673
  873MOL0     C17733  11.208   7.508   8.063  0.4270  0.6086  0.3278
  873MOL0     C17734  11.353   7.498   8.127 -0.1462 -0.2557 -0.4165
  873MOL0     C17735  11.359   7.399   8.251  0.2081 -0.0944  0.1603
  873MOL0     C17736  11.492   7.404   8.337  0.4274 -0.6011  0.4323
  873MOL0     N17737  11.602   7.325   8.274  0.0019 -0.1665 -0.4262
  873MOL0     C17738  11.684   7.363   8.170  0.5210 -1.2723 -1.3715
  873MOL0     C17739  11.777   7.265   8.147 -1.3548  0.0074  0.6100
  873MOL0     C17740  11.903   7.260   8.058  0.6371 -0.9150  0.2445
  873MOL0     C17741  11.969   7.121   8.034 -0.5079 -0.5000 -0.9911
  873MOL0     C17742  12.111   7.128   7.974 -0.0581  1.1563 -0.6619
  873MOL0     C17743  12.167   6.988   7.955  0.2711  0.1482 -0.4252
  873MOL0     O17744  12.303   7.007   7.943  0.2110 -0.6660  0.8160
  873MOL0     C17745  12.356   6.999   7.816  0.0937  0.1906 -0.8500
  873MOL0     C17746  12.376   7.108   7.742 -0.1346  0.2953 -0.1268
  873MOL0     C17747  12.425   7.111   7.609 -0.6709 -0.6724 -0.7861
  873MOL0     C17748  12.485   7.245   7.566 -0.2538  0.2412 -0.1232
  873MOL0     C17749  12.454   6.989   7.545  0.3049 -0.0443  1.1062
  873MOL0     C17750  12.493   6.966   7.408  0.2471  0.4382  0.2437
  873MOL0     O17751  12.485   6.837   7.359 -0.0655  0.3123 -0.1497
  873MOL0     C17752  12.511   6.795   7.232 -0.2220 -0.1254 -0.2247
  873MOL0     C17753  12.457   6.672   7.191 -0.2970  0.8703  0.1183
  873MOL0     C17754  12.486   6.624   7.064 -0.4542 -1.0843  0.0364
  873MOL0     C17755  12.567   6.693   6.966 -0.2996 -0.4983  0.3846
  873MOL0     O17756  12.579   6.628   6.852 -0.7841  0.1026 -0.7064
  873MOL0     C17757  12.668   6.679   6.759 -1.1506  1.0277  0.5230
  873MOL0     C17758  12.643   6.621   6.623  0.7413  0.3859  0.1227
  873MOL0     C17759  12.613   6.472   6.624  0.1186  0.5606  0.3120
  873MOL0     C17760  12.605   6.408   6.488 -0.3761  0.1425 -0.7153
  873MOL0     C17761  12.604   6.254   6.485  0.5600 -0.7952 -1.3606
  873MOL0     C17762  12.560   6.194   6.347  0.7510 -0.1823  0.4590
  873MOL0     C17763  12.399   6.199   6.322 -0.5905 -0.7566 -0.2302
  873MOL0     C17764  12.317   6.090   6.379  0.7814 -0.1199  0.4859
  873MOL0    Cl17765  12.157   6.059   6.302 -0.4651  0.1397 -0.0411
  873MOL0     C17766  12.609   6.823   7.010  0.0385  0.1232  0.4819
  873MOL0     C17767  12.583   6.875   7.135 -0.2706 -0.4182 -0.1553
  873MOL0     O17768  12.523   7.061   7.338 -0.6345  0.9255 -0.6910
  873MOL0     C17769  12.418   6.874   7.625 -0.1558 -0.4890  0.1607
  873MOL0     C17770  12.365   6.878   7.755 -0.4125 -0.4314  0.0351
  873MOL0     N17771  11.730   7.155   8.210  0.8377 -0.0607  0.9315
  873MOL0     N17772  11.639   7.199   8.285 -0.2078  0.1351 -1.0069
  873MOL0     C17773  10.962   7.537   7.348  0.0728 -0.2210 -0.0472
  873MOL0     C17774  10.840   7.507   7.295  0.5802  1.4823  0.0671
  873MOL0     C17775  10.385   7.449   7.260  0.7252 -0.0543  0.2699
  873MOL0     C17776  10.327   7.578   7.225 -0.5446  0.1786  1.0363
  873MOL0     C17777  10.202   7.593   7.164  0.5819  0.7223 -0.6017
  873MOL0     C17778  10.126   7.475   7.152  0.5288  0.7767  0.0072
  873MOL0     O17779  10.001   7.487   7.093  0.8913  0.3697 -0.2917
  873MOL0     C17780   9.922   7.372   7.053 -0.2178  1.0874 -0.3430
  873MOL0     C17781   9.787   7.411   6.984 -0.0240  0.2688  0.2634
  873MOL0     C17782   9.748   7.323   6.878  0.8948  0.1286 -0.3668
  873MOL0     C17783   9.607   7.347   6.829 -1.4679  0.3614 -0.8047
  873MOL0     C17784   9.586   7.236   6.727 -0.3533 -0.3061 -0.4214
  873MOL0     C17785   9.562   7.141   6.665  0.2877  0.8293 -0.7232
  873MOL0     C17786  10.177   7.356   7.191 -0.9681 -0.8172  0.1056
  873MOL0     C17787  10.303   7.338   7.252 -1.2657  0.0791  0.1028
  873MOL0     H17788  10.641   7.680   7.497 -0.0261  1.1588 -0.7369
  873MOL0     H17789  10.843   7.713   7.626 -0.7368  1.4406 -0.0308
  873MOL0     H17790  11.063   7.794   7.618 -1.3738 -0.6909  1.0994
  873MOL0     H17791  11.027   7.658   7.729  0.8897 -1.7332  0.8459
  873MOL0     H17792  11.310   7.696   7.634 -0.3806  4.3212  0.2916
  873MOL0     H17793  11.251   7.804   7.753  3.1174 -0.1286 -0.2741
  873MOL0     H17794  11.233   7.500   7.789  0.0546  0.6479  2.1083
  873MOL0     H17795  11.380   7.591   7.844  0.5112 -1.4103  1.6231
  873MOL0     H17796  11.226   7.717   8.003 -3.1304  1.5572  0.3160
  873MOL0     H17797  11.091   7.618   7.935  1.1757 -0.3595 -2.5239
  873MOL0     H17798  11.138   7.518   8.147  1.8111  2.8583  1.2933
  873MOL0     H17799  11.174   7.414   8.018 -2.7457  2.2610 -1.0906
  873MOL0     H17800  11.412   7.470   8.039  0.3764  0.9121 -0.4506
  873MOL0     H17801  11.378   7.599   8.160 -3.1424  0.2386  0.7579
  873MOL0     H17802  11.278   7.421   8.321  1.6224 -2.7655  2.8495
  873MOL0     H17803  11.336   7.300   8.209 -1.5170 -0.2162  1.2966
  873MOL0     H17804  11.477   7.375   8.441 -2.2114  0.3515  0.4113
  873MOL0     H17805  11.532   7.506   8.348  1.0932 -0.7148 -0.7590
  873MOL0     H17806  11.684   7.466   8.135 -1.9312 -0.4699  0.7419
  873MOL0     H17807  11.878   7.294   7.957  2.7271  0.7519  0.2033
  873MOL0     H17808  11.975   7.336   8.092  1.7364 -2.0454  0.5247
  873MOL0     H17809  11.901   7.053   7.982 -1.3489  0.9322 -1.8366
  873MOL0     H17810  11.981   7.087   8.137  0.3892  2.5545  0.0257
  873MOL0     H17811  12.169   7.183   8.050  0.5113 -0.8379  0.4205
  873MOL0     H17812  12.105   7.177   7.876 -1.4285 -0.9681 -1.6934
  873MOL0     H17813  12.116   6.943   7.870  2.1366  1.2379 -2.1996
  873MOL0     H17814  12.151   6.930   8.047 -0.7524 -0.9563 -1.2579
  873MOL0     H17815  12.374   7.199   7.801  3.6339  0.5858 -0.2447
  873MOL0     H17816  12.590   7.238   7.593  0.3092 -2.2807 -2.4421
  873MOL0     H17817  12.476   7.259   7.458  2.8277 -3.6738 -1.1515
  873MOL0     H17818  12.433   7.330   7.610 -2.5875  0.2088 -2.5714
  873MOL0     H17819  12.393   6.605   7.247 -0.0552  2.0334  1.8533
  873MOL0     H17820  12.446   6.528   7.033 -1.0650 -1.6088  2.3415
  873MOL0     H17821  12.646   6.785   6.742 -1.5177  0.4549 -3.8958
  873MOL0     H17822  12.773   6.663   6.787 -1.3735 -0.4543  0.5638
  873MOL0     H17823  12.561   6.678   6.578  0.5253  0.1463  0.2138
  873MOL0     H17824  12.731   6.634   6.559  1.2784  2.0106  1.1407
  873MOL0     H17825  12.521   6.447   6.677  0.6613 -0.4461  0.8057
  873MOL0     H17826  12.692   6.420   6.679 -1.5236 -0.0505  2.2020
  873MOL0     H17827  12.514   6.443   6.438 -0.3841  0.0747 -0.7473
  873MOL0     H17828  12.694   6.447   6.437 -1.0610  2.0851 -0.5178
  873MOL0     H17829  12.540   6.235   6.571 -0.0104  5.7327  0.2137
  873MOL0     H17830  12.708   6.220   6.494  0.7138 -0.0204  0.1238
  873MOL0     H17831  12.605   6.254   6.267 -3.3790  1.9272 -0.5743
  873MOL0     H17832  12.591   6.090   6.338  2.7504  0.3588  0.6995
  873MOL0     H17833  12.387   6.198   6.213  0.2659  2.9231 -0.4815
  873MOL0     H17834  12.351   6.290   6.358  1.2436  0.9988 -1.9354
  873MOL0     H17835  12.301   6.103   6.486 -1.6415 -3.3625  0.6622
  873MOL0     H17836  12.371   5.995   6.381  0.1930 -0.4752 -0.0913
  873MOL0     H17837  12.660   6.892   6.944 -0.9049  0.8878  0.5252
  873MOL0     H17838  12.637   6.966   7.157  5.0195 -3.0481 -0.6075
  873MOL0     H17839  12.454   6.773   7.609 -2.9370 -1.2877 -1.6092
  873MOL0     H17840  12.336   6.785   7.803  0.2810 -0.6774 -0.0077
  873MOL0     H17841  11.059   7.502   7.313  2.4756  1.3808  4.2742
  873MOL0     H17842  10.827   7.443   7.209 -0.8276  2.6699 -0.6484
  873MOL0     H17843  10.384   7.670   7.225  0.5657 -0.4763 -0.8110
  873MOL0     H17844  10.159   7.689   7.137 -0.9033  0.0119 -0.8652
  873MOL0     H17845   9.984   7.310   6.988 -1.6972  0.4145 -1.1320
  873MOL0     H17846   9.909   7.305   7.139  2.5873 -0.1851 -0.7979
  873MOL0     H17847   9.793   7.511   6.939  0.0205  0.1690  0.0447
  873MOL0     H17848   9.721   7.402   7.071  0.7059 -0.3205  0.7691
  873MOL0     H17849   9.735   7.225   6.924 -1.4885  0.2051 -0.7439
  873MOL0     H17850   9.822   7.322   6.797  1.9178  0.2209  0.5485
  873MOL0     H17851   9.597   7.438   6.769 -2.0932 -0.3849 -1.8747
  873MOL0     H17852   9.544   7.345   6.918  0.9596 -1.0495  0.9942
  873MOL0     H17853   9.549   7.060   6.596 -0.7490  1.0810 -0.8411
  873MOL0     H17854  10.121   7.263   7.179  2.7542 -2.9914 -2.3032
  873MOL0     H17855  10.334   7.241   7.290 -1.6420 -1.2201 -2.5842
  874MOL0     O17856   6.026   3.089   5.766 -0.5336 -0.4714  0.1636
  874MOL0     C17857   5.942   3.147   5.692 -0.5084 -0.9584 -0.0795
  874MOL0     O17858   5.851   3.251   5.736  0.0535 -0.4190  0.6633
  874MOL0     C17859   5.795   3.211   5.861 -0.5428 -0.7401 -0.1268
  874MOL0     C17860   5.745   3.085   5.897  0.0599  1.0884 -0.3301
  874MOL0     C17861   5.698   3.056   6.024  0.4853  0.0825 -0.0993
  874MOL0     C17862   5.710   3.151   6.126 -1.0853 -0.2974 -0.3488
  874MOL0     O17863   5.662   3.096   6.245  0.5051  0.2925 -0.1457
  874MOL0     C17864   5.693   3.163   6.359  0.4146 -0.3349  0.2025
  874MOL0     C17865   5.651   3.090   6.483 -0.0532 -0.8032  0.7141
  874MOL0     C17866   5.600   3.190   6.593 -0.1912  0.0479  0.2215
  874MOL0     C17867   5.702   3.283   6.652 -0.5419  0.1721  0.7322
  874MOL0     C17868   5.665   3.365   6.779 -0.1445 -0.3785 -0.4887
  874MOL0     C17869   5.768   3.477   6.810  0.4121 -0.0225 -0.1546
  874MOL0     C17870   5.713   3.561   6.930 -0.4288  0.4720 -0.8689
  874MOL0     C17871   5.837   3.648   6.982  0.0018  0.2939  0.9529
  874MOL0     N17872   5.863   3.755   6.887  0.2929  0.2837  0.6830
  874MOL0     C17873   5.773   3.834   6.813 -0.5640  0.4877 -0.3535
  874MOL0     C17874   5.839   3.917   6.723 -0.2547 -0.0279 -0.7424
  874MOL0     C17875   5.799   4.028   6.632 -0.3243  0.5668  0.4187
  874MOL0     C17876   5.701   4.125   6.704  0.4911  0.4754  1.9501
  874MOL0     C17877   5.761   4.202   6.823 -0.1205  0.0965 -1.0377
  874MOL0     C17878   5.657   4.300   6.879 -0.4322 -0.3294  0.8373
  874MOL0     O17879   5.651   4.281   7.024  0.1244  0.1451  0.4463
  874MOL0     C17880   5.578   4.379   7.086 -0.1284 -0.4500 -0.2915
  874MOL0     C17881   5.506   4.487   7.037  0.9253  0.9949 -0.3045
  874MOL0     C17882   5.423   4.570   7.115 -0.5694 -0.3240  0.8995
  874MOL0     C17883   5.335   4.671   7.044 -0.1527 -0.0909 -0.2145
  874MOL0     C17884   5.429   4.563   7.253 -0.0859  0.5292  0.3262
  874MOL0     C17885   5.359   4.644   7.353  0.3865  0.0205  1.5713
  874MOL0     O17886   5.383   4.602   7.481  0.7945 -0.9176 -0.0568
  874MOL0     C17887   5.337   4.678   7.590 -0.1803 -0.1718 -0.6022
  874MOL0     C17888   5.275   4.618   7.694 -1.0644 -0.0408  0.1882
  874MOL0     C17889   5.266   4.681   7.817  0.4336 -0.2761  0.4224
  874MOL0     C17890   5.296   4.813   7.835  0.2275  0.4511 -0.7340
  874MOL0     O17891   5.286   4.878   7.960  0.0337 -0.6397 -0.0479
  874MOL0     C17892   5.261   4.786   8.070 -0.4810  0.1886  0.2758
  874MOL0     C17893   5.285   4.872   8.197 -0.7148  0.1040 -0.3103
  874MOL0     C17894   5.163   4.947   8.238 -0.5799 -0.4481  0.2089
  874MOL0     C17895   5.166   5.011   8.383 -0.0597  0.0459  0.4365
  874MOL0     C17896   5.158   4.907   8.500 -0.1190  0.2947  0.2251
  874MOL0     C17897   5.190   4.962   8.641 -0.1709 -0.2347  0.1108
  874MOL0     C17898   5.090   5.066   8.678  0.0699  0.3200 -0.7115
  874MOL0     C17899   5.069   5.073   8.832  0.7092 -0.7746  1.1840
  874MOL0    Cl17900   5.224   5.078   8.913  0.0640 -0.0829  0.1614
  874MOL0     C17901   5.337   4.886   7.730  0.4473  0.8513 -0.1222
  874MOL0     C17902   5.354   4.820   7.607 -0.2763 -0.2540  0.5736
  874MOL0     O17903   5.278   4.726   7.318 -0.2171  0.6401  1.0821
  874MOL0     C17904   5.509   4.467   7.304 -1.1046  0.5699 -0.5698
  874MOL0     C17905   5.574   4.369   7.225  0.1808  0.1109 -0.5353
  874MOL0     N17906   5.970   3.881   6.744  0.1940  0.3507  0.2930
  874MOL0     N17907   5.990   3.798   6.837  0.5278 -0.1144 -0.5179
  874MOL0     C17908   5.773   3.275   6.100 -0.3953  0.4487  0.3802
  874MOL0     C17909   5.806   3.306   5.967 -0.2665  0.2790  0.2637
  874MOL0     C17910   5.954   3.136   5.540 -0.7483  0.3076 -0.0297
  874MOL0     C17911   5.871   3.215   5.450 -0.0556 -0.1808 -0.3617
  874MOL0     C17912   5.883   3.199   5.306  0.5009  0.3607  0.3525
  874MOL0     C17913   5.985   3.123   5.250  1.1285 -0.7926 -0.4753
  874MOL0     O17914   6.017   3.115   5.121 -0.4143 -0.1305 -0.2586
  874MOL0     C17915   5.937   3.182   5.019  0.5112  1.0354  0.6430
  874MOL0     C17916   5.978   3.324   5.014  1.2243 -0.8406  0.0362
  874MOL0     C17917   5.926   3.391   4.883 -0.5985 -0.3375 -0.5282
  874MOL0     C17918   5.773   3.384   4.844  0.6245 -0.3317  0.3563
  874MOL0     C17919   5.762   3.364   4.699 -0.0229  0.9346  0.8120
  874MOL0     C17920   5.756   3.350   4.577 -0.1995 -0.0490  0.0377
  874MOL0     C17921   6.070   3.059   5.339 -0.5261 -0.7619  0.2749
  874MOL0     C17922   6.062   3.062   5.481 -0.5338 -0.0866  0.7299
  874MOL0     H17923   5.747   3.004   5.824 -1.0305  2.2772 -1.7400
  874MOL0     H17924   5.657   2.958   6.044 -1.5917  0.7244 -0.9766
  874MOL0     H17925   5.803   3.162   6.359  0.4303  0.5202  0.7832
  874MOL0     H17926   5.661   3.265   6.335 -0.4783 -0.7116 -0.2457
  874MOL0     H17927   5.571   3.017   6.470  0.9925 -2.1727  1.7964
  874MOL0     H17928   5.734   3.030   6.522 -0.6227 -1.3335  1.1302
  874MOL0     H17929   5.522   3.256   6.554 -0.3280  1.0734  2.0923
  874MOL0     H17930   5.556   3.134   6.676  0.7696 -0.7979  0.1788
  874MOL0     H17931   5.791   3.222   6.671 -0.1466  0.3797 -0.4070
  874MOL0     H17932   5.739   3.349   6.573  1.2486 -3.4922 -1.7827
  874MOL0     H17933   5.566   3.411   6.771  0.3728  1.2146  1.5304
  874MOL0     H17934   5.658   3.290   6.859 -0.4937  1.1462  0.9586
  874MOL0     H17935   5.858   3.418   6.828 -0.1539 -0.9579 -0.3211
  874MOL0     H17936   5.789   3.541   6.724 -0.4735 -0.1930 -0.5075
  874MOL0     H17937   5.624   3.619   6.905 -2.0900 -1.0108  1.2522
  874MOL0     H17938   5.696   3.505   7.023  2.5177  1.3272  0.2832
  874MOL0     H17939   5.925   3.584   6.992 -1.6432 -1.8377  2.9960
  874MOL0     H17940   5.822   3.703   7.076 -0.1583 -0.0700  1.1438
  874MOL0     H17941   5.667   3.840   6.838 -0.3602  1.2208  0.3800
  874MOL0     H17942   5.892   4.076   6.601  0.4733 -2.2855 -2.0275
  874MOL0     H17943   5.746   4.004   6.539  0.5493  5.2863 -1.6253
  874MOL0     H17944   5.617   4.067   6.743 -0.4784  1.1098  0.8625
  874MOL0     H17945   5.677   4.205   6.634  3.0220 -2.6293 -3.1230
  874MOL0     H17946   5.847   4.263   6.793 -1.1503  2.7411  0.9984
  874MOL0     H17947   5.798   4.129   6.896  0.6416  0.5553 -0.9568
  874MOL0     H17948   5.558   4.276   6.842 -0.0538  2.0605 -2.0713
  874MOL0     H17949   5.686   4.402   6.852  5.0700 -2.0705 -1.1742
  874MOL0     H17950   5.510   4.506   6.930  0.9299 -0.5009 -0.5851
  874MOL0     H17951   5.353   4.681   6.937 -1.2724 -1.0021 -0.5093
  874MOL0     H17952   5.229   4.648   7.055 -0.4198  1.9413  2.5666
  874MOL0     H17953   5.361   4.763   7.097 -1.1582  0.2362 -0.2762
  874MOL0     H17954   5.229   4.520   7.689  0.2544 -0.9199  2.9731
  874MOL0     H17955   5.211   4.614   7.882 -0.5309  0.6667  0.6058
  874MOL0     H17956   5.160   4.747   8.051 -0.5928  1.2162 -1.5293
  874MOL0     H17957   5.330   4.701   8.072 -0.6095  0.0704 -0.2000
  874MOL0     H17958   5.319   4.804   8.276 -0.3417  2.5932  1.8050
  874MOL0     H17959   5.370   4.940   8.191  0.1123 -1.0438 -2.7500
  874MOL0     H17960   5.072   4.889   8.224 -1.1131  0.7136 -1.4752
  874MOL0     H17961   5.154   5.031   8.168  0.6805 -0.5547 -0.1053
  874MOL0     H17962   5.254   5.075   8.387  1.0083 -1.3963  0.5768
  874MOL0     H17963   5.082   5.081   8.379  0.6471  0.8393 -2.5131
  874MOL0     H17964   5.239   4.835   8.485  1.2029  1.4374  1.6191
  874MOL0     H17965   5.067   4.845   8.501  1.5189 -2.3324 -1.3933
  874MOL0     H17966   5.189   4.871   8.703 -2.1228 -1.3129 -1.3836
  874MOL0     H17967   5.290   5.004   8.635 -0.9616  1.7497  0.1586
  874MOL0     H17968   4.993   5.045   8.633  0.9066 -4.2241 -0.7913
  874MOL0     H17969   5.134   5.165   8.660  1.0864  0.9126  3.7220
  874MOL0     H17970   4.998   5.000   8.873 -1.5767  1.8531  2.1879
  874MOL0     H17971   5.014   5.163   8.859 -0.1754 -0.7166 -0.6360
  874MOL0     H17972   5.360   4.992   7.735 -2.0996  1.6655 -3.0522
  874MOL0     H17973   5.404   4.866   7.522  0.0942 -2.6258 -0.5725
  874MOL0     H17974   5.524   4.441   7.408 -1.0713  0.2257 -0.6600
  874MOL0     H17975   5.639   4.289   7.259  0.5058  1.2342  1.6555
  874MOL0     H17976   5.797   3.344   6.180  0.8824 -1.2541  1.5458
  874MOL0     H17977   5.851   3.402   5.945  2.3962 -1.3240 -2.0770
  874MOL0     H17978   5.793   3.279   5.490  0.5278  2.0589 -2.5777
  874MOL0     H17979   5.811   3.254   5.246  1.4909  0.5004 -0.7390
  874MOL0     H17980   5.951   3.135   4.921 -1.4523  1.7151 -0.0154
  874MOL0     H17981   5.832   3.168   5.046  1.0185 -2.4468  1.1752
  874MOL0     H17982   6.087   3.332   5.001  0.9780  1.6044 -1.1179
  874MOL0     H17983   5.950   3.382   5.102  2.4728 -0.2419  0.0602
  874MOL0     H17984   5.993   3.378   4.797 -0.8177  3.8995 -1.5901
  874MOL0     H17985   5.936   3.499   4.897 -0.6381 -0.1447 -1.8270
  874MOL0     H17986   5.722   3.475   4.876 -1.1041 -1.5886  1.3482
  874MOL0     H17987   5.714   3.307   4.893 -0.5409 -0.6733 -1.5047
  874MOL0     H17988   5.736   3.360   4.473  2.0860  0.2739 -0.4165
  874MOL0     H17989   6.152   3.015   5.282 -2.3398 -2.9006 -0.8405
  874MOL0     H17990   6.139   3.016   5.543  1.0107  3.0817  1.4252
  875MOL0     O17991   7.612   6.294   0.850  0.1875  0.6877 -0.0839
  875MOL0     C17992   7.714   6.335   0.913 -0.1813  0.2134  1.3758
  875MOL0     O17993   7.795   6.251   0.981 -0.5636  0.0202 -0.3174
  875MOL0     C17994   7.784   6.119   0.964  0.2523 -0.3691 -0.1213
  875MOL0     C17995   7.814   6.054   1.077  0.1750  0.6595 -0.6166
  875MOL0     C17996   7.798   5.913   1.078  0.1595  1.0697 -0.6718
  875MOL0     C17997   7.785   5.839   0.961 -0.1256 -0.4817  0.9327
  875MOL0     O17998   7.764   5.705   0.956 -0.4340  0.3753 -0.5428
  875MOL0     C17999   7.646   5.668   1.028  0.1646 -0.0264 -0.0268
  875MOL0     C18000   7.617   5.513   1.007 -0.0774 -0.7179 -0.2691
  875MOL0     C18001   7.578   5.466   0.876 -0.9203 -0.5187 -0.4306
  875MOL0     C18002   7.532   5.315   0.888  0.3090 -0.6016  0.2751
  875MOL0     C18003   7.508   5.248   0.759 -0.1808 -0.8301  0.2796
  875MOL0     C18004   7.450   5.110   0.776 -0.6646  0.5355 -0.0075
  875MOL0     C18005   7.440   5.054   0.629 -1.2284  0.0630 -0.2506
  875MOL0     C18006   7.286   5.045   0.593  0.0525 -0.7474  0.4022
  875MOL0     N18007   7.221   5.177   0.591 -0.3880  0.5005  0.4196
  875MOL0     C18008   7.224   5.265   0.489  0.2922 -0.0197  0.6114
  875MOL0     C18009   7.168   5.379   0.535  0.1748 -0.2418  0.0682
  875MOL0     C18010   7.183   5.510   0.457 -0.2854  0.8391 -0.1756
  875MOL0     C18011   7.204   5.624   0.557 -0.5990 -0.2713 -1.4218
  875MOL0     C18012   7.352   5.637   0.604 -0.7466  0.4436  1.0556
  875MOL0     C18013   7.376   5.759   0.705  0.4969  0.7925  0.3900
  875MOL0     O18014   7.295   5.758   0.818 -0.0211  0.1859 -0.4189
  875MOL0     C18015   7.284   5.859   0.903 -1.2233 -0.6772 -0.4130
  875MOL0     C18016   7.178   5.874   0.982 -0.6115  0.5392 -0.6571
  875MOL0     C18017   7.143   5.985   1.065 -0.6577  0.0849  0.7879
  875MOL0     C18018   7.022   5.971   1.150  0.0445  0.5419 -0.9934
  875MOL0     C18019   7.222   6.102   1.050  0.1089  0.3591 -0.4684
  875MOL0     C18020   7.193   6.231   1.120 -0.1010  0.0127  0.3813
  875MOL0     O18021   7.275   6.327   1.099  0.3926  0.0409 -0.6013
  875MOL0     C18022   7.238   6.459   1.102  0.0351 -0.6275  1.4317
  875MOL0     C18023   7.323   6.555   1.153  0.5572 -0.0475 -0.1832
  875MOL0     C18024   7.289   6.692   1.172  0.3196 -0.0662  0.2843
  875MOL0     C18025   7.165   6.735   1.121  0.2143 -0.8977 -0.0368
  875MOL0     O18026   7.121   6.869   1.120 -0.3859  0.2017  0.3949
  875MOL0     C18027   7.149   6.943   1.236  0.1052 -0.0258  0.5770
  875MOL0     C18028   7.044   7.046   1.266 -0.8615 -0.3968  0.2142
  875MOL0     C18029   7.090   7.134   1.384 -0.0494 -0.6310  0.8867
  875MOL0     C18030   7.162   7.265   1.349  0.2635 -0.8628 -0.5076
  875MOL0     C18031   7.129   7.367   1.457  0.1439 -0.2183 -0.4438
  875MOL0     C18032   7.189   7.506   1.437 -0.8367  0.3585 -0.3362
  875MOL0     C18033   7.149   7.573   1.308  0.5585  0.2616 -0.6839
  875MOL0     C18034   7.095   7.715   1.334 -0.2328 -0.3983 -0.3557
  875MOL0    Cl18035   7.227   7.815   1.416 -0.0239 -0.3192 -0.1345
  875MOL0     C18036   7.083   6.643   1.056  0.0194  0.2961  1.4110
  875MOL0     C18037   7.125   6.509   1.028  0.2945 -0.7038  0.1710
  875MOL0     O18038   7.080   6.246   1.176  0.1229 -0.2621  0.3817
  875MOL0     C18039   7.342   6.094   0.977  0.2327 -0.1050  0.4219
  875MOL0     C18040   7.372   5.976   0.909  1.0271 -0.5830 -1.3335
  875MOL0     N18041   7.125   5.357   0.664  0.2856 -0.4221  1.0708
  875MOL0     N18042   7.157   5.238   0.692 -0.1581 -0.1934  0.7713
  875MOL0     C18043   7.789   5.913   0.845  0.0862  0.4888  0.2499
  875MOL0     C18044   7.770   6.047   0.846 -0.6958 -0.1379 -0.4371
  875MOL0     C18045   7.754   6.475   0.896  0.7677 -0.7556 -0.3735
  875MOL0     C18046   7.887   6.525   0.917 -1.3512  0.2846 -0.2036
  875MOL0     C18047   7.915   6.662   0.921  0.8463 -0.2616 -0.1030
  875MOL0     C18048   7.808   6.755   0.884  0.6580  0.8177 -1.2907
  875MOL0     O18049   7.820   6.892   0.870 -0.8659  0.1137  0.4254
  875MOL0     C18050   7.921   6.935   0.782  0.5250  1.1064  0.7425
  875MOL0     C18051   7.869   7.048   0.701  0.2462 -0.2783 -0.4340
  875MOL0     C18052   7.848   7.014   0.551  0.3286  0.1270  0.4230
  875MOL0     C18053   7.723   6.918   0.523  0.2926 -0.3670 -0.3735
  875MOL0     C18054   7.595   6.989   0.530  0.0124 -0.6599 -0.5697
  875MOL0     C18055   7.499   7.064   0.524 -0.4117  0.4364  0.6386
  875MOL0     C18056   7.685   6.706   0.858 -0.6301  0.2580 -0.0596
  875MOL0     C18057   7.657   6.570   0.861  0.1801 -0.1237  0.7863
  875MOL0     H18058   7.833   6.094   1.176 -0.9654 -0.5699  0.1395
  875MOL0     H18059   7.789   5.875   1.179 -3.0569  1.9023 -0.5367
  875MOL0     H18060   7.651   5.697   1.134 -1.6763  1.1511 -0.2294
  875MOL0     H18061   7.559   5.726   0.995  0.0269  0.2068  0.7298
  875MOL0     H18062   7.712   5.464   1.030 -0.3747 -0.5703  1.3808
  875MOL0     H18063   7.547   5.485   1.086 -1.4090 -2.2998 -1.9132
  875MOL0     H18064   7.498   5.532   0.841  0.0365 -0.6002 -3.0617
  875MOL0     H18065   7.653   5.471   0.795 -1.5206 -0.4182 -0.9901
  875MOL0     H18066   7.603   5.260   0.950  1.9825  1.1212 -0.0212
  875MOL0     H18067   7.436   5.321   0.941  0.5043  1.1952  0.4922
  875MOL0     H18068   7.449   5.307   0.688  3.9347  1.1071 -1.8693
  875MOL0     H18069   7.610   5.233   0.724 -0.4412  0.3257 -1.1065
  875MOL0     H18070   7.510   5.050   0.845 -0.9115  0.4327  0.1194
  875MOL0     H18071   7.352   5.117   0.823 -1.0678  0.3347 -0.7954
  875MOL0     H18072   7.488   5.128   0.564 -1.3530  0.2287 -0.1530
  875MOL0     H18073   7.492   4.958   0.620 -1.3359  0.1152 -1.4836
  875MOL0     H18074   7.241   4.982   0.670 -3.3676 -0.2070 -0.9540
  875MOL0     H18075   7.282   5.006   0.490 -1.0332 -0.7376  0.4259
  875MOL0     H18076   7.271   5.246   0.394 -4.4869 -2.3880 -1.6612
  875MOL0     H18077   7.258   5.495   0.378 -1.9254  1.5751 -1.9349
  875MOL0     H18078   7.086   5.523   0.409 -0.7349 -0.5882  0.3063
  875MOL0     H18079   7.133   5.622   0.641  0.1985 -0.2202 -0.7378
  875MOL0     H18080   7.187   5.719   0.507  0.9843  0.4055 -0.7409
  875MOL0     H18081   7.414   5.652   0.515  1.6627  0.6873  2.6958
  875MOL0     H18082   7.394   5.548   0.651 -0.8849  0.6010  1.4857
  875MOL0     H18083   7.368   5.856   0.655 -0.3053  0.4979 -0.0565
  875MOL0     H18084   7.481   5.761   0.737  1.8830 -0.2505 -3.4982
  875MOL0     H18085   7.125   5.780   0.992 -2.7693  1.4882 -2.2722
  875MOL0     H18086   6.945   6.033   1.104 -0.9855 -0.1047 -0.2220
  875MOL0     H18087   6.983   5.868   1.149  0.0632  0.5143 -0.0734
  875MOL0     H18088   7.053   5.994   1.252  3.2822 -1.8969 -1.2877
  875MOL0     H18089   7.417   6.509   1.182  1.4672  1.6164 -0.3638
  875MOL0     H18090   7.365   6.761   1.209 -1.9838  1.8247  1.8248
  875MOL0     H18091   7.158   6.869   1.316 -0.8884  0.0638  0.7897
  875MOL0     H18092   7.245   6.995   1.235 -0.3993  0.9809  1.6023
  875MOL0     H18093   7.011   7.115   1.187 -2.4369  3.2714  3.6845
  875MOL0     H18094   6.953   6.996   1.301 -2.5695  2.9044  0.9879
  875MOL0     H18095   7.155   7.078   1.452 -1.3111 -5.0669 -1.2142
  875MOL0     H18096   6.995   7.142   1.439 -1.7249 -2.1234 -1.6064
  875MOL0     H18097   7.268   7.243   1.341  0.5301 -0.2210  0.9362
  875MOL0     H18098   7.141   7.304   1.249  1.8995  1.3304 -0.0731
  875MOL0     H18099   7.163   7.330   1.555  0.0388  3.5006  1.1462
  875MOL0     H18100   7.021   7.374   1.472  0.2538 -2.0899  1.8333
  875MOL0     H18101   7.168   7.564   1.527 -1.0683 -0.8960  0.4510
  875MOL0     H18102   7.298   7.498   1.449 -0.8333  0.4163 -0.3288
  875MOL0     H18103   7.062   7.524   1.263 -0.3009  0.0568  1.0934
  875MOL0     H18104   7.235   7.584   1.242  1.3617 -1.1113  0.0696
  875MOL0     H18105   7.005   7.704   1.395  1.3406 -0.4343  2.1186
  875MOL0     H18106   7.064   7.759   1.239 -1.9036  1.2614  0.8995
  875MOL0     H18107   6.989   6.679   1.013 -0.4338  0.5107  2.5462
  875MOL0     H18108   7.050   6.445   0.982 -1.1525  1.6204 -0.9147
  875MOL0     H18109   7.415   6.173   0.979  0.6321 -0.4497 -0.1646
  875MOL0     H18110   7.468   5.978   0.858  3.3218  0.0653  2.6043
  875MOL0     H18111   7.785   5.856   0.753  0.4761  0.9237 -0.0363
  875MOL0     H18112   7.751   6.105   0.756  1.2665  1.1561 -0.0693
  875MOL0     H18113   7.971   6.457   0.926  0.4696  2.1239 -2.2962
  875MOL0     H18114   8.018   6.686   0.945  0.3774  0.0479  1.6953
  875MOL0     H18115   8.014   6.949   0.838  1.3951  2.0643 -0.8781
  875MOL0     H18116   7.937   6.850   0.715 -0.1546 -0.7819  2.8298
  875MOL0     H18117   7.941   7.130   0.701  0.2805 -0.2988  0.2233
  875MOL0     H18118   7.785   7.089   0.757 -1.0845 -1.2605 -1.6415
  875MOL0     H18119   7.937   6.956   0.525  0.6549  0.4934  0.7274
  875MOL0     H18120   7.832   7.106   0.495 -1.0662 -0.7918 -0.7734
  875MOL0     H18121   7.711   6.842   0.601  1.9316 -0.7166 -0.4280
  875MOL0     H18122   7.717   6.897   0.416  2.2235  1.0995 -0.8280
  875MOL0     H18123   7.420   7.134   0.544 -1.6572  0.0889 -2.5861
  875MOL0     H18124   7.598   6.770   0.842 -0.0086  1.1011 -0.1259
  875MOL0     H18125   7.552   6.541   0.851  0.3078 -0.4709  0.4338
  876MOL0     O18126   1.396  10.185   3.260  0.2720  0.3418  0.4786
  876MOL0     C18127   1.510  10.216   3.284  0.3124  0.0444 -0.2529
  876MOL0     O18128   1.618  10.140   3.257 -0.6304  0.1193  0.0584
  876MOL0     C18129   1.590  10.018   3.197  0.4619 -0.6378  0.6196
  876MOL0     C18130   1.581   9.913   3.286 -0.0925  0.0419 -0.4031
  876MOL0     C18131   1.564   9.786   3.235 -0.0679  0.3814 -1.0389
  876MOL0     C18132   1.541   9.759   3.101 -0.0596  0.7461 -0.5015
  876MOL0     O18133   1.506   9.639   3.044 -0.1059 -0.0410 -0.1674
  876MOL0     C18134   1.572   9.508   3.076 -0.1080  0.4073  0.1013
  876MOL0     C18135   1.622   9.443   2.942  0.0833 -0.5100 -0.3561
  876MOL0     C18136   1.656   9.292   2.967  0.1851 -0.2904  0.4309
  876MOL0     C18137   1.608   9.210   2.842 -0.1124 -0.1265 -0.8239
  876MOL0     C18138   1.657   9.065   2.854 -0.3362  0.1839 -0.2524
  876MOL0     C18139   1.637   8.998   2.713 -0.0318  0.6928  0.0738
  876MOL0     C18140   1.671   8.856   2.727  0.0051  0.6827 -0.2966
  876MOL0     C18141   1.697   8.797   2.587  0.3564 -0.2387  0.0369
  876MOL0     N18142   1.710   8.658   2.596 -0.0893  0.0747 -0.0123
  876MOL0     C18143   1.835   8.600   2.616 -0.0419  0.5777 -0.5747
  876MOL0     C18144   1.796   8.474   2.619 -0.2540 -0.8426  0.4735
  876MOL0     C18145   1.891   8.357   2.644  0.3197  0.9575 -0.6584
  876MOL0     C18146   1.943   8.378   2.781 -0.0841  0.0945  0.0900
  876MOL0     C18147   2.043   8.281   2.833 -0.0323  0.6321  0.4042
  876MOL0     C18148   2.078   8.321   2.977  0.7876 -0.0739 -0.3086
  876MOL0     O18149   1.973   8.314   3.067 -0.2003  0.1426 -0.0042
  876MOL0     C18150   1.933   8.197   3.115 -0.3459 -0.6100 -0.7846
  876MOL0     C18151   2.011   8.096   3.161 -0.6188  0.0110 -0.3926
  876MOL0     C18152   1.962   7.981   3.211  0.2359 -0.1269  0.0502
  876MOL0     C18153   2.072   7.877   3.244 -0.1603 -0.1557 -0.0396
  876MOL0     C18154   1.824   7.964   3.240 -0.0256 -0.3169 -0.1710
  876MOL0     C18155   1.764   7.841   3.286  0.2138 -0.0618  0.9315
  876MOL0     O18156   1.843   7.745   3.315  0.1169 -0.0284 -0.7724
  876MOL0     C18157   1.792   7.622   3.365 -0.5118 -0.0408  0.5038
  876MOL0     C18158   1.725   7.530   3.287 -0.0393 -0.7290  0.0970
  876MOL0     C18159   1.681   7.405   3.346  0.0549 -0.0328  0.2530
  876MOL0     C18160   1.711   7.365   3.471  0.2815 -0.4606 -0.1279
  876MOL0     O18161   1.691   7.231   3.510  0.1070  0.3583  0.6636
  876MOL0     C18162   1.548   7.199   3.523 -0.2862  0.0214 -0.2616
  876MOL0     C18163   1.527   7.072   3.602 -1.3729 -0.0197 -0.8477
  876MOL0     C18164   1.601   7.068   3.738  0.1563  0.3556  0.8439
  876MOL0     C18165   1.557   6.954   3.838  0.2504 -0.1915 -0.3782
  876MOL0     C18166   1.661   6.839   3.842  0.5306  0.2788 -1.4562
  876MOL0     C18167   1.680   6.788   3.982  0.1070 -0.5505 -0.3822
  876MOL0     C18168   1.673   6.634   3.985  0.2451 -0.0729 -0.4651
  876MOL0     C18169   1.804   6.562   3.949  0.3444 -0.7414  0.1505
  876MOL0    Cl18170   1.778   6.391   3.957  0.3554 -0.2260  0.1134
  876MOL0     C18171   1.775   7.468   3.549 -0.5527 -0.9872 -0.1440
  876MOL0     C18172   1.831   7.584   3.491  0.2201 -0.8171 -0.0941
  876MOL0     O18173   1.645   7.835   3.277 -0.1988  0.6900 -0.5898
  876MOL0     C18174   1.742   8.077   3.218 -0.1251  0.2891 -0.0246
  876MOL0     C18175   1.800   8.192   3.151  0.6182  0.2012  0.0093
  876MOL0     N18176   1.660   8.457   2.591  0.4243 -0.3287  0.0061
  876MOL0     N18177   1.612   8.575   2.561 -0.3477 -0.0828 -0.3217
  876MOL0     C18178   1.528   9.872   3.015 -0.1846  0.3023  0.4048
  876MOL0     C18179   1.557   9.999   3.062 -0.3327  0.2174 -0.6394
  876MOL0     C18180   1.528  10.343   3.359  0.2713  1.6496  0.1608
  876MOL0     C18181   1.424  10.434   3.370 -0.3391 -0.3109 -0.7422
  876MOL0     C18182   1.437  10.550   3.441  0.0147  0.9534  0.3731
  876MOL0     C18183   1.554  10.573   3.519 -0.1678 -0.2648 -0.1110
  876MOL0     O18184   1.583  10.682   3.594  0.9091  0.3925 -0.1839
  876MOL0     C18185   1.485  10.781   3.613  0.2991 -0.8799 -0.2553
  876MOL0     C18186   1.486  10.883   3.487  0.8417 -0.0557 -0.4251
  876MOL0     C18187   1.429  11.021   3.524  0.1524  1.0013 -0.1886
  876MOL0     C18188   1.278  11.032   3.537 -0.0874 -0.1623 -0.6734
  876MOL0     C18189   1.194  10.950   3.449 -0.7115  0.7139 -0.8744
  876MOL0     C18190   1.125  10.877   3.373  0.2268 -0.6840 -0.3634
  876MOL0     C18191   1.648  10.473   3.523 -1.0137 -0.8174  0.6516
  876MOL0     C18192   1.639  10.359   3.443 -0.3004 -0.1946 -0.2959
  876MOL0     H18193   1.584   9.945   3.390  2.9804 -0.0205 -0.3766
  876MOL0     H18194   1.566   9.696   3.297  0.3584  0.3558 -1.0918
  876MOL0     H18195   1.661   9.534   3.134  0.1185 -0.1338 -0.0034
  876MOL0     H18196   1.511   9.434   3.128  2.4064 -1.1895  0.9423
  876MOL0     H18197   1.546   9.450   2.864  3.5745 -0.8377 -4.1099
  876MOL0     H18198   1.716   9.493   2.918  1.8396 -2.8387  1.1634
  876MOL0     H18199   1.760   9.267   2.989  0.7428 -3.2073 -4.0596
  876MOL0     H18200   1.602   9.242   3.048  2.0054 -0.6872  1.4525
  876MOL0     H18201   1.501   9.215   2.821 -0.1190 -0.0687 -0.7811
  876MOL0     H18202   1.651   9.243   2.747 -1.9228 -0.0024 -1.6417
  876MOL0     H18203   1.765   9.068   2.869  0.0304 -0.2144 -2.4576
  876MOL0     H18204   1.616   9.004   2.935 -2.7425  1.4010 -0.4642
  876MOL0     H18205   1.528   9.006   2.712  0.0882  3.4483 -0.0216
  876MOL0     H18206   1.689   9.037   2.624  0.2074 -2.2596 -1.1985
  876MOL0     H18207   1.760   8.853   2.790 -1.9115 -2.7071  2.6559
  876MOL0     H18208   1.591   8.805   2.782 -0.1905  2.9852  1.7615
  876MOL0     H18209   1.782   8.844   2.536  1.1011  0.5271  1.8500
  876MOL0     H18210   1.606   8.818   2.530 -0.2923 -1.0465  0.7537
  876MOL0     H18211   1.931   8.644   2.640  0.8084 -1.3322 -0.2836
  876MOL0     H18212   1.846   8.258   2.641  0.6646  0.8083 -0.8961
  876MOL0     H18213   1.976   8.361   2.575  1.0118  1.1881  0.1790
  876MOL0     H18214   1.855   8.386   2.846 -0.0811  1.3526 -0.0380
  876MOL0     H18215   1.991   8.476   2.780 -0.9220  0.5835 -3.2193
  876MOL0     H18216   2.129   8.280   2.765 -0.6843 -1.5273 -0.4467
  876MOL0     H18217   1.997   8.183   2.822 -0.0408  0.6620  0.1822
  876MOL0     H18218   2.113   8.425   2.971 -1.7369  0.8254 -0.7031
  876MOL0     H18219   2.169   8.269   3.008  1.2342  0.1027 -1.2844
  876MOL0     H18220   2.118   8.108   3.146  0.3268 -5.3296  0.2189
  876MOL0     H18221   2.043   7.776   3.213  1.6494 -0.5070 -0.7297
  876MOL0     H18222   2.165   7.894   3.190 -0.8412 -0.8944 -1.4933
  876MOL0     H18223   2.099   7.878   3.350  0.0391 -1.7792 -0.0513
  876MOL0     H18224   1.722   7.553   3.181 -1.5747  0.7981  0.4319
  876MOL0     H18225   1.625   7.341   3.278  0.2252 -0.3009  0.3641
  876MOL0     H18226   1.492   7.282   3.566  3.7626  2.1944  1.3543
  876MOL0     H18227   1.517   7.160   3.425  0.3069 -1.4815  0.1082
  876MOL0     H18228   1.422   7.049   3.618 -1.2928  0.1801 -0.0079
  876MOL0     H18229   1.574   6.988   3.550  0.6796 -0.4043  1.4791
  876MOL0     H18230   1.594   7.171   3.776 -3.3550  1.7121 -2.6802
  876MOL0     H18231   1.708   7.050   3.724 -0.6306 -3.1759 -1.9768
  876MOL0     H18232   1.544   7.002   3.936 -1.2069  1.8652 -1.4789
  876MOL0     H18233   1.457   6.916   3.812 -1.7909  4.2219  0.0394
  876MOL0     H18234   1.758   6.863   3.798  0.9129  3.1325  0.6726
  876MOL0     H18235   1.621   6.757   3.782 -4.7602  2.0205 -0.8376
  876MOL0     H18236   1.776   6.821   4.022 -0.0430  1.3192 -1.4410
  876MOL0     H18237   1.605   6.826   4.052  0.4152 -1.1905  0.3112
  876MOL0     H18238   1.583   6.599   3.933  2.2520 -1.0283 -3.4969
  876MOL0     H18239   1.665   6.599   4.089  0.3941  1.1153 -0.0366
  876MOL0     H18240   1.885   6.601   4.012 -1.5728 -0.7067  2.7363
  876MOL0     H18241   1.819   6.583   3.843 -1.4629 -0.8226 -0.1475
  876MOL0     H18242   1.780   7.450   3.656  0.9612  2.4458  0.5238
  876MOL0     H18243   1.887   7.659   3.546  2.9947 -2.1341 -0.9075
  876MOL0     H18244   1.633   8.076   3.221 -0.1017 -0.2305  1.6378
  876MOL0     H18245   1.735   8.271   3.115  1.1489  1.4906  1.6920
  876MOL0     H18246   1.496   9.860   2.912  1.0479 -0.6445  0.1114
  876MOL0     H18247   1.569  10.079   2.989  0.2532 -0.0186 -0.8129
  876MOL0     H18248   1.329  10.424   3.319 -1.4631  2.0421  0.6779
  876MOL0     H18249   1.361  10.627   3.439 -0.0883  0.8595 -1.8178
  876MOL0     H18250   1.384  10.744   3.634 -0.6737  2.6058  1.9474
  876MOL0     H18251   1.515  10.835   3.703  0.2118 -1.8349  0.3623
  876MOL0     H18252   1.455  10.833   3.395 -1.7602 -1.9278  1.3123
  876MOL0     H18253   1.591  10.910   3.472  0.6131  2.3951  1.6748
  876MOL0     H18254   1.459  11.104   3.459  0.4922  2.7220  2.0158
  876MOL0     H18255   1.473  11.050   3.620  0.2800  0.8345 -0.1948
  876MOL0     H18256   1.242  11.135   3.536 -0.5969 -0.2280  2.3229
  876MOL0     H18257   1.261  10.999   3.639  4.0299 -1.5708 -0.2336
  876MOL0     H18258   1.082  10.807   3.304 -3.4744  0.3914  0.6650
  876MOL0     H18259   1.743  10.487   3.573 -0.8184 -0.3234  0.1530
  876MOL0     H18260   1.713  10.279   3.445  1.1374  1.0708 -1.1790
  877MOL0     O18261   7.246  10.151   0.084 -0.2593 -0.9379 -0.1407
  877MOL0     C18262   7.212  10.050   0.026 -0.6570 -0.1547  0.6654
  877MOL0     O18263   7.209  10.039  -0.116 -0.4287  0.0610  0.7484
  877MOL0     C18264   7.207  10.150  -0.203  0.8953  1.1138 -0.5890
  877MOL0     C18265   7.157  10.280  -0.172 -0.3707  0.1126 -0.1752
  877MOL0     C18266   7.156  10.377  -0.270 -0.5893 -0.2107 -0.5035
  877MOL0     C18267   7.212  10.355  -0.395  1.5374  0.9416  1.3136
  877MOL0     O18268   7.217  10.467  -0.480  0.3974  0.4607 -0.3556
  877MOL0     C18269   7.220  10.443  -0.625  0.9390 -0.5623  0.7688
  877MOL0     C18270   7.210  10.576  -0.703 -1.4465 -0.4303  0.9198
  877MOL0     C18271   7.105  10.675  -0.648 -0.4776 -0.0356 -0.2923
  877MOL0     C18272   7.133  10.815  -0.707  0.1428 -0.1298 -0.1849
  877MOL0     C18273   7.054  10.915  -0.628  0.8196  0.3002 -0.3744
  877MOL0     C18274   7.067  11.060  -0.689  0.5743  0.8435  0.4946
  877MOL0     C18275   6.954  11.150  -0.648  0.9382 -0.7730 -0.6671
  877MOL0     C18276   7.017  11.285  -0.626  0.0808 -0.3217 -0.9112
  877MOL0     N18277   6.945  11.376  -0.544 -0.4949  0.1657  0.5847
  877MOL0     C18278   6.902  11.369  -0.416 -0.1108 -0.2552 -0.2352
  877MOL0     C18279   6.854  11.494  -0.381  0.5424  0.1409 -0.0298
  877MOL0     C18280   6.788  11.522  -0.249 -0.7058 -0.5268 -0.5607
  877MOL0     C18281   6.880  11.554  -0.130  0.5606  0.1842  0.8990
  877MOL0     C18282   6.805  11.647  -0.032  0.2453 -0.3779 -0.6799
  877MOL0     C18283   6.882  11.687   0.096 -0.1582  0.5634  0.7297
  877MOL0     O18284   6.922  11.564   0.164  0.3017  0.1477  0.0184
  877MOL0     C18285   7.008  11.575   0.273  0.5232  0.3923  0.6601
  877MOL0     C18286   7.042  11.452   0.322  0.0441 -0.3608 -0.6886
  877MOL0     C18287   7.122  11.435   0.440  0.8399  0.2782  0.1336
  877MOL0     C18288   7.143  11.301   0.490 -0.4994  0.1440 -0.3564
  877MOL0     C18289   7.146  11.560   0.509 -0.3850  0.6406  0.3429
  877MOL0     C18290   7.212  11.550   0.638  0.0362 -0.3655  0.1237
  877MOL0     O18291   7.138  11.542   0.751 -0.0713  0.6570 -0.0322
  877MOL0     C18292   7.197  11.519   0.874  0.4721 -0.3868  0.7779
  877MOL0     C18293   7.313  11.579   0.924 -0.4643 -0.4854  0.2145
  877MOL0     C18294   7.347  11.558   1.059  0.4097 -0.1639 -0.0289
  877MOL0     C18295   7.279  11.479   1.148  0.2970  0.7373  0.1847
  877MOL0     O18296   7.341  11.452   1.271  0.2374  0.3842  0.0634
  877MOL0     C18297   7.248  11.403   1.374 -0.0706  1.7170 -0.2679
  877MOL0     C18298   7.341  11.370   1.499 -0.1385 -0.0956 -0.1632
  877MOL0     C18299   7.454  11.270   1.467 -0.6023 -0.5971 -0.9026
  877MOL0     C18300   7.572  11.281   1.570  0.4782 -0.4146  0.0269
  877MOL0     C18301   7.682  11.185   1.539  0.2963  0.1094 -0.0443
  877MOL0     C18302   7.762  11.223   1.412  0.2469  0.5458 -0.2349
  877MOL0     C18303   7.908  11.179   1.419 -0.9528 -0.6009 -0.1303
  877MOL0     C18304   7.998  11.271   1.333  0.4898 -1.0658  0.3349
  877MOL0    Cl18305   7.987  11.225   1.163 -0.2840 -0.4438 -0.4067
  877MOL0     C18306   7.165  11.420   1.096 -0.5157 -0.3362  0.6562
  877MOL0     C18307   7.132  11.439   0.960  0.0961 -0.2821 -0.2995
  877MOL0     O18308   7.335  11.565   0.627  0.0145 -0.6484 -0.3698
  877MOL0     C18309   7.112  11.685   0.454 -1.5353  0.7127 -0.1152
  877MOL0     C18310   7.049  11.694   0.334  0.3771 -0.1631  0.2707
  877MOL0     N18311   6.867  11.577  -0.488 -0.0622  0.0037  0.5331
  877MOL0     N18312   6.928  11.511  -0.583 -0.0155 -0.7320 -0.1549
  877MOL0     C18313   7.251  10.231  -0.435 -0.7618  0.7078 -0.2911
  877MOL0     C18314   7.247  10.127  -0.335 -0.8180 -0.0870 -0.3789
  877MOL0     C18315   7.181   9.935   0.111  0.1233 -0.7341 -0.2897
  877MOL0     C18316   7.197   9.936   0.253  0.4455 -0.6695 -0.4740
  877MOL0     C18317   7.138   9.839   0.333 -0.7957 -0.6111 -0.4283
  877MOL0     C18318   7.097   9.724   0.272  0.6878  0.2248 -0.7226
  877MOL0     O18319   7.040   9.621   0.338  0.2784 -0.3899  0.3160
  877MOL0     C18320   6.999   9.616   0.473 -1.0702  0.2115  0.5060
  877MOL0     C18321   6.910   9.505   0.494  0.7620  0.1221 -0.1118
  877MOL0     C18322   6.876   9.498   0.640  0.0911  0.2753 -0.5174
  877MOL0     C18323   6.762   9.400   0.674 -0.1426  0.1863 -0.5482
  877MOL0     C18324   6.810   9.261   0.663 -0.2635 -0.5390  0.6159
  877MOL0     C18325   6.837   9.148   0.666 -1.3179  0.0868 -0.3688
  877MOL0     C18326   7.089   9.718   0.139 -0.8870  0.0719  0.2474
  877MOL0     C18327   7.135   9.814   0.055  0.4183 -0.2054  0.2673
  877MOL0     H18328   7.124  10.298  -0.070  2.1062  1.7076  0.4349
  877MOL0     H18329   7.129  10.478  -0.241  2.5090  0.6490 -0.2429
  877MOL0     H18330   7.321  10.406  -0.643  1.4833  0.9093  0.6254
  877MOL0     H18331   7.144  10.371  -0.656  0.4957 -1.0223  2.7621
  877MOL0     H18332   7.310  10.618  -0.688 -1.8168  1.8355 -1.9988
  877MOL0     H18333   7.190  10.553  -0.808  4.8997 -1.5351 -0.4503
  877MOL0     H18334   7.006  10.645  -0.682 -0.7114 -1.1457  1.2548
  877MOL0     H18335   7.106  10.676  -0.539  1.9078 -0.4832 -0.2429
  877MOL0     H18336   7.240  10.836  -0.701 -0.3627  2.5818  1.4619
  877MOL0     H18337   7.110  10.818  -0.814  1.8828 -1.1944 -0.6127
  877MOL0     H18338   6.950  10.880  -0.626  0.9479 -0.0809  1.6027
  877MOL0     H18339   7.092  10.920  -0.526  3.2674  1.2595 -1.2620
  877MOL0     H18340   7.168  11.096  -0.670  2.0633 -2.6418 -0.0538
  877MOL0     H18341   7.061  11.054  -0.798 -1.0173  1.5749  0.5136
  877MOL0     H18342   6.875  11.169  -0.722 -0.9595  0.9582  1.6335
  877MOL0     H18343   6.911  11.122  -0.551  1.3634 -0.3204 -0.3458
  877MOL0     H18344   7.041  11.329  -0.723  1.9967 -0.7166 -0.6450
  877MOL0     H18345   7.104  11.268  -0.562  1.0208  1.5781 -1.6161
  877MOL0     H18346   6.909  11.288  -0.344  1.7909  2.5462  3.0078
  877MOL0     H18347   6.703  11.591  -0.256 -1.6788 -1.2511  2.6368
  877MOL0     H18348   6.742  11.428  -0.218  0.8110 -0.2469  3.0863
  877MOL0     H18349   6.972  11.600  -0.167  0.1140 -0.1668 -0.7240
  877MOL0     H18350   6.912  11.459  -0.086  1.9015 -0.7540 -1.8712
  877MOL0     H18351   6.717  11.593   0.005  1.0001 -1.2918 -0.1810
  877MOL0     H18352   6.769  11.734  -0.088 -0.9899  0.9105  1.9144
  877MOL0     H18353   6.826  11.754   0.161  1.1320  3.3321 -0.8333
  877MOL0     H18354   6.976  11.733   0.062 -0.3375 -0.3881 -1.2347
  877MOL0     H18355   6.994  11.364   0.281 -0.2638 -0.4415 -0.1632
  877MOL0     H18356   7.248  11.275   0.505 -0.3057 -1.1803 -3.3039
  877MOL0     H18357   7.091  11.274   0.583 -1.9244  1.6338 -0.6714
  877MOL0     H18358   7.122  11.215   0.425 -3.5727 -5.0539  6.2060
  877MOL0     H18359   7.362  11.657   0.866 -1.1917 -0.5825 -0.5415
  877MOL0     H18360   7.439  11.596   1.101  1.1108  3.2623 -4.0322
  877MOL0     H18361   7.167  11.473   1.398  1.0668  2.9594  0.1057
  877MOL0     H18362   7.196  11.310   1.351  1.1452  0.6619  1.0810
  877MOL0     H18363   7.389  11.459   1.541  0.5293  0.6225 -2.3142
  877MOL0     H18364   7.284  11.337   1.586  1.7420  0.4885  1.3708
  877MOL0     H18365   7.497  11.295   1.370  1.6706 -2.4525 -0.4676
  877MOL0     H18366   7.419  11.167   1.465  1.5044 -1.5332  2.2961
  877MOL0     H18367   7.611  11.383   1.569 -0.8676  0.1860  2.2186
  877MOL0     H18368   7.529  11.274   1.671  1.1526  4.7242  0.9541
  877MOL0     H18369   7.638  11.087   1.523 -0.3266  0.7074 -2.4205
  877MOL0     H18370   7.752  11.190   1.623  1.1692 -0.0246 -0.7358
  877MOL0     H18371   7.710  11.170   1.332  2.3393 -1.3808 -0.4431
  877MOL0     H18372   7.741  11.328   1.390 -4.0490 -0.7343 -3.6637
  877MOL0     H18373   7.927  11.076   1.390  0.2726 -0.1456 -1.0535
  877MOL0     H18374   7.946  11.196   1.521 -3.1968  1.9911  0.4105
  877MOL0     H18375   8.099  11.258   1.372  2.1422  2.4266 -2.1569
  877MOL0     H18376   7.977  11.377   1.348 -1.8439 -1.5362  0.7525
  877MOL0     H18377   7.105  11.340   1.136 -0.1149 -1.8289 -1.5408
  877MOL0     H18378   7.045  11.378   0.935 -0.7174  0.5378  0.4499
  877MOL0     H18379   7.140  11.776   0.507  3.9349  0.2958 -1.5876
  877MOL0     H18380   7.001  11.786   0.302  1.1556 -0.6175 -2.4540
  877MOL0     H18381   7.274  10.189  -0.532  1.7741 -0.1564  0.5951
  877MOL0     H18382   7.279  10.024  -0.348  2.4404  0.3571  2.5798
  877MOL0     H18383   7.252  10.022   0.290 -1.2668 -0.9169  3.1102
  877MOL0     H18384   7.140   9.863   0.439 -2.7129  4.1446 -1.2406
  877MOL0     H18385   7.085   9.596   0.538 -1.4045 -1.7831  0.3762
  877MOL0     H18386   6.963   9.716   0.502 -0.4215  1.1320 -1.6652
  877MOL0     H18387   6.958   9.411   0.463 -1.0179 -1.4236  1.5203
  877MOL0     H18388   6.820   9.522   0.434  0.1291 -0.2816  0.6987
  877MOL0     H18389   6.853   9.596   0.683  1.9129  1.0422 -1.1705
  877MOL0     H18390   6.962   9.457   0.694 -2.2180 -0.8978  2.5281
  877MOL0     H18391   6.693   9.415   0.591  1.5235 -1.0263 -2.2187
  877MOL0     H18392   6.710   9.428   0.766 -4.2053 -1.9436 -1.9435
  877MOL0     H18393   6.852   9.044   0.688 -0.5176  0.5476  1.4831
  877MOL0     H18394   7.032   9.632   0.104 -2.1032 -0.5245  3.4150
  877MOL0     H18395   7.115   9.805  -0.051  0.2138 -2.0156  0.4351
  878MOL0     O18396   7.767   1.204   6.803  0.7302  0.7447  0.3504
  878MOL0     C18397   7.785   1.100   6.863  0.6466  1.2742 -0.1977
  878MOL0     O18398   7.843   0.982   6.818 -0.1944  1.2505  0.1390
  878MOL0     C18399   7.886   0.975   6.690 -0.2439 -0.6440  0.4186
  878MOL0     C18400   8.011   1.019   6.653 -0.6337 -0.2373 -0.2500
  878MOL0     C18401   8.062   1.018   6.526 -0.1343  0.1134 -0.1551
  878MOL0     C18402   7.978   0.968   6.423  0.6308 -0.7729  0.2122
  878MOL0     O18403   8.009   0.929   6.298  0.0309 -0.0798  0.4951
  878MOL0     C18404   8.137   0.955   6.243 -0.4621  0.7039  0.7302
  878MOL0     C18405   8.123   0.907   6.099 -0.9349 -0.8144  0.6994
  878MOL0     C18406   8.225   0.807   6.068 -0.5775  0.3249  0.2607
  878MOL0     C18407   8.184   0.748   5.928 -0.4492 -0.4056 -0.6162
  878MOL0     C18408   8.317   0.705   5.861  0.7811  0.5256 -0.0854
  878MOL0     C18409   8.382   0.587   5.934 -0.4980  0.1548  1.0778
  878MOL0     C18410   8.520   0.547   5.866 -0.3186 -0.4146  0.3195
  878MOL0     C18411   8.593   0.431   5.941 -0.4792 -0.5404 -0.1105
  878MOL0     N18412   8.502   0.317   5.948 -0.2013  0.3243  0.3775
  878MOL0     C18413   8.429   0.265   5.842  0.8412 -0.6379 -0.4314
  878MOL0     C18414   8.378   0.150   5.897 -0.5199 -0.7924  0.6523
  878MOL0     C18415   8.274   0.074   5.816  0.3793  0.6646 -0.1963
  878MOL0     C18416   8.339  -0.027   5.725  0.2532 -0.7972 -0.7416
  878MOL0     C18417   8.398  -0.132   5.825  0.5557 -0.0861  0.0683
  878MOL0     C18418   8.415  -0.259   5.737 -0.2080  1.0748 -0.4894
  878MOL0     O18419   8.300  -0.331   5.694 -0.1441 -0.7449 -0.0626
  878MOL0     C18420   8.341  -0.423   5.602  0.0750  0.7925 -0.7326
  878MOL0     C18421   8.329  -0.404   5.470  0.0892 -0.9905 -0.5350
  878MOL0     C18422   8.371  -0.496   5.372 -0.2411  0.1639  0.0766
  878MOL0     C18423   8.349  -0.462   5.228  0.0038 -0.2137  0.9505
  878MOL0     C18424   8.426  -0.621   5.417  0.8103 -0.0677  0.9929
  878MOL0     C18425   8.474  -0.733   5.331 -0.2970  0.5810 -0.2744
  878MOL0     O18426   8.500  -0.855   5.377 -0.5390  0.0705 -0.1256
  878MOL0     C18427   8.603  -0.910   5.312  0.3493 -0.0453 -0.9158
  878MOL0     C18428   8.729  -0.935   5.384 -0.0578  0.3100  1.2105
  878MOL0     C18429   8.842  -0.972   5.321  0.2332 -0.0430  0.5109
  878MOL0     C18430   8.838  -1.021   5.193 -0.1694 -0.5813  1.5386
  878MOL0     O18431   8.950  -1.068   5.133 -0.2172  0.4969 -0.7171
  878MOL0     C18432   8.957  -1.051   4.985  0.2005 -0.5218  0.0228
  878MOL0     C18433   9.104  -1.084   4.951  0.9993 -0.0456 -0.0701
  878MOL0     C18434   9.148  -1.010   4.827 -0.2355 -0.5447  0.0177
  878MOL0     C18435   9.082  -1.065   4.705  0.0136  0.3295  0.3454
  878MOL0     C18436   9.148  -1.023   4.567 -0.9609 -0.6471  0.5185
  878MOL0     C18437   9.092  -1.102   4.459 -0.1652 -0.6057  0.4752
  878MOL0     C18438   9.135  -1.042   4.320 -0.2926  0.3367 -0.8541
  878MOL0     C18439   9.064  -1.106   4.205  0.2982  0.0886 -0.9634
  878MOL0    Cl18440   9.163  -1.261   4.150  0.3006 -0.3839  0.0475
  878MOL0     C18441   8.715  -1.016   5.123 -0.6971 -0.9614  0.4344
  878MOL0     C18442   8.603  -0.955   5.183  0.3050 -0.6262 -0.5507
  878MOL0     O18443   8.498  -0.688   5.221  0.1698 -1.2097  0.5363
  878MOL0     C18444   8.410  -0.648   5.552  0.5856 -0.0431 -0.2354
  878MOL0     C18445   8.366  -0.552   5.643 -0.6419  0.2774  0.0190
  878MOL0     N18446   8.417   0.132   6.029  0.2727 -0.0550  0.1603
  878MOL0     N18447   8.487   0.237   6.058  0.4815 -0.0303  0.3843
  878MOL0     C18448   7.846   0.933   6.456  0.1664 -0.7789 -0.2000
  878MOL0     C18449   7.805   0.943   6.585 -0.9134 -0.2138 -1.5983
  878MOL0     C18450   7.705   1.090   6.987 -1.5288  0.0337  0.9303
  878MOL0     C18451   7.653   0.973   7.043 -1.1600  0.7144  0.6185
  878MOL0     C18452   7.573   0.989   7.159 -0.1525 -0.6690  0.6070
  878MOL0     C18453   7.558   1.111   7.230  1.4164 -0.8903 -0.0217
  878MOL0     O18454   7.482   1.131   7.347  0.4137  0.3774  0.2970
  878MOL0     C18455   7.503   1.042   7.454 -0.5409  0.6259 -0.2462
  878MOL0     C18456   7.648   1.047   7.489  0.1155  0.2083 -1.0895
  878MOL0     C18457   7.690   0.959   7.614 -0.3965 -0.0246  1.2177
  878MOL0     C18458   7.607   0.966   7.746  0.0003 -0.5836  0.2903
  878MOL0     C18459   7.596   1.106   7.790 -0.4599  0.4187 -0.2733
  878MOL0     C18460   7.595   1.222   7.825  0.0991 -0.0945  0.0083
  878MOL0     C18461   7.617   1.220   7.170  0.1490  0.5200 -0.6536
  878MOL0     C18462   7.688   1.212   7.055 -0.7400  0.9370  0.3846
  878MOL0     H18463   8.085   1.044   6.728  1.9962 -2.0791 -2.0309
  878MOL0     H18464   8.166   1.037   6.503  0.5861 -1.2466  1.7828
  878MOL0     H18465   8.165   1.061   6.243  0.8623  0.3834  1.6357
  878MOL0     H18466   8.217   0.907   6.302  0.4395  0.7032 -0.4538
  878MOL0     H18467   8.024   0.868   6.075 -0.1288 -2.1533 -0.6139
  878MOL0     H18468   8.140   0.990   6.030  2.9546 -1.6965  0.3767
  878MOL0     H18469   8.324   0.851   6.069  0.6734 -2.2619 -0.8736
  878MOL0     H18470   8.226   0.725   6.141 -0.3002  0.8847  0.8939
  878MOL0     H18471   8.108   0.670   5.938  1.4127 -2.0535  2.0464
  878MOL0     H18472   8.142   0.823   5.861  1.6009  0.7541 -0.6704
  878MOL0     H18473   8.278   0.668   5.765 -3.5931  3.9427  0.0643
  878MOL0     H18474   8.371   0.800   5.849 -2.4836  2.3447 -1.7668
  878MOL0     H18475   8.411   0.619   6.034  6.0850 -4.1236  1.1126
  878MOL0     H18476   8.315   0.501   5.938 -1.3080  0.6809 -0.2509
  878MOL0     H18477   8.498   0.524   5.761 -0.2619  1.1623 -0.0685
  878MOL0     H18478   8.579   0.639   5.868 -3.2543  1.6842 -1.7733
  878MOL0     H18479   8.621   0.475   6.037  0.8694  1.3592 -1.3143
  878MOL0     H18480   8.683   0.397   5.890 -1.7056 -0.9703 -2.0580
  878MOL0     H18481   8.418   0.295   5.738 -4.2140 -2.7346 -0.7858
  878MOL0     H18482   8.199   0.029   5.882 -0.5707  1.1830 -0.9049
  878MOL0     H18483   8.225   0.150   5.754 -0.6847 -0.2075 -0.4565
  878MOL0     H18484   8.416   0.029   5.670  0.7912  5.0226  4.7527
  878MOL0     H18485   8.271  -0.081   5.659  2.4748 -1.8150 -2.3119
  878MOL0     H18486   8.329  -0.148   5.908 -0.0663  0.1815 -0.3917
  878MOL0     H18487   8.498  -0.116   5.867  1.0497  1.4446 -1.5820
  878MOL0     H18488   8.475  -0.319   5.806 -1.6069 -0.1260 -0.2738
  878MOL0     H18489   8.468  -0.233   5.646 -3.0001  0.6347 -2.3791
  878MOL0     H18490   8.304  -0.302   5.442  2.0388  0.6834  3.1702
  878MOL0     H18491   8.293  -0.369   5.210 -1.7783 -1.1900  1.2267
  878MOL0     H18492   8.445  -0.457   5.177  1.8620  1.6563  4.2831
  878MOL0     H18493   8.288  -0.545   5.192 -0.7142  1.4979 -2.0910
  878MOL0     H18494   8.735  -0.900   5.486  0.8344  4.3946 -0.0357
  878MOL0     H18495   8.936  -0.979   5.375 -0.4307 -3.6191  1.4968
  878MOL0     H18496   8.887  -1.122   4.942  1.0180 -1.1060 -0.3665
  878MOL0     H18497   8.945  -0.945   4.962  0.4663 -0.7118 -1.0176
  878MOL0     H18498   9.176  -1.048   5.025  0.1603  0.2083  0.6385
  878MOL0     H18499   9.115  -1.192   4.935 -1.0216  0.1364 -3.7005
  878MOL0     H18500   9.256  -1.018   4.819 -0.0782 -0.7787  1.9109
  878MOL0     H18501   9.115  -0.905   4.830 -1.1065 -0.6637  5.6839
  878MOL0     H18502   9.093  -1.173   4.718  0.4358  0.5028  1.5125
  878MOL0     H18503   8.978  -1.042   4.681  0.1197 -1.0516 -1.7170
  878MOL0     H18504   9.255  -1.039   4.581 -0.6568  1.3863  0.8362
  878MOL0     H18505   9.135  -0.915   4.555  0.6918 -0.6606 -2.0552
  878MOL0     H18506   9.135  -1.201   4.476  1.0076  0.2461  2.9617
  878MOL0     H18507   8.983  -1.094   4.458 -0.0623  1.7212  1.4167
  878MOL0     H18508   9.240  -1.073   4.310  0.4997  2.9021 -1.0365
  878MOL0     H18509   9.128  -0.933   4.320 -1.5394  0.3591  2.5657
  878MOL0     H18510   9.068  -1.025   4.131  2.4900 -1.8473 -3.1714
  878MOL0     H18511   8.963  -1.141   4.227  1.0672 -0.4468  2.1275
  878MOL0     H18512   8.691  -1.057   5.026  0.0003  0.0278 -0.1821
  878MOL0     H18513   8.517  -0.942   5.118  2.1059 -2.2803 -3.4749
  878MOL0     H18514   8.447  -0.741   5.595 -2.2004  1.0557  5.5051
  878MOL0     H18515   8.362  -0.576   5.749 -0.4739 -1.4654 -0.3274
  878MOL0     H18516   7.773   0.902   6.382 -1.3333  0.2467  0.8054
  878MOL0     H18517   7.697   0.942   6.600 -0.8720 -0.1432 -1.2950
  878MOL0     H18518   7.670   0.878   6.993  3.5345  2.5994 -1.9813
  878MOL0     H18519   7.517   0.901   7.188 -2.8375  0.9568  0.7323
  878MOL0     H18520   7.430   1.061   7.533  0.9824  2.3785  0.8095
  878MOL0     H18521   7.479   0.939   7.425  0.8340 -0.3163  1.7265
  878MOL0     H18522   7.677   1.148   7.519 -0.4419  0.3999 -1.1760
  878MOL0     H18523   7.702   1.007   7.402  0.8402 -0.1541 -0.4828
  878MOL0     H18524   7.793   0.986   7.637 -0.2253  1.0607 -0.6163
  878MOL0     H18525   7.685   0.853   7.586 -0.8693  0.1392  0.6630
  878MOL0     H18526   7.646   0.890   7.814  0.7033 -1.3545 -0.9397
  878MOL0     H18527   7.510   0.919   7.727  1.0056 -2.5956 -0.0814
  878MOL0     H18528   7.587   1.327   7.839  1.8194  0.1224 -0.3976
  878MOL0     H18529   7.599   1.320   7.208 -4.8783  0.5214 -2.2683
  878MOL0     H18530   7.738   1.299   7.013  3.0422 -1.1642  0.0920
  879MOL0     O18531   2.555   2.424   7.819  0.4080 -0.0231 -0.5551
  879MOL0     C18532   2.507   2.523   7.781 -0.1942 -0.0824  0.3004
  879MOL0     O18533   2.406   2.596   7.844 -0.1143 -0.4195  0.1209
  879MOL0     C18534   2.379   2.599   7.983 -1.6394  0.2652  0.5036
  879MOL0     C18535   2.419   2.505   8.077  0.1090  0.0088  0.3995
  879MOL0     C18536   2.406   2.530   8.216  0.3427 -0.0528  0.4056
  879MOL0     C18537   2.354   2.651   8.259 -0.3433 -0.2756 -0.0737
  879MOL0     O18538   2.346   2.682   8.388  0.1141  0.0045  0.0055
  879MOL0     C18539   2.458   2.763   8.431  1.3108 -0.4438  0.0149
  879MOL0     C18540   2.583   2.685   8.468 -0.5793 -0.4886  1.4132
  879MOL0     C18541   2.556   2.579   8.572 -0.3976  0.3376 -0.0653
  879MOL0     C18542   2.503   2.634   8.708 -0.0774  0.3237 -0.3924
  879MOL0     C18543   2.574   2.584   8.831 -0.1264  0.0018  0.7053
  879MOL0     C18544   2.516   2.631   8.971 -0.1047 -0.0356  0.1392
  879MOL0     C18545   2.363   2.630   8.978 -0.2901  0.5475  0.6141
  879MOL0     C18546   2.303   2.645   9.118  0.6606 -0.1206  0.0026
  879MOL0     N18547   2.296   2.509   9.182 -0.6778  0.5484 -0.3917
  879MOL0     C18548   2.228   2.402   9.129  0.2486 -0.1972  0.9577
  879MOL0     C18549   2.250   2.299   9.204  0.7773  0.4940 -0.4476
  879MOL0     C18550   2.196   2.160   9.185 -0.5115 -0.0914 -0.2615
  879MOL0     C18551   2.046   2.151   9.190 -0.6822  0.8534  0.0371
  879MOL0     C18552   2.013   2.004   9.223  0.3876  0.2566  0.2813
  879MOL0     C18553   1.860   1.986   9.215  0.2674  0.0318 -0.2640
  879MOL0     O18554   1.830   1.955   9.075  1.7490  0.4059 -0.1218
  879MOL0     C18555   1.697   1.976   9.033 -0.2133  0.0835  0.0983
  879MOL0     C18556   1.686   1.996   8.900 -0.9360 -1.1052 -0.4532
  879MOL0     C18557   1.565   2.001   8.835  0.4346  0.7851 -0.8087
  879MOL0     C18558   1.583   1.984   8.693  0.2331 -0.0785  0.7310
  879MOL0     C18559   1.442   1.999   8.912  0.2571 -0.0545 -0.5125
  879MOL0     C18560   1.307   2.012   8.856 -0.0027 -0.2323 -0.8920
  879MOL0     O18561   1.285   1.950   8.731 -0.1261  0.3290 -0.1576
  879MOL0     C18562   1.174   1.987   8.669  1.0221 -0.3503  0.0311
  879MOL0     C18563   1.167   2.111   8.601  0.2916 -1.0152 -0.5318
  879MOL0     C18564   1.048   2.173   8.577 -0.0490  0.3315  0.4068
  879MOL0     C18565   0.926   2.114   8.603 -0.1881 -0.0678  0.2158
  879MOL0     O18566   0.814   2.171   8.569  0.6705 -1.3181  0.3232
  879MOL0     C18567   0.717   2.188   8.671 -0.3625  0.4563 -1.5094
  879MOL0     C18568   0.616   2.291   8.633 -0.1581 -0.3640  0.9940
  879MOL0     C18569   0.528   2.344   8.734 -1.2538  0.5581  0.2970
  879MOL0     C18570   0.449   2.235   8.813  0.2138  0.0731 -0.5983
  879MOL0     C18571   0.388   2.291   8.945  0.1422  0.8605  0.0786
  879MOL0     C18572   0.317   2.187   9.048 -0.0092  0.3374  0.9312
  879MOL0     C18573   0.398   2.067   9.097  0.5465  0.6591 -0.4372
  879MOL0     C18574   0.311   1.948   9.130 -0.7041 -0.7673 -0.2965
  879MOL0    Cl18575   0.221   1.984   9.291 -0.1896  0.0786  0.2184
  879MOL0     C18576   0.935   1.979   8.660 -0.4884 -0.7205  0.4170
  879MOL0     C18577   1.055   1.925   8.709  1.0397  0.2664 -0.3391
  879MOL0     O18578   1.232   2.084   8.928  0.2639 -0.8992 -0.4536
  879MOL0     C18579   1.454   2.006   9.055 -0.3389 -0.0035  0.0353
  879MOL0     C18580   1.582   1.986   9.119  0.0421 -0.5022 -1.4754
  879MOL0     N18581   2.343   2.342   9.307  0.7249  0.3304 -1.1092
  879MOL0     N18582   2.365   2.476   9.293 -1.1307 -0.3671 -0.2786
  879MOL0     C18583   2.315   2.749   8.165  0.0603  0.3440  0.1302
  879MOL0     C18584   2.321   2.717   8.030 -0.0791 -0.2592  0.5200
  879MOL0     C18585   2.556   2.589   7.652  0.0286  0.6149 -0.9174
  879MOL0     C18586   2.666   2.527   7.582 -0.4436 -0.8867 -0.1093
  879MOL0     C18587   2.703   2.586   7.461  0.1331 -0.0603  0.4182
  879MOL0     C18588   2.648   2.708   7.416  0.2222  1.2491 -0.0481
  879MOL0     O18589   2.716   2.768   7.315 -0.7012 -0.0068 -0.0453
  879MOL0     C18590   2.661   2.876   7.240  0.4768 -0.4946 -0.2722
  879MOL0     C18591   2.537   2.832   7.160 -0.3117  0.3297 -0.5306
  879MOL0     C18592   2.512   2.930   7.036 -0.4861 -0.1489 -0.2213
  879MOL0     C18593   2.415   2.866   6.939 -0.5065  0.3823 -0.3534
  879MOL0     C18594   2.425   2.925   6.803  0.4667  0.0168  0.2159
  879MOL0     C18595   2.418   2.976   6.697  0.6797 -0.5352  0.3075
  879MOL0     C18596   2.549   2.767   7.489  1.1075 -0.4729 -0.0523
  879MOL0     C18597   2.494   2.706   7.603 -0.8347  0.2430  0.7090
  879MOL0     H18598   2.446   2.407   8.037 -0.4966  0.0238 -0.0718
  879MOL0     H18599   2.438   2.461   8.294  0.2878 -0.0438  0.4365
  879MOL0     H18600   2.475   2.843   8.358 -3.7542 -0.4597 -1.5955
  879MOL0     H18601   2.416   2.822   8.513  0.3581  1.9694 -2.0637
  879MOL0     H18602   2.632   2.653   8.376  0.4915  1.0623  1.3965
  879MOL0     H18603   2.656   2.757   8.505 -0.4461 -0.2111  0.6271
  879MOL0     H18604   2.478   2.509   8.542 -0.9320  0.1193  1.7435
  879MOL0     H18605   2.650   2.523   8.579 -2.0248 -2.3182  2.1882
  879MOL0     H18606   2.505   2.743   8.704 -2.1182  0.3673 -1.7470
  879MOL0     H18607   2.400   2.601   8.724  1.3284 -4.2975  0.8102
  879MOL0     H18608   2.586   2.476   8.823 -1.3950 -0.0538 -0.8236
  879MOL0     H18609   2.676   2.623   8.830  0.1225 -0.5538 -1.9522
  879MOL0     H18610   2.556   2.586   9.062  1.0822  0.9883  0.1553
  879MOL0     H18611   2.545   2.736   8.980  1.2592 -0.4780  1.2342
  879MOL0     H18612   2.314   2.711   8.924 -0.5877  0.0819  0.1787
  879MOL0     H18613   2.325   2.540   8.928  1.7932 -0.5031  0.7979
  879MOL0     H18614   2.209   2.699   9.130  1.8499  2.3208 -0.9876
  879MOL0     H18615   2.376   2.709   9.168  2.4980 -1.7107 -0.4917
  879MOL0     H18616   2.163   2.400   9.042  3.8405 -3.0746 -1.9419
  879MOL0     H18617   2.234   2.120   9.090  1.9848 -1.0255  1.0547
  879MOL0     H18618   2.247   2.103   9.263 -1.5883  1.6490  1.8006
  879MOL0     H18619   2.004   2.190   9.097 -1.6497  1.7537  0.8257
  879MOL0     H18620   2.006   2.206   9.276  3.1877 -2.5067  4.5800
  879MOL0     H18621   2.048   1.991   9.326 -0.6612 -1.0804  0.5116
  879MOL0     H18622   2.061   1.939   9.149  0.7730  0.0026  0.7483
  879MOL0     H18623   1.810   2.077   9.249  0.0955 -0.4430  0.7976
  879MOL0     H18624   1.811   1.904   9.269 -2.2119 -0.1041 -2.5053
  879MOL0     H18625   1.780   1.982   8.848  0.6776  0.9192  1.7100
  879MOL0     H18626   1.500   2.040   8.649  0.0363  1.0769  2.4970
  879MOL0     H18627   1.679   2.025   8.660  0.1097 -0.4174 -0.0859
  879MOL0     H18628   1.568   1.881   8.658  0.3695  0.2859 -0.4585
  879MOL0     H18629   1.258   2.167   8.584 -0.7705  1.5641  1.5456
  879MOL0     H18630   1.042   2.272   8.533 -2.4778  0.9958  2.0178
  879MOL0     H18631   0.663   2.094   8.673 -0.0157  0.2651  0.0224
  879MOL0     H18632   0.771   2.205   8.765  0.1201 -0.3834 -1.6292
  879MOL0     H18633   0.672   2.378   8.599 -0.6890  0.7558  2.8256
  879MOL0     H18634   0.560   2.259   8.545  3.0229  2.0033 -2.1726
  879MOL0     H18635   0.461   2.408   8.676  1.5733  0.0658 -4.0355
  879MOL0     H18636   0.586   2.405   8.803 -0.3355 -0.9067  0.8742
  879MOL0     H18637   0.361   2.200   8.759  0.0387 -0.0637 -0.2235
  879MOL0     H18638   0.517   2.151   8.828 -0.5639 -1.0689 -2.9579
  879MOL0     H18639   0.304   2.354   8.914 -0.4998 -0.2490 -0.4587
  879MOL0     H18640   0.450   2.353   9.012  0.9618  0.0296  0.1107
  879MOL0     H18641   0.279   2.235   9.139  3.5047  3.5805  0.9788
  879MOL0     H18642   0.231   2.162   8.987  3.2365  2.2993 -5.3883
  879MOL0     H18643   0.452   2.081   9.191  1.9148  1.2841 -1.2795
  879MOL0     H18644   0.460   2.032   9.015  0.6654  1.0527 -0.5162
  879MOL0     H18645   0.374   1.861   9.154 -2.9578 -1.5513  3.8490
  879MOL0     H18646   0.247   1.933   9.043 -1.1854 -0.8840  0.0679
  879MOL0     H18647   0.843   1.925   8.678 -0.1287 -0.3753  3.9801
  879MOL0     H18648   1.053   1.841   8.777  2.8188  0.2303 -0.2937
  879MOL0     H18649   1.371   2.006   9.125  0.2293 -2.1807  0.8034
  879MOL0     H18650   1.605   1.973   9.224  2.1866 -1.8152 -2.0391
  879MOL0     H18651   2.273   2.842   8.201 -3.8719 -0.6257 -1.3796
  879MOL0     H18652   2.299   2.792   7.955 -1.6474 -0.7034  0.4922
  879MOL0     H18653   2.724   2.446   7.626  0.5698 -1.8199 -2.9378
  879MOL0     H18654   2.778   2.536   7.401 -0.8388 -1.4104  0.2660
  879MOL0     H18655   2.636   2.968   7.295  1.5009  0.3840 -1.2158
  879MOL0     H18656   2.740   2.896   7.167  0.7680 -0.9156 -0.0722
  879MOL0     H18657   2.453   2.821   7.229  0.4595  1.9880  0.7499
  879MOL0     H18658   2.545   2.731   7.119 -3.6688  0.3524 -1.5658
  879MOL0     H18659   2.608   2.948   6.988 -0.7137  0.4483 -0.4620
  879MOL0     H18660   2.461   3.022   7.067 -2.6679  0.2133 -4.2546
  879MOL0     H18661   2.312   2.879   6.972 -0.5545  0.9451 -0.7103
  879MOL0     H18662   2.450   2.763   6.927  1.7228  1.1653 -1.3220
  879MOL0     H18663   2.423   3.033   6.606  0.3043  0.0839  0.6602
  879MOL0     H18664   2.507   2.859   7.449  0.1255 -2.1379 -3.2278
  879MOL0     H18665   2.409   2.746   7.658 -0.6784 -0.3407  1.3843
  880MOL0     O18666   3.428   3.011   9.791 -0.2430 -0.5986 -0.0874
  880MOL0     C18667   3.487   2.996   9.688 -0.1490  0.4944  0.2206
  880MOL0     O18668   3.567   2.885   9.653 -0.3401 -0.0716  0.8910
  880MOL0     C18669   3.611   2.791   9.742 -0.3897  0.2772 -0.5756
  880MOL0     C18670   3.624   2.655   9.690  0.4213 -0.6444  0.3034
  880MOL0     C18671   3.676   2.554   9.770  0.2218  0.6440  0.2704
  880MOL0     C18672   3.678   2.579   9.911  0.2711  0.9322 -0.1957
  880MOL0     O18673   3.730   2.502  10.010  0.7616  0.1928 -0.6430
  880MOL0     C18674   3.770   2.373   9.985 -0.7695  0.7549 -0.8884
  880MOL0     C18675   3.819   2.305  10.113 -0.0149 -0.1929  0.2468
  880MOL0     C18676   3.968   2.342  10.140  0.2874 -0.3839 -0.3796
  880MOL0     C18677   4.022   2.243  10.239  0.3141  0.1989 -0.7385
  880MOL0     C18678   4.170   2.250  10.281  0.0681 -0.0115  0.1500
  880MOL0     C18679   4.270   2.262  10.162 -0.5370 -1.0492  0.3497
  880MOL0     C18680   4.412   2.199  10.198 -0.7331  0.8726 -0.1233
  880MOL0     C18681   4.503   2.292  10.288 -0.6638 -0.2505  0.0642
  880MOL0     N18682   4.637   2.234  10.322  0.3516 -0.1959 -0.7029
  880MOL0     C18683   4.661   2.160  10.430  0.0759  0.5267  0.6450
  880MOL0     C18684   4.792   2.126  10.421 -0.4019 -0.0029  1.4455
  880MOL0     C18685   4.857   2.040  10.520 -0.3113 -0.2352  0.4379
  880MOL0     C18686   4.817   1.892  10.497  0.3325  0.7020 -0.4569
  880MOL0     C18687   4.858   1.821  10.359 -1.2804 -0.2746 -0.6606
  880MOL0     C18688   5.005   1.834  10.337  0.2494 -0.4613 -0.1668
  880MOL0     O18689   5.072   1.762  10.439 -0.2973 -0.1534  0.3305
  880MOL0     C18690   5.212   1.754  10.436 -0.8424 -0.8302  0.0758
  880MOL0     C18691   5.291   1.795  10.325  0.3200 -0.5407  0.8246
  880MOL0     C18692   5.428   1.769  10.332 -0.2319 -0.7423  0.2227
  880MOL0     C18693   5.509   1.812  10.219  0.4547 -0.5262  0.2551
  880MOL0     C18694   5.493   1.704  10.440  0.3150 -0.2905  0.1087
  880MOL0     C18695   5.643   1.672  10.453  0.2766  0.4407 -0.1441
  880MOL0     O18696   5.737   1.714  10.368  1.0300 -0.6896  1.1644
  880MOL0     C18697   5.847   1.628  10.343 -0.1600  0.0564 -0.1783
  880MOL0     C18698   5.853   1.490  10.377  0.1759  1.1519  0.0991
  880MOL0     C18699   5.967   1.415  10.351 -0.4885  0.4140 -1.1566
  880MOL0     C18700   6.081   1.488  10.291 -0.0321 -1.0784 -1.0679
  880MOL0     O18701   6.199   1.436  10.267 -0.1527  0.4065  0.1683
  880MOL0     C18702   6.225   1.303  10.312 -0.0095  0.0230  0.0793
  880MOL0     C18703   6.374   1.261  10.302  0.3197 -0.7226 -0.0773
  880MOL0     C18704   6.462   1.364  10.364 -0.2280  0.1167 -0.0218
  880MOL0     C18705   6.605   1.317  10.403  0.0104 -0.0626 -0.2288
  880MOL0     C18706   6.632   1.311  10.551 -0.1424  0.2140  0.3274
  880MOL0     C18707   6.644   1.458  10.599 -0.5833  0.0890 -0.2361
  880MOL0     C18708   6.691   1.473  10.751  0.7690  0.2078 -0.1059
  880MOL0     C18709   6.568   1.466  10.845  0.0480 -0.1236 -0.1942
  880MOL0    Cl18710   6.470   1.614  10.830  0.2558  0.1429 -0.3162
  880MOL0     C18711   6.064   1.621  10.254 -0.0852  0.0415 -0.5067
  880MOL0     C18712   5.954   1.691  10.289  0.9436  0.1422 -0.6260
  880MOL0     O18713   5.673   1.619  10.559 -0.0461 -0.0359 -0.4242
  880MOL0     C18714   5.411   1.675  10.552 -0.1749 -0.3157 -1.1921
  880MOL0     C18715   5.278   1.699  10.545  1.0003  0.0284 -0.6885
  880MOL0     N18716   4.848   2.188  10.310 -0.3200 -0.3757  0.0708
  880MOL0     N18717   4.751   2.253  10.255 -0.7100 -0.9714 -0.5704
  880MOL0     C18718   3.635   2.705   9.959 -0.6945  0.6322  0.3140
  880MOL0     C18719   3.613   2.816   9.873 -0.0950  0.7875 -0.5442
  880MOL0     C18720   3.470   3.103   9.590  0.5051 -0.9034  1.1466
  880MOL0     C18721   3.363   3.197   9.592  0.3058  0.3308  0.6674
  880MOL0     C18722   3.368   3.300   9.493 -0.5026 -0.4806  0.0245
  880MOL0     C18723   3.475   3.314   9.393  0.8701  0.0639 -0.2942
  880MOL0     O18724   3.484   3.412   9.298 -0.3007 -0.1859  0.1130
  880MOL0     C18725   3.393   3.523   9.316 -0.1905  0.4113  0.0760
  880MOL0     C18726   3.434   3.615   9.431 -0.7341  0.0179  0.2284
  880MOL0     C18727   3.574   3.683   9.388  0.5667 -0.6865  0.5330
  880MOL0     C18728   3.648   3.745   9.504  0.0007  2.0442 -0.4607
  880MOL0     C18729   3.675   3.639   9.603  0.5721 -0.5542 -0.1115
  880MOL0     C18730   3.685   3.552   9.685  0.4739  0.5343  0.2945
  880MOL0     C18731   3.567   3.217   9.400 -0.7612  0.2730  0.1515
  880MOL0     C18732   3.579   3.122   9.497  0.4428 -1.0564 -0.5448
  880MOL0     H18733   3.615   2.643   9.583 -1.9336 -2.0274  0.5983
  880MOL0     H18734   3.722   2.470   9.719  1.7300  0.7903  1.3122
  880MOL0     H18735   3.693   2.313   9.937  0.0335 -1.3579  0.3240
  880MOL0     H18736   3.855   2.383   9.916 -1.1605  1.9935 -1.2144
  880MOL0     H18737   3.761   2.337  10.200 -1.4227  0.6113 -0.9555
  880MOL0     H18738   3.805   2.198  10.101  0.9880 -0.8230  3.5517
  880MOL0     H18739   4.029   2.345  10.049 -0.0805  0.3741 -0.6115
  880MOL0     H18740   3.967   2.444  10.182  0.7966 -1.8750  3.7230
  880MOL0     H18741   3.961   2.265  10.327 -0.4451  1.6923 -1.6017
  880MOL0     H18742   4.009   2.143  10.196 -0.1103  0.1005 -0.3868
  880MOL0     H18743   4.170   2.329  10.357 -2.2807  0.4114 -0.2199
  880MOL0     H18744   4.204   2.159  10.331  3.1581 -0.0603 -1.8181
  880MOL0     H18745   4.233   2.203  10.078  0.0539 -3.9618  1.9910
  880MOL0     H18746   4.281   2.364  10.123  4.4657 -1.0432  1.0982
  880MOL0     H18747   4.399   2.101  10.246  1.2871  0.4387 -0.3540
  880MOL0     H18748   4.465   2.183  10.104 -0.6635  1.5537 -0.2021
  880MOL0     H18749   4.457   2.325  10.382 -2.4590  0.9364 -1.1797
  880MOL0     H18750   4.521   2.382  10.229 -3.0043  1.3440  1.5991
  880MOL0     H18751   4.579   2.134  10.497 -0.3705 -1.4723 -0.5886
  880MOL0     H18752   4.962   2.057  10.493 -0.3232 -1.4844 -0.5027
  880MOL0     H18753   4.834   2.077  10.620  3.5126  2.3571  0.5714
  880MOL0     H18754   4.709   1.879  10.507  0.6886 -0.9418  2.5863
  880MOL0     H18755   4.864   1.840  10.581 -2.1974  1.6529  1.6716
  880MOL0     H18756   4.807   1.867  10.274 -0.1848  0.5602 -0.8977
  880MOL0     H18757   4.827   1.717  10.347 -0.3011 -0.6224 -0.2814
  880MOL0     H18758   5.029   1.941  10.327 -2.1524  0.4405  2.3038
  880MOL0     H18759   5.018   1.783  10.241 -1.2488 -1.2349  0.0218
  880MOL0     H18760   5.247   1.839  10.237  2.9650  3.3449  1.1823
  880MOL0     H18761   5.451   1.826  10.127 -0.5048 -1.3564  0.7081
  880MOL0     H18762   5.556   1.909  10.241  0.5778 -0.6856  0.7190
  880MOL0     H18763   5.582   1.735  10.191  0.9119 -0.3959  1.0582
  880MOL0     H18764   5.773   1.438  10.428  0.9969 -0.4238 -0.1649
  880MOL0     H18765   5.980   1.307  10.358 -0.7846  0.3258 -1.8154
  880MOL0     H18766   6.201   1.284  10.417  1.3510 -3.1629 -0.0653
  880MOL0     H18767   6.173   1.227  10.254 -1.8202  0.0168  1.6193
  880MOL0     H18768   6.400   1.165  10.347  1.0257 -0.2600  0.5192
  880MOL0     H18769   6.402   1.262  10.196 -1.3466  0.8186 -0.5537
  880MOL0     H18770   6.415   1.398  10.457  2.7684  3.6390  0.4499
  880MOL0     H18771   6.479   1.453  10.302  5.5667 -0.4525  0.1952
  880MOL0     H18772   6.631   1.219  10.363  3.4029  0.4093  0.5671
  880MOL0     H18773   6.669   1.390  10.353 -0.8525  0.0555 -1.1941
  880MOL0     H18774   6.721   1.253  10.578 -0.5537 -0.8648 -0.5715
  880MOL0     H18775   6.549   1.259  10.598 -0.4063 -1.2212 -1.6220
  880MOL0     H18776   6.721   1.500  10.535 -1.8619  2.3100 -0.4290
  880MOL0     H18777   6.552   1.510  10.571 -2.1122 -2.7148 -0.8330
  880MOL0     H18778   6.748   1.565  10.767  0.4586  0.2098  1.1303
  880MOL0     H18779   6.759   1.393  10.780 -0.6510 -2.4529 -3.4414
  880MOL0     H18780   6.607   1.462  10.948  2.2660  3.2779 -0.7414
  880MOL0     H18781   6.504   1.382  10.818  2.0927 -0.5358 -4.5242
  880MOL0     H18782   6.143   1.682  10.211  1.5979  0.7066  3.0729
  880MOL0     H18783   5.937   1.797  10.280 -0.9528 -0.0202  0.5075
  880MOL0     H18784   5.446   1.630  10.645 -0.0117 -2.5110 -2.2490
  880MOL0     H18785   5.221   1.680  10.635 -1.5741 -0.6170 -2.3366
  880MOL0     H18786   3.643   2.731  10.064  1.8828  1.1573  0.0540
  880MOL0     H18787   3.591   2.909   9.927 -1.9700 -1.0826  2.2226
  880MOL0     H18788   3.276   3.183   9.655  1.4628  1.4621  2.6290
  880MOL0     H18789   3.289   3.375   9.494 -1.0654 -1.0580  1.5569
  880MOL0     H18790   3.400   3.586   9.227  0.9570  0.0514 -0.0997
  880MOL0     H18791   3.290   3.486   9.322 -0.4404  0.0803 -3.5762
  880MOL0     H18792   3.441   3.556   9.523  1.8549  0.8105  0.6186
  880MOL0     H18793   3.365   3.700   9.437  2.8396  3.3550 -1.6960
  880MOL0     H18794   3.555   3.768   9.321  1.8506 -1.4380 -0.8349
  880MOL0     H18795   3.639   3.608   9.343 -0.5574 -2.9158  2.4015
  880MOL0     H18796   3.590   3.824   9.552 -0.6705  1.3099 -0.0323
  880MOL0     H18797   3.748   3.779   9.476  1.4781 -2.1234 -1.0573
  880MOL0     H18798   3.692   3.472   9.756 -0.0231  0.7808  0.6282
  880MOL0     H18799   3.650   3.235   9.332 -1.1950  2.7582  0.1881
  880MOL0     H18800   3.670   3.062   9.493  0.8211 -0.4304 -1.8072
  881MOL0     O18801   2.659  11.347   9.219  0.1890  0.1605  0.2933
  881MOL0     C18802   2.703  11.234   9.234  0.4165 -0.2082 -0.1286
  881MOL0     O18803   2.828  11.199   9.252  0.4738  0.4902 -0.2093
  881MOL0     C18804   2.939  11.285   9.268 -0.3012 -0.3192 -0.3681
  881MOL0     C18805   2.966  11.398   9.183  0.1656  0.0654 -1.0791
  881MOL0     C18806   3.074  11.478   9.213  0.5997 -0.5089 -0.2624
  881MOL0     C18807   3.160  11.455   9.327  0.3035  1.1016 -0.6136
  881MOL0     O18808   3.256  11.546   9.363  0.2869  0.0118 -0.5991
  881MOL0     C18809   3.232  11.686   9.346 -0.6757 -0.2184 -0.0700
  881MOL0     C18810   3.302  11.753   9.453 -0.0887  0.0322 -0.2305
  881MOL0     C18811   3.455  11.737   9.443 -0.2451  0.1515  0.3253
  881MOL0     C18812   3.511  11.833   9.548  0.1482 -0.3067  0.5708
  881MOL0     C18813   3.662  11.834   9.552  0.5230 -0.0089  0.2481
  881MOL0     C18814   3.725  11.888   9.689  0.5677 -0.3653 -0.5022
  881MOL0     C18815   3.878  11.879   9.684  0.8556  0.9069 -0.2273
  881MOL0     C18816   3.946  11.978   9.588 -0.1597 -0.0901  0.2171
  881MOL0     N18817   3.912  12.126   9.606  0.1806  0.5242  1.0667
  881MOL0     C18818   3.926  12.195   9.727  0.5343 -0.2193  0.7808
  881MOL0     C18819   3.840  12.294   9.711 -0.9626 -0.9383 -0.2064
  881MOL0     C18820   3.780  12.384   9.810  0.4172  0.5521 -0.2505
  881MOL0     C18821   3.800  12.334   9.964  0.0548  0.7282  1.0193
  881MOL0     C18822   3.745  12.430  10.069 -0.5011 -0.0254  1.0754
  881MOL0     C18823   3.787  12.394  10.217 -0.0393 -1.1583  0.6924
  881MOL0     O18824   3.750  12.260  10.248 -0.4905 -1.0732  1.0051
  881MOL0     C18825   3.628  12.222  10.291  0.1308  0.4036 -0.2007
  881MOL0     C18826   3.513  12.308  10.295 -0.3357  0.0909  0.0820
  881MOL0     C18827   3.389  12.267  10.352  0.8907 -0.2709 -0.5640
  881MOL0     C18828   3.277  12.368  10.366  0.3305  0.0509 -0.5949
  881MOL0     C18829   3.379  12.130  10.401  0.1808 -0.8393  1.0868
  881MOL0     C18830   3.243  12.069  10.444 -0.7743 -0.3487  0.2349
  881MOL0     O18831   3.128  12.148  10.430  0.2389 -0.2880  0.6031
  881MOL0     C18832   3.017  12.122  10.503 -0.8103  0.3772 -0.4574
  881MOL0     C18833   3.026  12.067  10.637 -0.1428 -0.5391 -0.4171
  881MOL0     C18834   2.906  12.024  10.701  0.6851 -1.2061  0.0569
  881MOL0     C18835   2.784  12.055  10.639  0.1833 -0.6119 -0.1026
  881MOL0     O18836   2.671  12.047  10.712  0.3132  0.1389  0.4447
  881MOL0     C18837   2.615  12.177  10.733  0.6804  0.2295  0.8352
  881MOL0     C18838   2.471  12.154  10.775 -0.6086  0.7148 -0.1844
  881MOL0     C18839   2.403  12.278  10.827  0.6673 -0.6184 -0.5390
  881MOL0     C18840   2.256  12.236  10.859  0.5786 -0.2798  0.3244
  881MOL0     C18841   2.171  12.337  10.937  0.3710 -0.2921  0.0403
  881MOL0     C18842   2.055  12.262  11.003  1.1934  0.4308 -0.3955
  881MOL0     C18843   1.988  12.351  11.098  0.0298 -0.3747  0.0002
  881MOL0     C18844   1.850  12.299  11.139  1.1953  0.0481 -0.3117
  881MOL0    Cl18845   1.743  12.257  10.998 -0.5409  0.3190 -0.0519
  881MOL0     C18846   2.782  12.113  10.511  0.0777 -0.1149  0.6362
  881MOL0     C18847   2.894  12.152  10.450  0.4488 -0.2854  0.7744
  881MOL0     O18848   3.233  11.956  10.472 -0.2058  0.9265 -0.1650
  881MOL0     C18849   3.501  12.052  10.398  1.4856 -0.9359 -0.7002
  881MOL0     C18850   3.620  12.096  10.347 -0.3214 -0.0107  0.9951
  881MOL0     N18851   3.796  12.302   9.581 -1.2854  0.2272 -0.3138
  881MOL0     N18852   3.846  12.204   9.520 -0.6978 -0.1752  0.6430
  881MOL0     C18853   3.154  11.329   9.387 -0.5707  0.2774 -0.1092
  881MOL0     C18854   3.038  11.248   9.364 -0.9493  1.0700  0.1603
  881MOL0     C18855   2.598  11.123   9.227 -0.8557 -0.0698 -0.3172
  881MOL0     C18856   2.636  10.990   9.240  0.0134 -0.3322 -0.8895
  881MOL0     C18857   2.549  10.889   9.242  0.6408 -0.0777  0.2428
  881MOL0     C18858   2.406  10.918   9.233 -0.9636  0.4329 -0.1545
  881MOL0     O18859   2.311  10.811   9.245  0.1994  0.3893  0.6591
  881MOL0     C18860   2.351  10.689   9.310  0.1659 -0.1385  0.4724
  881MOL0     C18861   2.226  10.615   9.372  0.1215  0.1007 -0.6715
  881MOL0     C18862   2.262  10.479   9.396 -0.5358  1.1989 -0.1871
  881MOL0     C18863   2.148  10.396   9.456  0.1259 -0.6436  0.3335
  881MOL0     C18864   2.123  10.431   9.601 -1.3224  0.8318 -0.8046
  881MOL0     C18865   2.080  10.450   9.713 -0.0323  0.0461  0.1360
  881MOL0     C18866   2.367  11.055   9.230  0.2223  0.4337  0.4401
  881MOL0     C18867   2.465  11.153   9.219  0.0384  0.0057  0.0316
  881MOL0     H18868   2.915  11.424   9.090  1.0081  1.9209 -1.0647
  881MOL0     H18869   3.093  11.571   9.160 -3.5447  2.0421  2.1338
  881MOL0     H18870   3.275  11.715   9.250  2.1073 -1.0615  0.8106
  881MOL0     H18871   3.127  11.715   9.351 -1.1801 -1.7532 -1.0191
  881MOL0     H18872   3.280  11.861   9.450  2.1958  0.5787  0.5834
  881MOL0     H18873   3.270  11.706   9.546  3.3421 -0.5109  0.8309
  881MOL0     H18874   3.487  11.636   9.469 -0.6255 -0.2004 -0.5514
  881MOL0     H18875   3.500  11.754   9.345  2.0893 -3.0468  0.7047
  881MOL0     H18876   3.474  11.936   9.544 -0.2930 -0.4588  0.7013
  881MOL0     H18877   3.473  11.809   9.648  2.8715  1.4590  2.1653
  881MOL0     H18878   3.691  11.730   9.532  0.5963  0.0220  0.1921
  881MOL0     H18879   3.698  11.893   9.467  0.7418  0.0535  0.3848
  881MOL0     H18880   3.703  11.990   9.724  0.6390 -0.1174 -1.1756
  881MOL0     H18881   3.688  11.813   9.760  0.2244 -0.3632 -0.6753
  881MOL0     H18882   3.915  11.897   9.785 -0.3596 -1.8428  0.8078
  881MOL0     H18883   3.892  11.776   9.650 -1.7585  0.5797 -0.5004
  881MOL0     H18884   3.918  11.959   9.484 -2.5998 -1.6556  1.0698
  881MOL0     H18885   4.054  11.969   9.600  0.0428 -0.6984 -1.6833
  881MOL0     H18886   3.979  12.171   9.819  2.2386 -0.3176 -0.1916
  881MOL0     H18887   3.808  12.489   9.799 -0.7182  0.7865 -1.1916
  881MOL0     H18888   3.675  12.388   9.780  0.5788  0.2869 -0.8845
  881MOL0     H18889   3.907  12.315   9.975 -0.2548 -2.2259 -0.3765
  881MOL0     H18890   3.752  12.237   9.977  1.6311 -0.2982 -0.4552
  881MOL0     H18891   3.639  12.404  10.059  0.1250 -3.1219  1.3195
  881MOL0     H18892   3.773  12.531  10.039  0.7887 -0.6422  0.0592
  881MOL0     H18893   3.745  12.466  10.288  0.8410  1.7255 -1.5091
  881MOL0     H18894   3.895  12.412  10.212 -0.2509 -0.1222 -0.5085
  881MOL0     H18895   3.518  12.407  10.250  0.5805  0.2420  0.5014
  881MOL0     H18896   3.261  12.364  10.474 -0.6729 -2.6626 -0.7832
  881MOL0     H18897   3.312  12.466  10.332  2.6761 -0.9204 -1.1746
  881MOL0     H18898   3.195  12.343  10.299  1.6239 -3.6661 -0.9986
  881MOL0     H18899   3.120  12.063  10.690  0.0560 -0.0501 -0.7292
  881MOL0     H18900   2.910  11.977  10.799  0.6405  1.3780  1.4010
  881MOL0     H18901   2.669  12.226  10.814 -0.2274 -0.0841  1.6454
  881MOL0     H18902   2.616  12.243  10.646 -0.1120 -2.1104 -1.0595
  881MOL0     H18903   2.405  12.107  10.701 -2.0966 -0.1871  1.6129
  881MOL0     H18904   2.467  12.093  10.866 -1.5667  0.9412 -0.0612
  881MOL0     H18905   2.402  12.354  10.748  1.5478 -2.0011 -1.9486
  881MOL0     H18906   2.463  12.309  10.913 -0.5637 -1.8725  0.8339
  881MOL0     H18907   2.205  12.214  10.765  0.7785 -0.1624  0.1886
  881MOL0     H18908   2.248  12.136  10.904 -1.2593 -1.8557 -3.0864
  881MOL0     H18909   2.139  12.408  10.861 -0.2860 -0.6985 -0.0762
  881MOL0     H18910   2.238  12.399  10.996  0.9851  2.1417 -2.9691
  881MOL0     H18911   1.984  12.217  10.933  1.4349 -1.0483  0.2652
  881MOL0     H18912   2.100  12.189  11.072  0.8865  1.2608  0.7197
  881MOL0     H18913   1.977  12.435  11.029 -0.5430  0.6619  1.3194
  881MOL0     H18914   2.049  12.379  11.184 -0.6972 -0.2356  0.4831
  881MOL0     H18915   1.792  12.369  11.200 -0.0589 -3.4432  2.8889
  881MOL0     H18916   1.868  12.212  11.201 -1.1065 -0.5215 -0.3331
  881MOL0     H18917   2.687  12.141  10.468  1.4383  2.6468 -0.8543
  881MOL0     H18918   2.884  12.197  10.352 -3.1661 -0.3367  0.9768
  881MOL0     H18919   3.479  11.949  10.426 -0.2025 -0.4057  0.1052
  881MOL0     H18920   3.709  12.035  10.354 -0.5077 -0.1748  2.2346
  881MOL0     H18921   3.222  11.286   9.460 -2.0858 -0.3839  0.9808
  881MOL0     H18922   3.018  11.153   9.413  1.3419  1.1164  1.2999
  881MOL0     H18923   2.740  10.960   9.245  0.8830  2.5805  0.5758
  881MOL0     H18924   2.585  10.787   9.243  0.2003 -0.2803 -1.4245
  881MOL0     H18925   2.393  10.630   9.228  1.8947  0.5782  0.7923
  881MOL0     H18926   2.428  10.691   9.388  1.0630  0.2502 -0.3986
  881MOL0     H18927   2.141  10.615   9.303  1.6415 -1.0401 -2.6373
  881MOL0     H18928   2.193  10.670   9.460  0.4521  1.3738 -1.3253
  881MOL0     H18929   2.345  10.475   9.468 -0.0015  1.1575 -0.7897
  881MOL0     H18930   2.282  10.441   9.295  0.3550  0.5224  0.2294
  881MOL0     H18931   2.167  10.288   9.453  0.1902 -0.6400  0.5765
  881MOL0     H18932   2.058  10.398   9.394  1.0965  3.8557 -1.3269
  881MOL0     H18933   2.020  10.464   9.800 -2.6652 -2.0758 -1.1838
  881MOL0     H18934   2.264  11.088   9.217  0.6264  1.3577 -0.5501
  881MOL0     H18935   2.428  11.254   9.212 -3.0273 -1.0922 -1.4155
  882MOL0     O18936   3.460   1.266   1.030  0.0322  0.5167 -0.5404
  882MOL0     C18937   3.427   1.257   1.147  0.8565  0.4405 -0.6542
  882MOL0     O18938   3.358   1.148   1.212  0.3055 -0.4403 -0.0288
  882MOL0     C18939   3.351   1.032   1.150  0.8474  0.1525  0.9777
  882MOL0     C18940   3.462   0.961   1.101  0.3464  0.5617 -0.1652
  882MOL0     C18941   3.442   0.840   1.033  0.1488 -0.1214  0.3949
  882MOL0     C18942   3.313   0.789   1.009  0.2816 -0.8091 -0.2189
  882MOL0     O18943   3.288   0.687   0.919 -0.3679 -0.0866  0.1359
  882MOL0     C18944   3.349   0.671   0.789 -0.7864  0.0802 -1.0970
  882MOL0     C18945   3.312   0.523   0.736  0.6523  0.0550 -0.0225
  882MOL0     C18946   3.369   0.501   0.597 -0.0875  0.3534 -0.5770
  882MOL0     C18947   3.333   0.378   0.521 -0.0947 -0.0728  0.6188
  882MOL0     C18948   3.380   0.251   0.592  0.3285  0.5812  0.3247
  882MOL0     C18949   3.342   0.127   0.502  0.1643  0.8766  0.7977
  882MOL0     C18950   3.352   0.001   0.586  0.0829  0.6934  0.1072
  882MOL0     C18951   3.320  -0.127   0.493 -0.6968 -0.1479 -0.5236
  882MOL0     N18952   3.328  -0.252   0.565  0.4015 -0.7349 -0.3941
  882MOL0     C18953   3.441  -0.330   0.569 -0.1289  0.2849 -0.9462
  882MOL0     C18954   3.421  -0.415   0.676  0.5164  0.1883  0.7564
  882MOL0     C18955   3.521  -0.523   0.717 -0.1562 -0.1969 -0.0777
  882MOL0     C18956   3.446  -0.663   0.709 -0.6159 -0.2377  0.1335
  882MOL0     C18957   3.546  -0.769   0.764 -1.0841 -0.6657 -0.2648
  882MOL0     C18958   3.656  -0.795   0.655  0.3110 -0.2065 -0.3206
  882MOL0     O18959   3.740  -0.914   0.694 -0.9104 -0.6327 -0.0087
  882MOL0     C18960   3.689  -1.039   0.681 -0.4145  0.1123  0.0086
  882MOL0     C18961   3.768  -1.144   0.724  0.0130 -0.7680 -0.2160
  882MOL0     C18962   3.732  -1.275   0.718  0.4619 -0.2698 -0.2506
  882MOL0     C18963   3.824  -1.366   0.799  0.5640 -0.5797 -0.6422
  882MOL0     C18964   3.615  -1.305   0.645  0.3745 -1.3576 -0.0222
  882MOL0     C18965   3.576  -1.448   0.614 -0.3388 -1.0760  0.4894
  882MOL0     O18966   3.467  -1.471   0.539 -0.0035 -0.2599 -0.2009
  882MOL0     C18967   3.471  -1.595   0.467  0.1104 -1.6767 -0.2270
  882MOL0     C18968   3.374  -1.685   0.508 -0.5085 -1.0173  0.0618
  882MOL0     C18969   3.362  -1.806   0.438  1.0045  0.2373  0.1773
  882MOL0     C18970   3.473  -1.848   0.350  0.7734 -0.8091  0.0707
  882MOL0     O18971   3.479  -1.968   0.289 -0.1040  0.2390 -0.4587
  882MOL0     C18972   3.384  -2.075   0.304  0.5006  0.1617 -0.5683
  882MOL0     C18973   3.277  -2.083   0.198 -0.2460  0.0795 -0.1488
  882MOL0     C18974   3.202  -2.206   0.205 -0.1924 -0.1754  0.4148
  882MOL0     C18975   3.080  -2.228   0.107 -0.7691  0.6403 -0.1328
  882MOL0     C18976   3.011  -2.343   0.174 -0.4755  0.8293  0.9363
  882MOL0     C18977   2.889  -2.367   0.105  0.0717 -0.0155  0.7430
  882MOL0     C18978   2.819  -2.491   0.159 -0.5765  0.9897  0.6597
  882MOL0     C18979   2.686  -2.502   0.094 -0.0729  0.4342  0.4135
  882MOL0    Cl18980   2.681  -2.501  -0.087 -0.0646 -0.1628  0.2888
  882MOL0     C18981   3.568  -1.751   0.315 -0.5472  0.1608  0.3728
  882MOL0     C18982   3.558  -1.619   0.369 -0.5758 -0.3621 -0.4424
  882MOL0     O18983   3.653  -1.535   0.663 -0.2274  0.0811 -0.0697
  882MOL0     C18984   3.536  -1.203   0.596  0.0045 -0.1441 -0.7945
  882MOL0     C18985   3.566  -1.073   0.617 -1.2680 -0.7867  0.1441
  882MOL0     N18986   3.305  -0.384   0.731  0.2956  0.5855 -1.1523
  882MOL0     N18987   3.246  -0.291   0.666  0.8080 -0.4569 -0.3713
  882MOL0     C18988   3.208   0.851   1.068 -0.3734  0.3094  0.0898
  882MOL0     C18989   3.222   0.974   1.138 -0.1968 -0.2350  0.7021
  882MOL0     C18990   3.433   1.371   1.229 -0.0240 -0.1343 -0.4694
  882MOL0     C18991   3.415   1.362   1.367  0.4623  0.6077 -0.0218
  882MOL0     C18992   3.413   1.480   1.442 -0.2942  0.1656 -0.5436
  882MOL0     C18993   3.441   1.603   1.375  0.0523 -0.0267 -0.3970
  882MOL0     O18994   3.445   1.712   1.461 -0.0393  0.1680  0.0180
  882MOL0     C18995   3.492   1.845   1.424  1.3920 -0.6638  0.7727
  882MOL0     C18996   3.492   1.937   1.551  0.5556  0.3455  0.6763
  882MOL0     C18997   3.545   2.075   1.528 -0.0320  0.2593  0.3647
  882MOL0     C18998   3.573   2.137   1.668 -0.2517 -0.9395  0.5921
  882MOL0     C18999   3.714   2.161   1.671 -1.2392 -0.0104  0.3245
  882MOL0     C19000   3.836   2.187   1.708  0.2916  0.3413  0.9299
  882MOL0     C19001   3.461   1.617   1.242 -0.4078 -0.2981  0.2628
  882MOL0     C19002   3.452   1.498   1.173  0.0892  1.0298  0.7409
  882MOL0     H19003   3.566   0.990   1.115  0.3289  2.0481 -2.4390
  882MOL0     H19004   3.517   0.788   0.974  1.4410  4.5028 -2.6693
  882MOL0     H19005   3.314   0.755   0.730  1.3474  3.7580  2.3526
  882MOL0     H19006   3.458   0.676   0.800 -0.7542 -0.4442 -1.1444
  882MOL0     H19007   3.359   0.446   0.798  0.5119 -1.3323 -1.5497
  882MOL0     H19008   3.203   0.513   0.734  0.7765 -1.3439 -1.0028
  882MOL0     H19009   3.350   0.584   0.528 -0.3189 -1.5285 -2.9157
  882MOL0     H19010   3.476   0.504   0.620 -0.8359  0.6057  3.7188
  882MOL0     H19011   3.225   0.371   0.512  0.0784 -1.3760 -1.0093
  882MOL0     H19012   3.374   0.377   0.419 -4.0921 -0.2392 -1.1634
  882MOL0     H19013   3.487   0.270   0.603  0.1605  3.2016 -1.5685
  882MOL0     H19014   3.345   0.238   0.694 -1.4252  1.8677 -0.0653
  882MOL0     H19015   3.240   0.137   0.463  0.3773 -0.1722 -0.0702
  882MOL0     H19016   3.406   0.116   0.414 -4.9453  0.3752 -3.3668
  882MOL0     H19017   3.454   0.002   0.625 -0.5368  0.3756  1.8510
  882MOL0     H19018   3.282   0.007   0.670 -1.1964  2.2973 -1.0020
  882MOL0     H19019   3.393  -0.138   0.413 -1.0992 -0.7714 -0.8100
  882MOL0     H19020   3.218  -0.112   0.457 -1.6708 -1.5335  1.4842
  882MOL0     H19021   3.527  -0.321   0.503 -0.7725  3.4825 -1.5618
  882MOL0     H19022   3.611  -0.541   0.657  1.1305  0.2353  1.6585
  882MOL0     H19023   3.546  -0.501   0.821 -0.1768  0.4495 -0.2061
  882MOL0     H19024   3.428  -0.685   0.603  0.7535 -1.8161  0.1897
  882MOL0     H19025   3.354  -0.664   0.768  0.9000  0.0729  2.6305
  882MOL0     H19026   3.493  -0.864   0.777  1.0121 -1.9069 -0.4104
  882MOL0     H19027   3.586  -0.728   0.857 -2.4049  2.5383 -0.9796
  882MOL0     H19028   3.729  -0.715   0.644 -0.3277  0.2372 -1.5014
  882MOL0     H19029   3.611  -0.814   0.557 -1.3860  0.7893  0.2137
  882MOL0     H19030   3.850  -1.107   0.784 -1.4815  1.0554  0.7968
  882MOL0     H19031   3.896  -1.319   0.867  2.4108  0.5736 -3.2346
  882MOL0     H19032   3.766  -1.434   0.861  1.6916  1.0381  2.4038
  882MOL0     H19033   3.889  -1.421   0.731 -0.9061 -0.4787 -2.2112
  882MOL0     H19034   3.302  -1.657   0.584 -0.7206 -1.1110 -0.1052
  882MOL0     H19035   3.281  -1.863   0.484  0.7835  1.9825  2.0950
  882MOL0     H19036   3.443  -2.166   0.296 -2.0742 -1.6586 -0.2254
  882MOL0     H19037   3.343  -2.075   0.405  2.6795 -2.1615  0.4260
  882MOL0     H19038   3.203  -2.003   0.191 -2.2100 -1.7409 -1.6514
  882MOL0     H19039   3.330  -2.099   0.103 -4.4766 -0.3421 -2.6738
  882MOL0     H19040   3.160  -2.189   0.304  0.8316  1.1113  0.6509
  882MOL0     H19041   3.272  -2.290   0.198  2.8750  2.1389  1.1490
  882MOL0     H19042   3.015  -2.140   0.101 -1.3441  0.5357  2.7829
  882MOL0     H19043   3.108  -2.253   0.004  0.0112 -0.0394  0.2296
  882MOL0     H19044   2.996  -2.332   0.281 -3.5016 -0.6287  0.7510
  882MOL0     H19045   3.077  -2.429   0.157 -1.7370 -0.2394  1.3424
  882MOL0     H19046   2.822  -2.280   0.106  2.7105  2.1458 -0.0211
  882MOL0     H19047   2.908  -2.389  -0.000 -0.6615  1.9372  0.1619
  882MOL0     H19048   2.815  -2.473   0.267 -2.1037  2.3840  0.4170
  882MOL0     H19049   2.868  -2.582   0.127 -2.0353  0.4216 -0.0656
  882MOL0     H19050   2.617  -2.422   0.124  0.9895  1.3812  0.3962
  882MOL0     H19051   2.655  -2.604   0.118 -1.0138  0.5340 -0.3011
  882MOL0     H19052   3.650  -1.781   0.251  1.2243  1.2904  1.9831
  882MOL0     H19053   3.633  -1.549   0.332 -0.7008  0.5074  0.8865
  882MOL0     H19054   3.442  -1.223   0.545  0.0214 -0.4162 -0.7209
  882MOL0     H19055   3.487  -1.000   0.603  0.1433  1.6516  3.5124
  882MOL0     H19056   3.106   0.816   1.055 -0.4124  0.4112  0.1175
  882MOL0     H19057   3.139   1.016   1.194 -1.1437  0.7619 -1.3369
  882MOL0     H19058   3.394   1.266   1.412  1.0515 -0.7232 -2.4135
  882MOL0     H19059   3.404   1.486   1.550 -1.9885  0.6369 -0.6840
  882MOL0     H19060   3.592   1.841   1.380  0.4724 -1.1673 -1.4055
  882MOL0     H19061   3.425   1.895   1.353  2.8459 -3.2800 -2.7311
  882MOL0     H19062   3.552   1.874   1.617  0.3429 -2.2585 -1.4346
  882MOL0     H19063   3.389   1.942   1.587  0.7109 -0.2482  1.2216
  882MOL0     H19064   3.462   2.132   1.485 -0.8951 -1.0283  0.2694
  882MOL0     H19065   3.626   2.085   1.455 -2.3999  0.2530 -2.4512
  882MOL0     H19066   3.531   2.069   1.743 -1.2901  0.4289  1.3113
  882MOL0     H19067   3.531   2.237   1.686 -0.4535 -0.1859 -3.3352
  882MOL0     H19068   3.926   2.213   1.760 -0.3285  3.0225  0.8142
  882MOL0     H19069   3.474   1.714   1.194  0.1926 -0.1191  0.7692
  882MOL0     H19070   3.455   1.499   1.064  0.5852 -1.8005  0.6584
  883MOL0     O19071   1.856  10.602   9.348  0.0008 -0.4036  0.2909
  883MOL0     C19072   1.801  10.523   9.274 -0.7079 -0.2175 -0.3048
  883MOL0     O19073   1.755  10.535   9.142  0.1775 -0.0784  0.0008
  883MOL0     C19074   1.772  10.651   9.078 -0.1451 -1.5354 -0.5295
  883MOL0     C19075   1.670  10.681   8.977  0.1068  0.1957  0.2867
  883MOL0     C19076   1.676  10.810   8.914  0.4174 -0.6568  0.4801
  883MOL0     C19077   1.780  10.903   8.939  0.2952 -0.4681  0.3492
  883MOL0     O19078   1.792  11.022   8.876 -0.0363  0.6105  0.3307
  883MOL0     C19079   1.724  11.040   8.757 -0.6318  1.0680  0.2970
  883MOL0     C19080   1.755  11.165   8.674  0.0297 -0.7957  0.7395
  883MOL0     C19081   1.735  11.305   8.744 -0.7893 -0.1993  0.1854
  883MOL0     C19082   1.748  11.420   8.639 -0.2304 -0.5024  0.6748
  883MOL0     C19083   1.740  11.559   8.707 -0.4046  0.2923 -0.4666
  883MOL0     C19084   1.735  11.685   8.614 -0.2750  0.8773  0.5209
  883MOL0     C19085   1.609  11.694   8.529 -0.5769  0.8468 -0.0021
  883MOL0     C19086   1.599  11.819   8.443 -0.4811  0.6860 -0.0937
  883MOL0     N19087   1.584  11.951   8.505  0.2876 -0.7633  0.7825
  883MOL0     C19088   1.695  12.026   8.537  0.2143  0.2282 -0.3332
  883MOL0     C19089   1.657  12.147   8.542  0.5955  0.2715  0.3231
  883MOL0     C19090   1.750  12.267   8.549  0.5007  0.7150  0.4516
  883MOL0     C19091   1.761  12.343   8.419  0.3255 -0.4468 -0.6882
  883MOL0     C19092   1.807  12.265   8.296  0.9348 -0.1165 -0.0941
  883MOL0     C19093   1.712  12.197   8.211  0.7982 -0.0879 -0.0781
  883MOL0     O19094   1.783  12.124   8.110  0.3176 -0.0913 -0.2852
  883MOL0     C19095   1.766  11.988   8.106  0.6792 -0.2252 -0.0659
  883MOL0     C19096   1.883  11.909   8.104  1.0872  0.7716  0.5029
  883MOL0     C19097   1.873  11.767   8.110  0.1151 -0.2941  1.2087
  883MOL0     C19098   1.997  11.678   8.119 -0.2634 -0.8184 -0.2378
  883MOL0     C19099   1.746  11.711   8.107  0.5857  0.5008 -0.0838
  883MOL0     C19100   1.720  11.563   8.111 -0.0093 -0.2959  0.9773
  883MOL0     O19101   1.629  11.517   8.202 -0.3299 -0.1241 -0.3187
  883MOL0     C19102   1.611  11.376   8.214  0.6854  0.4424 -0.3947
  883MOL0     C19103   1.491  11.329   8.167  0.1793 -0.9466  0.7006
  883MOL0     C19104   1.469  11.195   8.176  0.6715  0.5797  0.1427
  883MOL0     C19105   1.552  11.107   8.248  0.0463  0.0522  0.0010
  883MOL0     O19106   1.510  10.979   8.260 -0.0815 -0.3056  0.4044
  883MOL0     C19107   1.608  10.873   8.280  0.1269 -0.1726 -0.9837
  883MOL0     C19108   1.572  10.838   8.425 -0.1957 -0.6464  0.2439
  883MOL0     C19109   1.431  10.783   8.435  0.2411 -0.0949 -0.9001
  883MOL0     C19110   1.325  10.877   8.508  0.5009 -0.0337 -0.8840
  883MOL0     C19111   1.183  10.814   8.531 -0.0853  0.4969  0.2699
  883MOL0     C19112   1.092  10.913   8.594  0.2319  0.3306 -0.5919
  883MOL0     C19113   1.055  11.040   8.521 -0.5056  0.5111 -0.4618
  883MOL0     C19114   0.965  11.130   8.606 -0.1028  0.5502  0.3956
  883MOL0    Cl19115   0.959  11.287   8.518 -0.2906 -0.5859  0.6446
  883MOL0     C19116   1.668  11.162   8.306  0.2537 -0.1993 -0.7619
  883MOL0     C19117   1.697  11.294   8.291  0.6697  0.1428 -0.1154
  883MOL0     O19118   1.779  11.495   8.027 -0.0408  0.1444 -0.3312
  883MOL0     C19119   1.633  11.794   8.093  0.1853  0.3368  0.4386
  883MOL0     C19120   1.639  11.928   8.091 -0.0851  0.6066 -0.8398
  883MOL0     N19121   1.520  12.160   8.508 -0.0221  0.7445 -0.2397
  883MOL0     N19122   1.481  12.034   8.491  1.0588 -0.4392 -0.1090
  883MOL0     C19123   1.873  10.873   9.028 -0.0009 -0.6350 -0.1512
  883MOL0     C19124   1.877  10.750   9.092 -0.0948 -1.0783  0.1539
  883MOL0     C19125   1.812  10.381   9.313  0.5959 -0.2771 -0.4118
  883MOL0     C19126   1.801  10.355   9.452  0.2107  1.2274  0.3087
  883MOL0     C19127   1.818  10.215   9.481 -0.8578 -0.0281  0.0330
  883MOL0     C19128   1.848  10.108   9.398 -0.5138 -0.2954  0.2841
  883MOL0     O19129   1.863   9.977   9.438  0.1115 -0.1490  0.0119
  883MOL0     C19130   1.898   9.958   9.576  0.1777 -0.1147  1.0899
  883MOL0     C19131   1.968   9.828   9.617 -0.1586  0.3817  0.5473
  883MOL0     C19132   1.873   9.705   9.577 -0.9971 -0.1955 -0.1225
  883MOL0     C19133   1.725   9.706   9.627 -0.4053 -0.5842  0.2359
  883MOL0     C19134   1.710   9.733   9.773 -0.0894 -0.0362  0.1634
  883MOL0     C19135   1.686   9.758   9.893 -0.2186 -0.7247  0.6331
  883MOL0     C19136   1.854  10.146   9.264 -0.5130  1.7578  0.1815
  883MOL0     C19137   1.840  10.284   9.222 -0.0637  0.1033 -0.4289
  883MOL0     H19138   1.584  10.618   8.957 -0.6681  1.4804 -0.5662
  883MOL0     H19139   1.601  10.830   8.838  0.0325  2.8814  1.5990
  883MOL0     H19140   1.743  10.956   8.689 -1.8027  0.1168  1.0880
  883MOL0     H19141   1.615  11.051   8.767 -1.3529 -0.5771 -3.5532
  883MOL0     H19142   1.857  11.169   8.633 -1.2573  0.4372 -2.7454
  883MOL0     H19143   1.681  11.175   8.594 -2.2029 -0.3337  2.7374
  883MOL0     H19144   1.635  11.315   8.786  0.4127 -1.5362  3.8166
  883MOL0     H19145   1.811  11.310   8.823  1.1264 -2.4125 -1.3734
  883MOL0     H19146   1.839  11.419   8.577 -0.8522  2.7711 -0.5112
  883MOL0     H19147   1.673  11.412   8.559  0.5541 -0.2309 -0.1117
  883MOL0     H19148   1.643  11.559   8.757 -0.2613  1.5787 -0.1304
  883MOL0     H19149   1.824  11.568   8.778 -0.4366 -0.1585 -0.3695
  883MOL0     H19150   1.740  11.770   8.683 -1.3343  0.8837  0.6148
  883MOL0     H19151   1.814  11.681   8.540  1.2362  0.8009  2.0742
  883MOL0     H19152   1.592  11.606   8.465 -0.1555 -0.7559  1.9745
  883MOL0     H19153   1.517  11.689   8.589  0.0009 -1.7728  0.7904
  883MOL0     H19154   1.510  11.809   8.381  0.1525  0.3873 -0.9835
  883MOL0     H19155   1.686  11.816   8.376  1.5597  1.5673  2.3500
  883MOL0     H19156   1.797  11.995   8.556  0.2497  0.8579  0.5929
  883MOL0     H19157   1.689  12.324   8.619 -2.7090 -2.7067  0.7336
  883MOL0     H19158   1.850  12.232   8.579 -0.5014 -1.5645  1.2994
  883MOL0     H19159   1.835  12.421   8.436  3.0218 -2.5979 -1.7887
  883MOL0     H19160   1.665  12.395   8.409  0.0528 -0.4201  1.6171
  883MOL0     H19161   1.871  12.185   8.333 -2.0259 -3.5652 -1.8107
  883MOL0     H19162   1.863  12.340   8.239 -0.9146  1.2866 -0.1653
  883MOL0     H19163   1.643  12.266   8.160  1.3355  2.1484  2.0124
  883MOL0     H19164   1.651  12.136   8.278  0.5972 -0.8283 -0.9059
  883MOL0     H19165   1.979  11.959   8.114  0.2588  2.3050  1.2099
  883MOL0     H19166   2.086  11.737   8.100 -1.0192 -0.4587 -3.2060
  883MOL0     H19167   1.985  11.645   8.223 -2.1140  0.4053 -0.0150
  883MOL0     H19168   2.003  11.588   8.057 -3.2836 -2.4251  1.5287
  883MOL0     H19169   1.423  11.391   8.110 -0.2385 -0.8234  1.3287
  883MOL0     H19170   1.374  11.162   8.133 -0.3755  1.6538  1.5530
  883MOL0     H19171   1.600  10.788   8.211  2.4217  0.4827 -2.1643
  883MOL0     H19172   1.714  10.900   8.267  0.1974  0.5906  0.8292
  883MOL0     H19173   1.643  10.761   8.455  2.6125  1.9297  0.7249
  883MOL0     H19174   1.594  10.930   8.480  0.4517 -1.8749  2.1272
  883MOL0     H19175   1.443  10.691   8.494  1.8312 -0.1686 -1.3000
  883MOL0     H19176   1.391  10.762   8.336  3.2350 -0.9686 -2.0528
  883MOL0     H19177   1.374  10.900   8.604  2.5882 -1.2647 -1.5885
  883MOL0     H19178   1.301  10.963   8.445 -2.3998 -0.5290 -0.6079
  883MOL0     H19179   1.184  10.713   8.573 -2.3079 -0.1221 -0.9717
  883MOL0     H19180   1.131  10.783   8.440 -1.0627  1.4228  0.4830
  883MOL0     H19181   0.998  10.859   8.610  0.7405 -0.2883  0.4027
  883MOL0     H19182   1.130  10.920   8.696 -3.4662 -0.1447  0.9929
  883MOL0     H19183   1.001  11.009   8.431  2.7614 -1.0118 -2.0502
  883MOL0     H19184   1.139  11.091   8.474 -0.4982  1.6006  0.6921
  883MOL0     H19185   1.011  11.148   8.703  2.5591  1.2521 -0.9164
  883MOL0     H19186   0.864  11.087   8.609  0.6338 -1.7396 -2.4797
  883MOL0     H19187   1.728  11.097   8.369  3.5479 -0.6300 -4.0259
  883MOL0     H19188   1.787  11.344   8.327  1.2324  1.6477 -3.2530
  883MOL0     H19189   1.544  11.734   8.078  2.7227 -3.4205 -1.0629
  883MOL0     H19190   1.548  11.983   8.071 -0.0008  1.4133  0.8425
  883MOL0     H19191   1.956  10.937   9.057  1.5533 -2.2218 -0.8203
  883MOL0     H19192   1.962  10.736   9.159 -1.3514 -2.1860  1.6145
  883MOL0     H19193   1.783  10.428   9.530  3.0386  1.5182  0.8064
  883MOL0     H19194   1.803  10.192   9.586 -0.3681 -0.4487  0.0190
  883MOL0     H19195   1.969  10.036   9.604  2.2768 -0.4695 -2.4951
  883MOL0     H19196   1.807   9.954   9.637 -0.1259 -2.1536  0.5780
  883MOL0     H19197   1.964   9.817   9.726 -6.8948 -0.8132  0.6575
  883MOL0     H19198   2.066   9.800   9.576 -1.3757 -1.0515 -1.6444
  883MOL0     H19199   1.907   9.616   9.631 -3.6067 -0.9796  0.3953
  883MOL0     H19200   1.873   9.697   9.468  1.5153 -0.3062 -0.1717
  883MOL0     H19201   1.677   9.616   9.588 -0.6315 -1.8595  3.1868
  883MOL0     H19202   1.687   9.785   9.561  2.7541  0.6994 -0.2384
  883MOL0     H19203   1.651   9.779   9.992 -1.9411 -0.3204 -0.0254
  883MOL0     H19204   1.871  10.065   9.193  2.3602  2.0152  0.4557
  883MOL0     H19205   1.845  10.300   9.115  1.9994 -1.4835 -0.6467
  884MOL0     O19206   8.438   5.492   1.456  0.0522 -0.3763  0.3105
  884MOL0     C19207   8.517   5.502   1.363 -0.0425 -0.0060  0.4535
  884MOL0     O19208   8.530   5.398   1.267  0.8784 -0.1324  0.6635
  884MOL0     C19209   8.468   5.275   1.274  0.4852 -0.0550 -0.3824
  884MOL0     C19210   8.437   5.200   1.389 -0.1843 -0.0429 -0.2016
  884MOL0     C19211   8.350   5.090   1.393  0.9742 -0.3854  0.4360
  884MOL0     C19212   8.318   5.034   1.267 -0.6323 -0.4717 -0.1699
  884MOL0     O19213   8.217   4.938   1.260 -0.2388  0.0432 -0.2841
  884MOL0     C19214   8.130   4.923   1.372  0.6267  0.9544  0.3005
  884MOL0     C19215   7.993   4.878   1.299  0.6361  0.4409  0.0569
  884MOL0     C19216   7.925   4.997   1.212  0.1152  0.0811  0.1751
  884MOL0     C19217   7.865   5.113   1.294  0.2824  1.1397 -0.1068
  884MOL0     C19218   7.897   5.255   1.241  0.0156 -0.0531  0.2274
  884MOL0     C19219   8.044   5.287   1.252 -0.7775 -0.2442 -0.5056
  884MOL0     C19220   8.071   5.423   1.196  0.4525  0.7806 -0.0290
  884MOL0     C19221   8.188   5.490   1.254 -0.0423  0.3936 -0.1456
  884MOL0     N19222   8.251   5.590   1.162 -0.7849  1.4186  0.5881
  884MOL0     C19223   8.196   5.712   1.127 -0.2515  0.2119  0.7648
  884MOL0     C19224   8.274   5.762   1.032  0.7668  0.6277 -0.4031
  884MOL0     C19225   8.264   5.885   0.951 -0.0456  0.8674  0.0119
  884MOL0     C19226   8.355   5.990   1.003 -0.6809  0.9946 -0.0123
  884MOL0     C19227   8.314   6.125   0.957  0.7037  0.2774  0.3894
  884MOL0     C19228   8.431   6.219   0.958 -0.1387 -0.1529  0.0144
  884MOL0     O19229   8.389   6.355   0.963 -0.5583  0.4108 -0.0767
  884MOL0     C19230   8.409   6.438   1.069 -0.2753 -1.2391  0.0148
  884MOL0     C19231   8.442   6.407   1.201 -0.3921  0.2525 -0.1047
  884MOL0     C19232   8.483   6.499   1.299 -0.2417 -0.4111  1.3708
  884MOL0     C19233   8.507   6.450   1.436  0.4419  0.5318  1.1583
  884MOL0     C19234   8.460   6.635   1.274  0.3078 -0.3770 -0.9004
  884MOL0     C19235   8.497   6.740   1.371  0.3015 -0.2820 -0.2368
  884MOL0     O19236   8.588   6.711   1.462 -0.0549  0.0611 -0.7845
  884MOL0     C19237   8.622   6.788   1.567 -0.6053 -0.1196  0.1318
  884MOL0     C19238   8.559   6.761   1.689  1.2585 -0.3907  0.6439
  884MOL0     C19239   8.576   6.851   1.796  0.2773 -0.2605 -0.6718
  884MOL0     C19240   8.665   6.961   1.774  0.6091 -0.3979  0.1165
  884MOL0     O19241   8.680   7.050   1.876  0.1624 -0.1922 -0.2568
  884MOL0     C19242   8.559   7.128   1.894 -0.7001  0.0391 -0.4751
  884MOL0     C19243   8.607   7.267   1.869  0.1658  0.4603  0.0771
  884MOL0     C19244   8.492   7.373   1.883  0.3922 -0.7271  0.1721
  884MOL0     C19245   8.498   7.511   1.804 -0.5378  0.3690 -0.4797
  884MOL0     C19246   8.388   7.614   1.860  0.3701 -1.1301 -1.0738
  884MOL0     C19247   8.446   7.695   1.971  1.1181  1.1661 -0.4588
  884MOL0     C19248   8.338   7.737   2.079  0.6956  0.8272 -0.1095
  884MOL0     C19249   8.391   7.849   2.162 -0.7198  0.2614 -0.3149
  884MOL0    Cl19250   8.500   7.800   2.296  0.0796  0.1821  0.0983
  884MOL0     C19251   8.728   6.975   1.650 -0.9174 -0.9547  0.0976
  884MOL0     C19252   8.710   6.891   1.547 -0.8310  0.2683 -0.0871
  884MOL0     O19253   8.448   6.854   1.362  0.1005  0.9103  0.1773
  884MOL0     C19254   8.393   6.663   1.157  0.3967 -0.2220 -0.5592
  884MOL0     C19255   8.373   6.572   1.060 -0.2896 -0.5018  0.0090
  884MOL0     N19256   8.378   5.667   1.008 -0.0599 -0.1060  0.0015
  884MOL0     N19257   8.364   5.570   1.088  0.1448 -0.6376 -0.3051
  884MOL0     C19258   8.364   5.100   1.149  0.0300  0.9438  0.1855
  884MOL0     C19259   8.428   5.221   1.151 -0.5865 -0.7064 -0.2323
  884MOL0     C19260   8.600   5.625   1.356 -0.2405  0.1149  0.3143
  884MOL0     C19261   8.653   5.666   1.234  0.0565  0.2157 -0.6517
  884MOL0     C19262   8.739   5.777   1.228 -1.1798 -0.4765  0.3325
  884MOL0     C19263   8.758   5.847   1.347 -0.2661 -0.1781  0.7610
  884MOL0     O19264   8.844   5.956   1.368 -0.2918  0.3855  0.1239
  884MOL0     C19265   8.901   6.020   1.252  0.3287 -0.0590 -0.6601
  884MOL0     C19266   9.007   6.117   1.295 -0.3760 -0.2984 -0.4560
  884MOL0     C19267   9.111   6.064   1.391 -0.2875 -0.8077 -0.0460
  884MOL0     C19268   9.222   6.166   1.430 -0.3107  0.8705 -0.9823
  884MOL0     C19269   9.336   6.174   1.339 -0.8002 -0.1507 -0.1102
  884MOL0     C19270   9.439   6.185   1.270  0.0045  0.9156  0.1663
  884MOL0     C19271   8.695   5.812   1.463 -0.4902 -0.9858 -0.1953
  884MOL0     C19272   8.605   5.711   1.463 -0.9339  0.2059 -1.0929
  884MOL0     H19273   8.462   5.224   1.492 -3.1311 -1.1444  0.8737
  884MOL0     H19274   8.303   5.048   1.481  1.6032 -2.6726 -0.2701
  884MOL0     H19275   8.158   4.849   1.448 -2.9415 -1.9929 -0.9324
  884MOL0     H19276   8.116   5.018   1.424 -0.4685 -1.3652  4.7267
  884MOL0     H19277   8.013   4.797   1.229 -0.9385 -0.0120  0.1152
  884MOL0     H19278   7.916   4.854   1.372  0.1301  3.7470  0.7880
  884MOL0     H19279   8.003   5.014   1.137 -0.7840  0.7602 -0.6115
  884MOL0     H19280   7.840   4.962   1.154 -1.4274  0.8286  1.8959
  884MOL0     H19281   7.757   5.098   1.286  0.3752  0.7002 -0.6124
  884MOL0     H19282   7.897   5.106   1.398 -4.3771 -2.7717  1.4230
  884MOL0     H19283   7.858   5.265   1.139 -1.5542  2.6849  0.9946
  884MOL0     H19284   7.845   5.328   1.304  2.6491 -0.8454  3.6107
  884MOL0     H19285   8.084   5.289   1.354  7.5653 -0.0014 -2.9951
  884MOL0     H19286   8.107   5.213   1.202 -0.1752  0.3486 -0.6389
  884MOL0     H19287   8.092   5.404   1.091  4.2972  0.0185  0.7432
  884MOL0     H19288   7.986   5.491   1.211 -0.0901 -0.2761  2.1946
  884MOL0     H19289   8.257   5.412   1.286 -0.6273  0.2606  0.8227
  884MOL0     H19290   8.147   5.542   1.341  0.3695 -0.1655  0.3891
  884MOL0     H19291   8.108   5.763   1.165 -0.8857  1.0571 -1.6725
  884MOL0     H19292   8.277   5.866   0.844 -2.7231 -1.8561  0.0234
  884MOL0     H19293   8.157   5.909   0.954  0.1569  2.3460 -2.4849
  884MOL0     H19294   8.454   5.972   0.960 -1.4254  2.4810 -2.5533
  884MOL0     H19295   8.354   5.975   1.111 -3.8049  0.4070 -0.0433
  884MOL0     H19296   8.229   6.165   1.014 -2.7170 -0.9260 -3.4010
  884MOL0     H19297   8.264   6.125   0.859 -1.7629 -0.4022  1.5650
  884MOL0     H19298   8.497   6.203   0.872  2.0034  0.0997  1.5230
  884MOL0     H19299   8.494   6.202   1.046  1.6404  0.5999 -1.0530
  884MOL0     H19300   8.461   6.301   1.219  1.3954 -0.0421 -2.8981
  884MOL0     H19301   8.506   6.341   1.429 -1.0426  0.6355 -2.0731
  884MOL0     H19302   8.606   6.469   1.480  0.6485  0.3030  0.7915
  884MOL0     H19303   8.425   6.481   1.501  1.6953  1.1914  2.5029
  884MOL0     H19304   8.490   6.677   1.694 -3.5997  2.7549 -3.5170
  884MOL0     H19305   8.523   6.827   1.887 -1.3583 -0.1535 -1.5600
  884MOL0     H19306   8.479   7.097   1.827 -0.0076  0.1904 -1.4022
  884MOL0     H19307   8.523   7.102   1.994  1.5627 -1.5467  0.0124
  884MOL0     H19308   8.689   7.284   1.940  0.3576 -0.0011 -0.0347
  884MOL0     H19309   8.649   7.269   1.768  1.4830 -1.1860  0.5406
  884MOL0     H19310   8.487   7.418   1.983  2.2631  2.3122 -0.9839
  884MOL0     H19311   8.400   7.320   1.855  1.2347 -1.2365 -1.7564
  884MOL0     H19312   8.595   7.562   1.811 -1.6190  2.2927  1.9863
  884MOL0     H19313   8.488   7.485   1.698  1.0771  0.2332 -0.6317
  884MOL0     H19314   8.309   7.551   1.903 -0.8376 -1.0536 -3.0317
  884MOL0     H19315   8.343   7.677   1.782  1.8966 -1.5221 -2.3261
  884MOL0     H19316   8.528   7.638   2.016  1.2324 -0.0048 -2.0781
  884MOL0     H19317   8.482   7.788   1.926  3.1986  1.0787  0.8729
  884MOL0     H19318   8.316   7.653   2.147 -3.6103  0.8330 -1.2156
  884MOL0     H19319   8.245   7.775   2.036 -1.1295  1.8879  4.1612
  884MOL0     H19320   8.307   7.901   2.209  0.0291  2.8809 -1.6819
  884MOL0     H19321   8.448   7.921   2.102  3.6245 -1.6360  1.0787
  884MOL0     H19322   8.792   7.059   1.626 -2.0904 -0.2272 -0.5490
  884MOL0     H19323   8.767   6.918   1.459  0.2897  2.0280  1.0980
  884MOL0     H19324   8.366   6.765   1.132  0.3955  0.4975  2.1214
  884MOL0     H19325   8.321   6.607   0.972  0.8410 -1.0224 -0.8891
  884MOL0     H19326   8.342   5.076   1.046 -1.6157  0.2746  0.6575
  884MOL0     H19327   8.446   5.275   1.059  0.7278  0.2591  0.5543
  884MOL0     H19328   8.633   5.602   1.149  1.4324 -2.8681  1.1745
  884MOL0     H19329   8.779   5.814   1.134 -0.4359  0.2422  0.9160
  884MOL0     H19330   8.945   5.946   1.185 -1.0778 -2.7170  1.1431
  884MOL0     H19331   8.820   6.058   1.189 -1.5230 -3.4946 -0.6466
  884MOL0     H19332   8.958   6.199   1.348  1.2658 -1.8113  3.8799
  884MOL0     H19333   9.054   6.154   1.204  3.3900 -0.8120  1.0812
  884MOL0     H19334   9.155   5.973   1.350 -0.4300  0.3568 -3.0038
  884MOL0     H19335   9.060   6.036   1.484  1.8783 -3.3868  0.4959
  884MOL0     H19336   9.263   6.128   1.524 -1.1129  1.6561 -0.2959
  884MOL0     H19337   9.185   6.267   1.450  0.7677  1.4109 -1.5793
  884MOL0     H19338   9.523   6.206   1.207  1.3988 -1.5181  1.0669
  884MOL0     H19339   8.700   5.866   1.557  0.2469 -1.6908  0.1827
  884MOL0     H19340   8.573   5.676   1.561  2.1467  2.2745  0.8248
  885MOL0     O19341   9.975   7.796  10.267 -0.1437  0.8388  0.4879
  885MOL0     C19342  10.063   7.883  10.250  0.8746  0.2626  0.3122
  885MOL0     O19343  10.198   7.860  10.276  0.9123 -0.1771 -0.1006
  885MOL0     C19344  10.249   7.730  10.306  0.5795 -0.8441 -0.6789
  885MOL0     C19345  10.351   7.722  10.400 -0.2299 -0.0091 -0.0081
  885MOL0     C19346  10.405   7.596  10.434  0.0249 -0.4123 -0.4947
  885MOL0     C19347  10.359   7.484  10.365  0.3615 -0.4914 -0.4370
  885MOL0     O19348  10.408   7.355  10.390 -0.1831 -0.3983 -0.8325
  885MOL0     C19349  10.469   7.325  10.518 -0.4039 -0.4483  0.4629
  885MOL0     C19350  10.490   7.168  10.523  0.1988  0.1032 -0.7254
  885MOL0     C19351  10.369   7.075  10.497 -0.6290 -0.2987 -0.1555
  885MOL0     C19352  10.384   6.936  10.545  1.0476 -0.4311 -0.9253
  885MOL0     C19353  10.518   6.859  10.531 -1.0943 -0.2289  0.0136
  885MOL0     C19354  10.508   6.716  10.595 -0.2068  0.3885 -0.9407
  885MOL0     C19355  10.623   6.624  10.542  0.4907 -0.2070 -0.3723
  885MOL0     C19356  10.569   6.483  10.508  0.0041 -0.1354 -0.2817
  885MOL0     N19357  10.674   6.379  10.500  1.1588 -0.2931 -0.0505
  885MOL0     C19358  10.751   6.342  10.389  0.3365  0.0490 -0.4628
  885MOL0     C19359  10.850   6.265  10.443 -0.1223 -0.3143  0.2536
  885MOL0     C19360  10.963   6.202  10.354  0.7430  0.7505 -0.3770
  885MOL0     C19361  11.092   6.264  10.387  0.0118  0.5404 -0.2437
  885MOL0     C19362  11.212   6.202  10.320 -0.5777  0.4354  0.5811
  885MOL0     C19363  11.338   6.223  10.396  0.1099 -0.5071 -0.7626
  885MOL0     O19364  11.342   6.358  10.441  0.0192  0.0618 -0.0694
  885MOL0     C19365  11.452   6.431  10.408 -0.2769 -0.1785 -0.4692
  885MOL0     C19366  11.591   6.404  10.450  0.8863 -0.0675 -0.0919
  885MOL0     C19367  11.697   6.470  10.402  0.6743 -0.1332  0.5902
  885MOL0     C19368  11.835   6.420  10.443  0.2947  0.2176 -0.0037
  885MOL0     C19369  11.675   6.582  10.311 -0.1653 -0.3283  0.3804
  885MOL0     C19370  11.786   6.661  10.239  0.0136  0.2608 -0.0959
  885MOL0     O19371  11.757   6.776  10.168 -0.0298  0.0241  0.2346
  885MOL0     C19372  11.838   6.807  10.061  0.8912 -0.5723 -0.1254
  885MOL0     C19373  11.785   6.784   9.934  0.5250 -0.3686 -0.1065
  885MOL0     C19374  11.860   6.818   9.823 -0.6642 -0.3577  0.7008
  885MOL0     C19375  11.990   6.867   9.820 -0.3199 -0.6122  0.6609
  885MOL0     O19376  12.055   6.858   9.692 -0.3394  0.8732 -0.1958
  885MOL0     C19377  12.177   6.788   9.692 -0.5658  0.4060  0.5555
  885MOL0     C19378  12.180   6.633   9.696 -1.0666 -0.0490  0.0515
  885MOL0     C19379  12.151   6.576   9.835  0.3392 -0.3895 -0.5390
  885MOL0     C19380  12.173   6.432   9.826  0.0981 -0.7389 -0.2808
  885MOL0     C19381  12.190   6.374   9.969 -0.0651  0.3308  0.1115
  885MOL0     C19382  12.223   6.223   9.956 -0.9322 -0.2122  0.0740
  885MOL0     C19383  12.346   6.195   9.867  0.8368  0.3366  0.9265
  885MOL0     C19384  12.416   6.049   9.896  1.1317 -0.9803 -0.6698
  885MOL0    Cl19385  12.303   5.909   9.899 -0.0316  0.6126  0.2747
  885MOL0     C19386  12.050   6.891   9.949 -1.0340  1.1249 -0.3094
  885MOL0     C19387  11.973   6.856  10.067 -0.3578 -0.7391 -0.0498
  885MOL0     O19388  11.896   6.608  10.241  0.0484 -0.2094 -0.6887
  885MOL0     C19389  11.543   6.616  10.267  0.4958  0.0301 -0.6301
  885MOL0     C19390  11.440   6.538  10.320  0.4536  0.4050 -0.0675
  885MOL0     N19391  10.836   6.254  10.579 -0.0440 -0.4754 -0.1218
  885MOL0     N19392  10.731   6.326  10.607 -1.2647  0.3091 -0.1767
  885MOL0     C19393  10.266   7.490  10.259 -0.9255 -1.3856 -0.5022
  885MOL0     C19394  10.201   7.618  10.234 -0.1541  0.0470  0.4997
  885MOL0     C19395  10.011   8.028  10.229 -0.2750  0.1304  0.5359
  885MOL0     C19396  10.103   8.122  10.187 -0.2130  0.9227 -0.5212
  885MOL0     C19397  10.079   8.263  10.167  0.0487  0.7305  0.3403
  885MOL0     C19398   9.957   8.308  10.212  0.3270  0.3343 -0.6477
  885MOL0     O19399   9.927   8.440  10.208  0.5880  0.0001  0.0073
  885MOL0     C19400  10.002   8.531  10.133 -0.1178 -0.2043  0.2109
  885MOL0     C19401   9.976   8.507   9.983 -1.6065 -0.0403  1.0356
  885MOL0     C19402   9.970   8.643   9.906 -0.0629 -0.2335 -0.3676
  885MOL0     C19403  10.109   8.718   9.904  0.2904  0.8628 -0.2681
  885MOL0     C19404  10.109   8.830   9.816  0.2787  1.0247 -0.4159
  885MOL0     C19405  10.096   8.926   9.741 -0.4009  0.0288  0.2960
  885MOL0     C19406   9.852   8.214  10.242 -0.0431 -0.9177 -0.0399
  885MOL0     C19407   9.880   8.073  10.241  0.0336 -0.2057 -0.0475
  885MOL0     H19408  10.392   7.811  10.446  1.4719 -0.5710 -0.3444
  885MOL0     H19409  10.463   7.585  10.525 -0.7967 -3.5957 -0.2453
  885MOL0     H19410  10.562   7.382  10.531  0.6052 -2.2902  1.7559
  885MOL0     H19411  10.404   7.353  10.601 -0.8848 -0.5547  0.1290
  885MOL0     H19412  10.581   7.147  10.465 -0.4175  4.6720 -3.8795
  885MOL0     H19413  10.521   7.156  10.628 -0.8023  0.2366 -0.4039
  885MOL0     H19414  10.291   7.128  10.552  1.0802  1.5184  0.6316
  885MOL0     H19415  10.327   7.067  10.396  0.8279  0.4756 -0.8528
  885MOL0     H19416  10.364   6.948  10.652  1.8274  2.0054 -0.9886
  885MOL0     H19417  10.292   6.881  10.524  1.2025 -1.7384  1.4177
  885MOL0     H19418  10.537   6.851  10.423 -0.7182  1.8539 -0.1067
  885MOL0     H19419  10.593   6.911  10.592 -0.9604  0.7598 -0.9731
  885MOL0     H19420  10.524   6.724  10.703 -0.3434 -1.9392 -0.7018
  885MOL0     H19421  10.408   6.672  10.590 -0.0131 -0.7109  2.3982
  885MOL0     H19422  10.671   6.672  10.456  2.1269  0.7192  1.0052
  885MOL0     H19423  10.696   6.625  10.623 -1.4443 -0.8376  1.4536
  885MOL0     H19424  10.522   6.496  10.410 -0.0171 -0.1273 -0.2703
  885MOL0     H19425  10.493   6.457  10.582 -1.2741  0.2705 -1.4134
  885MOL0     H19426  10.730   6.379  10.289 -0.0241 -0.2170 -0.4832
  885MOL0     H19427  10.964   6.095  10.375  1.9901  1.2071  2.4140
  885MOL0     H19428  10.944   6.232  10.250  2.1119  2.0896 -0.2904
  885MOL0     H19429  11.097   6.251  10.495  2.5363  0.4028 -0.3246
  885MOL0     H19430  11.084   6.372  10.374 -3.3105  0.7124  1.9552
  885MOL0     H19431  11.230   6.257  10.227  0.9152  1.9455  1.6987
  885MOL0     H19432  11.200   6.096  10.298  1.7851  0.5641 -1.8658
  885MOL0     H19433  11.415   6.197  10.322 -0.8695 -1.0504 -1.6182
  885MOL0     H19434  11.343   6.145  10.473 -0.4940 -2.2428 -2.4082
  885MOL0     H19435  11.616   6.318  10.512 -0.6160 -1.4904 -1.3464
  885MOL0     H19436  11.817   6.365  10.535 -1.1758 -1.0452 -1.0074
  885MOL0     H19437  11.887   6.360  10.367  0.5100 -0.4080  0.6331
  885MOL0     H19438  11.902   6.503  10.466  0.1688 -0.2944  2.4906
  885MOL0     H19439  11.681   6.754   9.924  1.0105 -1.9263 -0.8300
  885MOL0     H19440  11.815   6.798   9.726  1.5287 -3.4750  0.1802
  885MOL0     H19441  12.220   6.819   9.596 -2.1437  2.0886  0.3330
  885MOL0     H19442  12.244   6.828   9.769 -1.3749 -0.6255  1.8362
  885MOL0     H19443  12.100   6.597   9.631  0.3990 -1.0407 -1.2839
  885MOL0     H19444  12.277   6.599   9.656 -0.0326  1.9938  0.6616
  885MOL0     H19445  12.055   6.599   9.881  0.8718  2.4203 -0.6312
  885MOL0     H19446  12.219   6.627   9.905  1.7119 -3.2837  0.3920
  885MOL0     H19447  12.104   6.379   9.759 -1.0430  0.4960 -0.1284
  885MOL0     H19448  12.273   6.428   9.783  0.1616  1.8486 -0.5056
  885MOL0     H19449  12.098   6.365  10.028 -0.4347 -0.5591 -0.5650
  885MOL0     H19450  12.267   6.426  10.027  0.9231 -1.6966  0.6958
  885MOL0     H19451  12.243   6.180  10.054 -2.4832  0.9731  0.9538
  885MOL0     H19452  12.132   6.179   9.914  0.8815 -1.4470 -2.8925
  885MOL0     H19453  12.403   6.288   9.875 -3.1250  3.3456 -1.9175
  885MOL0     H19454  12.312   6.188   9.763 -1.1501  1.2914  1.4535
  885MOL0     H19455  12.461   6.059   9.995 -0.2192  2.1655 -0.2248
  885MOL0     H19456  12.494   6.035   9.821 -0.2982 -1.0316 -2.2232
  885MOL0     H19457  12.144   6.943   9.959 -0.2114 -0.1684 -1.0814
  885MOL0     H19458  12.031   6.863  10.158  2.6686  1.4674 -1.9153
  885MOL0     H19459  11.523   6.697  10.197 -2.4516  0.0732  0.1292
  885MOL0     H19460  11.344   6.568  10.280 -0.2204 -1.3971  0.1321
  885MOL0     H19461  10.234   7.405  10.199  1.1411 -2.0308 -0.7730
  885MOL0     H19462  10.138   7.633  10.147 -0.3233 -2.4884  0.1067
  885MOL0     H19463  10.201   8.074  10.179 -1.4103 -1.8498  0.0807
  885MOL0     H19464  10.159   8.324  10.125 -0.1311  0.0207 -1.1036
  885MOL0     H19465   9.958   8.627  10.160 -1.2963  0.2248 -2.7916
  885MOL0     H19466  10.108   8.534  10.158  0.6491  1.3459 -2.7096
  885MOL0     H19467   9.882   8.455   9.963 -0.6099 -1.0799 -1.3536
  885MOL0     H19468  10.042   8.438   9.930 -2.1582 -1.1546  1.7412
  885MOL0     H19469   9.897   8.710   9.951  1.6559  1.6622 -0.2480
  885MOL0     H19470   9.939   8.625   9.803 -2.4586 -0.6609  0.3745
  885MOL0     H19471  10.189   8.644   9.886 -0.0429 -0.4908  3.0729
  885MOL0     H19472  10.121   8.743  10.010  1.6365 -2.0767  0.3858
  885MOL0     H19473  10.094   9.017   9.685 -0.6938 -0.7226 -0.9414
  885MOL0     H19474   9.752   8.256  10.243  1.0016  1.7802 -0.0881
  885MOL0     H19475   9.811   7.991  10.258  1.4653 -0.9201  2.9487
  886MOL0     O19476   9.423   8.533   4.586  0.2197  0.0564 -0.3517
  886MOL0     C19477   9.438   8.430   4.520  1.0171 -0.2207 -0.2636
  886MOL0     O19478   9.542   8.340   4.526  0.2482  0.1526  0.2113
  886MOL0     C19479   9.662   8.384   4.591  0.4737 -0.2239 -0.5421
  886MOL0     C19480   9.790   8.409   4.529 -0.1716  0.1906  1.1068
  886MOL0     C19481   9.910   8.445   4.592 -0.1118  0.5099  0.1246
  886MOL0     C19482   9.900   8.460   4.728  0.5540  0.1545 -0.3647
  886MOL0     O19483  10.001   8.512   4.810  0.5887 -0.2201  0.4644
  886MOL0     C19484  10.075   8.412   4.892 -0.2153 -0.5985  0.1000
  886MOL0     C19485  10.232   8.449   4.905 -0.6684  0.4108  0.6545
  886MOL0     C19486  10.309   8.314   4.915  0.6771 -0.3353 -0.8055
  886MOL0     C19487  10.451   8.333   4.968  0.0692  0.6984  0.9530
  886MOL0     C19488  10.523   8.209   4.928 -1.5143  0.6761  0.5146
  886MOL0     C19489  10.672   8.204   4.958  0.5064  0.1076  0.6731
  886MOL0     C19490  10.739   8.072   4.919 -0.3207  0.2157  0.3108
  886MOL0     C19491  10.684   7.951   4.999 -0.8579  0.0745  0.0294
  886MOL0     N19492  10.761   7.938   5.121 -0.1713  0.7934 -0.0561
  886MOL0     C19493  10.900   7.930   5.122 -0.4033  0.4967 -0.2638
  886MOL0     C19494  10.941   7.875   5.240  0.4844 -0.0451  0.6876
  886MOL0     C19495  11.082   7.879   5.291  0.3635 -0.1339  0.2845
  886MOL0     C19496  11.142   8.016   5.320 -0.4063  0.1464 -0.0572
  886MOL0     C19497  11.070   8.097   5.431 -0.2483  0.1858  0.1624
  886MOL0     C19498  11.151   8.214   5.491  0.6475 -0.0301  0.3967
  886MOL0     O19499  11.281   8.172   5.549  0.3591  0.0025  0.1451
  886MOL0     C19500  11.276   8.096   5.665 -0.4451  0.1541  0.0990
  886MOL0     C19501  11.164   8.068   5.746  0.1618  0.1126  0.2367
  886MOL0     C19502  11.171   7.974   5.843  0.6450 -0.0015 -0.9498
  886MOL0     C19503  11.046   7.947   5.920  0.9230  0.3635 -0.6768
  886MOL0     C19504  11.295   7.907   5.864  0.1150  0.9737 -0.3941
  886MOL0     C19505  11.319   7.787   5.957 -0.7350 -0.9836  0.3244
  886MOL0     O19506  11.426   7.705   5.933 -1.2962 -0.7549 -0.1402
  886MOL0     C19507  11.478   7.641   6.045 -0.2786  0.5679 -0.7330
  886MOL0     C19508  11.551   7.540   6.011  0.0177  0.0467  0.5257
  886MOL0     C19509  11.608   7.462   6.107 -0.0421 -0.6837 -1.0811
  886MOL0     C19510  11.588   7.483   6.249  0.0740 -0.0959 -0.4762
  886MOL0     O19511  11.638   7.385   6.334 -0.6049  0.3162  0.1170
  886MOL0     C19512  11.580   7.396   6.465 -0.5224  0.9736 -0.2786
  886MOL0     C19513  11.636   7.292   6.561  1.0310  0.0235  0.1358
  886MOL0     C19514  11.612   7.338   6.700  0.3789  0.0016  0.3650
  886MOL0     C19515  11.632   7.223   6.796  0.0485  0.3720 -0.3129
  886MOL0     C19516  11.600   7.248   6.952  0.8399 -1.0885 -0.4693
  886MOL0     C19517  11.635   7.118   7.025 -0.3294  0.4599 -0.1419
  886MOL0     C19518  11.665   7.168   7.170  0.0193  0.0842 -0.2437
  886MOL0     C19519  11.685   7.048   7.262 -0.2646 -0.2513  0.4879
  886MOL0    Cl19520  11.736   7.106   7.433 -0.4222  0.5871 -0.9788
  886MOL0     C19521  11.515   7.598   6.286  0.7763  0.2181  0.1584
  886MOL0     C19522  11.465   7.680   6.187 -0.6156  0.3349 -0.2281
  886MOL0     O19523  11.236   7.770   6.044 -0.8606  0.0188 -0.0578
  886MOL0     C19524  11.408   7.937   5.795 -0.7988 -1.0485 -0.3564
  886MOL0     C19525  11.401   8.035   5.696  0.6399  0.0485  0.5241
  886MOL0     N19526  10.826   7.843   5.315  0.7282 -0.4258  0.1296
  886MOL0     N19527  10.721   7.880   5.241  0.0436 -0.8851 -0.2200
  886MOL0     C19528   9.780   8.439   4.793  0.3179 -0.4799 -0.2936
  886MOL0     C19529   9.665   8.389   4.730  0.6197 -0.7521  0.3576
  886MOL0     C19530   9.326   8.396   4.431  0.1749 -0.5424 -0.1464
  886MOL0     C19531   9.337   8.283   4.352  0.4082  0.0912  0.1154
  886MOL0     C19532   9.238   8.250   4.264 -0.2453 -0.4042  0.2285
  886MOL0     C19533   9.119   8.322   4.253  0.8797 -0.8799 -0.4704
  886MOL0     O19534   9.018   8.275   4.172 -0.3530  0.3153 -0.5416
  886MOL0     C19535   8.982   8.360   4.058  0.8301  0.2008  0.8646
  886MOL0     C19536   9.065   8.327   3.932  0.1396  0.2448  0.9333
  886MOL0     C19537   9.008   8.376   3.790  0.1351  0.0116  0.0210
  886MOL0     C19538   8.935   8.254   3.721  0.5261 -1.2490 -0.0903
  886MOL0     C19539   9.038   8.172   3.661  1.2031 -0.3398 -0.1467
  886MOL0     C19540   9.091   8.086   3.596 -0.4973 -0.9647 -0.0671
  886MOL0     C19541   9.104   8.433   4.329  0.7809 -0.6523  0.0644
  886MOL0     C19542   9.210   8.476   4.411  0.6245  0.0795  0.4109
  886MOL0     H19543   9.804   8.401   4.422 -2.0077  1.8448  0.6701
  886MOL0     H19544  10.008   8.460   4.550 -1.2144 -1.2511 -3.4514
  886MOL0     H19545  10.036   8.388   4.992  0.9341 -1.3573  0.3937
  886MOL0     H19546  10.057   8.321   4.833 -2.0799 -0.0949 -0.1757
  886MOL0     H19547  10.262   8.513   4.822 -3.1629 -0.2922 -0.8898
  886MOL0     H19548  10.258   8.516   4.988 -0.0953  1.3482 -0.2618
  886MOL0     H19549  10.252   8.253   4.985  0.7691  2.4839  1.9703
  886MOL0     H19550  10.305   8.255   4.823 -2.7768 -3.6885  1.2338
  886MOL0     H19551  10.501   8.421   4.924  0.1671 -0.8821 -2.4347
  886MOL0     H19552  10.456   8.337   5.077 -1.2094  2.1963  1.0027
  886MOL0     H19553  10.467   8.126   4.972 -2.4760  0.2470 -1.4299
  886MOL0     H19554  10.519   8.200   4.819  0.7675  1.6623  0.2969
  886MOL0     H19555  10.712   8.282   4.893 -0.6276  0.5533  0.4877
  886MOL0     H19556  10.693   8.229   5.063  0.0768  0.5360  0.6588
  886MOL0     H19557  10.722   8.039   4.817 -1.1191 -2.2307  1.1683
  886MOL0     H19558  10.847   8.084   4.936 -0.5952  2.4295  0.8437
  886MOL0     H19559  10.691   7.853   4.950 -1.2893 -1.2156  2.3709
  886MOL0     H19560  10.576   7.950   5.018 -1.1243  0.7131 -1.3499
  886MOL0     H19561  10.971   7.984   5.060  0.5904 -2.1384 -1.5751
  886MOL0     H19562  11.082   7.818   5.382  0.1870 -0.0575  0.3361
  886MOL0     H19563  11.141   7.822   5.219  0.3213 -0.5239  0.5577
  886MOL0     H19564  11.140   8.084   5.234 -0.9318  0.8870  0.5281
  886MOL0     H19565  11.247   8.003   5.345 -0.0096  1.2678 -1.0560
  886MOL0     H19566  11.030   8.031   5.508 -0.3372  0.3238  0.2325
  886MOL0     H19567  10.984   8.145   5.384 -0.4539  0.8377  1.1946
  886MOL0     H19568  11.084   8.274   5.552 -1.1046  1.0597 -2.4154
  886MOL0     H19569  11.170   8.280   5.406  0.4435 -0.7968 -0.2574
  886MOL0     H19570  11.074   8.127   5.730 -0.9731 -1.7457 -0.4759
  886MOL0     H19571  10.955   7.957   5.859  1.7668 -0.4085 -2.1045
  886MOL0     H19572  11.032   7.847   5.963  1.0121 -0.5282 -2.6326
  886MOL0     H19573  11.038   8.016   6.004  1.1302 -2.0085  1.4233
  886MOL0     H19574  11.545   7.520   5.904  0.2233  2.2460  0.0351
  886MOL0     H19575  11.678   7.381   6.090 -2.1169 -2.9613  0.4866
  886MOL0     H19576  11.610   7.498   6.493 -0.4219  1.0972 -0.8196
  886MOL0     H19577  11.471   7.395   6.462 -0.4875  0.6050 -2.6880
  886MOL0     H19578  11.574   7.204   6.543 -0.9306  1.1992  0.7873
  886MOL0     H19579  11.738   7.253   6.555 -0.7380 -5.8609  1.6131
  886MOL0     H19580  11.510   7.376   6.709  0.8463  2.6467 -3.4553
  886MOL0     H19581  11.686   7.413   6.726  0.2084  0.8060 -1.3526
  886MOL0     H19582  11.576   7.134   6.765 -1.3668  2.0023 -2.7866
  886MOL0     H19583  11.736   7.189   6.793 -0.1368 -0.2670  0.2006
  886MOL0     H19584  11.494   7.262   6.972  1.2663 -0.4682  1.6178
  886MOL0     H19585  11.650   7.334   6.997 -2.1540  1.5160 -1.7949
  886MOL0     H19586  11.567   7.033   7.012  0.3125 -0.3584  1.5387
  886MOL0     H19587  11.729   7.087   6.978  0.2433 -1.0608  1.8612
  886MOL0     H19588  11.582   7.226   7.210 -0.1342 -1.0468  1.1889
  886MOL0     H19589  11.758   7.225   7.168  2.1562 -3.1671 -1.0039
  886MOL0     H19590  11.761   6.978   7.228 -0.0468 -0.5467  1.5421
  886MOL0     H19591  11.586   7.002   7.270 -0.2097 -0.1126  2.2678
  886MOL0     H19592  11.501   7.618   6.392 -1.2783  1.6083 -0.3232
  886MOL0     H19593  11.389   7.747   6.224  0.0416 -0.8866  3.8894
  886MOL0     H19594  11.506   7.890   5.796 -0.5097 -0.4521  0.1480
  886MOL0     H19595  11.490   8.069   5.644 -0.2255 -0.6766 -1.5301
  886MOL0     H19596   9.792   8.459   4.899 -0.8886 -0.6766 -0.1028
  886MOL0     H19597   9.572   8.365   4.780 -0.6114  3.6055  0.4883
  886MOL0     H19598   9.427   8.223   4.350  0.0281 -0.7720  2.9693
  886MOL0     H19599   9.246   8.167   4.194  0.1224 -2.4626  2.5824
  886MOL0     H19600   8.874   8.356   4.042  0.8529  0.1767  0.7184
  886MOL0     H19601   9.009   8.465   4.077 -1.1203  0.3248  3.5611
  886MOL0     H19602   9.081   8.219   3.925 -1.5677 -0.2593  3.6000
  886MOL0     H19603   9.156   8.387   3.945 -0.6829  1.8732 -0.3503
  886MOL0     H19604   9.073   8.426   3.717 -2.1475  1.1332 -1.3654
  886MOL0     H19605   8.938   8.455   3.819  0.4846  0.3105  0.0541
  886MOL0     H19606   8.858   8.299   3.657 -4.0118 -2.1999  4.1222
  886MOL0     H19607   8.878   8.192   3.790 -1.9615  0.0388 -0.8801
  886MOL0     H19608   9.125   7.997   3.547 -3.5383 -1.8773 -0.7883
  886MOL0     H19609   9.008   8.482   4.341  1.4375  0.4868  0.9305
  886MOL0     H19610   9.210   8.575   4.455  2.7288 -0.7284  2.4120
  887MOL0     O19611   4.868   0.391   5.380 -0.3282 -0.1651 -0.2837
  887MOL0     C19612   4.990   0.427   5.397  0.1238 -0.5236  0.7921
  887MOL0     O19613   5.032   0.553   5.363 -0.3376 -0.0673  0.1349
  887MOL0     C19614   4.945   0.624   5.288  0.1611 -0.7344  0.3620
  887MOL0     C19615   4.818   0.674   5.333 -0.5375  1.2670  0.1020
  887MOL0     C19616   4.735   0.742   5.247 -0.1050 -0.2378  0.3196
  887MOL0     C19617   4.775   0.779   5.119  0.5472 -0.0377 -0.5712
  887MOL0     O19618   4.694   0.857   5.039  0.0769  1.4247 -0.0873
  887MOL0     C19619   4.683   0.836   4.896  0.0746 -0.4551  0.5822
  887MOL0     C19620   4.554   0.874   4.852 -0.0805 -0.4374 -0.4598
  887MOL0     C19621   4.541   1.032   4.821 -0.9926 -0.7910 -0.2283
  887MOL0     C19622   4.492   1.057   4.685 -0.4377  0.0103 -1.0383
  887MOL0     C19623   4.492   1.211   4.663  0.2495 -1.1232  0.3070
  887MOL0     C19624   4.629   1.275   4.637  0.4996  0.0370 -0.1239
  887MOL0     C19625   4.610   1.415   4.566 -0.0696  0.1559  0.4298
  887MOL0     C19626   4.625   1.403   4.411  0.1691  0.0321  0.4900
  887MOL0     N19627   4.761   1.420   4.366  0.1418  0.3017  0.0812
  887MOL0     C19628   4.845   1.313   4.360 -0.4747 -0.3402  0.4594
  887MOL0     C19629   4.967   1.369   4.320  0.5988  0.0994  0.5291
  887MOL0     C19630   5.102   1.307   4.329 -1.1854  0.5236 -0.2592
  887MOL0     C19631   5.207   1.354   4.430  0.5020  0.3555  0.3954
  887MOL0     C19632   5.167   1.337   4.582  0.6720 -0.5381 -0.4527
  887MOL0     C19633   5.286   1.390   4.671  0.3253  1.0753 -0.2617
  887MOL0     O19634   5.357   1.504   4.613 -0.2370 -0.2583 -0.0056
  887MOL0     C19635   5.478   1.514   4.657 -0.3012 -0.4865 -0.8156
  887MOL0     C19636   5.592   1.507   4.570  0.4515  0.8364 -0.4280
  887MOL0     C19637   5.716   1.551   4.604  0.1454 -0.4388 -0.5253
  887MOL0     C19638   5.824   1.562   4.501  0.2362  0.2078  0.7927
  887MOL0     C19639   5.739   1.600   4.741 -0.6375 -0.3422 -0.6364
  887MOL0     C19640   5.859   1.663   4.791  0.4667 -0.3588 -0.4358
  887MOL0     O19641   5.900   1.619   4.905 -0.1556 -0.2581 -0.9017
  887MOL0     C19642   5.984   1.688   4.988  0.7575 -0.6036 -0.6970
  887MOL0     C19643   5.931   1.750   5.107 -0.0541  0.0721  0.8001
  887MOL0     C19644   6.011   1.809   5.197 -1.0620 -0.0268 -0.2332
  887MOL0     C19645   6.145   1.835   5.174  0.0163  1.1658 -0.4048
  887MOL0     O19646   6.226   1.894   5.259 -0.3230 -0.0035  0.8087
  887MOL0     C19647   6.217   2.040   5.230 -0.5327  0.1958 -0.2422
  887MOL0     C19648   6.267   2.118   5.353 -0.3625  0.7068 -0.6725
  887MOL0     C19649   6.196   2.099   5.484 -0.5826 -0.5474  0.1090
  887MOL0     C19650   6.099   2.221   5.510 -0.5357 -0.2040  0.2356
  887MOL0     C19651   6.025   2.206   5.647 -0.0883  0.5741  0.5612
  887MOL0     C19652   5.916   2.299   5.662 -0.0956  0.4893  0.0648
  887MOL0     C19653   5.833   2.278   5.791  0.3209 -0.4932 -0.1014
  887MOL0     C19654   5.900   2.301   5.928  0.1337  0.2405  0.0078
  887MOL0    Cl19655   5.868   2.162   6.028 -0.0162 -0.0009  0.1244
  887MOL0     C19656   6.203   1.774   5.059  0.1664 -0.0160 -0.4542
  887MOL0     C19657   6.123   1.692   4.978  0.1877  0.1239  0.7951
  887MOL0     O19658   5.905   1.759   4.732  0.3527 -0.3450  0.0423
  887MOL0     C19659   5.622   1.598   4.826 -0.1570 -0.0047  0.0111
  887MOL0     C19660   5.490   1.565   4.783 -1.1976  0.3568  0.2239
  887MOL0     N19661   4.943   1.499   4.296 -0.3991 -0.0627  0.0039
  887MOL0     N19662   4.827   1.535   4.329 -0.2571  0.3251 -0.3725
  887MOL0     C19663   4.897   0.736   5.076 -0.3485  0.0435 -0.0542
  887MOL0     C19664   4.980   0.656   5.156 -0.5028 -0.1413  0.2859
  887MOL0     C19665   5.084   0.329   5.447 -0.5902  0.7257  0.4346
  887MOL0     C19666   5.056   0.195   5.451  0.6392  0.8946 -0.8051
  887MOL0     C19667   5.160   0.099   5.476  0.9980  0.5010  0.4770
  887MOL0     C19668   5.291   0.139   5.514  0.5033  0.6310 -0.0284
  887MOL0     O19669   5.387   0.050   5.565  0.4046 -0.0838 -0.6608
  887MOL0     C19670   5.526   0.066   5.519 -0.1629  0.6876  0.2406
  887MOL0     C19671   5.557   0.044   5.371 -0.1254  0.8692  0.3345
  887MOL0     C19672   5.707   0.018   5.326  1.0704 -0.8664  0.7654
  887MOL0     C19673   5.812   0.081   5.417  0.2840  0.6813  0.0471
  887MOL0     C19674   5.796   0.221   5.454  0.0070  0.8063  0.1512
  887MOL0     C19675   5.810   0.335   5.480 -0.7565 -0.7599 -0.6162
  887MOL0     C19676   5.317   0.273   5.513  0.3423 -0.3049 -0.1231
  887MOL0     C19677   5.224   0.366   5.474 -0.1750  0.3758 -0.4285
  887MOL0     H19678   4.789   0.648   5.435 -0.2912 -3.5388 -0.8033
  887MOL0     H19679   4.636   0.781   5.269  0.4440  2.3231 -1.2865
  887MOL0     H19680   4.762   0.885   4.838 -2.0138  2.0108 -0.4014
  887MOL0     H19681   4.686   0.730   4.870  2.4363  0.2463 -2.6711
  887MOL0     H19682   4.523   0.833   4.756 -1.0865  1.0623 -0.8203
  887MOL0     H19683   4.480   0.836   4.923  1.2340 -2.1479  0.0464
  887MOL0     H19684   4.478   1.086   4.892 -0.6508  0.0632 -0.5711
  887MOL0     H19685   4.634   1.082   4.848 -1.2080  0.2001 -1.2685
  887MOL0     H19686   4.552   1.017   4.603 -4.1932 -1.7297 -3.1932
  887MOL0     H19687   4.388   1.023   4.680 -1.7032  3.2677  0.0442
  887MOL0     H19688   4.434   1.226   4.571  2.3281  0.6802 -0.8056
  887MOL0     H19689   4.439   1.263   4.744  0.1843 -3.4535  1.8306
  887MOL0     H19690   4.673   1.288   4.736  0.2828 -0.4370  0.0314
  887MOL0     H19691   4.691   1.210   4.575  1.6336 -1.0784  2.0787
  887MOL0     H19692   4.512   1.456   4.593 -0.6858 -1.0598  0.1043
  887MOL0     H19693   4.680   1.493   4.595 -2.0205  1.7044  1.1836
  887MOL0     H19694   4.566   1.486   4.371 -1.4020 -0.6122  1.3852
  887MOL0     H19695   4.588   1.311   4.365  0.3015 -0.1122  0.6719
  887MOL0     H19696   4.818   1.209   4.377 -3.2152  0.2800  0.4030
  887MOL0     H19697   5.102   1.200   4.347  2.6303  0.0738 -1.9210
  887MOL0     H19698   5.147   1.314   4.230  0.3416 -0.1751  0.3599
  887MOL0     H19699   5.224   1.460   4.410  3.6812 -0.1273  0.0355
  887MOL0     H19700   5.297   1.294   4.414  2.2292  2.5145  1.6788
  887MOL0     H19701   5.147   1.235   4.615  2.0182  0.3752  3.9933
  887MOL0     H19702   5.080   1.399   4.606  0.5481 -0.3180 -1.4300
  887MOL0     H19703   5.355   1.306   4.683 -0.4297  0.5393  0.4914
  887MOL0     H19704   5.259   1.422   4.772  1.8703  1.2097  0.1367
  887MOL0     H19705   5.574   1.473   4.468 -0.2573  0.7824 -0.2901
  887MOL0     H19706   5.907   1.505   4.545  0.3612  0.0098  0.3126
  887MOL0     H19707   5.795   1.525   4.402  0.4632  0.8045  0.4929
  887MOL0     H19708   5.844   1.669   4.489 -1.9512  0.7396  1.5241
  887MOL0     H19709   5.825   1.745   5.129 -1.0612  3.1889 -2.3445
  887MOL0     H19710   5.964   1.843   5.289  3.2922 -2.5219  3.2972
  887MOL0     H19711   6.268   2.059   5.135  2.2726 -1.9650  0.7104
  887MOL0     H19712   6.113   2.076   5.224 -0.5547  0.2320  0.3340
  887MOL0     H19713   6.373   2.091   5.358 -0.0670  1.9452  0.1041
  887MOL0     H19714   6.269   2.225   5.328 -1.8890  0.5802 -1.4519
  887MOL0     H19715   6.278   2.098   5.556 -1.4158 -3.9833  1.1840
  887MOL0     H19716   6.145   2.002   5.479  1.1608 -1.4408 -2.0596
  887MOL0     H19717   6.162   2.306   5.541  0.6515 -0.8806 -0.2342
  887MOL0     H19718   6.031   2.240   5.427 -1.1863 -0.5564  0.6900
  887MOL0     H19719   6.094   2.225   5.729  0.4717  0.0662  0.2149
  887MOL0     H19720   5.973   2.109   5.652  1.4401 -0.2649  0.6648
  887MOL0     H19721   5.963   2.398   5.667  0.2046  0.3220  0.6137
  887MOL0     H19722   5.860   2.279   5.570  2.1456 -2.1650 -0.8435
  887MOL0     H19723   5.791   2.178   5.780  0.6826 -0.6015 -0.5387
  887MOL0     H19724   5.752   2.351   5.786 -1.5746 -2.5323 -0.8951
  887MOL0     H19725   5.867   2.388   5.986  4.1554  1.0475  1.3612
  887MOL0     H19726   6.007   2.323   5.926 -0.0708  1.2595 -0.1431
  887MOL0     H19727   6.310   1.769   5.045  0.1065 -3.1309 -0.5493
  887MOL0     H19728   6.166   1.647   4.889 -1.6411 -0.7320  0.2729
  887MOL0     H19729   5.629   1.645   4.924 -1.0417  0.6647 -0.2275
  887MOL0     H19730   5.405   1.579   4.848 -0.2886 -0.3676  1.6278
  887MOL0     H19731   4.936   0.753   4.976 -0.1496 -2.7355 -0.5332
  887MOL0     H19732   5.075   0.635   5.107  0.4627  3.2760  0.4386
  887MOL0     H19733   4.954   0.166   5.427  0.3155  1.1494  0.2360
  887MOL0     H19734   5.138  -0.008   5.477  1.1944  0.4643  1.0693
  887MOL0     H19735   5.571   0.154   5.567  1.4805  0.7911 -1.3460
  887MOL0     H19736   5.586  -0.016   5.561 -0.5278 -1.3321 -2.8873
  887MOL0     H19737   5.518   0.115   5.299 -0.7578 -0.5622 -0.7819
  887MOL0     H19738   5.497  -0.046   5.353  0.7599  0.5337 -1.0841
  887MOL0     H19739   5.721   0.063   5.228 -0.1630  3.5278  2.3698
  887MOL0     H19740   5.735  -0.087   5.314 -1.8976 -1.4064 -3.5329
  887MOL0     H19741   5.908   0.077   5.364  0.4982 -1.6552  0.5026
  887MOL0     H19742   5.817   0.020   5.508  0.9758  0.3747 -0.1920
  887MOL0     H19743   5.837   0.436   5.505  1.7100 -1.2168 -1.2005
  887MOL0     H19744   5.407   0.329   5.534  0.5513  1.0212 -3.7712
  887MOL0     H19745   5.262   0.467   5.468  0.6181  0.0070 -2.4037
  888MOL0     O19746  10.435   5.952   9.536  0.3276  0.9227  0.1733
  888MOL0     C19747  10.440   5.903   9.418 -0.5757 -0.1426 -1.2107
  888MOL0     O19748  10.539   5.932   9.325 -0.3851 -0.3356  0.2557
  888MOL0     C19749  10.633   6.022   9.345  0.1346  1.2245  0.2298
  888MOL0     C19750  10.727   6.006   9.448  0.4749  0.3350  0.2183
  888MOL0     C19751  10.817   6.109   9.471  0.7319 -0.4958  0.0233
  888MOL0     C19752  10.827   6.217   9.381 -0.1593 -0.2584 -0.2503
  888MOL0     O19753  10.912   6.317   9.417  0.5022 -0.1457  0.2793
  888MOL0     C19754  10.883   6.457   9.389 -0.0039 -0.1844  0.4359
  888MOL0     C19755  10.996   6.535   9.317 -0.1378 -0.5502 -0.1188
  888MOL0     C19756  11.018   6.489   9.175 -0.7162 -0.0184  0.3962
  888MOL0     C19757  10.947   6.579   9.081  0.0476  0.3045 -0.3529
  888MOL0     C19758  10.946   6.523   8.936  0.2534 -0.5304 -0.0310
  888MOL0     C19759  11.073   6.557   8.847  0.4151 -0.8447 -0.0546
  888MOL0     C19760  11.060   6.493   8.708 -0.3066 -0.1456 -0.8432
  888MOL0     C19761  11.189   6.499   8.643 -0.1714 -0.1018 -0.6194
  888MOL0     N19762  11.201   6.424   8.517  0.7746  0.0952  0.2698
  888MOL0     C19763  11.136   6.458   8.402  0.4595  0.0014  0.3153
  888MOL0     C19764  11.177   6.368   8.310  0.8699 -0.6888  0.3491
  888MOL0     C19765  11.112   6.354   8.185  1.2005  0.7635  0.6323
  888MOL0     C19766  10.956   6.336   8.194  0.0271 -0.5533  0.7825
  888MOL0     C19767  10.917   6.211   8.264 -0.5476  0.1373  0.6167
  888MOL0     C19768  10.764   6.196   8.258 -0.2959  0.3948 -0.1151
  888MOL0     O19769  10.699   6.326   8.270 -0.0504  0.0707  0.5591
  888MOL0     C19770  10.555   6.329   8.265 -0.0704  0.6891  0.4333
  888MOL0     C19771  10.504   6.456   8.282 -0.8523  0.0357 -0.3179
  888MOL0     C19772  10.365   6.476   8.277  0.5384 -0.1463  0.0966
  888MOL0     C19773  10.327   6.627   8.269  0.1996  0.8391  0.1287
  888MOL0     C19774  10.276   6.362   8.275 -0.8830  0.6939  0.8898
  888MOL0     C19775  10.129   6.375   8.275 -1.0393  0.2317 -0.2212
  888MOL0     O19776  10.057   6.258   8.296 -0.0336  0.0580  0.2156
  888MOL0     C19777   9.921   6.232   8.261 -0.4145 -0.0223  0.3925
  888MOL0     C19778   9.888   6.102   8.282  0.2261  0.2429  0.6834
  888MOL0     C19779   9.760   6.062   8.241  0.3633 -0.6215 -0.1248
  888MOL0     C19780   9.658   6.146   8.183  0.6584  0.1593  0.2701
  888MOL0     O19781   9.546   6.088   8.131  0.3868  0.4087 -0.4640
  888MOL0     C19782   9.471   6.015   8.227 -1.3205 -0.5036  0.1587
  888MOL0     C19783   9.334   5.985   8.175  0.2368  0.7363 -0.1669
  888MOL0     C19784   9.248   5.927   8.293 -0.1976  0.4041  0.0099
  888MOL0     C19785   9.284   5.793   8.339  0.0689 -0.0785 -0.9815
  888MOL0     C19786   9.186   5.738   8.445 -0.6621 -0.2202  0.6580
  888MOL0     C19787   9.048   5.697   8.382  0.1612  1.0255 -0.9105
  888MOL0     C19788   8.952   5.616   8.480 -0.3942  0.6543  0.0057
  888MOL0     C19789   8.926   5.687   8.619  0.1058 -1.2046  0.5883
  888MOL0    Cl19790   8.852   5.583   8.735 -0.1642  0.0756 -0.1467
  888MOL0     C19791   9.693   6.291   8.171  0.0456 -0.3557  0.3352
  888MOL0     C19792   9.827   6.327   8.202 -0.0514 -0.8486  0.3431
  888MOL0     O19793  10.076   6.487   8.264 -0.3048  0.0234  0.3982
  888MOL0     C19794  10.337   6.230   8.259 -1.1487 -1.2798 -1.1416
  888MOL0     C19795  10.471   6.218   8.256 -0.3616  0.2042 -0.4722
  888MOL0     N19796  11.275   6.296   8.371 -0.3440  1.6472 -0.2869
  888MOL0     N19797  11.283   6.317   8.493 -0.3056  0.0790 -0.4218
  888MOL0     C19798  10.739   6.224   9.272 -0.9017  0.7697 -0.3166
  888MOL0     C19799  10.634   6.130   9.254 -0.4075  0.7767 -0.1655
  888MOL0     C19800  10.315   5.821   9.371  0.9149 -0.6529 -0.4312
  888MOL0     C19801  10.204   5.811   9.454  0.6347  0.4639  0.1256
  888MOL0     C19802  10.093   5.748   9.396  0.2607  0.4236  0.1779
  888MOL0     C19803  10.084   5.690   9.277 -0.5070  0.5566  0.9665
  888MOL0     O19804   9.971   5.621   9.226  0.3224 -0.5109 -0.4284
  888MOL0     C19805   9.879   5.573   9.328  0.6121  0.3343 -0.1872
  888MOL0     C19806   9.763   5.668   9.345 -0.5796  0.3718 -0.2173
  888MOL0     C19807   9.681   5.687   9.212 -0.7457 -0.5859  0.4011
  888MOL0     C19808   9.675   5.556   9.133  0.6697  0.4436  0.6178
  888MOL0     C19809   9.590   5.581   9.015 -0.5534  0.5386  0.2549
  888MOL0     C19810   9.502   5.610   8.927 -1.0708  0.2564  0.2182
  888MOL0     C19811  10.195   5.695   9.199  0.2164 -0.6197 -0.5343
  888MOL0     C19812  10.312   5.756   9.244  0.6932  0.4626 -0.4337
  888MOL0     H19813  10.712   5.918   9.510 -1.6352 -1.5031 -2.6178
  888MOL0     H19814  10.858   6.116   9.571 -1.4844 -0.6027  1.0046
  888MOL0     H19815  10.792   6.461   9.329 -1.2844 -0.8111  2.2530
  888MOL0     H19816  10.873   6.514   9.483 -1.2300  0.1490  0.1154
  888MOL0     H19817  10.975   6.642   9.315  6.3478  1.1553 -2.5979
  888MOL0     H19818  11.092   6.525   9.369  1.1199 -1.6062 -2.5329
  888MOL0     H19819  11.125   6.488   9.157 -0.8128 -2.0569 -0.4114
  888MOL0     H19820  10.979   6.387   9.162 -0.8161  0.2415 -1.6415
  888MOL0     H19821  10.844   6.584   9.118  0.4124 -0.3186  0.8197
  888MOL0     H19822  10.988   6.680   9.077 -1.1718  0.9979  2.4149
  888MOL0     H19823  10.935   6.414   8.932 -0.4721 -0.4868  0.6172
  888MOL0     H19824  10.867   6.573   8.879  1.2059  0.3812 -0.5999
  888MOL0     H19825  11.085   6.666   8.850 -1.2570 -0.6644  1.1062
  888MOL0     H19826  11.155   6.520   8.908  0.0298 -1.0949  0.3118
  888MOL0     H19827  11.004   6.400   8.706 -0.1206 -0.2524 -1.6773
  888MOL0     H19828  10.996   6.565   8.656 -2.1030  2.6259  4.4981
  888MOL0     H19829  11.275   6.487   8.710  0.3386  0.6483 -1.1165
  888MOL0     H19830  11.205   6.603   8.613  1.7819  0.9122  3.1846
  888MOL0     H19831  11.056   6.532   8.399 -0.7383 -1.2097  1.3404
  888MOL0     H19832  11.133   6.434   8.113  1.1246 -0.7613 -1.1331
  888MOL0     H19833  11.147   6.264   8.136  0.4620  1.5455 -1.4442
  888MOL0     H19834  10.925   6.325   8.090 -1.4235  0.4811  1.0820
  888MOL0     H19835  10.910   6.428   8.231  2.1308  2.1596 -2.7381
  888MOL0     H19836  10.961   6.212   8.364  0.0856 -0.1321  0.3446
  888MOL0     H19837  10.957   6.122   8.215 -3.8549 -0.6716 -0.9284
  888MOL0     H19838  10.732   6.147   8.350 -0.3731  1.9147  0.7060
  888MOL0     H19839  10.733   6.150   8.164  0.6109  1.9069 -1.1952
  888MOL0     H19840  10.573   6.536   8.306 -2.1282  1.0542  0.0720
  888MOL0     H19841  10.414   6.692   8.256  0.3272  0.9744  1.5310
  888MOL0     H19842  10.258   6.655   8.188  1.7791  1.3726 -1.0773
  888MOL0     H19843  10.282   6.655   8.365  0.0139 -1.4984  0.7931
  888MOL0     H19844   9.963   6.049   8.339  1.8881  2.0456  0.2944
  888MOL0     H19845   9.746   5.954   8.245  1.6501 -0.8078 -0.2414
  888MOL0     H19846   9.523   5.922   8.249  0.5590  0.0526 -1.6521
  888MOL0     H19847   9.459   6.083   8.312 -4.5694 -1.7940  0.8805
  888MOL0     H19848   9.284   6.076   8.141 -1.2081  0.3717  0.9108
  888MOL0     H19849   9.350   5.920   8.088 -1.7458 -1.0140  0.6863
  888MOL0     H19850   9.142   5.925   8.263 -0.4718 -1.6799  0.9745
  888MOL0     H19851   9.253   5.984   8.386  0.9681 -2.6010  1.8967
  888MOL0     H19852   9.299   5.713   8.266 -0.4796 -0.9003 -0.2295
  888MOL0     H19853   9.381   5.797   8.389 -0.8283  1.5384  0.7530
  888MOL0     H19854   9.171   5.815   8.522  0.2422  2.4621 -1.6666
  888MOL0     H19855   9.236   5.649   8.485 -0.3363 -1.2580 -1.8721
  888MOL0     H19856   8.993   5.790   8.365  2.1381  3.0226  2.4564
  888MOL0     H19857   9.053   5.639   8.289  3.4528 -0.8248  0.2540
  888MOL0     H19858   8.996   5.519   8.506 -4.3568 -1.0064  1.2884
  888MOL0     H19859   8.849   5.601   8.447 -0.8915  1.9253  0.9018
  888MOL0     H19860   8.864   5.776   8.601  1.4478 -0.0516  1.4121
  888MOL0     H19861   9.014   5.732   8.665  0.1135 -1.6128  0.9847
  888MOL0     H19862   9.622   6.357   8.122  1.7920 -0.1099 -2.0168
  888MOL0     H19863   9.851   6.428   8.172  0.4857 -0.4933  1.8866
  888MOL0     H19864  10.277   6.140   8.258  1.0326 -2.8647 -3.9526
  888MOL0     H19865  10.515   6.122   8.232  2.5068  1.0470  0.9729
  888MOL0     H19866  10.728   6.307   9.203 -2.4935  0.5726 -0.3356
  888MOL0     H19867  10.562   6.130   9.173  0.2792  1.9111 -0.7945
  888MOL0     H19868  10.207   5.852   9.555  0.2945  1.2186 -0.1702
  888MOL0     H19869  10.016   5.751   9.473 -0.2313 -1.0780 -0.2200
  888MOL0     H19870   9.845   5.470   9.315 -1.5458  0.7531  1.6169
  888MOL0     H19871   9.930   5.555   9.423  1.1689  1.1694 -0.3188
  888MOL0     H19872   9.808   5.757   9.390  1.3577 -1.8190  2.5332
  888MOL0     H19873   9.693   5.642   9.424 -0.0914 -1.3280 -0.3031
  888MOL0     H19874   9.742   5.754   9.151 -0.0515 -2.5993 -1.2030
  888MOL0     H19875   9.584   5.732   9.236 -0.9324  0.4126 -2.0020
  888MOL0     H19876   9.641   5.485   9.210  2.3269 -1.0239  0.0596
  888MOL0     H19877   9.769   5.527   9.084 -1.0804  0.0917 -2.8492
  888MOL0     H19878   9.433   5.645   8.852  0.2882  3.0971  0.1646
  888MOL0     H19879  10.194   5.649   9.100  0.1985 -0.4668 -0.6055
  888MOL0     H19880  10.402   5.740   9.186  2.2677  0.9479  1.7266
  889MOL0     O19881   1.529   7.239  10.341 -0.2248  0.0397  0.4132
  889MOL0     C19882   1.521   7.115  10.307  0.4945 -0.3158 -0.1496
  889MOL0     O19883   1.545   7.012  10.391 -0.0221 -0.2323 -0.1534
  889MOL0     C19884   1.584   7.027  10.525 -0.2909 -0.4600 -0.0154
  889MOL0     C19885   1.705   6.989  10.566  0.8086 -0.5980 -0.4461
  889MOL0     C19886   1.742   7.008  10.697  0.0550  0.8130 -0.4872
  889MOL0     C19887   1.663   7.063  10.790  1.2139 -0.1863 -0.0253
  889MOL0     O19888   1.695   7.094  10.922 -0.2809 -0.2228  0.9301
  889MOL0     C19889   1.811   7.029  10.981 -0.3966 -0.0018  0.1228
  889MOL0     C19890   1.809   7.100  11.114 -0.3269  0.1394 -0.5449
  889MOL0     C19891   1.856   7.247  11.111  0.5022 -0.7834  0.1299
  889MOL0     C19892   1.861   7.331  11.240  0.1090  0.7661 -0.5624
  889MOL0     C19893   1.884   7.478  11.224 -0.1866  0.8357 -0.7239
  889MOL0     C19894   1.998   7.511  11.119 -0.1044 -0.0051 -0.6864
  889MOL0     C19895   2.003   7.663  11.088  0.0111  0.1216  0.2991
  889MOL0     C19896   2.045   7.752  11.207 -0.0869  0.5678  0.7976
  889MOL0     N19897   2.174   7.721  11.231 -0.8868  0.4112 -0.1308
  889MOL0     C19898   2.286   7.773  11.181 -0.8889  0.1409  0.2537
  889MOL0     C19899   2.388   7.700  11.245  0.5801  0.5091 -0.4180
  889MOL0     C19900   2.533   7.730  11.221 -1.0212  0.2817 -0.7807
  889MOL0     C19901   2.615   7.645  11.130  0.3262 -0.6919 -0.4000
  889MOL0     C19902   2.597   7.490  11.156  0.1793 -0.5301  0.1164
  889MOL0     C19903   2.654   7.449  11.290  0.1357 -0.1762  0.1083
  889MOL0     O19904   2.786   7.502  11.286 -0.3822  0.6214  0.2077
  889MOL0     C19905   2.843   7.524  11.405  0.6960  0.2883 -0.4667
  889MOL0     C19906   2.970   7.470  11.424  0.3865 -0.7937 -0.0471
  889MOL0     C19907   3.044   7.492  11.540 -0.4111 -0.1189  0.5958
  889MOL0     C19908   3.194   7.454  11.530 -0.1234 -0.6560 -0.1313
  889MOL0     C19909   2.990   7.564  11.649 -0.5998  0.5660 -0.0634
  889MOL0     C19910   3.065   7.584  11.770  0.9786 -0.7723 -0.2868
  889MOL0     O19911   3.173   7.670  11.767  0.4619  0.5534 -0.3386
  889MOL0     C19912   3.234   7.701  11.884  0.1062  0.5041  0.3439
  889MOL0     C19913   3.188   7.805  11.960  0.3631  0.7535  0.1062
  889MOL0     C19914   3.260   7.850  12.073 -0.2831  0.9093 -0.0805
  889MOL0     C19915   3.378   7.784  12.109 -0.6037 -0.4957 -0.6454
  889MOL0     O19916   3.439   7.824  12.224 -0.5393 -0.6344  0.8048
  889MOL0     C19917   3.586   7.837  12.217  0.1566 -1.1193  0.3196
  889MOL0     C19918   3.609   7.976  12.165 -0.0767 -0.4350 -0.0488
  889MOL0     C19919   3.752   8.021  12.211  1.1570  0.4611  0.6803
  889MOL0     C19920   3.772   8.049  12.359 -0.3362 -0.2688 -0.5511
  889MOL0     C19921   3.878   8.161  12.388  0.5455 -0.3610  0.2660
  889MOL0     C19922   3.823   8.301  12.387  1.0060 -0.3754  0.2709
  889MOL0     C19923   3.934   8.399  12.432  0.4778  0.5597 -0.2064
  889MOL0     C19924   3.886   8.548  12.456  0.2211  1.1442  0.3999
  889MOL0    Cl19925   3.730   8.560  12.547 -0.3823 -0.5649 -0.1228
  889MOL0     C19926   3.422   7.674  12.038 -0.8261  1.4098  0.9003
  889MOL0     C19927   3.346   7.631  11.925 -0.3928  0.6447  0.8055
  889MOL0     O19928   3.020   7.535  11.869  0.1882  0.3434  0.1229
  889MOL0     C19929   2.859   7.615  11.635 -0.9666  0.3675 -0.4964
  889MOL0     C19930   2.785   7.604  11.511 -0.5535  0.0407  0.1354
  889MOL0     N19931   2.335   7.610  11.337  0.0554 -0.2367  0.1810
  889MOL0     N19932   2.205   7.617  11.316 -0.5281 -0.4400  0.2925
  889MOL0     C19933   1.543   7.119  10.747 -0.2556  0.0623  0.8218
  889MOL0     C19934   1.505   7.098  10.615  1.3052  0.3259  0.0160
  889MOL0     C19935   1.498   7.076  10.162  0.5331 -1.1630  0.6609
  889MOL0     C19936   1.484   7.172  10.068 -0.3473 -0.0368 -0.2204
  889MOL0     C19937   1.474   7.139   9.927 -0.1586 -0.2361 -0.9623
  889MOL0     C19938   1.454   7.002   9.900  0.7702  0.4810 -0.3478
  889MOL0     O19939   1.408   6.954   9.779  0.1169  0.0843  0.4706
  889MOL0     C19940   1.469   6.998   9.648  0.6979  0.6655 -0.6722
  889MOL0     C19941   1.518   6.872   9.581 -0.4651  0.4860 -0.5931
  889MOL0     C19942   1.420   6.772   9.544 -0.3056  0.2353 -0.2865
  889MOL0     C19943   1.467   6.655   9.455  0.9073 -0.5619  0.0621
  889MOL0     C19944   1.581   6.582   9.496 -0.0731 -0.3766 -0.5426
  889MOL0     C19945   1.681   6.532   9.550  0.3633  0.6289 -0.1195
  889MOL0     C19946   1.481   6.903  10.005 -0.4382 -0.7584 -0.3873
  889MOL0     C19947   1.500   6.944  10.132  0.3277 -0.6234  0.3061
  889MOL0     H19948   1.778   6.950  10.496  2.3044  1.5815 -0.2063
  889MOL0     H19949   1.844   6.990  10.729 -0.9610 -1.3110  1.9041
  889MOL0     H19950   1.800   6.923  11.006 -2.0196  0.9430  4.2494
  889MOL0     H19951   1.907   7.048  10.931 -0.6156 -0.1251 -0.3462
  889MOL0     H19952   1.712   7.100  11.164  1.1100 -1.7702  2.5901
  889MOL0     H19953   1.872   7.038  11.178  0.2456  1.7659  0.5425
  889MOL0     H19954   1.958   7.249  11.071  0.6349 -2.4135  0.3418
  889MOL0     H19955   1.797   7.301  11.037  0.3259 -1.6061 -0.3464
  889MOL0     H19956   1.776   7.316  11.307  1.4260 -1.1193  0.7663
  889MOL0     H19957   1.946   7.292  11.296  1.6532  2.0247 -1.9280
  889MOL0     H19958   1.787   7.520  11.196 -1.8280 -1.7534  0.6638
  889MOL0     H19959   1.922   7.529  11.313  1.0327  0.5664 -1.0715
  889MOL0     H19960   2.095   7.476  11.155 -1.0247 -0.1256  1.9506
  889MOL0     H19961   1.968   7.468  11.023 -0.8755  0.6193 -0.7331
  889MOL0     H19962   2.080   7.668  11.010 -1.0099 -4.3379 -1.2839
  889MOL0     H19963   1.914   7.703  11.039  1.2434  1.1054 -1.2328
  889MOL0     H19964   1.977   7.734  11.291 -0.9327 -3.2952 -0.5084
  889MOL0     H19965   2.040   7.858  11.180  2.2625  0.5343 -0.0329
  889MOL0     H19966   2.301   7.834  11.092 -1.0458  2.1978  1.5591
  889MOL0     H19967   2.549   7.827  11.173 -3.4085  0.3533 -1.5508
  889MOL0     H19968   2.575   7.723  11.322 -2.2493 -0.3769 -0.3011
  889MOL0     H19969   2.719   7.678  11.127  0.9144 -1.6918  3.3372
  889MOL0     H19970   2.583   7.663  11.027  1.0566  0.5122 -0.4352
  889MOL0     H19971   2.646   7.431  11.078  1.2885 -0.8701  1.0423
  889MOL0     H19972   2.494   7.464  11.133  0.3737 -0.3009 -1.0951
  889MOL0     H19973   2.660   7.340  11.300 -0.0593 -0.0231  2.2429
  889MOL0     H19974   2.595   7.488  11.373 -2.3385 -2.8221 -0.2449
  889MOL0     H19975   2.998   7.415  11.335 -1.7628  1.2334 -2.1430
  889MOL0     H19976   3.258   7.474  11.616  0.6033  0.0475 -0.8211
  889MOL0     H19977   3.215   7.348  11.512  1.1637 -0.4872  0.3053
  889MOL0     H19978   3.231   7.526  11.457 -1.2132 -0.6143 -0.6731
  889MOL0     H19979   3.092   7.853  11.943 -0.7732 -1.2842  0.4565
  889MOL0     H19980   3.217   7.929  12.134  2.9529  3.3634 -0.7422
  889MOL0     H19981   3.621   7.850  12.320  0.3651 -0.0956  0.1266
  889MOL0     H19982   3.656   7.765  12.172  2.5166  2.8633 -3.1816
  889MOL0     H19983   3.594   7.979  12.057  0.0261 -2.0596 -0.1311
  889MOL0     H19984   3.545   8.054  12.208  3.0161  3.2149 -1.5135
  889MOL0     H19985   3.788   8.106  12.152  1.6340 -0.9761 -1.1789
  889MOL0     H19986   3.838   7.957  12.186 -0.1764 -0.6451 -1.3283
  889MOL0     H19987   3.675   8.071  12.406 -0.9346 -0.2353 -1.7589
  889MOL0     H19988   3.808   7.954  12.399  2.2213 -0.1647 -2.3776
  889MOL0     H19989   3.964   8.139  12.324  1.0226 -0.9046  1.0828
  889MOL0     H19990   3.908   8.140  12.491 -0.8648 -1.7481  0.4369
  889MOL0     H19991   3.784   8.320  12.287  0.0146  1.3601  0.9532
  889MOL0     H19992   3.731   8.299  12.445  1.2273 -1.5580  0.6059
  889MOL0     H19993   4.006   8.389  12.350 -3.7193  0.3629 -4.2916
  889MOL0     H19994   3.976   8.360  12.526  2.4843  2.6207 -0.1626
  889MOL0     H19995   3.869   8.594  12.359 -2.6001 -2.6589 -1.1520
  889MOL0     H19996   3.972   8.593  12.507  2.4651 -1.2566 -1.0556
  889MOL0     H19997   3.512   7.615  12.050 -0.5900 -0.4124 -5.9709
  889MOL0     H19998   3.379   7.553  11.858  0.6595  0.6183  1.3268
  889MOL0     H19999   2.821   7.673  11.719 -1.1538 -0.8680  0.2900
  889MOL0     H20000   2.690   7.651  11.486 -0.0032  1.4704  0.6115
  889MOL0     H20001   1.478   7.167  10.819 -0.3490  0.2112  0.6376
  889MOL0     H20002   1.418   7.148  10.572  0.5109 -0.1905  0.9860
  889MOL0     H20003   1.497   7.276  10.095  0.1212  0.5352 -2.4334
  889MOL0     H20004   1.453   7.222   9.861  0.3762  0.9670  0.3179
  889MOL0     H20005   1.392   7.040   9.582 -0.0958  0.1370 -0.0934
  889MOL0     H20006   1.556   7.062   9.668  0.7227  0.3582  0.2034
  889MOL0     H20007   1.594   6.818   9.638 -0.2250 -0.3303 -1.6390
  889MOL0     H20008   1.565   6.904   9.487  3.2647  4.1693  2.1142
  889MOL0     H20009   1.339   6.826   9.495 -0.6059  1.7995  1.7732
  889MOL0     H20010   1.374   6.732   9.636  4.3366 -0.1182  2.1715
  889MOL0     H20011   1.469   6.687   9.350  2.2936 -4.0186 -1.1196
  889MOL0     H20012   1.391   6.581   9.482  1.8199 -0.9921  1.5810
  889MOL0     H20013   1.767   6.501   9.606 -0.6887 -1.9446  0.2151
  889MOL0     H20014   1.476   6.795   9.999 -0.2923 -0.7529 -0.6307
  889MOL0     H20015   1.503   6.867  10.209 -1.5017  0.5472  1.6308
  890MOL0     O20016  10.136   9.021   8.586 -0.3920  0.1459 -1.1757
  890MOL0     C20017  10.172   8.904   8.608  0.2430 -0.8366  0.4471
  890MOL0     O20018  10.201   8.861   8.737 -0.5727  0.3283 -0.3173
  890MOL0     C20019  10.245   8.959   8.820 -0.0792 -0.3923 -0.2216
  890MOL0     C20020  10.162   9.019   8.915 -0.4730  0.7674  0.4307
  890MOL0     C20021  10.204   9.119   9.004  0.4528 -0.7507 -0.0189
  890MOL0     C20022  10.341   9.133   9.016  0.9065 -0.9401  0.1461
  890MOL0     O20023  10.386   9.220   9.112  0.4566  0.3090  0.0475
  890MOL0     C20024  10.504   9.188   9.180 -0.4468  0.9206  0.6823
  890MOL0     C20025  10.618   9.291   9.154 -0.5638  0.0055 -0.2738
  890MOL0     C20026  10.565   9.424   9.185  0.0502  0.1287 -0.5470
  890MOL0     C20027  10.685   9.525   9.147 -0.5411 -0.1918 -0.6453
  890MOL0     C20028  10.702   9.573   9.000  0.4036 -0.3732  0.6095
  890MOL0     C20029  10.806   9.676   8.979 -0.2233 -0.5073  0.2271
  890MOL0     C20030  10.798   9.746   8.842  0.2748 -0.6482  0.4079
  890MOL0     C20031  10.883   9.879   8.835 -0.4928  0.0083  0.4541
  890MOL0     N20032  11.015   9.880   8.895  0.2358 -0.7066 -0.3613
  890MOL0     C20033  11.130   9.812   8.856 -0.5016 -0.3081 -0.1737
  890MOL0     C20034  11.225   9.836   8.946 -0.5253 -0.6476  0.1704
  890MOL0     C20035  11.354   9.761   8.949 -0.0415  0.5861  0.0021
  890MOL0     C20036  11.488   9.827   8.937 -0.5074 -0.1508 -0.0556
  890MOL0     C20037  11.491   9.916   8.815 -0.0786  0.8381  0.0083
  890MOL0     C20038  11.468   9.838   8.680  0.1812 -0.8291  0.3300
  890MOL0     O20039  11.541   9.705   8.680 -1.1849 -0.1753  0.4029
  890MOL0     C20040  11.524   9.625   8.575  0.7819  0.2389 -0.1141
  890MOL0     C20041  11.609   9.513   8.556  0.2762 -0.8291  0.0883
  890MOL0     C20042  11.580   9.404   8.468  0.4747 -0.6602  0.5753
  890MOL0     C20043  11.680   9.291   8.468 -0.0943 -0.3539 -0.9530
  890MOL0     C20044  11.467   9.413   8.373 -0.6364  0.1635 -0.1187
  890MOL0     C20045  11.452   9.328   8.260  0.7143  0.2594 -0.1987
  890MOL0     O20046  11.327   9.293   8.238 -0.1822  0.2914 -0.2323
  890MOL0     C20047  11.288   9.269   8.110 -0.3325  1.4948  0.3973
  890MOL0     C20048  11.346   9.318   7.986  0.6584  0.1479  0.4083
  890MOL0     C20049  11.281   9.290   7.868  1.1894  0.4250  0.4873
  890MOL0     C20050  11.175   9.200   7.861  1.4144 -0.3614  1.0208
  890MOL0     O20051  11.135   9.170   7.732 -0.6763  1.2055 -0.0479
  890MOL0     C20052  11.100   9.037   7.696 -0.1785  0.5260 -0.6459
  890MOL0     C20053  11.220   8.929   7.672  0.0958  0.0088 -0.6461
  890MOL0     C20054  11.259   8.917   7.521  0.7552 -0.5788 -0.2916
  890MOL0     C20055  11.185   8.795   7.452  0.1206 -1.0212  0.6020
  890MOL0     C20056  11.210   8.778   7.307 -0.2737 -0.2126 -0.5184
  890MOL0     C20057  11.117   8.857   7.222  0.0623  0.6360 -0.3191
  890MOL0     C20058  11.142   8.817   7.075 -0.0624 -0.1974  0.2663
  890MOL0     C20059  11.061   8.912   6.981 -0.7021 -0.2535  1.0428
  890MOL0    Cl20060  10.890   8.856   6.984 -0.2662 -0.2741 -0.5908
  890MOL0     C20061  11.109   9.159   7.982 -0.5255  0.5155  0.7612
  890MOL0     C20062  11.170   9.193   8.104  0.2864  0.1345  0.2717
  890MOL0     O20063  11.550   9.290   8.200 -0.0524  0.2264  0.0924
  890MOL0     C20064  11.409   9.540   8.364  0.7900 -0.9684  0.4818
  890MOL0     C20065  11.427   9.639   8.466  0.4646 -0.3169  0.2291
  890MOL0     N20066  11.160   9.912   9.046  1.5009  0.3214  0.0777
  890MOL0     N20067  11.036   9.931   9.021  0.4335 -0.8280  0.5750
  890MOL0     C20068  10.437   9.071   8.936 -0.1595  0.2226  0.6897
  890MOL0     C20069  10.390   8.982   8.836 -0.3015 -0.2853  0.1546
  890MOL0     C20070  10.143   8.811   8.493 -0.2737 -0.7179  0.2868
  890MOL0     C20071  10.176   8.680   8.500  0.2727 -0.1833 -0.1394
  890MOL0     C20072  10.160   8.600   8.396 -0.5079  0.6020  0.5513
  890MOL0     C20073  10.102   8.635   8.274 -0.2491  0.2146 -1.0867
  890MOL0     O20074  10.075   8.535   8.185 -0.2179  0.3241  0.5001
  890MOL0     C20075  10.039   8.566   8.050  0.2620 -0.8638  0.5064
  890MOL0     C20076   9.891   8.539   8.030  0.7346  0.1093  0.2272
  890MOL0     C20077   9.871   8.386   7.995 -0.4891 -0.7216  0.7330
  890MOL0     C20078   9.942   8.362   7.852 -0.2445 -0.2724  0.6701
  890MOL0     C20079   9.876   8.243   7.790  0.2718  0.7707 -0.3028
  890MOL0     C20080   9.840   8.138   7.746  0.1308  0.1117 -0.1928
  890MOL0     C20081  10.057   8.765   8.270 -0.0516 -0.9633 -0.5599
  890MOL0     C20082  10.081   8.855   8.378  0.0258 -0.0347  0.2295
  890MOL0     H20083  10.055   9.000   8.915 -0.8377  2.5284 -0.9550
  890MOL0     H20084  10.148   9.167   9.084  0.4876 -0.9684  0.1356
  890MOL0     H20085  10.471   9.176   9.284 -2.9333 -3.7125 -0.3825
  890MOL0     H20086  10.541   9.089   9.153 -1.7264  0.2386  1.2810
  890MOL0     H20087  10.713   9.269   9.203 -1.9520 -0.4817  2.3387
  890MOL0     H20088  10.645   9.292   9.048 -0.6698 -1.4184 -0.3338
  890MOL0     H20089  10.476   9.457   9.130  0.3252  0.5740 -0.7312
  890MOL0     H20090  10.537   9.426   9.291  4.5358  2.2463  0.8627
  890MOL0     H20091  10.678   9.609   9.217 -2.1304  0.9756 -2.1002
  890MOL0     H20092  10.779   9.470   9.159 -0.9675 -0.9677 -0.8479
  890MOL0     H20093  10.720   9.494   8.927  0.3054  2.0268 -2.1741
  890MOL0     H20094  10.606   9.618   8.971  1.2477  0.2853 -1.3543
  890MOL0     H20095  10.780   9.742   9.062 -1.7259  0.1283 -0.7016
  890MOL0     H20096  10.897   9.619   8.999  0.3054  1.1980  3.1572
  890MOL0     H20097  10.824   9.672   8.767  0.8124 -0.8698  0.8083
  890MOL0     H20098  10.693   9.772   8.824  0.9524  3.2929  1.1753
  890MOL0     H20099  10.817   9.964   8.856  1.8970  2.5148 -1.4424
  890MOL0     H20100  10.910   9.890   8.729  0.4970 -1.8695  0.4693
  890MOL0     H20101  11.147   9.750   8.768  1.6446  2.2576 -1.7224
  890MOL0     H20102  11.352   9.700   9.040 -1.9274  2.9330  1.6543
  890MOL0     H20103  11.347   9.676   8.880 -2.4904  0.0437  0.8166
  890MOL0     H20104  11.563   9.748   8.932  2.1262  2.2346 -0.5581
  890MOL0     H20105  11.503   9.883   9.030 -1.6677 -2.3998  1.5765
  890MOL0     H20106  11.590   9.960   8.808 -0.6311  2.4450  1.5318
  890MOL0     H20107  11.422  10.001   8.818 -0.9310  0.1491  0.7321
  890MOL0     H20108  11.514   9.888   8.595 -0.7693 -1.3873 -0.5391
  890MOL0     H20109  11.360   9.840   8.667  0.4723  0.6902 -2.5849
  890MOL0     H20110  11.682   9.504   8.636  0.1316  1.6010  0.5721
  890MOL0     H20111  11.760   9.320   8.399  0.7292  1.9054  0.8032
  890MOL0     H20112  11.710   9.259   8.568 -2.5012 -3.5931 -1.1415
  890MOL0     H20113  11.633   9.203   8.425  0.7711 -3.0866  3.1171
  890MOL0     H20114  11.439   9.374   7.989  0.5721  0.5410 -2.0384
  890MOL0     H20115  11.302   9.322   7.766 -2.7735 -1.2294 -1.0521
  890MOL0     H20116  11.042   8.991   7.776  3.8053 -1.4687  1.4190
  890MOL0     H20117  11.040   9.032   7.605  0.3597 -1.3229 -0.9420
  890MOL0     H20118  11.308   8.940   7.737  0.0140 -2.4315 -0.0310
  890MOL0     H20119  11.179   8.832   7.702  0.3836 -0.8929 -2.9559
  890MOL0     H20120  11.368   8.906   7.512  0.6369 -1.0413 -1.3209
  890MOL0     H20121  11.241   9.012   7.469  1.1962  1.1708  2.5434
  890MOL0     H20122  11.209   8.707   7.512 -1.8635 -2.3386 -0.4267
  890MOL0     H20123  11.078   8.812   7.467  0.3509 -0.2174  1.3851
  890MOL0     H20124  11.222   8.673   7.276  2.4584 -0.3647  0.7397
  890MOL0     H20125  11.315   8.804   7.292 -0.2525 -0.2550 -0.4465
  890MOL0     H20126  11.011   8.834   7.239  0.0135 -0.0259 -1.4076
  890MOL0     H20127  11.134   8.965   7.229 -1.4543  1.0353 -1.8622
  890MOL0     H20128  11.112   8.714   7.054 -1.1882  0.7381 -3.4806
  890MOL0     H20129  11.248   8.834   7.056  0.2682 -1.7294  0.5923
  890MOL0     H20130  11.104   8.883   6.884 -1.6550  0.5029  0.3765
  890MOL0     H20131  11.074   9.019   7.003  0.4542 -0.3682  1.0096
  890MOL0     H20132  11.027   9.088   7.980  1.7116 -2.2373 -0.4082
  890MOL0     H20133  11.119   9.150   8.189  3.8420 -2.4960  1.2953
  890MOL0     H20134  11.328   9.562   8.295  1.4057 -0.0555  0.0231
  890MOL0     H20135  11.360   9.725   8.469 -2.0560 -2.1553  0.2699
  890MOL0     H20136  10.544   9.084   8.951 -0.2182 -0.3855  1.7601
  890MOL0     H20137  10.452   8.936   8.760  0.8504  2.2499 -0.5579
  890MOL0     H20138  10.229   8.635   8.583 -1.2459 -1.1553  0.3615
  890MOL0     H20139  10.192   8.496   8.400 -2.2611 -0.0831 -1.2701
  890MOL0     H20140  10.058   8.668   8.016  0.7265 -1.4872 -1.2009
  890MOL0     H20141  10.091   8.517   7.967 -2.0387 -0.5758 -1.2014
  890MOL0     H20142   9.836   8.594   7.953  0.4218 -1.4735 -0.7267
  890MOL0     H20143   9.834   8.560   8.121 -2.7239 -2.2882 -1.1688
  890MOL0     H20144   9.764   8.366   7.989 -1.0996  2.3095  0.2479
  890MOL0     H20145   9.910   8.322   8.075 -0.2671  1.3651  2.3807
  890MOL0     H20146  10.046   8.332   7.863 -0.4837 -1.6024 -0.4053
  890MOL0     H20147   9.924   8.442   7.779  0.7379  1.2738  2.0663
  890MOL0     H20148   9.796   8.049   7.707  1.2224 -0.6860  0.3394
  890MOL0     H20149  10.001   8.813   8.191  1.4863 -0.6376 -1.4900
  890MOL0     H20150  10.041   8.955   8.372 -2.9326 -1.1608 -0.5766
  891MOL0     O20151  10.180   4.564   7.463  0.1255  0.4822 -0.7550
  891MOL0     C20152  10.102   4.655   7.484  0.7540  0.4112  0.3758
  891MOL0     O20153  10.138   4.777   7.534 -0.3567  1.4285  0.4536
  891MOL0     C20154  10.258   4.839   7.492 -0.2951 -0.7856  0.4706
  891MOL0     C20155  10.282   4.969   7.544  1.0764 -0.8986  0.0286
  891MOL0     C20156  10.412   5.036   7.532 -0.0217 -0.2643  1.1624
  891MOL0     C20157  10.506   4.974   7.448 -0.5322  0.4825 -0.3751
  891MOL0     O20158  10.624   5.046   7.432  0.1721 -0.4000 -0.6069
  891MOL0     C20159  10.725   4.990   7.346 -0.8753  0.5186  0.3192
  891MOL0     C20160  10.830   5.099   7.312 -0.4272 -0.5339  0.7169
  891MOL0     C20161  10.890   5.148   7.443  0.6407 -0.8994  0.7186
  891MOL0     C20162  10.990   5.259   7.411 -0.1367  0.0406  0.0299
  891MOL0     C20163  11.035   5.337   7.542  0.5632  0.3657 -0.0123
  891MOL0     C20164  11.119   5.454   7.510 -0.6577 -0.0270  1.3357
  891MOL0     C20165  11.259   5.443   7.432  0.0627 -0.5955  0.0789
  891MOL0     C20166  11.367   5.340   7.478  0.9564 -0.4442 -0.1410
  891MOL0     N20167  11.426   5.369   7.614  0.2420  0.0780  0.3117
  891MOL0     C20168  11.369   5.365   7.743 -0.3105  0.1553  0.5359
  891MOL0     C20169  11.461   5.416   7.832 -0.8401  0.5096  0.0930
  891MOL0     C20170  11.456   5.447   7.977 -0.0410 -0.4424  0.4939
  891MOL0     C20171  11.354   5.371   8.055  0.0513  1.1317 -0.3414
  891MOL0     C20172  11.413   5.353   8.193  0.4755  1.3781  0.3993
  891MOL0     C20173  11.323   5.252   8.273  0.3090  0.4259 -0.3291
  891MOL0     O20174  11.205   5.310   8.338  0.4768 -0.4418 -0.1123
  891MOL0     C20175  11.098   5.228   8.362 -0.1654  0.2612 -0.5046
  891MOL0     C20176  11.091   5.093   8.339 -0.6662 -0.3315 -0.3444
  891MOL0     C20177  10.982   5.014   8.356  0.3514  0.5077 -0.4576
  891MOL0     C20178  11.010   4.861   8.350  0.5055 -0.8369 -0.0152
  891MOL0     C20179  10.862   5.077   8.397  0.9389  0.2163  0.4581
  891MOL0     C20180  10.732   5.007   8.436 -0.1449  0.0499  0.3052
  891MOL0     O20181  10.649   5.063   8.526  0.2320  0.7983  0.0945
  891MOL0     C20182  10.552   4.991   8.593 -0.3625  0.0223  0.6301
  891MOL0     C20183  10.587   4.908   8.703  0.5075 -0.5901  0.5799
  891MOL0     C20184  10.491   4.838   8.770  0.2984 -0.4981  0.1648
  891MOL0     C20185  10.354   4.853   8.744 -0.9327  0.2929  0.3767
  891MOL0     O20186  10.269   4.770   8.825 -0.3125  0.4892  0.1930
  891MOL0     C20187  10.135   4.811   8.828 -0.2017 -1.3576 -0.4174
  891MOL0     C20188  10.083   4.819   8.971 -0.1667 -0.5381 -0.1504
  891MOL0     C20189  10.170   4.886   9.067  0.2942 -0.6928 -0.8424
  891MOL0     C20190  10.107   4.889   9.212 -0.4268 -0.3339  0.3203
  891MOL0     C20191  10.006   4.997   9.228  0.2264  0.0833 -0.1082
  891MOL0     C20192   9.987   5.039   9.372  0.0003  0.1105  0.6300
  891MOL0     C20193   9.894   5.164   9.370 -0.8287 -0.8340 -0.7605
  891MOL0     C20194   9.880   5.217   9.515 -0.5014  0.3953 -0.2068
  891MOL0    Cl20195   9.730   5.312   9.532  0.5669  0.2404  0.4047
  891MOL0     C20196  10.321   4.934   8.631 -0.0438  1.0099  0.1442
  891MOL0     C20197  10.417   5.012   8.563  0.2474 -0.7354  0.6663
  891MOL0     O20198  10.707   4.891   8.385  0.4002 -1.0531 -1.1467
  891MOL0     C20199  10.866   5.217   8.414  0.5889  0.3553  0.6983
  891MOL0     C20200  10.982   5.287   8.400  0.0190 -0.0671  0.4217
  891MOL0     N20201  11.572   5.453   7.755  0.5579 -0.1736 -0.9934
  891MOL0     N20202  11.552   5.425   7.634  0.0032  0.1381  0.6976
  891MOL0     C20203  10.474   4.855   7.382  0.3817 -0.2457 -0.3636
  891MOL0     C20204  10.354   4.786   7.407  0.2520  0.2107 -0.0539
  891MOL0     C20205   9.961   4.620   7.476 -0.3874 -0.5684  0.2095
  891MOL0     C20206   9.915   4.490   7.503 -0.6026  0.0765  0.1756
  891MOL0     C20207   9.777   4.484   7.504 -0.2121  0.0897  0.5001
  891MOL0     C20208   9.684   4.586   7.496 -1.0019 -0.1563  0.5233
  891MOL0     O20209   9.550   4.585   7.519 -0.0757  0.0246  0.3484
  891MOL0     C20210   9.464   4.463   7.521 -0.2182 -0.1725  0.0483
  891MOL0     C20211   9.463   4.410   7.666  0.1248  0.2607 -0.3777
  891MOL0     C20212   9.326   4.366   7.717 -0.3734  0.8218  0.5665
  891MOL0     C20213   9.294   4.207   7.698  1.2969 -0.8080 -0.4379
  891MOL0     C20214   9.150   4.184   7.706 -0.7337 -0.4782 -0.4155
  891MOL0     C20215   9.022   4.170   7.719 -0.7078  0.7557  0.6338
  891MOL0     C20216   9.743   4.709   7.464 -0.1293  0.0614  0.0450
  891MOL0     C20217   9.882   4.728   7.457  1.2041 -0.4568  0.7367
  891MOL0     H20218  10.205   4.998   7.615  2.3059 -1.1268  1.5263
  891MOL0     H20219  10.440   5.132   7.574 -4.2603  0.6270  2.4139
  891MOL0     H20220  10.764   4.909   7.408 -1.0837  3.1241  4.2605
  891MOL0     H20221  10.686   4.949   7.253  1.2089  0.4839 -0.5957
  891MOL0     H20222  10.903   5.066   7.238 -0.2459  0.1335  0.5919
  891MOL0     H20223  10.769   5.175   7.262 -0.5378  0.1428  1.8274
  891MOL0     H20224  10.815   5.196   7.507  1.0506  1.3337 -0.3799
  891MOL0     H20225  10.930   5.066   7.503  0.9572 -0.6470  0.8572
  891MOL0     H20226  11.069   5.210   7.354 -3.1942 -2.5202 -2.3813
  891MOL0     H20227  10.942   5.325   7.337 -0.2741 -0.7463 -0.5913
  891MOL0     H20228  10.945   5.375   7.591  1.1091  1.7451 -0.0428
  891MOL0     H20229  11.102   5.277   7.605  2.6758  0.8896 -1.6428
  891MOL0     H20230  11.073   5.527   7.442  5.9433 -0.6438 -4.9403
  891MOL0     H20231  11.132   5.502   7.607 -2.3286  1.6894  0.7893
  891MOL0     H20232  11.241   5.418   7.327  2.7754 -2.0627 -0.1094
  891MOL0     H20233  11.303   5.542   7.447 -0.6012 -0.1485 -0.8533
  891MOL0     H20234  11.447   5.317   7.407  2.1178 -1.2577  1.3691
  891MOL0     H20235  11.313   5.245   7.485 -0.3055 -0.0492 -3.0383
  891MOL0     H20236  11.277   5.321   7.780  0.5282 -2.2088 -0.0115
  891MOL0     H20237  11.560   5.431   8.007  1.7657  1.0062 -4.1312
  891MOL0     H20238  11.458   5.556   7.987 -1.1735 -0.3287 -0.2775
  891MOL0     H20239  11.334   5.279   8.001 -0.8646  0.2945  1.3254
  891MOL0     H20240  11.259   5.427   8.060 -0.6400  0.0207 -0.7995
  891MOL0     H20241  11.417   5.451   8.242 -1.5032  2.4783 -1.4734
  891MOL0     H20242  11.512   5.313   8.167 -0.7518 -0.1547 -2.3276
  891MOL0     H20243  11.387   5.194   8.340 -0.9540 -1.8204 -0.9325
  891MOL0     H20244  11.299   5.172   8.202 -0.2043 -0.9923  1.3691
  891MOL0     H20245  11.189   5.050   8.318  0.7049  2.5168 -0.2424
  891MOL0     H20246  10.922   4.801   8.326 -2.1271  1.5397  2.8854
  891MOL0     H20247  11.088   4.841   8.276  0.4825 -1.6860  0.1821
  891MOL0     H20248  11.059   4.834   8.444 -2.5702 -2.2303  1.3175
  891MOL0     H20249  10.692   4.908   8.731  0.4114 -0.7803  0.9403
  891MOL0     H20250  10.517   4.765   8.846  1.0880 -0.5795 -0.1769
  891MOL0     H20251  10.110   4.904   8.776 -0.2981 -0.6155  0.9211
  891MOL0     H20252  10.073   4.734   8.782 -3.1963 -0.1254  1.2742
  891MOL0     H20253   9.986   4.869   8.978  0.7937  1.3094  0.3845
  891MOL0     H20254  10.066   4.716   9.004  2.5127 -1.3580 -1.0955
  891MOL0     H20255  10.194   4.986   9.030  0.6034 -0.7059 -0.6807
  891MOL0     H20256  10.267   4.837   9.080  0.5639 -0.3630 -1.5559
  891MOL0     H20257  10.055   4.793   9.217  0.5450 -0.8273  1.1537
  891MOL0     H20258  10.187   4.895   9.285  0.7561 -1.8502 -0.7890
  891MOL0     H20259   9.921   4.950   9.178 -0.3880 -1.4887  2.2529
  891MOL0     H20260  10.034   5.092   9.181 -0.1212  0.4885  0.4829
  891MOL0     H20261   9.941   4.959   9.431  0.2533 -0.4042  0.1482
  891MOL0     H20262  10.082   5.064   9.420 -1.9922  2.9295  3.4448
  891MOL0     H20263   9.789   5.141   9.349 -1.3780 -1.3289  2.0515
  891MOL0     H20264   9.922   5.249   9.307  0.3581 -0.5792  0.0757
  891MOL0     H20265   9.968   5.274   9.546  0.4703 -1.2206  0.0944
  891MOL0     H20266   9.875   5.137   9.589  1.2378 -1.1914 -1.7206
  891MOL0     H20267  10.215   4.943   8.610 -0.8384 -1.7332  2.3635
  891MOL0     H20268  10.391   5.072   8.477  1.0271  0.1583  1.0411
  891MOL0     H20269  10.782   5.272   8.456  1.4889  2.0949  0.3440
  891MOL0     H20270  10.959   5.393   8.411 -4.3337 -0.2633 -3.5363
  891MOL0     H20271  10.553   4.802   7.329 -0.2245 -0.8502 -0.6680
  891MOL0     H20272  10.359   4.684   7.370 -0.3885  0.2481 -0.2601
  891MOL0     H20273   9.976   4.403   7.521 -3.4911 -2.2741 -0.5438
  891MOL0     H20274   9.729   4.389   7.524 -0.1911  0.3359  1.7874
  891MOL0     H20275   9.370   4.492   7.472  0.3817 -2.2713 -2.5596
  891MOL0     H20276   9.506   4.388   7.454 -1.9963  0.8770 -2.3675
  891MOL0     H20277   9.492   4.488   7.737  2.4098 -0.3772 -0.5392
  891MOL0     H20278   9.526   4.322   7.685 -3.5789 -2.8547 -1.0350
  891MOL0     H20279   9.256   4.421   7.653  1.1797 -0.3100 -2.3043
  891MOL0     H20280   9.310   4.385   7.823  1.1725 -3.1105  1.6667
  891MOL0     H20281   9.341   4.140   7.770 -1.8350  1.0131  3.7415
  891MOL0     H20282   9.303   4.165   7.597  0.3698 -1.2818 -0.3320
  891MOL0     H20283   8.920   4.156   7.749 -0.7750 -0.3304 -0.0361
  891MOL0     H20284   9.684   4.799   7.451 -0.8010 -0.8348 -5.5273
  891MOL0     H20285   9.926   4.823   7.426  0.6022  0.1812  1.7940
  892MOL0     O20286   4.591  10.667   5.187  0.2117 -0.6315 -0.2102
  892MOL0     C20287   4.533  10.656   5.294  0.7972  0.8928 -0.2226
  892MOL0     O20288   4.568  10.719   5.415  0.0480  0.1657  0.7338
  892MOL0     C20289   4.671  10.812   5.404 -0.4071  0.4742 -0.8605
  892MOL0     C20290   4.655  10.942   5.447  1.2531 -0.3469 -0.6204
  892MOL0     C20291   4.762  11.033   5.467  0.1577  0.2800 -0.1206
  892MOL0     C20292   4.889  11.001   5.424 -0.2455  0.0485  0.0057
  892MOL0     O20293   5.008  11.067   5.432  0.2512 -0.3243 -0.0222
  892MOL0     C20294   5.021  11.186   5.510  0.2169 -0.3273 -1.1616
  892MOL0     C20295   5.162  11.188   5.560 -0.0390 -0.0149 -0.1594
  892MOL0     C20296   5.266  11.170   5.452  0.9434 -0.2507  0.3781
  892MOL0     C20297   5.418  11.190   5.485 -0.4709  0.5474  0.1968
  892MOL0     C20298   5.520  11.167   5.378  0.2554 -0.7996  0.2369
  892MOL0     C20299   5.578  11.028   5.390 -0.1042 -0.0583 -0.1331
  892MOL0     C20300   5.668  10.976   5.274 -0.0912 -0.7409  0.0163
  892MOL0     C20301   5.697  10.831   5.288 -0.5949  0.6310  0.3677
  892MOL0     N20302   5.798  10.799   5.181 -0.4577 -0.5974  0.0519
  892MOL0     C20303   5.930  10.829   5.175  0.6849 -0.8885  0.1312
  892MOL0     C20304   5.979  10.769   5.063 -0.6623 -0.4708  0.3009
  892MOL0     C20305   6.128  10.768   5.019  0.4135  0.2840  0.0377
  892MOL0     C20306   6.202  10.640   5.060 -1.0931 -0.4246 -0.5153
  892MOL0     C20307   6.353  10.636   5.036 -0.5071  0.0076  0.8594
  892MOL0     C20308   6.418  10.493   5.021 -0.0427  1.5142  0.4729
  892MOL0     O20309   6.541  10.499   4.944 -0.1327  0.1920  0.3132
  892MOL0     C20310   6.641  10.585   4.974 -0.4926 -0.3640  0.0671
  892MOL0     C20311   6.681  10.680   4.883 -1.4737 -0.3084 -0.6432
  892MOL0     C20312   6.775  10.777   4.908  0.3062 -0.2819  0.4348
  892MOL0     C20313   6.810  10.877   4.805  0.2496 -0.2757  0.4659
  892MOL0     C20314   6.818  10.783   5.048 -0.2098  0.5744 -0.4773
  892MOL0     C20315   6.914  10.874   5.104  0.1858 -1.0775  0.5429
  892MOL0     O20316   6.903  10.923   5.225  0.7120 -0.3702 -0.3024
  892MOL0     C20317   6.976  11.036   5.267  0.0014  0.5674 -0.0471
  892MOL0     C20318   6.989  11.155   5.198  0.3075  0.5517 -0.1779
  892MOL0     C20319   7.055  11.268   5.247  0.3446 -0.8585 -0.2755
  892MOL0     C20320   7.118  11.259   5.376 -1.1006 -1.1832 -0.4280
  892MOL0     O20321   7.168  11.381   5.425  0.0771  0.3452 -0.4300
  892MOL0     C20322   7.276  11.380   5.521  0.2076 -0.1625  0.3399
  892MOL0     C20323   7.306  11.510   5.593  0.4877  0.5258  0.2780
  892MOL0     C20324   7.453  11.496   5.637 -0.5179 -0.1855  0.1527
  892MOL0     C20325   7.500  11.631   5.699  0.4651 -0.2098 -0.3459
  892MOL0     C20326   7.652  11.647   5.709  0.4070  0.9971  0.3430
  892MOL0     C20327   7.704  11.774   5.781  0.1922  0.7970 -0.0592
  892MOL0     C20328   7.856  11.790   5.798  0.0208 -0.1124 -0.0806
  892MOL0     C20329   7.902  11.899   5.898 -0.4423 -0.3063 -0.2275
  892MOL0    Cl20330   8.075  11.923   5.874  0.1791 -0.0298 -0.2272
  892MOL0     C20331   7.122  11.128   5.435  0.5149 -1.3048  0.6201
  892MOL0     C20332   7.042  11.019   5.389 -0.6353  0.5140 -0.5832
  892MOL0     O20333   6.999  10.907   5.022  0.2974 -0.6585  0.3504
  892MOL0     C20334   6.776  10.695   5.141  0.0756  0.9902  0.3333
  892MOL0     C20335   6.698  10.579   5.099  0.3665 -0.0634  0.2679
  892MOL0     N20336   5.890  10.690   5.012  0.5395  0.8908  0.2928
  892MOL0     N20337   5.788  10.702   5.083  0.2419 -0.1067 -0.0749
  892MOL0     C20338   4.911  10.871   5.374 -0.6903  1.1943 -0.4518
  892MOL0     C20339   4.803  10.778   5.371  1.1070 -0.2587 -0.0717
  892MOL0     C20340   4.418  10.564   5.302  0.5207 -0.1283  0.0772
  892MOL0     C20341   4.342  10.520   5.193 -0.7514 -0.5161  0.0285
  892MOL0     C20342   4.238  10.425   5.217 -0.4731 -0.2820 -0.2902
  892MOL0     C20343   4.196  10.392   5.353 -0.5470  0.3452  0.4102
  892MOL0     O20344   4.099  10.313   5.392  0.0968  0.7631  0.6160
  892MOL0     C20345   4.073  10.192   5.309 -0.3369  0.4255  0.5077
  892MOL0     C20346   3.954  10.110   5.358  0.1175 -0.3773  0.2459
  892MOL0     C20347   3.984  10.048   5.489  0.2021 -0.5633 -0.2625
  892MOL0     C20348   3.859   9.989   5.558 -0.0119 -0.6465  0.5396
  892MOL0     C20349   3.799   9.873   5.490 -0.8419  0.3634  0.3091
  892MOL0     C20350   3.743   9.779   5.432  0.8561 -0.4116  0.7425
  892MOL0     C20351   4.268  10.447   5.455  0.1089  0.8207 -0.2769
  892MOL0     C20352   4.369  10.538   5.432 -0.6352 -0.2004  0.5223
  892MOL0     H20353   4.555  10.968   5.478  1.8577  0.5315  0.6868
  892MOL0     H20354   4.742  11.133   5.503  0.5713 -0.6081  2.8124
  892MOL0     H20355   5.004  11.274   5.447  1.1302  0.5213 -0.2588
  892MOL0     H20356   4.939  11.187   5.582 -1.8282 -2.4742 -3.2879
  892MOL0     H20357   5.180  11.288   5.602  1.8654 -1.8243  3.8656
  892MOL0     H20358   5.201  11.112   5.629  3.5671  1.9244  0.2059
  892MOL0     H20359   5.254  11.071   5.407 -1.6383  0.8124 -1.5303
  892MOL0     H20360   5.252  11.244   5.373 -0.4943 -1.6682 -0.7576
  892MOL0     H20361   5.436  11.296   5.506  4.6002 -0.1528  0.5204
  892MOL0     H20362   5.442  11.130   5.573  1.3564 -1.1153 -1.3463
  892MOL0     H20363   5.468  11.194   5.285  3.5996 -0.8569 -1.8360
  892MOL0     H20364   5.606  11.235   5.383 -0.8298  0.6460  0.0265
  892MOL0     H20365   5.641  11.035   5.479 -1.4866  0.8541  0.8264
  892MOL0     H20366   5.493  10.959   5.400 -1.5175  1.3123 -1.9085
  892MOL0     H20367   5.625  10.993   5.175  1.8264  1.1632 -0.5878
  892MOL0     H20368   5.753  11.046   5.272 -1.0087  0.4339  0.8079
  892MOL0     H20369   5.611  10.763   5.282  1.3033 -1.7968 -1.9999
  892MOL0     H20370   5.740  10.813   5.387 -0.1126  1.0556  0.2394
  892MOL0     H20371   5.979  10.898   5.242 -1.4201  0.2759  0.5701
  892MOL0     H20372   6.142  10.777   4.911 -1.4607  0.3128 -0.2240
  892MOL0     H20373   6.169  10.857   5.067 -0.7634 -0.2469  2.1052
  892MOL0     H20374   6.166  10.560   4.995  1.0355 -0.9430 -1.1218
  892MOL0     H20375   6.188  10.594   5.159  1.5610 -1.1399 -0.3910
  892MOL0     H20376   6.398  10.693   5.117  1.5993 -1.8937  1.1470
  892MOL0     H20377   6.376  10.683   4.940 -1.2255  0.5880  0.9694
  892MOL0     H20378   6.357  10.426   4.959  3.2115 -2.3278  1.0064
  892MOL0     H20379   6.425  10.442   5.118  3.6688 -0.8067 -0.8076
  892MOL0     H20380   6.649  10.677   4.779 -3.3143  1.9166 -0.2216
  892MOL0     H20381   6.899  10.857   4.746 -0.3502 -4.3135  0.6587
  892MOL0     H20382   6.724  10.905   4.744  0.9580  2.1307  0.4802
  892MOL0     H20383   6.826  10.972   4.857  3.3073  1.0946 -2.6466
  892MOL0     H20384   6.935  11.155   5.104 -2.1824 -2.4694  1.0674
  892MOL0     H20385   7.064  11.357   5.185  2.1372 -0.0496  1.0370
  892MOL0     H20386   7.276  11.296   5.592  2.8568  1.7414  2.8535
  892MOL0     H20387   7.360  11.341   5.463  0.1522 -3.8904  2.4546
  892MOL0     H20388   7.283  11.591   5.523 -4.8933  0.0766  1.1322
  892MOL0     H20389   7.243  11.538   5.678  2.0255 -0.2966  1.7604
  892MOL0     H20390   7.522  11.486   5.553 -0.3413  1.9145 -0.0059
  892MOL0     H20391   7.463  11.403   5.694 -2.0119 -0.6444 -0.3031
  892MOL0     H20392   7.443  11.707   5.646  3.6171  0.8320 -2.4384
  892MOL0     H20393   7.454  11.637   5.799  0.0810  1.0476 -0.5814
  892MOL0     H20394   7.690  11.636   5.607  0.4276  2.6571  0.1539
  892MOL0     H20395   7.683  11.566   5.776  1.2135 -1.5629 -2.8337
  892MOL0     H20396   7.652  11.856   5.731 -5.1425 -1.5315  1.0259
  892MOL0     H20397   7.661  11.764   5.881  1.0983  0.2097  0.2902
  892MOL0     H20398   7.898  11.826   5.704 -0.7490 -1.5915 -1.0304
  892MOL0     H20399   7.904  11.695   5.825 -0.5510 -0.2385  0.5252
  892MOL0     H20400   7.881  11.866   6.000 -1.2095  2.9893  0.7962
  892MOL0     H20401   7.855  11.996   5.881  2.5555  0.9307 -2.1945
  892MOL0     H20402   7.162  11.123   5.536  3.7511 -0.5202 -0.4989
  892MOL0     H20403   7.039  10.937   5.459 -0.7439  1.9565  1.1675
  892MOL0     H20404   6.810  10.692   5.244 -0.3274 -0.4187  0.4470
  892MOL0     H20405   6.667  10.500   5.166  2.4939 -1.6224 -0.4863
  892MOL0     H20406   5.013  10.838   5.356 -1.8404 -1.2729 -3.2228
  892MOL0     H20407   4.818  10.671   5.361 -1.3275 -0.8777  1.8819
  892MOL0     H20408   4.361  10.550   5.090 -1.6095  0.4357  0.1336
  892MOL0     H20409   4.171  10.396   5.137  0.6961  1.2946 -1.9211
  892MOL0     H20410   4.054  10.226   5.206  0.2351  2.8410  1.1501
  892MOL0     H20411   4.171  10.143   5.314  0.3226  1.7133  0.5456
  892MOL0     H20412   3.931  10.030   5.286  1.1587  0.2886 -0.8628
  892MOL0     H20413   3.864  10.173   5.364  1.6545  1.7476  2.4299
  892MOL0     H20414   4.016  10.130   5.553  0.0473 -0.6389 -0.0864
  892MOL0     H20415   4.065   9.975   5.490 -0.8204 -1.8262  3.0362
  892MOL0     H20416   3.789  10.072   5.568  3.3730  2.8299 -1.5492
  892MOL0     H20417   3.884   9.952   5.658  0.3516 -1.1382  0.2726
  892MOL0     H20418   3.697   9.690   5.396  1.8790 -1.7747  2.5933
  892MOL0     H20419   4.245  10.433   5.560 -0.6238  0.0330 -0.5336
  892MOL0     H20420   4.397  10.592   5.522  2.9964 -0.7899 -0.0987
  893MOL0     O20421   9.337   2.342   1.703 -0.1264  0.4334 -0.1807
  893MOL0     C20422   9.218   2.356   1.668  0.1747 -0.5661 -0.1292
  893MOL0     O20423   9.139   2.457   1.696  0.2792 -0.1437 -0.0315
  893MOL0     C20424   9.191   2.551   1.785 -0.6088  0.3286  0.7167
  893MOL0     C20425   9.227   2.530   1.916 -0.5313 -0.9623 -0.3392
  893MOL0     C20426   9.288   2.626   1.998  0.7095 -0.1845 -0.2985
  893MOL0     C20427   9.321   2.755   1.938  1.0782 -0.2712  0.6806
  893MOL0     O20428   9.390   2.844   2.016  0.1557 -0.1668  0.3709
  893MOL0     C20429   9.467   2.950   1.945 -0.2392 -0.2569 -0.5930
  893MOL0     C20430   9.565   2.999   2.051 -0.9415  0.7739 -0.4846
  893MOL0     C20431   9.657   3.113   2.002 -0.0810 -0.4976  0.6639
  893MOL0     C20432   9.739   3.176   2.119  0.2455 -0.7786  1.7507
  893MOL0     C20433   9.869   3.098   2.169 -0.6863  0.5706  0.4940
  893MOL0     C20434   9.929   3.166   2.281  0.1660 -0.2161 -0.4076
  893MOL0     C20435   9.945   3.077   2.404 -0.2006  0.1282  1.4441
  893MOL0     C20436  10.020   2.944   2.387  0.3894 -1.2336  0.7908
  893MOL0     N20437  10.073   2.909   2.508 -0.9258 -0.6084  0.4141
  893MOL0     C20438  10.000   2.865   2.617  0.1654 -0.5357  0.2269
  893MOL0     C20439  10.101   2.832   2.696 -0.8394  0.4789  0.6556
  893MOL0     C20440  10.076   2.746   2.818 -0.1374  0.3805  0.2027
  893MOL0     C20441  10.168   2.816   2.927 -0.5247  1.2719 -0.8189
  893MOL0     C20442  10.148   2.741   3.064  0.5667  0.3433 -0.6521
  893MOL0     C20443  10.251   2.778   3.169  0.5095  0.8861  1.2033
  893MOL0     O20444  10.351   2.678   3.140  0.5464  0.1364 -0.0825
  893MOL0     C20445  10.465   2.700   3.212  2.2953  0.1333  0.0662
  893MOL0     C20446  10.558   2.787   3.156  0.7265  0.1258 -0.2963
  893MOL0     C20447  10.659   2.838   3.232  0.4084  0.2392  0.3847
  893MOL0     C20448  10.720   2.969   3.189 -0.5665 -0.6194 -0.1941
  893MOL0     C20449  10.687   2.787   3.362 -0.4165 -0.5383 -0.0383
  893MOL0     C20450  10.807   2.820   3.435  0.0183  0.2052 -0.7246
  893MOL0     O20451  10.806   2.829   3.569 -0.3531 -0.5703 -0.4450
  893MOL0     C20452  10.915   2.871   3.638  0.2231 -0.0878  0.5001
  893MOL0     C20453  10.978   2.991   3.619 -0.0348  0.1281 -0.1248
  893MOL0     C20454  11.085   3.034   3.697  1.0076  0.0658  0.1289
  893MOL0     C20455  11.130   2.955   3.814  0.8818  0.1319  0.3200
  893MOL0     O20456  11.225   3.000   3.900  0.2297  0.3250  0.6928
  893MOL0     C20457  11.321   2.895   3.934 -1.0129  0.1798 -0.4793
  893MOL0     C20458  11.456   2.953   3.970  0.0010  0.3101 -0.2964
  893MOL0     C20459  11.457   3.034   4.102  0.7881  0.4684 -0.2712
  893MOL0     C20460  11.593   3.080   4.136  0.5113  0.3457 -0.0695
  893MOL0     C20461  11.650   3.181   4.024 -0.5554 -0.5724 -0.1740
  893MOL0     C20462  11.788   3.224   4.059 -0.5822 -0.5884  0.0116
  893MOL0     C20463  11.832   3.343   3.971  0.3036  0.1407 -0.4702
  893MOL0     C20464  11.811   3.478   4.053 -0.1534 -0.7084  0.6791
  893MOL0    Cl20465  11.917   3.488   4.201 -0.1494  0.0497  0.1951
  893MOL0     C20466  11.047   2.851   3.854  1.1609  0.4864 -0.0244
  893MOL0     C20467  10.946   2.804   3.760  1.2670  0.5513 -0.2754
  893MOL0     O20468  10.913   2.813   3.368 -0.0455  0.2462 -0.4896
  893MOL0     C20469  10.600   2.698   3.415  0.1388 -0.4570 -0.6672
  893MOL0     C20470  10.489   2.653   3.344  0.9582  0.4632 -0.1399
  893MOL0     N20471  10.228   2.848   2.646 -0.6313  0.5656 -0.1164
  893MOL0     N20472  10.207   2.893   2.523  0.2142  0.1720 -0.0288
  893MOL0     C20473   9.271   2.775   1.807  0.9078  0.2911 -0.4501
  893MOL0     C20474   9.210   2.678   1.732 -0.3258  0.1680 -0.5248
  893MOL0     C20475   9.163   2.255   1.575 -0.0964  0.7539  0.5021
  893MOL0     C20476   9.042   2.285   1.503  0.2343  0.3929  0.1897
  893MOL0     C20477   8.996   2.199   1.400  0.0528 -0.0836 -1.0691
  893MOL0     C20478   9.076   2.089   1.366 -0.3390 -0.1339 -0.7910
  893MOL0     O20479   9.055   2.008   1.257  0.8987 -0.3400 -0.2581
  893MOL0     C20480   8.922   1.966   1.236  0.3063  0.1745  0.5024
  893MOL0     C20481   8.859   1.894   1.349  0.3592 -0.6994  0.5089
  893MOL0     C20482   8.939   1.762   1.380  0.6147 -1.5014 -0.2589
  893MOL0     C20483   8.873   1.626   1.360  0.3449 -0.5818  0.4453
  893MOL0     C20484   8.859   1.599   1.215 -0.5520 -0.2593 -0.0105
  893MOL0     C20485   8.868   1.572   1.095 -0.8115 -0.6262 -0.2846
  893MOL0     C20486   9.196   2.051   1.437  0.5804 -0.3064 -1.4495
  893MOL0     C20487   9.242   2.140   1.541  0.1510  0.1765 -0.6274
  893MOL0     H20488   9.224   2.433   1.963  2.9314 -1.4315 -0.8091
  893MOL0     H20489   9.318   2.606   2.100  0.3836  3.4027  0.6163
  893MOL0     H20490   9.520   2.910   1.858  0.7281  0.2415 -0.2500
  893MOL0     H20491   9.404   3.035   1.918 -0.4260 -0.7669 -1.7953
  893MOL0     H20492   9.514   3.021   2.145 -1.4909 -2.9000  0.2424
  893MOL0     H20493   9.621   2.909   2.076 -0.6413  0.7351 -1.2814
  893MOL0     H20494   9.721   3.063   1.929  0.0060 -0.9841  1.0741
  893MOL0     H20495   9.594   3.195   1.965 -1.3639 -1.3749  0.8473
  893MOL0     H20496   9.774   3.277   2.096 -1.7124  0.1902  2.7989
  893MOL0     H20497   9.674   3.195   2.204  1.6639  0.7338  2.5528
  893MOL0     H20498   9.854   2.993   2.195 -1.2305  1.1479  2.7485
  893MOL0     H20499   9.955   3.110   2.102 -0.9333 -3.5248 -0.8424
  893MOL0     H20500  10.031   3.200   2.260  0.5746 -0.9237  0.3727
  893MOL0     H20501   9.870   3.255   2.307 -4.2287 -2.9543 -0.1123
  893MOL0     H20502  10.007   3.132   2.475 -0.2049 -0.0610  1.5959
  893MOL0     H20503   9.847   3.052   2.445 -2.3437  3.4696 -1.1568
  893MOL0     H20504  10.101   2.948   2.313  0.3582 -2.3238  0.6800
  893MOL0     H20505   9.951   2.866   2.354 -1.3956 -0.9054  3.4666
  893MOL0     H20506   9.892   2.858   2.629  0.4042 -2.1522  1.8837
  893MOL0     H20507   9.968   2.736   2.828  0.0099 -0.9180  0.6166
  893MOL0     H20508  10.108   2.647   2.783 -2.3382 -0.0517 -0.7013
  893MOL0     H20509  10.164   2.924   2.941 -0.0523  1.2382 -0.3858
  893MOL0     H20510  10.271   2.800   2.893  0.2931  3.9054  0.1639
  893MOL0     H20511  10.147   2.632   3.048  1.1060  0.2017  0.1975
  893MOL0     H20512  10.044   2.761   3.090 -0.5899 -3.3182 -1.7583
  893MOL0     H20513  10.214   2.765   3.271 -1.4047 -0.4839  0.4045
  893MOL0     H20514  10.284   2.878   3.142 -0.8586  1.2692  0.8573
  893MOL0     H20515  10.534   2.823   3.056 -2.6204 -1.0860 -0.0662
  893MOL0     H20516  10.634   3.027   3.154 -2.3386 -2.9101  0.0929
  893MOL0     H20517  10.759   3.021   3.277  0.0894 -1.4239  0.0010
  893MOL0     H20518  10.803   2.954   3.120  0.4931  0.0237  0.8987
  893MOL0     H20519  10.947   3.044   3.529  1.7338 -2.5112 -2.4434
  893MOL0     H20520  11.146   3.112   3.653 -0.5598  0.9383 -0.5466
  893MOL0     H20521  11.288   2.829   4.015  1.6311  1.5648  1.8746
  893MOL0     H20522  11.347   2.821   3.857 -0.8187  0.6598 -0.8769
  893MOL0     H20523  11.528   2.873   3.987  2.4234  2.4935  0.3771
  893MOL0     H20524  11.496   3.023   3.896 -0.3895  0.8608  0.0064
  893MOL0     H20525  11.411   2.978   4.185 -2.2257  0.9792 -1.4436
  893MOL0     H20526  11.394   3.124   4.107 -3.7268 -2.4178  0.4820
  893MOL0     H20527  11.578   3.124   4.236  1.0278  1.7467 -0.5871
  893MOL0     H20528  11.650   2.987   4.137  1.6189  1.0064  0.7466
  893MOL0     H20529  11.580   3.264   4.032 -0.0993 -0.3561  4.9612
  893MOL0     H20530  11.656   3.151   3.919  3.2572  0.4207 -0.3673
  893MOL0     H20531  11.788   3.247   4.166 -0.5586 -0.2693 -0.0555
  893MOL0     H20532  11.858   3.144   4.033 -2.4420 -1.2922 -3.5115
  893MOL0     H20533  11.770   3.345   3.881  0.7957 -1.4567 -0.8788
  893MOL0     H20534  11.939   3.324   3.954 -0.0384 -1.8780 -0.6503
  893MOL0     H20535  11.707   3.493   4.082 -2.0368 -3.8952 -3.2953
  893MOL0     H20536  11.837   3.567   3.995  0.9242 -2.1892 -1.2798
  893MOL0     H20537  11.054   2.795   3.947 -5.5004 -1.9357 -0.4489
  893MOL0     H20538  10.885   2.719   3.788  1.5338  0.6447  0.6359
  893MOL0     H20539  10.604   2.668   3.519 -1.4120  2.1811  0.2458
  893MOL0     H20540  10.425   2.573   3.380  2.7390 -1.3156 -0.7798
  893MOL0     H20541   9.281   2.870   1.756 -0.5285  0.0298 -1.2673
  893MOL0     H20542   9.185   2.690   1.627  1.3849  0.5776 -0.9244
  893MOL0     H20543   8.976   2.368   1.526  1.7611  1.2210  1.8312
  893MOL0     H20544   8.908   2.227   1.344 -1.9747  1.5445  2.5963
  893MOL0     H20545   8.865   2.055   1.208 -0.4991  0.5449  3.0645
  893MOL0     H20546   8.915   1.895   1.152 -0.6334  1.0856 -0.2288
  893MOL0     H20547   8.757   1.869   1.321  1.4795 -2.0041 -2.9664
  893MOL0     H20548   8.863   1.956   1.439 -2.1847 -0.3916  0.4585
  893MOL0     H20549   8.942   1.785   1.487  1.0197 -2.1651 -0.1245
  893MOL0     H20550   9.033   1.770   1.325  0.1035  3.2432 -0.9181
  893MOL0     H20551   8.780   1.635   1.417  0.4969  0.9179  0.5127
  893MOL0     H20552   8.925   1.535   1.392 -0.7170 -1.7995 -1.1496
  893MOL0     H20553   8.907   1.548   0.998 -3.1498 -0.9676 -1.1963
  893MOL0     H20554   9.266   1.977   1.401  2.7923  0.4040  1.1210
  893MOL0     H20555   9.341   2.123   1.581 -0.1049  0.0482 -0.0282
  894MOL0     O20556   9.806   2.478   9.689  0.3696 -0.7634 -0.1325
  894MOL0     C20557   9.861   2.588   9.696  0.8121  0.7003 -0.2934
  894MOL0     O20558   9.942   2.641   9.604 -0.2526 -0.0771  0.2110
  894MOL0     C20559   9.992   2.555   9.507 -0.5504 -0.2598  0.0436
  894MOL0     C20560  10.001   2.616   9.386 -0.2999 -0.1463  0.0657
  894MOL0     C20561  10.058   2.550   9.278  0.7318 -0.1234  1.2377
  894MOL0     C20562  10.125   2.424   9.300  0.4864 -0.1716 -0.2266
  894MOL0     O20563  10.177   2.375   9.184  0.6914 -0.3499 -0.1873
  894MOL0     C20564  10.208   2.234   9.187 -0.1997  0.4614  1.4258
  894MOL0     C20565  10.104   2.150   9.106 -0.1694  0.6468  0.1873
  894MOL0     C20566  10.085   2.199   8.959 -0.4526  0.5918  0.0436
  894MOL0     C20567   9.952   2.143   8.905 -0.0625  0.0419 -0.0005
  894MOL0     C20568   9.930   2.193   8.761 -0.6051 -0.1272 -0.7373
  894MOL0     C20569   9.782   2.203   8.724  0.2263 -0.7849 -1.1451
  894MOL0     C20570   9.709   2.340   8.762  0.3476  1.1350 -0.2601
  894MOL0     C20571   9.570   2.351   8.698  0.4153  0.5641  0.5320
  894MOL0     N20572   9.482   2.440   8.782 -0.3657 -0.4761  0.6257
  894MOL0     C20573   9.505   2.573   8.796  0.1444  0.4304 -0.6683
  894MOL0     C20574   9.428   2.613   8.896 -0.1042  0.4638  0.0067
  894MOL0     C20575   9.409   2.760   8.949 -0.3248  1.1868  0.0841
  894MOL0     C20576   9.265   2.797   8.982 -0.0106  1.1073  0.3788
  894MOL0     C20577   9.258   2.922   9.067 -0.5733  0.2456  0.0567
  894MOL0     C20578   9.114   2.963   9.097  0.5909 -0.0774 -0.7278
  894MOL0     O20579   9.124   3.076   9.186 -0.3386  0.5751  0.1541
  894MOL0     C20580   9.002   3.148   9.222  0.0297  0.3083 -0.0371
  894MOL0     C20581   9.014   3.245   9.323  0.4643 -0.5400 -0.4762
  894MOL0     C20582   8.899   3.305   9.377  0.1401 -0.0279 -0.8061
  894MOL0     C20583   8.916   3.394   9.497 -0.3678  0.0893 -0.6091
  894MOL0     C20584   8.777   3.285   9.311  0.2261 -0.1205  0.5189
  894MOL0     C20585   8.651   3.346   9.364  0.2184  0.1117  0.5512
  894MOL0     O20586   8.616   3.329   9.493  0.4495  0.7429 -0.1636
  894MOL0     C20587   8.483   3.351   9.529 -0.9145 -0.2884 -0.3759
  894MOL0     C20588   8.391   3.254   9.493  0.6283  0.6267 -0.6643
  894MOL0     C20589   8.255   3.290   9.509 -0.1781  0.2264 -0.6067
  894MOL0     C20590   8.211   3.413   9.567 -0.1702  0.5934 -0.1664
  894MOL0     O20591   8.081   3.452   9.589 -0.8718  0.3199 -0.6985
  894MOL0     C20592   7.973   3.402   9.523  0.0538  0.0161 -0.0252
  894MOL0     C20593   7.907   3.310   9.623  0.7938 -0.5346  0.7251
  894MOL0     C20594   7.805   3.367   9.726 -0.2056 -0.2451 -0.0230
  894MOL0     C20595   7.729   3.245   9.779 -0.5000 -0.4358 -0.1322
  894MOL0     C20596   7.628   3.279   9.887 -0.6670  0.4233 -0.9043
  894MOL0     C20597   7.532   3.164   9.908 -0.5085 -0.5568  0.0125
  894MOL0     C20598   7.449   3.100   9.797  0.1843 -0.0116 -0.4357
  894MOL0     C20599   7.376   2.985   9.858 -0.0414  0.3582 -0.3796
  894MOL0    Cl20600   7.270   3.031  10.000 -0.5328 -0.1624 -0.0669
  894MOL0     C20601   8.303   3.507   9.612 -0.0002 -0.3979  0.7614
  894MOL0     C20602   8.441   3.469   9.586 -0.6055  0.1857  0.2552
  894MOL0     O20603   8.564   3.387   9.281 -0.4861 -0.1210 -0.5242
  894MOL0     C20604   8.765   3.190   9.208  0.0669  0.0126  0.1233
  894MOL0     C20605   8.882   3.128   9.165 -0.3230  0.1535  0.0791
  894MOL0     N20606   9.352   2.510   8.946  0.0381 -0.5217  0.6051
  894MOL0     N20607   9.391   2.404   8.880 -0.8743 -0.9553 -0.2372
  894MOL0     C20608  10.128   2.372   9.431 -0.1833 -0.3369  0.6677
  894MOL0     C20609  10.057   2.432   9.530  0.8468 -0.5380  0.8615
  894MOL0     C20610   9.838   2.656   9.825  0.1181 -0.3313 -0.2347
  894MOL0     C20611   9.763   2.602   9.932  0.3913  0.5747  0.3171
  894MOL0     C20612   9.742   2.673  10.055  0.3492  0.8763  0.7031
  894MOL0     C20613   9.808   2.799  10.071  0.4117  0.6573 -0.2628
  894MOL0     O20614   9.804   2.869  10.188  0.0087 -0.1612  0.9892
  894MOL0     C20615   9.746   2.807  10.293  0.6100 -0.0632 -0.5774
  894MOL0     C20616   9.749   2.898  10.421  1.0302  0.0766  0.1642
  894MOL0     C20617   9.655   3.016  10.406  0.5498  0.5379 -0.1061
  894MOL0     C20618   9.665   3.100  10.534  0.3838 -0.1513  0.5070
  894MOL0     C20619   9.546   3.185  10.547  0.0738  0.6434 -0.2947
  894MOL0     C20620   9.452   3.264  10.551 -0.5456 -0.0899  0.3666
  894MOL0     C20621   9.886   2.850   9.972  0.3383 -0.9052 -0.0899
  894MOL0     C20622   9.897   2.782   9.852 -0.5714 -0.6524  0.3998
  894MOL0     H20623   9.973   2.719   9.368 -0.2081 -0.3135 -1.1157
  894MOL0     H20624  10.074   2.584   9.177  2.6861 -0.5444  1.3772
  894MOL0     H20625  10.307   2.231   9.141 -0.5036  0.5250  0.7631
  894MOL0     H20626  10.229   2.192   9.286  3.8809  0.7785  0.8641
  894MOL0     H20627  10.122   2.043   9.096  0.3676  0.8708 -1.4803
  894MOL0     H20628  10.011   2.170   9.161 -2.4187 -1.4552 -2.5942
  894MOL0     H20629  10.102   2.307   8.950  6.0845 -0.2224 -2.6933
  894MOL0     H20630  10.164   2.161   8.894 -1.6150  0.9046 -1.6399
  894MOL0     H20631   9.929   2.037   8.905 -2.5762  0.5368  0.4614
  894MOL0     H20632   9.874   2.178   8.973  0.0643  3.4078 -1.3711
  894MOL0     H20633   9.966   2.295   8.747 -0.1602  0.0732  1.4634
  894MOL0     H20634   9.973   2.121   8.691  0.0839 -0.3181 -0.1296
  894MOL0     H20635   9.783   2.191   8.616  0.6666  3.3614 -1.7393
  894MOL0     H20636   9.719   2.125   8.770 -1.8811  0.4457 -1.8206
  894MOL0     H20637   9.702   2.352   8.870  2.4400 -2.6954  0.4778
  894MOL0     H20638   9.777   2.421   8.736 -1.0640  2.7075  0.7743
  894MOL0     H20639   9.535   2.247   8.700  0.0844  0.6419 -0.4469
  894MOL0     H20640   9.575   2.373   8.591  3.4904 -2.0039 -0.0280
  894MOL0     H20641   9.560   2.628   8.721 -1.0503  1.4288 -0.8432
  894MOL0     H20642   9.464   2.759   9.043 -2.2458 -3.0309  1.4007
  894MOL0     H20643   9.451   2.830   8.876  1.5220  1.6579  1.5366
  894MOL0     H20644   9.227   2.712   9.039  0.9319  0.7485  0.4820
  894MOL0     H20645   9.216   2.814   8.885  3.0073 -1.6439 -1.8377
  894MOL0     H20646   9.308   2.999   9.007  4.4131 -3.1587 -0.7207
  894MOL0     H20647   9.318   2.916   9.158 -1.2212 -1.8439  0.3924
  894MOL0     H20648   9.076   2.877   9.154 -0.4208  2.5510  3.0052
  894MOL0     H20649   9.065   3.003   9.008  1.3789  3.0453  0.1198
  894MOL0     H20650   9.108   3.273   9.367  0.5485 -3.3716  1.4003
  894MOL0     H20651   8.886   3.497   9.473  0.6396  0.1172 -1.7684
  894MOL0     H20652   8.860   3.356   9.584  0.8526 -0.4501 -0.0444
  894MOL0     H20653   9.020   3.389   9.529 -0.7462 -1.2311  0.5347
  894MOL0     H20654   8.421   3.161   9.446 -1.5551 -1.4707  1.7740
  894MOL0     H20655   8.190   3.213   9.468 -1.6330  1.7697 -1.3545
  894MOL0     H20656   7.896   3.478   9.507 -1.1554 -0.7719  1.8337
  894MOL0     H20657   7.999   3.364   9.423  3.8852  2.2195 -0.1029
  894MOL0     H20658   7.845   3.235   9.572  0.3075  0.5755 -0.3640
  894MOL0     H20659   7.990   3.263   9.675  0.0577 -1.8721  0.7460
  894MOL0     H20660   7.736   3.426   9.665  0.1745 -2.4031 -2.7168
  894MOL0     H20661   7.859   3.412   9.810  2.4213  0.7480 -2.0871
  894MOL0     H20662   7.684   3.202   9.690 -0.7303 -1.7709  0.6064
  894MOL0     H20663   7.796   3.168   9.818  1.8502  0.6997 -1.7156
  894MOL0     H20664   7.562   3.351   9.837  0.2323  0.3847 -2.2074
  894MOL0     H20665   7.667   3.325   9.979 -3.0301  1.2832 -0.2579
  894MOL0     H20666   7.582   3.091   9.973  2.0283  1.1096  0.0572
  894MOL0     H20667   7.455   3.207   9.973  0.7592 -1.5623  2.3019
  894MOL0     H20668   7.507   3.062   9.713  1.1400  1.7117 -0.6205
  894MOL0     H20669   7.374   3.171   9.761 -2.8065 -1.5900  2.2105
  894MOL0     H20670   7.451   2.910   9.881  0.5781 -0.3087 -3.9807
  894MOL0     H20671   7.324   2.916   9.791  2.3360 -5.1588  2.7843
  894MOL0     H20672   8.280   3.611   9.631 -1.6295 -0.0631 -2.3458
  894MOL0     H20673   8.510   3.551   9.601 -1.8170  1.3629 -0.3138
  894MOL0     H20674   8.671   3.167   9.158  0.9508 -0.6387 -1.3004
  894MOL0     H20675   8.877   3.046   9.094  0.9410  0.6930 -0.6666
  894MOL0     H20676  10.202   2.295   9.451 -0.5635 -0.4486  1.6938
  894MOL0     H20677  10.050   2.392   9.631  0.4783  0.8432  1.3989
  894MOL0     H20678   9.711   2.508   9.921  1.5851 -0.0951  0.2574
  894MOL0     H20679   9.683   2.626  10.133 -1.7508  1.3590 -0.4942
  894MOL0     H20680   9.644   2.777  10.270  1.4927 -0.6351 -4.4104
  894MOL0     H20681   9.800   2.719  10.331  0.5554  1.3197  3.1173
  894MOL0     H20682   9.846   2.946  10.433 -0.3255  3.0669  0.1452
  894MOL0     H20683   9.735   2.843  10.515  2.9451 -0.8581 -0.0675
  894MOL0     H20684   9.554   2.987  10.376  0.8995 -0.0339 -0.7522
  894MOL0     H20685   9.697   3.074  10.323  2.7279 -1.5935 -0.6109
  894MOL0     H20686   9.753   3.165  10.532 -0.9758  1.7780  0.3244
  894MOL0     H20687   9.659   3.039  10.625  0.9523  0.0723  0.7015
  894MOL0     H20688   9.363   3.324  10.548 -3.0604 -3.5493  0.0936
  894MOL0     H20689   9.938   2.946   9.972 -0.0512 -0.6039 -3.0652
  894MOL0     H20690   9.956   2.829   9.774 -2.4192  0.1741 -0.5464
  895MOL0     O20691   9.201   2.401   0.970 -0.0307  0.2677 -0.2654
  895MOL0     C20692   9.319   2.391   0.938  0.4180 -0.6617  0.2526
  895MOL0     O20693   9.376   2.488   0.861 -0.4509  0.0427  0.1461
  895MOL0     C20694   9.306   2.595   0.822  0.2706 -0.7799 -0.0391
  895MOL0     C20695   9.351   2.715   0.868  0.5602  0.4305 -0.1799
  895MOL0     C20696   9.283   2.828   0.846  0.4240 -0.4208 -0.2760
  895MOL0     C20697   9.174   2.826   0.758 -0.9567 -0.2963 -0.1903
  895MOL0     O20698   9.092   2.940   0.748  0.5791 -0.1509  0.9079
  895MOL0     C20699   9.138   3.029   0.648 -0.2208  0.1807  0.5365
  895MOL0     C20700   9.044   3.028   0.531  0.5351 -0.1119  0.8031
  895MOL0     C20701   9.107   2.939   0.413 -0.2487 -0.4411  0.2648
  895MOL0     C20702   9.025   2.883   0.299 -0.2286  0.0668 -0.7259
  895MOL0     C20703   9.103   2.843   0.174 -0.7864 -0.7040 -0.6464
  895MOL0     C20704   9.195   2.931   0.080  0.5897  0.4826 -1.2252
  895MOL0     C20705   9.101   3.000  -0.027 -0.8511 -1.0162 -0.1763
  895MOL0     C20706   9.038   3.123   0.042 -0.6236 -0.2549  0.1028
  895MOL0     N20707   9.074   3.248  -0.015 -0.1569 -0.2632  0.3801
  895MOL0     C20708   9.015   3.277  -0.130 -0.0183  0.0287 -0.1312
  895MOL0     C20709   9.048   3.405  -0.153  0.8763 -0.1680 -0.1519
  895MOL0     C20710   9.009   3.472  -0.286  0.2671  0.8180 -0.5600
  895MOL0     C20711   8.867   3.482  -0.338  0.8300  0.0956  0.6692
  895MOL0     C20712   8.758   3.513  -0.229 -0.2954  0.8946 -0.5485
  895MOL0     C20713   8.625   3.573  -0.281 -0.4728  0.8015 -0.5277
  895MOL0     O20714   8.578   3.474  -0.373 -0.1355  0.9442  0.6769
  895MOL0     C20715   8.456   3.504  -0.441 -0.8798  0.2073 -0.9133
  895MOL0     C20716   8.413   3.408  -0.529  0.8324  0.8249 -0.1278
  895MOL0     C20717   8.295   3.413  -0.600 -0.3175 -0.1064  0.2775
  895MOL0     C20718   8.291   3.324  -0.722 -0.2962 -0.1684 -0.0895
  895MOL0     C20719   8.200   3.520  -0.574 -0.6979  0.0988  0.5814
  895MOL0     C20720   8.066   3.522  -0.624 -0.7022 -0.2464 -0.1639
  895MOL0     O20721   8.010   3.414  -0.671  0.1573 -0.2485 -0.3344
  895MOL0     C20722   7.891   3.399  -0.740 -0.6282 -0.0589  0.0864
  895MOL0     C20723   7.864   3.261  -0.761  0.4645 -0.9495 -0.0351
  895MOL0     C20724   7.742   3.218  -0.812 -0.4485  0.2559 -0.7520
  895MOL0     C20725   7.640   3.314  -0.852 -0.3070  0.1258  0.3663
  895MOL0     O20726   7.520   3.274  -0.899 -0.0504  0.9929  0.3221
  895MOL0     C20727   7.514   3.145  -0.969 -0.7371  0.1068 -0.6527
  895MOL0     C20728   7.396   3.147  -1.075 -0.8900  0.6010 -0.4872
  895MOL0     C20729   7.265   3.165  -0.999  0.8955  0.1701 -0.9271
  895MOL0     C20730   7.148   3.148  -1.090  0.3691 -0.4665  0.4400
  895MOL0     C20731   7.020   3.138  -1.005  0.0965 -0.2739  0.2606
  895MOL0     C20732   6.912   3.173  -1.099 -0.8228 -0.4612 -0.5430
  895MOL0     C20733   6.773   3.135  -1.041 -0.8782 -0.7545 -0.0387
  895MOL0     C20734   6.667   3.212  -1.099  0.3495 -0.8006  0.0213
  895MOL0    Cl20735   6.623   3.131  -1.238 -0.1388  0.6014  0.7293
  895MOL0     C20736   7.676   3.449  -0.829  0.3054 -0.1902  0.4012
  895MOL0     C20737   7.797   3.495  -0.771 -0.0503  0.4328 -0.3716
  895MOL0     O20738   8.010   3.627  -0.618  0.4956 -0.5301 -0.2606
  895MOL0     C20739   8.253   3.629  -0.498  0.0201 -0.5063  0.6934
  895MOL0     C20740   8.381   3.622  -0.421 -0.2598 -0.5925  1.3360
  895MOL0     N20741   9.128   3.457  -0.062 -0.7403 -0.5131 -0.2637
  895MOL0     N20742   9.147   3.360   0.030  0.0029 -0.2277  0.4814
  895MOL0     C20743   9.128   2.706   0.709  0.6741  1.2205 -0.7025
  895MOL0     C20744   9.192   2.591   0.740  0.3170 -0.2763 -0.1051
  895MOL0     C20745   9.397   2.275   0.969 -0.2824  0.8735 -0.6906
  895MOL0     C20746   9.332   2.163   1.031 -0.1795  0.1030  0.2008
  895MOL0     C20747   9.409   2.049   1.072  0.9971 -0.5314  0.4092
  895MOL0     C20748   9.553   2.060   1.060 -0.1659  0.3539  0.8344
  895MOL0     O20749   9.623   1.947   1.094  0.3238  0.2323  0.3070
  895MOL0     C20750   9.762   1.951   1.092  0.2464 -0.5541  0.0517
  895MOL0     C20751   9.813   1.819   1.162 -0.1341  0.1145 -0.6077
  895MOL0     C20752   9.757   1.692   1.086 -0.1572 -0.0104 -0.8329
  895MOL0     C20753   9.726   1.582   1.192 -0.4189  1.2804 -0.4071
  895MOL0     C20754   9.849   1.537   1.265 -0.2238  0.1531 -0.0633
  895MOL0     C20755   9.955   1.512   1.322  0.3355 -0.5340  0.3879
  895MOL0     C20756   9.613   2.183   1.024  0.5827 -0.0838  0.3318
  895MOL0     C20757   9.532   2.288   0.976 -0.7463  0.8016 -0.3345
  895MOL0     H20758   9.441   2.712   0.929  1.6870 -0.5723 -1.8036
  895MOL0     H20759   9.309   2.921   0.896 -0.1709  1.3878 -3.1092
  895MOL0     H20760   9.124   3.128   0.692  0.5824  2.7425 -4.2354
  895MOL0     H20761   9.244   3.024   0.625 -0.6760  1.6167 -2.3496
  895MOL0     H20762   8.953   2.977   0.565 -0.2030 -0.0226 -0.9430
  895MOL0     H20763   9.020   3.131   0.505 -1.0698 -0.6402  0.1015
  895MOL0     H20764   9.183   3.006   0.372 -2.3216  1.3269 -0.8441
  895MOL0     H20765   9.168   2.862   0.463 -2.1915 -1.5794  0.9956
  895MOL0     H20766   8.969   2.801   0.345 -0.6680  2.2556  3.1094
  895MOL0     H20767   8.960   2.961   0.257 -0.4607 -0.7927 -2.0240
  895MOL0     H20768   9.177   2.773   0.213  0.6465  1.3990  0.6280
  895MOL0     H20769   9.040   2.778   0.113 -1.4575 -2.7819  2.0724
  895MOL0     H20770   9.260   2.993   0.142 -2.5677  1.4878  1.3845
  895MOL0     H20771   9.268   2.878   0.020  2.7476  0.8647  0.9119
  895MOL0     H20772   9.168   3.024  -0.109 -1.1567 -3.9975 -1.4308
  895MOL0     H20773   9.013   2.937  -0.045 -3.1996  1.7581  0.7800
  895MOL0     H20774   9.045   3.126   0.151 -1.6988 -0.8679  0.2032
  895MOL0     H20775   8.933   3.110   0.014 -0.2448  0.6536 -1.9025
  895MOL0     H20776   8.956   3.208  -0.190  0.0738  0.3481 -0.5939
  895MOL0     H20777   9.052   3.572  -0.295  1.7146  0.2333 -0.4380
  895MOL0     H20778   9.077   3.417  -0.352  3.0404  2.3318  0.8557
  895MOL0     H20779   8.838   3.388  -0.385 -2.8361  2.1619 -1.7573
  895MOL0     H20780   8.854   3.560  -0.414  0.6160  0.8903  1.5035
  895MOL0     H20781   8.798   3.587  -0.159  0.7270 -1.2115  1.2036
  895MOL0     H20782   8.739   3.421  -0.174  2.2487  1.5627  1.6390
  895MOL0     H20783   8.654   3.663  -0.336  0.6130  0.9611  0.2618
  895MOL0     H20784   8.557   3.595  -0.198 -1.8911  1.5274 -1.8367
  895MOL0     H20785   8.482   3.324  -0.529 -0.7356 -0.5317 -0.8861
  895MOL0     H20786   8.249   3.225  -0.703 -0.0719 -0.4732 -1.1284
  895MOL0     H20787   8.225   3.367  -0.798 -2.9827  0.1371  2.2633
  895MOL0     H20788   8.388   3.308  -0.769 -1.1395 -0.5289 -1.7966
  895MOL0     H20789   7.934   3.192  -0.714  0.9835  0.4326  1.2797
  895MOL0     H20790   7.730   3.110  -0.818 -0.3239  0.0101  1.9270
  895MOL0     H20791   7.609   3.116  -1.014 -0.3860  0.6145 -0.2609
  895MOL0     H20792   7.499   3.066  -0.895  3.6549  1.6310  2.3157
  895MOL0     H20793   7.419   3.233  -1.138 -1.4481 -0.0323 -1.5703
  895MOL0     H20794   7.392   3.054  -1.132 -1.4293 -0.6283  1.4632
  895MOL0     H20795   7.255   3.263  -0.950 -5.1035 -0.0567 -0.9391
  895MOL0     H20796   7.260   3.088  -0.921 -0.5026  1.5195  0.4075
  895MOL0     H20797   7.142   3.235  -1.156 -2.8117 -0.9466 -0.0691
  895MOL0     H20798   7.160   3.056  -1.147 -1.5668 -1.1527  1.0436
  895MOL0     H20799   7.019   3.207  -0.920 -2.4545 -2.9832  2.6489
  895MOL0     H20800   7.008   3.038  -0.962 -0.2534 -0.7051 -0.8129
  895MOL0     H20801   6.914   3.282  -1.104  0.7154 -0.4471 -0.2642
  895MOL0     H20802   6.927   3.126  -1.197  0.0985 -1.2659 -0.0402
  895MOL0     H20803   6.771   3.138  -0.931 -3.3225 -2.9536  0.0694
  895MOL0     H20804   6.761   3.030  -1.067 -2.0988 -1.1932  2.0203
  895MOL0     H20805   6.692   3.316  -1.122 -2.2572 -0.5378 -2.0794
  895MOL0     H20806   6.580   3.213  -1.032 -0.1536  3.5531 -0.4176
  895MOL0     H20807   7.608   3.520  -0.876  0.6901 -1.8971 -3.0650
  895MOL0     H20808   7.820   3.600  -0.760 -0.4732  0.5147 -0.2322
  895MOL0     H20809   8.200   3.722  -0.479  1.7069  0.4888  0.7301
  895MOL0     H20810   8.425   3.709  -0.374  0.7047  0.3517 -1.1290
  895MOL0     H20811   9.030   2.702   0.662 -0.7226  0.7273  2.0316
  895MOL0     H20812   9.142   2.497   0.717  0.6346 -1.3615  3.0577
  895MOL0     H20813   9.225   2.149   1.027  0.1181 -2.4087 -2.2197
  895MOL0     H20814   9.360   1.959   1.107 -0.8740 -0.0475 -0.7957
  895MOL0     H20815   9.801   1.960   0.990  1.0475 -0.3634  0.3664
  895MOL0     H20816   9.797   2.038   1.148 -0.8430  0.4588 -0.7856
  895MOL0     H20817   9.775   1.821   1.264 -0.9463  2.8516 -0.8988
  895MOL0     H20818   9.922   1.808   1.167 -0.3736 -3.5071 -0.7349
  895MOL0     H20819   9.830   1.658   1.011 -1.1086 -3.8648 -0.2211
  895MOL0     H20820   9.665   1.716   1.032  0.7723 -0.3724 -2.6677
  895MOL0     H20821   9.673   1.499   1.144  0.8652  0.1498  0.0485
  895MOL0     H20822   9.660   1.612   1.273  0.3621  1.1483  0.2944
  895MOL0     H20823  10.053   1.488   1.359 -0.1308 -0.1270  1.9739
  895MOL0     H20824   9.722   2.183   1.021  0.6927 -3.7953  0.2284
  895MOL0     H20825   9.586   2.372   0.933  0.4816 -0.7605 -2.0676
  896MOL0     O20826   3.451  11.097   8.040  0.6546 -0.7846  0.1910
  896MOL0     C20827   3.529  11.039   8.111 -0.8580  0.7773 -0.2479
  896MOL0     O20828   3.650  11.084   8.144 -0.5971 -0.4960 -0.2279
  896MOL0     C20829   3.691  11.213   8.105 -0.1186 -0.6183 -0.3141
  896MOL0     C20830   3.808  11.208   8.037 -0.5531 -1.0811  0.3976
  896MOL0     C20831   3.860  11.335   7.984 -0.1398  0.3596 -0.6621
  896MOL0     C20832   3.791  11.456   8.008 -0.7705  0.4773 -0.8725
  896MOL0     O20833   3.857  11.566   7.961 -0.1956  1.2391 -0.1762
  896MOL0     C20834   3.844  11.669   8.063 -1.0320 -0.1718  0.3839
  896MOL0     C20835   3.925  11.787   8.005  0.4429 -0.4396  0.4172
  896MOL0     C20836   3.979  11.877   8.119  0.1151 -0.4543 -0.1634
  896MOL0     C20837   4.072  11.994   8.070  0.1613  0.0486 -1.0973
  896MOL0     C20838   4.076  12.094   8.191 -0.4515 -1.0492  0.4991
  896MOL0     C20839   4.180  12.209   8.182 -0.2744 -0.2229  0.8542
  896MOL0     C20840   4.164  12.306   8.067 -0.0675  0.3802 -0.4293
  896MOL0     C20841   4.230  12.438   8.094  0.3283 -0.5760 -0.5151
  896MOL0     N20842   4.225  12.513   7.975 -0.1783  0.1769  0.1480
  896MOL0     C20843   4.296  12.479   7.864 -0.2596 -0.8320  0.0717
  896MOL0     C20844   4.303  12.594   7.794 -0.3548  0.7280  0.1944
  896MOL0     C20845   4.361  12.604   7.649  1.1635  0.4842  0.4930
  896MOL0     C20846   4.244  12.604   7.550 -0.5614 -0.0033 -0.0204
  896MOL0     C20847   4.290  12.622   7.402  0.3345 -0.3163  0.0892
  896MOL0     C20848   4.353  12.502   7.343 -0.3747 -0.2033  0.5031
  896MOL0     O20849   4.269  12.386   7.373 -0.0871 -0.2048  0.3481
  896MOL0     C20850   4.312  12.275   7.317  0.1450  0.6503  0.3197
  896MOL0     C20851   4.310  12.253   7.185  0.0084  1.2229  0.4357
  896MOL0     C20852   4.343  12.130   7.128  0.0457  0.5734 -0.4713
  896MOL0     C20853   4.324  12.127   6.980 -0.3728  0.1152  0.6696
  896MOL0     C20854   4.381  12.027   7.212  0.0361  0.1967 -0.3261
  896MOL0     C20855   4.414  11.893   7.160 -1.0894  0.5191 -0.5556
  896MOL0     O20856   4.499  11.805   7.245  0.9444 -0.4086  0.2742
  896MOL0     C20857   4.529  11.683   7.187  0.2227  0.5693 -0.2279
  896MOL0     C20858   4.435  11.574   7.210 -0.3055 -0.6474  0.0433
  896MOL0     C20859   4.472  11.442   7.175  0.0859  0.7321  0.4228
  896MOL0     C20860   4.604  11.420   7.129  1.1541 -0.8741 -0.4956
  896MOL0     O20861   4.630  11.291   7.117  0.2406  0.7889  0.0308
  896MOL0     C20862   4.702  11.238   7.007 -0.7730 -0.1142  0.5665
  896MOL0     C20863   4.621  11.115   6.955 -0.0366 -0.6314 -0.4155
  896MOL0     C20864   4.722  11.019   6.879 -0.2832 -0.5674 -0.3230
  896MOL0     C20865   4.661  10.882   6.852  0.0884  0.3775  0.3871
  896MOL0     C20866   4.650  10.796   6.973  1.1259  0.5274 -0.4944
  896MOL0     C20867   4.621  10.641   6.952 -0.4749 -1.0128  0.3510
  896MOL0     C20868   4.513  10.624   6.832 -0.3735 -0.8370 -0.2337
  896MOL0     C20869   4.377  10.678   6.863 -0.2047 -0.0037 -0.4189
  896MOL0    Cl20870   4.319  10.586   7.007  0.4969  0.1406  0.0812
  896MOL0     C20871   4.697  11.528   7.128 -0.1069 -0.1969 -0.1018
  896MOL0     C20872   4.665  11.659   7.152 -0.5533 -0.0023 -0.5997
  896MOL0     O20873   4.377  11.856   7.047 -0.5079  0.4626  0.0755
  896MOL0     C20874   4.384  12.040   7.358 -0.0002 -0.3375 -0.0119
  896MOL0     C20875   4.350  12.170   7.409  0.4304  1.4228  0.2709
  896MOL0     N20876   4.220  12.687   7.854 -0.4376 -0.4801 -1.0927
  896MOL0     N20877   4.184  12.642   7.964  0.2923  0.3043 -0.9326
  896MOL0     C20878   3.662  11.451   8.074 -0.3230  0.7181 -0.6563
  896MOL0     C20879   3.616  11.331   8.126  1.2660 -0.5917  0.2731
  896MOL0     C20880   3.472  10.911   8.176 -0.1811  0.9184  0.0117
  896MOL0     C20881   3.548  10.814   8.244  0.4842 -0.2699  0.5420
  896MOL0     C20882   3.484  10.703   8.307  0.1707 -0.5222 -1.1636
  896MOL0     C20883   3.351  10.680   8.310  0.1033 -0.3872  0.2471
  896MOL0     O20884   3.293  10.580   8.387 -0.1834 -0.0400  0.0959
  896MOL0     C20885   3.373  10.487   8.462  0.1260  0.4126 -0.0691
  896MOL0     C20886   3.292  10.368   8.506  0.8699  0.7600 -0.9975
  896MOL0     C20887   3.239  10.275   8.398  0.3121 -0.7170  1.0441
  896MOL0     C20888   3.115  10.197   8.444 -0.2275  0.2075  0.0439
  896MOL0     C20889   3.137  10.127   8.571  0.6683  0.6448  0.5268
  896MOL0     C20890   3.143  10.045   8.660 -0.3842 -0.2146 -0.7958
  896MOL0     C20891   3.269  10.778   8.256 -0.2043 -0.8946 -0.4296
  896MOL0     C20892   3.326  10.892   8.195 -0.5824 -1.0795  0.3807
  896MOL0     H20893   3.848  11.112   8.004 -0.3611 -1.5285  1.8824
  896MOL0     H20894   3.954  11.322   7.931 -1.1803 -3.2893 -1.9007
  896MOL0     H20895   3.737  11.691   8.075 -1.9301 -2.5527 -2.2731
  896MOL0     H20896   3.874  11.641   8.165  1.5960  2.2509  0.3968
  896MOL0     H20897   4.018  11.756   7.957  0.0614 -2.5762  0.9931
  896MOL0     H20898   3.867  11.841   7.929 -0.4958  0.1719  1.5279
  896MOL0     H20899   3.897  11.922   8.174  0.8258 -1.5977  1.9742
  896MOL0     H20900   4.040  11.818   8.188 -5.5612 -2.2556  3.9906
  896MOL0     H20901   4.175  11.959   8.067  1.6903  3.3917  2.8002
  896MOL0     H20902   4.035  12.056   7.987 -0.8507 -1.3117 -1.7043
  896MOL0     H20903   3.976  12.136   8.205 -0.6051 -1.5432  0.9385
  896MOL0     H20904   4.099  12.034   8.280 -0.8917 -1.8696  0.0706
  896MOL0     H20905   4.164  12.268   8.273 -3.2082  0.8506 -0.2313
  896MOL0     H20906   4.281  12.167   8.180 -1.7430 -4.2765  1.9505
  896MOL0     H20907   4.204  12.264   7.974 -0.7592 -2.6419  0.5115
  896MOL0     H20908   4.058  12.329   8.054 -0.2979 -0.3620  0.0577
  896MOL0     H20909   4.336  12.424   8.117  0.4201 -1.1954 -1.3181
  896MOL0     H20910   4.181  12.500   8.170 -2.1665 -0.8885 -1.7778
  896MOL0     H20911   4.351  12.388   7.839  2.0026  0.4734  0.0605
  896MOL0     H20912   4.413  12.700   7.642  0.2436  0.9784  0.2205
  896MOL0     H20913   4.429  12.519   7.639 -0.4988 -0.8469 -0.0244
  896MOL0     H20914   4.170  12.683   7.562 -1.1694 -0.6892  0.9919
  896MOL0     H20915   4.189  12.509   7.554 -1.8093  0.7158  1.2350
  896MOL0     H20916   4.352  12.712   7.398 -1.3560  0.8520 -2.4812
  896MOL0     H20917   4.202  12.657   7.347 -0.9289 -0.5719  1.8796
  896MOL0     H20918   4.455  12.492   7.380 -0.5584  3.8373  2.6831
  896MOL0     H20919   4.365  12.520   7.236 -1.0827  0.1516  0.4748
  896MOL0     H20920   4.293  12.334   7.115 -1.9559 -0.6421 -1.4280
  896MOL0     H20921   4.245  12.056   6.952  0.2527 -0.3702  0.1147
  896MOL0     H20922   4.311  12.224   6.932  0.4817 -0.3550 -0.5617
  896MOL0     H20923   4.415  12.087   6.935 -0.2794 -0.2846  1.2078
  896MOL0     H20924   4.338  11.585   7.258 -0.5598 -0.3558 -0.5226
  896MOL0     H20925   4.410  11.355   7.197 -0.0056 -0.9809 -5.0988
  896MOL0     H20926   4.723  11.308   6.926 -1.0684 -0.6614  0.0085
  896MOL0     H20927   4.802  11.209   7.041 -0.8222  1.2940  2.0436
  896MOL0     H20928   4.588  11.058   7.043  1.4853 -0.4592  0.3054
  896MOL0     H20929   4.536  11.146   6.893  0.4021 -2.0284 -1.7765
  896MOL0     H20930   4.819  11.003   6.925 -0.8075  0.2772  1.1354
  896MOL0     H20931   4.760  11.065   6.787 -0.2322  2.9604  1.2854
  896MOL0     H20932   4.558  10.905   6.823  0.4346  1.7376  0.1609
  896MOL0     H20933   4.708  10.839   6.763 -1.7565 -0.0102 -0.4524
  896MOL0     H20934   4.565  10.829   7.033 -0.5992  0.3638 -2.7162
  896MOL0     H20935   4.732  10.810   7.044  0.3018 -0.3315  0.6597
  896MOL0     H20936   4.717  10.596   6.925  0.4971  0.7261  0.7386
  896MOL0     H20937   4.584  10.597   7.045 -0.6284 -0.3743  0.5941
  896MOL0     H20938   4.512  10.520   6.798  0.5813 -1.0018  0.1853
  896MOL0     H20939   4.547  10.683   6.746 -1.1921  2.5942  1.5941
  896MOL0     H20940   4.317  10.663   6.773  0.8598  2.4937 -1.6602
  896MOL0     H20941   4.365  10.785   6.885  1.4030  0.5152 -1.8430
  896MOL0     H20942   4.801  11.513   7.101  0.2234  1.3166  0.2705
  896MOL0     H20943   4.748  11.728   7.153  3.0335 -3.9455  1.0523
  896MOL0     H20944   4.420  11.964   7.426 -0.6703 -3.6779 -3.0670
  896MOL0     H20945   4.335  12.198   7.513  1.7894  0.4921  0.7387
  896MOL0     H20946   3.590  11.533   8.083 -1.5494 -0.5166  1.4263
  896MOL0     H20947   3.520  11.322   8.177  0.3940  1.1015 -0.9839
  896MOL0     H20948   3.656  10.816   8.253  0.5840  1.3890 -0.5900
  896MOL0     H20949   3.557  10.642   8.360  0.4150 -1.0641 -2.0970
  896MOL0     H20950   3.454  10.441   8.404  1.1954  3.5556 -1.2955
  896MOL0     H20951   3.413  10.540   8.549 -2.0238  1.0398  0.5915
  896MOL0     H20952   3.207  10.408   8.561 -0.3476  1.1604 -3.0687
  896MOL0     H20953   3.347  10.306   8.578 -1.6997 -0.6545 -0.1375
  896MOL0     H20954   3.318  10.202   8.380 -0.1512 -1.0445  0.3063
  896MOL0     H20955   3.215  10.334   8.309 -1.0006  0.1503  1.9340
  896MOL0     H20956   3.095  10.133   8.358  2.7293 -0.0029 -0.6011
  896MOL0     H20957   3.025  10.258   8.457  0.7052  2.4203 -2.9090
  896MOL0     H20958   3.145   9.973   8.739  1.1176  0.9022  0.2453
  896MOL0     H20959   3.162  10.787   8.272  0.2799 -0.8892  3.8605
  896MOL0     H20960   3.265  10.977   8.164  0.7893  1.2454  3.5057
  897MOL0     O20961  11.396  11.261   6.150  0.5452 -1.0107 -0.1856
  897MOL0     C20962  11.321  11.254   6.245  0.8441 -0.2552  1.0383
  897MOL0     O20963  11.331  11.318   6.365  0.8947  0.6891  0.1412
  897MOL0     C20964  11.429  11.418   6.386 -0.5350  1.2999  0.3134
  897MOL0     C20965  11.437  11.539   6.312  0.1503 -0.6483 -0.5921
  897MOL0     C20966  11.532  11.632   6.369 -0.3852  0.1135  0.2778
  897MOL0     C20967  11.610  11.610   6.483 -1.1121  0.2149  0.2039
  897MOL0     O20968  11.711  11.689   6.529 -0.0123 -0.0278  0.1713
  897MOL0     C20969  11.788  11.772   6.437  0.2195  0.2613  0.1291
  897MOL0     C20970  11.920  11.810   6.500 -0.4317  0.2817 -0.3616
  897MOL0     C20971  12.005  11.686   6.522  0.9900 -0.7759 -0.4094
  897MOL0     C20972  12.153  11.720   6.545  0.0845 -0.4760  1.1119
  897MOL0     C20973  12.190  11.804   6.667  0.4329 -0.0555  0.3570
  897MOL0     C20974  12.129  11.750   6.801  0.4827  0.7693  0.1069
  897MOL0     C20975  12.171  11.610   6.840  0.0343 -0.7062 -0.6455
  897MOL0     C20976  12.084  11.551   6.944 -0.2660  0.2945  0.3334
  897MOL0     N20977  11.954  11.491   6.897  0.8729  0.2502 -0.5225
  897MOL0     C20978  11.919  11.359   6.886  0.6270  0.2630 -0.6666
  897MOL0     C20979  11.786  11.352   6.865  0.1898  0.4022  0.1258
  897MOL0     C20980  11.690  11.230   6.871 -0.6280 -0.1731  0.0890
  897MOL0     C20981  11.745  11.113   6.785 -0.0804 -0.4826  0.1195
  897MOL0     C20982  11.659  10.992   6.837 -1.3113  0.8798  0.3576
  897MOL0     C20983  11.745  10.876   6.883 -0.4386  0.4694 -0.4596
  897MOL0     O20984  11.665  10.800   6.979 -1.0563 -0.0600 -0.6358
  897MOL0     C20985  11.611  10.696   6.917  1.1943  0.9359 -0.4697
  897MOL0     C20986  11.695  10.598   6.863 -0.8305  0.1065  0.2269
  897MOL0     C20987  11.646  10.499   6.766  0.2764  0.1281 -0.9038
  897MOL0     C20988  11.742  10.428   6.679  0.0949 -0.4631 -0.0321
  897MOL0     C20989  11.496  10.502   6.761 -0.8421  0.1226  0.3741
  897MOL0     C20990  11.418  10.400   6.683  0.2997  0.8279  0.2925
  897MOL0     O20991  11.292  10.372   6.729  0.2232 -0.3011  0.1883
  897MOL0     C20992  11.234  10.259   6.663 -0.7381  0.7929 -0.2241
  897MOL0     C20993  11.181  10.163   6.741  0.1359  0.3129 -0.9266
  897MOL0     C20994  11.103  10.052   6.696 -0.2994  0.1618  0.0097
  897MOL0     C20995  11.069  10.044   6.562  1.0877  0.1045  0.3569
  897MOL0     O20996  10.976   9.958   6.514  0.2867 -0.7963  1.0506
  897MOL0     C20997  10.863   9.904   6.587  1.0005  0.4729  0.5325
  897MOL0     C20998  10.879   9.756   6.612 -1.6213 -0.6231 -0.0662
  897MOL0     C20999  10.870   9.683   6.481 -0.1251 -0.7633  0.4251
  897MOL0     C21000  10.910   9.538   6.511  0.0929  0.1842  0.0775
  897MOL0     C21001  10.884   9.444   6.384  0.5724 -0.5851 -0.3189
  897MOL0     C21002  10.929   9.494   6.244  0.2335  0.1210  0.4298
  897MOL0     C21003  10.970   9.374   6.154 -0.2530 -0.7334 -0.0101
  897MOL0     C21004  11.004   9.404   6.003  1.3096  0.5813  0.1429
  897MOL0    Cl21005  11.054   9.248   5.921  0.3820 -0.5019  0.1298
  897MOL0     C21006  11.127  10.133   6.480 -0.6781 -0.7899  0.5506
  897MOL0     C21007  11.215  10.234   6.525 -0.0008 -0.3282 -0.7857
  897MOL0     O21008  11.475  10.345   6.593 -0.0667  0.2720  0.1150
  897MOL0     C21009  11.416  10.597   6.824 -0.1490 -0.2076 -0.6747
  897MOL0     C21010  11.472  10.692   6.908 -0.0513 -0.5136  0.0433
  897MOL0     N21011  11.742  11.483   6.868  0.0498 -0.6322  0.9319
  897MOL0     N21012  11.843  11.566   6.893 -0.5180  0.4789  0.2812
  897MOL0     C21013  11.587  11.488   6.549 -0.2275  0.6568  0.3321
  897MOL0     C21014  11.502  11.391   6.501  1.4363  0.6869  0.4345
  897MOL0     C21015  11.207  11.160   6.237 -0.2102 -0.6809  0.1273
  897MOL0     C21016  11.201  11.063   6.144 -0.4582 -0.2459  0.1748
  897MOL0     C21017  11.101  10.955   6.145 -0.9414  0.1668 -0.1506
  897MOL0     C21018  11.004  10.949   6.244  0.0409 -0.3844  0.0003
  897MOL0     O21019  10.902  10.855   6.220 -0.1437  0.0177 -0.8076
  897MOL0     C21020  10.781  10.882   6.288 -0.5382 -0.1821 -0.5306
  897MOL0     C21021  10.675  10.791   6.244  0.7027  0.7116  0.1246
  897MOL0     C21022  10.667  10.774   6.089  0.2177 -0.7601 -0.5268
  897MOL0     C21023  10.564  10.667   6.050  0.1342  0.5326  0.3649
  897MOL0     C21024  10.601  10.541   6.093 -0.1687  0.0184  0.5859
  897MOL0     C21025  10.634  10.425   6.107 -0.2365 -0.1920 -0.3482
  897MOL0     C21026  11.013  11.047   6.341  0.5627 -0.6883  0.7447
  897MOL0     C21027  11.103  11.160   6.332  0.3152  0.1319 -0.3958
  897MOL0     H21028  11.360  11.564   6.239  1.0432  0.8604 -1.0686
  897MOL0     H21029  11.535  11.727   6.319 -1.2181  0.4124  0.7775
  897MOL0     H21030  11.806  11.728   6.339  2.2198 -1.3963  1.1580
  897MOL0     H21031  11.736  11.868   6.428  0.1072  0.2167  0.3032
  897MOL0     H21032  11.979  11.884   6.446 -0.3860  0.7035  0.2586
  897MOL0     H21033  11.898  11.854   6.598  1.6370 -1.9932  1.2559
  897MOL0     H21034  11.974  11.627   6.609  4.1885 -1.3130  0.5180
  897MOL0     H21035  11.994  11.620   6.435 -1.8577  0.1014 -0.8265
  897MOL0     H21036  12.215  11.631   6.555  2.5589  1.1735  1.3434
  897MOL0     H21037  12.195  11.779   6.463 -1.5705  0.8453  1.1441
  897MOL0     H21038  12.298  11.813   6.676  0.3958 -0.7457  1.7525
  897MOL0     H21039  12.145  11.901   6.644 -2.5154 -0.8624  2.1591
  897MOL0     H21040  12.148  11.822   6.881  0.4891 -0.6627  1.4462
  897MOL0     H21041  12.020  11.743   6.789  0.3799 -0.2708  1.3185
  897MOL0     H21042  12.155  11.540   6.758 -2.6960  1.6954 -2.3870
  897MOL0     H21043  12.275  11.614   6.874 -0.3972 -2.0426  0.9549
  897MOL0     H21044  12.062  11.633   7.012  1.9796  2.2947 -1.1794
  897MOL0     H21045  12.150  11.480   6.995  0.4606  0.3088 -0.5493
  897MOL0     H21046  11.973  11.271   6.920 -1.6241 -1.5103 -1.4358
  897MOL0     H21047  11.675  11.192   6.972  0.8355  2.1022  1.2532
  897MOL0     H21048  11.600  11.264   6.820  1.0957  1.0731 -2.3332
  897MOL0     H21049  11.853  11.097   6.786  0.3424  1.4319 -3.0499
  897MOL0     H21050  11.709  11.123   6.683  0.1753 -0.5661  0.0208
  897MOL0     H21051  11.603  10.963   6.748  0.7646  1.4491 -1.2126
  897MOL0     H21052  11.599  11.019   6.924  0.0998 -0.5157  1.8404
  897MOL0     H21053  11.835  10.916   6.931 -0.0032 -1.6316  0.5810
  897MOL0     H21054  11.772  10.820   6.793  1.5621  1.2391 -0.4003
  897MOL0     H21055  11.803  10.597   6.869 -0.7924  0.4827 -0.3727
  897MOL0     H21056  11.733  10.319   6.674 -1.2116 -0.3981  0.5157
  897MOL0     H21057  11.742  10.465   6.576  1.0687 -0.5655 -0.0775
  897MOL0     H21058  11.840  10.444   6.724 -0.7650  0.2811  1.6930
  897MOL0     H21059  11.178  10.184   6.848  1.6143 -0.2659 -0.7512
  897MOL0     H21060  11.077   9.979   6.773 -1.4687  2.8626  2.4007
  897MOL0     H21061  10.850   9.960   6.681  1.9986 -0.0987  1.0268
  897MOL0     H21062  10.770   9.923   6.534  1.2639  1.0425  0.2648
  897MOL0     H21063  10.970   9.729   6.667 -0.8953 -3.8383 -2.5161
  897MOL0     H21064  10.801   9.712   6.675 -0.9829 -0.7243  0.6690
  897MOL0     H21065  10.932   9.732   6.405 -5.5014  2.2370 -2.6015
  897MOL0     H21066  10.772   9.681   6.432  0.3081 -0.9803 -0.4617
  897MOL0     H21067  11.016   9.540   6.540  0.0653  0.7710  0.1364
  897MOL0     H21068  10.858   9.499   6.599  0.6558  2.3955  1.4514
  897MOL0     H21069  10.781   9.408   6.385  1.7469 -4.2538  0.9628
  897MOL0     H21070  10.956   9.363   6.396  0.6636 -0.2987  1.2056
  897MOL0     H21071  10.848   9.559   6.211  1.0751  1.6369  1.2473
  897MOL0     H21072  11.018   9.557   6.253 -1.4270  2.5854  0.6136
  897MOL0     H21073  10.880   9.311   6.155  0.8017 -2.3080 -0.5973
  897MOL0     H21074  11.048   9.315   6.204 -1.1482 -0.6671  1.5512
  897MOL0     H21075  11.072   9.488   5.986  0.9959  0.5486 -1.3584
  897MOL0     H21076  10.909   9.439   5.961  1.4355 -0.5473 -1.1541
  897MOL0     H21077  11.111  10.139   6.373  1.8649  1.5838  0.1941
  897MOL0     H21078  11.250  10.313   6.459  0.5359  2.1608  2.2104
  897MOL0     H21079  11.310  10.584   6.803  0.0820  0.6578 -2.7199
  897MOL0     H21080  11.411  10.764   6.961  2.7868  1.0381  1.4156
  897MOL0     H21081  11.645  11.463   6.638  0.2378  1.2557  0.2072
  897MOL0     H21082  11.482  11.301   6.559  1.2166 -0.0516 -0.7630
  897MOL0     H21083  11.275  11.050   6.066  0.0302 -2.9428  0.9670
  897MOL0     H21084  11.128  10.872   6.081  1.2429 -1.8030  3.0308
  897MOL0     H21085  10.791  10.866   6.395  1.5183  0.1164 -0.6494
  897MOL0     H21086  10.751  10.983   6.258  0.4116  0.5937  1.0528
  897MOL0     H21087  10.588  10.835   6.295 -0.4150 -1.4044  0.1596
  897MOL0     H21088  10.701  10.689   6.274 -0.5868  0.0016 -1.0393
  897MOL0     H21089  10.766  10.752   6.050 -0.0642 -1.9543 -0.6127
  897MOL0     H21090  10.627  10.865   6.043  0.9738 -0.3769 -0.4396
  897MOL0     H21091  10.546  10.661   5.943 -0.8386 -0.7811  0.5664
  897MOL0     H21092  10.467  10.695   6.093 -0.1364  1.1539 -0.6087
  897MOL0     H21093  10.689  10.333   6.107 -0.0832 -0.1024 -0.0529
  897MOL0     H21094  10.943  11.029   6.422 -0.7957 -0.5635 -0.3658
  897MOL0     H21095  11.093  11.249   6.394  1.2871  0.2863 -0.4417
  898MOL0     O21096   4.635   2.718   9.091 -0.7496 -0.2628 -0.8764
  898MOL0     C21097   4.747   2.768   9.107  0.0529  0.4427 -0.5988
  898MOL0     O21098   4.801   2.809   9.220  0.0623 -0.3993 -0.3672
  898MOL0     C21099   4.736   2.791   9.338 -0.0159 -0.2802  0.3436
  898MOL0     C21100   4.665   2.678   9.370 -0.0271  0.1026 -1.1237
  898MOL0     C21101   4.594   2.670   9.498 -0.8772  0.3562  0.7184
  898MOL0     C21102   4.611   2.779   9.582  0.5423  0.4292 -0.2915
  898MOL0     O21103   4.535   2.792   9.695  0.5167  0.0804 -0.1805
  898MOL0     C21104   4.605   2.845   9.812  0.5555  0.4281  0.0140
  898MOL0     C21105   4.568   2.745   9.924  0.5504 -0.5962 -1.2075
  898MOL0     C21106   4.580   2.592   9.905 -0.2383  0.3174 -0.3752
  898MOL0     C21107   4.723   2.552   9.888  0.9075  0.7487 -0.0995
  898MOL0     C21108   4.739   2.399   9.923 -0.1982  0.1118  0.8374
  898MOL0     C21109   4.882   2.335   9.916 -1.1420  0.7215  0.7910
  898MOL0     C21110   4.958   2.295   9.779 -1.0961  0.5731 -0.1967
  898MOL0     C21111   4.876   2.188   9.705 -0.8139  0.0730  0.3697
  898MOL0     N21112   4.930   2.152   9.563 -0.1771 -0.4797 -0.3800
  898MOL0     C21113   5.007   2.041   9.534  0.0223  0.0308 -0.3891
  898MOL0     C21114   5.058   2.065   9.413  0.6919 -1.0934  0.1413
  898MOL0     C21115   5.160   1.978   9.344 -0.8243  0.0136 -0.3957
  898MOL0     C21116   5.245   2.053   9.237 -0.2526  0.6795  0.6215
  898MOL0     C21117   5.353   1.962   9.158 -0.0504 -0.0579 -0.3430
  898MOL0     C21118   5.477   2.042   9.127  0.1937 -0.5081 -0.1341
  898MOL0     O21119   5.525   2.101   9.257 -1.4624 -1.0060  0.0038
  898MOL0     C21120   5.615   2.200   9.255 -0.6929 -0.0433 -0.8642
  898MOL0     C21121   5.749   2.188   9.209  0.0656 -0.2206  0.5554
  898MOL0     C21122   5.840   2.293   9.205 -0.9616 -0.6536  0.3775
  898MOL0     C21123   5.977   2.268   9.147 -0.6792 -0.2173  0.3389
  898MOL0     C21124   5.792   2.423   9.240 -0.4349 -0.4741 -0.8622
  898MOL0     C21125   5.873   2.544   9.239  0.8047 -0.9123  0.6558
  898MOL0     O21126   5.827   2.642   9.319 -0.2064  0.0506  0.3572
  898MOL0     C21127   5.915   2.752   9.331  1.2388 -0.2202  1.1920
  898MOL0     C21128   6.027   2.758   9.405 -0.2852 -0.4250 -0.6916
  898MOL0     C21129   6.099   2.882   9.416  0.3136 -0.3434  0.4009
  898MOL0     C21130   6.067   2.991   9.332 -0.1785  0.1148 -0.1234
  898MOL0     O21131   6.142   3.098   9.351  0.4168 -0.6054  0.1307
  898MOL0     C21132   6.243   3.103   9.249  0.1385  0.1498 -0.0507
  898MOL0     C21133   6.378   3.126   9.325  0.2313  0.0784 -1.0498
  898MOL0     C21134   6.495   3.131   9.243 -0.7488  0.8746  0.7729
  898MOL0     C21135   6.611   3.188   9.341 -0.1419 -0.2633  0.5420
  898MOL0     C21136   6.756   3.175   9.279 -0.6052 -0.5942 -0.1834
  898MOL0     C21137   6.855   3.216   9.390  0.9261  0.2694  0.9506
  898MOL0     C21138   6.992   3.146   9.377 -1.5937 -0.0855 -0.2025
  898MOL0     C21139   7.059   3.127   9.517  0.4634 -0.6034  0.2852
  898MOL0    Cl21140   6.975   2.997   9.607 -0.0025  0.0321  0.2217
  898MOL0     C21141   5.957   2.986   9.255  0.2969  0.0524 -0.0899
  898MOL0     C21142   5.878   2.870   9.257 -0.5273  0.1381 -0.7181
  898MOL0     O21143   5.980   2.546   9.184 -0.1775 -0.3753  0.1027
  898MOL0     C21144   5.659   2.429   9.289  0.2824 -0.2811  0.0279
  898MOL0     C21145   5.573   2.326   9.290 -0.1638  0.7255 -0.1865
  898MOL0     N21146   4.994   2.186   9.371 -1.4202 -1.0924  0.1814
  898MOL0     N21147   4.922   2.241   9.457  0.4136 -0.6103 -0.0878
  898MOL0     C21148   4.680   2.888   9.536 -0.2154 -0.6570  0.8930
  898MOL0     C21149   4.748   2.894   9.420 -0.9785 -0.1641 -0.2806
  898MOL0     C21150   4.839   2.791   8.992 -0.2386  0.7908 -0.2177
  898MOL0     C21151   4.793   2.742   8.868  0.2733  0.0538  0.5731
  898MOL0     C21152   4.881   2.750   8.762 -0.1051  0.9398 -1.3691
  898MOL0     C21153   5.014   2.782   8.781 -0.7690  0.1395 -0.0155
  898MOL0     O21154   5.113   2.773   8.693  0.6794 -0.4826 -0.0083
  898MOL0     C21155   5.104   2.657   8.609  0.1250 -0.0799  0.6160
  898MOL0     C21156   5.249   2.613   8.580 -0.9757  1.0234 -0.2325
  898MOL0     C21157   5.230   2.484   8.496 -0.7328 -0.3735  0.2882
  898MOL0     C21158   5.214   2.512   8.344  0.1426 -0.3247  0.4473
  898MOL0     C21159   5.213   2.372   8.281  0.8672 -0.8906 -0.8825
  898MOL0     C21160   5.217   2.268   8.230  0.6776  0.9027  0.3669
  898MOL0     C21161   5.053   2.836   8.905  0.8643  0.1632  0.0465
  898MOL0     C21162   4.960   2.849   9.007  0.6657  0.4585 -0.0173
  898MOL0     H21163   4.686   2.598   9.299  1.3837 -0.2719 -0.3065
  898MOL0     H21164   4.541   2.585   9.539 -1.1663  0.1682 -0.0353
  898MOL0     H21165   4.711   2.838   9.784  0.3449 -0.0105 -0.7101
  898MOL0     H21166   4.582   2.948   9.840 -2.0311  0.4542 -1.8698
  898MOL0     H21167   4.640   2.764  10.004 -1.3942  0.8262  0.3211
  898MOL0     H21168   4.465   2.773   9.949  0.0670 -0.2650 -3.3650
  898MOL0     H21169   4.535   2.534   9.985 -1.5760 -1.4317 -2.2701
  898MOL0     H21170   4.518   2.567   9.818 -0.4882  0.1367 -0.1472
  898MOL0     H21171   4.762   2.589   9.792 -0.5609  2.6851 -0.0035
  898MOL0     H21172   4.779   2.614   9.957 -0.0608  2.4696 -0.8072
  898MOL0     H21173   4.707   2.382  10.026 -1.8752 -0.3750  0.2742
  898MOL0     H21174   4.669   2.343   9.859  0.3730  2.2862 -1.8965
  898MOL0     H21175   4.952   2.393   9.977  2.2378 -2.6016  0.4255
  898MOL0     H21176   4.888   2.244   9.976  1.1301  0.9440  1.0062
  898MOL0     H21177   4.970   2.370   9.700 -2.1184 -1.6236 -2.5942
  898MOL0     H21178   5.059   2.270   9.814 -2.1179 -2.1329  1.1010
  898MOL0     H21179   4.777   2.230   9.685 -0.3196  0.7600 -0.7392
  898MOL0     H21180   4.857   2.096   9.761 -1.5880  0.4263  0.7044
  898MOL0     H21181   5.036   1.956   9.596  1.5815 -0.8572 -2.2092
  898MOL0     H21182   5.230   1.934   9.415  0.4480  0.0039 -1.6191
  898MOL0     H21183   5.115   1.888   9.299 -0.1933 -0.4733 -0.0727
  898MOL0     H21184   5.278   2.146   9.283 -1.7447  1.4062  0.2622
  898MOL0     H21185   5.173   2.083   9.161 -1.5800 -2.6044  0.4257
  898MOL0     H21186   5.317   1.924   9.062 -1.6912  1.1517 -0.2336
  898MOL0     H21187   5.387   1.882   9.226  1.2856  0.3253 -0.5200
  898MOL0     H21188   5.439   2.121   9.062 -0.6593  0.2500  1.2391
  898MOL0     H21189   5.554   1.986   9.074 -0.5429  2.2959 -4.6950
  898MOL0     H21190   5.781   2.088   9.182 -1.6605  0.5800 -6.2042
  898MOL0     H21191   5.991   2.322   9.053 -1.8835 -0.1375  0.1885
  898MOL0     H21192   6.057   2.296   9.216 -0.8034  3.1024 -0.6989
  898MOL0     H21193   5.982   2.159   9.140  1.6328 -0.5358  4.2208
  898MOL0     H21194   6.048   2.682   9.480 -2.4994  1.0816  1.5912
  898MOL0     H21195   6.173   2.885   9.496  2.1920  0.6389 -1.3002
  898MOL0     H21196   6.240   3.009   9.194 -0.9709 -1.7803  3.0389
  898MOL0     H21197   6.221   3.182   9.177  1.2501 -2.8113 -4.0272
  898MOL0     H21198   6.368   3.210   9.394  0.2475 -2.2989  2.0847
  898MOL0     H21199   6.394   3.048   9.401  0.1371  1.0705  0.0226
  898MOL0     H21200   6.480   3.204   9.163  0.7938  0.6194  0.2179
  898MOL0     H21201   6.522   3.034   9.200 -3.0546  0.4999  0.0300
  898MOL0     H21202   6.576   3.281   9.386  0.1310  0.9263 -1.5917
  898MOL0     H21203   6.608   3.130   9.434 -2.0273 -2.4676 -0.7640
  898MOL0     H21204   6.761   3.228   9.183 -0.4565  0.5518  0.4325
  898MOL0     H21205   6.751   3.067   9.265  0.5590 -0.1943 -5.6950
  898MOL0     H21206   6.859   3.326   9.393  2.0746  0.2335  1.2150
  898MOL0     H21207   6.809   3.198   9.487 -3.5280 -0.6135 -1.0797
  898MOL0     H21208   7.058   3.201   9.310 -0.1830 -1.1617  0.2500
  898MOL0     H21209   6.979   3.048   9.330  0.1390  0.0507 -1.0634
  898MOL0     H21210   7.064   3.223   9.569  1.0891  0.8421 -2.2772
  898MOL0     H21211   7.164   3.097   9.509  0.7439 -0.5941  3.0407
  898MOL0     H21212   5.922   3.080   9.212 -2.9104 -0.4103  1.2304
  898MOL0     H21213   5.786   2.870   9.201 -2.2559  0.0664  1.9520
  898MOL0     H21214   5.618   2.526   9.317 -0.4640  0.1961 -2.4936
  898MOL0     H21215   5.471   2.339   9.324 -0.0257  1.7791 -0.1429
  898MOL0     H21216   4.689   2.978   9.596 -0.6358  1.7097 -2.3433
  898MOL0     H21217   4.797   2.985   9.386 -0.5187 -0.9237 -1.7231
  898MOL0     H21218   4.693   2.707   8.843  1.5264 -0.4419 -4.9369
  898MOL0     H21219   4.852   2.722   8.661 -2.6012  0.2803 -0.5433
  898MOL0     H21220   5.050   2.573   8.655  1.0064  0.7512  3.3685
  898MOL0     H21221   5.056   2.681   8.514  0.2238 -1.3347  0.2264
  898MOL0     H21222   5.309   2.583   8.667 -3.1367 -0.4617  0.8392
  898MOL0     H21223   5.308   2.688   8.526 -0.7755 -0.7434 -2.6196
  898MOL0     H21224   5.164   2.408   8.538 -1.0865 -0.3070 -0.1343
  898MOL0     H21225   5.327   2.435   8.490  0.3340  1.7923 -2.3422
  898MOL0     H21226   5.296   2.567   8.297  0.0410 -0.4948  0.0634
  898MOL0     H21227   5.124   2.570   8.323  0.7203  2.1067  3.8712
  898MOL0     H21228   5.239   2.184   8.167  1.1005  3.0174 -2.4649
  898MOL0     H21229   5.152   2.878   8.918  2.2749 -3.1055  0.9399
  898MOL0     H21230   5.010   2.888   9.095  0.1320  2.1608 -0.4213
  899MOL0     O21231   8.150   5.359   5.330 -0.2651 -0.4306 -0.6700
  899MOL0     C21232   8.237   5.273   5.345  0.2297  0.1336 -0.6060
  899MOL0     O21233   8.272   5.218   5.470 -0.1239  0.0285  0.5606
  899MOL0     C21234   8.197   5.241   5.582  0.1694  0.6833 -0.1850
  899MOL0     C21235   8.202   5.147   5.678 -0.1183 -0.0278  0.3837
  899MOL0     C21236   8.137   5.161   5.801  0.0312  0.2373 -0.2692
  899MOL0     C21237   8.072   5.282   5.831  1.1254 -0.5369  0.1758
  899MOL0     O21238   8.006   5.314   5.941 -0.0354  0.2948 -0.3551
  899MOL0     C21239   7.929   5.205   6.005  0.9522  0.3152  0.0620
  899MOL0     C21240   7.919   5.213   6.160 -0.4124  0.5167  0.3300
  899MOL0     C21241   8.056   5.211   6.234 -0.7893 -0.3985  0.8958
  899MOL0     C21242   8.128   5.347   6.235  0.3528  0.0142 -0.3781
  899MOL0     C21243   8.276   5.336   6.281  0.1075  0.2103 -0.5777
  899MOL0     C21244   8.286   5.273   6.418  0.2946  0.3767 -0.5512
  899MOL0     C21245   8.429   5.287   6.472 -0.8721 -0.4603  0.5249
  899MOL0     C21246   8.437   5.417   6.543  0.1832 -0.3912 -0.3166
  899MOL0     N21247   8.569   5.468   6.565 -0.0055  0.3627  0.2480
  899MOL0     C21248   8.657   5.514   6.472  0.8509  0.2029  0.6864
  899MOL0     C21249   8.768   5.538   6.538 -1.0239  0.8800  0.8788
  899MOL0     C21250   8.894   5.596   6.472  0.3245  0.0114 -0.1766
  899MOL0     C21251   8.916   5.736   6.534 -0.9315  0.1188  0.2442
  899MOL0     C21252   8.985   5.822   6.428 -0.4395  1.3116 -0.7931
  899MOL0     C21253   8.972   5.968   6.473  0.6859 -0.0490 -0.3212
  899MOL0     O21254   8.836   6.018   6.447  0.7761 -0.2147 -0.1574
  899MOL0     C21255   8.806   6.135   6.518 -1.3269  0.1272  0.2594
  899MOL0     C21256   8.838   6.170   6.653  0.5735  0.3162  0.4660
  899MOL0     C21257   8.781   6.291   6.705  0.0038 -0.1878 -0.3099
  899MOL0     C21258   8.849   6.329   6.834  0.8284  0.5513 -0.4457
  899MOL0     C21259   8.697   6.372   6.637 -0.0901 -0.0624  0.9552
  899MOL0     C21260   8.635   6.488   6.691 -0.1492 -0.1380 -0.4111
  899MOL0     O21261   8.661   6.527   6.828  0.5125 -0.1679  0.0940
  899MOL0     C21262   8.593   6.625   6.887  0.7981  0.6783 -0.8230
  899MOL0     C21263   8.662   6.726   6.945 -0.3756  0.2045 -0.0961
  899MOL0     C21264   8.581   6.818   7.008 -0.3818  0.2674 -0.6102
  899MOL0     C21265   8.433   6.812   7.005  0.2521 -1.1194 -0.0628
  899MOL0     O21266   8.352   6.902   7.075  0.4716  0.1545 -0.7032
  899MOL0     C21267   8.420   7.008   7.148  0.2496 -0.4363  0.0254
  899MOL0     C21268   8.310   7.111   7.208 -0.5715 -0.0954  0.0629
  899MOL0     C21269   8.207   7.027   7.281  0.4381 -0.1372  0.4187
  899MOL0     C21270   8.122   7.120   7.371  0.7914 -0.3112 -0.1864
  899MOL0     C21271   8.007   7.032   7.421  0.7604 -0.9262 -0.5113
  899MOL0     C21272   8.044   6.929   7.529 -0.0732  0.9021 -0.4343
  899MOL0     C21273   8.085   6.982   7.669 -0.3151 -0.2386  0.3198
  899MOL0     C21274   8.016   7.113   7.711 -0.2770  0.3909 -0.4397
  899MOL0    Cl21275   8.053   7.157   7.876  0.1172 -0.0000 -0.3033
  899MOL0     C21276   8.373   6.715   6.934  0.0366 -0.0635  0.2388
  899MOL0     C21277   8.448   6.607   6.889 -0.4519 -0.2429  0.0949
  899MOL0     O21278   8.555   6.543   6.618  0.5701 -1.0861 -0.0524
  899MOL0     C21279   8.671   6.339   6.499  0.4689  0.6251  0.6490
  899MOL0     C21280   8.711   6.212   6.452 -1.1237  0.0827  0.5833
  899MOL0     N21281   8.750   5.510   6.675  0.2103 -0.1063 -0.0287
  899MOL0     N21282   8.626   5.462   6.688 -0.2063 -0.4320 -0.3220
  899MOL0     C21283   8.052   5.376   5.729  0.2042  0.4271  0.7919
  899MOL0     C21284   8.128   5.359   5.608  0.4700 -0.6421  0.5721
  899MOL0     C21285   8.331   5.247   5.231 -1.2005 -0.6794  0.7417
  899MOL0     C21286   8.311   5.311   5.103 -0.8508  0.3023 -0.6953
  899MOL0     C21287   8.405   5.285   5.004 -0.6682  0.4552  0.3321
  899MOL0     C21288   8.508   5.193   5.015 -0.8402 -0.4520 -0.0533
  899MOL0     O21289   8.602   5.178   4.913  0.7231 -0.0431 -0.5202
  899MOL0     C21290   8.735   5.169   4.951 -0.8938 -0.4164  0.1987
  899MOL0     C21291   8.824   5.203   4.836 -0.5084 -0.2074 -0.4662
  899MOL0     C21292   8.854   5.095   4.734 -0.0812 -0.8693 -0.1139
  899MOL0     C21293   8.722   5.053   4.654 -0.4185 -0.8908  0.9540
  899MOL0     C21294   8.689   5.151   4.550  0.0145  0.5622  0.4688
  899MOL0     C21295   8.657   5.209   4.449  0.4302 -0.4915 -0.2170
  899MOL0     C21296   8.524   5.136   5.142 -0.5765  0.4380 -0.1502
  899MOL0     C21297   8.437   5.154   5.248  0.5367  0.3572  0.2972
  899MOL0     H21298   8.227   5.044   5.655 -4.1355 -2.0321  3.6098
  899MOL0     H21299   8.160   5.072   5.858  0.5538  0.3735 -0.2671
  899MOL0     H21300   7.826   5.226   5.975  2.2138  5.0714 -1.8924
  899MOL0     H21301   7.951   5.101   5.978 -0.7883 -1.7257  5.2360
  899MOL0     H21302   7.861   5.298   6.196  0.5732  0.6487  1.6849
  899MOL0     H21303   7.865   5.120   6.179  0.3635 -0.4261 -1.6783
  899MOL0     H21304   8.032   5.166   6.331  0.7836 -4.0002 -0.1895
  899MOL0     H21305   8.123   5.128   6.210  0.3897 -0.2183  3.2205
  899MOL0     H21306   8.121   5.386   6.133 -0.5998 -0.5590 -0.5459
  899MOL0     H21307   8.064   5.402   6.304  0.3503 -1.9355  1.2807
  899MOL0     H21308   8.329   5.272   6.210  2.4434 -0.7266  1.8359
  899MOL0     H21309   8.319   5.437   6.282 -1.3737  0.9291 -2.8029
  899MOL0     H21310   8.209   5.310   6.486  2.1777  0.1516  1.8708
  899MOL0     H21311   8.258   5.168   6.402 -0.3337  0.7146 -1.8043
  899MOL0     H21312   8.447   5.206   6.544 -2.1556  0.0276  1.4176
  899MOL0     H21313   8.507   5.282   6.395 -1.2753  2.9599 -0.2604
  899MOL0     H21314   8.392   5.410   6.643 -1.2519  2.3788 -0.6686
  899MOL0     H21315   8.384   5.492   6.484 -0.1400  0.4512  1.0029
  899MOL0     H21316   8.635   5.524   6.366 -0.3208  1.7332  1.0452
  899MOL0     H21317   8.973   5.525   6.497 -0.5921 -1.3804 -1.0883
  899MOL0     H21318   8.887   5.600   6.363  1.3254  1.3650 -0.2124
  899MOL0     H21319   8.982   5.720   6.619  1.8403 -1.0044 -1.9458
  899MOL0     H21320   8.824   5.787   6.561 -0.8356  1.3958 -1.6479
  899MOL0     H21321   8.939   5.804   6.330 -0.4566 -4.3655 -0.1019
  899MOL0     H21322   9.090   5.793   6.419 -0.9949 -0.4233 -2.3477
  899MOL0     H21323   9.051   6.028   6.426  0.3152  1.7482  1.2517
  899MOL0     H21324   8.997   5.975   6.579 -0.6547 -2.8847  0.2755
  899MOL0     H21325   8.912   6.112   6.706  2.7507  0.9637 -1.6433
  899MOL0     H21326   8.904   6.419   6.805 -0.5136  1.0459 -1.5160
  899MOL0     H21327   8.777   6.342   6.915 -4.1429 -2.3063 -3.9013
  899MOL0     H21328   8.922   6.252   6.862 -0.4190  0.6283  3.6882
  899MOL0     H21329   8.770   6.737   6.939 -0.0978 -1.7898  0.3866
  899MOL0     H21330   8.633   6.899   7.059  0.2168 -0.8354  0.5682
  899MOL0     H21331   8.478   6.968   7.232  0.4355  0.5650  0.3821
  899MOL0     H21332   8.503   7.061   7.101 -0.9555  1.1992 -0.3493
  899MOL0     H21333   8.353   7.188   7.272  2.5840 -2.7202  1.4226
  899MOL0     H21334   8.259   7.156   7.123 -2.6528 -2.4201 -0.0473
  899MOL0     H21335   8.257   6.956   7.347 -1.3938 -1.0428  0.8844
  899MOL0     H21336   8.148   6.974   7.205 -0.9702  0.7981  0.8115
  899MOL0     H21337   8.180   7.163   7.453 -2.1712  3.8918  0.0469
  899MOL0     H21338   8.073   7.200   7.314 -0.7956 -0.8984  0.2903
  899MOL0     H21339   7.965   6.976   7.337 -2.7741 -3.0518  2.4020
  899MOL0     H21340   7.940   7.105   7.468  0.1489 -1.7321 -0.1211
  899MOL0     H21341   7.960   6.861   7.547  2.3485 -2.0314  0.5676
  899MOL0     H21342   8.116   6.857   7.490 -1.1866  0.4087 -1.6745
  899MOL0     H21343   8.191   7.004   7.681 -0.5856  1.6092 -0.3810
  899MOL0     H21344   8.061   6.905   7.743  2.5283 -1.6746 -0.1147
  899MOL0     H21345   7.908   7.108   7.700 -0.3745  2.3663 -0.8715
  899MOL0     H21346   8.057   7.200   7.658  3.3276 -1.0654 -0.3112
  899MOL0     H21347   8.266   6.722   6.918 -0.3307  2.1950  2.9336
  899MOL0     H21348   8.399   6.521   6.843 -1.8413 -1.1430  3.0126
  899MOL0     H21349   8.605   6.402   6.439 -0.2717 -2.8257 -2.4924
  899MOL0     H21350   8.678   6.180   6.354  2.3444 -0.4864 -0.5260
  899MOL0     H21351   7.995   5.465   5.752  0.8131  0.8888  0.5434
  899MOL0     H21352   8.116   5.448   5.548 -0.3661  1.2002  3.2636
  899MOL0     H21353   8.224   5.375   5.087  0.3753  3.9596  4.5236
  899MOL0     H21354   8.386   5.337   4.911  4.1106  3.4907  0.7274
  899MOL0     H21355   8.761   5.222   5.043  0.6015 -1.4803  0.4382
  899MOL0     H21356   8.763   5.065   4.973  0.8688 -0.2593 -1.0303
  899MOL0     H21357   8.912   5.231   4.895 -0.6837  3.5772 -1.7150
  899MOL0     H21358   8.788   5.290   4.781 -0.4073  1.0052  1.2724
  899MOL0     H21359   8.884   5.008   4.792  0.1316 -0.0598  1.0247
  899MOL0     H21360   8.934   5.111   4.661 -1.0936  0.5828 -0.9710
  899MOL0     H21361   8.633   5.058   4.718 -2.6203  2.2166 -1.9807
  899MOL0     H21362   8.724   4.955   4.606  1.5775  0.0242 -0.9854
  899MOL0     H21363   8.621   5.268   4.368 -4.8065 -0.1372  1.9914
  899MOL0     H21364   8.604   5.064   5.161 -2.3485 -2.3876 -2.6382
  899MOL0     H21365   8.450   5.103   5.343 -2.9094  2.3277  2.0216
  900MOL0     O21366   5.939   8.422  10.053 -0.1837  0.3894 -0.3049
  900MOL0     C21367   5.914   8.310  10.083 -0.0946  0.2081 -0.3960
  900MOL0     O21368   5.809   8.262  10.145  0.9627  0.2050  0.1448
  900MOL0     C21369   5.697   8.340  10.155  0.6553 -0.3829 -0.1732
  900MOL0     C21370   5.569   8.305  10.125 -1.0429  0.5298  0.6086
  900MOL0     C21371   5.462   8.382  10.163  0.7861  0.1422  0.0386
  900MOL0     C21372   5.474   8.501  10.236 -0.0427  0.0983  0.4341
  900MOL0     O21373   5.371   8.584  10.276 -0.4175 -1.4074 -0.3905
  900MOL0     C21374   5.238   8.536  10.274  0.0025  0.5057  0.1270
  900MOL0     C21375   5.135   8.648  10.311  0.1498  0.0089  0.1341
  900MOL0     C21376   5.125   8.776  10.227  0.6622 -0.2987  0.0290
  900MOL0     C21377   5.121   8.892  10.327 -0.8232 -0.1142  0.1325
  900MOL0     C21378   5.113   9.028  10.260  0.5205 -1.0444  0.4294
  900MOL0     C21379   5.226   9.071  10.167  0.1889  0.0169 -0.1772
  900MOL0     C21380   5.351   9.123  10.242 -0.2118 -0.3649 -0.0479
  900MOL0     C21381   5.430   9.220  10.142  0.6099  0.0007  0.4337
  900MOL0     N21382   5.360   9.346  10.102 -0.5186  0.4751  0.1113
  900MOL0     C21383   5.225   9.373  10.131  0.2131  0.6890 -0.4068
  900MOL0     C21384   5.202   9.482  10.053 -0.5762  0.3565 -0.1528
  900MOL0     C21385   5.088   9.568  10.042  0.4602 -0.3836 -0.4007
  900MOL0     C21386   5.015   9.597  10.175  0.6297  0.4477  0.8050
  900MOL0     C21387   5.099   9.668  10.284  0.1706  0.0776 -0.1178
  900MOL0     C21388   5.063   9.628  10.419  0.2356  0.5352  0.4050
  900MOL0     O21389   4.953   9.703  10.469  0.2540 -0.3888  0.9172
  900MOL0     C21390   4.988   9.826  10.521  0.1918  0.0057  0.0887
  900MOL0     C21391   5.112   9.871  10.560  0.0025 -0.5001  0.7935
  900MOL0     C21392   5.135   9.988  10.627 -0.9447  1.1804  0.5117
  900MOL0     C21393   5.281  10.030  10.651  1.4107  0.4232  0.1360
  900MOL0     C21394   5.023  10.057  10.675  0.2312 -0.1967 -0.9108
  900MOL0     C21395   5.032  10.179  10.766  0.1271 -0.4179  0.2484
  900MOL0     O21396   5.156  10.225  10.810 -0.7751 -0.2447  0.4894
  900MOL0     C21397   5.183  10.333  10.888  0.5168 -0.4430  0.0167
  900MOL0     C21398   5.315  10.343  10.920 -0.0654 -0.6820 -0.5844
  900MOL0     C21399   5.360  10.430  11.026  0.0851 -0.4289  0.3119
  900MOL0     C21400   5.259  10.501  11.091  0.7789  0.3674 -0.2480
  900MOL0     O21401   5.318  10.596  11.173 -0.2272  0.3382  0.1131
  900MOL0     C21402   5.241  10.638  11.287 -0.2481 -0.1688 -0.2554
  900MOL0     C21403   5.278  10.558  11.420 -0.3863 -0.1962 -1.7038
  900MOL0     C21404   5.428  10.574  11.455  0.1981  0.4947  0.2190
  900MOL0     C21405   5.462  10.512  11.593 -0.2728 -0.1814 -0.8007
  900MOL0     C21406   5.595  10.571  11.649 -0.1834 -0.0122  0.4428
  900MOL0     C21407   5.578  10.692  11.746 -0.5080  0.0033  0.8400
  900MOL0     C21408   5.566  10.837  11.678  0.4640  0.0054  0.2361
  900MOL0     C21409   5.502  10.946  11.768 -0.2813  0.6629 -0.3150
  900MOL0    Cl21410   5.537  11.100  11.701 -0.1094 -0.4367 -0.5676
  900MOL0     C21411   5.130  10.498  11.047 -0.2868 -0.2259 -0.4500
  900MOL0     C21412   5.089  10.406  10.954 -0.1835 -0.3717  0.6407
  900MOL0     O21413   4.919  10.235  10.793  0.0983  0.4267  0.5435
  900MOL0     C21414   4.897  10.021  10.627 -0.2903 -0.2712  0.0708
  900MOL0     C21415   4.881   9.910  10.545  0.5281 -1.1728 -0.2457
  900MOL0     N21416   5.309   9.516   9.974 -0.4682 -0.2292  0.3218
  900MOL0     N21417   5.398   9.425   9.996  0.6764  0.2763  0.0273
  900MOL0     C21418   5.598   8.551  10.264 -0.0846  0.2325 -0.6843
  900MOL0     C21419   5.707   8.466  10.224 -0.7479  0.5888 -0.5076
  900MOL0     C21420   6.015   8.221  10.075  0.4399  0.3137 -0.1678
  900MOL0     C21421   5.988   8.095  10.034  0.0101  0.1351 -1.0136
  900MOL0     C21422   6.089   7.999  10.032  0.6780 -0.9414  0.5015
  900MOL0     C21423   6.213   8.023  10.074 -1.1568  1.1218 -0.3732
  900MOL0     O21424   6.305   7.922  10.061 -0.0337  0.1497 -0.9452
  900MOL0     C21425   6.390   7.893  10.173  0.2561 -0.4861 -0.8397
  900MOL0     C21426   6.510   7.820  10.140 -0.8230 -0.0872 -0.5332
  900MOL0     C21427   6.586   7.777  10.269 -0.5678 -0.3832  0.6561
  900MOL0     C21428   6.721   7.706  10.203 -0.2638 -0.7250 -0.3353
  900MOL0     C21429   6.834   7.692  10.307 -0.3169 -1.3214  0.2563
  900MOL0     C21430   6.943   7.691  10.365  0.8072 -0.1356 -0.5429
  900MOL0     C21431   6.240   8.152  10.124 -0.0382  0.5379 -0.4042
  900MOL0     C21432   6.139   8.248  10.132  0.0118  1.6620  0.1629
  900MOL0     H21433   5.562   8.210  10.073  0.7161 -1.7507  4.1803
  900MOL0     H21434   5.362   8.344  10.148  0.6354 -0.8974  3.0119
  900MOL0     H21435   5.197   8.496  10.180 -1.7898  1.7154  0.3409
  900MOL0     H21436   5.224   8.462  10.353  0.3356 -1.8851 -1.9128
  900MOL0     H21437   5.034   8.606  10.307 -0.0403  0.5618 -1.4767
  900MOL0     H21438   5.155   8.675  10.416 -0.4544 -0.8564  0.4857
  900MOL0     H21439   5.215   8.784  10.165 -1.1328  0.4643 -2.6363
  900MOL0     H21440   5.032   8.765  10.171 -0.6405  1.2592  1.7771
  900MOL0     H21441   5.035   8.876  10.393 -0.1705  1.5137  1.4454
  900MOL0     H21442   5.209   8.890  10.392 -1.2895 -2.9694  0.7991
  900MOL0     H21443   5.025   9.033  10.195  1.5197  2.9411 -0.8606
  900MOL0     H21444   5.094   9.103  10.336 -1.5080 -0.2463 -0.7703
  900MOL0     H21445   5.254   8.990  10.099 -0.5934 -1.0244  0.7203
  900MOL0     H21446   5.177   9.140  10.098 -2.7312 -1.7483 -0.0116
  900MOL0     H21447   5.338   9.173  10.339  2.7933  0.8700 -0.1819
  900MOL0     H21448   5.413   9.035  10.261  0.5998  0.3976  0.9073
  900MOL0     H21449   5.451   9.164  10.050  1.1388  1.7234 -0.5390
  900MOL0     H21450   5.520   9.245  10.199 -1.7609  0.6464  4.2905
  900MOL0     H21451   5.162   9.320  10.202  0.9622 -0.9975 -0.9614
  900MOL0     H21452   5.115   9.670  10.011  1.9842 -0.6818 -0.1014
  900MOL0     H21453   5.024   9.510   9.974 -2.0127  1.7434 -0.0696
  900MOL0     H21454   4.977   9.497  10.198 -5.2239  0.8915 -4.4987
  900MOL0     H21455   4.926   9.658  10.157  0.4274  0.1033  0.6227
  900MOL0     H21456   5.082   9.775  10.263  0.5323 -0.2182 -2.1519
  900MOL0     H21457   5.205   9.653  10.266  0.1877 -2.7913  1.8303
  900MOL0     H21458   5.147   9.622  10.488 -0.0881  1.4839  0.9072
  900MOL0     H21459   5.031   9.524  10.424  1.4614  0.1523  0.6010
  900MOL0     H21460   5.200   9.817  10.528 -0.2476  1.2167 -3.6044
  900MOL0     H21461   5.293  10.119  10.589 -0.5294  2.6800  2.7393
  900MOL0     H21462   5.304  10.051  10.756  1.4284 -2.2279  0.7500
  900MOL0     H21463   5.357   9.955  10.625  1.4505  0.7141 -0.5963
  900MOL0     H21464   5.399  10.288  10.879  1.5309  0.7330  0.6355
  900MOL0     H21465   5.466  10.434  11.050  1.3182 -2.2179 -3.8671
  900MOL0     H21466   5.258  10.746  11.291 -1.3556  0.0110 -0.1487
  900MOL0     H21467   5.133  10.621  11.278 -0.4131 -1.0377  2.4077
  900MOL0     H21468   5.208  10.595  11.494  0.0916  1.8814 -2.2216
  900MOL0     H21469   5.256  10.452  11.402 -1.2530  0.0798 -2.3082
  900MOL0     H21470   5.457  10.679  11.442  1.3406  0.0434 -1.0894
  900MOL0     H21471   5.484  10.511  11.386 -0.6044 -0.1164  0.1134
  900MOL0     H21472   5.382  10.522  11.666 -0.0801 -2.6854 -0.1649
  900MOL0     H21473   5.468  10.404  11.576 -2.4587 -0.5326  0.3387
  900MOL0     H21474   5.661  10.614  11.573  0.0463  2.2377  1.8151
  900MOL0     H21475   5.651  10.499  11.709  1.4350 -0.6235 -1.6659
  900MOL0     H21476   5.494  10.682  11.814 -0.4347 -0.2688  0.8915
  900MOL0     H21477   5.669  10.696  11.807 -0.6951  5.9422  1.3120
  900MOL0     H21478   5.505  10.837  11.588  4.2255  0.5581 -2.5514
  900MOL0     H21479   5.665  10.877  11.654 -0.3375  0.8492 -1.8738
  900MOL0     H21480   5.537  10.960  11.870  1.3098 -0.7320 -0.6224
  900MOL0     H21481   5.398  10.912  11.761 -0.4598  1.4751 -2.8406
  900MOL0     H21482   5.052  10.560  11.092 -1.4164 -1.2309 -0.9818
  900MOL0     H21483   4.982  10.405  10.935 -0.2741  1.9431  0.7782
  900MOL0     H21484   4.806  10.077  10.646  1.5060  2.8362  0.0153
  900MOL0     H21485   4.783   9.876  10.513  0.8747  1.2447 -4.5144
  900MOL0     H21486   5.635   8.643  10.310 -1.1480  0.9231 -1.1620
  900MOL0     H21487   5.802   8.501  10.264 -1.2750  0.2231  1.1366
  900MOL0     H21488   5.892   8.063   9.994 -0.9394 -0.2093  1.3538
  900MOL0     H21489   6.053   7.900  10.007 -1.3749 -0.0350 -0.3772
  900MOL0     H21490   6.418   7.989  10.217 -0.2584  0.5727 -2.7114
  900MOL0     H21491   6.345   7.833  10.253  1.2145  0.0185  0.1036
  900MOL0     H21492   6.573   7.882  10.076 -2.1182  0.7062 -1.0758
  900MOL0     H21493   6.483   7.724  10.097 -1.2255  0.0858 -0.6625
  900MOL0     H21494   6.516   7.710  10.321 -3.7086 -1.4773 -4.2569
  900MOL0     H21495   6.610   7.868  10.325  0.3619  0.1222 -0.5158
  900MOL0     H21496   6.764   7.774  10.129 -0.3485  0.2774  0.5156
  900MOL0     H21497   6.697   7.608  10.160 -1.1834 -0.1648 -1.1446
  900MOL0     H21498   7.039   7.680  10.412 -0.1095  0.2379  1.5606
  900MOL0     H21499   6.343   8.180  10.145 -0.9724  2.8106  1.5149
  900MOL0     H21500   6.170   8.349  10.155  0.1953  2.8812 -4.3353
  901MOL0     O21501   6.485   2.368  11.098 -0.1097 -0.7306  0.2951
  901MOL0     C21502   6.484   2.268  11.030  0.5240 -0.0171 -0.6423
  901MOL0     O21503   6.416   2.251  10.914  0.4093  0.6426  0.5497
  901MOL0     C21504   6.345   2.349  10.857 -0.9140 -0.0902 -0.0704
  901MOL0     C21505   6.215   2.318  10.812  0.6648 -1.3092 -0.1675
  901MOL0     C21506   6.135   2.412  10.740 -0.4557 -0.0855  0.7067
  901MOL0     C21507   6.180   2.545  10.713  0.2967  0.5632 -0.3045
  901MOL0     O21508   6.094   2.632  10.655  0.2759 -0.6918 -0.6955
  901MOL0     C21509   6.165   2.713  10.560  0.6394 -0.1274  0.0763
  901MOL0     C21510   6.061   2.788  10.487  0.4784  0.6074 -0.5285
  901MOL0     C21511   6.110   2.917  10.418  0.1500 -0.5248 -0.2166
  901MOL0     C21512   6.037   3.048  10.470 -0.2415  0.5386  0.0950
  901MOL0     C21513   6.116   3.107  10.588  0.6173 -0.2998 -0.1405
  901MOL0     C21514   6.032   3.231  10.647 -0.5001 -0.4331  0.9791
  901MOL0     C21515   6.114   3.310  10.749 -0.2080 -0.6546  0.9839
  901MOL0     C21516   6.040   3.437  10.792  0.2118  0.5513 -0.0451
  901MOL0     N21517   6.135   3.511  10.879 -0.7037  0.4727  0.3074
  901MOL0     C21518   6.169   3.471  11.004 -0.5633  0.4938  0.1079
  901MOL0     C21519   6.238   3.578  11.056  0.5724  0.5440 -0.2166
  901MOL0     C21520   6.281   3.609  11.196  0.0700  0.8199  1.0270
  901MOL0     C21521   6.388   3.507  11.240 -0.9892 -0.0378  0.0524
  901MOL0     C21522   6.545   3.542  11.220  0.2646  0.7992  0.2099
  901MOL0     C21523   6.634   3.463  11.309  0.5316 -0.1638 -0.4105
  901MOL0     O21524   6.615   3.507  11.451  0.6308  0.5298 -0.2098
  901MOL0     C21525   6.720   3.475  11.529 -1.1021  0.0003 -1.0367
  901MOL0     C21526   6.789   3.353  11.532  0.5429 -0.1800 -0.0991
  901MOL0     C21527   6.903   3.330  11.607  0.8349 -0.1436  0.0740
  901MOL0     C21528   6.979   3.209  11.574  0.9263  0.2464  0.1371
  901MOL0     C21529   6.939   3.431  11.696 -0.2195  0.6477  0.1127
  901MOL0     C21530   7.072   3.431  11.771  0.1823 -1.0874 -0.7128
  901MOL0     O21531   7.110   3.556  11.818 -0.6390 -0.9316  0.2262
  901MOL0     C21532   7.171   3.577  11.937  0.0728  0.4710  0.5320
  901MOL0     C21533   7.302   3.538  11.961 -0.4310  0.9874  0.8069
  901MOL0     C21534   7.369   3.569  12.074 -0.6852  0.0670 -0.0072
  901MOL0     C21535   7.304   3.645  12.178 -1.2497 -1.3190  0.8759
  901MOL0     O21536   7.356   3.676  12.303 -0.2537  0.1509  0.6656
  901MOL0     C21537   7.487   3.637  12.329 -0.7543  0.4609 -0.0438
  901MOL0     C21538   7.489   3.487  12.377  0.3990  0.3298  0.7668
  901MOL0     C21539   7.631   3.424  12.366  0.0968 -0.3410  0.2530
  901MOL0     C21540   7.614   3.275  12.411 -0.0641  0.3977  0.9181
  901MOL0     C21541   7.752   3.204  12.391 -0.2463  0.0257  0.1393
  901MOL0     C21542   7.774   3.144  12.246  0.3125 -0.4817 -0.5998
  901MOL0     C21543   7.894   3.062  12.256 -0.7291  0.4288  0.7661
  901MOL0     C21544   7.950   3.017  12.121 -0.7262 -1.8926 -0.8825
  901MOL0    Cl21545   7.876   2.867  12.079  0.0825  0.2643 -0.1166
  901MOL0     C21546   7.165   3.673  12.145 -0.3708 -0.2844 -0.5623
  901MOL0     C21547   7.100   3.642  12.031 -0.1144  0.8779 -1.0451
  901MOL0     O21548   7.131   3.327  11.793  0.0744  0.9218 -0.3287
  901MOL0     C21549   6.854   3.544  11.708 -0.3539 -0.1107  0.0119
  901MOL0     C21550   6.754   3.568  11.627  0.0436 -0.1002 -0.3265
  901MOL0     N21551   6.264   3.666  10.954 -0.5824  0.2202 -0.2505
  901MOL0     N21552   6.211   3.620  10.846  1.0756 -0.2771 -0.7635
  901MOL0     C21553   6.307   2.581  10.759 -0.1319 -0.7648  0.0126
  901MOL0     C21554   6.392   2.487  10.827  0.1981  0.0265 -0.0435
  901MOL0     C21555   6.553   2.153  11.067  0.6871 -0.2872 -0.8209
  901MOL0     C21556   6.648   2.139  11.168 -0.1245  0.3682  0.3499
  901MOL0     C21557   6.715   2.020  11.210  0.3878  0.8140  0.1465
  901MOL0     C21558   6.663   1.896  11.160 -0.0791 -0.2442  0.1119
  901MOL0     O21559   6.712   1.782  11.223  0.4528 -0.9062 -0.1716
  901MOL0     C21560   6.662   1.658  11.192  0.5351 -0.4831 -0.3162
  901MOL0     C21561   6.738   1.548  11.267 -0.6197  0.9307  0.3952
  901MOL0     C21562   6.866   1.506  11.203 -0.1298 -0.0055 -0.5298
  901MOL0     C21563   6.985   1.582  11.234  0.2162 -0.3877 -0.4228
  901MOL0     C21564   7.095   1.549  11.142 -0.7576  0.8112  0.3582
  901MOL0     C21565   7.183   1.540  11.062  0.4124 -0.3208  0.9112
  901MOL0     C21566   6.561   1.904  11.066  0.7806 -0.0928 -0.1255
  901MOL0     C21567   6.512   2.026  11.013  0.5337 -0.3175 -0.1579
  901MOL0     H21568   6.185   2.214  10.821 -2.5936 -0.5332 -0.7854
  901MOL0     H21569   6.043   2.375  10.695  0.6112  0.4999 -2.2449
  901MOL0     H21570   6.224   2.790  10.611 -0.4275  1.7294 -1.3811
  901MOL0     H21571   6.226   2.652  10.493  1.4676  1.4404 -0.6528
  901MOL0     H21572   6.024   2.721  10.410  0.8175  0.9289 -0.9810
  901MOL0     H21573   5.985   2.818  10.560 -1.3701 -0.7897 -1.8084
  901MOL0     H21574   6.218   2.933  10.421 -0.1450  1.6440  0.9480
  901MOL0     H21575   6.091   2.896  10.313 -0.8294 -1.9315  0.2138
  901MOL0     H21576   6.043   3.114  10.383 -0.8165 -1.0857 -1.2250
  901MOL0     H21577   5.930   3.037  10.489  0.0753 -2.1146  0.7899
  901MOL0     H21578   6.133   3.031  10.665  0.4472  0.6447  0.8714
  901MOL0     H21579   6.216   3.141  10.559  0.1589  0.1896 -1.2113
  901MOL0     H21580   6.010   3.293  10.560 -1.3540 -0.3710  1.2281
  901MOL0     H21581   5.945   3.200  10.706  0.2713 -3.3571  0.7655
  901MOL0     H21582   6.132   3.242  10.832 -0.6906  0.4388  2.0138
  901MOL0     H21583   6.209   3.335  10.701 -0.7357 -0.1792  0.1449
  901MOL0     H21584   5.955   3.413  10.857  0.9370 -0.9680  0.3956
  901MOL0     H21585   5.981   3.486  10.714 -1.9519 -1.6405  0.0757
  901MOL0     H21586   6.132   3.380  11.051 -1.4800  0.8937  0.1842
  901MOL0     H21587   6.313   3.713  11.186 -1.7076  1.3205  0.1565
  901MOL0     H21588   6.197   3.624  11.264 -0.0165  2.6505  0.5591
  901MOL0     H21589   6.377   3.416  11.180  2.1915  0.1815 -1.0171
  901MOL0     H21590   6.371   3.478  11.344  2.1004 -0.1650  0.6106
  901MOL0     H21591   6.562   3.650  11.234  0.2128  0.6871  1.2149
  901MOL0     H21592   6.576   3.521  11.118  1.0156 -1.4894  0.8586
  901MOL0     H21593   6.734   3.471  11.265  0.0475 -0.9178 -1.6904
  901MOL0     H21594   6.595   3.362  11.290  3.5639 -1.4185 -0.5198
  901MOL0     H21595   6.758   3.292  11.448  0.5523  3.1822 -2.7614
  901MOL0     H21596   6.964   3.151  11.665  0.4959 -0.6935 -0.5140
  901MOL0     H21597   6.935   3.157  11.488  3.9192 -1.8903 -0.2724
  901MOL0     H21598   7.085   3.219  11.547  1.2781 -2.4775  0.2426
  901MOL0     H21599   7.359   3.487  11.884 -1.0989  3.5148 -1.5107
  901MOL0     H21600   7.476   3.548  12.076 -0.6238  0.0657 -1.5388
  901MOL0     H21601   7.550   3.660  12.243 -2.5020  5.9405 -0.2590
  901MOL0     H21602   7.535   3.692  12.411 -1.3284  2.4726 -0.9768
  901MOL0     H21603   7.449   3.476  12.478  0.3898  0.0115  0.7292
  901MOL0     H21604   7.417   3.429  12.318 -0.1083  0.4074  1.2979
  901MOL0     H21605   7.690   3.487  12.433  1.1161 -0.0090 -0.9173
  901MOL0     H21606   7.671   3.427  12.264 -1.8477 -0.8984 -0.5880
  901MOL0     H21607   7.590   3.267  12.517  1.4744 -1.4316  1.1926
  901MOL0     H21608   7.541   3.217  12.353 -0.4234 -0.2668  1.9881
  901MOL0     H21609   7.763   3.130  12.471 -0.6361 -1.8315 -1.4608
  901MOL0     H21610   7.828   3.282  12.401 -1.4501  1.2935 -0.3609
  901MOL0     H21611   7.695   3.083  12.201 -0.0912 -1.6513  1.5469
  901MOL0     H21612   7.793   3.233  12.185  0.9569  0.1246  0.4505
  901MOL0     H21613   7.880   2.963  12.301 -1.3929 -0.6212 -1.5890
  901MOL0     H21614   7.958   3.132  12.311 -2.4264  1.0090  2.0964
  901MOL0     H21615   8.059   3.014  12.119 -0.4434  2.6453 -2.2229
  901MOL0     H21616   7.917   3.097  12.055 -1.0799  0.0357  1.4946
  901MOL0     H21617   7.116   3.722  12.228 -0.4691 -0.2272 -0.6546
  901MOL0     H21618   6.996   3.671  12.019  0.2050  3.1768  0.9577
  901MOL0     H21619   6.884   3.625  11.774  2.1509 -1.5630  0.7916
  901MOL0     H21620   6.710   3.666  11.618  3.3033  2.1052  3.7365
  901MOL0     H21621   6.336   2.685  10.743  1.2673 -0.9237  1.2531
  901MOL0     H21622   6.490   2.515  10.864 -0.3829  0.3142  1.3622
  901MOL0     H21623   6.673   2.231  11.219  2.7590 -0.5843  0.8943
  901MOL0     H21624   6.790   2.026  11.289 -0.2322 -0.7490  0.9001
  901MOL0     H21625   6.558   1.648  11.224  0.4233  4.3626  1.5926
  901MOL0     H21626   6.659   1.650  11.083 -1.2456  0.1491 -0.3554
  901MOL0     H21627   6.684   1.453  11.265  2.5069 -1.1002  2.7283
  901MOL0     H21628   6.750   1.587  11.368 -0.7036  0.8214  0.4475
  901MOL0     H21629   6.867   1.491  11.094  0.3421 -2.2738 -0.2526
  901MOL0     H21630   6.879   1.401  11.230 -3.6128 -0.5848 -0.7282
  901MOL0     H21631   7.000   1.544  11.336 -3.6210  1.5299  1.0534
  901MOL0     H21632   6.965   1.688  11.249  4.9166  0.6820 -0.0347
  901MOL0     H21633   7.268   1.537  10.998  0.0159 -0.7727  0.3923
  901MOL0     H21634   6.512   1.814  11.031  1.8103 -0.4261 -0.7228
  901MOL0     H21635   6.428   2.015  10.945 -0.9079 -0.7994  1.6283
  902MOL0     O21636   1.612   8.516   9.281  0.5688 -0.3681  0.3074
  902MOL0     C21637   1.488   8.506   9.278  0.5491  0.1423 -0.2054
  902MOL0     O21638   1.413   8.438   9.195 -0.6552  0.3834  0.3235
  902MOL0     C21639   1.456   8.392   9.068  0.4653 -0.7278  0.2459
  902MOL0     C21640   1.380   8.428   8.958 -0.3037  0.7169 -0.1010
  902MOL0     C21641   1.420   8.380   8.832 -0.4265  0.0879 -0.0677
  902MOL0     C21642   1.539   8.309   8.816  0.3356 -0.3099 -1.5916
  902MOL0     O21643   1.596   8.255   8.700 -0.0592 -0.1680  0.4654
  902MOL0     C21644   1.571   8.347   8.595 -0.8189 -0.7383  0.1832
  902MOL0     C21645   1.659   8.316   8.470  0.0193 -0.3844 -0.5656
  902MOL0     C21646   1.807   8.286   8.499 -0.0393  1.1361 -0.5334
  902MOL0     C21647   1.886   8.257   8.365 -0.3771  0.2655 -0.2953
  902MOL0     C21648   2.034   8.264   8.382 -1.2729 -0.7828 -0.0405
  902MOL0     C21649   2.114   8.254   8.248 -0.1172 -0.0961  0.8765
  902MOL0     C21650   2.084   8.150   8.143 -0.3205  0.1282 -0.3180
  902MOL0     C21651   2.212   8.094   8.078  0.5241  0.3111 -0.8142
  902MOL0     N21652   2.185   7.995   7.969  0.7679 -0.4077  0.0769
  902MOL0     C21653   2.250   7.991   7.843 -0.6148 -0.7436  0.1335
  902MOL0     C21654   2.221   7.865   7.796 -0.7281 -0.4306 -0.3896
  902MOL0     C21655   2.272   7.786   7.675 -0.5669 -0.4316 -0.9416
  902MOL0     C21656   2.179   7.798   7.550  0.0497  0.4414 -0.2441
  902MOL0     C21657   2.169   7.935   7.491 -0.1648 -0.0718  0.3750
  902MOL0     C21658   2.113   7.931   7.346 -0.2920  0.1293  0.4362
  902MOL0     O21659   2.224   7.912   7.257  0.2507 -0.1634  0.0371
  902MOL0     C21660   2.223   7.938   7.124 -0.0174 -0.1180  0.3448
  902MOL0     C21661   2.330   7.894   7.043 -0.6364  0.4910 -0.5184
  902MOL0     C21662   2.319   7.884   6.898 -0.3969 -0.9124 -0.4910
  902MOL0     C21663   2.433   7.818   6.824 -0.1356 -0.4504 -0.5693
  902MOL0     C21664   2.200   7.938   6.844 -0.3860 -0.1828  0.7293
  902MOL0     C21665   2.180   7.950   6.700  0.4233  0.1549  1.0792
  902MOL0     O21666   2.059   7.900   6.655 -0.1991  0.4069  0.1068
  902MOL0     C21667   2.037   7.909   6.515  0.4379  1.1451  0.5202
  902MOL0     C21668   2.094   7.820   6.424  0.3805  0.3595 -0.1835
  902MOL0     C21669   2.040   7.810   6.291  0.1255  0.6048 -0.3723
  902MOL0     C21670   1.959   7.910   6.243  1.0390 -1.5352 -0.1988
  902MOL0     O21671   1.923   7.908   6.115  0.2046 -0.0632 -0.2169
  902MOL0     C21672   1.817   7.987   6.074 -0.0268  0.4232  0.5397
  902MOL0     C21673   1.754   7.920   5.957  0.3453 -0.4072 -0.1430
  902MOL0     C21674   1.625   7.855   5.992  1.0676  0.6553 -0.3951
  902MOL0     C21675   1.558   7.768   5.885 -0.3528  0.0848 -0.0504
  902MOL0     C21676   1.634   7.644   5.842 -0.1016 -0.6418  0.5331
  902MOL0     C21677   1.630   7.536   5.957  0.4757  0.2758 -0.2653
  902MOL0     C21678   1.690   7.401   5.923  0.1288  0.4642 -1.0323
  902MOL0     C21679   1.727   7.324   6.058  0.1828 -0.3536  0.6539
  902MOL0    Cl21680   1.579   7.263   6.137  0.7665 -0.1739  0.0889
  902MOL0     C21681   1.920   8.014   6.332 -0.4561  0.9217 -0.3464
  902MOL0     C21682   1.948   8.009   6.474  0.1108  0.4885 -0.1684
  902MOL0     O21683   2.268   8.007   6.629 -0.1575  1.3606  0.1325
  902MOL0     C21684   2.089   7.983   6.924 -0.2406 -0.1968  0.5541
  902MOL0     C21685   2.109   7.982   7.061  0.4331  0.0206 -0.4009
  902MOL0     N21686   2.146   7.797   7.892 -1.0767  0.0884  1.3855
  902MOL0     N21687   2.126   7.874   7.994  0.2234 -0.1215  0.0810
  902MOL0     C21688   1.616   8.273   8.935  1.0737 -0.2650  0.2268
  902MOL0     C21689   1.569   8.307   9.060  0.5034  0.1236  0.3456
  902MOL0     C21690   1.415   8.589   9.370 -0.2442 -0.8410  0.0135
  902MOL0     C21691   1.281   8.607   9.366  0.6115 -0.8605 -0.6694
  902MOL0     C21692   1.213   8.700   9.446 -0.5645 -0.1493  0.2372
  902MOL0     C21693   1.278   8.777   9.540  0.0824 -0.4925  1.1724
  902MOL0     O21694   1.198   8.829   9.641 -0.9204  0.4142  0.1984
  902MOL0     C21695   1.241   8.956   9.680 -0.0529 -0.6816 -0.0526
  902MOL0     C21696   1.121   9.049   9.688  0.2439 -0.4964 -0.1560
  902MOL0     C21697   1.012   8.996   9.788 -0.0181 -0.0267  0.5054
  902MOL0     C21698   0.924   9.111   9.833  0.3008 -0.2716 -0.1049
  902MOL0     C21699   0.953   9.159   9.969 -0.6144 -0.3102  0.2548
  902MOL0     C21700   0.992   9.194  10.075  0.4423 -0.0236 -0.8748
  902MOL0     C21701   1.416   8.775   9.532 -0.3531 -0.1932  0.4571
  902MOL0     C21702   1.483   8.678   9.448 -0.3918 -0.6181 -1.1788
  902MOL0     H21703   1.284   8.476   8.975  0.2207  1.2699  1.4864
  902MOL0     H21704   1.365   8.384   8.739  2.5239 -2.6977 -2.1727
  902MOL0     H21705   1.471   8.331   8.555 -0.8491 -1.3554  0.5051
  902MOL0     H21706   1.584   8.453   8.618  0.1993 -0.8581  0.2346
  902MOL0     H21707   1.617   8.233   8.413 -2.3211  1.4871 -1.7488
  902MOL0     H21708   1.646   8.403   8.405 -5.8799 -1.1559 -0.9691
  902MOL0     H21709   1.857   8.374   8.541  0.0813  1.6247 -1.6610
  902MOL0     H21710   1.801   8.210   8.578 -4.6366 -1.7698 -3.2123
  902MOL0     H21711   1.857   8.154   8.339 -0.7287  0.0137  1.0445
  902MOL0     H21712   1.850   8.322   8.284 -1.2138 -0.4760 -0.5409
  902MOL0     H21713   2.060   8.357   8.434  2.1175 -0.2566 -2.3835
  902MOL0     H21714   2.089   8.188   8.438  2.1941  1.3600 -0.2695
  902MOL0     H21715   2.115   8.350   8.195 -1.0204  0.8027  2.4181
  902MOL0     H21716   2.218   8.244   8.278  1.1041 -0.9807 -3.0634
  902MOL0     H21717   2.037   8.060   8.184  1.7219 -2.1784 -2.7241
  902MOL0     H21718   2.032   8.203   8.063  0.8946 -1.8443 -2.5307
  902MOL0     H21719   2.255   8.046   8.166  0.0803  2.9440  0.9303
  902MOL0     H21720   2.274   8.177   8.041  2.7128 -0.7052  0.3548
  902MOL0     H21721   2.322   8.053   7.792  1.3416 -1.0796  2.3062
  902MOL0     H21722   2.374   7.821   7.654 -0.6558  1.1490  1.0279
  902MOL0     H21723   2.281   7.682   7.707  0.1532 -0.3698 -0.9115
  902MOL0     H21724   2.081   7.760   7.581  1.1034 -1.1607  1.3593
  902MOL0     H21725   2.202   7.729   7.469  1.7249  1.2674 -0.5062
  902MOL0     H21726   2.263   7.991   7.488 -1.0128  1.3700 -0.0078
  902MOL0     H21727   2.086   7.979   7.548 -0.8355 -0.4871 -0.2641
  902MOL0     H21728   2.075   8.033   7.337 -3.9309 -1.2610 -3.7621
  902MOL0     H21729   2.024   7.867   7.340 -1.9121  2.1148  1.6557
  902MOL0     H21730   2.423   7.879   7.096  0.5209  0.5342 -2.4281
  902MOL0     H21731   2.406   7.770   6.730 -0.8859 -0.5303 -0.3248
  902MOL0     H21732   2.506   7.898   6.805 -0.7176  1.0457  2.7570
  902MOL0     H21733   2.487   7.748   6.888  1.3628 -0.8611 -2.2126
  902MOL0     H21734   2.178   7.758   6.456  1.5942  1.5479 -0.9570
  902MOL0     H21735   2.082   7.744   6.216  1.7898  2.2272 -0.9387
  902MOL0     H21736   1.746   8.013   6.153  1.0066  0.1742  1.5732
  902MOL0     H21737   1.843   8.091   6.053 -2.7523  1.9161  3.6512
  902MOL0     H21738   1.749   8.000   5.883  3.5441 -0.9020 -1.0570
  902MOL0     H21739   1.830   7.852   5.916 -1.3307 -1.7188 -1.1794
  902MOL0     H21740   1.554   7.935   6.016  0.5104  0.8071 -2.3659
  902MOL0     H21741   1.653   7.799   6.081  1.4952  2.2501  0.5209
  902MOL0     H21742   1.465   7.722   5.918 -0.1127 -2.1739 -2.2271
  902MOL0     H21743   1.526   7.831   5.802 -2.8762  1.0991  1.5603
  902MOL0     H21744   1.739   7.669   5.824 -0.5116 -0.3978 -1.8929
  902MOL0     H21745   1.587   7.599   5.754 -5.4555  4.0123  0.4780
  902MOL0     H21746   1.685   7.575   6.043 -0.5985 -1.0431  1.0677
  902MOL0     H21747   1.529   7.523   5.997  0.8149  0.1197  0.5713
  902MOL0     H21748   1.781   7.415   5.863  1.1890  3.0663  0.9541
  902MOL0     H21749   1.613   7.349   5.866 -0.8215 -0.8227  1.2922
  902MOL0     H21750   1.778   7.386   6.131 -1.9355  0.5473  1.4318
  902MOL0     H21751   1.789   7.240   6.024  2.1957  0.5409  1.9741
  902MOL0     H21752   1.860   8.098   6.301  1.1856  1.8411 -1.1443
  902MOL0     H21753   1.908   8.090   6.535  0.4223 -0.1228  0.8662
  902MOL0     H21754   1.998   8.022   6.881 -0.6943 -0.6944  1.0493
  902MOL0     H21755   2.022   7.999   7.124  1.7235 -2.4220  2.2628
  902MOL0     H21756   1.707   8.215   8.922  1.3630 -0.9484  4.1220
  902MOL0     H21757   1.632   8.278   9.144  2.4694  0.8726 -0.8146
  902MOL0     H21758   1.223   8.542   9.300  1.1958  1.0145 -3.1891
  902MOL0     H21759   1.105   8.708   9.453 -0.7444 -1.0973 -1.0670
  902MOL0     H21760   1.276   8.948   9.783 -1.9794  2.8364  1.0477
  902MOL0     H21761   1.317   8.998   9.613 -1.9456  0.4299 -1.6154
  902MOL0     H21762   1.066   9.071   9.596 -0.6482  3.6342  1.1389
  902MOL0     H21763   1.155   9.149   9.719  4.9308 -1.7390 -0.5994
  902MOL0     H21764   1.059   8.960   9.880 -0.1688  2.3493  1.5822
  902MOL0     H21765   0.951   8.930   9.726  1.1031  0.3304 -1.0492
  902MOL0     H21766   0.821   9.074   9.840  0.3574 -0.5737 -0.8021
  902MOL0     H21767   0.923   9.200   9.770 -0.0264  0.7898  1.3571
  902MOL0     H21768   1.039   9.238  10.161  1.0634  2.6417 -2.4435
  902MOL0     H21769   1.479   8.840   9.592  2.9061 -3.0142  0.3875
  902MOL0     H21770   1.591   8.688   9.438 -0.0662 -0.3091  1.6889
  903MOL0     O21771   2.524   2.997   1.043 -0.4085 -0.2874 -0.5351
  903MOL0     C21772   2.620   2.950   0.991  0.2706 -0.5947  1.6123
  903MOL0     O21773   2.738   2.977   1.031 -0.8416 -0.2812  0.9212
  903MOL0     C21774   2.764   3.051   1.144  0.4357 -0.5035 -0.2580
  903MOL0     C21775   2.825   3.181   1.144  0.5692 -0.2059  0.4435
  903MOL0     C21776   2.854   3.249   1.264 -0.2531 -1.3679  0.6756
  903MOL0     C21777   2.828   3.188   1.393  0.5848 -0.2156  0.0617
  903MOL0     O21778   2.880   3.241   1.504 -0.3705  0.4293  0.0064
  903MOL0     C21779   2.982   3.344   1.499  0.6538  0.3085  0.1308
  903MOL0     C21780   3.035   3.363   1.634 -0.1521 -0.1654  0.2596
  903MOL0     C21781   3.137   3.259   1.674 -1.0078 -0.1099  0.3951
  903MOL0     C21782   3.172   3.261   1.827  0.5628  0.4803 -0.4677
  903MOL0     C21783   3.293   3.172   1.847  0.0296 -0.2625  0.0601
  903MOL0     C21784   3.295   3.143   1.993 -0.2772  0.7374 -0.3646
  903MOL0     C21785   3.431   3.072   2.034  0.2313  0.0131  0.0537
  903MOL0     C21786   3.525   3.190   2.061  0.2611 -0.4519  0.0610
  903MOL0     N21787   3.631   3.143   2.154 -0.2173  0.8616 -0.3643
  903MOL0     C21788   3.617   3.103   2.287 -0.3502  0.7250 -1.0635
  903MOL0     C21789   3.742   3.053   2.314  0.7281 -0.8579  1.2972
  903MOL0     C21790   3.780   3.002   2.452 -0.1721 -0.7238  0.0078
  903MOL0     C21791   3.722   2.863   2.495 -0.4324 -0.9454 -0.2513
  903MOL0     C21792   3.735   2.765   2.387 -0.3300  0.0111 -0.6726
  903MOL0     C21793   3.773   2.632   2.442  0.4742  0.3491 -0.3454
  903MOL0     O21794   3.899   2.617   2.506 -0.3698  0.4963 -0.6011
  903MOL0     C21795   3.927   2.496   2.570 -0.2316  0.0829  0.5952
  903MOL0     C21796   4.054   2.467   2.626 -0.7069 -0.0079  0.4457
  903MOL0     C21797   4.091   2.349   2.691  0.1453 -0.0299 -0.6020
  903MOL0     C21798   4.210   2.344   2.778  0.0859  0.5360  0.1209
  903MOL0     C21799   3.999   2.244   2.686  0.4811 -0.1437  0.8828
  903MOL0     C21800   4.030   2.110   2.731 -0.7599 -1.1106  0.3182
  903MOL0     O21801   3.948   2.049   2.816 -0.0126 -0.1194  0.5504
  903MOL0     C21802   3.988   1.921   2.858 -0.1096 -0.5927 -0.4799
  903MOL0     C21803   3.905   1.815   2.823 -0.1312  0.1258  0.7546
  903MOL0     C21804   3.931   1.693   2.872  0.4618  0.0718 -0.3572
  903MOL0     C21805   4.020   1.671   2.974 -0.4416  0.6925 -0.9315
  903MOL0     O21806   4.057   1.555   3.044 -0.9828  0.4191 -0.2370
  903MOL0     C21807   3.965   1.437   3.029 -0.3481 -1.1383 -0.2783
  903MOL0     C21808   3.991   1.342   3.152 -0.4789 -0.0761 -0.5004
  903MOL0     C21809   3.925   1.204   3.127 -0.5441  0.3217  0.6122
  903MOL0     C21810   3.773   1.206   3.102 -0.3147  0.4455  0.9279
  903MOL0     C21811   3.709   1.069   3.086 -0.1316  0.0820  0.5119
  903MOL0     C21812   3.563   1.084   3.051  0.1756 -0.0962  0.8596
  903MOL0     C21813   3.530   1.164   2.922  0.2747 -0.1616 -0.2988
  903MOL0     C21814   3.388   1.195   2.886 -0.7442  0.5634 -0.2411
  903MOL0    Cl21815   3.298   1.316   2.997 -0.1138 -0.1235 -0.1781
  903MOL0     C21816   4.097   1.776   3.019  0.0432  0.4814  0.3711
  903MOL0     C21817   4.085   1.904   2.965 -0.1135 -0.2377 -0.5405
  903MOL0     O21818   4.130   2.058   2.679  0.6748 -0.8501  0.5569
  903MOL0     C21819   3.872   2.267   2.620  0.6132  0.0140 -0.6819
  903MOL0     C21820   3.838   2.391   2.568  0.4916  0.5635  0.3321
  903MOL0     N21821   3.821   3.051   2.199  0.2127  0.0406  0.1659
  903MOL0     N21822   3.755   3.102   2.110  0.2654  0.4708 -0.3807
  903MOL0     C21823   2.749   3.072   1.392 -0.9078 -0.0205 -0.1798
  903MOL0     C21824   2.728   2.999   1.275  0.0074  0.8252 -0.2445
  903MOL0     C21825   2.592   2.861   0.875  0.0097  0.2965 -0.6248
  903MOL0     C21826   2.687   2.820   0.781 -0.3859  0.8480 -0.4120
  903MOL0     C21827   2.641   2.728   0.685 -0.0956  0.3202 -0.6014
  903MOL0     C21828   2.518   2.673   0.682 -0.7469 -0.8298 -0.8825
  903MOL0     O21829   2.467   2.580   0.592  0.0843 -0.3796 -0.0399
  903MOL0     C21830   2.537   2.572   0.467 -0.2328  0.2828  0.1083
  903MOL0     C21831   2.474   2.462   0.386  0.3181 -0.5564  1.0042
  903MOL0     C21832   2.339   2.515   0.329  0.0716  0.3250 -0.2615
  903MOL0     C21833   2.274   2.386   0.278  0.1931 -0.5298 -0.1917
  903MOL0     C21834   2.207   2.292   0.369  1.1916 -0.0893  0.1479
  903MOL0     C21835   2.149   2.220   0.444 -0.5266 -0.1020  0.1247
  903MOL0     C21836   2.430   2.714   0.774 -0.1491 -0.5848  0.1850
  903MOL0     C21837   2.464   2.804   0.874  0.2546  0.4424 -0.7956
  903MOL0     H21838   2.870   3.217   1.052  2.7461 -1.1264  1.0730
  903MOL0     H21839   2.900   3.347   1.250 -2.0170 -0.2748  2.1195
  903MOL0     H21840   3.054   3.307   1.425 -1.9526  0.1671 -2.5507
  903MOL0     H21841   2.949   3.436   1.449  0.6865 -0.8058 -2.0865
  903MOL0     H21842   3.085   3.460   1.632  0.3623 -0.4313  0.0173
  903MOL0     H21843   2.952   3.373   1.704 -0.9042  1.9710 -0.8341
  903MOL0     H21844   3.095   3.160   1.651  1.6498 -1.0310 -0.9216
  903MOL0     H21845   3.230   3.276   1.619  0.0083 -2.3486  1.2930
  903MOL0     H21846   3.199   3.361   1.863 -0.4998 -0.2097  2.4898
  903MOL0     H21847   3.085   3.243   1.891 -0.8192  2.3501 -1.7012
  903MOL0     H21848   3.286   3.075   1.798 -0.0714 -0.9417  1.3726
  903MOL0     H21849   3.385   3.222   1.815  0.2258  0.7616  2.0776
  903MOL0     H21850   3.276   3.229   2.058 -2.6745 -1.5164  2.1908
  903MOL0     H21851   3.218   3.067   2.007  1.2682 -1.1918 -1.8561
  903MOL0     H21852   3.424   2.994   2.111  4.0457  0.0488  0.6314
  903MOL0     H21853   3.467   3.015   1.949  0.6637  0.3610 -0.0027
  903MOL0     H21854   3.477   3.279   2.102  2.8137  1.1911 -0.3628
  903MOL0     H21855   3.570   3.230   1.970 -0.8904 -0.2653 -0.4487
  903MOL0     H21856   3.531   3.119   2.351 -2.9017 -0.8521 -3.8231
  903MOL0     H21857   3.889   3.001   2.457 -0.1264  0.3184 -0.6858
  903MOL0     H21858   3.749   3.079   2.523 -1.8717 -0.4721 -0.9591
  903MOL0     H21859   3.618   2.864   2.528  0.5770 -1.4653  3.2809
  903MOL0     H21860   3.780   2.834   2.583 -1.7712 -0.3796  0.8427
  903MOL0     H21861   3.818   2.802   2.327  1.7022  0.5041  2.2030
  903MOL0     H21862   3.653   2.737   2.321 -0.0975 -1.5585 -0.3529
  903MOL0     H21863   3.769   2.566   2.355 -0.0446  1.1481 -0.9348
  903MOL0     H21864   3.689   2.598   2.503  0.3768  2.6705  0.9056
  903MOL0     H21865   4.124   2.548   2.610  0.0738 -0.7667 -0.0201
  903MOL0     H21866   4.194   2.290   2.871 -2.7323 -1.7496 -1.5255
  903MOL0     H21867   4.285   2.292   2.718 -0.3876  0.8203 -0.7422
  903MOL0     H21868   4.253   2.440   2.808  0.4215  0.2318  0.6276
  903MOL0     H21869   3.831   1.833   2.745  0.9562 -3.5254 -1.3446
  903MOL0     H21870   3.866   1.611   2.842 -1.0509  0.2552  2.0508
  903MOL0     H21871   3.859   1.461   3.035 -0.0481  0.7437 -1.8340
  903MOL0     H21872   3.991   1.383   2.938  2.0119 -1.6216  0.6006
  903MOL0     H21873   4.099   1.329   3.146 -0.3844  1.3526 -3.7801
  903MOL0     H21874   3.949   1.387   3.243  0.9934 -2.8188  1.7173
  903MOL0     H21875   3.953   1.136   3.208 -0.3372 -2.3199 -1.5509
  903MOL0     H21876   3.971   1.160   3.038 -1.9498  0.4210 -0.1950
  903MOL0     H21877   3.738   1.250   3.197  1.4800 -2.2934  3.0068
  903MOL0     H21878   3.757   1.265   3.011 -1.4677 -2.6094 -0.9883
  903MOL0     H21879   3.722   1.030   3.187 -0.4633  1.4425  1.1072
  903MOL0     H21880   3.763   1.004   3.016  1.8126 -0.9462  2.8482
  903MOL0     H21881   3.510   0.990   3.035  0.0839 -0.0079  0.6462
  903MOL0     H21882   3.519   1.131   3.139  1.7756 -0.8864  2.1282
  903MOL0     H21883   3.575   1.116   2.835  0.8999  0.9826 -0.6272
  903MOL0     H21884   3.575   1.263   2.929 -1.5729  0.9048 -2.4937
  903MOL0     H21885   3.338   1.098   2.891  0.0426 -0.1101 -3.3656
  903MOL0     H21886   3.369   1.233   2.786  0.2116  1.6841 -0.0151
  903MOL0     H21887   4.175   1.756   3.092  0.2663 -2.3240 -0.5113
  903MOL0     H21888   4.109   2.000   3.009 -2.6011 -0.4527  1.4959
  903MOL0     H21889   3.805   2.182   2.608  0.6653 -0.3890  1.3977
  903MOL0     H21890   3.735   2.396   2.535  0.8355 -2.3970 -1.6083
  903MOL0     H21891   2.719   3.019   1.482  1.5447  0.3333  0.9061
  903MOL0     H21892   2.683   2.901   1.287  1.1005  0.2654 -0.5600
  903MOL0     H21893   2.786   2.863   0.787 -1.8287  4.3460  0.9734
  903MOL0     H21894   2.720   2.707   0.614 -1.6385  0.0803 -2.3204
  903MOL0     H21895   2.536   2.659   0.401 -4.7229  0.4254  0.0523
  903MOL0     H21896   2.642   2.544   0.480 -0.7262 -0.2134  4.0361
  903MOL0     H21897   2.454   2.376   0.451 -0.1100 -1.0425  0.2402
  903MOL0     H21898   2.541   2.442   0.302 -0.5590  1.6291 -0.3230
  903MOL0     H21899   2.359   2.586   0.248  5.3571 -0.2062  0.2292
  903MOL0     H21900   2.274   2.553   0.408 -2.7472 -0.6732 -1.9470
  903MOL0     H21901   2.336   2.321   0.217  0.0650  0.9470 -1.9567
  903MOL0     H21902   2.210   2.422   0.197  1.5503  1.1354 -0.5665
  903MOL0     H21903   2.090   2.149   0.498 -0.8776 -0.0936 -0.2393
  903MOL0     H21904   2.327   2.683   0.761 -1.5924  3.4934  0.3682
  903MOL0     H21905   2.389   2.826   0.950 -0.3594  1.2570 -1.6187
  904MOL0     O21906   7.644   7.713   5.533  0.1864  0.1738 -1.0134
  904MOL0     C21907   7.604   7.785   5.628 -0.9773  0.1249 -0.8712
  904MOL0     O21908   7.520   7.743   5.732 -0.7600  0.2304  0.6119
  904MOL0     C21909   7.517   7.607   5.738 -0.1183 -0.3822  0.1650
  904MOL0     C21910   7.408   7.537   5.684 -0.8296  0.2722 -0.1864
  904MOL0     C21911   7.406   7.398   5.700  0.6748  1.0565  0.4021
  904MOL0     C21912   7.509   7.326   5.751  0.9282  0.4077  0.2058
  904MOL0     O21913   7.505   7.190   5.749 -0.1410  0.1111 -0.2640
  904MOL0     C21914   7.611   7.136   5.681 -0.4616 -0.4743  0.1523
  904MOL0     C21915   7.708   7.062   5.776 -0.2182 -0.3067  0.1416
  904MOL0     C21916   7.856   7.067   5.725  0.6076  0.2515 -0.4868
  904MOL0     C21917   7.869   6.955   5.621 -0.0361 -0.7487 -0.3181
  904MOL0     C21918   8.012   6.901   5.602  0.3474  1.1004  0.4166
  904MOL0     C21919   8.049   6.896   5.453 -0.1740  0.8364 -0.0168
  904MOL0     C21920   8.174   6.830   5.408 -1.2445 -0.6666  0.3298
  904MOL0     C21921   8.208   6.686   5.440  0.7044 -0.5127  0.2210
  904MOL0     N21922   8.240   6.663   5.586  0.5606  0.5294 -0.4368
  904MOL0     C21923   8.365   6.681   5.655  0.7192 -0.1031 -0.0627
  904MOL0     C21924   8.346   6.644   5.781  0.3175 -0.0361 -0.1972
  904MOL0     C21925   8.458   6.640   5.891 -0.1687 -0.1446 -0.6893
  904MOL0     C21926   8.569   6.529   5.868  0.3724 -0.3429  0.3443
  904MOL0     C21927   8.521   6.396   5.825 -0.1109 -0.2883 -0.3042
  904MOL0     C21928   8.423   6.337   5.936 -0.2539 -0.3620  0.1325
  904MOL0     O21929   8.372   6.214   5.884  0.7602  0.8999 -0.2721
  904MOL0     C21930   8.418   6.090   5.930 -0.1436 -0.6239 -0.0087
  904MOL0     C21931   8.502   6.064   6.043  0.8428 -0.4773  0.1660
  904MOL0     C21932   8.527   5.930   6.077 -0.6239 -0.6347  1.2093
  904MOL0     C21933   8.612   5.925   6.202 -1.7566  1.0563 -0.0072
  904MOL0     C21934   8.464   5.831   6.001 -0.3119 -0.4129 -0.3839
  904MOL0     C21935   8.479   5.689   6.046  0.4337  0.5335  0.3035
  904MOL0     O21936   8.466   5.587   5.955  0.5188 -1.0972 -0.3364
  904MOL0     C21937   8.481   5.457   5.988 -0.4850 -0.7255 -1.2984
  904MOL0     C21938   8.575   5.405   6.085  0.2859  0.4269 -0.3816
  904MOL0     C21939   8.575   5.268   6.106  0.4626  0.3052 -0.3735
  904MOL0     C21940   8.505   5.173   6.032 -0.5859 -0.6807 -0.0901
  904MOL0     O21941   8.516   5.039   6.060  0.1342 -0.1667 -0.8076
  904MOL0     C21942   8.441   4.945   5.979 -0.5140  0.4515 -0.3192
  904MOL0     C21943   8.476   4.804   6.024  0.6027 -0.8750  0.0647
  904MOL0     C21944   8.402   4.781   6.150  0.4945  1.2465  0.4572
  904MOL0     C21945   8.407   4.623   6.169 -0.0511 -0.3116  0.9081
  904MOL0     C21946   8.369   4.558   6.299 -0.0187  0.0838  0.5285
  904MOL0     C21947   8.438   4.607   6.420  0.5104 -0.1242 -0.0638
  904MOL0     C21948   8.569   4.521   6.441 -0.6641 -0.6787 -0.9548
  904MOL0     C21949   8.659   4.600   6.542 -0.0148 -0.4773  0.5180
  904MOL0    Cl21950   8.822   4.533   6.584 -0.0004  0.3403  0.0752
  904MOL0     C21951   8.425   5.223   5.931  0.7500 -0.3309  0.2652
  904MOL0     C21952   8.406   5.365   5.915 -1.2676  0.6052 -0.1864
  904MOL0     O21953   8.463   5.670   6.165  0.5926  0.1261  0.1516
  904MOL0     C21954   8.378   5.855   5.897  0.4504 -0.2992 -0.2756
  904MOL0     C21955   8.364   5.986   5.857  1.1877  0.3909 -0.1815
  904MOL0     N21956   8.205   6.608   5.797 -0.4457  0.1484  0.3964
  904MOL0     N21957   8.147   6.608   5.676 -0.0063  0.2852 -0.3113
  904MOL0     C21958   7.612   7.396   5.813  0.3428  0.3000 -0.3656
  904MOL0     C21959   7.618   7.535   5.809  0.9215  0.3806 -1.0337
  904MOL0     C21960   7.667   7.920   5.638 -0.1678  0.3288 -0.0510
  904MOL0     C21961   7.641   7.994   5.754 -0.2564 -1.0997 -0.8602
  904MOL0     C21962   7.693   8.118   5.760 -0.6176 -0.7567 -0.0097
  904MOL0     C21963   7.753   8.194   5.666  0.0547 -0.8311  1.2335
  904MOL0     O21964   7.773   8.332   5.688  0.5683  0.0639  0.6047
  904MOL0     C21965   7.837   8.421   5.598 -0.3085  0.5421 -0.3073
  904MOL0     C21966   7.754   8.452   5.469 -0.3909  0.6250  0.0045
  904MOL0     C21967   7.600   8.462   5.488  0.5007  0.3913  0.2674
  904MOL0     C21968   7.548   8.563   5.580 -0.5856  1.3098 -0.1229
  904MOL0     C21969   7.622   8.691   5.567 -0.3681  0.7004  0.2035
  904MOL0     C21970   7.662   8.807   5.559  0.0943 -0.3140  0.2740
  904MOL0     C21971   7.786   8.119   5.550 -0.9470  0.7877  0.0086
  904MOL0     C21972   7.745   7.980   5.533  0.5457 -0.2748 -0.6108
  904MOL0     H21973   7.331   7.607   5.653  0.0617  1.9054  1.0535
  904MOL0     H21974   7.328   7.326   5.675 -0.5576  2.0170  1.3732
  904MOL0     H21975   7.576   7.064   5.607 -0.6645 -0.8765  0.6456
  904MOL0     H21976   7.660   7.217   5.625  2.3175 -0.8041  1.9353
  904MOL0     H21977   7.707   7.115   5.872 -2.9925  1.0719 -0.5532
  904MOL0     H21978   7.678   6.959   5.799 -0.0535 -0.1728  0.9754
  904MOL0     H21979   7.897   7.161   5.687  2.0808  0.6638  1.9432
  904MOL0     H21980   7.910   7.036   5.815  2.7859  0.3538 -1.6906
  904MOL0     H21981   7.808   6.868   5.646  1.4081 -1.1839  1.9413
  904MOL0     H21982   7.830   6.997   5.527 -0.8211 -0.4921  0.1175
  904MOL0     H21983   8.074   6.974   5.656  0.7337  1.9193 -1.0593
  904MOL0     H21984   8.021   6.807   5.656 -1.5791  0.2367 -0.6886
  904MOL0     H21985   7.966   6.840   5.408 -1.6616  3.0803 -0.2489
  904MOL0     H21986   8.045   6.996   5.408  1.8850  0.0020 -2.2065
  904MOL0     H21987   8.169   6.835   5.299  0.6446  3.1737  0.2559
  904MOL0     H21988   8.261   6.891   5.435 -0.9564 -0.4685 -0.9812
  904MOL0     H21989   8.289   6.642   5.382  0.6356 -3.4976  2.1948
  904MOL0     H21990   8.121   6.623   5.424  1.0576 -2.5859  4.8475
  904MOL0     H21991   8.448   6.738   5.614 -0.8806  3.3320  1.0264
  904MOL0     H21992   8.512   6.735   5.895  0.3779 -0.4175 -1.4569
  904MOL0     H21993   8.403   6.619   5.983  0.7798 -1.6005 -0.4284
  904MOL0     H21994   8.633   6.532   5.957 -0.0444  2.6836  0.6762
  904MOL0     H21995   8.629   6.575   5.789 -2.3983  3.5039  0.2051
  904MOL0     H21996   8.605   6.328   5.807  1.3767  1.7245 -1.5475
  904MOL0     H21997   8.469   6.400   5.729  0.4615 -0.0046 -0.6148
  904MOL0     H21998   8.338   6.406   5.943 -1.3850 -1.8705  2.7439
  904MOL0     H21999   8.465   6.339   6.037  2.6637  0.5999 -0.9805
  904MOL0     H22000   8.548   6.148   6.095 -1.3205  0.3122  0.9454
  904MOL0     H22001   8.629   5.826   6.246 -0.0887  1.1449 -0.3863
  904MOL0     H22002   8.713   5.957   6.174 -1.2511  1.4045  2.1021
  904MOL0     H22003   8.586   5.988   6.287  2.9913  0.2324  2.4272
  904MOL0     H22004   8.623   5.468   6.160 -2.1833  2.1942 -0.1570
  904MOL0     H22005   8.614   5.234   6.201 -2.3375 -1.2934  0.2867
  904MOL0     H22006   8.334   4.964   5.992 -0.5242 -0.6652  1.8430
  904MOL0     H22007   8.466   4.952   5.873 -1.9203 -1.2552 -0.8186
  904MOL0     H22008   8.454   4.742   5.937 -3.7942 -1.6695  1.5076
  904MOL0     H22009   8.581   4.809   6.052  0.6437  1.2164 -0.2769
  904MOL0     H22010   8.300   4.817   6.137  0.1945  0.4550  0.5416
  904MOL0     H22011   8.456   4.833   6.230  3.2041 -0.0670 -0.4269
  904MOL0     H22012   8.326   4.594   6.102  1.4483  0.5687 -1.4265
  904MOL0     H22013   8.501   4.580   6.133  0.8174  0.8584  1.7113
  904MOL0     H22014   8.378   4.449   6.295 -0.0117  0.1242 -1.5515
  904MOL0     H22015   8.266   4.580   6.326 -1.4285 -1.8856 -2.5984
  904MOL0     H22016   8.470   4.711   6.413  1.2445 -0.4485 -2.3642
  904MOL0     H22017   8.370   4.598   6.506  1.3385  0.1532  0.6281
  904MOL0     H22018   8.629   4.520   6.350  1.1736  2.0717  0.0677
  904MOL0     H22019   8.552   4.420   6.479  2.6114 -1.7761 -2.0361
  904MOL0     H22020   8.599   4.614   6.632 -1.9462  2.8636 -1.0618
  904MOL0     H22021   8.660   4.706   6.513  0.5896 -1.1422 -2.2002
  904MOL0     H22022   8.354   5.157   5.882 -1.3779  0.1492  2.4719
  904MOL0     H22023   8.336   5.396   5.838  0.4906  2.4508 -1.1484
  904MOL0     H22024   8.353   5.779   5.824  1.1088  0.2802 -1.1311
  904MOL0     H22025   8.330   6.013   5.758  2.4176 -0.4604 -0.8630
  904MOL0     H22026   7.693   7.341   5.859  0.0664  1.0041  1.0254
  904MOL0     H22027   7.695   7.576   5.873 -1.6343  0.1517  2.4497
  904MOL0     H22028   7.582   7.948   5.832  0.3305 -1.6850 -0.7478
  904MOL0     H22029   7.674   8.172   5.852  0.4472 -3.6760  2.0700
  904MOL0     H22030   7.866   8.516   5.643 -1.7493 -0.2085  2.3796
  904MOL0     H22031   7.931   8.375   5.565 -0.6504 -1.6991  1.5876
  904MOL0     H22032   7.759   8.360   5.410  3.2432 -0.9107  2.3083
  904MOL0     H22033   7.806   8.532   5.416  0.2990 -0.0886 -0.4225
  904MOL0     H22034   7.569   8.358   5.505  2.1642 -0.3925 -1.1527
  904MOL0     H22035   7.555   8.478   5.389  0.7984  0.9450  0.2210
  904MOL0     H22036   7.577   8.508   5.670  0.3414  1.8700 -0.0666
  904MOL0     H22037   7.439   8.575   5.580 -1.1056 -2.1210  1.1684
  904MOL0     H22038   7.667   8.914   5.568 -0.0431 -0.3211  0.4569
  904MOL0     H22039   7.821   8.167   5.459  4.1713  0.7405  1.6694
  904MOL0     H22040   7.760   7.927   5.440  1.4699 -1.4168  0.1537
  905MOL0     O22041   1.416   1.461   9.102  0.5342 -0.4760 -0.1582
  905MOL0     C22042   1.451   1.525   9.003 -0.4755 -0.4017  0.7756
  905MOL0     O22043   1.368   1.620   8.939 -0.1207 -0.4402 -0.0453
  905MOL0     C22044   1.234   1.606   8.955 -0.1451 -0.7010  0.4608
  905MOL0     C22045   1.176   1.646   9.082  0.1487  0.5015  0.2308
  905MOL0     C22046   1.039   1.648   9.089 -0.2313 -0.3026  0.9139
  905MOL0     C22047   0.959   1.615   8.977 -0.7051 -0.5135 -0.0658
  905MOL0     O22048   0.823   1.612   9.001 -0.1485 -0.0534 -0.9630
  905MOL0     C22049   0.732   1.601   8.894 -0.0569  0.2323 -0.5581
  905MOL0     C22050   0.584   1.621   8.919  0.3136  0.1756 -0.0543
  905MOL0     C22051   0.517   1.675   8.797  0.1703  0.3673  0.0983
  905MOL0     C22052   0.374   1.704   8.833 -0.6556  0.1523 -0.3432
  905MOL0     C22053   0.292   1.779   8.734 -0.3748 -0.4532 -0.7039
  905MOL0     C22054   0.321   1.929   8.712 -0.0392  0.1476 -0.1777
  905MOL0     C22055   0.211   1.997   8.629 -0.8302 -0.6961 -0.0421
  905MOL0     C22056   0.192   1.934   8.496  0.0353  0.5398  0.1524
  905MOL0     N22057   0.316   1.950   8.411  0.0154 -1.3536  0.1553
  905MOL0     C22058   0.371   2.073   8.368  0.3434  0.2533 -0.2586
  905MOL0     C22059   0.463   2.041   8.273  0.4351  0.5702  0.2595
  905MOL0     C22060   0.563   2.124   8.203 -0.2052  0.3829  0.0374
  905MOL0     C22061   0.532   2.156   8.052  0.2946  0.5984 -0.5475
  905MOL0     C22062   0.397   2.213   8.031 -0.7483  0.4239 -0.3527
  905MOL0     C22063   0.380   2.340   8.111  0.3777  0.4936 -0.7680
  905MOL0     O22064   0.484   2.443   8.097  0.3073  0.7898  0.4895
  905MOL0     C22065   0.460   2.563   8.154 -0.4842  0.5155  0.6299
  905MOL0     C22066   0.412   2.580   8.285  0.2459  0.0608 -0.6332
  905MOL0     C22067   0.380   2.700   8.346 -0.8733 -0.9797  0.9811
  905MOL0     C22068   0.342   2.693   8.494 -0.8241 -0.3790 -0.6232
  905MOL0     C22069   0.403   2.818   8.266 -0.1384 -0.3220 -0.3046
  905MOL0     C22070   0.380   2.955   8.321  0.7827  0.0148 -0.3786
  905MOL0     O22071   0.415   3.061   8.236  1.1217  0.3630  0.2251
  905MOL0     C22072   0.374   3.191   8.247 -0.2844 -0.0331 -0.4242
  905MOL0     C22073   0.287   3.249   8.330 -0.8446 -0.4052  0.4283
  905MOL0     C22074   0.248   3.390   8.314 -0.0526 -0.3538  0.2369
  905MOL0     C22075   0.315   3.470   8.233 -0.3641 -0.2409  0.1935
  905MOL0     O22076   0.259   3.591   8.209  0.2080 -0.2273  0.1207
  905MOL0     C22077   0.347   3.711   8.225 -0.1426 -0.3848 -0.2274
  905MOL0     C22078   0.416   3.753   8.096 -0.0118  0.3841 -0.0360
  905MOL0     C22079   0.547   3.826   8.131 -0.2546  0.6020  0.0116
  905MOL0     C22080   0.648   3.855   8.010  0.7092 -0.5159  1.2438
  905MOL0     C22081   0.752   3.951   8.046 -1.1736  0.1510 -0.3899
  905MOL0     C22082   0.843   3.977   7.925  0.0234  0.0622  0.9893
  905MOL0     C22083   0.939   4.094   7.967 -0.4779  0.8373 -0.0264
  905MOL0     C22084   0.876   4.229   8.010  0.7285 -0.1101  0.5881
  905MOL0    Cl22085   0.793   4.290   7.866  0.0268 -0.1375 -0.3325
  905MOL0     C22086   0.406   3.409   8.144  1.4050  0.0583 -0.3309
  905MOL0     C22087   0.427   3.269   8.151 -0.0843  0.4510 -0.2665
  905MOL0     O22088   0.320   2.968   8.429 -1.1185  0.0558 -0.6054
  905MOL0     C22089   0.475   2.800   8.148  0.7042  0.3245  0.6113
  905MOL0     C22090   0.501   2.682   8.092  0.1554 -0.4994  0.6568
  905MOL0     N22091   0.452   1.904   8.259 -0.5324 -0.2237 -0.3143
  905MOL0     N22092   0.366   1.849   8.341 -1.0605  0.2513 -0.5749
  905MOL0     C22093   1.021   1.571   8.855 -0.5082  0.0019  0.2442
  905MOL0     C22094   1.157   1.568   8.845 -0.8270  0.6365 -0.4527
  905MOL0     C22095   1.588   1.511   8.968  0.9001 -0.3324 -0.2536
  905MOL0     C22096   1.648   1.637   8.927  0.4469  0.6258 -0.1953
  905MOL0     C22097   1.788   1.639   8.930  0.0350  0.4440  1.1920
  905MOL0     C22098   1.871   1.529   8.957  0.7885 -0.3000  0.3433
  905MOL0     O22099   2.005   1.554   8.946 -0.6012 -0.2356 -0.4586
  905MOL0     C22100   2.097   1.441   8.965 -0.2597 -0.7418 -1.5055
  905MOL0     C22101   2.229   1.519   8.974 -0.3535 -0.1870  0.3942
  905MOL0     C22102   2.358   1.437   8.983 -0.0300 -0.1454 -0.3705
  905MOL0     C22103   2.356   1.337   8.874 -0.9237  0.7057  0.4179
  905MOL0     C22104   2.490   1.277   8.860 -0.9619  0.5621  0.3449
  905MOL0     C22105   2.595   1.215   8.838 -0.8977 -0.3953  0.1755
  905MOL0     C22106   1.810   1.408   8.996 -0.3440  0.0098 -0.6417
  905MOL0     C22107   1.672   1.401   9.002  0.1184 -0.2325 -0.1154
  905MOL0     H22108   1.235   1.685   9.164 -1.2395 -0.9616  1.9909
  905MOL0     H22109   0.985   1.685   9.176 -0.5833 -0.0619  0.5989
  905MOL0     H22110   0.750   1.671   8.812 -4.0845 -0.4201 -2.2519
  905MOL0     H22111   0.732   1.497   8.858 -2.0256  0.6800 -2.0405
  905MOL0     H22112   0.540   1.523   8.943  2.4417 -0.3506  2.2383
  905MOL0     H22113   0.571   1.676   9.013 -2.4280 -1.6850  0.7716
  905MOL0     H22114   0.568   1.768   8.771  0.8155  0.1835  0.6864
  905MOL0     H22115   0.518   1.594   8.723  0.0087 -2.7878  3.2802
  905MOL0     H22116   0.331   1.610   8.868  2.3848 -1.1814  0.1233
  905MOL0     H22117   0.378   1.765   8.924 -0.2816  1.7611 -1.4013
  905MOL0     H22118   0.323   1.725   8.644  0.7689 -1.3364  0.1821
  905MOL0     H22119   0.192   1.766   8.775  0.4199  2.2670  2.6516
  905MOL0     H22120   0.334   1.979   8.809  1.3030  0.2078 -0.3725
  905MOL0     H22121   0.413   1.935   8.654 -0.3984  0.9320 -0.6927
  905MOL0     H22122   0.123   2.000   8.694  1.6712  1.2858  3.5480
  905MOL0     H22123   0.254   2.097   8.618  1.5526 -1.3615  2.3231
  905MOL0     H22124   0.104   1.982   8.452 -1.8737 -1.5148  1.4563
  905MOL0     H22125   0.164   1.828   8.504  0.7693 -0.0182 -3.2856
  905MOL0     H22126   0.365   2.172   8.411  2.4390  0.7096 -0.8875
  905MOL0     H22127   0.588   2.221   8.248 -1.9344  1.7194 -1.7250
  905MOL0     H22128   0.650   2.058   8.212 -0.7713 -0.3611  0.1870
  905MOL0     H22129   0.540   2.060   8.001 -2.4192  0.4363 -0.8476
  905MOL0     H22130   0.613   2.215   8.009  2.0836 -3.9153 -4.2229
  905MOL0     H22131   0.329   2.134   8.064 -0.0066  0.4517  1.4007
  905MOL0     H22132   0.388   2.224   7.923 -1.9282 -2.5525 -0.6482
  905MOL0     H22133   0.383   2.319   8.218  1.0884  0.7202 -0.7394
  905MOL0     H22134   0.285   2.379   8.073 -0.2107 -0.3271 -0.1858
  905MOL0     H22135   0.369   2.496   8.339  0.6200  0.1018 -0.2723
  905MOL0     H22136   0.381   2.777   8.553 -0.2100  0.3524 -2.0071
  905MOL0     H22137   0.237   2.676   8.519  0.0643 -3.5270  1.5169
  905MOL0     H22138   0.397   2.615   8.546  1.9365  1.6649 -0.2325
  905MOL0     H22139   0.245   3.199   8.417 -1.8010  1.1205  0.8767
  905MOL0     H22140   0.159   3.426   8.364  0.4349  4.0351 -1.5845
  905MOL0     H22141   0.291   3.798   8.260 -1.5214 -1.5584  0.6217
  905MOL0     H22142   0.414   3.681   8.306 -0.1836 -1.3698 -0.5441
  905MOL0     H22143   0.448   3.666   8.039  1.2499  0.4670  0.5291
  905MOL0     H22144   0.344   3.802   8.029  0.0710 -1.2084 -1.3600
  905MOL0     H22145   0.611   3.770   8.200 -0.0151 -0.0132 -0.6821
  905MOL0     H22146   0.511   3.917   8.178 -1.1686  0.1047  0.2969
  905MOL0     H22147   0.686   3.767   7.957 -2.1680  0.6129 -3.2458
  905MOL0     H22148   0.597   3.894   7.922 -0.2509 -3.1373  0.5673
  905MOL0     H22149   0.802   3.903   8.131 -0.8597  1.0076 -0.0849
  905MOL0     H22150   0.707   4.039   8.093  2.0052  0.8935  1.5979
  905MOL0     H22151   0.912   3.896   7.898  1.4016  0.8765  1.9206
  905MOL0     H22152   0.789   4.015   7.837 -2.1744 -1.2414  1.7095
  905MOL0     H22153   1.011   4.118   7.888  0.1246 -1.1855 -0.1467
  905MOL0     H22154   1.000   4.059   8.051 -1.8446 -1.4999  0.0665
  905MOL0     H22155   0.956   4.299   8.037  2.6094 -1.3765 -1.3855
  905MOL0     H22156   0.809   4.219   8.095 -0.2342  1.0721  0.0035
  905MOL0     H22157   0.457   3.461   8.064  1.1026  3.2381  1.3717
  905MOL0     H22158   0.484   3.214   8.077 -0.3498  0.4039 -0.4413
  905MOL0     H22159   0.507   2.896   8.109  0.9378  1.8789  4.2815
  905MOL0     H22160   0.553   2.664   7.998 -1.7319 -0.9936 -0.3406
  905MOL0     H22161   0.966   1.557   8.762  1.2454  6.0045 -2.1944
  905MOL0     H22162   1.214   1.543   8.756 -0.2477  1.2886 -0.2750
  905MOL0     H22163   1.592   1.720   8.884  1.4471  2.6663  2.2074
  905MOL0     H22164   1.827   1.738   8.907  0.0941  0.1468 -0.0209
  905MOL0     H22165   2.077   1.378   9.052 -2.9222  0.9577 -0.7794
  905MOL0     H22166   2.114   1.377   8.878  4.5362 -0.3222 -1.1458
  905MOL0     H22167   2.226   1.578   9.066  2.5291 -0.2761  0.6448
  905MOL0     H22168   2.235   1.583   8.885  0.6536  0.4591  0.9069
  905MOL0     H22169   2.353   1.384   9.079  3.7181 -2.7913 -1.4364
  905MOL0     H22170   2.443   1.504   8.970 -0.9528  1.0491 -0.5341
  905MOL0     H22171   2.324   1.382   8.780  1.4092  1.3799 -0.1275
  905MOL0     H22172   2.289   1.252   8.892  0.8916 -1.0135 -0.4717
  905MOL0     H22173   2.687   1.159   8.844 -0.1850  0.7273  0.0405
  905MOL0     H22174   1.878   1.332   9.035 -0.1727  0.6218  0.2852
  905MOL0     H22175   1.635   1.313   9.054  4.5982 -2.4217 -0.1436
  906MOL0     O22176   0.595   0.258   7.249 -0.0467  0.1715  0.7383
  906MOL0     C22177   0.592   0.381   7.231  0.6653 -0.2898 -0.2790
  906MOL0     O22178   0.485   0.461   7.254 -0.6059  0.2412 -0.0826
  906MOL0     C22179   0.358   0.403   7.266 -0.1125 -0.7661  0.4265
  906MOL0     C22180   0.268   0.481   7.346 -0.0646 -0.8530  0.1414
  906MOL0     C22181   0.135   0.441   7.350  1.3776 -0.1583  0.7880
  906MOL0     C22182   0.088   0.340   7.266 -0.2962  0.5349  0.7377
  906MOL0     O22183  -0.041   0.286   7.267 -0.0709 -0.4946  0.1217
  906MOL0     C22184  -0.148   0.378   7.227 -0.3211 -0.3221 -0.6921
  906MOL0     C22185  -0.290   0.325   7.240  0.6699 -0.3765 -0.0027
  906MOL0     C22186  -0.329   0.272   7.376 -0.2746 -1.3340 -0.1919
  906MOL0     C22187  -0.473   0.226   7.363  0.2684  0.1676 -0.2434
  906MOL0     C22188  -0.513   0.146   7.489  0.2743  0.1225  0.7903
  906MOL0     C22189  -0.661   0.105   7.492 -0.3974 -0.3259  0.1883
  906MOL0     C22190  -0.706   0.052   7.636 -0.4695  0.4736  0.3106
  906MOL0     C22191  -0.646  -0.073   7.691  0.8538  0.8049  1.0102
  906MOL0     N22192  -0.691  -0.194   7.621 -0.9358 -0.6363  0.4513
  906MOL0     C22193  -0.607  -0.263   7.526  0.0231  0.1197  0.1979
  906MOL0     C22194  -0.691  -0.354   7.468 -0.2292 -0.5688 -1.4701
  906MOL0     C22195  -0.657  -0.452   7.367 -0.5846  0.0236  0.4376
  906MOL0     C22196  -0.677  -0.598   7.417  1.1190  0.2481 -0.0785
  906MOL0     C22197  -0.655  -0.704   7.308  0.1322 -0.1953  0.2551
  906MOL0     C22198  -0.666  -0.856   7.340  0.0332 -0.2250  0.0970
  906MOL0     O22199  -0.716  -0.933   7.226  0.8022  0.6420  0.0494
  906MOL0     C22200  -0.726  -1.070   7.240  1.3873 -1.3796 -0.1487
  906MOL0     C22201  -0.677  -1.140   7.353  0.1879  0.8453  0.6032
  906MOL0     C22202  -0.717  -1.268   7.394  0.8892  0.5113  0.6305
  906MOL0     C22203  -0.670  -1.320   7.534 -0.0863 -0.3873 -0.0119
  906MOL0     C22204  -0.812  -1.332   7.302  0.0305 -0.9677 -0.6095
  906MOL0     C22205  -0.864  -1.469   7.324  0.5504 -0.5742  0.1559
  906MOL0     O22206  -0.951  -1.503   7.227  0.1160 -0.2419  0.1142
  906MOL0     C22207  -1.003  -1.626   7.226 -0.5420  0.4258  0.5350
  906MOL0     C22208  -1.130  -1.653   7.270  0.8979  0.0668  0.1354
  906MOL0     C22209  -1.169  -1.789   7.276  0.3182  0.2020  0.5010
  906MOL0     C22210  -1.086  -1.895   7.248 -0.0114  0.2256 -0.2737
  906MOL0     O22211  -1.154  -2.011   7.280  0.2991 -0.1454 -0.3566
  906MOL0     C22212  -1.103  -2.142   7.261  0.1752 -0.7018  0.1797
  906MOL0     C22213  -1.160  -2.244   7.361 -0.7827 -0.5477  0.1159
  906MOL0     C22214  -1.138  -2.212   7.503 -0.3001 -0.3776 -0.2597
  906MOL0     C22215  -1.219  -2.295   7.613  0.0360  0.6795  0.3101
  906MOL0     C22216  -1.189  -2.290   7.752 -0.9078  0.8582 -0.0470
  906MOL0     C22217  -1.210  -2.413   7.846 -0.0188 -0.0246 -0.4944
  906MOL0     C22218  -1.192  -2.368   7.993 -0.3611 -0.8323 -0.8478
  906MOL0     C22219  -1.319  -2.298   8.047 -0.2092  0.6647 -0.3609
  906MOL0    Cl22220  -1.308  -2.272   8.230  0.0895  0.0060  0.0725
  906MOL0     C22221  -0.953  -1.866   7.212 -0.6684  1.2377 -0.4537
  906MOL0     C22222  -0.918  -1.733   7.211  0.4635 -0.0250  0.4504
  906MOL0     O22223  -0.832  -1.540   7.418 -0.2277 -0.6918 -0.1523
  906MOL0     C22224  -0.864  -1.265   7.192  0.0902 -0.9384 -0.2586
  906MOL0     C22225  -0.829  -1.128   7.169 -0.6513 -0.0453  0.0251
  906MOL0     N22226  -0.819  -0.351   7.531  0.0772  0.2815 -0.4630
  906MOL0     N22227  -0.815  -0.255   7.632  0.5569  0.6861 -0.1838
  906MOL0     C22228   0.177   0.269   7.184 -0.1567  0.1106  0.6914
  906MOL0     C22229   0.310   0.305   7.178  0.5144  0.3604 -1.1619
  906MOL0     C22230   0.709   0.453   7.178  0.5527 -0.4095 -0.2181
  906MOL0     C22231   0.718   0.595   7.205  0.8132  0.2305  0.3193
  906MOL0     C22232   0.815   0.670   7.142 -0.0332  0.2377 -0.8438
  906MOL0     C22233   0.920   0.615   7.077  0.1539  0.5027 -0.2808
  906MOL0     O22234   1.029   0.679   7.040  0.2246 -0.0574  0.3704
  906MOL0     C22235   0.995   0.741   6.913 -0.6197 -0.1705  0.4441
  906MOL0     C22236   1.117   0.794   6.836 -0.0436 -0.7314  0.0036
  906MOL0     C22237   1.189   0.891   6.925  0.0059  0.1285  0.0409
  906MOL0     C22238   1.298   0.969   6.853  0.2527 -0.7630  0.3453
  906MOL0     C22239   1.245   1.041   6.734  0.4704  0.1480 -0.0761
  906MOL0     C22240   1.187   1.111   6.654  0.4100 -0.9024 -0.0055
  906MOL0     C22241   0.927   0.471   7.068  0.0248  0.5552  1.5465
  906MOL0     C22242   0.818   0.392   7.113  0.1312  0.4793  0.8409
  906MOL0     H22243   0.307   0.571   7.393 -0.6479 -0.2968 -0.4116
  906MOL0     H22244   0.052   0.496   7.392  0.2775  0.1641 -1.6358
  906MOL0     H22245  -0.148   0.478   7.272 -0.9501  0.6080 -2.6542
  906MOL0     H22246  -0.121   0.406   7.125  0.5235 -0.7521 -0.5969
  906MOL0     H22247  -0.361   0.404   7.214 -1.2271 -1.9502  0.1361
  906MOL0     H22248  -0.305   0.245   7.167 -1.9703  1.3305 -1.4815
  906MOL0     H22249  -0.272   0.183   7.402  0.7769 -0.1118  1.9715
  906MOL0     H22250  -0.322   0.346   7.457 -1.4226 -1.8108  0.3777
  906MOL0     H22251  -0.547   0.303   7.340 -0.1296 -0.7609 -2.3916
  906MOL0     H22252  -0.487   0.148   7.287 -0.9248 -0.8006  0.9295
  906MOL0     H22253  -0.449   0.058   7.494 -1.9343 -1.8697 -2.4634
  906MOL0     H22254  -0.497   0.223   7.566 -0.1721  1.7260 -0.6536
  906MOL0     H22255  -0.729   0.187   7.468 -1.1279 -1.7742 -3.2358
  906MOL0     H22256  -0.688   0.027   7.420 -0.6888  0.2757 -0.3577
  906MOL0     H22257  -0.695   0.128   7.713 -0.5856  0.8758 -0.0673
  906MOL0     H22258  -0.814   0.039   7.629 -0.3562 -0.1676 -0.3941
  906MOL0     H22259  -0.689  -0.095   7.789  1.2335 -3.5145  0.4237
  906MOL0     H22260  -0.538  -0.092   7.693  0.6173 -0.9854 -0.4962
  906MOL0     H22261  -0.502  -0.257   7.502 -0.7244  1.5234 -3.3979
  906MOL0     H22262  -0.715  -0.418   7.281 -3.3280 -3.2911  0.7371
  906MOL0     H22263  -0.553  -0.442   7.335 -0.4633  1.9554  1.3285
  906MOL0     H22264  -0.776  -0.606   7.463  0.5759 -0.1088 -1.2835
  906MOL0     H22265  -0.614  -0.637   7.498  1.9398  2.0065  0.1847
  906MOL0     H22266  -0.554  -0.688   7.271 -0.7950  0.7616 -2.0916
  906MOL0     H22267  -0.724  -0.683   7.226 -0.0495 -2.5810 -0.2584
  906MOL0     H22268  -0.731  -0.881   7.425 -1.6063 -0.5372 -1.2027
  906MOL0     H22269  -0.562  -0.884   7.355  0.7717  2.2250 -0.0530
  906MOL0     H22270  -0.600  -1.099   7.418  2.3893 -1.8036 -0.1456
  906MOL0     H22271  -0.573  -1.276   7.559  2.2202 -4.0573 -1.5183
  906MOL0     H22272  -0.740  -1.279   7.607 -2.3659 -4.7910  0.5857
  906MOL0     H22273  -0.659  -1.428   7.546  1.1296 -0.1126  1.6407
  906MOL0     H22274  -1.196  -1.578   7.313  0.6523  0.5927 -1.1089
  906MOL0     H22275  -1.272  -1.808   7.301 -0.6621 -0.2575 -3.2553
  906MOL0     H22276  -1.120  -2.173   7.158 -0.6030 -0.1879  0.1461
  906MOL0     H22277  -0.996  -2.137   7.282 -0.1953  0.5655  2.0700
  906MOL0     H22278  -1.270  -2.243   7.362 -0.7766  0.8424  0.7821
  906MOL0     H22279  -1.125  -2.343   7.330  0.8279 -0.5821  1.9192
  906MOL0     H22280  -1.166  -2.109   7.524 -0.3868 -0.7930  1.8826
  906MOL0     H22281  -1.031  -2.217   7.525 -0.6132  0.1485  1.5205
  906MOL0     H22282  -1.324  -2.267   7.601  0.2414  2.8291  2.6730
  906MOL0     H22283  -1.216  -2.403   7.594 -1.4768  0.6701 -0.0306
  906MOL0     H22284  -1.237  -2.206   7.803  2.1477  1.5614  1.9222
  906MOL0     H22285  -1.083  -2.266   7.763 -1.2609  2.7225 -0.3875
  906MOL0     H22286  -1.315  -2.442   7.841 -0.4358  1.3838 -0.3605
  906MOL0     H22287  -1.156  -2.500   7.809  0.4522  0.7917 -1.8127
  906MOL0     H22288  -1.109  -2.298   8.009 -1.2673 -0.2066  1.6403
  906MOL0     H22289  -1.172  -2.461   8.046  2.3030  0.6334  0.9871
  906MOL0     H22290  -1.405  -2.357   8.016  0.8319 -1.0078 -0.1923
  906MOL0     H22291  -1.338  -2.199   8.004 -2.1693 -0.3265 -1.9267
  906MOL0     H22292  -0.880  -1.945   7.194 -2.0868 -0.3247  0.3345
  906MOL0     H22293  -0.819  -1.710   7.174  1.2584 -1.9297  1.2214
  906MOL0     H22294  -0.913  -1.321   7.114  2.4014 -4.6934  0.7601
  906MOL0     H22295  -0.880  -1.076   7.090 -0.0747  1.2713  0.4756
  906MOL0     H22296   0.142   0.189   7.119 -0.8622  0.7204  0.3030
  906MOL0     H22297   0.373   0.247   7.110  0.5441 -1.2645  0.1781
  906MOL0     H22298   0.645   0.654   7.261  4.7421  2.9056  3.1584
  906MOL0     H22299   0.811   0.776   7.166 -0.4812  0.1056 -0.2963
  906MOL0     H22300   0.938   0.684   6.840  0.5591 -0.0256 -0.6205
  906MOL0     H22301   0.936   0.827   6.945  2.3436  1.8757  0.8921
  906MOL0     H22302   1.090   0.837   6.740 -0.7235 -1.4475 -0.1369
  906MOL0     H22303   1.188   0.714   6.812  0.4869 -0.3237  0.2046
  906MOL0     H22304   1.232   0.830   7.005 -1.4481 -1.4254 -0.3005
  906MOL0     H22305   1.125   0.962   6.978 -1.5405 -0.6740 -0.7018
  906MOL0     H22306   1.375   0.906   6.809 -1.0808 -0.9529 -1.8712
  906MOL0     H22307   1.340   1.041   6.923  0.5761 -2.2480  1.7379
  906MOL0     H22308   1.138   1.187   6.597  2.5920  1.8133  1.4537
  906MOL0     H22309   1.012   0.444   7.005 -0.6283  1.2042  0.3500
  906MOL0     H22310   0.819   0.284   7.100 -0.6286  0.6601 -1.1363
  907MOL0     O22311   5.763   7.746   7.717  0.8653  0.5390 -0.6583
  907MOL0     C22312   5.642   7.714   7.703  0.3333 -0.2034  0.3469
  907MOL0     O22313   5.592   7.624   7.614  0.3549 -0.4124 -0.3282
  907MOL0     C22314   5.684   7.574   7.523 -0.8321 -0.3397  0.8780
  907MOL0     C22315   5.706   7.439   7.509 -0.4599 -0.1978 -0.4685
  907MOL0     C22316   5.819   7.385   7.434  0.5093  0.2737 -0.0480
  907MOL0     C22317   5.903   7.474   7.359  0.2193 -0.4600  0.6688
  907MOL0     O22318   5.996   7.430   7.273 -0.3942  0.4353  0.7699
  907MOL0     C22319   6.095   7.512   7.214 -0.5266 -0.0627 -0.5088
  907MOL0     C22320   6.216   7.427   7.158 -0.1567 -0.3374  0.5335
  907MOL0     C22321   6.175   7.330   7.043 -0.3349  0.1627 -0.0382
  907MOL0     C22322   6.285   7.216   7.031  0.1301 -0.4281 -1.3332
  907MOL0     C22323   6.262   7.111   6.925  0.2896 -1.0450  0.4454
  907MOL0     C22324   6.336   7.161   6.786 -0.2823  0.9276 -0.4028
  907MOL0     C22325   6.338   7.044   6.693 -0.2856 -0.4360 -0.5419
  907MOL0     C22326   6.450   7.061   6.588 -0.5002 -0.2753  0.0519
  907MOL0     N22327   6.450   6.958   6.481 -0.5059  0.0840 -0.1795
  907MOL0     C22328   6.502   6.826   6.496 -0.1571 -0.6315  0.5889
  907MOL0     C22329   6.481   6.767   6.375 -1.1043 -0.5026  0.2060
  907MOL0     C22330   6.534   6.628   6.335  0.0323 -0.2205  0.0287
  907MOL0     C22331   6.427   6.521   6.350  0.6009 -0.2062 -0.0123
  907MOL0     C22332   6.457   6.386   6.281 -0.4077 -0.2248  0.3090
  907MOL0     C22333   6.403   6.394   6.142 -0.9255  1.2250 -0.1531
  907MOL0     O22334   6.459   6.291   6.063 -0.6869 -0.2565  0.2594
  907MOL0     C22335   6.544   6.323   5.959  0.1842 -0.2873  0.4685
  907MOL0     C22336   6.639   6.224   5.925 -0.2905 -1.0121  0.2910
  907MOL0     C22337   6.728   6.241   5.814  0.2615  0.7634  0.1025
  907MOL0     C22338   6.844   6.146   5.797 -1.1664  0.3244 -0.1716
  907MOL0     C22339   6.725   6.368   5.737 -0.6280 -0.1113 -0.2653
  907MOL0     C22340   6.803   6.384   5.604  1.2950 -0.3982 -0.6685
  907MOL0     O22341   6.824   6.521   5.559  0.5052 -0.1207 -0.8554
  907MOL0     C22342   6.916   6.552   5.467  0.9375  0.7816  0.5933
  907MOL0     C22343   7.049   6.491   5.467  0.7954  1.0642 -0.0935
  907MOL0     C22344   7.143   6.538   5.375 -0.0631  0.3766 -1.1913
  907MOL0     C22345   7.130   6.672   5.321 -0.8306 -0.0733 -0.4903
  907MOL0     O22346   7.231   6.714   5.241  0.4983  0.2975 -1.1090
  907MOL0     C22347   7.277   6.846   5.245 -0.0522  0.4005  0.2607
  907MOL0     C22348   7.370   6.872   5.128 -0.4981  0.3638 -0.7857
  907MOL0     C22349   7.318   6.826   4.989 -0.2537  0.1056 -0.2798
  907MOL0     C22350   7.210   6.923   4.937  0.6956  0.7278 -0.1355
  907MOL0     C22351   7.116   6.851   4.836  0.5051 -0.0375  0.3164
  907MOL0     C22352   7.002   6.929   4.775  0.7516 -1.4435 -0.1950
  907MOL0     C22353   6.893   6.985   4.874  0.3160 -0.4701  0.7632
  907MOL0     C22354   6.817   6.876   4.944 -0.1309  0.3843  1.2655
  907MOL0    Cl22355   6.786   6.733   4.848 -0.4096  0.2216  0.3883
  907MOL0     C22356   7.003   6.734   5.327  0.4082 -0.0057 -0.3559
  907MOL0     C22357   6.902   6.675   5.394  0.7028 -0.2673 -0.3539
  907MOL0     O22358   6.841   6.289   5.546 -0.6045  0.0589  0.6061
  907MOL0     C22359   6.624   6.459   5.771  0.5546  0.4617  0.9019
  907MOL0     C22360   6.537   6.436   5.873  0.8573  0.0375 -0.7043
  907MOL0     N22361   6.419   6.857   6.293  0.2198  0.3961  0.3485
  907MOL0     N22362   6.398   6.970   6.351 -0.3922  0.3787  0.3734
  907MOL0     C22363   5.866   7.612   7.359  0.3513 -0.2259  1.0953
  907MOL0     C22364   5.759   7.660   7.440 -0.6099  0.0690  0.8893
  907MOL0     C22365   5.552   7.766   7.807 -0.1549 -0.5385 -0.7805
  907MOL0     C22366   5.607   7.826   7.928 -0.0474 -0.6885 -0.1868
  907MOL0     C22367   5.518   7.869   8.024 -0.1179  0.2128 -0.0984
  907MOL0     C22368   5.376   7.863   8.003 -0.5483 -0.3195 -0.5888
  907MOL0     O22369   5.287   7.906   8.094 -0.6762 -0.1118  0.5023
  907MOL0     C22370   5.328   8.020   8.162  1.2826 -0.7411 -0.1747
  907MOL0     C22371   5.221   8.097   8.238 -0.3398  0.3216  0.9451
  907MOL0     C22372   5.099   8.087   8.158  0.4149 -0.0652  0.5450
  907MOL0     C22373   5.088   8.171   8.031 -0.6830  0.2081  0.2364
  907MOL0     C22374   5.104   8.310   8.054  0.5432 -0.6631  0.0396
  907MOL0     C22375   5.118   8.427   8.095  0.1012 -0.3732 -0.9309
  907MOL0     C22376   5.323   7.809   7.894  0.1206 -0.8919  0.0503
  907MOL0     C22377   5.410   7.758   7.791 -0.6012 -0.0180 -0.2526
  907MOL0     H22378   5.637   7.371   7.559 -0.3181 -0.3426 -0.4681
  907MOL0     H22379   5.841   7.279   7.426 -2.0397 -0.2907 -0.2820
  907MOL0     H22380   6.039   7.581   7.151 -0.4733 -0.5615 -1.1167
  907MOL0     H22381   6.147   7.571   7.290  1.7754 -1.9526 -0.4939
  907MOL0     H22382   6.282   7.505   7.118  0.0792 -1.5018 -1.5275
  907MOL0     H22383   6.260   7.366   7.238  0.5591  0.8085  1.0356
  907MOL0     H22384   6.074   7.292   7.062 -0.6079 -0.4587 -2.4019
  907MOL0     H22385   6.178   7.378   6.945 -1.4110 -0.3242 -0.3246
  907MOL0     H22386   6.380   7.269   7.013  0.0322  0.2842  0.1025
  907MOL0     H22387   6.287   7.164   7.127 -1.5286  1.0514 -0.4367
  907MOL0     H22388   6.302   7.016   6.962 -0.1936 -0.2337  3.3216
  907MOL0     H22389   6.154   7.095   6.917 -1.1089  5.1141  2.3176
  907MOL0     H22390   6.285   7.242   6.733  1.4401  2.3974  0.0797
  907MOL0     H22391   6.438   7.198   6.805 -0.6881  1.4440  0.8297
  907MOL0     H22392   6.345   6.945   6.739  1.5178 -0.3580 -0.6107
  907MOL0     H22393   6.243   7.045   6.637  1.0679  2.2524 -3.1120
  907MOL0     H22394   6.544   7.064   6.644 -0.6389 -4.3610  0.8197
  907MOL0     H22395   6.437   7.147   6.522 -0.7356 -0.6402 -0.3883
  907MOL0     H22396   6.531   6.770   6.585 -0.3638 -2.1192 -0.2334
  907MOL0     H22397   6.563   6.631   6.230  3.2174 -3.0895  0.6492
  907MOL0     H22398   6.628   6.612   6.388 -1.0878  4.0655  3.9202
  907MOL0     H22399   6.327   6.562   6.333 -0.8780 -2.5012  2.3246
  907MOL0     H22400   6.425   6.497   6.456  0.4548  1.6678  0.4422
  907MOL0     H22401   6.427   6.297   6.337  3.5374 -1.2747  1.0529
  907MOL0     H22402   6.565   6.374   6.275 -0.6713 -2.3895 -1.4995
  907MOL0     H22403   6.427   6.494   6.103  1.1366  0.3448 -1.2798
  907MOL0     H22404   6.294   6.389   6.132 -0.8106  0.5468 -1.1640
  907MOL0     H22405   6.649   6.143   5.997  3.0275 -0.5510  0.5290
  907MOL0     H22406   6.921   6.183   5.728 -1.5359  1.3190 -0.0648
  907MOL0     H22407   6.884   6.134   5.898 -1.2886 -1.2216 -0.2806
  907MOL0     H22408   6.818   6.046   5.761 -0.2844  0.1714 -0.4206
  907MOL0     H22409   7.060   6.395   5.515 -1.0491  1.0410  0.3513
  907MOL0     H22410   7.231   6.477   5.360 -0.3459 -0.4659  0.3797
  907MOL0     H22411   7.190   6.909   5.227 -0.8421 -1.2725 -2.5396
  907MOL0     H22412   7.335   6.871   5.334  2.8531 -0.8410 -1.1385
  907MOL0     H22413   7.384   6.979   5.114 -0.8215  0.0990 -4.0176
  907MOL0     H22414   7.470   6.830   5.139 -0.6656  0.1735  0.0259
  907MOL0     H22415   7.277   6.725   4.995 -2.6953  0.9702 -0.9553
  907MOL0     H22416   7.401   6.825   4.918 -1.3621  0.2308 -1.6257
  907MOL0     H22417   7.138   6.950   5.014 -0.0111 -2.2208  0.3540
  907MOL0     H22418   7.264   7.006   4.890 -0.1195  0.9479 -0.7044
  907MOL0     H22419   7.075   6.763   4.886 -0.9761  0.0736 -0.6508
  907MOL0     H22420   7.185   6.836   4.752  3.5180  4.3405  1.6422
  907MOL0     H22421   7.047   7.014   4.722  0.9661  0.6471  3.0140
  907MOL0     H22422   6.934   6.874   4.709 -2.2851  1.9014 -0.1864
  907MOL0     H22423   6.822   7.046   4.818 -1.0522  0.1408  3.0420
  907MOL0     H22424   6.927   7.062   4.944 -1.6191  1.1877 -0.0305
  907MOL0     H22425   6.720   6.918   4.972 -2.5394 -3.9377  0.4667
  907MOL0     H22426   6.881   6.836   5.023  2.5604 -1.6997 -1.6764
  907MOL0     H22427   6.982   6.837   5.298  1.1696  0.3737  0.3941
  907MOL0     H22428   6.802   6.716   5.404  0.8010  0.1197 -0.9228
  907MOL0     H22429   6.614   6.539   5.698 -1.1318 -1.6249 -1.3332
  907MOL0     H22430   6.455   6.507   5.885  0.6335 -0.5327  1.7627
  907MOL0     H22431   5.926   7.681   7.301  0.6624 -1.8758 -0.6597
  907MOL0     H22432   5.746   7.768   7.434 -0.3624  0.3759  4.1516
  907MOL0     H22433   5.712   7.845   7.948 -0.1956 -1.9206  2.1576
  907MOL0     H22434   5.560   7.910   8.116 -0.8821  1.4108 -0.2746
  907MOL0     H22435   5.404   8.001   8.238 -0.9191 -0.1712  2.3261
  907MOL0     H22436   5.385   8.085   8.094  0.7843 -2.2008 -2.0727
  907MOL0     H22437   5.254   8.201   8.245 -3.1125  1.1668  3.5505
  907MOL0     H22438   5.226   8.048   8.336  3.8373 -0.5614  0.4868
  907MOL0     H22439   5.026   8.132   8.227  1.5493  1.5148  0.7930
  907MOL0     H22440   5.070   7.983   8.139 -3.1862  0.5958  1.5565
  907MOL0     H22441   4.994   8.147   7.979  0.0753 -0.4999 -0.8725
  907MOL0     H22442   5.170   8.153   7.961  0.3002  3.2074  0.4982
  907MOL0     H22443   5.139   8.531   8.111  1.6764 -0.3719 -2.6728
  907MOL0     H22444   5.216   7.799   7.885  0.1836 -0.2447 -1.7877
  907MOL0     H22445   5.357   7.724   7.702  1.8234  4.1017 -3.6621
  908MOL0     O22446   9.735   8.821   3.761 -0.4026  1.0628 -0.0872
  908MOL0     C22447   9.787   8.749   3.683  0.2334  0.8412 -0.6625
  908MOL0     O22448   9.814   8.799   3.560  0.5786  0.2324 -0.2166
  908MOL0     C22449   9.920   8.890   3.549 -0.5332 -1.4613  0.7507
  908MOL0     C22450   9.937   8.950   3.425  0.9243 -0.9374 -0.5074
  908MOL0     C22451  10.040   9.038   3.400  0.0377 -0.3419  0.0963
  908MOL0     C22452  10.121   9.098   3.495  0.5093 -0.5561 -0.5020
  908MOL0     O22453  10.220   9.185   3.459  0.1425  0.0712  0.2712
  908MOL0     C22454  10.256   9.285   3.556  0.1210 -0.4812  0.1046
  908MOL0     C22455  10.156   9.393   3.583  0.8053 -0.3056  0.6882
  908MOL0     C22456  10.192   9.513   3.674  0.2444  1.3320  0.4757
  908MOL0     C22457  10.269   9.470   3.797  0.0456  0.8228  1.0211
  908MOL0     C22458  10.304   9.601   3.865  0.3627 -0.5317 -0.4469
  908MOL0     C22459  10.349   9.569   4.007  0.4976  0.6172 -0.4397
  908MOL0     C22460  10.371   9.699   4.095 -1.3680  0.1214  0.1314
  908MOL0     C22461  10.492   9.775   4.043  0.0284 -0.1284  0.2177
  908MOL0     N22462  10.552   9.861   4.141  0.1126  0.4457 -0.2079
  908MOL0     C22463  10.682   9.902   4.152  0.3675 -0.2178  0.5917
  908MOL0     C22464  10.680  10.018   4.227  0.0724 -0.0829 -0.1970
  908MOL0     C22465  10.807  10.099   4.276  0.1259 -0.7986  0.1969
  908MOL0     C22466  10.882  10.163   4.157  0.0106  1.0540 -0.5076
  908MOL0     C22467  10.819  10.288   4.101 -0.2122  1.2739 -0.2770
  908MOL0     C22468  10.696  10.245   4.015  0.8847 -0.1471 -0.0226
  908MOL0     O22469  10.684  10.307   3.888  0.1829  0.5713 -0.2895
  908MOL0     C22470  10.578  10.267   3.810  0.3949  0.9999  1.0090
  908MOL0     C22471  10.470  10.186   3.855 -0.2153  0.4187  0.0951
  908MOL0     C22472  10.366  10.144   3.771 -0.0122 -0.1363  1.8161
  908MOL0     C22473  10.266  10.044   3.813  0.2704  0.0270  0.0002
  908MOL0     C22474  10.365  10.199   3.633 -0.9408  0.0814 -0.0911
  908MOL0     C22475  10.266  10.164   3.530 -0.3179 -0.6472  1.1006
  908MOL0     O22476  10.150  10.111   3.566 -0.6781 -0.3240 -0.3324
  908MOL0     C22477  10.062  10.077   3.475 -0.3830 -0.5672 -0.4660
  908MOL0     C22478  10.063   9.969   3.391 -0.0733 -0.4281 -0.7859
  908MOL0     C22479   9.955   9.939   3.309  0.0911  0.5681 -0.6296
  908MOL0     C22480   9.842  10.021   3.303 -0.0096 -0.0271  0.8991
  908MOL0     O22481   9.741   9.982   3.216  0.8348  0.2081 -0.2199
  908MOL0     C22482   9.621  10.068   3.204 -0.1366  0.5170 -0.5875
  908MOL0     C22483   9.530   9.998   3.107 -0.4027 -0.1285  0.8290
  908MOL0     C22484   9.578  10.009   2.960  0.7980 -0.3445  0.0442
  908MOL0     C22485   9.467   9.986   2.850 -0.9629  0.8397  0.8521
  908MOL0     C22486   9.406   9.847   2.823 -0.2120 -0.0576  0.3432
  908MOL0     C22487   9.271   9.843   2.743 -0.3285 -0.6154  0.6306
  908MOL0     C22488   9.252   9.702   2.680 -0.1283 -0.1645  0.0306
  908MOL0     C22489   9.164   9.727   2.551  0.0570 -0.2273  0.2982
  908MOL0    Cl22490   9.128   9.560   2.482 -0.0243 -0.1068 -0.4914
  908MOL0     C22491   9.830  10.126   3.395 -1.1776  0.5923 -0.2027
  908MOL0     C22492   9.944  10.157   3.472  0.2203  0.1712 -0.2911
  908MOL0     O22493  10.289  10.208   3.413  0.0880  0.3422  0.2122
  908MOL0     C22494  10.471  10.293   3.599 -0.0344 -0.0651 -0.6280
  908MOL0     C22495  10.575  10.315   3.685 -0.3350 -0.6687 -0.7850
  908MOL0     N22496  10.550  10.050   4.259 -0.5489  0.9848 -0.7236
  908MOL0     N22497  10.475   9.955   4.209 -0.5243  0.1488  0.4484
  908MOL0     C22498  10.091   9.046   3.623  0.5121 -0.1024 -0.5397
  908MOL0     C22499   9.997   8.941   3.654 -1.2198 -0.2409  0.3909
  908MOL0     C22500   9.827   8.608   3.724 -0.5032 -0.8256  0.1195
  908MOL0     C22501   9.850   8.584   3.860  0.9406 -1.2824 -0.2406
  908MOL0     C22502   9.873   8.457   3.906  0.2111 -0.3696  0.7714
  908MOL0     C22503   9.874   8.353   3.806  0.1208 -0.2483  0.9128
  908MOL0     O22504   9.885   8.228   3.853  0.3801 -0.0382 -0.1388
  908MOL0     C22505   9.785   8.128   3.814  0.8849 -0.0945 -0.2249
  908MOL0     C22506   9.642   8.183   3.800  0.0164 -1.3757 -0.3953
  908MOL0     C22507   9.579   8.238   3.937 -0.0946 -0.2062  0.1560
  908MOL0     C22508   9.454   8.324   3.894  0.1617 -0.4349 -0.0993
  908MOL0     C22509   9.476   8.439   3.794 -0.6644  0.9025  0.4877
  908MOL0     C22510   9.476   8.536   3.720  0.0832 -0.4107  0.2227
  908MOL0     C22511   9.857   8.385   3.666 -1.6138 -0.8804 -0.5791
  908MOL0     C22512   9.838   8.514   3.624  0.8311 -0.1098 -0.6772
  908MOL0     H22513   9.872   8.933   3.339 -2.1651 -0.1171  1.4839
  908MOL0     H22514  10.067   9.063   3.298  1.4714  2.0848  0.9761
  908MOL0     H22515  10.288   9.231   3.646 -0.8012 -1.7167 -0.2797
  908MOL0     H22516  10.349   9.331   3.519  3.2838 -2.9791  4.0488
  908MOL0     H22517  10.112   9.440   3.494  3.4190  1.1643  0.0367
  908MOL0     H22518  10.071   9.342   3.627  0.9442 -2.5040 -1.3762
  908MOL0     H22519  10.253   9.579   3.612 -0.0733 -0.6326 -2.0612
  908MOL0     H22520  10.100   9.557   3.711 -1.1963 -0.4722 -0.7889
  908MOL0     H22521  10.189   9.408   3.840 -0.0981 -0.4788 -0.9420
  908MOL0     H22522  10.358   9.409   3.775 -1.5545 -1.7034  1.1063
  908MOL0     H22523  10.382   9.656   3.812 -0.2941  0.2591 -0.6183
  908MOL0     H22524  10.218   9.667   3.858 -0.3546 -1.5650 -2.2202
  908MOL0     H22525  10.266   9.519   4.056  2.1701 -1.0610  0.8487
  908MOL0     H22526  10.434   9.500   3.997  0.5011  0.8610 -2.5988
  908MOL0     H22527  10.283   9.764   4.089 -0.5659  1.2581  0.3945
  908MOL0     H22528  10.387   9.670   4.199  0.4302 -0.1959 -0.2082
  908MOL0     H22529  10.454   9.833   3.958 -2.2053 -0.2359  1.0677
  908MOL0     H22530  10.566   9.698   4.016 -1.9504 -1.4357 -1.9262
  908MOL0     H22531  10.760   9.850   4.098  0.3872 -1.4216  1.7176
  908MOL0     H22532  10.770  10.183   4.335 -1.4461 -0.3952 -1.2782
  908MOL0     H22533  10.866  10.031   4.339  0.4478  0.0885  0.8640
  908MOL0     H22534  10.895  10.089   4.077  1.2293 -1.1752  1.6054
  908MOL0     H22535  10.978  10.200   4.193  0.0160  1.1705 -0.6383
  908MOL0     H22536  10.887  10.347   4.039  0.2355  0.5978 -0.4362
  908MOL0     H22537  10.792  10.361   4.177  3.6551  0.7790  1.8202
  908MOL0     H22538  10.608  10.267   4.077  0.1088  1.6314 -1.6673
  908MOL0     H22539  10.692  10.137   3.997  1.6196  0.0375 -1.4019
  908MOL0     H22540  10.467  10.149   3.957 -0.4255  0.8019  0.2277
  908MOL0     H22541  10.225   9.974   3.739 -0.6697 -1.1061  1.5357
  908MOL0     H22542  10.295   9.973   3.891 -0.5914  0.9090  1.1612
  908MOL0     H22543  10.181  10.086   3.867  0.8605 -0.6197  1.4742
  908MOL0     H22544  10.143   9.897   3.411 -1.8106 -2.0536  0.7106
  908MOL0     H22545   9.965   9.844   3.258 -0.7288 -1.7503  3.1505
  908MOL0     H22546   9.571  10.089   3.299  0.0008 -2.6352  0.2905
  908MOL0     H22547   9.644  10.168   3.168  0.6658  1.7304  2.8947
  908MOL0     H22548   9.523   9.890   3.127 -1.6173 -0.1436  0.3685
  908MOL0     H22549   9.429  10.039   3.110 -1.5848 -2.8279  0.6681
  908MOL0     H22550   9.650   9.931   2.932 -0.4136 -1.1049 -1.0773
  908MOL0     H22551   9.629  10.105   2.949  2.2181 -1.1797 -1.1728
  908MOL0     H22552   9.388  10.058   2.873  0.1551  3.0406 -1.6833
  908MOL0     H22553   9.508  10.028   2.757  0.5140  2.9582  2.3640
  908MOL0     H22554   9.389   9.798   2.919  0.4760 -0.1162  0.4419
  908MOL0     H22555   9.480   9.786   2.771  0.2209 -0.3134  1.2296
  908MOL0     H22556   9.193   9.867   2.816  0.7714 -0.2910  1.7241
  908MOL0     H22557   9.271   9.922   2.668 -0.0747 -1.2482 -0.0509
  908MOL0     H22558   9.187   9.646   2.747  2.3560 -3.0444  0.2156
  908MOL0     H22559   9.345   9.654   2.650 -0.5411 -0.5400 -0.6652
  908MOL0     H22560   9.221   9.786   2.479  0.1269 -0.8164 -0.1404
  908MOL0     H22561   9.071   9.772   2.586  0.9217  0.0643  2.3633
  908MOL0     H22562   9.736  10.178   3.414 -0.9137  0.2709  2.2705
  908MOL0     H22563   9.935  10.239   3.543  3.2505 -0.6280  1.2113
  908MOL0     H22564  10.470  10.325   3.495 -0.5973  1.4758 -0.1793
  908MOL0     H22565  10.664  10.371   3.655  1.5123  0.4553  5.3836
  908MOL0     H22566  10.140   9.084   3.712 -2.9915 -1.4509  2.2148
  908MOL0     H22567   9.984   8.887   3.747  0.9152 -0.4543  0.5992
  908MOL0     H22568   9.839   8.668   3.927  0.5125 -1.9653  0.5687
  908MOL0     H22569   9.886   8.444   4.013  1.3054  4.0465  1.3621
  908MOL0     H22570   9.822   8.095   3.717 -0.1753 -3.2381  0.3221
  908MOL0     H22571   9.780   8.040   3.878  1.5847  0.6854  0.9682
  908MOL0     H22572   9.598   8.092   3.757 -2.2550  0.0148 -1.1995
  908MOL0     H22573   9.626   8.265   3.730  2.1093  0.8937  1.5951
  908MOL0     H22574   9.646   8.317   3.973 -1.7325  2.5094 -2.3457
  908MOL0     H22575   9.560   8.153   4.002  1.9874 -0.2995  0.7193
  908MOL0     H22576   9.403   8.375   3.976 -0.6340 -2.6256  0.8538
  908MOL0     H22577   9.379   8.250   3.863 -0.3320  0.8422 -2.1266
  908MOL0     H22578   9.482   8.627   3.664  1.0551  1.6482  3.3951
  908MOL0     H22579   9.863   8.315   3.583 -0.4846 -1.2782 -0.1806
  908MOL0     H22580   9.815   8.533   3.520 -0.2408  0.4505 -0.3531
  909MOL0     O22581   1.667   9.240   7.838 -0.0908  0.0737 -0.3005
  909MOL0     C22582   1.674   9.159   7.933  0.4120 -0.5008  0.3669
  909MOL0     O22583   1.788   9.125   8.001  0.5222  0.1605 -0.0414
  909MOL0     C22584   1.900   9.200   7.996  0.8587  0.3388 -0.0226
  909MOL0     C22585   1.954   9.266   7.886  0.8356 -0.8609 -0.1017
  909MOL0     C22586   2.072   9.339   7.899  0.8031 -0.4474  0.1271
  909MOL0     C22587   2.156   9.336   8.012  1.0415  0.4466 -0.6132
  909MOL0     O22588   2.272   9.402   8.015  0.5571 -0.1371  0.5199
  909MOL0     C22589   2.269   9.530   7.950  0.3331 -0.8039  0.1399
  909MOL0     C22590   2.392   9.619   7.994  0.2000  0.1164 -0.6158
  909MOL0     C22591   2.529   9.536   7.992 -0.1420  0.9579 -0.2295
  909MOL0     C22592   2.565   9.482   7.851 -0.4037 -0.9853  0.1209
  909MOL0     C22593   2.718   9.445   7.822 -0.6587 -0.1882 -0.1722
  909MOL0     C22594   2.806   9.575   7.817  0.7028  0.1677  0.3425
  909MOL0     C22595   2.934   9.571   7.732 -0.0674 -0.0430  0.0365
  909MOL0     C22596   3.022   9.689   7.781  0.1434 -0.0617  0.5096
  909MOL0     N22597   3.111   9.646   7.888 -0.2515 -0.6902 -0.4009
  909MOL0     C22598   3.186   9.742   7.948 -0.4067 -0.3201 -0.2040
  909MOL0     C22599   3.279   9.679   8.018  0.6936 -0.7695 -0.2839
  909MOL0     C22600   3.398   9.728   8.093  0.2053 -0.4567 -0.2166
  909MOL0     C22601   3.421   9.649   8.225  0.0461  0.2661 -0.5489
  909MOL0     C22602   3.314   9.653   8.337 -0.7767  0.1814  0.5659
  909MOL0     C22603   3.304   9.785   8.408 -0.2111 -0.0101  1.0615
  909MOL0     O22604   3.186   9.783   8.501  0.3905 -1.4284  0.3913
  909MOL0     C22605   3.187   9.710   8.617 -0.5408 -0.8712  1.3760
  909MOL0     C22606   3.065   9.710   8.686 -0.2116  0.1939  0.0664
  909MOL0     C22607   3.058   9.643   8.805  0.1132  0.6480  0.8261
  909MOL0     C22608   2.911   9.642   8.843  0.2453 -0.3589 -0.7687
  909MOL0     C22609   3.169   9.577   8.866  0.1483 -0.0080  0.2402
  909MOL0     C22610   3.170   9.493   8.985  0.3361 -0.5569 -0.4389
  909MOL0     O22611   3.061   9.495   9.074  0.0239 -0.9271  0.3312
  909MOL0     C22612   3.064   9.398   9.176  0.9078 -0.8088  1.5669
  909MOL0     C22613   2.971   9.295   9.164 -0.7454 -0.1611  0.4909
  909MOL0     C22614   2.947   9.205   9.258  0.0407 -1.4850 -0.1570
  909MOL0     C22615   3.023   9.213   9.379  1.0849  0.2243  0.4270
  909MOL0     O22616   2.996   9.119   9.467  0.3780 -0.1813  0.0229
  909MOL0     C22617   3.003   9.150   9.613 -0.5238 -1.5724 -0.1121
  909MOL0     C22618   2.885   9.237   9.644  0.4385 -0.5067  0.8871
  909MOL0     C22619   2.816   9.205   9.777 -0.4942 -0.3697  1.1822
  909MOL0     C22620   2.905   9.250   9.896  0.3296 -0.0804  0.5793
  909MOL0     C22621   2.967   9.388   9.906  0.5401  0.6027 -0.4604
  909MOL0     C22622   2.866   9.506   9.896 -0.0427 -0.5885  0.6778
  909MOL0     C22623   2.912   9.621   9.983  0.5677  0.0534  0.2238
  909MOL0     C22624   2.801   9.718   9.986  0.0607  0.1552 -1.0294
  909MOL0    Cl22625   2.810   9.820   9.838 -0.1329 -0.0221 -0.2932
  909MOL0     C22626   3.118   9.319   9.391  0.1846  0.5539 -0.0297
  909MOL0     C22627   3.135   9.414   9.292 -0.4578  0.2273  0.2044
  909MOL0     O22628   3.265   9.418   8.993  0.1511 -0.4244 -0.3476
  909MOL0     C22629   3.290   9.573   8.784 -0.4559 -0.5410 -0.5295
  909MOL0     C22630   3.299   9.637   8.668  0.0434  0.3442  0.4017
  909MOL0     N22631   3.255   9.541   8.006 -0.3200 -1.2248 -1.0105
  909MOL0     N22632   3.150   9.524   7.932  0.1401  0.1295  0.3606
  909MOL0     C22633   2.102   9.261   8.121 -0.1790 -0.5341  0.7535
  909MOL0     C22634   1.980   9.195   8.112  0.1647 -0.2746  0.6478
  909MOL0     C22635   1.550   9.113   8.002 -0.0441  0.3138  0.7480
  909MOL0     C22636   1.441   9.209   8.009 -0.4730  0.6300  0.6622
  909MOL0     C22637   1.324   9.180   8.077 -0.9824  0.1864 -0.6034
  909MOL0     C22638   1.295   9.055   8.126  0.1233  0.7993 -0.3082
  909MOL0     O22639   1.178   9.036   8.192 -0.3663 -0.5047 -0.6153
  909MOL0     C22640   1.153   8.906   8.256  0.7108  1.0856 -0.2092
  909MOL0     C22641   1.054   8.920   8.363  0.4415 -0.6791 -0.0450
  909MOL0     C22642   1.114   9.006   8.476  0.1288 -0.5285  0.2650
  909MOL0     C22643   0.998   9.048   8.567 -0.1790  0.0826 -0.6462
  909MOL0     C22644   1.058   9.103   8.687  0.6436  0.1492  1.2272
  909MOL0     C22645   1.098   9.148   8.791 -0.3382  0.4985 -0.5007
  909MOL0     C22646   1.399   8.956   8.115 -0.1584 -0.0884  0.2091
  909MOL0     C22647   1.526   8.983   8.047  1.2296  0.3473 -0.8616
  909MOL0     H22648   1.903   9.272   7.790  0.6759 -2.6502 -0.1458
  909MOL0     H22649   2.108   9.398   7.815  2.2608  1.3596  1.8930
  909MOL0     H22650   2.275   9.521   7.841  1.2171 -0.9039  0.1900
  909MOL0     H22651   2.175   9.581   7.971 -0.3408 -1.5146 -1.0488
  909MOL0     H22652   2.407   9.704   7.927  1.4673  0.7489  0.4276
  909MOL0     H22653   2.385   9.662   8.095  1.5845  0.3492 -0.6073
  909MOL0     H22654   2.611   9.596   8.033  1.6906 -1.0989 -0.6628
  909MOL0     H22655   2.528   9.445   8.054  0.6630  0.3712 -1.0434
  909MOL0     H22656   2.509   9.388   7.840  2.5191 -2.7623 -0.6999
  909MOL0     H22657   2.528   9.552   7.776 -0.9883 -0.8084  0.5720
  909MOL0     H22658   2.764   9.373   7.890  1.1136  3.0591  2.3636
  909MOL0     H22659   2.727   9.392   7.727  3.0889 -0.1971  0.0441
  909MOL0     H22660   2.741   9.660   7.795 -0.0766 -0.3456  0.6170
  909MOL0     H22661   2.838   9.595   7.919 -2.0477 -0.3729  1.4113
  909MOL0     H22662   2.985   9.476   7.747 -2.4035 -1.0845  1.8433
  909MOL0     H22663   2.920   9.585   7.624 -3.0416 -0.6387  0.2664
  909MOL0     H22664   2.967   9.781   7.798 -3.2600 -1.6154 -1.1990
  909MOL0     H22665   3.085   9.704   7.693  2.4770 -4.9130  1.0236
  909MOL0     H22666   3.177   9.850   7.937 -1.2206 -0.4954 -1.5918
  909MOL0     H22667   3.488   9.724   8.030  1.5694  0.9577  1.5082
  909MOL0     H22668   3.378   9.830   8.127 -1.0057 -0.8094  0.1514
  909MOL0     H22669   3.522   9.678   8.255 -0.3405  4.6988 -2.7150
  909MOL0     H22670   3.429   9.547   8.186 -3.1993 -0.3494  0.0653
  909MOL0     H22671   3.326   9.579   8.417 -2.4554 -2.3613 -1.3615
  909MOL0     H22672   3.221   9.624   8.286 -2.1561  1.8261  2.0014
  909MOL0     H22673   3.295   9.860   8.329 -2.3586  0.5176  1.7258
  909MOL0     H22674   3.400   9.799   8.460 -0.0869 -3.1776  1.8870
  909MOL0     H22675   2.981   9.758   8.637 -0.3700  0.8541  0.9607
  909MOL0     H22676   2.837   9.647   8.763 -3.6444  1.2810  2.5500
  909MOL0     H22677   2.881   9.558   8.906  0.0934  0.4393  0.2532
  909MOL0     H22678   2.896   9.735   8.899 -0.6210  0.0937 -1.7321
  909MOL0     H22679   2.899   9.298   9.082 -1.1104  0.5500  0.8322
  909MOL0     H22680   2.859   9.143   9.246 -1.0626 -0.6548  2.8586
  909MOL0     H22681   2.990   9.067   9.684  1.3401 -1.1865  0.7293
  909MOL0     H22682   3.099   9.197   9.635  0.0291 -0.6287 -3.8045
  909MOL0     H22683   2.925   9.338   9.627  2.6981 -1.5789 -0.6687
  909MOL0     H22684   2.817   9.219   9.560  3.4853 -1.0138 -1.6919
  909MOL0     H22685   2.796   9.098   9.778 -2.6181 -0.0333  0.0351
  909MOL0     H22686   2.724   9.264   9.781  0.3760  1.4435 -1.9387
  909MOL0     H22687   2.835   9.244   9.980  1.4345  1.7698  1.7141
  909MOL0     H22688   2.983   9.174   9.908 -0.4499 -0.7516  1.4703
  909MOL0     H22689   3.049   9.398   9.834  0.3961  1.0001 -0.5735
  909MOL0     H22690   3.011   9.390  10.006 -3.1479 -2.2885  1.4916
  909MOL0     H22691   2.850   9.529   9.790  0.5322 -0.8947  0.5207
  909MOL0     H22692   2.768   9.481   9.937 -0.2225  1.5932  1.7285
  909MOL0     H22693   2.996   9.673   9.936  0.2067 -2.0880 -3.1113
  909MOL0     H22694   2.939   9.592  10.085 -0.5060  0.4320  0.6260
  909MOL0     H22695   2.819   9.784  10.071  0.8111  1.2510 -2.0096
  909MOL0     H22696   2.703   9.668   9.994  0.8448 -1.3361 -0.1769
  909MOL0     H22697   3.178   9.333   9.480 -2.1652  0.8059  1.6250
  909MOL0     H22698   3.206   9.495   9.305 -1.2642  0.7208  1.9024
  909MOL0     H22699   3.380   9.520   8.816 -0.0381 -2.2584 -4.1296
  909MOL0     H22700   3.394   9.628   8.617  1.1561  1.7886  2.1033
  909MOL0     H22701   2.152   9.263   8.218 -0.8790 -1.6471  1.1585
  909MOL0     H22702   1.939   9.150   8.202 -0.0380  0.5530  0.9825
  909MOL0     H22703   1.472   9.309   7.981  1.9700 -1.1300 -4.0913
  909MOL0     H22704   1.245   9.253   8.080 -1.3938 -0.2883  1.3094
  909MOL0     H22705   1.117   8.832   8.183  0.6385 -1.0034  1.8329
  909MOL0     H22706   1.248   8.867   8.293  0.8579 -0.8648 -2.3525
  909MOL0     H22707   1.026   8.820   8.398 -0.1222 -0.0215  1.5009
  909MOL0     H22708   0.969   8.968   8.313  0.2113 -2.6072 -1.6653
  909MOL0     H22709   1.177   9.089   8.443  0.3689 -0.5880  0.5649
  909MOL0     H22710   1.170   8.932   8.534 -1.9863  0.4024  3.8569
  909MOL0     H22711   0.935   8.963   8.595  1.0546 -0.8094 -0.4695
  909MOL0     H22712   0.926   9.124   8.535 -0.5143  0.8138  1.6634
  909MOL0     H22713   1.117   9.192   8.887  0.5806 -1.4667  0.2687
  909MOL0     H22714   1.387   8.855   8.153  0.8635  0.7174  2.9870
  909MOL0     H22715   1.597   8.904   8.024  1.7712  0.4688  0.3201
  910MOL0     O22716   9.907   2.661   7.199  0.3779  0.5060 -0.5679
  910MOL0     C22717   9.872   2.543   7.166  1.0741 -0.6754 -0.2945
  910MOL0     O22718   9.817   2.456   7.253  0.5945  0.6090 -0.4833
  910MOL0     C22719   9.733   2.492   7.358 -0.6009  0.0641  0.0456
  910MOL0     C22720   9.616   2.568   7.328 -0.3295  0.1577 -0.6767
  910MOL0     C22721   9.525   2.602   7.432 -0.3640  0.4428  1.5974
  910MOL0     C22722   9.540   2.545   7.557  0.0562  0.6554 -0.1546
  910MOL0     O22723   9.448   2.581   7.654  0.0482 -0.4261 -0.1547
  910MOL0     C22724   9.510   2.611   7.783  0.1047  1.1208  0.0501
  910MOL0     C22725   9.436   2.733   7.836  0.1264 -0.4300 -1.2111
  910MOL0     C22726   9.471   2.858   7.742  0.5356  0.1968 -0.0534
  910MOL0     C22727   9.469   2.993   7.814  0.4471 -0.1017  0.1848
  910MOL0     C22728   9.603   3.010   7.876 -0.2780 -0.0694  0.3167
  910MOL0     C22729   9.633   3.161   7.924 -0.3427  0.4843 -0.5620
  910MOL0     C22730   9.771   3.163   8.002 -0.3193  0.8056  0.7443
  910MOL0     C22731   9.760   3.086   8.135  0.4135  0.7930 -0.2806
  910MOL0     N22732   9.874   3.093   8.230  0.0624  0.0214 -0.6632
  910MOL0     C22733  10.008   3.061   8.191  0.0826  0.8777  0.3073
  910MOL0     C22734  10.073   3.051   8.311 -0.2761  0.2750 -0.2948
  910MOL0     C22735  10.224   3.038   8.340 -0.5399  0.1757  0.3960
  910MOL0     C22736  10.251   2.887   8.379  0.0533 -0.4676 -0.7444
  910MOL0     C22737  10.387   2.869   8.461  0.1343  0.3338 -0.0075
  910MOL0     C22738  10.515   2.875   8.371  0.6259 -0.2008 -0.2403
  910MOL0     O22739  10.629   2.864   8.458 -0.3993  0.1440 -0.0270
  910MOL0     C22740  10.683   2.743   8.491  0.2274 -0.9292  0.2318
  910MOL0     C22741  10.754   2.694   8.389  0.4962 -0.5243  0.3684
  910MOL0     C22742  10.817   2.574   8.392  0.1852 -0.8619  0.3916
  910MOL0     C22743  10.911   2.536   8.278 -0.1335 -0.3983 -0.5783
  910MOL0     C22744  10.803   2.492   8.501 -0.5086 -1.2275 -0.2427
  910MOL0     C22745  10.866   2.357   8.515  0.5663 -0.0086 -0.1754
  910MOL0     O22746  10.996   2.365   8.535 -0.5101  0.1393 -0.0180
  910MOL0     C22747  11.067   2.247   8.551  0.0385  0.4144  0.1727
  910MOL0     C22748  11.175   2.233   8.468  0.1273  0.5240  0.5875
  910MOL0     C22749  11.255   2.115   8.483  0.1839 -1.0117 -0.6080
  910MOL0     C22750  11.229   2.024   8.580  0.3564 -0.2935 -0.3954
  910MOL0     O22751  11.311   1.918   8.580  0.0834  0.7411 -0.2320
  910MOL0     C22752  11.284   1.805   8.669 -0.5828  0.2287 -0.4211
  910MOL0     C22753  11.391   1.713   8.659 -0.9269  0.2862 -0.1334
  910MOL0     C22754  11.387   1.587   8.747 -0.8365  0.7158 -0.2708
  910MOL0     C22755  11.493   1.475   8.722 -0.0239 -0.1665  0.1715
  910MOL0     C22756  11.473   1.364   8.833  0.3083  0.1420  0.1174
  910MOL0     C22757  11.595   1.275   8.828  0.1307  0.0799  0.1427
  910MOL0     C22758  11.607   1.181   8.945 -0.0322  0.4908  0.5671
  910MOL0     C22759  11.725   1.087   8.936  0.1681 -0.9977  0.4760
  910MOL0    Cl22760  11.884   1.164   8.954 -0.3683 -0.2819 -0.2629
  910MOL0     C22761  11.120   2.045   8.668 -0.6185  0.5923  0.0444
  910MOL0     C22762  11.047   2.161   8.652 -0.8885 -0.1370 -0.4890
  910MOL0     O22763  10.802   2.253   8.526 -0.6151 -0.3451 -0.2997
  910MOL0     C22764  10.733   2.546   8.614  0.2528  0.7942  1.0871
  910MOL0     C22765  10.671   2.671   8.605 -0.6785  0.2684 -0.3896
  910MOL0     N22766   9.982   3.086   8.409  0.5109 -0.4539  0.2646
  910MOL0     N22767   9.862   3.113   8.361 -0.1125  0.3564  0.5237
  910MOL0     C22768   9.651   2.461   7.579  0.1349  0.2532  0.4750
  910MOL0     C22769   9.748   2.436   7.483 -0.2866 -0.5820 -0.1540
  910MOL0     C22770   9.898   2.480   7.041 -1.0038  0.7333 -0.1574
  910MOL0     C22771   9.939   2.570   6.936  0.8221 -0.3643 -0.4377
  910MOL0     C22772   9.962   2.519   6.805 -0.0453  0.3155  0.5611
  910MOL0     C22773   9.932   2.389   6.775  0.3689 -0.3631 -0.0712
  910MOL0     O22774   9.938   2.348   6.640  0.4462  0.1412  0.0439
  910MOL0     C22775  10.006   2.422   6.531 -0.6504 -0.4644 -0.7046
  910MOL0     C22776  10.049   2.329   6.414 -0.1123  0.5385 -0.3792
  910MOL0     C22777  10.098   2.401   6.297  0.7259 -0.2956  0.2488
  910MOL0     C22778  10.252   2.413   6.294  0.1816 -0.7693 -0.7850
  910MOL0     C22779  10.290   2.470   6.165 -0.6884  0.2994 -0.5754
  910MOL0     C22780  10.311   2.508   6.055 -1.0846 -0.3800  0.0252
  910MOL0     C22781   9.891   2.297   6.879  0.0745 -0.1619  0.5135
  910MOL0     C22782   9.873   2.343   7.011  0.2975 -1.5751  1.4388
  910MOL0     H22783   9.614   2.608   7.227  3.0330 -0.5344 -1.1281
  910MOL0     H22784   9.440   2.668   7.419  0.7141  1.6625  0.2737
  910MOL0     H22785   9.480   2.529   7.849  2.3891 -0.8179 -1.1980
  910MOL0     H22786   9.617   2.623   7.804 -0.0970  3.0767  0.1726
  910MOL0     H22787   9.328   2.715   7.833  0.2273 -1.1724 -0.5387
  910MOL0     H22788   9.454   2.761   7.940  1.7408  0.3904 -1.6835
  910MOL0     H22789   9.572   2.852   7.700  0.2063  0.3424 -0.8709
  910MOL0     H22790   9.409   2.855   7.652 -0.2171 -0.5234  0.4724
  910MOL0     H22791   9.444   3.078   7.750 -0.1389  1.6211  2.5485
  910MOL0     H22792   9.390   2.998   7.890 -0.3188  2.6497 -0.6654
  910MOL0     H22793   9.613   2.940   7.960  2.4316 -1.8378 -1.3213
  910MOL0     H22794   9.680   2.987   7.801 -0.7730 -0.3732 -0.1074
  910MOL0     H22795   9.650   3.233   7.843  4.2898  0.3888  0.0308
  910MOL0     H22796   9.548   3.192   7.985 -0.0987 -1.5230  0.9131
  910MOL0     H22797   9.851   3.109   7.950 -1.5622 -0.9356  0.5509
  910MOL0     H22798   9.793   3.270   8.004 -0.6661  0.8969 -0.1930
  910MOL0     H22799   9.733   2.981   8.121 -1.4060  0.5432  3.7371
  910MOL0     H22800   9.672   3.135   8.178  0.6660 -0.9044  2.3663
  910MOL0     H22801  10.047   3.043   8.092  0.2376 -0.1606  0.5461
  910MOL0     H22802  10.282   3.031   8.247  0.4823 -4.9570  1.1368
  910MOL0     H22803  10.256   3.118   8.408 -1.5488  2.0559 -1.2272
  910MOL0     H22804  10.251   2.821   8.292  2.2658  0.8071 -1.7884
  910MOL0     H22805  10.164   2.847   8.433  0.6122  0.0211  0.5538
  910MOL0     H22806  10.392   2.770   8.507  2.0921 -1.6034 -3.8890
  910MOL0     H22807  10.386   2.948   8.537 -2.3743 -1.7430  2.3673
  910MOL0     H22808  10.532   2.964   8.310  1.9324 -0.6982 -0.6264
  910MOL0     H22809  10.510   2.792   8.300 -4.3926  0.3350 -0.9240
  910MOL0     H22810  10.757   2.751   8.297  1.7528 -2.0334 -0.5844
  910MOL0     H22811  11.015   2.540   8.313  0.3333 -1.1529 -1.8257
  910MOL0     H22812  10.888   2.438   8.236 -1.8996  0.6965 -2.3336
  910MOL0     H22813  10.913   2.611   8.199  3.5578 -1.6813 -1.9300
  910MOL0     H22814  11.183   2.296   8.380 -1.6017 -1.3201 -0.9731
  910MOL0     H22815  11.342   2.108   8.419 -0.0636 -0.4263 -1.0256
  910MOL0     H22816  11.272   1.847   8.769 -0.4716  1.2558 -0.8279
  910MOL0     H22817  11.188   1.761   8.640 -1.1477  0.9284  0.3446
  910MOL0     H22818  11.388   1.685   8.554 -0.7802  2.7473 -0.8607
  910MOL0     H22819  11.482   1.774   8.670 -0.2765 -0.5124 -0.9450
  910MOL0     H22820  11.290   1.537   8.733 -1.9610  3.0906 -1.5865
  910MOL0     H22821  11.400   1.609   8.853  0.9458 -1.2825  0.0107
  910MOL0     H22822  11.477   1.436   8.621  0.1079  0.8350 -0.2495
  910MOL0     H22823  11.591   1.521   8.736  0.6804 -0.9549 -1.7907
  910MOL0     H22824  11.371   1.323   8.827  1.2419 -2.7350  1.9163
  910MOL0     H22825  11.478   1.419   8.927  0.3688 -0.6899  0.6114
  910MOL0     H22826  11.590   1.221   8.733  0.2398 -1.7901  1.1753
  910MOL0     H22827  11.692   1.325   8.837  0.9279 -1.7233  2.5321
  910MOL0     H22828  11.523   1.114   8.968 -0.5862  1.4909  1.5801
  910MOL0     H22829  11.609   1.247   9.033  0.3307  0.3441  0.6694
  910MOL0     H22830  11.730   1.052   8.832  0.3097 -0.8910  0.4464
  910MOL0     H22831  11.728   1.006   9.009  1.7847 -0.4279  1.0970
  910MOL0     H22832  11.096   1.980   8.751 -1.6292  0.2199 -0.5206
  910MOL0     H22833  10.976   2.208   8.720 -0.0019  5.1370 -2.6917
  910MOL0     H22834  10.708   2.484   8.699  0.7094  2.0600  2.1634
  910MOL0     H22835  10.616   2.722   8.684  1.8531  1.5039  0.7007
  910MOL0     H22836   9.680   2.431   7.679 -0.1634 -4.4255 -0.6055
  910MOL0     H22837   9.833   2.373   7.508 -0.5609 -0.3591  1.4299
  910MOL0     H22838   9.955   2.676   6.952 -0.1905 -0.3273  0.4587
  910MOL0     H22839   9.998   2.585   6.727 -2.0077  1.2901  0.4188
  910MOL0     H22840   9.947   2.507   6.495  0.8881  0.8435 -0.2568
  910MOL0     H22841  10.094   2.474   6.568 -0.1649 -1.5740 -0.2682
  910MOL0     H22842   9.963   2.266   6.392 -2.2223  2.2711  2.3393
  910MOL0     H22843  10.127   2.263   6.454 -2.6267 -1.4620  1.6125
  910MOL0     H22844  10.057   2.503   6.303 -0.1619 -0.5268 -1.3568
  910MOL0     H22845  10.067   2.345   6.208  1.5136 -1.5834  0.7629
  910MOL0     H22846  10.295   2.313   6.302  1.5783 -0.1390 -0.1182
  910MOL0     H22847  10.287   2.475   6.377  0.8828 -0.9347 -0.9513
  910MOL0     H22848  10.330   2.544   5.956  0.9456 -3.5013 -0.8570
  910MOL0     H22849   9.881   2.195   6.845  0.2790  0.7344 -2.5679
  910MOL0     H22850   9.847   2.281   7.096 -1.6859  0.3428  2.2984
  911MOL0     O22851   2.755   8.085   9.972 -0.3197 -0.4973  0.4385
  911MOL0     C22852   2.771   7.983  10.029  0.2087  0.5142 -0.3367
  911MOL0     O22853   2.736   7.963  10.159  0.0127 -0.3755 -0.6116
  911MOL0     C22854   2.664   8.049  10.234 -1.0145  0.3526 -0.6067
  911MOL0     C22855   2.551   8.117  10.184 -1.3231  0.4152  0.2127
  911MOL0     C22856   2.458   8.182  10.268 -0.2862 -0.6169 -0.0142
  911MOL0     C22857   2.499   8.204  10.399  0.5376  0.5057  0.8571
  911MOL0     O22858   2.415   8.281  10.472 -0.6741 -0.5414 -0.3944
  911MOL0     C22859   2.467   8.341  10.593 -0.3178  0.6780 -0.1721
  911MOL0     C22860   2.358   8.420  10.669  0.2130 -0.4288  0.2940
  911MOL0     C22861   2.221   8.392  10.610 -0.0136 -1.1611 -0.6132
  911MOL0     C22862   2.121   8.478  10.682  0.4879 -0.4930 -0.2967
  911MOL0     C22863   1.985   8.400  10.665 -0.5703  0.0579  0.5189
  911MOL0     C22864   1.970   8.278  10.761 -0.5062 -0.8150  0.5332
  911MOL0     C22865   1.851   8.209  10.715  0.5567 -0.2540 -0.2063
  911MOL0     C22866   1.833   8.069  10.782 -0.3737  0.7744 -0.6630
  911MOL0     N22867   1.948   7.982  10.772  0.3941 -0.5815  0.8514
  911MOL0     C22868   1.990   7.932  10.652  0.8119 -0.0923  0.7122
  911MOL0     C22869   2.094   7.857  10.674 -0.2428  0.0971 -0.2886
  911MOL0     C22870   2.168   7.760  10.580  0.6657  0.8713 -0.6505
  911MOL0     C22871   2.143   7.788  10.432  0.8497 -0.5541  0.0997
  911MOL0     C22872   2.260   7.853  10.359  0.2137 -0.1287 -0.0793
  911MOL0     C22873   2.233   7.911  10.221  0.2626 -0.2198  1.0070
  911MOL0     O22874   2.133   8.019  10.232 -1.4015 -0.6583 -0.6160
  911MOL0     C22875   2.014   8.020  10.168  1.4827 -0.7369 -0.9359
  911MOL0     C22876   1.930   7.916  10.141 -0.2320  0.1353 -0.0766
  911MOL0     C22877   1.803   7.940  10.093 -0.6664 -0.1324  0.4392
  911MOL0     C22878   1.738   7.816  10.046  0.6339  0.2631  1.1234
  911MOL0     C22879   1.752   8.068  10.081  0.4905 -0.8611 -0.1961
  911MOL0     C22880   1.619   8.107  10.024  0.2122  0.5960 -0.2669
  911MOL0     O22881   1.594   8.241  10.029  0.2463  0.3132 -1.1240
  911MOL0     C22882   1.465   8.297  10.024  0.4496  0.3035 -0.6550
  911MOL0     C22883   1.354   8.221  10.059 -0.8402  0.3328 -0.3513
  911MOL0     C22884   1.233   8.279  10.056  0.0172 -0.3049  0.3747
  911MOL0     C22885   1.212   8.412  10.011 -0.3287  1.2867 -1.2249
  911MOL0     O22886   1.094   8.479  10.002 -0.3630 -0.2980  0.1142
  911MOL0     C22887   0.998   8.478  10.111  0.3184 -0.5848  0.0413
  911MOL0     C22888   0.863   8.516  10.060 -1.2046  1.1520  0.0131
  911MOL0     C22889   0.818   8.655  10.012 -0.2121 -0.5243 -0.4895
  911MOL0     C22890   0.803   8.756  10.118 -0.0290  0.3498  0.1844
  911MOL0     C22891   0.718   8.882  10.088 -0.4610  0.3790  0.2847
  911MOL0     C22892   0.578   8.856  10.130  0.9507  0.1693 -0.6498
  911MOL0     C22893   0.499   8.989  10.103 -0.6265  0.0510 -0.8675
  911MOL0     C22894   0.413   9.025  10.225 -0.7096  0.5330  0.1649
  911MOL0    Cl22895   0.512   9.072  10.375 -0.1300  0.1820  0.0410
  911MOL0     C22896   1.325   8.485   9.986  0.2137 -0.1225 -0.3225
  911MOL0     C22897   1.453   8.434   9.983  0.8601 -0.1692 -0.0867
  911MOL0     O22898   1.552   8.023   9.960 -0.3586 -0.6055 -0.1704
  911MOL0     C22899   1.840   8.179  10.114  0.3531  0.6166  0.3235
  911MOL0     C22900   1.965   8.158  10.157  0.0075  0.5736 -0.7060
  911MOL0     N22901   2.114   7.851  10.812  1.2541 -1.0881  0.2700
  911MOL0     N22902   2.029   7.940  10.871  0.4604  0.3989 -0.4764
  911MOL0     C22903   2.620   8.150  10.440  0.5004 -0.8531 -0.8118
  911MOL0     C22904   2.701   8.068  10.364 -1.0039  0.7406  0.5685
  911MOL0     C22905   2.814   7.861   9.956 -0.2556 -0.6336  0.3502
  911MOL0     C22906   2.834   7.877   9.817 -0.2781  0.3880  0.1065
  911MOL0     C22907   2.877   7.781   9.728  0.1841 -0.1716 -1.0351
  911MOL0     C22908   2.889   7.649   9.786  0.2455  0.3254 -0.1939
  911MOL0     O22909   2.927   7.538   9.718 -0.1394 -0.3506  0.4122
  911MOL0     C22910   2.971   7.559   9.586  0.1480 -0.3510 -0.4314
  911MOL0     C22911   3.058   7.454   9.535  0.5420 -0.1170 -0.4057
  911MOL0     C22912   3.000   7.308   9.535  1.1353  0.1133 -0.0996
  911MOL0     C22913   2.859   7.276   9.458  0.3019 -0.2889 -0.0241
  911MOL0     C22914   2.839   7.345   9.330  0.5732  0.3538  0.4348
  911MOL0     C22915   2.800   7.376   9.224  0.0895 -1.4978 -0.4151
  911MOL0     C22916   2.877   7.636   9.928  0.6735 -0.5018 -0.7699
  911MOL0     C22917   2.837   7.743  10.015  0.1770  0.2183  0.1359
  911MOL0     H22918   2.536   8.114  10.076  4.7417  1.0784 -1.0000
  911MOL0     H22919   2.364   8.223  10.233 -0.3678 -1.0657 -0.3237
  911MOL0     H22920   2.494   8.253  10.652  3.5653  1.1442 -0.9823
  911MOL0     H22921   2.562   8.393  10.579 -0.2963  0.1468 -2.5125
  911MOL0     H22922   2.385   8.401  10.773  1.0885  1.2768  0.4196
  911MOL0     H22923   2.374   8.527  10.652 -2.0124 -0.2766 -1.3357
  911MOL0     H22924   2.214   8.420  10.504  3.5666  1.4212 -0.3708
  911MOL0     H22925   2.195   8.288  10.629 -0.3774 -1.1980 -1.2654
  911MOL0     H22926   2.156   8.492  10.785  1.6213  2.1056 -0.9484
  911MOL0     H22927   2.110   8.584  10.656  3.2279  0.2828  1.3237
  911MOL0     H22928   1.911   8.476  10.692  0.8742  2.0701 -0.9867
  911MOL0     H22929   1.975   8.388  10.557  2.6142 -0.3538  0.1964
  911MOL0     H22930   2.064   8.221  10.753 -0.1283 -0.2675  1.0084
  911MOL0     H22931   1.956   8.318  10.862  1.7681  1.9447 -0.1148
  911MOL0     H22932   1.764   8.269  10.745  1.1985  1.0447 -0.8581
  911MOL0     H22933   1.854   8.203  10.606  3.0434 -2.1172 -0.1189
  911MOL0     H22934   1.756   8.021  10.721  0.0510 -0.8028 -0.0116
  911MOL0     H22935   1.825   8.076  10.891  1.2904  3.6447 -0.6337
  911MOL0     H22936   1.944   7.951  10.556 -0.4293 -0.4530  1.2130
  911MOL0     H22937   2.274   7.763  10.605  0.8607  1.0047 -1.4608
  911MOL0     H22938   2.131   7.660  10.606 -1.3145  1.8218  0.3970
  911MOL0     H22939   2.058   7.852  10.406  0.3789 -0.7669  1.0927
  911MOL0     H22940   2.112   7.694  10.386 -3.5462  0.1947  1.0433
  911MOL0     H22941   2.340   7.779  10.354 -0.7210 -1.1230 -0.7582
  911MOL0     H22942   2.303   7.924  10.430  1.3791  0.3401 -1.2274
  911MOL0     H22943   2.220   7.835  10.144  1.5617  0.6293 -0.1059
  911MOL0     H22944   2.319   7.975  10.202  0.8834 -0.4818  2.7322
  911MOL0     H22945   1.975   7.817  10.148  3.2475  1.5513 -0.2957
  911MOL0     H22946   1.642   7.803  10.098  1.1418 -3.2223  1.4196
  911MOL0     H22947   1.710   7.828   9.941 -2.6201 -0.2815  1.7987
  911MOL0     H22948   1.792   7.723  10.064  0.6207  0.1024  0.3778
  911MOL0     H22949   1.370   8.121  10.098 -2.8236  0.3913  0.7533
  911MOL0     H22950   1.153   8.217  10.096 -0.7258  2.0263  2.8737
  911MOL0     H22951   0.999   8.372  10.137  2.8070 -1.7437 -3.8291
  911MOL0     H22952   1.043   8.550  10.180 -0.4844  1.2281 -1.2296
  911MOL0     H22953   0.847   8.442   9.981  0.8154 -1.5502  1.9190
  911MOL0     H22954   0.804   8.492  10.149 -0.9013 -0.0674 -0.0984
  911MOL0     H22955   0.722   8.644   9.959  0.3453 -2.7352 -1.1250
  911MOL0     H22956   0.874   8.697   9.928 -1.8176  1.2916 -0.7510
  911MOL0     H22957   0.776   8.705  10.211  0.6997 -1.6737 -0.6593
  911MOL0     H22958   0.897   8.807  10.142  0.7820 -0.8774 -0.2821
  911MOL0     H22959   0.710   8.901   9.981  0.2431 -1.2171 -0.0826
  911MOL0     H22960   0.766   8.965  10.142  1.2170 -2.2653  3.1742
  911MOL0     H22961   0.539   8.766  10.081  2.1424 -1.8673  1.8778
  911MOL0     H22962   0.579   8.833  10.237 -1.6985 -3.6315 -1.2228
  911MOL0     H22963   0.435   8.971  10.016  0.9449  0.0165 -2.0608
  911MOL0     H22964   0.563   9.077  10.086 -0.9091  0.1851 -1.2475
  911MOL0     H22965   0.353   8.940  10.258 -5.3987  2.8268 -1.6280
  911MOL0     H22966   0.351   9.106  10.188  3.0162  2.0537 -3.6645
  911MOL0     H22967   1.321   8.587   9.949  0.5571  0.5483  1.3890
  911MOL0     H22968   1.535   8.496   9.947 -1.0094  2.3530 -0.3010
  911MOL0     H22969   1.811   8.282  10.097  2.7454  1.2461 -0.3356
  911MOL0     H22970   2.028   8.242  10.185 -0.7147  0.2448  2.2492
  911MOL0     H22971   2.645   8.163  10.545 -2.0249  3.0631 -0.5017
  911MOL0     H22972   2.779   8.007  10.407 -0.4259  1.7421  0.9948
  911MOL0     H22973   2.841   7.982   9.788  0.6083 -0.0873 -1.5838
  911MOL0     H22974   2.880   7.827   9.629  2.7422  1.9827 -0.0981
  911MOL0     H22975   2.885   7.569   9.520 -0.5951 -1.2836  0.3818
  911MOL0     H22976   3.029   7.651   9.572  0.3481 -0.7667 -2.7978
  911MOL0     H22977   3.156   7.463   9.581 -0.4993 -0.7350  2.0788
  911MOL0     H22978   3.077   7.477   9.429  0.6705 -2.4067 -0.9225
  911MOL0     H22979   2.988   7.288   9.642  1.2186 -0.3626 -0.1775
  911MOL0     H22980   3.082   7.248   9.494  0.6783 -2.0245  1.8838
  911MOL0     H22981   2.772   7.305   9.517  0.8329  2.4170 -0.4239
  911MOL0     H22982   2.862   7.173   9.420 -2.1442 -0.3629 -0.1248
  911MOL0     H22983   2.765   7.398   9.125  0.8881 -0.7027 -0.5325
  911MOL0     H22984   2.883   7.539   9.975  0.4150  0.8644  2.3160
  911MOL0     H22985   2.820   7.734  10.122  2.0758  1.1625  0.5588
  912MOL0     O22986   7.927   1.819   9.405  0.9809 -0.4162 -0.7578
  912MOL0     C22987   7.904   1.709   9.361  0.4088  1.0173 -0.1571
  912MOL0     O22988   7.843   1.605   9.429 -0.6008 -0.1762  0.0166
  912MOL0     C22989   7.784   1.621   9.558 -0.2873  0.0071 -0.8728
  912MOL0     C22990   7.856   1.625   9.681 -0.3768  1.0084  0.7232
  912MOL0     C22991   7.788   1.633   9.802 -0.0397 -0.4728  0.5410
  912MOL0     C22992   7.648   1.654   9.803 -0.1820 -0.9898  0.0618
  912MOL0     O22993   7.589   1.668   9.927  0.0588 -0.4315  0.3151
  912MOL0     C22994   7.459   1.728   9.936 -0.2968  0.9882 -1.2471
  912MOL0     C22995   7.427   1.745  10.084 -0.5576 -0.3575  0.4812
  912MOL0     C22996   7.286   1.788  10.109 -0.0891 -0.3902 -0.4786
  912MOL0     C22997   7.272   1.945  10.097 -1.0025  0.2568 -0.7961
  912MOL0     C22998   7.143   1.993  10.161  0.3410  0.4105  0.4341
  912MOL0     C22999   7.012   1.916  10.143 -0.4285  0.1998  0.5837
  912MOL0     C23000   6.979   1.914   9.992  0.2900 -0.8997 -0.4494
  912MOL0     C23001   6.836   1.874   9.959 -0.4012 -0.7585  0.3016
  912MOL0     N23002   6.814   1.739  10.003  0.1369  0.3662 -1.1130
  912MOL0     C23003   6.880   1.629   9.957  0.2366  0.0120  0.0145
  912MOL0     C23004   6.813   1.528  10.014 -0.0061  0.3162  0.0163
  912MOL0     C23005   6.839   1.373  10.011  0.2151  0.1337  0.6510
  912MOL0     C23006   6.991   1.338  10.030 -1.0272 -0.0104 -0.4654
  912MOL0     C23007   7.071   1.341   9.896  0.1788 -0.2103  0.3501
  912MOL0     C23008   7.230   1.351   9.913  0.1217 -0.0367 -0.1344
  912MOL0     O23009   7.263   1.306  10.042 -0.1832  0.2337 -0.5652
  912MOL0     C23010   7.396   1.316  10.073 -0.6219  0.1657 -1.0271
  912MOL0     C23011   7.431   1.242  10.185  0.0263  0.8448 -0.4422
  912MOL0     C23012   7.565   1.223  10.232  0.1279 -0.2638  0.0269
  912MOL0     C23013   7.575   1.148  10.366 -0.6010 -0.8706 -0.5041
  912MOL0     C23014   7.675   1.274  10.163 -1.2027 -0.0120 -0.7944
  912MOL0     C23015   7.809   1.262  10.231 -0.7472  0.8857  0.3297
  912MOL0     O23016   7.859   1.137  10.262 -0.8857  0.4968 -0.4129
  912MOL0     C23017   7.968   1.116  10.343 -0.1936 -0.7001  0.5877
  912MOL0     C23018   7.977   0.980  10.373 -0.4738  0.5073  0.4219
  912MOL0     C23019   8.052   0.931  10.478 -0.2212 -0.2334  0.3955
  912MOL0     C23020   8.150   1.015  10.533  0.0878 -2.2304 -0.0105
  912MOL0     O23021   8.251   0.974  10.627 -0.1479  0.3820 -0.2023
  912MOL0     C23022   8.217   0.857  10.710 -0.0814  0.2663 -0.4523
  912MOL0     C23023   8.332   0.836  10.807  0.1549  0.0171  0.1699
  912MOL0     C23024   8.327   0.960  10.914  0.1487  0.7536 -0.6690
  912MOL0     C23025   8.370   0.922  11.046 -0.5747 -0.4926 -0.0652
  912MOL0     C23026   8.316   1.024  11.152 -0.2745 -0.2551  0.5061
  912MOL0     C23027   8.358   0.982  11.295 -0.3558  0.7759  0.1999
  912MOL0     C23028   8.286   1.083  11.393  0.1554 -0.4655  0.5654
  912MOL0     C23029   8.283   1.031  11.539 -0.0059 -0.6345  0.6368
  912MOL0    Cl23030   8.447   1.043  11.614 -0.5751 -0.0584 -0.1898
  912MOL0     C23031   8.149   1.154  10.500 -0.3278  0.8144 -0.4019
  912MOL0     C23032   8.056   1.204  10.410  0.8486  0.1706 -0.2404
  912MOL0     O23033   7.874   1.365  10.257 -0.0348 -0.8287 -0.3545
  912MOL0     C23034   7.638   1.356  10.053 -1.3152 -0.5471 -0.9019
  912MOL0     C23035   7.506   1.374  10.007  0.1593  0.5851  0.1951
  912MOL0     N23036   6.712   1.570  10.088  1.7606 -0.1564  0.1771
  912MOL0     N23037   6.708   1.699  10.083 -0.0069 -0.5115  0.3687
  912MOL0     C23038   7.577   1.656   9.679 -0.4489 -0.2698 -0.4914
  912MOL0     C23039   7.643   1.636   9.561 -0.1553  0.1449  0.3766
  912MOL0     C23040   7.924   1.696   9.223  0.4329 -1.1974  1.5694
  912MOL0     C23041   8.011   1.774   9.148 -0.5028  1.0784 -0.0809
  912MOL0     C23042   8.040   1.750   9.009  0.6151  0.0113 -0.6792
  912MOL0     C23043   7.978   1.656   8.937  0.2021 -0.5312 -0.1003
  912MOL0     O23044   8.012   1.640   8.800 -0.4434 -0.3907 -0.6748
  912MOL0     C23045   7.966   1.534   8.716 -0.5536  0.1609  0.6760
  912MOL0     C23046   8.078   1.431   8.710  0.0975 -0.3742 -0.0757
  912MOL0     C23047   8.212   1.496   8.640 -0.1377  0.0512  0.5913
  912MOL0     C23048   8.328   1.397   8.625 -0.0504  0.2655  0.1779
  912MOL0     C23049   8.451   1.459   8.559  0.9468  0.5201 -0.5174
  912MOL0     C23050   8.543   1.520   8.512  0.6310  0.8560 -0.1432
  912MOL0     C23051   7.884   1.577   9.011  0.2482 -0.2397  0.5939
  912MOL0     C23052   7.854   1.597   9.141 -0.5078 -0.7409  0.3253
  912MOL0     H23053   7.963   1.610   9.672 -0.4307  1.7980 -2.0798
  912MOL0     H23054   7.847   1.637   9.892 -1.0600 -0.9874  1.2436
  912MOL0     H23055   7.435   1.823   9.888 -0.5163  1.2673 -0.5819
  912MOL0     H23056   7.389   1.655   9.894  1.6567 -2.3380  0.8216
  912MOL0     H23057   7.444   1.645  10.126  1.9590 -0.3774 -0.3839
  912MOL0     H23058   7.509   1.796  10.135 -1.4023 -1.4403  3.0951
  912MOL0     H23059   7.216   1.743  10.037 -0.5998  1.1691 -1.0091
  912MOL0     H23060   7.268   1.756  10.212 -0.5790 -2.6014 -1.2010
  912MOL0     H23061   7.366   1.982  10.140  0.1550 -1.3590 -1.8425
  912MOL0     H23062   7.269   1.960   9.989 -1.9902 -1.8966 -1.1155
  912MOL0     H23063   7.165   2.007  10.267 -0.3452 -0.5972  0.7237
  912MOL0     H23064   7.143   2.093  10.117  0.6564  0.6731  1.0249
  912MOL0     H23065   7.023   1.809  10.161 -0.0432 -0.1759 -1.6311
  912MOL0     H23066   6.943   1.970  10.209 -2.2532  0.9172 -1.7700
  912MOL0     H23067   6.987   2.016   9.954  1.7199 -1.3395 -1.4012
  912MOL0     H23068   7.051   1.863   9.928  1.3598  0.0117 -0.0032
  912MOL0     H23069   6.818   1.870   9.851 -0.0433 -0.4183  0.2270
  912MOL0     H23070   6.769   1.951   9.998 -1.7241 -1.6810 -0.0740
  912MOL0     H23071   6.954   1.625   9.878 -3.4867 -2.1220 -3.8233
  912MOL0     H23072   6.788   1.323  10.094  1.2241 -2.9880 -0.4348
  912MOL0     H23073   6.799   1.337   9.915  0.3059 -1.2831  1.1175
  912MOL0     H23074   6.993   1.241  10.081  1.5028  1.2197  2.0343
  912MOL0     H23075   7.048   1.415  10.083  1.3810 -2.0388  0.0592
  912MOL0     H23076   7.033   1.416   9.826 -0.5905 -1.0594 -0.1660
  912MOL0     H23077   7.052   1.243   9.852  2.1144  0.3121 -1.8356
  912MOL0     H23078   7.257   1.456   9.896  3.2185  0.0386  3.8602
  912MOL0     H23079   7.279   1.287   9.840 -0.5833 -1.5191  0.6614
  912MOL0     H23080   7.345   1.189  10.225  2.1042 -1.8424  0.8219
  912MOL0     H23081   7.544   1.043  10.370  1.3715 -1.4712 -0.0089
  912MOL0     H23082   7.674   1.154  10.411 -0.4276 -2.6276 -0.5777
  912MOL0     H23083   7.511   1.208  10.431  0.1000  0.9254 -1.3953
  912MOL0     H23084   7.898   0.918  10.332 -0.6230  0.5717  0.6087
  912MOL0     H23085   8.030   0.827  10.499 -1.4671 -0.0704 -0.0045
  912MOL0     H23086   8.122   0.881  10.759  0.8847 -0.5422  2.0018
  912MOL0     H23087   8.205   0.762  10.658 -2.1888 -0.7400  1.6907
  912MOL0     H23088   8.314   0.739  10.855  0.8863 -1.1092 -1.7186
  912MOL0     H23089   8.434   0.827  10.768  0.6474  1.5003  1.0183
  912MOL0     H23090   8.225   0.999  10.913  0.0347  0.5056  0.4721
  912MOL0     H23091   8.382   1.039  10.862 -2.9814  2.1349 -2.1430
  912MOL0     H23092   8.342   0.818  11.068 -2.3032  0.6638  4.3815
  912MOL0     H23093   8.480   0.918  11.045 -0.4804  1.0755 -2.4452
  912MOL0     H23094   8.209   1.048  11.154  0.1206  1.6107  1.7936
  912MOL0     H23095   8.364   1.121  11.136 -1.3292  0.2428  0.2427
  912MOL0     H23096   8.323   0.882  11.320 -0.7684  0.1000 -2.7450
  912MOL0     H23097   8.465   0.982  11.318 -0.3316  0.7682  0.0856
  912MOL0     H23098   8.188   1.102  11.350 -0.2095 -1.5365  0.9208
  912MOL0     H23099   8.344   1.176  11.395 -0.2689 -0.1939  0.2288
  912MOL0     H23100   8.260   0.924  11.530  4.0348 -1.6137  0.1125
  912MOL0     H23101   8.217   1.095  11.598  0.2028 -1.1241  1.4110
  912MOL0     H23102   8.230   1.212  10.542  2.8177 -1.2859 -2.9973
  912MOL0     H23103   8.046   1.311  10.393 -1.1739  0.3556  1.6513
  912MOL0     H23104   7.716   1.405   9.996 -0.2598 -1.5909 -0.3923
  912MOL0     H23105   7.492   1.432   9.917  0.1156 -1.2275 -1.0200
  912MOL0     H23106   7.472   1.681   9.689  0.1581  1.8209  1.6101
  912MOL0     H23107   7.597   1.618   9.465  0.4540  2.5182 -0.4157
  912MOL0     H23108   8.055   1.859   9.200 -0.8150  0.7324  0.7544
  912MOL0     H23109   8.095   1.826   8.955  1.8010  0.2081  0.7478
  912MOL0     H23110   7.866   1.503   8.747 -0.0093 -2.1503  0.2901
  912MOL0     H23111   7.950   1.575   8.616 -1.2653 -0.4819  0.5233
  912MOL0     H23112   8.045   1.350   8.645  4.3254 -1.9876 -0.5636
  912MOL0     H23113   8.095   1.404   8.815  2.2309  3.8274  0.8992
  912MOL0     H23114   8.243   1.580   8.704 -2.4684  1.1653  0.3845
  912MOL0     H23115   8.196   1.537   8.540  2.9586  2.0524  0.7726
  912MOL0     H23116   8.292   1.308   8.573  1.5789  0.0753 -0.6874
  912MOL0     H23117   8.365   1.355   8.719  1.1676  1.3261  0.1977
  912MOL0     H23118   8.608   1.602   8.490  3.4017 -1.4569 -1.0851
  912MOL0     H23119   7.839   1.497   8.952  2.5762  0.3024 -2.1462
  912MOL0     H23120   7.785   1.532   9.193 -0.5796  0.8806  2.4038
  913MOL0     O23121   6.675   2.258   1.598 -0.4409  0.3752  0.0533
  913MOL0     C23122   6.649   2.375   1.582 -1.2449  0.7254  0.4852
  913MOL0     O23123   6.627   2.444   1.462 -0.3235 -0.5386 -0.0729
  913MOL0     C23124   6.611   2.385   1.339  0.8521 -0.0588 -0.3763
  913MOL0     C23125   6.576   2.258   1.312  1.3990  0.2983 -0.5421
  913MOL0     C23126   6.555   2.216   1.178 -0.5304 -0.6111 -0.8783
  913MOL0     C23127   6.564   2.297   1.069 -0.2877  1.3254  0.2718
  913MOL0     O23128   6.557   2.242   0.942  0.3439  0.2545 -0.5079
  913MOL0     C23129   6.485   2.317   0.839  0.1207 -0.4031 -0.8207
  913MOL0     C23130   6.359   2.250   0.774  0.3744  0.0120 -0.4782
  913MOL0     C23131   6.262   2.201   0.881  0.5890  0.3909 -0.1872
  913MOL0     C23132   6.257   2.050   0.916 -0.9883 -0.6246 -0.8945
  913MOL0     C23133   6.134   2.000   0.984  0.8861 -0.4071  0.4213
  913MOL0     C23134   6.142   1.843   0.991  0.5741  0.4221  0.2809
  913MOL0     C23135   6.226   1.783   1.103  0.0085  0.4109  0.0067
  913MOL0     C23136   6.214   1.630   1.136 -0.2852 -0.4413  0.0880
  913MOL0     N23137   6.253   1.539   1.035  0.0507 -0.2439  0.6330
  913MOL0     C23138   6.378   1.523   0.985 -0.8013  0.5779  0.4516
  913MOL0     C23139   6.366   1.465   0.864  0.0192  0.2982  0.9749
  913MOL0     C23140   6.481   1.430   0.773 -0.5353 -0.7233 -1.1675
  913MOL0     C23141   6.515   1.545   0.666 -0.8830 -0.6040 -0.9748
  913MOL0     C23142   6.445   1.537   0.537  0.1856 -0.8081  0.2902
  913MOL0     C23143   6.526   1.628   0.447 -0.4577 -0.0712 -0.4615
  913MOL0     O23144   6.632   1.551   0.377 -0.4773  0.5028  0.0722
  913MOL0     C23145   6.592   1.477   0.273 -0.7699 -0.1435  0.1739
  913MOL0     C23146   6.702   1.415   0.220 -0.0342  0.9399 -0.2144
  913MOL0     C23147   6.684   1.323   0.111  0.1115 -0.5107 -0.2808
  913MOL0     C23148   6.808   1.271   0.049  0.4767  0.1989 -0.6398
  913MOL0     C23149   6.551   1.294   0.058 -0.3751 -0.2543  0.3040
  913MOL0     C23150   6.531   1.207  -0.060  0.4707  1.0743  0.8539
  913MOL0     O23151   6.462   1.098  -0.040 -0.1818 -0.4349 -0.6084
  913MOL0     C23152   6.401   1.025  -0.140  0.4208  0.4519 -0.0084
  913MOL0     C23153   6.404   0.892  -0.119 -0.7126 -0.1067  0.3565
  913MOL0     C23154   6.344   0.804  -0.213 -0.3018  0.2017 -0.0399
  913MOL0     C23155   6.274   0.851  -0.323  0.9814 -0.4991 -0.2933
  913MOL0     O23156   6.222   0.768  -0.408 -1.1714  0.3026  0.5752
  913MOL0     C23157   6.197   0.626  -0.374  0.0955 -0.0765  0.2011
  913MOL0     C23158   6.087   0.573  -0.469  0.3521  0.1495  0.1508
  913MOL0     C23159   6.138   0.568  -0.603  0.3975 -0.1277  0.9316
  913MOL0     C23160   6.034   0.504  -0.698 -0.1064 -0.0602  0.7104
  913MOL0     C23161   6.068   0.543  -0.841  0.2405 -0.2990  1.0344
  913MOL0     C23162   6.187   0.467  -0.893  0.5253 -0.5457 -0.4417
  913MOL0     C23163   6.212   0.501  -1.037  0.0075  0.3208 -0.4422
  913MOL0     C23164   6.354   0.458  -1.082 -0.2153 -0.5324 -0.5200
  913MOL0    Cl23165   6.365   0.290  -1.048 -0.6208 -0.1548  0.1072
  913MOL0     C23166   6.288   0.986  -0.354 -0.3263 -0.8410 -0.6714
  913MOL0     C23167   6.340   1.071  -0.259 -0.4886 -1.2661  0.3226
  913MOL0     O23168   6.573   1.243  -0.167  0.1044 -0.9218 -0.1831
  913MOL0     C23169   6.444   1.348   0.119 -0.4336  0.6103  0.8625
  913MOL0     C23170   6.464   1.446   0.223  0.0674  0.1306  0.8805
  913MOL0     N23171   6.231   1.469   0.828 -0.8381 -0.3021  0.2158
  913MOL0     N23172   6.161   1.500   0.934 -0.4694  0.0437 -0.4034
  913MOL0     C23173   6.609   2.426   1.091 -0.2197 -0.1737 -0.9386
  913MOL0     C23174   6.621   2.462   1.229  0.4873  0.1730  0.1444
  913MOL0     C23175   6.641   2.462   1.704  0.8282  0.1360 -0.5502
  913MOL0     C23176   6.582   2.584   1.708 -0.8380 -0.1652 -1.0118
  913MOL0     C23177   6.558   2.662   1.823  0.3524  1.0682  1.0847
  913MOL0     C23178   6.591   2.611   1.944 -0.7915  0.6758 -0.0188
  913MOL0     O23179   6.580   2.677   2.065 -0.0496  0.5454 -0.2072
  913MOL0     C23180   6.622   2.816   2.082  0.4533 -0.2491  0.3774
  913MOL0     C23181   6.579   2.878   2.213  0.2869  0.2895  1.5258
  913MOL0     C23182   6.619   2.799   2.343 -0.6785  0.5831 -0.3157
  913MOL0     C23183   6.547   2.842   2.471 -0.2357 -0.6633 -0.1891
  913MOL0     C23184   6.584   2.982   2.512  0.0447 -0.3900 -0.0250
  913MOL0     C23185   6.641   3.091   2.527 -0.3742 -0.4358 -0.8950
  913MOL0     C23186   6.650   2.472   1.946  1.4263  0.1003  0.4891
  913MOL0     C23187   6.669   2.400   1.825  0.5170 -0.2301 -0.2305
  913MOL0     H23188   6.569   2.197   1.401 -0.2045  2.2633  0.7431
  913MOL0     H23189   6.529   2.113   1.157  3.3047 -1.5990 -1.6672
  913MOL0     H23190   6.450   2.415   0.873 -0.9863 -1.6907  2.0621
  913MOL0     H23191   6.555   2.345   0.759 -0.5949  1.5047 -0.8194
  913MOL0     H23192   6.323   2.322   0.701 -0.4914  1.7076  1.5376
  913MOL0     H23193   6.396   2.163   0.718 -0.8520 -0.3926 -0.7043
  913MOL0     H23194   6.270   2.258   0.974 -2.3390 -0.1765  0.5084
  913MOL0     H23195   6.165   2.228   0.838  1.3604 -0.8094 -2.8838
  913MOL0     H23196   6.276   2.000   0.821 -1.4530  1.8570 -2.3943
  913MOL0     H23197   6.345   2.027   0.977 -1.3329  5.4277  2.7043
  913MOL0     H23198   6.118   2.043   1.083  2.5348  1.3611 -0.0388
  913MOL0     H23199   6.047   2.031   0.926 -0.4264 -4.1420  0.1186
  913MOL0     H23200   6.041   1.801   0.993  0.4367  0.7146 -0.4971
  913MOL0     H23201   6.187   1.811   0.897  3.6534  1.4554  1.2963
  913MOL0     H23202   6.329   1.801   1.069  0.4690  1.0634  1.6458
  913MOL0     H23203   6.216   1.846   1.192  3.0951 -1.2260  1.6711
  913MOL0     H23204   6.112   1.612   1.173 -0.0621 -0.2949  0.7931
  913MOL0     H23205   6.288   1.617   1.215 -0.1680  0.8711  0.2203
  913MOL0     H23206   6.478   1.542   1.024  0.1730 -0.0679 -1.6096
  913MOL0     H23207   6.572   1.428   0.834 -0.7034  3.4058 -0.5531
  913MOL0     H23208   6.461   1.335   0.722 -1.8080 -0.3390 -1.4036
  913MOL0     H23209   6.624   1.548   0.669 -0.6721 -0.9053  5.4911
  913MOL0     H23210   6.490   1.646   0.700 -2.2948 -0.1618 -3.1594
  913MOL0     H23211   6.343   1.570   0.558 -0.2795 -3.0366  1.9547
  913MOL0     H23212   6.446   1.434   0.499  0.2326 -0.1796 -1.4925
  913MOL0     H23213   6.582   1.709   0.494  2.9743 -1.8978 -1.1488
  913MOL0     H23214   6.444   1.677   0.394 -0.6816  1.0796  0.8950
  913MOL0     H23215   6.802   1.436   0.257  0.6312 -2.3890  0.2045
  913MOL0     H23216   6.795   1.205  -0.037  3.0447  0.6376 -1.4575
  913MOL0     H23217   6.867   1.355   0.012 -0.0574  1.2472  0.8100
  913MOL0     H23218   6.885   1.222   0.110  2.1088  0.7031 -2.1843
  913MOL0     H23219   6.454   0.849  -0.032 -0.1199  0.5240  0.3362
  913MOL0     H23220   6.372   0.701  -0.195  1.1331  0.6686  0.5795
  913MOL0     H23221   6.281   0.556  -0.371 -0.1943 -0.4126  0.5273
  913MOL0     H23222   6.138   0.626  -0.282  0.5636  0.1758  0.5088
  913MOL0     H23223   6.062   0.473  -0.432 -0.5329  0.6154  0.8512
  913MOL0     H23224   6.002   0.641  -0.464 -0.2370 -0.5647  0.0789
  913MOL0     H23225   6.229   0.507  -0.604  2.9310  3.3367  0.4855
  913MOL0     H23226   6.174   0.666  -0.635  0.1983 -0.0697  0.8875
  913MOL0     H23227   6.018   0.397  -0.689 -1.1835 -0.2645 -2.2963
  913MOL0     H23228   5.933   0.544  -0.687 -0.7750 -1.6146  0.4517
  913MOL0     H23229   6.079   0.652  -0.847 -2.1506 -0.0155  0.6030
  913MOL0     H23230   5.990   0.519  -0.914  3.6392 -0.7435 -2.7766
  913MOL0     H23231   6.269   0.504  -0.830 -0.1898 -0.7945  0.6840
  913MOL0     H23232   6.177   0.359  -0.879 -2.5944 -0.7186 -2.9695
  913MOL0     H23233   6.193   0.607  -1.055 -0.6704  0.2414 -0.2144
  913MOL0     H23234   6.143   0.439  -1.094  0.4231  1.8976 -2.7847
  913MOL0     H23235   6.432   0.522  -1.039  1.4078 -1.3770 -2.1106
  913MOL0     H23236   6.350   0.470  -1.190 -2.2325  0.8852 -0.3474
  913MOL0     H23237   6.250   1.042  -0.438  1.5672  1.9586  0.2255
  913MOL0     H23238   6.339   1.178  -0.276  0.0560 -0.7453  3.2082
  913MOL0     H23239   6.348   1.316   0.081  0.5304 -0.3766 -0.8558
  913MOL0     H23240   6.371   1.479   0.269 -1.2374 -0.8833 -0.9145
  913MOL0     H23241   6.648   2.479   1.005 -2.3877  1.2856 -1.1140
  913MOL0     H23242   6.647   2.563   1.260 -0.6814  0.6459 -0.3775
  913MOL0     H23243   6.563   2.637   1.616 -0.5457 -1.2551 -1.7114
  913MOL0     H23244   6.534   2.767   1.830  0.4635  1.4235 -2.2611
  913MOL0     H23245   6.731   2.829   2.090  0.3966 -0.5419  1.9259
  913MOL0     H23246   6.592   2.881   1.998 -2.0450 -1.6391  0.1165
  913MOL0     H23247   6.470   2.876   2.218  0.2432 -1.8820  0.4556
  913MOL0     H23248   6.614   2.982   2.226  0.9923  0.1117  1.1216
  913MOL0     H23249   6.727   2.795   2.357 -0.8557  1.1535  1.4911
  913MOL0     H23250   6.583   2.697   2.329 -2.4818  1.2699 -0.9870
  913MOL0     H23251   6.579   2.782   2.558  0.3298  0.8707  0.6952
  913MOL0     H23252   6.441   2.817   2.467  0.4665 -4.4347  0.3231
  913MOL0     H23253   6.690   3.187   2.524 -1.8755  0.8648  4.4942
  913MOL0     H23254   6.681   2.427   2.040 -1.7848 -4.0114 -0.1304
  913MOL0     H23255   6.710   2.299   1.829  0.1038 -0.3587  2.6423
  914MOL0     O23256   2.279   0.764  10.429 -0.0074 -0.0448  0.2989
  914MOL0     C23257   2.166   0.723  10.439  0.1935  0.2260 -0.4524
  914MOL0     O23258   2.051   0.778  10.402 -0.5346  0.8682  0.2331
  914MOL0     C23259   2.050   0.899  10.341 -0.2409  0.7982  0.1663
  914MOL0     C23260   1.938   0.975  10.364 -0.2216 -0.7737 -0.0248
  914MOL0     C23261   1.916   1.098  10.308 -0.3367 -0.3506 -0.2298
  914MOL0     C23262   2.012   1.144  10.214 -0.3001 -0.4339 -0.8810
  914MOL0     O23263   1.994   1.257  10.136 -0.0045 -0.7592  0.2016
  914MOL0     C23264   1.925   1.240  10.010  0.1237  0.3363 -1.1875
  914MOL0     C23265   1.819   1.352   9.987  0.3170 -0.2543  0.1316
  914MOL0     C23266   1.886   1.460   9.909 -0.1923 -0.5740  0.9781
  914MOL0     C23267   2.009   1.539   9.966  0.0199 -0.4494  0.7395
  914MOL0     C23268   2.102   1.602   9.864 -0.3582  0.9997 -0.2571
  914MOL0     C23269   2.130   1.747   9.877  0.5001 -0.0542 -1.1437
  914MOL0     C23270   2.249   1.771   9.970 -0.1956 -0.4475  0.1674
  914MOL0     C23271   2.242   1.912  10.026  1.1621 -0.1059 -0.7935
  914MOL0     N23272   2.376   1.936  10.073 -0.7876 -0.0231 -0.7726
  914MOL0     C23273   2.494   1.950   9.998 -0.1073  0.0436 -0.7432
  914MOL0     C23274   2.589   1.926  10.100 -0.6662 -0.2558 -1.1696
  914MOL0     C23275   2.735   1.921  10.071 -0.1044  0.3321  0.4476
  914MOL0     C23276   2.806   2.060  10.089  0.9310 -0.3796  0.4767
  914MOL0     C23277   2.953   2.042  10.107 -0.1404 -0.4440 -1.0969
  914MOL0     C23278   3.025   1.984   9.987 -0.9793 -0.2837  0.2606
  914MOL0     O23279   3.017   2.077   9.867  0.4593  0.2738  0.0732
  914MOL0     C23280   3.119   2.085   9.774  0.4519 -0.4194 -0.5848
  914MOL0     C23281   3.255   2.082   9.819  0.4192 -0.3962 -0.4658
  914MOL0     C23282   3.361   2.111   9.732  0.7599 -0.1670 -0.6590
  914MOL0     C23283   3.502   2.128   9.787 -0.6917 -0.3249  0.4635
  914MOL0     C23284   3.339   2.120   9.598 -0.2307  0.2928  0.6651
  914MOL0     C23285   3.449   2.109   9.499 -0.7154  0.7686  0.9438
  914MOL0     O23286   3.530   2.004   9.528 -0.2459 -0.4965  0.0123
  914MOL0     C23287   3.650   1.992   9.453  0.0588  0.4587 -0.0108
  914MOL0     C23288   3.758   2.045   9.513  0.2080 -0.2658 -0.5309
  914MOL0     C23289   3.881   2.050   9.464 -0.3917  0.1334 -0.5600
  914MOL0     C23290   3.897   2.020   9.323  0.4229 -0.2882  0.3389
  914MOL0     O23291   4.024   2.031   9.277 -0.1173 -0.1237  0.7018
  914MOL0     C23292   4.060   1.946   9.171 -0.1483  0.7016  0.2256
  914MOL0     C23293   4.204   1.981   9.120  0.1846 -0.1485  0.0079
  914MOL0     C23294   4.311   1.878   9.124 -0.2554 -0.0926  0.4085
  914MOL0     C23295   4.451   1.905   9.061 -0.4308  0.2651 -0.4521
  914MOL0     C23296   4.562   1.951   9.165 -0.2429 -0.1960 -0.0469
  914MOL0     C23297   4.603   1.847   9.276 -0.1504 -0.0811  0.2363
  914MOL0     C23298   4.726   1.889   9.359 -0.7825  0.0552  0.3546
  914MOL0     C23299   4.757   1.789   9.467  0.3878  0.4173 -0.2545
  914MOL0    Cl23300   4.606   1.767   9.573 -0.0021 -0.5904  0.1137
  914MOL0     C23301   3.788   1.967   9.254 -0.6208  0.6635 -0.2167
  914MOL0     C23302   3.658   1.959   9.316 -0.3311  0.5883 -0.3901
  914MOL0     O23303   3.459   2.189   9.404 -0.0525  0.1186 -0.1098
  914MOL0     C23304   3.203   2.119   9.547  0.7607  0.6415 -0.3896
  914MOL0     C23305   3.097   2.113   9.633 -0.3278  0.7120 -1.1873
  914MOL0     N23306   2.531   1.927  10.229 -0.4616  0.5760 -0.0304
  914MOL0     N23307   2.406   1.912  10.210  0.2829 -0.6639 -0.3118
  914MOL0     C23308   2.132   1.066  10.193  0.3581  0.1544  0.2545
  914MOL0     C23309   2.145   0.945  10.248  0.1720  0.5585  0.5136
  914MOL0     C23310   2.157   0.590  10.506  0.3965 -0.3704 -0.2290
  914MOL0     C23311   2.039   0.553  10.575  0.5798 -0.3609 -0.1003
  914MOL0     C23312   2.032   0.421  10.629  0.4390  1.3402  0.2474
  914MOL0     C23313   2.131   0.323  10.604 -0.5791  0.1214 -0.1293
  914MOL0     O23314   2.114   0.209  10.664  0.7577 -0.2246  0.2845
  914MOL0     C23315   2.224   0.120  10.688  0.8262 -0.0459 -0.5483
  914MOL0     C23316   2.158  -0.011  10.747 -0.0034  0.5406  0.8829
  914MOL0     C23317   2.278  -0.107  10.791  0.2394 -0.6039  0.0065
  914MOL0     C23318   2.239  -0.257  10.809 -0.5830  0.4318  0.9735
  914MOL0     C23319   2.346  -0.346  10.762  0.2464  0.4551 -0.8312
  914MOL0     C23320   2.435  -0.417  10.726 -0.0514 -0.2140 -0.1452
  914MOL0     C23321   2.247   0.360  10.528 -0.3694  0.1709 -0.5207
  914MOL0     C23322   2.252   0.487  10.486 -0.7645 -0.3576  0.6155
  914MOL0     H23323   1.863   0.940  10.434  0.8232 -0.8376  1.1057
  914MOL0     H23324   1.826   1.159  10.316 -1.3230 -1.5973 -1.5558
  914MOL0     H23325   1.997   1.225   9.928  2.4392  1.2496  0.5698
  914MOL0     H23326   1.867   1.148  10.023 -0.9196  1.1473  0.0334
  914MOL0     H23327   1.734   1.324   9.924  2.2356 -1.2580 -2.1441
  914MOL0     H23328   1.793   1.395  10.085  2.2194 -1.7436  1.3659
  914MOL0     H23329   1.910   1.423   9.809  2.1831 -1.2185  1.7338
  914MOL0     H23330   1.809   1.537   9.897 -0.2538 -0.7961 -0.2463
  914MOL0     H23331   1.961   1.614  10.028 -2.0700 -1.9688  1.0423
  914MOL0     H23332   2.075   1.498  10.043 -0.2031  1.6276  2.1288
  914MOL0     H23333   2.198   1.549   9.862 -0.2919  1.1168 -2.4890
  914MOL0     H23334   2.056   1.596   9.765 -2.5987 -1.2262  0.8032
  914MOL0     H23335   2.150   1.778   9.774  1.2620  1.9336 -0.4534
  914MOL0     H23336   2.041   1.801   9.912 -0.2584 -1.4939 -0.8051
  914MOL0     H23337   2.257   1.702  10.055  3.0253 -2.1790 -1.3354
  914MOL0     H23338   2.335   1.763   9.902  2.1170  1.9965  2.5648
  914MOL0     H23339   2.167   1.932  10.104  2.3052  1.1198  0.0434
  914MOL0     H23340   2.211   1.989   9.954  1.3452  1.2583  0.5335
  914MOL0     H23341   2.510   1.956   9.891 -2.3558 -1.1803 -1.2184
  914MOL0     H23342   2.776   1.847  10.141 -0.8678  0.1122  0.6693
  914MOL0     H23343   2.754   1.893   9.967  0.5100  1.1899  0.3196
  914MOL0     H23344   2.757   2.114  10.171  0.3208 -0.8666  0.4382
  914MOL0     H23345   2.782   2.115   9.998  0.8287 -2.3162 -0.7193
  914MOL0     H23346   2.977   1.968  10.183 -0.9918  2.8913  2.8142
  914MOL0     H23347   2.997   2.131  10.153  0.8119 -1.6593  0.4067
  914MOL0     H23348   2.987   1.885   9.961  0.0031 -0.2378 -1.5973
  914MOL0     H23349   3.130   1.966  10.012 -0.9506 -2.0665 -0.9223
  914MOL0     H23350   3.275   2.075   9.925 -1.9248  1.0333  0.1635
  914MOL0     H23351   3.500   2.195   9.874  1.0309  2.7692 -1.6549
  914MOL0     H23352   3.534   2.027   9.811  0.5894  0.8858  4.7348
  914MOL0     H23353   3.566   2.184   9.718 -1.5618 -0.2458 -0.2901
  914MOL0     H23354   3.737   2.098   9.605 -1.9421  2.0178 -2.2110
  914MOL0     H23355   3.964   2.079   9.527 -1.8950  0.2664  1.4865
  914MOL0     H23356   4.051   1.843   9.207 -2.4151  1.4209  2.0072
  914MOL0     H23357   3.985   1.948   9.092  1.3672 -0.9082 -1.3321
  914MOL0     H23358   4.194   2.025   9.020 -1.3255 -2.0678 -0.7535
  914MOL0     H23359   4.244   2.069   9.171  0.4115 -0.3238  0.1374
  914MOL0     H23360   4.263   1.787   9.088 -1.7459  1.7537 -2.7256
  914MOL0     H23361   4.335   1.857   9.228  0.5120  1.7940  0.6535
  914MOL0     H23362   4.477   1.807   9.019  0.1429  0.0909  0.2900
  914MOL0     H23363   4.444   1.971   8.975 -0.8545  0.9691  0.1131
  914MOL0     H23364   4.548   2.048   9.213 -0.6714  0.1096 -0.7783
  914MOL0     H23365   4.652   1.964   9.104  1.3661  1.6020  2.5396
  914MOL0     H23366   4.517   1.826   9.340  1.5169 -3.2532  1.6610
  914MOL0     H23367   4.631   1.757   9.221 -2.8667 -0.3933 -0.7906
  914MOL0     H23368   4.704   1.986   9.404 -1.7119  1.9503 -3.6510
  914MOL0     H23369   4.812   1.905   9.293 -2.1177 -0.8829 -1.7263
  914MOL0     H23370   4.840   1.833   9.523 -1.8702  3.2619  1.0925
  914MOL0     H23371   4.788   1.696   9.419  0.4284 -0.2500  1.0008
  914MOL0     H23372   3.802   1.952   9.148  2.2997  2.2969 -0.1474
  914MOL0     H23373   3.578   1.910   9.262 -1.4062  2.3491 -0.4831
  914MOL0     H23374   3.191   2.117   9.439  0.5207  2.0253 -0.4031
  914MOL0     H23375   2.996   2.129   9.595  0.0210 -0.3596 -2.6250
  914MOL0     H23376   2.203   1.108  10.123  1.7354  4.5412  3.8187
  914MOL0     H23377   2.240   0.893  10.234  0.6349  0.9424  2.0156
  914MOL0     H23378   1.962   0.629  10.583  0.8155  0.3131 -3.0700
  914MOL0     H23379   1.956   0.374  10.690  1.8388 -1.1267  0.2194
  914MOL0     H23380   2.298   0.107  10.608 -0.2456 -0.1651 -1.5485
  914MOL0     H23381   2.282   0.164  10.769  1.5553 -0.4749 -0.8304
  914MOL0     H23382   2.111  -0.055  10.658  1.5176  1.9907 -0.7266
  914MOL0     H23383   2.080   0.002  10.822 -2.5843 -3.6986 -0.7039
  914MOL0     H23384   2.312  -0.077  10.890  0.0985 -0.7842  0.1089
  914MOL0     H23385   2.362  -0.094  10.722  3.1109 -1.2878  3.1372
  914MOL0     H23386   2.154  -0.294  10.750 -1.0442  1.1549  1.1639
  914MOL0     H23387   2.221  -0.271  10.916  1.8727  2.3809  1.7349
  914MOL0     H23388   2.519  -0.469  10.684  0.5171  1.6947 -1.4888
  914MOL0     H23389   2.335   0.299  10.515  1.3209  2.6854 -1.7263
  914MOL0     H23390   2.331   0.519  10.419  0.0638 -1.3983  1.0614
  915MOL0     O23391   3.529   5.936   6.521 -0.7280 -0.2510  1.0046
  915MOL0     C23392   3.435   6.008   6.517 -0.6871  0.1992 -0.4279
  915MOL0     O23393   3.334   6.015   6.617 -0.0303  0.2760 -0.1515
  915MOL0     C23394   3.323   5.908   6.715 -0.2207  0.4341  0.4657
  915MOL0     C23395   3.294   5.962   6.838 -1.5799 -0.4091 -0.0864
  915MOL0     C23396   3.262   5.879   6.935 -1.1010  0.3916 -0.0988
  915MOL0     C23397   3.286   5.740   6.925 -0.0517 -0.1481  0.7264
  915MOL0     O23398   3.253   5.659   7.023  0.3576  0.4857 -0.7384
  915MOL0     C23399   3.112   5.637   7.049 -0.4426 -0.1959 -0.4134
  915MOL0     C23400   3.084   5.532   7.159 -0.0304  0.3938  0.4110
  915MOL0     C23401   3.139   5.389   7.130 -0.0020  0.0303  0.5073
  915MOL0     C23402   3.153   5.323   7.264  0.7415 -0.2609 -0.1284
  915MOL0     C23403   3.023   5.312   7.351 -0.2079  0.4382  0.2899
  915MOL0     C23404   2.943   5.194   7.311 -1.0377  0.0063 -0.5933
  915MOL0     C23405   2.790   5.206   7.346  0.1249 -0.4728  0.2067
  915MOL0     C23406   2.715   5.324   7.287 -0.2221  0.0438 -0.9647
  915MOL0     N23407   2.722   5.324   7.145  1.0386  0.8646 -0.4156
  915MOL0     C23408   2.687   5.210   7.065  0.3966 -0.0889  0.3137
  915MOL0     C23409   2.683   5.253   6.934  0.0970 -0.6711 -0.4432
  915MOL0     C23410   2.636   5.178   6.811  0.2151  0.5874  0.7822
  915MOL0     C23411   2.758   5.106   6.741  0.8984 -0.0707 -1.0806
  915MOL0     C23412   2.866   5.200   6.697 -0.4140 -1.0030  0.7036
  915MOL0     C23413   3.001   5.132   6.708  0.2700  0.9617 -0.2054
  915MOL0     O23414   3.096   5.233   6.716 -0.3276 -0.3677 -0.6098
  915MOL0     C23415   3.163   5.282   6.600 -0.1412  0.3811  0.1610
  915MOL0     C23416   3.284   5.345   6.609 -0.6713 -0.7654  0.2422
  915MOL0     C23417   3.357   5.407   6.498  0.3732  0.3842 -0.7352
  915MOL0     C23418   3.496   5.472   6.530 -0.0829  0.1329  0.1225
  915MOL0     C23419   3.288   5.425   6.378  0.2807 -0.1729  0.0220
  915MOL0     C23420   3.324   5.518   6.273  0.1005  0.3875  0.1119
  915MOL0     O23421   3.363   5.645   6.297  0.0898  0.1947 -1.6151
  915MOL0     C23422   3.411   5.722   6.198  0.3383 -0.5838  0.1343
  915MOL0     C23423   3.533   5.801   6.224  0.3314 -0.1875  0.5962
  915MOL0     C23424   3.597   5.870   6.128 -0.5912  0.3977  0.9995
  915MOL0     C23425   3.543   5.871   5.993  0.6302 -0.0007  0.4525
  915MOL0     O23426   3.603   5.968   5.918  0.3919  0.0924 -0.7877
  915MOL0     C23427   3.556   5.997   5.780 -0.1595 -0.0933  0.1182
  915MOL0     C23428   3.639   5.904   5.694  0.1303 -0.1096 -0.1926
  915MOL0     C23429   3.642   5.935   5.543  0.1522 -0.2513 -0.5143
  915MOL0     C23430   3.732   6.051   5.514 -0.1542 -0.2286  0.5253
  915MOL0     C23431   3.749   6.071   5.365  0.8145  0.4723  0.3128
  915MOL0     C23432   3.629   6.069   5.273  0.2833 -0.2640 -0.1097
  915MOL0     C23433   3.528   6.178   5.307  0.5134 -1.0062  0.6376
  915MOL0     C23434   3.393   6.154   5.240 -0.6913  0.8676  0.3487
  915MOL0    Cl23435   3.399   6.131   5.064  0.2043  0.0090  0.1533
  915MOL0     C23436   3.431   5.793   5.958  1.4145  0.6495 -0.1262
  915MOL0     C23437   3.364   5.730   6.067  0.7412  0.4633  0.0502
  915MOL0     O23438   3.322   5.466   6.159  0.0699 -0.2665 -0.0361
  915MOL0     C23439   3.169   5.345   6.361  0.8450  0.4792  0.2640
  915MOL0     C23440   3.110   5.273   6.470 -0.1107 -0.2148  0.9012
  915MOL0     N23441   2.719   5.392   6.940  0.1272  0.3406 -0.1673
  915MOL0     N23442   2.729   5.432   7.066 -0.1000  0.0285 -0.2518
  915MOL0     C23443   3.332   5.684   6.802  0.4067  0.4584 -0.1364
  915MOL0     C23444   3.357   5.771   6.693  0.2584 -0.3949  0.5225
  915MOL0     C23445   3.426   6.086   6.395 -1.1140  0.2438 -0.2515
  915MOL0     C23446   3.545   6.141   6.344  0.4930  0.8851 -0.6276
  915MOL0     C23447   3.545   6.220   6.227  0.1148  0.6278  0.3184
  915MOL0     C23448   3.419   6.257   6.166  0.1174 -0.0484 -0.3835
  915MOL0     O23449   3.417   6.341   6.065  0.6229 -0.9110  0.0740
  915MOL0     C23450   3.531   6.356   5.976  0.7264  0.3351 -0.0109
  915MOL0     C23451   3.494   6.437   5.853 -1.0053 -0.4469 -0.0783
  915MOL0     C23452   3.621   6.440   5.761 -0.3042 -0.7876 -0.5278
  915MOL0     C23453   3.615   6.499   5.619  0.2455 -1.0434 -0.3878
  915MOL0     C23454   3.492   6.454   5.538  0.4972  0.9407  0.2195
  915MOL0     C23455   3.390   6.438   5.473 -0.2355  0.5755  0.0335
  915MOL0     C23456   3.307   6.202   6.222 -0.0634 -0.6515  0.0161
  915MOL0     C23457   3.305   6.111   6.338  0.5419 -0.0358  1.1956
  915MOL0     H23458   3.291   6.069   6.852  0.4259 -0.2552 -0.4578
  915MOL0     H23459   3.209   5.920   7.021 -0.3463  1.5709 -0.1701
  915MOL0     H23460   3.066   5.733   7.077 -1.1926 -0.4215 -0.8755
  915MOL0     H23461   3.067   5.598   6.957  0.4983  0.4754 -1.1813
  915MOL0     H23462   3.131   5.564   7.252 -0.5463  0.1180  0.7709
  915MOL0     H23463   2.976   5.537   7.177 -0.1183  0.1847 -0.0308
  915MOL0     H23464   3.074   5.314   7.084  1.8913 -0.6394 -1.2052
  915MOL0     H23465   3.236   5.390   7.079 -0.3191  1.0202 -0.0836
  915MOL0     H23466   3.179   5.220   7.237  2.0443  0.3879 -1.5292
  915MOL0     H23467   3.232   5.371   7.322  0.1973  2.3215 -1.3600
  915MOL0     H23468   3.054   5.302   7.455 -0.9497  0.9295  0.5637
  915MOL0     H23469   2.964   5.404   7.355 -0.6972  0.0983  1.5374
  915MOL0     H23470   2.944   5.192   7.201 -0.5832  0.2894 -0.5979
  915MOL0     H23471   2.985   5.099   7.347 -0.7518 -0.1818 -1.3969
  915MOL0     H23472   2.739   5.116   7.312 -0.8587  0.8481 -2.0197
  915MOL0     H23473   2.781   5.209   7.455  1.9667  1.4340  0.3698
  915MOL0     H23474   2.744   5.424   7.321 -1.1395  0.8865 -2.5088
  915MOL0     H23475   2.610   5.316   7.317  0.1239  3.6691  2.0385
  915MOL0     H23476   2.673   5.108   7.099 -1.2946 -0.7575 -2.1003
  915MOL0     H23477   2.554   5.113   6.844 -1.3471  2.9158  1.7638
  915MOL0     H23478   2.592   5.242   6.734  1.6377 -1.2274 -1.6992
  915MOL0     H23479   2.729   5.040   6.659  2.5285 -0.9990 -0.9653
  915MOL0     H23480   2.796   5.042   6.821  1.9204  2.0322  0.1999
  915MOL0     H23481   2.855   5.293   6.753 -1.0103 -0.0872 -0.8656
  915MOL0     H23482   2.843   5.229   6.594  2.0520 -5.1288 -1.2567
  915MOL0     H23483   3.030   5.059   6.632  2.7262  1.7492 -0.1039
  915MOL0     H23484   3.013   5.077   6.802 -1.9064 -0.0006 -0.4271
  915MOL0     H23485   3.333   5.346   6.706 -1.7856 -0.1165  0.8272
  915MOL0     H23486   3.510   5.493   6.636  0.0052  3.4921 -0.4363
  915MOL0     H23487   3.576   5.421   6.475 -0.2554  0.9836 -0.9516
  915MOL0     H23488   3.504   5.571   6.485 -1.1471  0.7520  1.2326
  915MOL0     H23489   3.570   5.800   6.326 -4.4267  1.7613  2.6633
  915MOL0     H23490   3.679   5.935   6.158  0.4511  1.5578 -3.5044
  915MOL0     H23491   3.448   5.983   5.768  0.3130 -6.6013 -0.1011
  915MOL0     H23492   3.588   6.099   5.758 -0.3284  0.5942  2.7924
  915MOL0     H23493   3.743   5.915   5.728 -0.2907  0.5264  0.9462
  915MOL0     H23494   3.603   5.805   5.724 -1.2925  0.5768  0.4525
  915MOL0     H23495   3.541   5.944   5.502  0.5499  3.0884 -1.0674
  915MOL0     H23496   3.681   5.854   5.482 -1.5549  0.2710 -2.3810
  915MOL0     H23497   3.683   6.142   5.550 -0.9589  1.0879 -3.3859
  915MOL0     H23498   3.824   6.020   5.564  0.5377 -0.9571 -1.1237
  915MOL0     H23499   3.826   6.002   5.330  1.8602  2.6127 -1.9643
  915MOL0     H23500   3.794   6.169   5.346 -0.7570  1.8572  3.1257
  915MOL0     H23501   3.649   6.092   5.168  1.3017 -0.1386  0.1040
  915MOL0     H23502   3.572   5.976   5.280 -0.9575  0.5669  1.5815
  915MOL0     H23503   3.567   6.270   5.263 -0.9586  0.1135  1.5945
  915MOL0     H23504   3.511   6.191   5.414 -2.8491 -2.2078  0.3909
  915MOL0     H23505   3.321   6.234   5.259  0.0776  1.2639  1.7139
  915MOL0     H23506   3.350   6.064   5.284 -3.5203  1.1860 -1.5226
  915MOL0     H23507   3.391   5.782   5.858  2.3663  0.5718 -0.5049
  915MOL0     H23508   3.274   5.680   6.032  0.5443  1.5219 -1.0173
  915MOL0     H23509   3.119   5.355   6.265 -0.3751 -1.1513  0.6907
  915MOL0     H23510   3.016   5.223   6.449 -1.2968  1.7351  1.2662
  915MOL0     H23511   3.352   5.577   6.804  1.6610  0.6727  1.8355
  915MOL0     H23512   3.389   5.733   6.596  3.0402 -0.1571  1.2637
  915MOL0     H23513   3.641   6.100   6.373  0.1468  1.7625  2.1257
  915MOL0     H23514   3.642   6.225   6.180  0.4022  1.8392  0.9927
  915MOL0     H23515   3.613   6.410   6.023 -0.9123  4.3037 -1.2959
  915MOL0     H23516   3.574   6.259   5.950 -1.8337 -1.9866  3.3555
  915MOL0     H23517   3.489   6.544   5.875 -0.1887 -0.3973 -0.1085
  915MOL0     H23518   3.405   6.396   5.804 -0.4578  0.4451 -1.8857
  915MOL0     H23519   3.662   6.340   5.749  0.8829 -0.1790 -1.8780
  915MOL0     H23520   3.703   6.490   5.814  1.3219 -1.7853 -1.9935
  915MOL0     H23521   3.705   6.465   5.568  0.8065 -1.2749  0.7136
  915MOL0     H23522   3.609   6.608   5.630 -0.7764 -1.0008 -1.1926
  915MOL0     H23523   3.303   6.431   5.410 -0.1416  0.3629 -0.0730
  915MOL0     H23524   3.212   6.235   6.182  0.1270  0.4016  0.3989
  915MOL0     H23525   3.214   6.066   6.377  1.5957 -0.2264  3.5600
  916MOL0     O23526   4.834   4.691   5.124 -0.1092 -0.3576 -0.6864
  916MOL0     C23527   4.949   4.698   5.174  0.9036 -0.4595  0.2862
  916MOL0     O23528   4.979   4.733   5.301  0.2521 -0.0930 -0.3584
  916MOL0     C23529   4.899   4.818   5.372 -0.4145 -0.0168 -0.4637
  916MOL0     C23530   4.904   4.811   5.514  0.2437 -0.4633 -0.3994
  916MOL0     C23531   4.831   4.890   5.594 -0.1941  0.1446 -0.1985
  916MOL0     C23532   4.745   4.987   5.537  1.2074 -1.2762 -0.4986
  916MOL0     O23533   4.679   5.083   5.611 -0.6039  0.9784 -0.0442
  916MOL0     C23534   4.650   5.041   5.748 -0.4444  0.3499 -0.5019
  916MOL0     C23535   4.519   5.115   5.776  0.3375  0.3670 -0.0171
  916MOL0     C23536   4.396   5.088   5.691  0.5624 -0.6054 -0.5257
  916MOL0     C23537   4.358   4.946   5.645 -0.0964  0.1305 -1.3802
  916MOL0     C23538   4.231   4.926   5.553 -0.5321 -0.7495  0.1071
  916MOL0     C23539   4.243   4.971   5.407 -0.0481  1.1314 -0.1836
  916MOL0     C23540   4.369   4.921   5.331 -0.5864  1.2672  0.2923
  916MOL0     C23541   4.373   4.922   5.171 -0.1204  0.5870 -0.4966
  916MOL0     N23542   4.384   5.060   5.132  0.5740  0.1060 -0.3706
  916MOL0     C23543   4.289   5.150   5.100  0.7421  0.3926  0.0040
  916MOL0     C23544   4.346   5.264   5.077  0.5936 -0.0210  0.4597
  916MOL0     C23545   4.278   5.391   5.029 -0.3940 -0.5221 -0.6341
  916MOL0     C23546   4.210   5.369   4.904 -0.2883 -0.4781 -0.9805
  916MOL0     C23547   4.205   5.469   4.801 -0.0348 -0.7071 -0.3589
  916MOL0     C23548   4.167   5.412   4.659  0.4900  0.2127  0.2250
  916MOL0     O23549   4.032   5.383   4.658  0.7667 -0.6936 -0.7479
  916MOL0     C23550   3.981   5.323   4.539  0.6155  0.3222 -0.2710
  916MOL0     C23551   4.035   5.362   4.414  1.1981 -0.8598 -0.7138
  916MOL0     C23552   3.971   5.330   4.297 -0.1793  0.8518 -0.4780
  916MOL0     C23553   4.030   5.376   4.163  0.0267 -0.2174  0.5232
  916MOL0     C23554   3.856   5.240   4.300  0.9235 -0.4488 -0.0071
  916MOL0     C23555   3.792   5.197   4.170  0.1921 -0.2169  0.3342
  916MOL0     O23556   3.876   5.147   4.072  0.1253  0.3906  0.0250
  916MOL0     C23557   3.818   5.130   3.948  0.2266  0.2765 -0.0030
  916MOL0     C23558   3.856   5.223   3.849  1.6778 -0.3951  0.6367
  916MOL0     C23559   3.803   5.201   3.722  0.0949 -0.0427 -0.0116
  916MOL0     C23560   3.721   5.094   3.684 -0.9851 -0.4210  0.1422
  916MOL0     O23561   3.666   5.093   3.557 -0.2340 -0.2392 -0.7783
  916MOL0     C23562   3.527   5.113   3.556 -0.4878 -0.3233  0.5470
  916MOL0     C23563   3.455   5.105   3.419 -0.8406  0.4488 -0.3420
  916MOL0     C23564   3.507   5.210   3.322  0.3570  0.6230 -0.4399
  916MOL0     C23565   3.428   5.217   3.197  0.2495  0.0066  1.1873
  916MOL0     C23566   3.491   5.306   3.089 -0.0705  0.4712 -0.4164
  916MOL0     C23567   3.384   5.377   2.996  0.6343 -0.6494  0.3846
  916MOL0     C23568   3.301   5.475   3.080  1.4283  0.7245 -0.7142
  916MOL0     C23569   3.253   5.611   3.017  0.6245  0.3339  0.2765
  916MOL0    Cl23570   3.387   5.709   2.925  0.2377 -0.2876  0.0544
  916MOL0     C23571   3.694   5.004   3.789 -0.4211  0.3490  0.3247
  916MOL0     C23572   3.738   5.022   3.917  0.7066  0.5481 -0.2610
  916MOL0     O23573   3.670   5.196   4.154  0.3094 -0.6022 -0.8561
  916MOL0     C23574   3.815   5.188   4.425 -0.1210 -0.0764  0.3798
  916MOL0     C23575   3.872   5.236   4.544 -0.1362  0.0307  0.2764
  916MOL0     N23576   4.484   5.238   5.089 -0.2314 -0.6356 -0.3045
  916MOL0     N23577   4.500   5.127   5.134  0.7043  0.2981  0.7836
  916MOL0     C23578   4.740   4.995   5.400  0.3393 -0.0321 -1.1027
  916MOL0     C23579   4.810   4.904   5.311 -0.2281 -0.3631 -0.8520
  916MOL0     C23580   5.062   4.656   5.083  0.3253 -0.1194 -0.4140
  916MOL0     C23581   5.044   4.651   4.949  0.7624  0.1174 -1.0924
  916MOL0     C23582   5.146   4.618   4.864  0.1404  0.2360 -0.0367
  916MOL0     C23583   5.276   4.582   4.915 -0.1610 -0.0883  0.2506
  916MOL0     O23584   5.382   4.545   4.831  0.2355  0.5020 -0.1252
  916MOL0     C23585   5.387   4.569   4.685 -0.1944  1.0094 -0.5941
  916MOL0     C23586   5.492   4.670   4.653  0.7858 -0.3316 -0.1232
  916MOL0     C23587   5.466   4.749   4.520  0.4766  0.1599 -0.1208
  916MOL0     C23588   5.369   4.867   4.544 -0.3087  0.2570  0.2384
  916MOL0     C23589   5.434   4.973   4.619 -0.0502 -0.6228 -0.1480
  916MOL0     C23590   5.490   5.066   4.677 -0.1016  0.2992 -0.5898
  916MOL0     C23591   5.287   4.573   5.055  0.2788 -0.6496 -0.4210
  916MOL0     C23592   5.187   4.614   5.142  1.1427  0.2109  0.9149
  916MOL0     H23593   4.973   4.737   5.553  1.8379 -0.9018 -3.6944
  916MOL0     H23594   4.844   4.891   5.701  2.6664  0.8701 -0.4833
  916MOL0     H23595   4.631   4.934   5.755  0.8662  0.1604  0.3606
  916MOL0     H23596   4.725   5.080   5.817 -1.7185 -1.5294  2.1128
  916MOL0     H23597   4.483   5.080   5.873 -2.4329 -0.5975 -1.3000
  916MOL0     H23598   4.533   5.223   5.787  0.8471  0.0680  3.8223
  916MOL0     H23599   4.316   5.107   5.763  1.4790 -1.3255  0.7267
  916MOL0     H23600   4.384   5.160   5.610  1.5264 -0.0503 -0.1915
  916MOL0     H23601   4.439   4.911   5.581 -0.5770 -0.6893 -1.5614
  916MOL0     H23602   4.338   4.879   5.729  1.1542 -0.2783 -1.3881
  916MOL0     H23603   4.219   4.817   5.549  0.1186 -0.8489  0.7222
  916MOL0     H23604   4.140   4.952   5.609 -0.3897 -1.6234  0.7822
  916MOL0     H23605   4.148   4.946   5.360 -0.1662 -0.3421  0.7953
  916MOL0     H23606   4.253   5.080   5.404 -1.0876  1.2400 -0.1598
  916MOL0     H23607   4.465   4.961   5.364  0.4962  0.2983 -1.5135
  916MOL0     H23608   4.379   4.814   5.353 -3.3802  0.6348 -1.0988
  916MOL0     H23609   4.284   4.881   5.122  3.4179 -3.4389 -4.5159
  916MOL0     H23610   4.456   4.865   5.128  0.6859  2.2890 -1.2993
  916MOL0     H23611   4.186   5.128   5.074  0.6496  0.5866  0.2086
  916MOL0     H23612   4.203   5.429   5.099 -0.7344  0.6750 -1.6153
  916MOL0     H23613   4.357   5.467   5.035 -2.2619  1.4140  0.9775
  916MOL0     H23614   4.108   5.354   4.939  0.2685 -1.0313  0.4631
  916MOL0     H23615   4.255   5.280   4.857 -1.1043 -2.3784  1.6158
  916MOL0     H23616   4.306   5.508   4.790  1.0237 -2.9792  0.6221
  916MOL0     H23617   4.136   5.550   4.828  2.8175  1.7997 -0.1445
  916MOL0     H23618   4.238   5.332   4.634  3.8390  2.2151  2.4576
  916MOL0     H23619   4.185   5.489   4.583  3.2607 -1.1929 -0.7031
  916MOL0     H23620   4.111   5.439   4.408  1.2281 -0.8314 -0.0091
  916MOL0     H23621   4.085   5.299   4.108  1.4073  2.8602 -2.8215
  916MOL0     H23622   3.960   5.410   4.086  0.7234 -3.1172 -1.5938
  916MOL0     H23623   4.093   5.462   4.184 -1.5454  1.6107 -1.7462
  916MOL0     H23624   3.919   5.310   3.871 -0.6465  0.9692  2.3361
  916MOL0     H23625   3.814   5.272   3.641  1.2730 -0.4667 -0.2416
  916MOL0     H23626   3.477   5.054   3.634 -0.9078  1.6331  1.8313
  916MOL0     H23627   3.517   5.217   3.589  0.4762  0.1866 -0.7010
  916MOL0     H23628   3.466   5.007   3.371  1.0740  0.3023  0.2930
  916MOL0     H23629   3.350   5.132   3.432 -0.4222  2.6777 -1.1233
  916MOL0     H23630   3.614   5.211   3.303  0.3711  1.2571 -0.3435
  916MOL0     H23631   3.482   5.300   3.378 -1.5332 -1.2735  1.9959
  916MOL0     H23632   3.416   5.116   3.158 -0.9840  0.7019 -0.3740
  916MOL0     H23633   3.329   5.260   3.216  0.2708  0.9754 -0.6571
  916MOL0     H23634   3.554   5.244   3.025  1.0361 -0.7020  1.7192
  916MOL0     H23635   3.563   5.375   3.134  1.8528 -0.3084 -2.1579
  916MOL0     H23636   3.435   5.433   2.917 -2.2399 -0.4645 -1.4671
  916MOL0     H23637   3.317   5.302   2.952 -0.1748  0.6843 -0.7284
  916MOL0     H23638   3.371   5.500   3.160  0.5599  1.3035 -0.1072
  916MOL0     H23639   3.208   5.426   3.113  1.5695  0.7596 -0.2501
  916MOL0     H23640   3.220   5.669   3.104 -1.6011 -0.3676 -0.0268
  916MOL0     H23641   3.169   5.592   2.950  0.6301 -2.2693  0.9024
  916MOL0     H23642   3.618   4.926   3.778  2.5122 -2.4947 -1.6111
  916MOL0     H23643   3.707   4.955   3.997  0.6010 -1.0716 -1.6136
  916MOL0     H23644   3.727   5.125   4.424 -1.6783  2.0008 -0.7486
  916MOL0     H23645   3.823   5.209   4.638 -2.0301 -1.2787 -1.0122
  916MOL0     H23646   4.685   5.072   5.348 -2.1050 -1.3309 -0.6237
  916MOL0     H23647   4.788   4.913   5.205 -0.5028  1.9485 -0.6308
  916MOL0     H23648   4.946   4.658   4.903  0.0291  1.2763  0.5709
  916MOL0     H23649   5.124   4.632   4.759  1.9434 -0.8800 -0.6096
  916MOL0     H23650   5.407   4.479   4.625 -2.5985  1.9596 -3.0062
  916MOL0     H23651   5.297   4.614   4.642  0.8017  2.4757 -1.2465
  916MOL0     H23652   5.586   4.616   4.643  0.5733 -1.4240  2.8465
  916MOL0     H23653   5.494   4.727   4.746 -1.3267 -1.7080  0.8532
  916MOL0     H23654   5.445   4.681   4.437 -2.8771 -0.2893  0.9744
  916MOL0     H23655   5.563   4.796   4.498  0.8573 -0.2953  0.5485
  916MOL0     H23656   5.273   4.842   4.590 -0.2611 -0.4213 -0.0137
  916MOL0     H23657   5.346   4.904   4.443  2.3937  1.9567  0.1412
  916MOL0     H23658   5.537   5.154   4.716  0.3477 -0.9658  1.9758
  916MOL0     H23659   5.383   4.537   5.091  0.2676  0.6267  0.9447
  916MOL0     H23660   5.202   4.614   5.249  2.2615  1.2023  0.7710
  917MOL0     O23661   2.179   6.557   9.485 -0.4044 -0.4456  0.0878
  917MOL0     C23662   2.228   6.666   9.508  0.3271 -0.5175  0.2481
  917MOL0     O23663   2.364   6.696   9.522  0.3957  0.2417  0.0280
  917MOL0     C23664   2.450   6.610   9.474 -0.0699  1.4141 -0.4869
  917MOL0     C23665   2.458   6.473   9.500  0.2173 -0.1243 -0.7365
  917MOL0     C23666   2.565   6.394   9.432  1.4428  0.6466  0.6214
  917MOL0     C23667   2.661   6.449   9.357 -0.0485  0.5640 -0.0065
  917MOL0     O23668   2.748   6.380   9.273  0.0577  0.0426  0.5418
  917MOL0     C23669   2.770   6.233   9.289 -0.4007 -0.2818 -0.2099
  917MOL0     C23670   2.893   6.187   9.204  0.2734 -0.0050 -0.0450
  917MOL0     C23671   3.024   6.213   9.287 -0.9188 -0.4496  0.7383
  917MOL0     C23672   3.081   6.356   9.270 -0.5870  0.1867  0.2614
  917MOL0     C23673   3.192   6.372   9.375 -0.1224  0.6286  0.6853
  917MOL0     C23674   3.257   6.514   9.363  1.0964  0.2506  0.3001
  917MOL0     C23675   3.363   6.540   9.466 -0.0427 -0.2686 -0.8934
  917MOL0     C23676   3.414   6.686   9.479  0.1132  0.1687  0.7284
  917MOL0     N23677   3.309   6.789   9.505 -0.5721 -0.5072  0.4426
  917MOL0     C23678   3.205   6.782   9.597 -0.1738  0.2589  0.3598
  917MOL0     C23679   3.133   6.895   9.585  0.5874  0.5563  0.8578
  917MOL0     C23680   3.011   6.927   9.667 -0.2237 -1.0511 -0.3149
  917MOL0     C23681   2.883   6.903   9.591  0.9036 -0.0238  0.2873
  917MOL0     C23682   2.768   6.880   9.689 -0.4441  0.1737 -0.8199
  917MOL0     C23683   2.750   6.730   9.711  0.2794  0.1759  1.4546
  917MOL0     O23684   2.880   6.666   9.752  0.4505  0.3895  0.1893
  917MOL0     C23685   2.888   6.526   9.753  0.6595 -0.8058 -0.8906
  917MOL0     C23686   3.002   6.464   9.797  0.0078 -0.3094 -0.5735
  917MOL0     C23687   3.025   6.323   9.780 -0.1727 -0.0023 -0.3415
  917MOL0     C23688   3.149   6.256   9.829 -0.2802  0.9214  0.0738
  917MOL0     C23689   2.919   6.238   9.736 -0.1143 -0.2341 -0.2201
  917MOL0     C23690   2.927   6.089   9.723 -0.3597  0.0840  0.3958
  917MOL0     O23691   3.025   6.047   9.655 -0.0930  0.0143  0.2127
  917MOL0     C23692   3.083   5.924   9.676 -0.5919  0.7755  1.0563
  917MOL0     C23693   3.068   5.839   9.789  0.0313 -0.1143  1.0211
  917MOL0     C23694   3.137   5.713   9.795 -0.1395  0.5146  0.5710
  917MOL0     C23695   3.241   5.679   9.709 -0.3798 -1.5928  0.5859
  917MOL0     O23696   3.310   5.556   9.725  0.4891 -0.1259  0.2484
  917MOL0     C23697   3.397   5.510   9.623 -0.8999 -0.6168 -0.0221
  917MOL0     C23698   3.423   5.366   9.625 -0.1026  0.0211  0.7351
  917MOL0     C23699   3.503   5.319   9.745  0.1142 -0.8138 -0.5461
  917MOL0     C23700   3.533   5.172   9.717  0.5718  0.0727  0.2484
  917MOL0     C23701   3.594   5.089   9.829 -0.6956 -0.4401 -0.0882
  917MOL0     C23702   3.748   5.094   9.822 -0.2071 -0.3054 -0.0063
  917MOL0     C23703   3.823   5.012   9.923 -0.3562 -0.1023  0.0410
  917MOL0     C23704   3.900   4.892   9.854  0.1790 -0.7403  0.3084
  917MOL0    Cl23705   3.770   4.779   9.795 -0.4423 -0.3136  0.2506
  917MOL0     C23706   3.267   5.770   9.608 -0.1994  0.6985  0.1406
  917MOL0     C23707   3.187   5.883   9.588 -0.0408 -0.9719  0.8769
  917MOL0     O23708   2.833   6.022   9.769 -0.9507 -0.2819 -0.0257
  917MOL0     C23709   2.803   6.306   9.695  0.5271  0.4670  0.6184
  917MOL0     C23710   2.789   6.442   9.710 -0.2678  0.0207  0.6069
  917MOL0     N23711   3.194   6.975   9.494  0.2663  0.3634  1.0830
  917MOL0     N23712   3.310   6.923   9.468  0.7249 -0.2482 -0.1536
  917MOL0     C23713   2.659   6.587   9.347 -0.2571  1.1246 -0.0724
  917MOL0     C23714   2.555   6.664   9.408  0.1975  0.3350  0.3677
  917MOL0     C23715   2.144   6.785   9.509 -0.1690 -1.1864 -0.5671
  917MOL0     C23716   2.200   6.916   9.509 -0.5799 -0.0229  0.4136
  917MOL0     C23717   2.123   7.036   9.539 -0.0860 -0.0767  0.2446
  917MOL0     C23718   1.985   7.019   9.563 -0.6162  0.5153 -0.4914
  917MOL0     O23719   1.901   7.114   9.606  0.5412 -0.3040 -0.0214
  917MOL0     C23720   1.966   7.228   9.664 -0.3364 -0.2956  0.4557
  917MOL0     C23721   1.868   7.329   9.715 -0.3566  0.0537  1.1635
  917MOL0     C23722   1.941   7.452   9.770 -0.0746  0.6094 -0.6115
  917MOL0     C23723   1.841   7.564   9.784  0.1666  0.3312 -0.3835
  917MOL0     C23724   1.734   7.526   9.877  0.3194  0.0101  0.1869
  917MOL0     C23725   1.639   7.502   9.954  0.6393  1.4659 -0.2369
  917MOL0     C23726   1.928   6.881   9.547 -0.7520  0.2456 -0.4475
  917MOL0     C23727   2.008   6.763   9.525  0.5281  0.1614  0.1550
  917MOL0     H23728   2.383   6.421   9.559  2.1577  0.3739  2.3813
  917MOL0     H23729   2.556   6.287   9.446  1.9349  0.4441 -0.4398
  917MOL0     H23730   2.789   6.210   9.394  0.6522  2.1322  0.1895
  917MOL0     H23731   2.682   6.171   9.273 -1.8196  1.4047  0.7155
  917MOL0     H23732   2.887   6.080   9.180  0.2755  0.0148 -0.1328
  917MOL0     H23733   2.883   6.251   9.116  0.5901  1.0335  0.6617
  917MOL0     H23734   3.010   6.180   9.390 -1.7601  0.1667  0.8332
  917MOL0     H23735   3.104   6.152   9.245  0.3291  2.4600 -1.5160
  917MOL0     H23736   3.121   6.359   9.169 -3.1249 -1.7184 -0.9252
  917MOL0     H23737   3.013   6.442   9.268 -0.5666  0.2887 -3.6821
  917MOL0     H23738   3.139   6.362   9.471  0.1583  4.7535  1.4508
  917MOL0     H23739   3.274   6.300   9.371  0.7008  1.5813 -0.2063
  917MOL0     H23740   3.295   6.521   9.261 -2.4544 -0.7525 -1.2367
  917MOL0     H23741   3.176   6.587   9.375  0.0582 -0.8284  0.0198
  917MOL0     H23742   3.322   6.505   9.561 -1.5486  1.0837 -1.0124
  917MOL0     H23743   3.439   6.467   9.436 -2.9210 -3.2949 -1.4168
  917MOL0     H23744   3.456   6.715   9.383 -0.4538 -1.3605 -0.0062
  917MOL0     H23745   3.476   6.692   9.570 -2.7242 -1.0581  2.9175
  917MOL0     H23746   3.199   6.702   9.671 -1.7551 -0.1650 -0.1846
  917MOL0     H23747   3.010   6.857   9.751 -1.7290  0.2172  0.7718
  917MOL0     H23748   3.011   7.025   9.715  0.8326 -2.3666  2.6021
  917MOL0     H23749   2.896   6.820   9.521  2.5470 -0.4143  1.0197
  917MOL0     H23750   2.874   6.998   9.538  1.5213  1.3086  2.4374
  917MOL0     H23751   2.691   6.921   9.623  0.0263 -0.2312 -1.6489
  917MOL0     H23752   2.770   6.941   9.779  3.2135  0.8700 -1.2112
  917MOL0     H23753   2.699   6.683   9.626 -1.8734 -0.2383  2.8945
  917MOL0     H23754   2.681   6.712   9.794  0.0759 -0.7839  1.0972
  917MOL0     H23755   3.081   6.528   9.835 -1.3757  1.3335 -0.3574
  917MOL0     H23756   3.217   6.234   9.746  0.1348  1.8170  0.1638
  917MOL0     H23757   3.198   6.320   9.903 -0.1970  0.2204  0.6470
  917MOL0     H23758   3.123   6.167   9.888 -2.0982  2.2584  1.3706
  917MOL0     H23759   3.005   5.857   9.876 -1.0477 -0.3685  0.3121
  917MOL0     H23760   3.120   5.654   9.885 -2.1319 -0.1171 -0.1641
  917MOL0     H23761   3.354   5.533   9.525 -1.8846 -0.2115  0.4932
  917MOL0     H23762   3.490   5.569   9.622 -0.6164 -1.0332 -1.7875
  917MOL0     H23763   3.321   5.328   9.616  0.4032 -1.1165 -0.6743
  917MOL0     H23764   3.466   5.329   9.531 -1.2643 -0.2258  0.2882
  917MOL0     H23765   3.449   5.322   9.840  1.3166  0.2393  0.1366
  917MOL0     H23766   3.595   5.377   9.757  0.4059 -1.2274 -0.7629
  917MOL0     H23767   3.444   5.116   9.687  0.6769 -0.4400  0.8795
  917MOL0     H23768   3.602   5.160   9.633 -0.1887 -3.1813 -0.0375
  917MOL0     H23769   3.577   4.982   9.812 -2.7588 -0.1399 -0.2221
  917MOL0     H23770   3.557   5.112   9.929 -0.2970  0.7026 -0.1922
  917MOL0     H23771   3.784   5.069   9.722  1.0582  2.7016 -0.4031
  917MOL0     H23772   3.763   5.201   9.838 -2.4524 -0.0434  0.7670
  917MOL0     H23773   3.752   4.980   9.999  1.4270  0.2707  1.9680
  917MOL0     H23774   3.902   5.075   9.965 -1.1985  2.8446 -2.4437
  917MOL0     H23775   3.968   4.838   9.920  1.1359  1.6398  1.4084
  917MOL0     H23776   3.971   4.922   9.776  1.3927 -1.1245  1.2349
  917MOL0     H23777   3.354   5.755   9.545  0.4636  0.5361  1.0752
  917MOL0     H23778   3.211   5.945   9.503 -4.0267  1.4289  1.2610
  917MOL0     H23779   2.719   6.243   9.668 -0.5979  0.5441  3.5459
  917MOL0     H23780   2.692   6.479   9.679  0.5534  1.5347 -0.3380
  917MOL0     H23781   2.743   6.621   9.287  0.4270 -0.2632  0.0683
  917MOL0     H23782   2.544   6.772   9.411 -0.8633  0.3001 -1.1008
  917MOL0     H23783   2.305   6.922   9.485 -0.8029 -0.8064 -0.8643
  917MOL0     H23784   2.180   7.128   9.540  0.7853 -0.6071  0.8801
  917MOL0     H23785   2.027   7.182   9.742 -2.9178 -1.1500  2.0865
  917MOL0     H23786   2.034   7.279   9.595 -0.9083 -0.7539 -0.4711
  917MOL0     H23787   1.789   7.283   9.775 -2.5961 -0.5315 -2.0024
  917MOL0     H23788   1.801   7.363   9.636  1.3428 -0.1028 -0.4148
  917MOL0     H23789   2.016   7.496   9.703 -0.7835  4.6952  0.9780
  917MOL0     H23790   1.978   7.432   9.871 -0.6822  0.4638 -0.4121
  917MOL0     H23791   1.791   7.575   9.687 -0.8920  3.0512  0.3884
  917MOL0     H23792   1.896   7.655   9.809  3.8777 -0.9865 -2.8064
  917MOL0     H23793   1.556   7.470  10.014  0.6090  1.3914 -0.3177
  917MOL0     H23794   1.824   6.862   9.568 -0.3519 -1.0889  0.4599
  917MOL0     H23795   1.968   6.663   9.536 -0.4156  0.2688 -1.8529
  918MOL0     O23796   7.892   3.897   1.110  0.1482  0.4478  0.2406
  918MOL0     C23797   8.000   3.860   1.064  0.1701  0.2320 -0.8025
  918MOL0     O23798   8.121   3.916   1.094 -0.2038  0.0493 -0.1153
  918MOL0     C23799   8.137   4.007   1.196  0.8868  0.8514 -0.4726
  918MOL0     C23800   8.052   4.015   1.315  1.1865 -0.7318  0.3074
  918MOL0     C23801   8.077   4.104   1.430 -0.1268  0.0925 -1.0507
  918MOL0     C23802   8.190   4.190   1.424  0.8433  0.0253  0.4919
  918MOL0     O23803   8.216   4.279   1.522 -0.3363 -0.3217 -0.3445
  918MOL0     C23804   8.207   4.250   1.657 -0.0608  0.4175  0.4133
  918MOL0     C23805   8.232   4.377   1.749 -0.6672 -0.5210  0.5579
  918MOL0     C23806   8.377   4.427   1.740  0.9268  0.2651  0.3102
  918MOL0     C23807   8.400   4.523   1.619 -0.6364  0.5322 -1.4968
  918MOL0     C23808   8.521   4.623   1.647  0.7991  0.3010  0.3146
  918MOL0     C23809   8.461   4.747   1.715  0.3920  0.2438 -0.6338
  918MOL0     C23810   8.559   4.874   1.712 -1.4409 -0.0281 -0.5268
  918MOL0     C23811   8.530   4.990   1.808  0.6209 -0.5113  0.0170
  918MOL0     N23812   8.569   4.956   1.946 -0.9708  0.1904 -0.7908
  918MOL0     C23813   8.495   4.894   2.039 -0.5769  0.5179  0.1430
  918MOL0     C23814   8.587   4.870   2.143  0.3083 -0.2534 -0.3881
  918MOL0     C23815   8.567   4.807   2.272  0.1020  0.8172  0.6333
  918MOL0     C23816   8.584   4.916   2.380 -0.2389 -0.3176  0.0343
  918MOL0     C23817   8.454   4.975   2.424 -0.4857  0.0400 -0.1045
  918MOL0     C23818   8.439   5.038   2.564 -0.7887  0.3278  0.3288
  918MOL0     O23819   8.429   4.960   2.682  0.1288  0.7817 -0.3980
  918MOL0     C23820   8.303   4.913   2.711  1.0099  0.3305  0.4432
  918MOL0     C23821   8.187   4.931   2.627 -1.2293 -0.3267  0.4627
  918MOL0     C23822   8.062   4.889   2.669 -0.0984  0.5332 -0.1810
  918MOL0     C23823   7.959   4.934   2.567 -0.3930  0.3966 -0.4316
  918MOL0     C23824   8.036   4.834   2.796  0.4777 -0.2897  0.4463
  918MOL0     C23825   7.901   4.797   2.848 -0.9536  0.1703  0.0347
  918MOL0     O23826   7.809   4.772   2.754  0.0882 -0.2996  0.2361
  918MOL0     C23827   7.672   4.743   2.783  0.2490  0.2820 -0.4514
  918MOL0     C23828   7.604   4.660   2.686  0.0156  0.1942  0.0554
  918MOL0     C23829   7.471   4.627   2.715  0.3305 -0.3554  0.0825
  918MOL0     C23830   7.413   4.666   2.835  0.9016  0.2336  0.8146
  918MOL0     O23831   7.286   4.619   2.842  0.5836 -0.5283  0.3184
  918MOL0     C23832   7.188   4.715   2.845  0.2308  0.5750 -0.0936
  918MOL0     C23833   7.180   4.795   2.724 -0.1925  0.3067 -0.0979
  918MOL0     C23834   7.102   4.920   2.758 -0.5630 -0.0500 -0.1011
  918MOL0     C23835   7.103   5.003   2.630 -0.1623 -0.2516 -0.8440
  918MOL0     C23836   7.094   5.152   2.651 -0.9469 -0.0434 -0.2974
  918MOL0     C23837   7.093   5.219   2.514 -0.3867 -0.0363 -0.0360
  918MOL0     C23838   7.103   5.373   2.544 -0.2477  1.2398 -0.1226
  918MOL0     C23839   7.049   5.456   2.423 -0.5168  0.4569 -0.4894
  918MOL0    Cl23840   7.091   5.634   2.437  0.0084  0.1286 -0.0228
  918MOL0     C23841   7.475   4.740   2.929  0.0169 -0.3291  0.2622
  918MOL0     C23842   7.609   4.772   2.905  1.1132 -0.1294 -0.1651
  918MOL0     O23843   7.894   4.787   2.969  0.0499  0.1646  0.8110
  918MOL0     C23844   8.151   4.816   2.879  0.1825 -0.4498  0.2738
  918MOL0     C23845   8.282   4.856   2.837  0.6332  0.1556 -0.7902
  918MOL0     N23846   8.713   4.918   2.094  0.1172  0.4560 -0.7281
  918MOL0     N23847   8.704   4.968   1.983 -0.5945 -0.1299  1.2604
  918MOL0     C23848   8.271   4.195   1.311 -0.0793  0.0052 -0.2324
  918MOL0     C23849   8.246   4.100   1.202  0.9117  0.8821  0.5362
  918MOL0     C23850   8.002   3.738   0.977 -0.3317  0.4344 -0.6556
  918MOL0     C23851   8.112   3.647   0.969 -0.8597  0.2800 -1.2568
  918MOL0     C23852   8.105   3.535   0.888 -1.4809  0.5027  0.1590
  918MOL0     C23853   8.005   3.507   0.798  0.6595 -0.8278  0.2698
  918MOL0     O23854   8.008   3.407   0.702  0.9227 -0.9606 -0.4133
  918MOL0     C23855   8.124   3.384   0.628 -0.8572 -0.7003  0.7355
  918MOL0     C23856   8.101   3.444   0.495  0.5443  0.0191  0.6693
  918MOL0     C23857   8.003   3.372   0.399 -0.4481  0.2655 -1.0886
  918MOL0     C23858   7.984   3.449   0.272  0.7378 -0.6198 -0.1870
  918MOL0     C23859   7.924   3.363   0.168 -0.5069 -0.5907 -0.6873
  918MOL0     C23860   7.895   3.294   0.075 -0.0223  0.1305 -0.2627
  918MOL0     C23861   7.900   3.596   0.799 -0.5511  0.2779  0.2883
  918MOL0     C23862   7.887   3.698   0.894 -0.6569 -0.4221  0.2147
  918MOL0     H23863   7.966   3.949   1.326  1.1378 -1.2210 -2.4641
  918MOL0     H23864   8.017   4.089   1.519  2.5364  0.8820  1.0427
  918MOL0     H23865   8.111   4.201   1.677 -1.1381  2.3610  0.3060
  918MOL0     H23866   8.282   4.173   1.674 -1.0681 -0.2421  2.1424
  918MOL0     H23867   8.156   4.444   1.708 -0.4423 -0.5951  0.0106
  918MOL0     H23868   8.219   4.353   1.855 -0.7632 -3.3994 -0.0140
  918MOL0     H23869   8.389   4.481   1.835  0.3592  0.1814  0.4341
  918MOL0     H23870   8.450   4.345   1.741  3.2587  2.2262  0.4955
  918MOL0     H23871   8.434   4.480   1.524 -0.8753  0.6834 -1.6508
  918MOL0     H23872   8.309   4.576   1.591  0.0528  0.7140 -3.5803
  918MOL0     H23873   8.614   4.579   1.684  2.0393  1.0251 -1.7695
  918MOL0     H23874   8.545   4.655   1.546 -3.4474 -0.9936 -1.3335
  918MOL0     H23875   8.370   4.777   1.662  0.4065  0.8382 -0.3308
  918MOL0     H23876   8.439   4.719   1.819  0.1932 -1.3106 -1.0843
  918MOL0     H23877   8.660   4.834   1.727 -1.9804 -1.1110  0.3614
  918MOL0     H23878   8.551   4.907   1.608 -2.0503  1.4267 -0.0382
  918MOL0     H23879   8.423   5.005   1.793  0.3961 -2.5872 -0.7629
  918MOL0     H23880   8.580   5.081   1.771 -2.8213  0.3740 -3.0558
  918MOL0     H23881   8.394   4.855   2.042 -0.7199  0.9244  1.9250
  918MOL0     H23882   8.474   4.751   2.285 -0.3136  1.1885 -0.5708
  918MOL0     H23883   8.640   4.726   2.284 -0.3878  0.1773 -0.5073
  918MOL0     H23884   8.655   4.993   2.348 -2.8193  2.1359 -0.1377
  918MOL0     H23885   8.624   4.861   2.466 -0.2453 -1.0405 -0.4207
  918MOL0     H23886   8.384   4.893   2.406 -0.8390  0.2947  0.1155
  918MOL0     H23887   8.425   5.054   2.354 -2.7182 -3.4977 -3.6189
  918MOL0     H23888   8.358   5.111   2.558 -1.1751 -0.0698 -5.7171
  918MOL0     H23889   8.522   5.109   2.571 -1.5061  1.1734  0.3979
  918MOL0     H23890   8.193   4.978   2.529  2.8071 -2.9513 -0.7960
  918MOL0     H23891   7.996   5.009   2.497 -1.4570 -0.5100 -2.0351
  918MOL0     H23892   7.934   4.841   2.513 -1.3867  0.7317 -0.5624
  918MOL0     H23893   7.872   4.981   2.613  0.0871  3.2737 -2.2252
  918MOL0     H23894   7.651   4.622   2.595 -0.8867 -1.3568  0.2034
  918MOL0     H23895   7.406   4.564   2.655  1.4815 -0.5121 -1.0338
  918MOL0     H23896   7.095   4.673   2.884  2.0178 -0.4821  3.4403
  918MOL0     H23897   7.214   4.788   2.923  3.1708  0.2023 -0.6152
  918MOL0     H23898   7.276   4.832   2.688 -1.2901  3.3063 -0.2457
  918MOL0     H23899   7.131   4.749   2.638 -3.4430  2.3806  0.4799
  918MOL0     H23900   7.145   4.980   2.839 -2.5890 -2.6168  3.1322
  918MOL0     H23901   7.001   4.884   2.781 -1.4084  0.9066 -2.0696
  918MOL0     H23902   7.188   4.970   2.569  0.3472  1.8596 -1.3424
  918MOL0     H23903   7.017   4.964   2.576 -1.1181 -1.4608  1.4034
  918MOL0     H23904   7.184   5.188   2.702 -1.1929 -0.4724  0.4637
  918MOL0     H23905   7.001   5.172   2.704  0.2513  3.7002  0.7184
  918MOL0     H23906   7.167   5.190   2.439  0.6136 -1.8265  1.5581
  918MOL0     H23907   6.995   5.202   2.468 -1.1283  4.2408 -0.4514
  918MOL0     H23908   7.206   5.407   2.554  1.2448 -2.1730 -2.1849
  918MOL0     H23909   7.059   5.402   2.640  1.0897  0.4159  0.7644
  918MOL0     H23910   6.940   5.451   2.423 -0.6852  2.8360 -0.9393
  918MOL0     H23911   7.097   5.414   2.334  0.2831  0.7357 -0.2075
  918MOL0     H23912   7.439   4.788   3.020 -4.8228  1.0959 -2.0826
  918MOL0     H23913   7.662   4.831   2.979  1.5037  0.0217 -0.5628
  918MOL0     H23914   8.141   4.798   2.985 -2.1232  0.6673  0.3169
  918MOL0     H23915   8.362   4.858   2.910  0.2003 -0.9595 -0.2708
  918MOL0     H23916   8.347   4.271   1.300  1.1553 -1.1528  0.0314
  918MOL0     H23917   8.317   4.098   1.120  0.9526  3.5174  0.4111
  918MOL0     H23918   8.204   3.653   1.026  0.3285 -0.0571 -3.0223
  918MOL0     H23919   8.195   3.474   0.890  0.4428  3.0986 -0.9862
  918MOL0     H23920   8.214   3.403   0.687 -1.3955 -2.0192  2.0536
  918MOL0     H23921   8.122   3.276   0.615  1.8960 -1.1081  2.7326
  918MOL0     H23922   8.195   3.447   0.439  0.2243  0.6808  0.1476
  918MOL0     H23923   8.074   3.549   0.514  2.4049  0.4014  1.4654
  918MOL0     H23924   7.901   3.368   0.438  0.1000 -0.8956  0.3307
  918MOL0     H23925   8.040   3.270   0.384 -2.8534 -0.3556 -3.5413
  918MOL0     H23926   8.074   3.493   0.228 -0.4754  0.0920 -2.0904
  918MOL0     H23927   7.916   3.533   0.290 -0.2341 -1.5064  0.3642
  918MOL0     H23928   7.879   3.220  -0.001 -3.5346  0.1115  0.3118
  918MOL0     H23929   7.814   3.585   0.733 -0.5326 -0.6727  0.4014
  918MOL0     H23930   7.798   3.758   0.877  0.6338  0.6739 -3.3899
  919MOL0     O23931   3.410   9.372   2.944  0.5305 -0.3108 -0.7592
  919MOL0     C23932   3.353   9.319   2.847 -0.2232  0.0836 -0.8810
  919MOL0     O23933   3.226   9.263   2.851 -0.0627  0.2769  0.0555
  919MOL0     C23934   3.142   9.291   2.950  0.1711  0.1192 -0.3510
  919MOL0     C23935   3.035   9.201   2.975  0.0732  0.5508  0.0527
  919MOL0     C23936   2.951   9.223   3.082  0.8640 -0.0797 -0.0715
  919MOL0     C23937   2.958   9.341   3.166 -0.4609  0.6457  0.8834
  919MOL0     O23938   2.889   9.352   3.280 -0.3649 -0.3463 -0.3493
  919MOL0     C23939   2.966   9.324   3.399 -0.7150 -0.3810 -0.3432
  919MOL0     C23940   2.947   9.179   3.438 -0.5924  0.7636  0.5462
  919MOL0     C23941   2.817   9.152   3.505  0.1767  0.7174 -0.2791
  919MOL0     C23942   2.813   9.008   3.560 -0.2151 -0.1006 -0.4519
  919MOL0     C23943   2.688   8.967   3.639 -1.1874  0.2165 -0.3674
  919MOL0     C23944   2.700   8.810   3.674  0.7751  0.6959 -0.4972
  919MOL0     C23945   2.582   8.758   3.761 -0.7110 -0.3120  0.3492
  919MOL0     C23946   2.620   8.605   3.798  0.0281  0.1658 -0.2199
  919MOL0     N23947   2.566   8.564   3.934  0.2108 -0.1859 -0.0597
  919MOL0     C23948   2.621   8.588   4.061 -0.3463 -0.1812  0.0406
  919MOL0     C23949   2.528   8.558   4.155  0.5636 -0.1902 -0.1157
  919MOL0     C23950   2.537   8.576   4.307 -0.6388  0.0520 -0.3646
  919MOL0     C23951   2.525   8.731   4.355  0.5043 -0.0904 -0.0300
  919MOL0     C23952   2.393   8.799   4.301  0.5996 -0.1746  0.9409
  919MOL0     C23953   2.350   8.919   4.393  0.4741 -0.2408  0.6021
  919MOL0     O23954   2.466   8.996   4.421 -0.2333  0.5591  0.2313
  919MOL0     C23955   2.449   9.122   4.458  0.4963 -0.7959  0.0658
  919MOL0     C23956   2.554   9.213   4.423 -0.0108  0.9474 -0.2206
  919MOL0     C23957   2.548   9.342   4.465 -0.3164  0.9120 -0.5697
  919MOL0     C23958   2.673   9.428   4.452  0.9436 -0.0012  0.2705
  919MOL0     C23959   2.431   9.397   4.520 -0.4995 -0.6338 -1.6523
  919MOL0     C23960   2.398   9.540   4.529 -0.1657  0.4816  0.7284
  919MOL0     O23961   2.484   9.614   4.457  0.6281 -0.9554  0.0290
  919MOL0     C23962   2.474   9.750   4.472  0.7107 -0.1888 -0.4861
  919MOL0     C23963   2.505   9.810   4.592  0.6087  0.2734  0.7389
  919MOL0     C23964   2.508   9.953   4.595 -0.1243 -0.3271 -0.7521
  919MOL0     C23965   2.486  10.026   4.482  0.1894 -0.0647  0.0286
  919MOL0     O23966   2.487  10.162   4.478  0.0322 -0.0024 -0.6005
  919MOL0     C23967   2.388  10.220   4.557 -0.3208  0.1299 -0.2874
  919MOL0     C23968   2.394  10.374   4.544  0.4653  0.8417 -0.2752
  919MOL0     C23969   2.530  10.433   4.594  0.1115 -0.1112  0.6937
  919MOL0     C23970   2.504  10.586   4.600  0.3438  0.7660  0.0674
  919MOL0     C23971   2.642  10.644   4.623  0.3850 -0.6393  0.3843
  919MOL0     C23972   2.628  10.792   4.656  0.6702  0.4583 -0.0864
  919MOL0     C23973   2.554  10.816   4.792 -0.4202 -0.0616  0.0217
  919MOL0     C23974   2.521  10.964   4.823 -0.3063  0.2474 -0.5411
  919MOL0    Cl23975   2.394  11.026   4.712 -0.2156  0.2449 -0.1729
  919MOL0     C23976   2.472   9.962   4.359 -0.3801  1.1152  0.8827
  919MOL0     C23977   2.459   9.818   4.355  0.4036 -0.1880  0.8686
  919MOL0     O23978   2.304   9.582   4.599  1.0252 -0.1842  0.6853
  919MOL0     C23979   2.338   9.306   4.564 -0.8776  0.6301 -1.1715
  919MOL0     C23980   2.340   9.172   4.527 -0.1375 -0.2740  0.4351
  919MOL0     N23981   2.423   8.512   4.084  0.4124  0.1104  0.0484
  919MOL0     N23982   2.440   8.507   3.958  0.0287  0.6336 -0.1562
  919MOL0     C23983   3.055   9.444   3.130 -0.6930 -0.4381  0.2947
  919MOL0     C23984   3.140   9.415   3.021 -0.8252  1.6502  0.8412
  919MOL0     C23985   3.435   9.311   2.725 -0.3020 -0.5818 -0.6822
  919MOL0     C23986   3.556   9.376   2.714  1.0050 -0.1019  0.0669
  919MOL0     C23987   3.640   9.355   2.602  0.0352  0.5352  0.3711
  919MOL0     C23988   3.599   9.260   2.502  0.2805 -0.1854  0.5057
  919MOL0     O23989   3.687   9.236   2.392 -0.4274  0.2904 -0.0226
  919MOL0     C23990   3.819   9.186   2.408  0.4885 -0.2185 -0.3143
  919MOL0     C23991   3.837   9.037   2.374 -0.2218 -0.4293 -0.2150
  919MOL0     C23992   3.779   8.948   2.493  0.7503 -0.8240 -0.0583
  919MOL0     C23993   3.808   8.795   2.480 -0.1955 -0.1423 -0.2708
  919MOL0     C23994   3.752   8.724   2.366 -0.5169 -1.0723 -0.1263
  919MOL0     C23995   3.699   8.678   2.269 -0.1600 -0.7560  1.2149
  919MOL0     C23996   3.482   9.189   2.515 -0.6737  0.0520  0.0109
  919MOL0     C23997   3.396   9.221   2.619  0.8456 -0.4490 -0.7155
  919MOL0     H23998   3.011   9.108   2.925  0.6776  0.9390 -0.9770
  919MOL0     H23999   2.863   9.172   3.119 -1.2457  2.6540 -0.9775
  919MOL0     H24000   3.068   9.362   3.385 -0.7594 -0.2306 -0.2583
  919MOL0     H24001   2.922   9.392   3.472  1.5228  1.4558 -0.5703
  919MOL0     H24002   2.960   9.114   3.352  0.5797  1.0137  0.5277
  919MOL0     H24003   3.026   9.158   3.511 -1.9672 -1.7390  1.4376
  919MOL0     H24004   2.801   9.224   3.586 -0.5185 -1.2522  1.4117
  919MOL0     H24005   2.734   9.163   3.434 -1.3487  1.1123  1.4771
  919MOL0     H24006   2.825   8.937   3.478 -2.4311 -0.7049 -0.3200
  919MOL0     H24007   2.903   8.995   3.622 -0.4056 -1.3940 -0.4231
  919MOL0     H24008   2.673   9.034   3.724  3.5069  0.1745  0.7668
  919MOL0     H24009   2.598   8.974   3.576  0.3402  1.3125 -2.5263
  919MOL0     H24010   2.696   8.747   3.584 -1.9942 -0.0194  0.0584
  919MOL0     H24011   2.790   8.787   3.731 -0.9195 -1.9952  1.2830
  919MOL0     H24012   2.566   8.817   3.851 -2.8690 -1.6393  0.9218
  919MOL0     H24013   2.487   8.762   3.707  0.1802 -0.0277 -1.2569
  919MOL0     H24014   2.728   8.589   3.795 -0.0239 -0.3858  0.4954
  919MOL0     H24015   2.579   8.548   3.714 -0.3245 -0.3497  0.2873
  919MOL0     H24016   2.708   8.649   4.082  0.6295 -0.1730 -3.4653
  919MOL0     H24017   2.467   8.504   4.352  0.6474 -1.4455 -0.6573
  919MOL0     H24018   2.635   8.537   4.338 -0.4671 -0.6945 -1.7793
  919MOL0     H24019   2.601   8.797   4.313 -1.7155  1.2521 -2.2296
  919MOL0     H24020   2.533   8.741   4.464  0.6737  1.0030 -0.1338
  919MOL0     H24021   2.320   8.718   4.312  0.8385 -0.1792  2.7247
  919MOL0     H24022   2.394   8.832   4.196 -3.6670  4.6277  1.9868
  919MOL0     H24023   2.310   8.871   4.483 -0.0601 -0.8004  0.0773
  919MOL0     H24024   2.273   8.973   4.337 -0.0334 -2.6913 -1.2304
  919MOL0     H24025   2.636   9.174   4.364 -0.0896 -2.7732  1.8166
  919MOL0     H24026   2.677   9.494   4.364  0.1554 -0.3033  0.0032
  919MOL0     H24027   2.684   9.484   4.545  0.3929 -3.1040  2.3421
  919MOL0     H24028   2.760   9.361   4.453  0.2700 -0.9601 -1.5366
  919MOL0     H24029   2.509   9.755   4.685  1.0133  0.4255  0.8141
  919MOL0     H24030   2.526  10.007   4.687  0.2229 -1.2367 -0.2691
  919MOL0     H24031   2.293  10.175   4.526 -0.6637 -0.6153  1.7089
  919MOL0     H24032   2.402  10.197   4.663 -1.5362 -1.2754 -0.3950
  919MOL0     H24033   2.390  10.397   4.438  0.7600  0.7380 -0.3095
  919MOL0     H24034   2.305  10.423   4.584  0.0679 -1.1224  1.4143
  919MOL0     H24035   2.616  10.414   4.529 -2.2209 -1.4739 -2.2498
  919MOL0     H24036   2.549  10.397   4.695  0.6922 -2.1734 -0.0909
  919MOL0     H24037   2.457  10.629   4.511 -0.3869 -0.2854 -0.0705
  919MOL0     H24038   2.440  10.596   4.688 -0.6238  1.2772 -0.6690
  919MOL0     H24039   2.707  10.638   4.536  2.1449  1.3989  1.4484
  919MOL0     H24040   2.678  10.588   4.709  0.7194 -1.1088 -0.0631
  919MOL0     H24041   2.725  10.838   4.672  0.6948  0.5163 -0.3984
  919MOL0     H24042   2.564  10.838   4.581  1.0490 -1.5779 -1.7484
  919MOL0     H24043   2.620  10.767   4.864 -1.8691 -0.5464  1.0735
  919MOL0     H24044   2.461  10.759   4.803  0.1854 -1.3071 -0.9814
  919MOL0     H24045   2.609  11.029   4.815  0.5005 -0.4193  1.9785
  919MOL0     H24046   2.499  10.962   4.930  0.5566 -0.9270 -0.3696
  919MOL0     H24047   2.476  10.020   4.267  1.2947 -0.6051 -0.1794
  919MOL0     H24048   2.440   9.766   4.262  0.7898 -1.9084  1.7033
  919MOL0     H24049   2.246   9.338   4.613  0.4305  0.8377  1.3269
  919MOL0     H24050   2.251   9.111   4.543 -1.4270  1.2260 -0.7214
  919MOL0     H24051   3.078   9.533   3.187  2.2007 -1.7585  1.4339
  919MOL0     H24052   3.207   9.497   2.996 -1.4337  1.8523 -0.1895
  919MOL0     H24053   3.604   9.429   2.795  0.3320 -1.1188  1.1740
  919MOL0     H24054   3.735   9.408   2.602  0.3564 -0.0314  0.8413
  919MOL0     H24055   3.876   9.261   2.352 -0.9271  1.1820  0.0763
  919MOL0     H24056   3.846   9.191   2.514 -2.5833 -4.3103  0.9194
  919MOL0     H24057   3.944   9.025   2.353  0.2863  1.1198  1.3028
  919MOL0     H24058   3.787   9.029   2.277  1.6599 -0.5299 -1.2283
  919MOL0     H24059   3.672   8.965   2.507  0.4957 -0.1713 -2.4612
  919MOL0     H24060   3.835   8.989   2.578  3.0008  1.4187 -2.4600
  919MOL0     H24061   3.767   8.750   2.571 -0.9437 -0.2648 -0.6614
  919MOL0     H24062   3.916   8.786   2.468 -0.1274 -0.5616  0.5791
  919MOL0     H24063   3.656   8.652   2.174 -3.0484 -0.5527  2.3623
  919MOL0     H24064   3.445   9.115   2.444 -1.4414  1.1449 -0.7574
  919MOL0     H24065   3.310   9.157   2.636 -0.3458  1.5449  1.2854
  920MOL0     O24066   7.899   0.822   7.329  0.5804  0.4246 -0.4479
  920MOL0     C24067   7.996   0.751   7.322 -0.3146 -0.7767  1.1544
  920MOL0     O24068   8.072   0.714   7.424  0.1147  0.3460  0.3730
  920MOL0     C24069   8.054   0.744   7.553  0.4218 -0.2974  0.0306
  920MOL0     C24070   8.096   0.659   7.650 -0.3724  1.2075 -1.4376
  920MOL0     C24071   8.100   0.705   7.785 -0.0264  0.5708  0.1180
  920MOL0     C24072   8.067   0.835   7.822 -0.5142 -0.2022  0.4367
  920MOL0     O24073   8.065   0.877   7.953 -0.3725  0.0871 -0.3227
  920MOL0     C24074   7.991   0.808   8.060  0.1609 -0.0499  0.4435
  920MOL0     C24075   7.843   0.835   8.076  0.2782  0.3728 -0.1465
  920MOL0     C24076   7.815   0.983   8.054 -1.0779 -0.8743  0.0204
  920MOL0     C24077   7.678   1.031   8.100 -0.6307  0.6079  0.0655
  920MOL0     C24078   7.663   1.041   8.249  0.5810  0.4576  0.8574
  920MOL0     C24079   7.765   1.123   8.331 -0.4943  0.1927  0.0948
  920MOL0     C24080   7.777   1.270   8.277 -0.7587 -0.0190 -0.5621
  920MOL0     C24081   7.873   1.343   8.369 -0.1543  0.5469 -0.2647
  920MOL0     N24082   8.012   1.309   8.368 -0.9714 -0.8861  0.2127
  920MOL0     C24083   8.098   1.361   8.280 -0.0734 -0.9542 -0.9857
  920MOL0     C24084   8.206   1.279   8.277  0.2165  0.8320  0.2572
  920MOL0     C24085   8.317   1.296   8.172 -0.0765  0.4914  0.0165
  920MOL0     C24086   8.277   1.199   8.056  0.2469 -0.3180  0.2709
  920MOL0     C24087   8.381   1.195   7.941 -0.6517 -0.5024 -0.0770
  920MOL0     C24088   8.343   1.097   7.827 -0.1043  0.4518  0.8539
  920MOL0     O24089   8.428   1.125   7.704 -0.5336 -0.6289  0.0359
  920MOL0     C24090   8.428   1.032   7.598 -0.2068 -0.5050 -0.4518
  920MOL0     C24091   8.465   1.084   7.475  0.0349 -0.8270  1.6943
  920MOL0     C24092   8.480   1.002   7.366  0.5667 -0.3393  0.0042
  920MOL0     C24093   8.497   1.070   7.233 -0.4810 -0.2447  0.5629
  920MOL0     C24094   8.462   0.857   7.385 -1.0348  0.7025 -0.5855
  920MOL0     C24095   8.484   0.747   7.285  0.1150 -0.5434  0.8169
  920MOL0     O24096   8.495   0.621   7.328  0.6730  0.7338 -0.6679
  920MOL0     C24097   8.545   0.520   7.252  0.2356 -1.2805  0.0590
  920MOL0     C24098   8.652   0.541   7.174 -1.1325  0.2659  0.5174
  920MOL0     C24099   8.717   0.442   7.096  0.0089 -0.2336 -0.3130
  920MOL0     C24100   8.668   0.311   7.089 -0.7820 -0.7930 -0.0426
  920MOL0     O24101   8.722   0.196   7.027  0.2979  0.1965  0.2192
  920MOL0     C24102   8.838   0.223   6.957  0.1501  0.2137 -0.2431
  920MOL0     C24103   8.894   0.106   6.873  0.7343 -0.6351 -0.7688
  920MOL0     C24104   8.790   0.029   6.790 -0.1434 -0.3586 -0.2994
  920MOL0     C24105   8.725   0.110   6.675 -0.7507  1.0013 -0.9206
  920MOL0     C24106   8.695   0.027   6.554  0.8245 -0.7089  0.4932
  920MOL0     C24107   8.660   0.119   6.439  0.3893  0.1020  0.5768
  920MOL0     C24108   8.604   0.038   6.320  0.2552  0.1513  0.9433
  920MOL0     C24109   8.681  -0.096   6.282  0.1960 -0.4463 -0.3084
  920MOL0    Cl24110   8.857  -0.069   6.232 -0.2453 -0.0654 -0.2728
  920MOL0     C24111   8.546   0.292   7.170 -0.0301  0.3481  0.3973
  920MOL0     C24112   8.482   0.393   7.252  0.7391 -0.3089 -0.1639
  920MOL0     O24113   8.489   0.778   7.165 -0.3550 -0.5202  0.0311
  920MOL0     C24114   8.429   0.803   7.513  0.7358  0.3215  1.0065
  920MOL0     C24115   8.413   0.892   7.616 -0.8205 -0.3547 -0.5604
  920MOL0     N24116   8.164   1.158   8.346  1.0805 -0.6033  0.0360
  920MOL0     N24117   8.044   1.180   8.386  0.8937  0.6835 -0.8767
  920MOL0     C24118   8.041   0.922   7.718  0.9531 -0.1790 -0.5963
  920MOL0     C24119   8.029   0.875   7.587  0.0216 -0.4745  0.5916
  920MOL0     C24120   8.051   0.712   7.186 -0.4757 -0.5203 -0.5948
  920MOL0     C24121   8.176   0.658   7.174  0.1116  0.2385 -0.5770
  920MOL0     C24122   8.230   0.626   7.045  0.2486 -0.3689 -0.2853
  920MOL0     C24123   8.153   0.644   6.924  0.3049  0.3148 -0.4688
  920MOL0     O24124   8.191   0.605   6.797  0.1917  0.2241  0.2543
  920MOL0     C24125   8.336   0.592   6.766 -0.0592 -0.0659 -0.7992
  920MOL0     C24126   8.332   0.545   6.621  0.2642 -0.0973  1.3065
  920MOL0     C24127   8.288   0.664   6.523  1.1391  1.4934 -0.2534
  920MOL0     C24128   8.188   0.618   6.413 -0.6289  0.7362  1.1145
  920MOL0     C24129   8.244   0.515   6.319  0.6435 -0.5127  0.5750
  920MOL0     C24130   8.273   0.423   6.248 -1.1472  0.8682  0.2606
  920MOL0     C24131   8.022   0.702   6.935 -0.6557 -0.6875  0.5905
  920MOL0     C24132   7.978   0.738   7.068 -0.2731 -0.1972  0.1017
  920MOL0     H24133   8.118   0.555   7.625  1.0570  1.0268  0.3675
  920MOL0     H24134   8.124   0.630   7.859 -1.7390  0.2924  0.4440
  920MOL0     H24135   8.011   0.701   8.048 -1.3552 -0.5833  2.2918
  920MOL0     H24136   8.028   0.828   8.161 -0.1265 -1.4012  0.8445
  920MOL0     H24137   7.796   0.772   8.001  1.1737 -0.4099 -0.0633
  920MOL0     H24138   7.796   0.799   8.168  0.3642 -2.3387 -1.0752
  920MOL0     H24139   7.893   1.045   8.100 -1.3826 -0.9382  0.6237
  920MOL0     H24140   7.821   1.018   7.950  3.0352  2.8601  1.1794
  920MOL0     H24141   7.660   1.135   8.071 -5.6026  0.8979  3.0964
  920MOL0     H24142   7.604   0.964   8.056  0.6340 -0.9203  0.1757
  920MOL0     H24143   7.562   1.081   8.263  1.1320  2.2836 -0.0632
  920MOL0     H24144   7.658   0.936   8.279  0.3981 -0.4481 -2.0025
  920MOL0     H24145   7.733   1.122   8.436 -2.0699 -1.6111 -0.3523
  920MOL0     H24146   7.843   1.047   8.338 -2.9387 -2.6325 -1.0157
  920MOL0     H24147   7.807   1.257   8.172 -1.3000 -2.0719 -0.5186
  920MOL0     H24148   7.684   1.327   8.268 -0.8323 -0.1939 -0.9447
  920MOL0     H24149   7.838   1.337   8.472 -1.2809  2.0245 -0.5189
  920MOL0     H24150   7.851   1.449   8.351 -1.3882  1.6577  5.6352
  920MOL0     H24151   8.090   1.446   8.213 -1.3242 -3.4941 -4.3247
  920MOL0     H24152   8.332   1.397   8.134  1.2727 -0.6908 -2.9915
  920MOL0     H24153   8.412   1.262   8.213 -0.4833 -0.8424 -0.0838
  920MOL0     H24154   8.182   1.233   8.015  0.7359 -0.3634 -0.9203
  920MOL0     H24155   8.266   1.095   8.089 -0.3123 -0.9613 -1.8316
  920MOL0     H24156   8.485   1.168   7.962 -0.1778 -0.3568 -2.0549
  920MOL0     H24157   8.389   1.298   7.907 -2.5898  0.3584  1.8199
  920MOL0     H24158   8.236   1.098   7.806 -0.1854 -0.9513  1.1129
  920MOL0     H24159   8.368   0.995   7.860  1.8413  0.7177  0.3022
  920MOL0     H24160   8.482   1.189   7.458 -1.0482 -1.0444 -1.5116
  920MOL0     H24161   8.433   1.036   7.151 -1.8582 -1.3898  2.0499
  920MOL0     H24162   8.474   1.174   7.257  0.9681 -0.1670  1.7242
  920MOL0     H24163   8.604   1.059   7.213 -1.2405 -5.1878 -2.3102
  920MOL0     H24164   8.698   0.639   7.176 -1.0381  0.2487 -0.3529
  920MOL0     H24165   8.813   0.466   7.050  0.0952 -0.4991 -0.2740
  920MOL0     H24166   8.822   0.306   6.888  1.0632  0.4492 -0.1777
  920MOL0     H24167   8.921   0.258   7.019 -0.9395  2.2303  0.1695
  920MOL0     H24168   8.966   0.132   6.795  1.3981  0.6963  0.2570
  920MOL0     H24169   8.946   0.036   6.939  4.0987  1.5891 -0.8174
  920MOL0     H24170   8.711  -0.005   6.857  1.6717  0.2289  2.2700
  920MOL0     H24171   8.840  -0.054   6.738 -0.0258  0.2045 -1.0926
  920MOL0     H24172   8.630   0.153   6.708 -3.0503 -0.7418 -4.6962
  920MOL0     H24173   8.781   0.203   6.663 -0.5485  1.4830  2.5361
  920MOL0     H24174   8.603  -0.030   6.566 -4.2493  5.7720 -1.9152
  920MOL0     H24175   8.780  -0.037   6.530  0.8452 -1.4661  2.3755
  920MOL0     H24176   8.578   0.184   6.472  0.1384  0.1766 -0.1664
  920MOL0     H24177   8.739   0.187   6.403  0.7858  0.0225  1.2874
  920MOL0     H24178   8.603   0.097   6.228 -1.5053 -0.5229  0.4880
  920MOL0     H24179   8.499   0.014   6.339 -0.4758  2.4133  0.0313
  920MOL0     H24180   8.620  -0.149   6.208  0.4919  0.6849 -1.4064
  920MOL0     H24181   8.695  -0.158   6.370  0.5346  1.9599  1.4266
  920MOL0     H24182   8.506   0.192   7.172 -2.2463  0.9964 -2.8603
  920MOL0     H24183   8.399   0.369   7.317  1.4440 -0.9984  0.5001
  920MOL0     H24184   8.435   0.696   7.528  0.1873  0.5339  3.0324
  920MOL0     H24185   8.395   0.853   7.716 -2.8819  1.4269 -0.1605
  920MOL0     H24186   8.029   1.026   7.746 -1.1528 -0.9400  1.6838
  920MOL0     H24187   8.032   0.947   7.506  0.5669  0.7028  1.6216
  920MOL0     H24188   8.238   0.625   7.258  0.5055 -0.3456 -1.0853
  920MOL0     H24189   8.333   0.592   7.049  0.8917  1.3753 -0.9268
  920MOL0     H24190   8.398   0.681   6.784 -0.7594  0.0102  1.6022
  920MOL0     H24191   8.383   0.517   6.830 -3.5591 -0.9185  0.9925
  920MOL0     H24192   8.270   0.455   6.621  1.0270 -0.6216  1.2421
  920MOL0     H24193   8.436   0.530   6.591 -0.3514  0.5092 -1.4658
  920MOL0     H24194   8.386   0.695   6.486 -0.2904  2.9317 -3.1661
  920MOL0     H24195   8.234   0.745   6.574 -2.5068  0.1890 -1.6983
  920MOL0     H24196   8.166   0.703   6.349 -0.5256 -0.4551 -0.5776
  920MOL0     H24197   8.094   0.578   6.452 -0.6637 -1.3692 -0.9059
  920MOL0     H24198   8.303   0.342   6.185  2.5101  3.8769 -2.3187
  920MOL0     H24199   7.963   0.726   6.848  4.4334  2.5375 -2.4804
  920MOL0     H24200   7.876   0.773   7.083  0.0512  0.1330  1.7780
  921MOL0     O24201   0.522   3.362   3.291 -0.2125  0.2114 -1.0637
  921MOL0     C24202   0.569   3.302   3.398 -0.1532  0.4113  0.3022
  921MOL0     O24203   0.521   3.315   3.526  0.5093  0.4159 -0.4620
  921MOL0     C24204   0.452   3.421   3.567 -0.0424  0.1588  0.1644
  921MOL0     C24205   0.507   3.496   3.679 -0.1543 -0.3670  0.1369
  921MOL0     C24206   0.426   3.605   3.720  0.2945  0.1717 -0.1364
  921MOL0     C24207   0.304   3.648   3.667  1.4627  0.2635  0.8578
  921MOL0     O24208   0.222   3.733   3.746 -0.2879  1.0434  0.6703
  921MOL0     C24209   0.097   3.770   3.699  0.7705  0.4299 -0.4151
  921MOL0     C24210   0.006   3.688   3.785  0.5291 -0.2783  0.1762
  921MOL0     C24211  -0.138   3.712   3.724  0.7093 -0.0787 -0.1505
  921MOL0     C24212  -0.205   3.847   3.768 -0.4084 -0.4814  0.0077
  921MOL0     C24213  -0.345   3.868   3.708 -0.4049 -0.3927  0.4637
  921MOL0     C24214  -0.330   3.886   3.554  0.2461 -0.1859 -0.7251
  921MOL0     C24215  -0.465   3.923   3.491 -0.8713 -0.4852 -0.7980
  921MOL0     C24216  -0.562   3.803   3.498 -1.0163 -0.5906 -0.8241
  921MOL0     N24217  -0.697   3.859   3.517 -0.1164  0.2449 -0.6646
  921MOL0     C24218  -0.775   3.905   3.415  0.5385 -0.5250 -0.1298
  921MOL0     C24219  -0.900   3.921   3.481 -0.1476  0.3443 -0.2105
  921MOL0     C24220  -1.021   3.960   3.404  0.0695 -0.0430 -0.3423
  921MOL0     C24221  -1.145   4.017   3.486  0.8680 -0.3849  0.7422
  921MOL0     C24222  -1.285   4.011   3.418  0.0068  1.2726 -0.2160
  921MOL0     C24223  -1.397   3.990   3.514 -0.7048  0.0961  0.1557
  921MOL0     O24224  -1.517   4.038   3.462 -0.3181  0.2689 -0.2083
  921MOL0     C24225  -1.619   4.042   3.553  0.3413 -0.0076 -0.5282
  921MOL0     C24226  -1.734   4.084   3.497 -0.1418 -0.1686  0.8014
  921MOL0     C24227  -1.848   4.097   3.580  0.6056  0.3241  0.4923
  921MOL0     C24228  -1.967   4.157   3.510  0.1397 -0.3684 -0.2103
  921MOL0     C24229  -1.842   4.072   3.716 -0.3259  0.5924  0.5683
  921MOL0     C24230  -1.956   4.079   3.812  0.2750 -0.1848  0.1569
  921MOL0     O24231  -1.935   4.097   3.943 -0.4411  0.0652  0.2320
  921MOL0     C24232  -2.041   4.098   4.027  0.5289  1.0551  0.2756
  921MOL0     C24233  -2.078   3.965   4.060 -0.7833 -0.0640  0.3512
  921MOL0     C24234  -2.181   3.943   4.145 -0.5172  0.0522  0.5189
  921MOL0     C24235  -2.246   4.052   4.206 -0.1861 -0.1128  1.5371
  921MOL0     O24236  -2.353   4.020   4.289 -0.2459 -0.1165 -0.2152
  921MOL0     C24237  -2.400   4.109   4.396  0.7586 -0.1103 -0.2677
  921MOL0     C24238  -2.298   4.117   4.519 -0.1878 -0.1838 -0.1837
  921MOL0     C24239  -2.379   4.178   4.642 -1.3684 -0.1266  0.4795
  921MOL0     C24240  -2.454   4.070   4.718 -0.5079 -1.0983  0.3712
  921MOL0     C24241  -2.541   4.129   4.837 -0.0647 -0.0001  0.6030
  921MOL0     C24242  -2.598   4.026   4.944 -0.1940  0.1549 -0.6553
  921MOL0     C24243  -2.663   4.105   5.061  0.1205  0.6991  0.7482
  921MOL0     C24244  -2.730   4.017   5.166 -0.2062  0.8690 -0.2458
  921MOL0    Cl24245  -2.807   4.126   5.274 -0.3737 -0.2320  0.2635
  921MOL0     C24246  -2.203   4.185   4.171 -0.7451 -0.4944 -1.2735
  921MOL0     C24247  -2.091   4.207   4.088  0.5851  1.2616 -0.0226
  921MOL0     O24248  -2.063   4.070   3.765  0.5921 -0.9088  0.2376
  921MOL0     C24249  -1.721   4.027   3.771  0.2927  0.9848  0.1977
  921MOL0     C24250  -1.609   4.008   3.692 -0.0760 -0.9020  1.0764
  921MOL0     N24251  -0.886   3.889   3.617 -0.1516  0.7147  0.1169
  921MOL0     N24252  -0.764   3.841   3.629  0.8000  0.8617 -0.3047
  921MOL0     C24253   0.258   3.573   3.554 -0.3802  0.4148 -0.0306
  921MOL0     C24254   0.332   3.460   3.510  0.4799  0.3944 -0.5660
  921MOL0     C24255   0.690   3.210   3.378  0.7512 -0.4116  0.2939
  921MOL0     C24256   0.760   3.153   3.487 -1.0191 -0.2549  1.0659
  921MOL0     C24257   0.857   3.058   3.464 -0.3170  0.2782 -0.7699
  921MOL0     C24258   0.910   3.031   3.340  0.7776 -0.1057  0.5846
  921MOL0     O24259   1.011   2.944   3.305 -0.7103 -0.9725  0.0794
  921MOL0     C24260   1.070   2.869   3.411 -0.5347  0.3830  0.0806
  921MOL0     C24261   1.210   2.806   3.382 -0.7582 -0.6420 -0.5192
  921MOL0     C24262   1.280   2.727   3.501 -0.0214  0.4794  0.8797
  921MOL0     C24263   1.420   2.679   3.469 -0.0083 -0.0039 -0.9512
  921MOL0     C24264   1.442   2.626   3.328  0.4990 -0.0665 -0.1563
  921MOL0     C24265   1.448   2.581   3.214  0.7016  0.2498  0.1301
  921MOL0     C24266   0.851   3.104   3.230  0.3716  0.3324  0.2375
  921MOL0     C24267   0.741   3.187   3.248  0.3818  0.6363 -0.3499
  921MOL0     H24268   0.594   3.446   3.720 -0.8765 -3.9433 -2.1359
  921MOL0     H24269   0.454   3.644   3.818 -0.3000 -0.6550  0.3746
  921MOL0     H24270   0.072   3.876   3.708  0.3876  0.2490  0.7304
  921MOL0     H24271   0.094   3.741   3.593  0.0705 -3.0570  0.4377
  921MOL0     H24272   0.034   3.583   3.784  4.5873  0.6562 -0.3886
  921MOL0     H24273   0.015   3.716   3.891 -3.4864  1.0692  0.3471
  921MOL0     H24274  -0.139   3.699   3.616  1.0210 -3.3390  0.1432
  921MOL0     H24275  -0.191   3.628   3.770  0.7538 -0.2991 -0.5005
  921MOL0     H24276  -0.203   3.852   3.877  4.3015  0.9894  0.0973
  921MOL0     H24277  -0.137   3.929   3.745  0.2315 -0.4001  2.0567
  921MOL0     H24278  -0.402   3.776   3.721  2.0232 -2.1307 -0.3688
  921MOL0     H24279  -0.389   3.956   3.757 -0.3741 -0.5215  0.7228
  921MOL0     H24280  -0.256   3.964   3.533  0.5934 -0.4203 -0.4009
  921MOL0     H24281  -0.294   3.794   3.508  3.4582  1.0265 -0.8970
  921MOL0     H24282  -0.513   4.006   3.544 -0.4413  1.9205 -3.8788
  921MOL0     H24283  -0.468   3.962   3.389 -4.2686 -0.2617 -0.7164
  921MOL0     H24284  -0.537   3.732   3.577 -4.2977 -0.9126  0.0608
  921MOL0     H24285  -0.572   3.753   3.401  1.5634  1.7732 -2.4640
  921MOL0     H24286  -0.735   3.914   3.315  1.8812  0.2441  0.4488
  921MOL0     H24287  -0.980   4.035   3.335 -0.7090  1.2143  0.5161
  921MOL0     H24288  -1.058   3.873   3.349 -1.5717 -0.8249  1.8688
  921MOL0     H24289  -1.112   4.107   3.539  1.2629 -1.6705  2.7709
  921MOL0     H24290  -1.151   3.951   3.573 -1.5388 -0.0061  0.9472
  921MOL0     H24291  -1.277   3.939   3.336 -1.0095  1.0961 -0.1647
  921MOL0     H24292  -1.297   4.108   3.369 -1.6888  0.2014 -2.0418
  921MOL0     H24293  -1.356   4.039   3.603  4.4683 -0.3713 -1.6266
  921MOL0     H24294  -1.417   3.884   3.530  0.4497 -0.1462  0.0739
  921MOL0     H24295  -1.726   4.112   3.392  4.0852  2.2688  1.5487
  921MOL0     H24296  -2.009   4.242   3.566 -2.1060 -1.1706 -0.5457
  921MOL0     H24297  -1.954   4.181   3.404  0.9954 -1.6228 -0.4095
  921MOL0     H24298  -2.045   4.080   3.513 -0.0283 -0.2196 -0.6765
  921MOL0     H24299  -2.024   3.890   4.004  1.4508  2.7154 -1.5214
  921MOL0     H24300  -2.232   3.847   4.154  0.1277 -0.4185 -0.5395
  921MOL0     H24301  -2.411   4.211   4.360  2.3767 -0.6121 -2.3568
  921MOL0     H24302  -2.494   4.070   4.437  0.8728 -0.0770  0.0308
  921MOL0     H24303  -2.262   4.016   4.542  0.7260  0.0531 -0.5488
  921MOL0     H24304  -2.214   4.182   4.494 -1.5028  1.3935 -0.7198
  921MOL0     H24305  -2.449   4.249   4.597 -0.4791 -0.3160 -1.2909
  921MOL0     H24306  -2.305   4.230   4.703 -0.1813  0.5728 -1.4592
  921MOL0     H24307  -2.520   4.012   4.653  2.9045 -1.7867 -2.8576
  921MOL0     H24308  -2.381   4.001   4.761 -2.2286 -0.9663  3.8247
  921MOL0     H24309  -2.631   4.179   4.797 -0.7296 -0.7946  1.0713
  921MOL0     H24310  -2.471   4.188   4.895  0.9633 -1.4193  0.8520
  921MOL0     H24311  -2.672   3.968   4.888 -0.0668  1.2141 -1.9880
  921MOL0     H24312  -2.518   3.962   4.979 -1.0903 -1.5751 -1.6389
  921MOL0     H24313  -2.739   4.162   5.008 -0.5140 -0.3533  0.4974
  921MOL0     H24314  -2.598   4.183   5.103  2.9479 -1.8232  1.4385
  921MOL0     H24315  -2.657   3.952   5.214 -1.7655  0.3248  1.5128
  921MOL0     H24316  -2.800   3.949   5.116 -0.0918  2.6502 -2.9946
  921MOL0     H24317  -2.253   4.267   4.221  0.5088  0.4255 -1.4873
  921MOL0     H24318  -2.051   4.306   4.072  2.1199  0.4435 -1.6604
  921MOL0     H24319  -1.706   3.994   3.873  1.5119 -4.5923 -1.4441
  921MOL0     H24320  -1.520   3.960   3.733  1.3761  1.3324  0.6934
  921MOL0     H24321   0.170   3.598   3.495 -0.3058 -1.9569 -1.2314
  921MOL0     H24322   0.288   3.414   3.422 -1.8934  3.3129 -1.0661
  921MOL0     H24323   0.735   3.176   3.590 -2.3561  0.1098  0.6955
  921MOL0     H24324   0.901   3.013   3.553 -4.1408  1.9188  2.2102
  921MOL0     H24325   1.085   2.940   3.493 -1.6418  0.6745  0.0425
  921MOL0     H24326   1.012   2.789   3.457  1.2754 -0.3217  1.2233
  921MOL0     H24327   1.276   2.888   3.354  0.1716  0.0591  3.1655
  921MOL0     H24328   1.199   2.747   3.290  2.7806 -1.6550 -0.4214
  921MOL0     H24329   1.207   2.648   3.519  0.0018 -0.3300 -2.0832
  921MOL0     H24330   1.278   2.794   3.587 -2.1965  1.3907  0.1888
  921MOL0     H24331   1.450   2.595   3.533  0.3203  0.2517 -0.7720
  921MOL0     H24332   1.496   2.753   3.495  0.0548 -0.2641 -0.3859
  921MOL0     H24333   1.443   2.548   3.112 -0.5717 -0.0810  0.2897
  921MOL0     H24334   0.892   3.078   3.133  0.2381 -0.6453  0.4265
  921MOL0     H24335   0.691   3.231   3.162  2.7444  2.3686 -0.9488
  922MOL0     O24336   8.890   8.491  11.197  0.2340 -0.0184 -0.3265
  922MOL0     C24337   8.961   8.582  11.239 -0.3619  0.5823  0.2401
  922MOL0     O24338   8.923   8.704  11.286  0.1762  0.2385  0.6001
  922MOL0     C24339   8.797   8.758  11.257 -1.3969  0.1083  0.5352
  922MOL0     C24340   8.721   8.753  11.138 -0.1570  0.5345 -0.0230
  922MOL0     C24341   8.593   8.804  11.120 -0.5489  0.4489 -0.3519
  922MOL0     C24342   8.546   8.890  11.222  0.1205  0.4653  0.1486
  922MOL0     O24343   8.427   8.957  11.217 -0.3478  0.5768 -0.5843
  922MOL0     C24344   8.350   8.972  11.093  0.1184 -1.0754  0.3483
  922MOL0     C24345   8.237   9.069  11.108  0.3962  0.1748  0.2786
  922MOL0     C24346   8.117   9.020  11.191 -0.6486 -0.1035  0.0620
  922MOL0     C24347   8.154   8.998  11.341  0.0147  0.9658  0.1777
  922MOL0     C24348   8.202   9.124  11.422 -0.5051  0.9601  0.1462
  922MOL0     C24349   8.191   9.085  11.571 -0.5233 -0.7137  0.7261
  922MOL0     C24350   8.240   9.212  11.652  0.6443  0.3608  0.7788
  922MOL0     C24351   8.235   9.192  11.805  0.5373  0.3450 -0.4755
  922MOL0     N24352   8.276   9.310  11.877  0.4353 -0.0044 -0.1550
  922MOL0     C24353   8.359   9.320  11.972 -0.3230  0.1412 -0.8971
  922MOL0     C24354   8.347   9.440  12.026  0.7279  0.1677 -0.6355
  922MOL0     C24355   8.438   9.489  12.136 -0.2881 -0.1614 -0.3370
  922MOL0     C24356   8.368   9.605  12.190 -0.5209 -0.0262 -0.3835
  922MOL0     C24357   8.463   9.678  12.290 -0.2599  0.2952 -0.7732
  922MOL0     C24358   8.432   9.664  12.438 -0.7622 -0.3950  0.8934
  922MOL0     O24359   8.488   9.538  12.486 -0.3379 -0.1095 -0.0965
  922MOL0     C24360   8.576   9.544  12.592  0.6214 -0.1853 -0.2395
  922MOL0     C24361   8.657   9.433  12.611  0.1958 -0.4734 -0.0739
  922MOL0     C24362   8.744   9.421  12.714 -0.3212 -1.0852 -0.4273
  922MOL0     C24363   8.844   9.317  12.708  0.1258 -0.0347 -0.9316
  922MOL0     C24364   8.742   9.519  12.811 -0.3182  0.1476 -0.0180
  922MOL0     C24365   8.844   9.516  12.933  0.5990  0.6884  0.3765
  922MOL0     O24366   8.893   9.636  12.964 -0.2745  0.6453 -0.2162
  922MOL0     C24367   8.968   9.662  13.074 -0.6511 -0.4444 -0.2204
  922MOL0     C24368   9.078   9.759  13.071  0.0588  0.1019  0.0957
  922MOL0     C24369   9.150   9.787  13.179 -0.1313 -0.0369  0.0534
  922MOL0     C24370   9.121   9.723  13.299  0.2799 -0.2897  0.9815
  922MOL0     O24371   9.179   9.755  13.422  0.1237 -0.5866  0.7783
  922MOL0     C24372   9.206   9.894  13.457  0.8491 -0.5686  0.4645
  922MOL0     C24373   9.278   9.886  13.580  0.7099  0.1769 -0.5531
  922MOL0     C24374   9.406   9.797  13.586  0.4428 -0.3071 -0.5718
  922MOL0     C24375   9.508   9.857  13.679  0.0248 -0.1719 -0.2055
  922MOL0     C24376   9.453   9.859  13.818  0.5472 -0.1154 -0.2424
  922MOL0     C24377   9.545   9.939  13.920  0.2562  0.2718 -0.5274
  922MOL0     C24378   9.694   9.898  13.927  0.7458  0.7019 -0.4314
  922MOL0     C24379   9.778   9.978  14.037 -0.5756  0.6481  0.0930
  922MOL0    Cl24380   9.744  10.164  14.043  0.2692 -0.1209 -0.4068
  922MOL0     C24381   9.019   9.624  13.306 -0.1784 -1.0216 -0.0101
  922MOL0     C24382   8.945   9.592  13.196 -0.5602 -0.0043 -0.7875
  922MOL0     O24383   8.888   9.411  12.981  0.4323  0.2239 -0.2858
  922MOL0     C24384   8.659   9.635  12.800  0.6279  0.1799 -0.6412
  922MOL0     C24385   8.584   9.649  12.687  0.7828 -0.2217  0.0084
  922MOL0     N24386   8.241   9.503  11.963  0.3418 -0.0519  0.8761
  922MOL0     N24387   8.196   9.427  11.875 -0.6347  0.1694  0.8165
  922MOL0     C24388   8.609   8.889  11.355  0.5316 -0.0029 -0.0493
  922MOL0     C24389   8.741   8.831  11.363 -0.5178  0.0322 -0.1157
  922MOL0     C24390   9.105   8.558  11.239 -0.5187 -0.2391  0.1434
  922MOL0     C24391   9.195   8.656  11.295  0.3403 -0.1173  0.0335
  922MOL0     C24392   9.334   8.643  11.286  0.0538 -0.1506 -0.3831
  922MOL0     C24393   9.389   8.527  11.224 -1.2525  0.7761 -0.3306
  922MOL0     O24394   9.524   8.534  11.189  0.1563  0.0746 -0.2159
  922MOL0     C24395   9.545   8.535  11.054 -0.5670  0.3560  0.2269
  922MOL0     C24396   9.493   8.673  10.993  0.8699  0.2184 -0.6517
  922MOL0     C24397   9.360   8.649  10.921 -0.1253 -0.4829 -1.0830
  922MOL0     C24398   9.325   8.762  10.827 -0.1355 -0.7631 -0.8585
  922MOL0     C24399   9.399   8.740  10.699 -0.6204 -0.1598  0.0966
  922MOL0     C24400   9.473   8.709  10.606 -0.1620 -0.4303  0.0576
  922MOL0     C24401   9.304   8.425  11.176  0.1637 -0.0940 -0.2513
  922MOL0     C24402   9.167   8.444  11.187  0.1806  0.7322 -0.9415
  922MOL0     H24403   8.767   8.692  11.061 -0.8491 -0.8158  0.5975
  922MOL0     H24404   8.548   8.791  11.022 -0.0767 -1.1613 -0.3843
  922MOL0     H24405   8.416   9.010  11.015  1.9054 -0.7294  1.9520
  922MOL0     H24406   8.319   8.871  11.062  5.3866 -2.4221 -1.5168
  922MOL0     H24407   8.281   9.159  11.153  1.0348 -1.2076  2.5854
  922MOL0     H24408   8.197   9.091  11.008 -4.4284 -1.5637  1.5924
  922MOL0     H24409   8.032   9.089  11.184 -1.1213 -0.8407 -2.4062
  922MOL0     H24410   8.078   8.926  11.150 -4.8231  0.8278  1.4525
  922MOL0     H24411   8.055   8.966  11.375 -0.9932 -0.1314 -3.2941
  922MOL0     H24412   8.223   8.916  11.360 -0.6264 -0.0752 -1.6482
  922MOL0     H24413   8.303   9.152  11.392  0.4114 -2.2620 -0.1747
  922MOL0     H24414   8.125   9.201  11.408 -1.8770 -0.3223  0.3430
  922MOL0     H24415   8.085   9.069  11.595 -0.9378  0.4307 -0.2155
  922MOL0     H24416   8.251   8.996  11.587 -2.2525 -1.8855  1.0301
  922MOL0     H24417   8.341   9.233  11.614  0.0536 -0.3650 -1.3523
  922MOL0     H24418   8.190   9.307  11.627  1.5693  0.5240 -0.5805
  922MOL0     H24419   8.291   9.102  11.834  0.2696  0.2014 -0.3926
  922MOL0     H24420   8.136   9.160  11.838  3.5672 -4.5886  6.2116
  922MOL0     H24421   8.435   9.247  11.999 -0.4909  0.1680 -0.3342
  922MOL0     H24422   8.468   9.418  12.214  2.9505  0.6190 -0.7239
  922MOL0     H24423   8.532   9.519  12.088 -1.2925  0.8806 -1.7241
  922MOL0     H24424   8.275   9.582  12.243 -0.5951  2.9274  0.9512
  922MOL0     H24425   8.351   9.677  12.110 -2.8983 -2.2756 -2.0583
  922MOL0     H24426   8.463   9.786  12.272  3.1950  0.2741 -1.7393
  922MOL0     H24427   8.570   9.655  12.284 -0.1676  0.0539  1.2884
  922MOL0     H24428   8.324   9.661  12.450 -0.7642  2.6440  2.5158
  922MOL0     H24429   8.473   9.748  12.494 -0.8346  0.7149 -0.6558
  922MOL0     H24430   8.658   9.352  12.540  3.6382 -2.8580  2.3402
  922MOL0     H24431   8.826   9.238  12.782 -1.5999 -0.3168 -1.6091
  922MOL0     H24432   8.836   9.263  12.614 -1.1960  5.6973 -4.6248
  922MOL0     H24433   8.941   9.367  12.722 -0.3566  0.1203  3.0778
  922MOL0     H24434   9.090   9.822  12.983 -3.1257 -2.5843 -2.5102
  922MOL0     H24435   9.239   9.849  13.176  1.4556 -2.1469  1.2475
  922MOL0     H24436   9.272   9.937  13.381  1.3415 -0.9741  0.6568
  922MOL0     H24437   9.120   9.959  13.470  1.0282 -0.0428 -0.7669
  922MOL0     H24438   9.288   9.989  13.615 -0.7167 -0.2550  1.2378
  922MOL0     H24439   9.214   9.835  13.653  2.0018  4.3519  4.0350
  922MOL0     H24440   9.446   9.807  13.485  1.0229  3.1216 -0.1504
  922MOL0     H24441   9.382   9.694  13.614 -0.4204 -0.8420 -3.0808
  922MOL0     H24442   9.606   9.809  13.676 -0.9830 -2.3741 -0.3663
  922MOL0     H24443   9.508   9.962  13.649  0.3755 -0.3926 -0.9993
  922MOL0     H24444   9.452   9.757  13.859  4.6959  0.8336  2.8395
  922MOL0     H24445   9.349   9.892  13.826  1.0845  1.7677 -0.4155
  922MOL0     H24446   9.538  10.048  13.922 -2.1070  0.1709 -0.5652
  922MOL0     H24447   9.496   9.912  14.014  2.7253  1.4677  1.2217
  922MOL0     H24448   9.751   9.923  13.837  1.0825 -0.7809 -0.6533
  922MOL0     H24449   9.696   9.789  13.938 -0.1019  0.5559 -1.5405
  922MOL0     H24450   9.884   9.953  14.032 -0.7661 -0.0987 -0.2777
  922MOL0     H24451   9.745   9.933  14.131 -0.9878 -1.0646 -0.8272
  922MOL0     H24452   9.005   9.591  13.408 -0.6950  2.3789  1.1613
  922MOL0     H24453   8.856   9.532  13.215  1.6463 -3.3257 -0.1638
  922MOL0     H24454   8.650   9.716  12.872 -1.5055  0.3721 -1.0627
  922MOL0     H24455   8.527   9.742  12.689  2.3334  0.8345 -1.6774
  922MOL0     H24456   8.562   8.939  11.438 -4.5520 -1.1186 -1.9128
  922MOL0     H24457   8.799   8.839  11.455 -2.6293 -0.6048  1.3634
  922MOL0     H24458   9.166   8.745  11.349 -0.1972 -0.3910  0.2043
  922MOL0     H24459   9.396   8.725  11.321 -0.0733 -1.7690  4.2422
  922MOL0     H24460   9.653   8.518  11.048 -0.4997  0.6234  0.6473
  922MOL0     H24461   9.496   8.456  10.996 -1.6557  1.7801 -0.8551
  922MOL0     H24462   9.570   8.720  10.931 -0.3199  1.8847 -0.9171
  922MOL0     H24463   9.457   8.738  11.073 -3.0718 -2.2505 -0.1748
  922MOL0     H24464   9.284   8.631  10.997 -1.1693  0.8867 -1.7588
  922MOL0     H24465   9.351   8.552  10.871 -2.3478 -1.5974  1.2574
  922MOL0     H24466   9.331   8.866  10.860  0.9022 -0.8797 -0.6162
  922MOL0     H24467   9.222   8.740  10.799 -1.2037  1.8861  0.6829
  922MOL0     H24468   9.553   8.694  10.537 -0.6442 -1.8185 -0.2211
  922MOL0     H24469   9.339   8.325  11.149  2.7304  0.0263  2.0570
  922MOL0     H24470   9.100   8.366  11.153 -1.1935  1.8413 -0.8479
  923MOL0     O24471   8.820  11.046  10.029  0.0813  0.2016 -0.0627
  923MOL0     C24472   8.931  11.066  10.078 -0.6225  0.5870 -0.4298
  923MOL0     O24473   8.988  11.184  10.125  0.4476  0.2147  0.1459
  923MOL0     C24474   8.914  11.290  10.164  0.9316  0.3566  0.2696
  923MOL0     C24475   8.966  11.417  10.137 -0.6429  0.6520 -0.1707
  923MOL0     C24476   8.885  11.533  10.134 -0.4794  0.3740  0.6868
  923MOL0     C24477   8.751  11.526  10.173 -0.0274  0.2760  1.4367
  923MOL0     O24478   8.679  11.643  10.187 -0.4545  0.1397  0.2412
  923MOL0     C24479   8.559  11.665  10.263 -0.4393  0.5740  0.3093
  923MOL0     C24480   8.511  11.803  10.264  0.7373 -0.3730 -0.3728
  923MOL0     C24481   8.456  11.839  10.130 -0.6822 -0.9865  0.2722
  923MOL0     C24482   8.421  11.986  10.113 -0.1985 -0.0013  0.5391
  923MOL0     C24483   8.360  12.002   9.977 -0.5028 -1.0473 -0.6593
  923MOL0     C24484   8.217  11.956   9.965  0.0571 -0.3728  0.7063
  923MOL0     C24485   8.162  12.020   9.842 -0.2670  0.6973  0.7467
  923MOL0     C24486   8.018  11.986   9.814  0.2340 -0.3567  0.4000
  923MOL0     N24487   7.936  12.031   9.928  0.7212  0.4064  0.0730
  923MOL0     C24488   7.884  12.156   9.937  0.7028 -0.3360  1.4299
  923MOL0     C24489   7.786  12.143  10.030  0.0156 -0.9550  0.0359
  923MOL0     C24490   7.699  12.265  10.060 -0.0626 -0.1051 -0.4748
  923MOL0     C24491   7.566  12.211  10.120  0.5003 -0.1676 -0.0758
  923MOL0     C24492   7.451  12.313  10.109 -0.2275 -0.2081 -1.3851
  923MOL0     C24493   7.307  12.255  10.151 -0.3794 -0.0640  0.1063
  923MOL0     O24494   7.219  12.359  10.139  0.7704 -0.0669  0.0156
  923MOL0     C24495   7.082  12.335  10.146  0.1894 -0.4604  0.3807
  923MOL0     C24496   7.017  12.222  10.185  0.1731  0.1596 -0.2157
  923MOL0     C24497   6.877  12.211  10.204 -0.0683  0.0928 -0.6368
  923MOL0     C24498   6.820  12.094  10.280  0.0379  0.3758  0.5279
  923MOL0     C24499   6.798  12.324  10.169 -0.2122 -0.3826  0.1982
  923MOL0     C24500   6.650  12.339  10.179  0.1650 -0.0743  0.3399
  923MOL0     O24501   6.570  12.221  10.176 -1.0160 -0.5040 -0.1756
  923MOL0     C24502   6.433  12.233  10.161 -0.4905 -0.5055 -0.4215
  923MOL0     C24503   6.374  12.126  10.089 -0.0733 -0.3123  0.4039
  923MOL0     C24504   6.236  12.124  10.074  0.0353 -0.4615 -0.5821
  923MOL0     C24505   6.158  12.220  10.141  0.0150  0.7646  0.1148
  923MOL0     O24506   6.021  12.198  10.153 -0.3824 -0.8507 -0.0541
  923MOL0     C24507   5.930  12.256  10.063 -0.0714 -0.0245 -0.6437
  923MOL0     C24508   5.805  12.163  10.054 -0.5914 -0.1780  0.2542
  923MOL0     C24509   5.712  12.183  10.173 -0.5412  0.5467 -0.7089
  923MOL0     C24510   5.570  12.127  10.148 -0.2981  0.0278  0.8294
  923MOL0     C24511   5.457  12.233  10.134 -1.2315  0.5419 -0.1728
  923MOL0     C24512   5.328  12.163  10.104  0.8686  0.3920  0.6882
  923MOL0     C24513   5.203  12.252  10.125  0.6985  0.2498 -0.5088
  923MOL0     C24514   5.079  12.174  10.111  0.0547  0.4298 -0.4408
  923MOL0    Cl24515   5.058  12.067  10.256  0.5065  0.1810  0.2913
  923MOL0     C24516   6.218  12.317  10.223  0.0079  0.3697 -0.7116
  923MOL0     C24517   6.360  12.322  10.235  0.3018  0.2052  0.0583
  923MOL0     O24518   6.608  12.455  10.179  0.4287 -0.6866  0.1882
  923MOL0     C24519   6.865  12.431  10.110  0.2891 -0.3505 -1.7265
  923MOL0     C24520   6.998  12.437  10.100 -0.3685 -0.4101 -0.3698
  923MOL0     N24521   7.792  12.017  10.091 -0.3335  0.0568 -0.4844
  923MOL0     N24522   7.880  11.952  10.024 -0.3354  0.7698 -0.6850
  923MOL0     C24523   8.694  11.398  10.204 -0.1589  0.0038  0.2525
  923MOL0     C24524   8.778  11.284  10.212  0.4794  0.2760  0.8746
  923MOL0     C24525   9.012  10.940  10.085  0.0937  0.7892  0.4036
  923MOL0     C24526   9.123  10.938  10.170 -0.9151 -0.4603 -0.4047
  923MOL0     C24527   9.196  10.820  10.189  0.4033 -0.2458  0.6112
  923MOL0     C24528   9.148  10.695  10.127 -0.2576 -0.9776  0.5638
  923MOL0     O24529   9.227  10.590  10.143  0.7623  0.4905  0.1566
  923MOL0     C24530   9.260  10.526  10.266  1.2719 -0.2671 -0.1828
  923MOL0     C24531   9.407  10.524  10.290 -0.5116  0.0964 -0.4077
  923MOL0     C24532   9.474  10.397  10.228 -0.4940 -0.3309  0.1021
  923MOL0     C24533   9.591  10.442  10.141 -0.2002  0.3052 -0.0558
  923MOL0     C24534   9.694  10.331  10.135  0.3972  0.7409 -0.3535
  923MOL0     C24535   9.778  10.249  10.104 -0.9142 -0.1335  0.0733
  923MOL0     C24536   9.038  10.704  10.046  1.2981 -0.8240  0.0294
  923MOL0     C24537   8.960  10.821  10.025 -0.4784 -1.0383  0.4357
  923MOL0     H24538   9.070  11.426  10.108 -0.1173 -0.2171  1.3648
  923MOL0     H24539   8.928  11.623  10.091 -1.6518 -0.3219 -2.2033
  923MOL0     H24540   8.474  11.606  10.229  0.1051 -0.5864  0.8892
  923MOL0     H24541   8.563  11.630  10.367 -1.6130 -0.7860 -0.0773
  923MOL0     H24542   8.438  11.813  10.345  1.2809  0.4015  0.0353
  923MOL0     H24543   8.588  11.873  10.298 -0.5592  1.0132 -0.1677
  923MOL0     H24544   8.525  11.808  10.051  1.9176  0.3819  1.8617
  923MOL0     H24545   8.367  11.778  10.116 -0.4669 -0.9430 -1.5048
  923MOL0     H24546   8.346  12.020  10.186  2.5788  2.4612  2.4598
  923MOL0     H24547   8.505  12.055  10.126 -1.2440  1.1241  1.6879
  923MOL0     H24548   8.361  12.111   9.965  0.6085 -1.0491 -0.7516
  923MOL0     H24549   8.419  11.956   9.898 -0.4741  0.9740 -1.8879
  923MOL0     H24550   8.207  11.847   9.971  0.8043 -0.3836  2.2431
  923MOL0     H24551   8.154  11.987  10.049  0.4242 -3.0592  2.0806
  923MOL0     H24552   8.187  12.126   9.848  1.9277  0.2006  1.7125
  923MOL0     H24553   8.214  11.991   9.750 -3.2566 -0.9907 -0.5290
  923MOL0     H24554   7.994  11.880   9.800 -2.9208  0.3835 -0.7264
  923MOL0     H24555   8.009  12.026   9.713  5.3572  0.6512  0.1146
  923MOL0     H24556   7.905  12.229   9.860 -2.9176  0.0131  0.6143
  923MOL0     H24557   7.752  12.325  10.135  1.5634 -4.5279  2.3743
  923MOL0     H24558   7.679  12.325   9.971 -1.3463  3.0108  1.7385
  923MOL0     H24559   7.588  12.185  10.224  1.0614 -2.6305 -0.7424
  923MOL0     H24560   7.537  12.119  10.068 -3.0475 -0.2299  1.7044
  923MOL0     H24561   7.436  12.332  10.003 -4.5731 -3.8000 -1.6567
  923MOL0     H24562   7.482  12.400  10.169  0.3975 -1.6228  0.4604
  923MOL0     H24563   7.295  12.213  10.252 -0.7885  0.2419  0.1864
  923MOL0     H24564   7.283  12.170  10.087  1.4425 -1.7210  1.4502
  923MOL0     H24565   7.078  12.134  10.200 -1.3079 -0.8759 -0.0711
  923MOL0     H24566   6.738  12.138  10.337  1.2061  2.6034  0.5936
  923MOL0     H24567   6.788  12.013  10.214 -2.2213  0.8255  0.9940
  923MOL0     H24568   6.894  12.069  10.358 -0.3759 -1.6621  0.3125
  923MOL0     H24569   6.433  12.064  10.023 -1.6553  0.2567 -1.6748
  923MOL0     H24570   6.207  12.043  10.007 -0.1239 -0.2203 -0.8046
  923MOL0     H24571   5.903  12.359  10.085 -1.0806 -0.4907  0.4128
  923MOL0     H24572   5.987  12.252   9.969 -3.3907 -1.1605 -2.7942
  923MOL0     H24573   5.745  12.194   9.967 -0.1558  1.9200  0.6462
  923MOL0     H24574   5.824  12.057  10.037  2.7645  0.6978 -2.9314
  923MOL0     H24575   5.713  12.289  10.200 -2.0450  0.1837  0.9436
  923MOL0     H24576   5.754  12.127  10.257 -2.9062 -0.1958  0.0423
  923MOL0     H24577   5.563  12.061  10.061 -4.8932  2.0518 -0.6750
  923MOL0     H24578   5.550  12.069  10.238  2.9960 -4.7993 -1.1443
  923MOL0     H24579   5.472  12.301  10.050 -3.9196 -0.5370 -1.6573
  923MOL0     H24580   5.452  12.282  10.232  0.5708 -4.1474  2.6084
  923MOL0     H24581   5.334  12.133   9.999  0.9612  2.7269 -0.0462
  923MOL0     H24582   5.317  12.071  10.161  3.1607  1.6376  3.3359
  923MOL0     H24583   5.199  12.332  10.051 -2.0207  1.3344  0.6718
  923MOL0     H24584   5.212  12.308  10.219 -2.9364 -1.2107  0.9097
  923MOL0     H24585   5.072  12.118  10.017  1.7528  2.1964 -1.6811
  923MOL0     H24586   4.991  12.238  10.120  0.5626  0.8811  1.8564
  923MOL0     H24587   6.141  12.344  10.294 -2.3814 -3.7842 -1.3790
  923MOL0     H24588   6.414  12.390  10.300  0.2081  0.6618 -0.3374
  923MOL0     H24589   6.811  12.509  10.058 -1.7535 -0.0139  0.7067
  923MOL0     H24590   7.052  12.522  10.060 -1.3671  0.0715 -0.7355
  923MOL0     H24591   8.596  11.382  10.248  0.2534  1.0607  1.6019
  923MOL0     H24592   8.747  11.186  10.247 -0.4206  0.3358  0.2610
  923MOL0     H24593   9.163  11.022  10.225  2.9726 -2.0693 -0.3954
  923MOL0     H24594   9.284  10.819  10.253 -0.3289  2.5177  1.7944
  923MOL0     H24595   9.213  10.584  10.346 -1.6842 -1.5634 -0.8446
  923MOL0     H24596   9.224  10.423  10.266  1.0316 -0.2029  0.9183
  923MOL0     H24597   9.426  10.517  10.397 -2.0876 -0.1751 -0.1231
  923MOL0     H24598   9.447  10.619  10.255 -1.2472  0.1725 -1.0731
  923MOL0     H24599   9.409  10.349  10.154 -0.6650 -0.6541  0.4625
  923MOL0     H24600   9.511  10.335  10.310  1.7646  2.6391  1.5201
  923MOL0     H24601   9.641  10.530  10.182 -2.8208  1.3229  1.1954
  923MOL0     H24602   9.555  10.460  10.039 -2.6697  0.8558  0.8418
  923MOL0     H24603   9.852  10.174  10.085 -2.1979 -0.9770 -2.0482
  923MOL0     H24604   9.022  10.606  10.002  0.3372 -2.9727  4.5009
  923MOL0     H24605   8.865  10.804   9.976 -0.6695 -1.9514  1.0968
  924MOL0     O24606   4.045   8.650   0.490 -0.1912  0.0025 -0.0548
  924MOL0     C24607   4.045   8.585   0.384  0.0722 -0.3229  1.0170
  924MOL0     O24608   4.066   8.639   0.258  0.0056  0.3226 -0.0018
  924MOL0     C24609   4.093   8.771   0.258  1.0040  0.0415  0.1374
  924MOL0     C24610   4.200   8.825   0.327  0.1903 -0.2274 -1.5569
  924MOL0     C24611   4.228   8.967   0.321 -1.1858 -0.2999 -0.9878
  924MOL0     C24612   4.152   9.045   0.232 -1.4967  0.0286  0.4391
  924MOL0     O24613   4.188   9.172   0.209  0.1921  0.0291 -1.0844
  924MOL0     C24614   4.310   9.184   0.133 -0.5366  0.8246  0.4953
  924MOL0     C24615   4.322   9.334   0.104 -0.3613  0.2725 -0.0503
  924MOL0     C24616   4.448   9.353   0.020 -0.2838 -1.0640  0.5463
  924MOL0     C24617   4.459   9.500  -0.020  0.4812  0.0209 -0.2117
  924MOL0     C24618   4.604   9.531  -0.059 -0.1561 -0.6458  0.7838
  924MOL0     C24619   4.610   9.662  -0.148  0.1013 -0.3609 -1.0659
  924MOL0     C24620   4.578   9.796  -0.076  0.0941  0.8599 -0.9989
  924MOL0     C24621   4.517   9.909  -0.159  0.3959  1.3638 -0.7743
  924MOL0     N24622   4.492  10.016  -0.065  0.2532  0.1054  0.1876
  924MOL0     C24623   4.566  10.129  -0.052 -0.2152  0.2304  0.6059
  924MOL0     C24624   4.478  10.222  -0.018 -0.1440 -0.4713 -0.2716
  924MOL0     C24625   4.478  10.373  -0.016  0.6071 -0.4289  0.0685
  924MOL0     C24626   4.502  10.431   0.127  0.2755 -0.4557 -0.9701
  924MOL0     C24627   4.384  10.431   0.228  1.0513  0.6607 -0.4058
  924MOL0     C24628   4.348  10.296   0.298 -0.3066 -0.2005 -0.6135
  924MOL0     O24629   4.463  10.240   0.357  0.2855  0.4722  0.6136
  924MOL0     C24630   4.459  10.106   0.379 -1.4059  0.7186  0.0534
  924MOL0     C24631   4.583  10.049   0.370  0.0147 -0.0421  0.6437
  924MOL0     C24632   4.606   9.920   0.392 -0.0912 -0.2466 -0.8411
  924MOL0     C24633   4.732   9.859   0.347  0.4382 -0.0612 -0.3307
  924MOL0     C24634   4.506   9.836   0.450  0.3692 -0.7735  0.6019
  924MOL0     C24635   4.530   9.694   0.476  1.0362  0.0730 -0.3893
  924MOL0     O24636   4.448   9.607   0.409  0.2728 -0.4269  0.3638
  924MOL0     C24637   4.470   9.477   0.431 -0.2384  2.2493 -0.0953
  924MOL0     C24638   4.569   9.403   0.367  0.1672 -0.7676 -0.0394
  924MOL0     C24639   4.593   9.269   0.403  0.4207  0.4387 -0.1524
  924MOL0     C24640   4.501   9.193   0.487 -0.6176 -0.6213 -0.5749
  924MOL0     O24641   4.505   9.051   0.501 -0.4032 -0.2561 -0.0041
  924MOL0     C24642   4.635   8.999   0.523 -0.1823 -0.1965 -0.2345
  924MOL0     C24643   4.637   8.854   0.573  0.0389  0.2697  1.0602
  924MOL0     C24644   4.758   8.818   0.653  0.6635 -0.8060 -0.4899
  924MOL0     C24645   4.813   8.675   0.639 -0.9524 -0.2516  0.2908
  924MOL0     C24646   4.713   8.573   0.688 -0.0195 -1.0500 -0.2127
  924MOL0     C24647   4.716   8.546   0.839 -0.8154 -0.0335 -0.1296
  924MOL0     C24648   4.587   8.465   0.870  0.0180  0.2199 -0.5120
  924MOL0     C24649   4.460   8.533   0.856 -0.7311  0.1476  0.1516
  924MOL0    Cl24650   4.309   8.424   0.893  0.0845  0.3813 -0.5545
  924MOL0     C24651   4.396   9.264   0.529  0.5753 -0.2389 -0.2164
  924MOL0     C24652   4.382   9.395   0.512  0.1927 -0.6524 -0.3767
  924MOL0     O24653   4.592   9.667   0.574  0.4724  0.0066  0.5977
  924MOL0     C24654   4.379   9.891   0.460 -0.2161  0.8135  0.1845
  924MOL0     C24655   4.361  10.024   0.424  0.2157  0.4807 -0.3020
  924MOL0     N24656   4.352  10.163  -0.015 -0.5882 -1.3505  0.5972
  924MOL0     N24657   4.363  10.041  -0.047  0.1167 -0.7180  0.3116
  924MOL0     C24658   4.051   8.989   0.159 -0.4421 -0.3436  0.9964
  924MOL0     C24659   4.016   8.853   0.167 -0.1596 -0.3756 -0.0164
  924MOL0     C24660   4.015   8.442   0.375  0.1174  0.1023 -0.0120
  924MOL0     C24661   4.084   8.354   0.462 -0.4395  0.8087 -0.0008
  924MOL0     C24662   4.054   8.210   0.458  0.1438 -0.8264 -0.2674
  924MOL0     C24663   3.961   8.158   0.371  0.4656  0.4624  0.9632
  924MOL0     O24664   3.929   8.025   0.377  0.1797 -0.2108 -0.6084
  924MOL0     C24665   3.869   7.961   0.265  0.3719  0.1000  1.1872
  924MOL0     C24666   3.712   7.966   0.279 -0.6600  0.1651 -0.6021
  924MOL0     C24667   3.657   7.834   0.335  0.1665  0.0360  0.4511
  924MOL0     C24668   3.657   7.720   0.224  0.7757 -0.7273  0.9047
  924MOL0     C24669   3.780   7.647   0.237 -0.1615  0.9648  0.2750
  924MOL0     C24670   3.893   7.595   0.248  0.4686  0.7556  0.0085
  924MOL0     C24671   3.897   8.252   0.280 -0.5500  1.1441 -0.6210
  924MOL0     C24672   3.924   8.392   0.284 -0.5816 -0.1570 -0.0189
  924MOL0     H24673   4.274   8.763   0.377  1.8793 -0.5041 -4.2272
  924MOL0     H24674   4.317   9.005   0.371 -0.2135 -1.3403 -1.8459
  924MOL0     H24675   4.396   9.155   0.193 -0.0751 -3.2874 -1.7971
  924MOL0     H24676   4.316   9.127   0.040  2.8137 -0.5581  1.4463
  924MOL0     H24677   4.234   9.370   0.051  0.6265  0.8720 -1.3390
  924MOL0     H24678   4.315   9.381   0.203 -0.9699 -0.7567  0.4123
  924MOL0     H24679   4.539   9.320   0.070  1.2786  0.3353 -1.2330
  924MOL0     H24680   4.436   9.296  -0.073 -1.5574  1.2528 -0.8169
  924MOL0     H24681   4.392   9.526  -0.102 -0.1754  1.0286  0.6256
  924MOL0     H24682   4.421   9.563   0.061  0.4312 -0.5154  0.1868
  924MOL0     H24683   4.665   9.541   0.031 -0.2326 -0.9541  0.8704
  924MOL0     H24684   4.652   9.452  -0.117 -0.3625  1.8983 -3.2889
  924MOL0     H24685   4.703   9.668  -0.205 -0.1213 -0.2255 -1.4131
  924MOL0     H24686   4.536   9.642  -0.226  2.3267 -1.8221 -2.9353
  924MOL0     H24687   4.511   9.776   0.008  0.5977  0.2631 -0.7309
  924MOL0     H24688   4.676   9.816  -0.032  0.4482  1.7066 -2.1361
  924MOL0     H24689   4.432   9.878  -0.219  0.9114  0.6670 -1.1500
  924MOL0     H24690   4.599   9.936  -0.226  1.4680 -0.4794 -0.3010
  924MOL0     H24691   4.670  10.144  -0.081  0.8684 -0.2386  3.8250
  924MOL0     H24692   4.549  10.410  -0.090 -1.0233 -0.0186 -1.3496
  924MOL0     H24693   4.382  10.417  -0.046 -0.4081 -2.2166  0.5481
  924MOL0     H24694   4.550  10.529   0.116  2.8286 -1.7786 -2.7892
  924MOL0     H24695   4.580  10.372   0.178  1.0871  3.1469  2.4808
  924MOL0     H24696   4.290  10.461   0.180 -0.2459  0.8961  2.1189
  924MOL0     H24697   4.407  10.499   0.310 -1.9087 -0.5241  1.5468
  924MOL0     H24698   4.310  10.225   0.224  1.5049 -1.7568 -0.1241
  924MOL0     H24699   4.279  10.310   0.382  2.7392  1.5504  1.8136
  924MOL0     H24700   4.671  10.106   0.340 -1.3479  2.3470  0.9132
  924MOL0     H24701   4.802   9.925   0.296  2.6647 -2.4423 -0.5339
  924MOL0     H24702   4.782   9.830   0.440 -5.1384 -0.2420  3.1101
  924MOL0     H24703   4.720   9.774   0.279  1.7408  0.1039 -0.7826
  924MOL0     H24704   4.641   9.456   0.304  2.1853  1.9842  4.1003
  924MOL0     H24705   4.685   9.229   0.363  0.3006 -2.8905  2.4375
  924MOL0     H24706   4.693   9.002   0.430 -1.6437 -0.5806 -1.2038
  924MOL0     H24707   4.684   9.072   0.588 -1.3652  2.5236 -2.2261
  924MOL0     H24708   4.544   8.838   0.629 -1.6503  0.1161 -1.6056
  924MOL0     H24709   4.615   8.776   0.499 -0.8421 -1.8486  3.3738
  924MOL0     H24710   4.737   8.846   0.757 -1.1980  1.6279 -1.4218
  924MOL0     H24711   4.844   8.882   0.632  1.3155 -0.9422  1.5501
  924MOL0     H24712   4.833   8.664   0.532 -1.0491  1.0857  0.1173
  924MOL0     H24713   4.903   8.677   0.702 -1.7741  0.4867  1.4892
  924MOL0     H24714   4.730   8.472   0.649 -5.3926 -3.4182  2.5985
  924MOL0     H24715   4.610   8.605   0.670  0.6291 -0.4100 -3.3374
  924MOL0     H24716   4.794   8.472   0.861 -1.9237 -1.1122  0.2290
  924MOL0     H24717   4.737   8.633   0.901  1.7839  0.1170 -1.0746
  924MOL0     H24718   4.599   8.435   0.975 -1.8404 -0.8641 -0.5585
  924MOL0     H24719   4.584   8.368   0.819 -0.1507 -0.1149  0.1220
  924MOL0     H24720   4.448   8.585   0.761  0.0398 -0.7336 -0.4363
  924MOL0     H24721   4.455   8.619   0.923 -0.4265  0.3466 -0.0828
  924MOL0     H24722   4.330   9.214   0.599 -0.4435  0.8123 -0.3858
  924MOL0     H24723   4.295   9.442   0.557 -0.5192 -2.6303  0.4418
  924MOL0     H24724   4.295   9.829   0.489  3.1797 -3.7098  1.4314
  924MOL0     H24725   4.268  10.076   0.445 -0.2635 -1.6163  3.7909
  924MOL0     H24726   4.003   9.044   0.078 -1.5749 -2.8437 -0.1534
  924MOL0     H24727   3.948   8.822   0.088  0.2682  1.6164 -1.2381
  924MOL0     H24728   4.159   8.401   0.526  0.3187  1.7140 -1.4809
  924MOL0     H24729   4.123   8.155   0.521  2.9145  1.9605 -0.6239
  924MOL0     H24730   3.909   8.019   0.180  0.5239 -0.4366  0.8834
  924MOL0     H24731   3.906   7.863   0.234 -0.9239 -0.2399  0.6832
  924MOL0     H24732   3.676   7.987   0.178  0.1156  2.0741 -0.5164
  924MOL0     H24733   3.672   8.042   0.347 -0.3696  2.4953 -2.8849
  924MOL0     H24734   3.551   7.854   0.350  0.2113  0.3991  0.3061
  924MOL0     H24735   3.697   7.800   0.431 -3.2800  0.9069  2.3259
  924MOL0     H24736   3.662   7.762   0.124  1.8557  0.8025  1.5466
  924MOL0     H24737   3.572   7.653   0.234  0.9998 -0.8587  2.1851
  924MOL0     H24738   3.994   7.559   0.255  1.1685  1.9550 -2.7363
  924MOL0     H24739   3.815   8.218   0.217 -0.1190  2.5628 -2.0084
  924MOL0     H24740   3.865   8.457   0.220 -0.4524 -0.4769 -0.4609
  925MOL0     O24741   1.238  10.166   5.804  0.2130 -0.7358 -0.2997
  925MOL0     C24742   1.174  10.270   5.829 -0.6945  1.3185 -0.6400
  925MOL0     O24743   1.135  10.362   5.734  0.1555 -0.2525 -1.0552
  925MOL0     C24744   1.161  10.336   5.600  0.0875 -0.3617  0.6354
  925MOL0     C24745   1.287  10.309   5.539  0.1792  0.6617 -0.5374
  925MOL0     C24746   1.295  10.311   5.398 -0.3744 -0.9339 -0.2241
  925MOL0     C24747   1.181  10.318   5.321 -0.1954  0.1818 -0.4950
  925MOL0     O24748   1.200  10.301   5.185  0.6210  0.3943 -0.0199
  925MOL0     C24749   1.186  10.161   5.149  0.0039  0.2192  0.2742
  925MOL0     C24750   1.239  10.149   5.001  0.2589  0.3528  0.2347
  925MOL0     C24751   1.370  10.239   4.980 -0.9947  0.8762  0.2157
  925MOL0     C24752   1.407  10.253   4.828 -0.7311 -0.3843 -0.6648
  925MOL0     C24753   1.329  10.359   4.750 -0.0428 -0.2498 -0.6747
  925MOL0     C24754   1.377  10.342   4.608 -0.6779 -0.0035  0.1745
  925MOL0     C24755   1.295  10.430   4.505  0.8093 -0.2763 -0.0586
  925MOL0     C24756   1.353  10.430   4.360  0.2965 -0.0334  0.2333
  925MOL0     N24757   1.271  10.514   4.271  0.2577 -0.8694  0.4244
  925MOL0     C24758   1.251  10.486   4.134  0.8065  0.1216 -0.4298
  925MOL0     C24759   1.151  10.563   4.086  0.4720  0.8461  0.3434
  925MOL0     C24760   1.097  10.545   3.949 -0.2454 -0.2804  0.3834
  925MOL0     C24761   0.964  10.480   3.935  0.4945 -0.2341 -0.6833
  925MOL0     C24762   0.850  10.565   3.988 -0.4464 -0.9495 -0.0462
  925MOL0     C24763   0.796  10.526   4.120 -0.3789  0.6087 -0.2052
  925MOL0     O24764   0.724  10.635   4.168 -0.2015 -0.6688  0.3236
  925MOL0     C24765   0.595  10.648   4.136 -0.2636  0.0749  0.1978
  925MOL0     C24766   0.518  10.561   4.055  0.9101  0.6170 -0.1272
  925MOL0     C24767   0.378  10.583   4.032 -0.1976 -0.3547  1.2122
  925MOL0     C24768   0.306  10.468   3.945  0.5168  0.1345  0.9156
  925MOL0     C24769   0.314  10.692   4.095  0.3757  0.5923 -0.3099
  925MOL0     C24770   0.176  10.724   4.070 -0.2899  0.1277 -0.2211
  925MOL0     O24771   0.116  10.691   3.950 -0.0617 -0.0782  0.2134
  925MOL0     C24772  -0.020  10.681   3.934  1.0173  0.4832 -0.6187
  925MOL0     C24773  -0.083  10.557   3.928 -0.2956  0.2600  0.0510
  925MOL0     C24774  -0.216  10.548   3.909  0.3870  0.1093 -0.6846
  925MOL0     C24775  -0.302  10.659   3.893 -0.4072 -0.5935 -0.3611
  925MOL0     O24776  -0.430  10.629   3.865 -0.3330 -0.2931 -0.2683
  925MOL0     C24777  -0.526  10.738   3.849 -0.9068 -0.0091 -0.2955
  925MOL0     C24778  -0.664  10.669   3.836 -0.1122 -0.1466 -0.8989
  925MOL0     C24779  -0.762  10.766   3.760  0.7332  0.4942 -0.1079
  925MOL0     C24780  -0.741  10.774   3.614 -0.1465  1.5697  0.9514
  925MOL0     C24781  -0.844  10.852   3.540  0.4427 -0.6674  0.8012
  925MOL0     C24782  -0.847  10.865   3.383 -0.3941  0.0886 -0.1317
  925MOL0     C24783  -0.886  10.736   3.307 -0.2617  0.1543  0.1212
  925MOL0     C24784  -1.021  10.668   3.340  0.5792 -0.1218  0.4524
  925MOL0    Cl24785  -1.149  10.795   3.328 -0.0441  0.1005  0.4524
  925MOL0     C24786  -0.234  10.781   3.893  0.3570 -0.5813 -0.0881
  925MOL0     C24787  -0.099  10.796   3.916  0.1840 -0.4510  0.3168
  925MOL0     O24788   0.110  10.747   4.172  0.6125 -0.1425  0.1713
  925MOL0     C24789   0.392  10.775   4.178  0.2873  0.3445 -0.8162
  925MOL0     C24790   0.528  10.761   4.194  0.7264 -0.5146  0.0849
  925MOL0     N24791   1.116  10.645   4.187 -0.4856 -0.6610 -0.2298
  925MOL0     N24792   1.180  10.615   4.291 -0.1596 -0.2892 -0.6814
  925MOL0     C24793   1.059  10.340   5.378  0.4094 -0.2202 -0.5316
  925MOL0     C24794   1.051  10.361   5.515 -0.2193 -0.6589  0.8604
  925MOL0     C24795   1.133  10.290   5.968  0.6780  1.0101 -0.5059
  925MOL0     C24796   1.095  10.408   6.022  0.0350  0.5527 -0.1404
  925MOL0     C24797   1.033  10.410   6.147 -0.2907 -0.1526  0.4977
  925MOL0     C24798   1.021  10.301   6.227 -0.2894  0.6094 -0.0565
  925MOL0     O24799   0.957  10.320   6.345  0.1555 -0.0118  0.4401
  925MOL0     C24800   0.933  10.210   6.429  0.8094 -0.6630  0.7351
  925MOL0     C24801   0.844  10.241   6.552  0.6426 -0.4076  0.2219
  925MOL0     C24802   0.701  10.288   6.542  0.2243 -0.4369  0.6320
  925MOL0     C24803   0.641  10.334   6.676  0.6709 -0.2957 -0.3739
  925MOL0     C24804   0.717  10.451   6.730  0.9371 -0.2310  0.5317
  925MOL0     C24805   0.791  10.548   6.753 -0.1172 -0.4882  0.2037
  925MOL0     C24806   1.073  10.180   6.176 -0.0122 -0.5809 -0.3339
  925MOL0     C24807   1.122  10.178   6.045  0.3656 -0.5665 -0.1362
  925MOL0     H24808   1.374  10.283   5.598 -0.0224 -0.7655 -0.8279
  925MOL0     H24809   1.394  10.300   5.355  2.0286  0.2465  4.4359
  925MOL0     H24810   1.256  10.100   5.207  1.3071 -2.0565 -3.2904
  925MOL0     H24811   1.083  10.125   5.162  0.1334 -0.1241  0.3571
  925MOL0     H24812   1.263  10.045   4.977 -0.0045  0.7742 -2.0077
  925MOL0     H24813   1.166  10.186   4.929 -0.0595 -3.0651 -1.3698
  925MOL0     H24814   1.361  10.333   5.035  1.5670  0.2854  1.8335
  925MOL0     H24815   1.455  10.194   5.032 -0.6303  1.8711  0.5172
  925MOL0     H24816   1.513  10.279   4.835 -0.5722 -1.4479  1.8498
  925MOL0     H24817   1.381  10.157   4.783 -3.0225 -0.7844  1.3011
  925MOL0     H24818   1.220  10.352   4.752 -0.1994  1.6702 -0.0906
  925MOL0     H24819   1.353  10.460   4.784 -0.8535  0.9098 -3.2759
  925MOL0     H24820   1.485  10.357   4.620 -0.8316 -1.2228  5.6010
  925MOL0     H24821   1.365  10.239   4.573  0.2211  0.1183 -0.5421
  925MOL0     H24822   1.189  10.405   4.505  0.4890  1.0026  0.5925
  925MOL0     H24823   1.304  10.526   4.557  1.0311 -1.7954  2.9493
  925MOL0     H24824   1.365  10.325   4.330  0.3065  0.1032 -0.2316
  925MOL0     H24825   1.451  10.478   4.368  1.0239 -1.7105  2.6192
  925MOL0     H24826   1.293  10.398   4.087 -1.3541  0.3933 -3.1337
  925MOL0     H24827   1.097  10.636   3.888  2.2665 -1.5515 -1.7087
  925MOL0     H24828   1.168  10.477   3.901  0.8823  1.2049 -0.1307
  925MOL0     H24829   0.972  10.383   3.985  0.5879 -0.2117 -0.6554
  925MOL0     H24830   0.961  10.455   3.828  2.3690 -0.1003 -0.8105
  925MOL0     H24831   0.769  10.558   3.915 -0.2257 -1.7852 -0.2180
  925MOL0     H24832   0.875  10.672   3.991  1.8725 -1.4478  2.5712
  925MOL0     H24833   0.882  10.505   4.185  0.8712  0.7975 -1.7224
  925MOL0     H24834   0.748  10.430   4.102  1.5571 -0.5163  0.2982
  925MOL0     H24835   0.577  10.483   4.009  1.1364  2.6931 -3.7157
  925MOL0     H24836   0.279  10.516   3.851  1.1458  1.5248  1.4102
  925MOL0     H24837   0.364  10.375   3.941 -2.2252 -1.6463 -2.3305
  925MOL0     H24838   0.217  10.445   4.004 -0.1034  3.2453  1.3438
  925MOL0     H24839  -0.021  10.469   3.941  0.7081  0.9366 -0.0840
  925MOL0     H24840  -0.258  10.449   3.911 -0.0090  0.2861 -0.0206
  925MOL0     H24841  -0.517  10.799   3.939  1.3736  1.6569 -1.5469
  925MOL0     H24842  -0.495  10.809   3.772  1.4297 -2.8829 -2.2431
  925MOL0     H24843  -0.654  10.582   3.770  1.2519  0.4216 -1.4755
  925MOL0     H24844  -0.691  10.647   3.940  0.1116 -0.1098 -0.8324
  925MOL0     H24845  -0.766  10.865   3.805 -3.6579  0.3981  0.1380
  925MOL0     H24846  -0.859  10.718   3.774 -0.5227  3.4161  2.3864
  925MOL0     H24847  -0.641  10.813   3.597  0.4390 -0.6073 -1.0801
  925MOL0     H24848  -0.746  10.670   3.580 -1.9057  0.9836  2.7793
  925MOL0     H24849  -0.836  10.954   3.579  1.1883 -0.5518  0.3751
  925MOL0     H24850  -0.943  10.816   3.569  0.8628 -1.1051  1.7323
  925MOL0     H24851  -0.914  10.945   3.349  1.1703  2.3696  1.8729
  925MOL0     H24852  -0.747  10.891   3.347  0.5063 -2.5705  0.2443
  925MOL0     H24853  -0.806  10.662   3.320 -0.8932 -0.5653  0.0230
  925MOL0     H24854  -0.895  10.745   3.198  0.7997 -1.8503 -0.1866
  925MOL0     H24855  -1.013  10.630   3.443  2.6667 -5.1210 -1.2268
  925MOL0     H24856  -1.031  10.576   3.281  1.4627  0.9631 -1.4525
  925MOL0     H24857  -0.290  10.873   3.881  0.9545 -0.1247  0.5340
  925MOL0     H24858  -0.054  10.892   3.898  1.3022 -0.5057  2.4858
  925MOL0     H24859   0.344  10.862   4.221  1.2431  0.7625 -0.5546
  925MOL0     H24860   0.578  10.830   4.261  1.0354  0.8033 -1.4165
  925MOL0     H24861   0.971  10.342   5.314  0.1986 -3.3566 -0.5099
  925MOL0     H24862   0.952  10.387   5.551  0.1626  1.9153  0.2491
  925MOL0     H24863   1.105  10.502   5.969 -1.4757  2.4981  2.8233
  925MOL0     H24864   0.982  10.500   6.181 -0.9152 -0.3342  0.0666
  925MOL0     H24865   0.887  10.127   6.375 -0.3760  0.2327  0.3372
  925MOL0     H24866   1.027  10.171   6.469  2.0639 -0.1688 -1.5556
  925MOL0     H24867   0.895  10.325   6.600 -2.2523  3.2433 -2.4633
  925MOL0     H24868   0.840  10.166   6.632  0.2183 -3.2299 -2.2514
  925MOL0     H24869   0.646  10.210   6.488  0.0068 -1.1986  1.9247
  925MOL0     H24870   0.692  10.371   6.471  1.3185 -0.4070  0.4966
  925MOL0     H24871   0.639  10.251   6.748 -2.4813  0.0238  0.0417
  925MOL0     H24872   0.537  10.367   6.669 -0.1283 -2.0650  1.7976
  925MOL0     H24873   0.841  10.640   6.775  2.0602 -1.8888  1.4584
  925MOL0     H24874   1.080  10.094   6.241 -0.7378  0.0524  0.6123
  925MOL0     H24875   1.153  10.080   6.012  0.8962  0.4118 -2.7758
  926MOL0     O24876   1.774   2.579   3.907 -0.0948 -0.1257  0.3396
  926MOL0     C24877   1.765   2.682   3.848 -0.3028  0.4520 -0.5029
  926MOL0     O24878   1.670   2.779   3.853  0.3548  1.2507 -0.3661
  926MOL0     C24879   1.555   2.756   3.933  0.5554  0.3215 -0.0095
  926MOL0     C24880   1.474   2.868   3.945 -0.2038  0.2189 -0.2520
  926MOL0     C24881   1.365   2.870   4.037  0.3929  0.1545  0.3026
  926MOL0     C24882   1.338   2.754   4.119  1.0000 -0.0111  0.1878
  926MOL0     O24883   1.246   2.743   4.220 -0.3939  0.7180  0.7247
  926MOL0     C24884   1.146   2.849   4.233  1.0716  0.0498  1.0901
  926MOL0     C24885   1.024   2.814   4.149 -0.1363 -0.8099  0.1563
  926MOL0     C24886   0.927   2.936   4.144  0.6588 -0.6425 -0.2802
  926MOL0     C24887   0.872   2.979   4.285 -0.0740 -0.2320  0.9960
  926MOL0     C24888   0.768   3.087   4.277  0.3155  0.5792  0.0618
  926MOL0     C24889   0.751   3.153   4.417  0.1118 -0.1859  0.8166
  926MOL0     C24890   0.634   3.252   4.386  0.0078  0.2273 -0.9228
  926MOL0     C24891   0.585   3.350   4.501 -1.3650 -0.0934  0.6358
  926MOL0     N24892   0.683   3.461   4.532 -0.4983  0.1563  0.3647
  926MOL0     C24893   0.720   3.553   4.442  1.0385 -0.2424 -0.4372
  926MOL0     C24894   0.828   3.615   4.501  0.1508 -0.6972  0.5744
  926MOL0     C24895   0.908   3.734   4.461 -0.0839  0.8435  1.1000
  926MOL0     C24896   0.892   3.864   4.527 -0.3259  0.7030  0.6065
  926MOL0     C24897   0.984   3.875   4.646 -0.0439  0.3792 -1.0109
  926MOL0     C24898   0.975   4.008   4.718 -0.4944 -0.0591  0.3589
  926MOL0     O24899   0.837   4.051   4.729 -0.6848  0.5154  0.4455
  926MOL0     C24900   0.806   4.160   4.807  0.2361 -0.6197  0.3297
  926MOL0     C24901   0.673   4.182   4.844 -0.2068  0.8994  1.2752
  926MOL0     C24902   0.617   4.292   4.909 -0.8415 -0.2696 -1.0557
  926MOL0     C24903   0.467   4.305   4.923  0.1079  1.0866 -0.0649
  926MOL0     C24904   0.711   4.388   4.959  0.1882  0.2609 -0.9360
  926MOL0     C24905   0.671   4.504   5.041  0.8455  0.5901 -0.1615
  926MOL0     O24906   0.759   4.605   5.030 -0.2047 -0.3046 -0.2736
  926MOL0     C24907   0.723   4.732   5.064 -0.4671  0.2088 -0.0447
  926MOL0     C24908   0.736   4.827   4.963 -0.0724  0.5692  0.0600
  926MOL0     C24909   0.706   4.965   4.991  1.1041  1.7813  0.1399
  926MOL0     C24910   0.689   5.006   5.120  0.9383  0.0091  0.1441
  926MOL0     O24911   0.702   5.143   5.144 -0.4328 -0.1072  0.7804
  926MOL0     C24912   0.730   5.169   5.279 -0.0961  0.1632 -0.1929
  926MOL0     C24913   0.784   5.310   5.286 -0.1339  0.0079  0.1614
  926MOL0     C24914   0.687   5.422   5.260 -0.0239  0.7870  0.2297
  926MOL0     C24915   0.556   5.405   5.335 -0.3083  0.6430 -0.5787
  926MOL0     C24916   0.467   5.521   5.313  0.8656 -0.9800  0.1260
  926MOL0     C24917   0.362   5.490   5.200 -0.2142  0.5833 -0.4702
  926MOL0     C24918   0.292   5.623   5.165  0.3018 -0.0787  0.5315
  926MOL0     C24919   0.170   5.607   5.073  0.0900 -0.1295  0.8080
  926MOL0    Cl24920   0.052   5.506   5.139 -0.2000  0.2102  0.2721
  926MOL0     C24921   0.669   4.902   5.219  0.8958  0.5081 -0.3808
  926MOL0     C24922   0.682   4.766   5.195 -0.4530 -0.5932 -0.0625
  926MOL0     O24923   0.566   4.504   5.106 -0.4029 -0.1938  0.4516
  926MOL0     C24924   0.844   4.361   4.942  0.0114  0.5551  0.2667
  926MOL0     C24925   0.892   4.256   4.861 -0.0054 -0.7210  0.7971
  926MOL0     N24926   0.846   3.557   4.616 -0.6456  0.5344  0.6698
  926MOL0     N24927   0.766   3.458   4.636  0.2093 -0.3681 -0.2092
  926MOL0     C24928   1.416   2.640   4.095  0.3166  0.5034 -0.9281
  926MOL0     C24929   1.514   2.635   3.997  0.5768 -0.7853  0.0101
  926MOL0     C24930   1.885   2.707   3.768 -0.6763 -0.3163 -0.8360
  926MOL0     C24931   1.877   2.790   3.665 -0.7934 -0.2580 -0.2783
  926MOL0     C24932   1.982   2.851   3.601 -0.3203 -0.3363  0.1134
  926MOL0     C24933   2.108   2.803   3.627 -0.6794  0.0962  1.0400
  926MOL0     O24934   2.206   2.863   3.550 -0.6301  0.5246  0.3450
  926MOL0     C24935   2.296   2.766   3.481  0.3191 -0.8052 -0.3376
  926MOL0     C24936   2.424   2.836   3.436  1.4189 -0.0345  0.1495
  926MOL0     C24937   2.409   2.909   3.299  0.9636  0.4094  0.3797
  926MOL0     C24938   2.538   2.943   3.239  1.0344 -0.4563  0.2182
  926MOL0     C24939   2.624   3.032   3.317 -0.3780  0.2086  1.2952
  926MOL0     C24940   2.689   3.110   3.386 -0.2831  0.0017  1.0006
  926MOL0     C24941   2.126   2.717   3.727  0.6948  0.2844 -0.9483
  926MOL0     C24942   2.021   2.659   3.796 -0.4043 -0.5804 -0.8338
  926MOL0     H24943   1.475   2.964   3.893 -0.0289  1.9227  2.6619
  926MOL0     H24944   1.321   2.968   4.052 -0.1962 -0.6243  5.9420
  926MOL0     H24945   1.124   2.866   4.339  1.1250  0.9526  0.9605
  926MOL0     H24946   1.178   2.943   4.188 -1.4781  0.7168  0.4965
  926MOL0     H24947   1.049   2.788   4.046  0.6404  1.6019 -0.3264
  926MOL0     H24948   0.977   2.732   4.205 -0.4078  0.4234  1.8263
  926MOL0     H24949   0.977   3.020   4.095 -1.8679 -0.7603 -3.3540
  926MOL0     H24950   0.839   2.902   4.090 -0.7370  2.8032 -0.4228
  926MOL0     H24951   0.842   2.902   4.357  2.4164  0.1672  2.5740
  926MOL0     H24952   0.952   3.032   4.335 -0.2183  0.4073  0.5608
  926MOL0     H24953   0.794   3.161   4.201  0.2350 -0.7847 -1.3558
  926MOL0     H24954   0.671   3.045   4.249 -0.0593  0.0876  1.9666
  926MOL0     H24955   0.729   3.076   4.492  1.3103 -1.2267  0.1255
  926MOL0     H24956   0.844   3.201   4.450  0.0949  1.7192 -1.6286
  926MOL0     H24957   0.660   3.319   4.303 -0.2211 -0.7865 -1.8468
  926MOL0     H24958   0.546   3.200   4.346 -0.2609  1.2015 -1.6483
  926MOL0     H24959   0.561   3.278   4.580 -2.1560 -1.3509 -0.7107
  926MOL0     H24960   0.499   3.404   4.463 -0.6931  2.8454  2.9391
  926MOL0     H24961   0.676   3.581   4.347 -3.5630 -0.0832  1.4634
  926MOL0     H24962   1.011   3.698   4.474 -0.2636  0.6111  1.9888
  926MOL0     H24963   0.878   3.741   4.357  0.9953 -0.0504  0.7058
  926MOL0     H24964   0.786   3.870   4.555 -0.0265 -2.6207  3.0503
  926MOL0     H24965   0.900   3.942   4.451 -3.6086 -0.0975 -0.7640
  926MOL0     H24966   1.089   3.854   4.623 -0.6844 -0.2385 -3.7463
  926MOL0     H24967   0.955   3.797   4.717 -2.7361  1.6650 -0.5702
  926MOL0     H24968   1.033   4.091   4.677 -0.6384 -0.4481 -0.6711
  926MOL0     H24969   1.029   3.996   4.812  0.3758 -2.4004 -0.3661
  926MOL0     H24970   0.600   4.111   4.805 -0.4409  1.2969  0.9856
  926MOL0     H24971   0.428   4.207   4.897  2.0088 -0.1830  1.5739
  926MOL0     H24972   0.433   4.332   5.023 -2.3991 -1.7597 -0.0127
  926MOL0     H24973   0.418   4.361   4.842 -1.0641 -1.9487 -1.6118
  926MOL0     H24974   0.772   4.790   4.868 -2.7679  0.8575 -1.1950
  926MOL0     H24975   0.717   5.044   4.917 -0.6975  1.2082 -0.7999
  926MOL0     H24976   0.642   5.153   5.342 -0.4470  1.0932 -0.4247
  926MOL0     H24977   0.808   5.106   5.322  0.6046  1.7460  0.9643
  926MOL0     H24978   0.823   5.331   5.385  3.4052  1.6650 -1.4077
  926MOL0     H24979   0.865   5.323   5.213 -1.6467  1.3884 -1.3686
  926MOL0     H24980   0.656   5.426   5.155 -1.4076  0.4221  0.5925
  926MOL0     H24981   0.727   5.520   5.283  0.5191  1.1464 -2.0133
  926MOL0     H24982   0.503   5.313   5.309 -0.4829  1.5943 -4.0804
  926MOL0     H24983   0.579   5.415   5.441  1.9528 -2.9296 -0.5474
  926MOL0     H24984   0.527   5.598   5.264  1.3000 -3.3979 -3.5660
  926MOL0     H24985   0.429   5.560   5.408 -0.6680 -2.2267  0.0579
  926MOL0     H24986   0.415   5.440   5.119  0.8483  2.1117 -0.7678
  926MOL0     H24987   0.287   5.415   5.226 -0.1069  0.2649 -1.0718
  926MOL0     H24988   0.362   5.696   5.123  0.2754  0.8479  2.0151
  926MOL0     H24989   0.255   5.658   5.262 -0.2624 -0.1399  0.3449
  926MOL0     H24990   0.183   5.557   4.977 -1.0403 -1.3604  1.2598
  926MOL0     H24991   0.140   5.709   5.048 -1.2267 -0.6040  0.3577
  926MOL0     H24992   0.633   4.932   5.317  2.6487 -0.0406  0.4890
  926MOL0     H24993   0.669   4.699   5.279 -1.7422  2.6520  2.5947
  926MOL0     H24994   0.924   4.426   4.976  0.9924  0.0800 -1.0444
  926MOL0     H24995   1.000   4.255   4.844 -0.2028 -1.1005 -0.5791
  926MOL0     H24996   1.389   2.551   4.151 -1.6611  1.2176 -0.6474
  926MOL0     H24997   1.555   2.538   3.973  1.8268 -0.0643 -0.8923
  926MOL0     H24998   1.778   2.817   3.629 -0.3936  1.5387 -0.1474
  926MOL0     H24999   1.960   2.923   3.524  1.0510  2.1499  1.9011
  926MOL0     H25000   2.336   2.685   3.542 -0.9766 -1.2723 -0.0614
  926MOL0     H25001   2.253   2.719   3.392 -0.2894 -3.6755  1.3449
  926MOL0     H25002   2.501   2.762   3.412  1.0311 -0.1726 -0.7038
  926MOL0     H25003   2.460   2.911   3.507  1.3567 -0.3875  0.5535
  926MOL0     H25004   2.353   3.003   3.312  1.1310  0.3466  1.6907
  926MOL0     H25005   2.352   2.843   3.234 -2.6829  4.4519 -1.0012
  926MOL0     H25006   2.529   2.996   3.144  2.0642 -1.9558 -0.7550
  926MOL0     H25007   2.593   2.855   3.204  2.9480  1.4639 -1.9145
  926MOL0     H25008   2.749   3.187   3.430  1.2180 -0.6254  0.1101
  926MOL0     H25009   2.222   2.670   3.741  1.0620  1.0597 -0.8056
  926MOL0     H25010   2.035   2.584   3.873  2.1315 -0.2280 -0.8744
  927MOL0     O25011   4.476   8.002   7.480  0.0931 -0.5277  0.0341
  927MOL0     C25012   4.506   7.887   7.506 -0.0134 -0.3715  0.8057
  927MOL0     O25013   4.609   7.846   7.584  0.0759  0.4738 -0.2555
  927MOL0     C25014   4.729   7.909   7.606 -0.6437 -0.3010 -0.7694
  927MOL0     C25015   4.773   8.025   7.534 -0.4944  0.2936  0.9131
  927MOL0     C25016   4.888   8.092   7.577 -0.2551  0.3938 -0.2022
  927MOL0     C25017   4.967   8.054   7.691  0.4510  0.3379  0.4161
  927MOL0     O25018   5.079   8.121   7.728 -0.0168  0.2515 -0.8868
  927MOL0     C25019   5.084   8.262   7.688  0.1631  0.9513  0.1001
  927MOL0     C25020   5.178   8.269   7.564 -0.4289 -0.1101  1.3947
  927MOL0     C25021   5.209   8.400   7.499  0.9864  0.3113 -0.7030
  927MOL0     C25022   5.351   8.404   7.439  0.4069 -0.6333 -1.1669
  927MOL0     C25023   5.398   8.541   7.421  0.2158 -0.4232  0.2298
  927MOL0     C25024   5.539   8.546   7.367 -0.7668 -0.1283 -0.4789
  927MOL0     C25025   5.581   8.679   7.294 -0.5485  0.6717 -0.5332
  927MOL0     C25026   5.734   8.651   7.257  0.4739  0.1741 -1.3923
  927MOL0     N25027   5.833   8.627   7.355 -0.4204 -0.2338  0.0958
  927MOL0     C25028   5.845   8.697   7.469 -0.3335 -0.7348  0.4505
  927MOL0     C25029   5.927   8.625   7.548  0.4767  0.8272 -0.6971
  927MOL0     C25030   5.954   8.660   7.693  0.6533  0.1236 -0.3425
  927MOL0     C25031   6.087   8.730   7.712  0.3485  1.2000 -0.2843
  927MOL0     C25032   6.070   8.871   7.690 -1.4118  0.8506  0.3571
  927MOL0     C25033   6.196   8.948   7.734 -0.4219  0.1000 -0.2912
  927MOL0     O25034   6.319   8.877   7.702 -0.4726  0.0862 -0.3898
  927MOL0     C25035   6.436   8.950   7.684 -0.3620  0.6720  0.1792
  927MOL0     C25036   6.543   8.889   7.620 -0.6019  0.5053  0.4567
  927MOL0     C25037   6.654   8.958   7.576  0.8429 -0.3934 -0.4563
  927MOL0     C25038   6.735   8.888   7.471  0.6554 -0.3626  0.1444
  927MOL0     C25039   6.671   9.094   7.602 -1.1916  0.1678  0.5805
  927MOL0     C25040   6.776   9.181   7.540  0.9474  0.1406 -0.6235
  927MOL0     O25041   6.866   9.131   7.454  0.2505 -0.1236 -0.0529
  927MOL0     C25042   6.971   9.195   7.403  0.1031  0.4659 -0.6104
  927MOL0     C25043   7.102   9.141   7.432  1.3421 -0.1512  0.9835
  927MOL0     C25044   7.214   9.209   7.392  0.6123 -0.2684 -0.0243
  927MOL0     C25045   7.197   9.333   7.316 -0.6984  0.1391  0.5400
  927MOL0     O25046   7.317   9.397   7.287 -0.8311 -0.6255  0.2571
  927MOL0     C25047   7.353   9.450   7.158  0.1556 -0.0806 -0.4553
  927MOL0     C25048   7.445   9.358   7.077 -0.0043  0.0983 -0.5143
  927MOL0     C25049   7.377   9.226   7.052  0.2387  0.4988 -0.5820
  927MOL0     C25050   7.471   9.130   6.980 -0.0811 -0.2523 -0.2954
  927MOL0     C25051   7.416   8.977   6.952 -0.2604  0.3386 -0.4327
  927MOL0     C25052   7.461   8.891   7.080  0.0631  0.6418  0.0208
  927MOL0     C25053   7.402   8.911   7.216 -1.4373 -0.2719  1.1623
  927MOL0     C25054   7.437   8.800   7.309  0.0452  0.2720  0.2867
  927MOL0    Cl25055   7.597   8.831   7.391 -0.2949  0.1005  1.1474
  927MOL0     C25056   7.063   9.385   7.295 -2.0792  0.8988 -0.1708
  927MOL0     C25057   6.957   9.322   7.342 -0.0650  0.4717  0.3389
  927MOL0     O25058   6.773   9.295   7.587  0.5152  0.3214  0.4889
  927MOL0     C25059   6.561   9.151   7.676 -0.4183 -0.4619  0.0429
  927MOL0     C25060   6.450   9.082   7.719  0.4017  0.7999  1.4445
  927MOL0     N25061   5.969   8.506   7.488  0.2648  0.1035  0.3526
  927MOL0     N25062   5.914   8.518   7.367 -1.0630 -0.5657 -0.0278
  927MOL0     C25063   4.918   7.943   7.762  0.4500 -0.2381 -0.9273
  927MOL0     C25064   4.807   7.872   7.719  1.3386  0.0736 -0.3538
  927MOL0     C25065   4.395   7.785   7.480 -0.1783  0.0746  0.2983
  927MOL0     C25066   4.403   7.656   7.533  0.1768 -0.0796 -0.1241
  927MOL0     C25067   4.315   7.557   7.491  0.4720 -0.5232  0.0552
  927MOL0     C25068   4.220   7.589   7.389  0.6464  0.2839  0.3641
  927MOL0     O25069   4.130   7.497   7.326 -0.1909 -0.4232 -0.7006
  927MOL0     C25070   4.179   7.364   7.339  0.5147  0.8569  0.1203
  927MOL0     C25071   4.133   7.270   7.229  0.1235  0.1138 -0.3828
  927MOL0     C25072   4.029   7.313   7.123 -0.5554  0.4812  0.2296
  927MOL0     C25073   4.001   7.203   7.011 -0.2868 -0.3698 -0.5111
  927MOL0     C25074   4.121   7.170   6.932  0.4422 -0.1299  0.0565
  927MOL0     C25075   4.221   7.152   6.880  0.0861  0.3609  0.9733
  927MOL0     C25076   4.213   7.714   7.337 -0.2833 -0.7152 -0.8102
  927MOL0     C25077   4.301   7.810   7.389  0.0583 -0.6669 -0.6874
  927MOL0     H25078   4.718   8.059   7.447 -2.0136 -0.8808  1.3632
  927MOL0     H25079   4.912   8.171   7.506  0.9281  0.2579  0.0215
  927MOL0     H25080   4.981   8.297   7.681 -0.3614 -0.5801 -0.0467
  927MOL0     H25081   5.120   8.329   7.767  0.4287 -1.9502  2.6101
  927MOL0     H25082   5.273   8.218   7.577 -0.6452 -1.0543 -0.4594
  927MOL0     H25083   5.146   8.204   7.483  0.9589 -2.3489  2.5592
  927MOL0     H25084   5.142   8.429   7.417 -0.9589  1.6835  1.2432
  927MOL0     H25085   5.190   8.479   7.573  0.4540  1.9933 -2.5249
  927MOL0     H25086   5.428   8.364   7.506  2.0261  0.1231 -2.5094
  927MOL0     H25087   5.355   8.341   7.350 -1.6570  1.1069 -2.5706
  927MOL0     H25088   5.326   8.596   7.360 -1.5376  0.1881  2.6825
  927MOL0     H25089   5.390   8.590   7.519 -3.3938 -0.0871 -0.0787
  927MOL0     H25090   5.603   8.519   7.451 -1.3089 -0.5530 -0.1871
  927MOL0     H25091   5.539   8.465   7.293 -1.2879  1.5800 -2.4396
  927MOL0     H25092   5.517   8.684   7.205 -2.4216  0.3298  0.7396
  927MOL0     H25093   5.575   8.764   7.362 -0.2571  0.6774 -0.5140
  927MOL0     H25094   5.776   8.736   7.202 -2.0875  0.2612 -3.3989
  927MOL0     H25095   5.733   8.572   7.182 -1.7254  1.1201 -2.4339
  927MOL0     H25096   5.806   8.799   7.471 -0.8125 -0.9039 -0.0097
  927MOL0     H25097   5.864   8.712   7.726 -0.2793 -2.6430  1.8969
  927MOL0     H25098   5.963   8.563   7.744  0.9768  1.4210  2.2233
  927MOL0     H25099   6.149   8.685   7.634 -1.5601  1.9645 -2.3790
  927MOL0     H25100   6.134   8.708   7.808 -0.3848 -0.0836 -0.2008
  927MOL0     H25101   5.985   8.907   7.749 -1.5442  0.1956  0.5741
  927MOL0     H25102   6.055   8.888   7.583  0.3840  0.2132 -0.0397
  927MOL0     H25103   6.186   8.959   7.842 -1.0273 -1.0123 -0.2148
  927MOL0     H25104   6.178   9.040   7.677  3.5901 -0.6150 -3.1350
  927MOL0     H25105   6.530   8.785   7.593 -2.4687  0.6321  0.7527
  927MOL0     H25106   6.700   8.786   7.450 -1.9031  0.1733  1.4156
  927MOL0     H25107   6.733   8.958   7.387 -0.4200 -0.3250  0.1877
  927MOL0     H25108   6.842   8.880   7.494  0.5764 -0.0375  0.6251
  927MOL0     H25109   7.119   9.044   7.477 -0.8820 -0.6453  0.8923
  927MOL0     H25110   7.316   9.180   7.414  0.6207 -0.3862 -0.2122
  927MOL0     H25111   7.268   9.488   7.100 -0.0201 -2.9863 -2.3382
  927MOL0     H25112   7.406   9.539   7.194 -2.3320  1.3315 -0.0448
  927MOL0     H25113   7.466   9.406   6.981 -0.2307  0.5137 -0.3551
  927MOL0     H25114   7.542   9.352   7.126 -2.0201 -0.7633  3.7843
  927MOL0     H25115   7.304   9.249   6.974  0.8874  0.5039 -1.2033
  927MOL0     H25116   7.343   9.175   7.143 -1.9509  0.2398 -1.4735
  927MOL0     H25117   7.502   9.172   6.884 -1.1095 -1.8538 -1.3825
  927MOL0     H25118   7.557   9.124   7.048 -0.6476  1.6614  0.6659
  927MOL0     H25119   7.452   8.921   6.865  1.1091  0.0716  0.2767
  927MOL0     H25120   7.308   8.963   6.941 -0.2034  1.1194 -2.3845
  927MOL0     H25121   7.452   8.786   7.050 -2.3727  1.6584 -3.3364
  927MOL0     H25122   7.570   8.890   7.085  0.1142 -1.7404 -0.2513
  927MOL0     H25123   7.296   8.915   7.191 -0.8165  0.4025 -1.6787
  927MOL0     H25124   7.433   9.007   7.259  0.7500 -0.4226  0.0450
  927MOL0     H25125   7.454   8.704   7.260 -2.3123 -0.0385 -0.0580
  927MOL0     H25126   7.358   8.789   7.385 -0.4139  1.2239 -0.0285
  927MOL0     H25127   7.067   9.484   7.250  2.7352 -0.2422 -3.0459
  927MOL0     H25128   6.856   9.358   7.327  0.4698  2.0422  0.4050
  927MOL0     H25129   6.564   9.252   7.714  1.3520 -2.2507  5.5383
  927MOL0     H25130   6.380   9.147   7.770  0.5293  2.7810 -0.7467
  927MOL0     H25131   4.982   7.912   7.843  0.8752  1.0602 -0.7425
  927MOL0     H25132   4.798   7.780   7.776 -0.3023  0.0029 -0.6728
  927MOL0     H25133   4.491   7.630   7.590  0.9917  3.1943  0.3115
  927MOL0     H25134   4.324   7.458   7.533  1.2925 -0.7834 -0.6894
  927MOL0     H25135   4.288   7.363   7.339  0.5737 -2.1035  0.5909
  927MOL0     H25136   4.140   7.323   7.432  1.4655 -3.3941 -1.1358
  927MOL0     H25137   4.102   7.176   7.275  2.5483 -1.2964 -1.4201
  927MOL0     H25138   4.224   7.264   7.169 -1.2253  2.1215 -2.8048
  927MOL0     H25139   4.066   7.404   7.074 -1.9828  1.2387  0.4976
  927MOL0     H25140   3.929   7.328   7.165 -0.3930  3.8430 -0.2706
  927MOL0     H25141   3.927   7.246   6.943  1.2612  0.4372 -1.7871
  927MOL0     H25142   3.961   7.112   7.056  1.0780 -0.9233 -0.3604
  927MOL0     H25143   4.313   7.123   6.833  0.4857  0.2960  1.7795
  927MOL0     H25144   4.132   7.734   7.268 -0.9191 -0.5742 -0.0385
  927MOL0     H25145   4.287   7.909   7.346  1.4334 -0.0377  0.2359
  928MOL0     O25146   6.869   8.570   6.486 -0.6916 -0.6912  0.0801
  928MOL0     C25147   6.963   8.502   6.507 -1.2459 -0.0613  0.2469
  928MOL0     O25148   7.050   8.450   6.416  0.1086 -0.0327  0.0901
  928MOL0     C25149   7.035   8.490   6.287  0.3638  0.2852 -0.3678
  928MOL0     C25150   6.936   8.431   6.217 -0.1703 -0.5117  0.7228
  928MOL0     C25151   6.896   8.491   6.099  0.5620  0.5441 -0.1357
  928MOL0     C25152   6.968   8.605   6.053  0.7291 -0.6739  0.7825
  928MOL0     O25153   6.915   8.675   5.943 -0.6134 -0.2617  0.1965
  928MOL0     C25154   6.997   8.775   5.877 -0.3123 -1.0935 -0.5449
  928MOL0     C25155   6.917   8.828   5.762 -0.1111  0.2184 -0.0857
  928MOL0     C25156   6.876   8.705   5.661 -0.6516 -0.0981 -0.5987
  928MOL0     C25157   6.772   8.747   5.556  0.4102 -0.3915  0.1416
  928MOL0     C25158   6.629   8.762   5.621  0.1586  0.4799  0.4040
  928MOL0     C25159   6.526   8.818   5.533 -1.0967  0.0424  0.0168
  928MOL0     C25160   6.392   8.835   5.592 -0.1263  0.5582 -0.8313
  928MOL0     C25161   6.281   8.874   5.490  1.0141  0.3957 -0.8297
  928MOL0     N25162   6.302   8.984   5.402  0.2628  0.4306  1.3279
  928MOL0     C25163   6.261   9.117   5.419  0.5109 -0.2127 -0.6863
  928MOL0     C25164   6.334   9.183   5.324  0.4946  0.3018 -0.0937
  928MOL0     C25165   6.345   9.327   5.299  0.0520  0.5241  0.1336
  928MOL0     C25166   6.215   9.408   5.322  0.3725 -0.4071 -0.7491
  928MOL0     C25167   6.247   9.552   5.287  0.0620  0.0268 -0.2739
  928MOL0     C25168   6.128   9.636   5.316 -0.0716  0.3247  0.0087
  928MOL0     O25169   6.104   9.623   5.461  1.0768  0.1575 -0.3348
  928MOL0     C25170   6.095   9.729   5.547  0.2418 -0.4495 -0.1879
  928MOL0     C25171   6.068   9.684   5.682 -0.1051 -0.4876 -0.6294
  928MOL0     C25172   6.020   9.785   5.771 -0.8187  1.5141 -0.1030
  928MOL0     C25173   5.993   9.734   5.908 -0.4070 -1.4967  0.0035
  928MOL0     C25174   6.004   9.918   5.729  0.8403 -0.4917  0.0932
  928MOL0     C25175   5.940  10.026   5.808 -0.1069 -1.1473  0.6602
  928MOL0     O25176   5.973  10.156   5.763  0.0160 -0.1554  0.5537
  928MOL0     C25177   5.913  10.261   5.827 -0.0684 -0.8309 -1.2053
  928MOL0     C25178   5.781  10.284   5.842  0.0293 -1.0399 -0.6271
  928MOL0     C25179   5.723  10.385   5.924 -1.0892 -0.0695 -0.1911
  928MOL0     C25180   5.816  10.471   5.994  0.3012  0.1213 -0.0177
  928MOL0     O25181   5.783  10.580   6.085  0.5750 -0.3441  1.0865
  928MOL0     C25182   5.684  10.533   6.179  0.1987  0.9794 -0.3290
  928MOL0     C25183   5.680  10.642   6.287 -0.5256 -0.2631 -0.9708
  928MOL0     C25184   5.798  10.642   6.395  0.4978  0.1909  0.2790
  928MOL0     C25185   5.764  10.699   6.534 -0.8866 -0.6969  0.0099
  928MOL0     C25186   5.878  10.686   6.630 -0.1552 -0.3236  0.3588
  928MOL0     C25187   5.822  10.738   6.771 -1.0097 -0.0139  0.3299
  928MOL0     C25188   5.939  10.758   6.867 -0.6228 -0.7654  0.2255
  928MOL0     C25189   6.006  10.634   6.932 -0.2273  0.1336 -0.2773
  928MOL0    Cl25190   5.907  10.554   7.052  0.5754  0.4138  0.5951
  928MOL0     C25191   5.949  10.459   5.975 -0.8149  0.4004  0.0732
  928MOL0     C25192   6.003  10.349   5.895 -0.2832 -0.5289  0.6637
  928MOL0     O25193   5.861   9.998   5.896 -0.3103 -0.4094 -0.3391
  928MOL0     C25194   6.032   9.958   5.595 -0.4427  0.1720 -0.4469
  928MOL0     C25195   6.083   9.862   5.507 -0.3764  0.7170  0.1247
  928MOL0     N25196   6.427   9.100   5.265  0.2403  1.2218  0.6719
  928MOL0     N25197   6.403   8.972   5.308  0.4304 -1.2289  0.0675
  928MOL0     C25198   7.087   8.648   6.118  0.3100  0.3125  0.0701
  928MOL0     C25199   7.117   8.585   6.237 -0.1447  0.3654  0.6900
  928MOL0     C25200   6.986   8.453   6.644 -0.1019 -0.0941  0.4572
  928MOL0     C25201   7.111   8.401   6.683  0.2853 -0.1210 -0.1371
  928MOL0     C25202   7.122   8.367   6.817  0.5880 -0.2887 -0.2088
  928MOL0     C25203   7.014   8.371   6.909  0.7525  0.4032 -0.0628
  928MOL0     O25204   7.029   8.332   7.042 -0.5818  0.1651 -0.2361
  928MOL0     C25205   7.146   8.388   7.108  0.3798 -0.5009  0.8396
  928MOL0     C25206   7.126   8.535   7.147 -0.1679 -0.5777  0.1472
  928MOL0     C25207   7.033   8.552   7.257  0.0803 -0.5943  0.3004
  928MOL0     C25208   7.039   8.701   7.313 -0.3013  0.9008 -0.1132
  928MOL0     C25209   7.008   8.809   7.216  0.4018 -0.7309  0.1698
  928MOL0     C25210   7.002   8.902   7.141 -0.8228 -1.3346 -0.3748
  928MOL0     C25211   6.896   8.428   6.871 -0.3647 -0.2122 -0.4809
  928MOL0     C25212   6.880   8.462   6.735  0.0110 -0.7148 -0.1231
  928MOL0     H25213   6.887   8.341   6.253  3.4470 -1.8684  2.7259
  928MOL0     H25214   6.817   8.445   6.041  0.9636  0.2258 -0.4318
  928MOL0     H25215   7.026   8.862   5.937  0.6547 -1.2248 -0.7987
  928MOL0     H25216   7.083   8.715   5.845  1.2191  0.7153 -0.0022
  928MOL0     H25217   6.833   8.885   5.805 -1.2131 -1.5494  0.1937
  928MOL0     H25218   6.968   8.909   5.708  1.2845 -2.2802 -2.7931
  928MOL0     H25219   6.970   8.671   5.615 -0.2830 -1.2361  0.8782
  928MOL0     H25220   6.834   8.621   5.717 -0.7585 -0.6104 -1.4399
  928MOL0     H25221   6.795   8.838   5.499 -1.7243 -0.7936 -1.5126
  928MOL0     H25222   6.765   8.661   5.489 -0.7170 -0.5702  0.4605
  928MOL0     H25223   6.596   8.667   5.665  1.0545  0.4976  1.1548
  928MOL0     H25224   6.635   8.834   5.703 -0.5547  3.3101 -1.8792
  928MOL0     H25225   6.565   8.917   5.506  1.0911 -0.8471 -0.3358
  928MOL0     H25226   6.519   8.748   5.449 -0.2889 -3.1669  2.4311
  928MOL0     H25227   6.377   8.744   5.652 -0.5794  3.6268  4.2833
  928MOL0     H25228   6.398   8.906   5.675 -1.3753  0.0283 -0.2587
  928MOL0     H25229   6.196   8.890   5.556  0.5072 -3.0945 -0.4115
  928MOL0     H25230   6.276   8.786   5.425  1.8075 -0.2049 -0.1132
  928MOL0     H25231   6.195   9.155   5.496  3.6940  1.5438  1.3829
  928MOL0     H25232   6.429   9.351   5.364  0.7962 -1.2827 -0.1031
  928MOL0     H25233   6.370   9.345   5.194  0.2071 -0.4709 -0.0050
  928MOL0     H25234   6.196   9.392   5.428  1.9924 -1.5077 -0.5838
  928MOL0     H25235   6.130   9.380   5.259  0.4209  1.1666 -1.5715
  928MOL0     H25236   6.289   9.559   5.187 -4.1666  3.7313 -2.1146
  928MOL0     H25237   6.323   9.585   5.359  2.3749 -3.5733 -0.8220
  928MOL0     H25238   6.045   9.600   5.256 -0.2464 -1.9333  1.4823
  928MOL0     H25239   6.149   9.741   5.293  2.3537  0.3273  1.8040
  928MOL0     H25240   6.063   9.577   5.700 -3.5424 -0.4683 -0.7617
  928MOL0     H25241   5.885   9.744   5.918 -1.1588 -6.1179 -0.9519
  928MOL0     H25242   6.024   9.630   5.923  1.4106 -1.5299 -3.1449
  928MOL0     H25243   6.033   9.800   5.985 -1.4376 -1.9317  0.9452
  928MOL0     H25244   5.704  10.223   5.796  1.8200 -1.2351 -3.6190
  928MOL0     H25245   5.617  10.407   5.934 -0.6481  1.3709  2.0912
  928MOL0     H25246   5.586  10.524   6.131 -0.4574 -0.2867  1.1476
  928MOL0     H25247   5.710  10.434   6.219  2.0221  1.4907 -0.1426
  928MOL0     H25248   5.668  10.745   6.252  0.8857  0.3663  0.3079
  928MOL0     H25249   5.585  10.615   6.335  0.9942 -1.2911  1.6131
  928MOL0     H25250   5.876  10.711   6.361 -1.2260  3.3097  2.1428
  928MOL0     H25251   5.834  10.539   6.400 -1.8341 -0.8508 -2.2674
  928MOL0     H25252   5.732  10.804   6.530 -4.0149 -1.4624  1.8172
  928MOL0     H25253   5.677  10.646   6.573 -1.9374 -0.2152 -1.5693
  928MOL0     H25254   5.966  10.744   6.599 -1.4280  1.4921  0.0297
  928MOL0     H25255   5.917  10.585   6.648  0.0050 -0.5348 -1.0621
  928MOL0     H25256   5.772  10.835   6.758 -0.6277 -0.0009 -1.2626
  928MOL0     H25257   5.742  10.676   6.813 -0.4815 -0.2927  0.9330
  928MOL0     H25258   5.891  10.813   6.949 -0.9947 -1.0955  0.2288
  928MOL0     H25259   6.011  10.829   6.823 -3.7174  1.5809 -1.4688
  928MOL0     H25260   6.105  10.655   6.974  0.1355  1.1902 -1.5813
  928MOL0     H25261   6.029  10.562   6.853 -0.0143 -0.4366  0.2884
  928MOL0     H25262   6.014  10.526   6.030  0.1060 -1.3892  1.2989
  928MOL0     H25263   6.108  10.332   5.876 -0.6798  0.1599 -2.8228
  928MOL0     H25264   6.020  10.057   5.553  4.2127  0.7953 -0.8830
  928MOL0     H25265   6.101   9.900   5.406 -0.3895  0.3669 -0.0101
  928MOL0     H25266   7.154   8.725   6.081  3.6258 -1.8568  1.0992
  928MOL0     H25267   7.191   8.630   6.304  0.8289  2.3443 -1.5724
  928MOL0     H25268   7.188   8.383   6.608 -1.3699  0.3120 -2.0212
  928MOL0     H25269   7.223   8.329   6.830  0.2436 -2.7501 -3.3259
  928MOL0     H25270   7.180   8.330   7.195  2.0488 -1.2569 -0.2725
  928MOL0     H25271   7.228   8.384   7.037 -1.3739  2.9951 -1.6774
  928MOL0     H25272   7.092   8.591   7.059 -3.6906 -3.5644 -0.6408
  928MOL0     H25273   7.219   8.588   7.171 -1.1036  1.0356  0.3879
  928MOL0     H25274   7.063   8.478   7.331  0.7762  2.9199  3.8750
  928MOL0     H25275   6.936   8.525   7.215 -0.2504  1.8775 -0.7059
  928MOL0     H25276   7.136   8.722   7.358 -0.6820  1.6326  0.4010
  928MOL0     H25277   6.967   8.714   7.395 -1.4657 -2.8157 -0.3817
  928MOL0     H25278   7.004   8.981   7.070 -2.1164 -2.1462 -1.3727
  928MOL0     H25279   6.821   8.441   6.948  1.6755 -0.0659  1.5929
  928MOL0     H25280   6.791   8.515   6.702  0.0417  0.2156  1.2487
  929MOL0     O25281   1.116   6.496   7.803 -0.2385  0.0390  0.2121
  929MOL0     C25282   1.023   6.480   7.713 -0.8040 -0.3371 -0.8156
  929MOL0     O25283   0.895   6.475   7.740  0.1472  0.1704  0.6420
  929MOL0     C25284   0.837   6.435   7.864  0.7337  0.5752 -0.3841
  929MOL0     C25285   0.899   6.362   7.962 -0.3416  0.4637  0.1956
  929MOL0     C25286   0.832   6.312   8.071  0.6587 -0.7849  0.3894
  929MOL0     C25287   0.690   6.334   8.078 -0.9386 -0.9073  0.8068
  929MOL0     O25288   0.622   6.273   8.184  0.2120  0.3955  0.1113
  929MOL0     C25289   0.551   6.374   8.268 -0.1936  0.8215  0.4188
  929MOL0     C25290   0.493   6.310   8.397  0.1256  0.5366  0.2227
  929MOL0     C25291   0.431   6.178   8.376  0.3083  0.5507 -0.1495
  929MOL0     C25292   0.338   6.128   8.501 -0.2888  0.1549  0.0323
  929MOL0     C25293   0.201   6.187   8.475 -0.8249 -0.1049  0.0566
  929MOL0     C25294   0.092   6.121   8.555  0.4723  0.3116 -0.2415
  929MOL0     C25295   0.136   6.081   8.700  0.2276 -0.1016  0.3969
  929MOL0     C25296   0.021   6.035   8.796 -0.1768  0.7174  0.5130
  929MOL0     N25297   0.084   5.948   8.895  0.3351 -0.6459 -0.0877
  929MOL0     C25298   0.048   5.817   8.911  0.4464 -1.1975 -0.5001
  929MOL0     C25299   0.116   5.787   9.025 -1.2164  0.4310  0.3662
  929MOL0     C25300   0.109   5.650   9.082  0.2426  0.8564  0.6005
  929MOL0     C25301   0.240   5.579   9.102 -0.6779 -0.3194 -0.5039
  929MOL0     C25302   0.232   5.461   9.196 -0.0739  0.5326 -0.6676
  929MOL0     C25303   0.354   5.365   9.196 -1.3407 -0.3239  1.0274
  929MOL0     O25304   0.484   5.424   9.160  0.3645  0.2222  0.0330
  929MOL0     C25305   0.522   5.430   9.029  0.0418  0.3929 -1.2928
  929MOL0     C25306   0.572   5.544   8.981 -0.7102  0.1972 -0.6423
  929MOL0     C25307   0.620   5.550   8.845 -0.0500  0.3170 -0.2757
  929MOL0     C25308   0.656   5.686   8.803  0.1043 -0.6224  0.1328
  929MOL0     C25309   0.618   5.430   8.757  0.6872  0.7410  0.0439
  929MOL0     C25310   0.664   5.420   8.620 -0.7960 -0.0873  0.0758
  929MOL0     O25311   0.651   5.524   8.544 -0.3893 -1.0104  0.2672
  929MOL0     C25312   0.718   5.524   8.423 -0.0148 -0.0541 -0.5006
  929MOL0     C25313   0.782   5.636   8.379 -0.0451  1.1673 -0.5813
  929MOL0     C25314   0.844   5.648   8.261 -0.9114  0.4728  0.5132
  929MOL0     C25315   0.823   5.543   8.162 -0.7921  0.5471  0.9929
  929MOL0     O25316   0.881   5.551   8.031  0.4866 -0.3896 -0.3879
  929MOL0     C25317   0.984   5.647   8.006  0.4297 -0.5217  0.2504
  929MOL0     C25318   1.024   5.654   7.862 -0.9352 -0.4650  0.4079
  929MOL0     C25319   1.154   5.565   7.845 -0.1012 -0.7389  0.0988
  929MOL0     C25320   1.193   5.556   7.704 -0.0780 -0.8224 -0.0854
  929MOL0     C25321   1.350   5.534   7.689 -0.4653  0.8359  0.3902
  929MOL0     C25322   1.384   5.528   7.535 -0.0026 -0.5710  0.5093
  929MOL0     C25323   1.521   5.487   7.517 -0.6585 -0.0046  0.6894
  929MOL0     C25324   1.578   5.525   7.375  0.3545  0.2645 -0.0688
  929MOL0    Cl25325   1.757   5.504   7.359  0.1906  0.4287 -0.3909
  929MOL0     C25326   0.752   5.431   8.199  0.4569  0.0698 -0.2183
  929MOL0     C25327   0.701   5.419   8.332  0.7243 -0.2073  0.2372
  929MOL0     O25328   0.726   5.315   8.596 -0.6274 -0.1345 -0.1562
  929MOL0     C25329   0.585   5.310   8.823  0.1469  0.4035 -0.1151
  929MOL0     C25330   0.544   5.315   8.958  0.8302  0.3823 -0.7822
  929MOL0     N25331   0.179   5.899   9.079 -0.2492  0.0477  0.3563
  929MOL0     N25332   0.164   5.996   8.999 -0.6541 -0.0980 -0.0963
  929MOL0     C25333   0.636   6.426   7.996  0.5757  0.4206  0.2459
  929MOL0     C25334   0.702   6.478   7.880 -1.1417  0.1015 -0.4336
  929MOL0     C25335   1.069   6.464   7.575 -1.2081  0.1218  0.4558
  929MOL0     C25336   1.183   6.519   7.532 -0.4218 -0.3603  1.0064
  929MOL0     C25337   1.229   6.486   7.399 -1.1556 -0.4024 -0.8451
  929MOL0     C25338   1.152   6.408   7.314 -0.4312 -0.1141  0.2889
  929MOL0     O25339   1.223   6.385   7.193 -0.0464 -0.4827  0.4467
  929MOL0     C25340   1.155   6.312   7.087  0.3219  0.6253  0.8208
  929MOL0     C25341   1.252   6.288   6.970  1.4658 -0.3831 -0.1230
  929MOL0     C25342   1.189   6.187   6.872  0.4131 -0.2848  0.4572
  929MOL0     C25343   1.282   6.113   6.774  0.7664  0.4118  0.1415
  929MOL0     C25344   1.209   6.012   6.701 -0.0504  0.7371 -0.3095
  929MOL0     C25345   1.151   5.944   6.614 -0.6044 -1.0059  0.8298
  929MOL0     C25346   1.029   6.362   7.353  0.1949 -0.0485  0.3390
  929MOL0     C25347   0.985   6.404   7.476  0.1563 -0.5713  0.9997
  929MOL0     H25348   1.000   6.323   7.964 -0.9539 -1.2333  2.3661
  929MOL0     H25349   0.872   6.254   8.154  2.3067 -0.1411  0.0822
  929MOL0     H25350   0.607   6.460   8.308  0.2733  0.4729  0.5295
  929MOL0     H25351   0.460   6.408   8.217 -0.6068 -2.3911 -1.2126
  929MOL0     H25352   0.579   6.276   8.455 -1.6496 -2.5700  1.2499
  929MOL0     H25353   0.436   6.381   8.457  1.1818  1.9080 -0.3377
  929MOL0     H25354   0.381   6.178   8.278 -1.7989  0.8735  0.8688
  929MOL0     H25355   0.511   6.103   8.379 -0.6897 -0.5127  2.4912
  929MOL0     H25356   0.338   6.018   8.496 -1.0185  0.2146 -3.1668
  929MOL0     H25357   0.385   6.157   8.596  1.0680 -1.2934 -0.1520
  929MOL0     H25358   0.215   6.291   8.505  0.2075 -0.4024  0.6637
  929MOL0     H25359   0.168   6.184   8.371 -0.2810  1.4051 -0.1750
  929MOL0     H25360   0.004   6.185   8.564 -2.1520 -2.9191 -1.3697
  929MOL0     H25361   0.055   6.028   8.513  0.3022  0.1661  0.2259
  929MOL0     H25362   0.202   5.995   8.688 -0.7279 -0.7495 -0.3859
  929MOL0     H25363   0.187   6.166   8.746  1.1921 -0.7608  0.5802
  929MOL0     H25364  -0.056   5.971   8.753  0.0102  1.7971 -1.5080
  929MOL0     H25365  -0.010   6.131   8.838 -1.3631  0.9926 -0.9451
  929MOL0     H25366  -0.018   5.755   8.850 -2.0845 -0.2918  1.1955
  929MOL0     H25367   0.069   5.646   9.184  0.9975 -0.4406  0.8686
  929MOL0     H25368   0.043   5.591   9.018  0.9502  2.0175 -1.2670
  929MOL0     H25369   0.305   5.652   9.150 -0.5033 -2.2231  2.3931
  929MOL0     H25370   0.284   5.542   9.009 -2.4906 -0.3169 -1.3918
  929MOL0     H25371   0.140   5.407   9.168  0.6318 -1.0603 -0.0328
  929MOL0     H25372   0.222   5.489   9.301 -0.4207 -3.4696  0.5457
  929MOL0     H25373   0.327   5.285   9.126 -0.3388 -1.9899  2.4840
  929MOL0     H25374   0.370   5.323   9.295 -0.3741  0.7604  1.3497
  929MOL0     H25375   0.569   5.627   9.050  3.3568  0.0836 -0.0562
  929MOL0     H25376   0.570   5.738   8.760 -1.2941 -0.9117  2.3896
  929MOL0     H25377   0.689   5.750   8.885 -0.8621 -1.3583  1.1323
  929MOL0     H25378   0.735   5.692   8.728  0.9526  1.6637  1.1239
  929MOL0     H25379   0.797   5.724   8.441 -0.3122 -0.5965  2.1619
  929MOL0     H25380   0.901   5.735   8.229  0.8561 -1.0863 -0.7698
  929MOL0     H25381   0.949   5.750   8.022  0.1952 -0.3672 -1.1361
  929MOL0     H25382   1.073   5.634   8.068 -0.1162 -0.0853  1.1378
  929MOL0     H25383   0.938   5.617   7.806 -0.4677 -1.5159  0.3522
  929MOL0     H25384   1.034   5.759   7.833 -1.7663 -1.0129 -2.1343
  929MOL0     H25385   1.127   5.463   7.874 -0.7143 -1.8600 -3.7489
  929MOL0     H25386   1.237   5.612   7.897 -0.2515  1.2339 -1.3353
  929MOL0     H25387   1.138   5.477   7.652 -1.0033 -1.3333  1.6040
  929MOL0     H25388   1.174   5.650   7.652 -0.2947 -1.5394 -1.3328
  929MOL0     H25389   1.366   5.431   7.724 -0.5470  0.7972  0.3132
  929MOL0     H25390   1.404   5.607   7.750 -2.2773  2.8051 -0.2357
  929MOL0     H25391   1.320   5.458   7.481  0.2331 -1.0323  0.8172
  929MOL0     H25392   1.372   5.631   7.500  1.5006 -1.2090 -2.1895
  929MOL0     H25393   1.540   5.381   7.537  0.4221 -0.3363 -1.7390
  929MOL0     H25394   1.595   5.539   7.580  2.1514  0.3833 -2.6208
  929MOL0     H25395   1.547   5.627   7.350 -4.1710 -0.4635  1.6291
  929MOL0     H25396   1.528   5.463   7.300  3.5422  0.2002 -2.3488
  929MOL0     H25397   0.733   5.347   8.134 -4.8994  0.0533  0.9035
  929MOL0     H25398   0.663   5.328   8.377 -1.0721  0.7542  0.7593
  929MOL0     H25399   0.565   5.216   8.774 -1.7885  0.0926  1.1817
  929MOL0     H25400   0.527   5.213   8.992 -0.5361  0.8035 -0.1037
  929MOL0     H25401   0.533   6.460   8.006 -0.0518 -1.4516  0.5131
  929MOL0     H25402   0.641   6.541   7.815  0.3370  1.9946 -0.0579
  929MOL0     H25403   1.250   6.575   7.597  0.8738 -1.9204  1.0734
  929MOL0     H25404   1.332   6.517   7.381 -0.3732 -3.7506 -3.1575
  929MOL0     H25405   1.112   6.216   7.118  2.9545  0.1454  3.4226
  929MOL0     H25406   1.076   6.376   7.048  2.1109  1.8761 -0.9878
  929MOL0     H25407   1.341   6.238   7.010  0.8464 -1.6553 -0.2869
  929MOL0     H25408   1.283   6.372   6.907 -2.8431  1.1408 -0.4857
  929MOL0     H25409   1.100   6.232   6.825  1.3758 -1.7160 -3.0938
  929MOL0     H25410   1.140   6.112   6.935 -0.1912 -1.0862 -0.9142
  929MOL0     H25411   1.357   6.059   6.833  1.9958 -0.3408 -1.9921
  929MOL0     H25412   1.326   6.180   6.700 -3.1689 -1.6019 -4.5329
  929MOL0     H25413   1.115   5.886   6.531  1.1696  0.2537 -0.9162
  929MOL0     H25414   0.961   6.305   7.290  1.5647 -1.2150 -0.1374
  929MOL0     H25415   0.886   6.377   7.512 -0.0801  0.9286  1.5465
  930MOL0     O25416   0.468   2.465   0.863  0.2843  0.4342 -0.4559
  930MOL0     C25417   0.518   2.571   0.907  0.6268  0.0801  0.8674
  930MOL0     O25418   0.466   2.697   0.887 -0.1476 -0.2299  0.3928
  930MOL0     C25419   0.357   2.706   0.805 -0.0353  0.1812  0.6595
  930MOL0     C25420   0.357   2.817   0.720  0.1428  0.5931  0.8555
  930MOL0     C25421   0.242   2.862   0.657  0.1658 -0.1159 -0.3028
  930MOL0     C25422   0.120   2.807   0.688 -1.0538  1.3722 -0.3183
  930MOL0     O25423   0.008   2.863   0.626  0.1963 -0.3514  0.1295
  930MOL0     C25424  -0.109   2.908   0.705  0.2118  1.0703  0.2615
  930MOL0     C25425  -0.243   2.852   0.638 -0.4119  0.3422 -0.0662
  930MOL0     C25426  -0.239   2.708   0.641  1.0553 -0.0328 -0.0449
  930MOL0     C25427  -0.377   2.656   0.600 -0.0018  0.3861  0.1158
  930MOL0     C25428  -0.402   2.659   0.447 -0.2981 -0.8239 -0.4086
  930MOL0     C25429  -0.470   2.781   0.381 -0.2425 -0.9112  0.2268
  930MOL0     C25430  -0.613   2.763   0.397  0.7691 -0.2306 -0.6740
  930MOL0     C25431  -0.696   2.826   0.290  0.6164  0.0886 -0.2501
  930MOL0     N25432  -0.833   2.785   0.308 -0.2506 -0.4643 -0.8835
  930MOL0     C25433  -0.900   2.701   0.229 -0.3914  0.2813 -0.9593
  930MOL0     C25434  -1.032   2.730   0.251  0.2750 -0.1929  0.2590
  930MOL0     C25435  -1.161   2.679   0.184 -0.5634 -0.5579 -0.1470
  930MOL0     C25436  -1.175   2.730   0.038 -0.5630  0.0528 -0.1066
  930MOL0     C25437  -1.314   2.773   0.000 -0.1830  0.2660  0.5787
  930MOL0     C25438  -1.401   2.661  -0.044  0.2144  0.7771  0.0996
  930MOL0     O25439  -1.401   2.563   0.066 -0.7167 -0.1748  0.1899
  930MOL0     C25440  -1.419   2.429   0.046 -0.1200  0.9142 -0.1013
  930MOL0     C25441  -1.418   2.346   0.157  0.6527 -0.5719 -0.2564
  930MOL0     C25442  -1.443   2.214   0.156  0.2304  0.7470  0.1653
  930MOL0     C25443  -1.470   2.151   0.293  0.3119  0.8569 -0.1439
  930MOL0     C25444  -1.478   2.153   0.028  0.0669 -0.0537  0.4046
  930MOL0     C25445  -1.534   2.014   0.001 -0.5532  0.0379 -1.0904
  930MOL0     O25446  -1.593   1.994  -0.121  0.3312  0.7214  0.0744
  930MOL0     C25447  -1.585   1.867  -0.177 -0.2361  0.3338  0.3565
  930MOL0     C25448  -1.700   1.798  -0.215  0.6783  0.3606  0.5990
  930MOL0     C25449  -1.700   1.671  -0.290  1.0242  0.4308  0.4363
  930MOL0     C25450  -1.579   1.602  -0.308 -0.4764  0.6918 -0.0412
  930MOL0     O25451  -1.572   1.475  -0.363  0.3590 -0.0684  0.2471
  930MOL0     C25452  -1.698   1.409  -0.387  0.2390  1.1062 -1.3150
  930MOL0     C25453  -1.676   1.279  -0.446 -0.2853 -0.3371  0.1494
  930MOL0     C25454  -1.796   1.184  -0.438  0.5293 -1.2475 -0.4105
  930MOL0     C25455  -1.772   1.054  -0.517 -0.7129 -0.4088  0.1034
  930MOL0     C25456  -1.637   0.984  -0.458  1.0175  0.1301 -0.0351
  930MOL0     C25457  -1.676   0.955  -0.311 -0.4648  0.5571  0.0098
  930MOL0     C25458  -1.582   0.849  -0.245 -0.2943  0.3368 -0.4118
  930MOL0     C25459  -1.561   0.887  -0.096  0.0586  0.0411  0.0933
  930MOL0    Cl25460  -1.721   0.842  -0.017 -0.0673  0.1707  0.1747
  930MOL0     C25461  -1.461   1.662  -0.260 -1.3169 -0.2385 -0.6465
  930MOL0     C25462  -1.469   1.787  -0.190  0.3635 -0.2407 -0.1778
  930MOL0     O25463  -1.549   1.942   0.100  0.3178 -0.0948  0.7892
  930MOL0     C25464  -1.459   2.234  -0.091 -1.1892 -0.2214 -0.7084
  930MOL0     C25465  -1.437   2.370  -0.077  0.2827 -0.5109 -0.5449
  930MOL0     N25466  -1.042   2.832   0.344  0.0148 -0.3843  0.0286
  930MOL0     N25467  -0.924   2.849   0.384  0.2782  0.5639  0.0552
  930MOL0     C25468   0.117   2.703   0.785 -0.5740 -0.2621 -0.3059
  930MOL0     C25469   0.232   2.652   0.844  0.1425  0.7042  0.2029
  930MOL0     C25470   0.626   2.549   0.999 -0.4998 -0.0985 -0.5337
  930MOL0     C25471   0.694   2.432   1.003  0.5479  0.4209  0.5256
  930MOL0     C25472   0.801   2.398   1.082  0.2366  0.5257  0.8623
  930MOL0     C25473   0.852   2.496   1.172 -0.0310 -0.4416 -0.3334
  930MOL0     O25474   0.966   2.473   1.238 -1.0132 -0.1465 -0.4609
  930MOL0     C25475   0.938   2.481   1.381  0.1236 -0.1702  0.0127
  930MOL0     C25476   1.037   2.578   1.442 -0.5741 -0.5171 -1.5456
  930MOL0     C25477   1.174   2.524   1.410 -1.0224 -0.3057 -0.4518
  930MOL0     C25478   1.265   2.541   1.530 -0.2831 -0.0322 -0.3248
  930MOL0     C25479   1.393   2.488   1.507 -1.4502  0.4347  0.1612
  930MOL0     C25480   1.506   2.445   1.483  1.1945 -0.2312  0.1847
  930MOL0     C25481   0.791   2.625   1.167  0.7506 -0.6581 -0.3892
  930MOL0     C25482   0.685   2.654   1.081  0.8216 -1.5724  0.4149
  930MOL0     H25483   0.452   2.858   0.688  0.4812 -2.7979 -3.3173
  930MOL0     H25484   0.248   2.949   0.593 -2.5329 -0.4023 -1.0390
  930MOL0     H25485  -0.101   2.870   0.808  0.1458 -3.9621 -1.3097
  930MOL0     H25486  -0.113   3.016   0.718  0.7958  1.2752 -1.0784
  930MOL0     H25487  -0.324   2.888   0.702 -1.3086  2.5971 -2.2856
  930MOL0     H25488  -0.266   2.892   0.539  1.9674 -0.4646 -1.0100
  930MOL0     H25489  -0.159   2.668   0.579  2.7877  3.3136 -0.2242
  930MOL0     H25490  -0.222   2.689   0.747 -1.9654  0.3481  0.6020
  930MOL0     H25491  -0.384   2.550   0.627  0.8149 -0.2113 -1.8765
  930MOL0     H25492  -0.460   2.706   0.650 -0.1660  2.2071 -1.8388
  930MOL0     H25493  -0.303   2.650   0.401  0.5477  0.0620  1.1504
  930MOL0     H25494  -0.457   2.569   0.419  0.2405 -0.7575 -1.7349
  930MOL0     H25495  -0.432   2.869   0.432  1.4924 -1.4900  0.0034
  930MOL0     H25496  -0.443   2.771   0.275 -0.3574  0.9923 -0.0098
  930MOL0     H25497  -0.636   2.657   0.406 -0.4177 -0.2165 -2.7752
  930MOL0     H25498  -0.641   2.805   0.494  1.9220 -2.1608  0.5601
  930MOL0     H25499  -0.662   2.803   0.188  1.4227  1.2285 -0.2586
  930MOL0     H25500  -0.678   2.934   0.294  0.8749  0.2121 -2.6871
  930MOL0     H25501  -0.856   2.642   0.149  0.1964  0.5351 -0.8264
  930MOL0     H25502  -1.155   2.569   0.185 -1.4649 -0.6144 -0.1004
  930MOL0     H25503  -1.243   2.714   0.246  1.6714  1.6719  1.7287
  930MOL0     H25504  -1.149   2.658  -0.039 -2.0392 -0.2749 -0.3342
  930MOL0     H25505  -1.110   2.817   0.031 -1.8449  1.1760  1.1996
  930MOL0     H25506  -1.311   2.836  -0.089 -0.5589 -1.2322 -0.5249
  930MOL0     H25507  -1.365   2.830   0.078 -2.9654 -3.2251  1.5828
  930MOL0     H25508  -1.374   2.615  -0.140 -3.7112 -0.2979 -0.6459
  930MOL0     H25509  -1.504   2.696  -0.052 -0.4326 -0.8737  0.8191
  930MOL0     H25510  -1.412   2.394   0.254  2.7809  2.8574 -1.9002
  930MOL0     H25511  -1.428   2.050   0.298  0.4367  0.8906 -0.5528
  930MOL0     H25512  -1.432   2.210   0.377 -0.4989  4.1803 -1.9471
  930MOL0     H25513  -1.576   2.136   0.319  0.4588 -0.4733 -0.2412
  930MOL0     H25514  -1.791   1.848  -0.182  1.2658 -0.2124  3.3930
  930MOL0     H25515  -1.790   1.620  -0.322  1.4347  1.0952 -1.9584
  930MOL0     H25516  -1.750   1.396  -0.292  1.7771 -1.4201 -0.7272
  930MOL0     H25517  -1.765   1.460  -0.458  0.3251  0.6050 -1.7592
  930MOL0     H25518  -1.655   1.303  -0.551 -1.9534 -0.6615 -0.2923
  930MOL0     H25519  -1.587   1.226  -0.411 -1.1512 -2.5731 -0.8152
  930MOL0     H25520  -1.881   1.232  -0.486  3.2263  3.4856 -1.0235
  930MOL0     H25521  -1.816   1.168  -0.332 -0.7642  1.6291 -0.1402
  930MOL0     H25522  -1.845   0.973  -0.513  1.8835 -2.8887  1.3822
  930MOL0     H25523  -1.754   1.089  -0.619 -1.5917 -0.2084  0.0134
  930MOL0     H25524  -1.556   1.057  -0.466  0.0410  1.2290 -0.0464
  930MOL0     H25525  -1.606   0.896  -0.515  2.3831  1.4150 -1.3886
  930MOL0     H25526  -1.675   1.044  -0.248  1.4008 -1.7775  3.6161
  930MOL0     H25527  -1.778   0.914  -0.306 -1.2267  2.1159 -1.3741
  930MOL0     H25528  -1.485   0.857  -0.295  1.5840 -1.1350  2.6995
  930MOL0     H25529  -1.628   0.750  -0.247  0.5027 -0.1131  1.3399
  930MOL0     H25530  -1.537   0.993  -0.083  0.5260 -0.0882  0.3260
  930MOL0     H25531  -1.480   0.834  -0.044 -1.8179 -0.6074  2.5426
  930MOL0     H25532  -1.372   1.603  -0.278 -0.8949 -0.1473  0.9957
  930MOL0     H25533  -1.383   1.833  -0.143 -0.5831 -1.1289  2.6277
  930MOL0     H25534  -1.484   2.188  -0.186 -1.4263 -3.8145  0.9557
  930MOL0     H25535  -1.429   2.419  -0.174  2.1015  0.1776 -0.0908
  930MOL0     H25536   0.023   2.652   0.803 -1.0896  0.4148 -1.0142
  930MOL0     H25537   0.229   2.587   0.931  0.7082  1.9658  1.2009
  930MOL0     H25538   0.665   2.361   0.927  2.1195  2.2912 -2.0109
  930MOL0     H25539   0.840   2.299   1.057  1.2669  1.4438 -1.4466
  930MOL0     H25540   0.840   2.522   1.408 -0.9414 -1.2372 -1.9782
  930MOL0     H25541   0.938   2.384   1.431  0.5989 -1.1339 -1.7990
  930MOL0     H25542   1.013   2.588   1.549  0.3188  1.9673 -1.5130
  930MOL0     H25543   1.028   2.669   1.381 -1.4784 -0.7253 -1.7259
  930MOL0     H25544   1.212   2.576   1.321  2.2485  1.8559  1.9681
  930MOL0     H25545   1.169   2.417   1.388  2.2999 -1.1758  2.1166
  930MOL0     H25546   1.225   2.489   1.618 -1.9736 -0.2216 -1.1590
  930MOL0     H25547   1.270   2.643   1.569  0.8944 -1.6310  4.3998
  930MOL0     H25548   1.604   2.402   1.487  1.9172  1.3779  0.5351
  930MOL0     H25549   0.823   2.717   1.214 -1.9900  1.8929 -3.0719
  930MOL0     H25550   0.660   2.759   1.073  2.2377 -1.2631 -0.2211
  931MOL0     O25551   0.346   9.712   6.258  0.0202 -0.0433  0.2894
  931MOL0     C25552   0.347   9.653   6.154  0.0791 -0.6253  0.3007
  931MOL0     O25553   0.327   9.519   6.138 -0.2089 -0.2830 -0.8351
  931MOL0     C25554   0.290   9.440   6.247  0.3941 -1.0530 -0.2563
  931MOL0     C25555   0.170   9.456   6.321 -0.0987 -0.6750  1.2572
  931MOL0     C25556   0.131   9.376   6.428  0.1675 -0.6459  0.0081
  931MOL0     C25557   0.218   9.278   6.479 -0.8838  1.3180  0.4966
  931MOL0     O25558   0.156   9.200   6.585  0.0567 -0.2263  0.0498
  931MOL0     C25559   0.226   9.081   6.639 -0.0772  0.3665 -0.2195
  931MOL0     C25560   0.143   8.989   6.724 -1.1884  0.3095  0.3660
  931MOL0     C25561   0.098   9.035   6.859  0.2372 -0.3720 -0.1676
  931MOL0     C25562  -0.011   9.143   6.851 -0.0281 -0.1648  0.8619
  931MOL0     C25563  -0.074   9.185   6.989 -0.8904  0.1107 -0.4484
  931MOL0     C25564  -0.200   9.264   6.974 -1.0995 -0.7993  0.2151
  931MOL0     C25565  -0.229   9.347   7.100  0.1385  0.7805 -0.5268
  931MOL0     C25566  -0.304   9.254   7.207  0.4385  0.7839 -0.4156
  931MOL0     N25567  -0.355   9.324   7.327  0.4359  0.3193 -0.3923
  931MOL0     C25568  -0.484   9.315   7.376  0.3246 -0.1663 -0.0352
  931MOL0     C25569  -0.491   9.420   7.457 -0.7432  0.4845  1.2207
  931MOL0     C25570  -0.614   9.475   7.520 -0.6905 -0.0552 -0.1914
  931MOL0     C25571  -0.639   9.410   7.661  0.0316 -0.9015  0.1507
  931MOL0     C25572  -0.679   9.506   7.775  0.4001  0.0414  0.3187
  931MOL0     C25573  -0.599   9.467   7.897 -0.4579  0.9817 -0.2408
  931MOL0     O25574  -0.673   9.541   8.000 -0.2641  0.6647  0.1337
  931MOL0     C25575  -0.629   9.535   8.130  0.4442  0.8763 -0.2748
  931MOL0     C25576  -0.698   9.619   8.222  0.8831  0.2032  0.2184
  931MOL0     C25577  -0.673   9.615   8.357 -0.0159 -0.0631  0.4293
  931MOL0     C25578  -0.770   9.697   8.445 -0.1645 -0.1594 -0.4436
  931MOL0     C25579  -0.556   9.549   8.402 -0.5533 -0.2400 -0.6513
  931MOL0     C25580  -0.514   9.556   8.547  0.6816  0.6570  0.1277
  931MOL0     O25581  -0.474   9.439   8.601 -0.4945  0.3300  1.0236
  931MOL0     C25582  -0.439   9.444   8.730  0.0753  0.6481 -0.0638
  931MOL0     C25583  -0.525   9.401   8.822 -0.1222 -0.0233 -0.7394
  931MOL0     C25584  -0.488   9.363   8.956 -0.5254 -0.5259 -0.6416
  931MOL0     C25585  -0.355   9.387   8.999  0.2215 -0.2633  0.6882
  931MOL0     O25586  -0.315   9.370   9.128  0.3415 -0.2623 -0.5782
  931MOL0     C25587  -0.369   9.459   9.222  0.1104  0.4147  0.1267
  931MOL0     C25588  -0.375   9.381   9.354  0.8813  0.7457 -0.8840
  931MOL0     C25589  -0.478   9.270   9.354 -0.0011 -0.2357 -0.5399
  931MOL0     C25590  -0.477   9.198   9.496  0.5810  0.4870  0.3707
  931MOL0     C25591  -0.534   9.055   9.477 -0.9828 -0.0504 -0.0156
  931MOL0     C25592  -0.533   8.960   9.589 -0.8471  0.7007 -0.0421
  931MOL0     C25593  -0.555   8.812   9.534  0.4880  0.3356 -0.3056
  931MOL0     C25594  -0.631   8.729   9.637  0.3521  0.1382  0.1385
  931MOL0    Cl25595  -0.789   8.813   9.684 -0.0416 -0.1232  0.4925
  931MOL0     C25596  -0.264   9.422   8.903  0.4355 -0.8792  0.3219
  931MOL0     C25597  -0.306   9.455   8.767 -0.3943 -0.1334  0.7189
  931MOL0     O25598  -0.499   9.667   8.597  0.2846 -0.4411  0.3371
  931MOL0     C25599  -0.471   9.480   8.310 -0.7024  0.5174  0.5418
  931MOL0     C25600  -0.512   9.471   8.173 -0.2131  0.1646 -0.2401
  931MOL0     N25601  -0.368   9.483   7.466  0.5882 -0.1649 -0.1277
  931MOL0     N25602  -0.281   9.414   7.394  0.1301  0.1438  0.3374
  931MOL0     C25603   0.344   9.266   6.415 -0.3449 -0.3435  0.9808
  931MOL0     C25604   0.376   9.341   6.294  0.6028  0.1168 -0.9800
  931MOL0     C25605   0.365   9.729   6.033  1.2168 -0.0500 -0.1451
  931MOL0     C25606   0.377   9.869   6.029 -0.3632 -0.3080 -0.3567
  931MOL0     C25607   0.375   9.939   5.906 -0.1644  0.3429  0.4824
  931MOL0     C25608   0.370   9.875   5.780  0.0060  0.9629 -0.1765
  931MOL0     O25609   0.390   9.946   5.669  1.0539  0.4640  0.0156
  931MOL0     C25610   0.370   9.881   5.538 -0.8788  0.5790  0.2951
  931MOL0     C25611   0.502   9.813   5.502  0.2070 -0.1290 -0.6173
  931MOL0     C25612   0.487   9.752   5.359  0.6118 -0.5964  0.2216
  931MOL0     C25613   0.589   9.638   5.331 -0.7926  0.7931 -0.0506
  931MOL0     C25614   0.560   9.581   5.199  0.4262 -0.2002  0.6653
  931MOL0     C25615   0.552   9.527   5.089  0.0120  0.8140  0.4270
  931MOL0     C25616   0.351   9.739   5.786  0.2862  0.3194  0.1037
  931MOL0     C25617   0.348   9.667   5.909 -0.7677 -0.8061  0.2038
  931MOL0     H25618   0.097   9.522   6.276  0.6037 -0.6087  0.1821
  931MOL0     H25619   0.034   9.387   6.476  0.1620  0.6390 -0.2674
  931MOL0     H25620   0.278   9.024   6.562 -0.9547  0.6542 -1.0368
  931MOL0     H25621   0.291   9.131   6.711 -0.1265 -0.3721  0.3564
  931MOL0     H25622   0.052   8.965   6.668 -0.6191  0.0817 -0.4777
  931MOL0     H25623   0.183   8.889   6.744 -0.6352  0.3637 -0.4066
  931MOL0     H25624   0.064   8.949   6.917  2.4680 -1.7600 -0.7898
  931MOL0     H25625   0.181   9.079   6.915 -0.1701  1.3342 -0.8485
  931MOL0     H25626   0.040   9.229   6.806 -1.1162 -0.2199 -0.5507
  931MOL0     H25627  -0.087   9.119   6.776 -1.0414 -1.4236  2.2390
  931MOL0     H25628  -0.085   9.091   7.044  1.8682 -2.2545 -3.5808
  931MOL0     H25629  -0.005   9.250   7.043 -0.6398 -0.1949 -0.4007
  931MOL0     H25630  -0.172   9.332   6.894  0.2376 -1.7811 -0.1966
  931MOL0     H25631  -0.286   9.211   6.933 -0.5489 -1.0086 -0.6985
  931MOL0     H25632  -0.140   9.398   7.136  1.2504 -1.5168  0.1627
  931MOL0     H25633  -0.308   9.419   7.074 -3.0076 -1.5907  1.6039
  931MOL0     H25634  -0.223   9.191   7.245 -0.3493  0.3237  0.5540
  931MOL0     H25635  -0.381   9.184   7.173 -0.3162  0.7623  1.2478
  931MOL0     H25636  -0.560   9.248   7.339 -1.0287  0.2132  1.9085
  931MOL0     H25637  -0.614   9.583   7.539  0.1917 -0.1584  0.4541
  931MOL0     H25638  -0.697   9.450   7.454 -1.0954 -1.3649  0.7826
  931MOL0     H25639  -0.548   9.362   7.696  0.2898  0.3072  1.2360
  931MOL0     H25640  -0.715   9.333   7.644 -0.1029 -0.6738 -0.2978
  931MOL0     H25641  -0.788   9.502   7.788  0.4951 -0.3115  1.0486
  931MOL0     H25642  -0.657   9.608   7.742  1.7068  0.3804  2.1332
  931MOL0     H25643  -0.493   9.493   7.889 -0.2421  0.3626  0.5057
  931MOL0     H25644  -0.611   9.360   7.913 -1.8083  1.5542  3.3683
  931MOL0     H25645  -0.760   9.700   8.185  2.1787  0.6673 -1.0592
  931MOL0     H25646  -0.710   9.785   8.470 -0.2918 -0.2636  0.2449
  931MOL0     H25647  -0.862   9.716   8.389 -0.8358 -0.0883  0.6624
  931MOL0     H25648  -0.799   9.650   8.540  1.8976 -0.4172  0.1164
  931MOL0     H25649  -0.628   9.399   8.789  0.2800 -1.2749 -1.9690
  931MOL0     H25650  -0.555   9.313   9.026 -0.3315 -3.7226 -2.5551
  931MOL0     H25651  -0.307   9.549   9.235  1.2545 -0.2963 -0.3050
  931MOL0     H25652  -0.469   9.500   9.201  0.8410  2.0277 -0.3746
  931MOL0     H25653  -0.272   9.349   9.372  1.7029  2.3523 -2.4271
  931MOL0     H25654  -0.409   9.437   9.442 -2.7093 -2.8670  0.3458
  931MOL0     H25655  -0.451   9.198   9.277  0.5035  0.4041 -0.9641
  931MOL0     H25656  -0.577   9.305   9.324  0.7565  1.2461 -1.3748
  931MOL0     H25657  -0.371   9.192   9.523  1.0707 -2.1726 -1.6808
  931MOL0     H25658  -0.525   9.251   9.579 -2.1087 -1.0949 -0.0552
  931MOL0     H25659  -0.468   9.009   9.403 -0.7506 -0.3575  0.3792
  931MOL0     H25660  -0.632   9.047   9.429  0.2688 -2.5788 -2.4063
  931MOL0     H25661  -0.433   8.964   9.633  0.3375  4.6884 -2.5966
  931MOL0     H25662  -0.609   8.998   9.658  1.8871  1.2935  2.8515
  931MOL0     H25663  -0.458   8.775   9.500 -0.6170 -1.2868 -1.9017
  931MOL0     H25664  -0.618   8.812   9.445 -2.6291 -0.6833  1.7090
  931MOL0     H25665  -0.561   8.727   9.721  2.4036  1.8912 -1.3936
  931MOL0     H25666  -0.643   8.626   9.602  0.0973  0.6979 -1.5247
  931MOL0     H25667  -0.160   9.412   8.930 -0.0935  0.5316  3.2365
  931MOL0     H25668  -0.220   9.470   8.702  0.3460  2.8825  2.1891
  931MOL0     H25669  -0.382   9.422   8.333 -0.3616 -0.1989 -2.2622
  931MOL0     H25670  -0.443   9.434   8.097 -2.0068  1.1066 -2.4500
  931MOL0     H25671   0.413   9.185   6.437 -0.6452 -0.2175  2.5242
  931MOL0     H25672   0.466   9.304   6.246  2.4737 -0.5846  2.6880
  931MOL0     H25673   0.378   9.926   6.122 -0.6681  2.0370 -1.6896
  931MOL0     H25674   0.387  10.047   5.911  1.6788  0.1226  1.5906
  931MOL0     H25675   0.281   9.820   5.523 -1.4950  1.4588  0.2646
  931MOL0     H25676   0.360   9.960   5.462  2.2619  0.0082 -0.8539
  931MOL0     H25677   0.517   9.730   5.572 -0.9000 -0.0871 -0.3036
  931MOL0     H25678   0.582   9.887   5.513  0.5282 -0.6312  0.5666
  931MOL0     H25679   0.489   9.828   5.280  2.9341  1.5830  2.1969
  931MOL0     H25680   0.394   9.695   5.359  1.2406 -1.8036 -2.7106
  931MOL0     H25681   0.574   9.567   5.413 -0.5509 -0.5483 -1.1378
  931MOL0     H25682   0.693   9.673   5.326  0.3905 -2.5180 -3.1513
  931MOL0     H25683   0.560   9.497   4.987 -3.0160  0.6709  0.1507
  931MOL0     H25684   0.345   9.683   5.693  0.0106  2.2232 -1.1091
  931MOL0     H25685   0.324   9.562   5.908  2.4635 -1.6434 -1.0045
  932MOL0     O25686   6.694   3.437   3.485  0.0491  0.1782 -0.7295
  932MOL0     C25687   6.770   3.365   3.416  0.2395  0.1171  1.3273
  932MOL0     O25688   6.736   3.234   3.367  0.2365 -0.2767  0.8311
  932MOL0     C25689   6.614   3.173   3.400 -0.0817  0.4995  0.4541
  932MOL0     C25690   6.569   3.156   3.532  1.0278  0.1343  0.2149
  932MOL0     C25691   6.442   3.110   3.563 -0.3480 -0.6138 -0.1431
  932MOL0     C25692   6.356   3.054   3.467  0.2704  0.0279 -0.0056
  932MOL0     O25693   6.239   2.992   3.496  0.2737  0.2798 -0.0873
  932MOL0     C25694   6.133   3.084   3.516  0.6257  0.0784  0.5857
  932MOL0     C25695   6.077   3.133   3.380  0.0466  0.5983 -0.0837
  932MOL0     C25696   6.141   3.254   3.319 -0.2638 -1.1880 -0.6815
  932MOL0     C25697   6.145   3.371   3.418 -0.3102  0.3194  0.2866
  932MOL0     C25698   6.179   3.508   3.359  0.6037  0.6340 -0.6921
  932MOL0     C25699   6.074   3.565   3.272  0.6501 -0.4582 -0.0551
  932MOL0     C25700   6.118   3.711   3.215  0.3332 -0.3130  0.7887
  932MOL0     C25701   6.135   3.814   3.331  0.0077  0.6767 -0.7223
  932MOL0     N25702   6.197   3.940   3.300 -0.4312 -0.1537 -0.4241
  932MOL0     C25703   6.308   3.954   3.223  0.2109 -0.4992  0.8870
  932MOL0     C25704   6.354   4.078   3.244 -0.5557 -0.2372 -1.1292
  932MOL0     C25705   6.482   4.144   3.195 -0.2264  0.3264  0.6051
  932MOL0     C25706   6.534   4.070   3.076  0.6507 -0.3581 -0.1502
  932MOL0     C25707   6.653   4.141   3.006 -0.1542  0.0654 -1.0904
  932MOL0     C25708   6.703   4.094   2.866  0.4093 -0.6313 -0.7502
  932MOL0     O25709   6.828   4.152   2.835  0.4397  0.2586 -0.6471
  932MOL0     C25710   6.868   4.124   2.702 -0.1328  1.0563  0.0321
  932MOL0     C25711   7.019   4.132   2.683 -0.0046 -0.0015  0.0087
  932MOL0     C25712   7.078   4.093   2.566  0.3185 -0.5974 -0.3777
  932MOL0     C25713   7.231   4.116   2.567 -0.4006 -0.4246  0.6382
  932MOL0     C25714   7.000   4.042   2.462  0.3079 -0.0592  0.1495
  932MOL0     C25715   7.070   3.995   2.335  0.2367  0.0287 -0.4031
  932MOL0     O25716   6.992   3.994   2.223  1.2204  0.0699  1.1852
  932MOL0     C25717   7.048   3.944   2.104  0.1405 -0.1278 -0.6313
  932MOL0     C25718   7.062   4.033   1.989 -0.6161 -0.1164  0.0385
  932MOL0     C25719   7.095   3.995   1.862 -0.3856 -0.3022 -0.6065
  932MOL0     C25720   7.112   3.857   1.837  0.9982 -0.9458  0.0090
  932MOL0     O25721   7.110   3.821   1.709 -0.7029 -0.5430  1.0949
  932MOL0     C25722   7.231   3.864   1.638  0.0875 -0.3656 -0.0427
  932MOL0     C25723   7.318   3.737   1.594 -0.1383 -0.2927 -0.0418
  932MOL0     C25724   7.451   3.783   1.535  0.2449 -0.0828 -0.9630
  932MOL0     C25725   7.536   3.669   1.497 -0.6294  0.5088  0.5584
  932MOL0     C25726   7.673   3.703   1.431 -0.2698 -0.3379  0.1124
  932MOL0     C25727   7.757   3.586   1.398 -1.6994 -0.3948  0.0332
  932MOL0     C25728   7.887   3.617   1.333 -0.3424 -0.3482  0.3499
  932MOL0     C25729   7.990   3.498   1.337  0.1263  0.3199  0.1908
  932MOL0    Cl25730   8.004   3.406   1.183 -0.8491 -0.0021  0.1255
  932MOL0     C25731   7.103   3.767   1.949  0.6090 -0.9779  0.9218
  932MOL0     C25732   7.082   3.819   2.077  0.2335  0.9438 -0.1559
  932MOL0     O25733   7.179   3.948   2.352 -0.5667  0.0434  0.2600
  932MOL0     C25734   6.863   4.041   2.474 -0.5920 -0.6124  0.2560
  932MOL0     C25735   6.800   4.076   2.597  0.6541  0.3241  0.2344
  932MOL0     N25736   6.249   4.146   3.309  0.0652  1.1548 -0.5835
  932MOL0     N25737   6.159   4.061   3.354  0.1207 -0.0811 -0.0130
  932MOL0     C25738   6.408   3.045   3.340 -0.5290  0.1368  0.1001
  932MOL0     C25739   6.530   3.115   3.306  0.7448  1.0510 -0.3085
  932MOL0     C25740   6.898   3.427   3.361 -0.7007  0.0227  0.3280
  932MOL0     C25741   6.942   3.555   3.363 -0.4894 -0.2154  1.0914
  932MOL0     C25742   7.068   3.606   3.310  0.3402  1.0467 -0.5110
  932MOL0     C25743   7.162   3.510   3.255  0.5021  0.1174  0.0707
  932MOL0     O25744   7.283   3.547   3.208  0.2195 -0.5601 -0.2645
  932MOL0     C25745   7.392   3.547   3.303 -0.5682 -0.6348 -0.1144
  932MOL0     C25746   7.485   3.657   3.266 -0.1227 -0.4618  0.0928
  932MOL0     C25747   7.429   3.789   3.224 -0.5119 -0.4570 -0.1861
  932MOL0     C25748   7.538   3.878   3.147  0.6285  0.4754 -0.2663
  932MOL0     C25749   7.656   3.910   3.223  0.2749  0.6564  0.3580
  932MOL0     C25750   7.761   3.937   3.278  0.2623  0.4891  0.0461
  932MOL0     C25751   7.114   3.369   3.264  0.0880 -1.0034  0.6607
  932MOL0     C25752   6.996   3.330   3.315  0.1423  0.1235 -0.6702
  932MOL0     H25753   6.635   3.176   3.615  1.9900 -1.6801 -0.0619
  932MOL0     H25754   6.387   3.129   3.654  0.1280  0.4901 -0.0710
  932MOL0     H25755   6.058   3.021   3.565 -2.8163  2.1103 -1.6792
  932MOL0     H25756   6.153   3.164   3.588  0.2341  1.9035 -1.2329
  932MOL0     H25757   6.070   3.053   3.305 -1.3367 -0.0716  0.7255
  932MOL0     H25758   5.973   3.157   3.401  0.7315  2.8101  1.0920
  932MOL0     H25759   6.246   3.227   3.302 -0.3048 -0.6046 -1.9518
  932MOL0     H25760   6.098   3.290   3.225  1.1442  1.5835 -0.3622
  932MOL0     H25761   6.052   3.396   3.470  0.6305  1.6940  1.3795
  932MOL0     H25762   6.219   3.354   3.497 -1.3721  0.8692  1.4324
  932MOL0     H25763   6.199   3.564   3.451  0.3573  0.6101 -0.6219
  932MOL0     H25764   6.272   3.491   3.306 -0.9459 -5.1385 -2.2430
  932MOL0     H25765   6.069   3.507   3.180 -0.7853 -0.6509  0.1328
  932MOL0     H25766   5.987   3.576   3.337  1.8433 -0.6396  1.6651
  932MOL0     H25767   6.213   3.692   3.163  0.5299  0.8500  0.6802
  932MOL0     H25768   6.048   3.767   3.152 -0.5011  0.1634  2.0990
  932MOL0     H25769   6.206   3.767   3.400  1.5497 -0.1878 -2.7791
  932MOL0     H25770   6.041   3.828   3.385 -0.1471  1.5051 -1.1905
  932MOL0     H25771   6.357   3.874   3.168 -0.4336 -1.1714  1.2739
  932MOL0     H25772   6.454   4.247   3.170 -0.6713 -0.3966 -2.2128
  932MOL0     H25773   6.555   4.136   3.276 -0.4548  0.4043  0.8177
  932MOL0     H25774   6.455   4.045   3.004  0.0392 -0.3915  0.5152
  932MOL0     H25775   6.577   3.975   3.110  1.7945  0.0465 -0.4326
  932MOL0     H25776   6.736   4.135   3.077 -1.0321  0.7861  0.0435
  932MOL0     H25777   6.627   4.246   2.993  2.6297  0.6095 -3.0868
  932MOL0     H25778   6.618   4.115   2.799 -2.7272 -0.4381  2.9628
  932MOL0     H25779   6.715   3.986   2.876 -1.8973 -0.8927 -0.1447
  932MOL0     H25780   7.074   4.160   2.772 -0.5682 -0.1729  0.4163
  932MOL0     H25781   7.273   4.134   2.666  3.7176  0.5324 -1.0827
  932MOL0     H25782   7.294   4.035   2.528 -0.8046 -1.6248  2.3359
  932MOL0     H25783   7.266   4.207   2.517  3.7539 -0.6981  2.5853
  932MOL0     H25784   7.048   4.137   2.013  0.5771  0.0900 -0.0948
  932MOL0     H25785   7.113   4.054   1.773 -1.1904  2.5485  0.9899
  932MOL0     H25786   7.204   3.916   1.545 -2.9172 -3.0380 -0.8357
  932MOL0     H25787   7.287   3.948   1.680  0.7076 -0.2815 -0.9954
  932MOL0     H25788   7.340   3.668   1.675 -1.5466 -0.2679  0.3940
  932MOL0     H25789   7.268   3.683   1.513  1.2662 -0.8530 -0.5555
  932MOL0     H25790   7.509   3.833   1.613  0.9689 -0.5139 -1.2166
  932MOL0     H25791   7.429   3.859   1.459 -2.0636 -0.3126 -0.6033
  932MOL0     H25792   7.556   3.606   1.584  0.3612 -1.0713 -0.7400
  932MOL0     H25793   7.484   3.612   1.419  0.3322  0.6537 -0.2119
  932MOL0     H25794   7.720   3.771   1.503  1.6011  0.2170 -1.5270
  932MOL0     H25795   7.652   3.757   1.338 -3.0312 -1.8454 -0.2594
  932MOL0     H25796   7.777   3.522   1.485  0.5818 -2.1984 -1.7010
  932MOL0     H25797   7.695   3.525   1.332 -2.8432 -0.5806  1.2433
  932MOL0     H25798   7.941   3.694   1.390  0.3345  0.4780 -1.2933
  932MOL0     H25799   7.871   3.656   1.232 -0.2426  1.3304  0.9464
  932MOL0     H25800   7.981   3.435   1.425  2.4517 -0.6314 -0.1959
  932MOL0     H25801   8.089   3.543   1.350 -1.1050  2.7214  1.9906
  932MOL0     H25802   7.116   3.660   1.935  2.2775 -0.6919  0.0481
  932MOL0     H25803   7.072   3.741   2.153  0.3983  0.3244 -0.7570
  932MOL0     H25804   6.800   4.006   2.393 -1.2931 -0.1399  0.5805
  932MOL0     H25805   6.693   4.058   2.600  0.8683 -3.9087 -4.1149
  932MOL0     H25806   6.346   2.985   3.272 -0.0378  1.5342 -1.6597
  932MOL0     H25807   6.568   3.118   3.204 -1.9667 -1.0793 -1.4998
  932MOL0     H25808   6.877   3.627   3.412 -1.1279 -0.9246  1.3073
  932MOL0     H25809   7.090   3.709   3.337 -0.4443  0.7843  1.3037
  932MOL0     H25810   7.348   3.576   3.398 -1.1073  0.0234 -0.5513
  932MOL0     H25811   7.441   3.450   3.308  0.4581 -0.3342 -2.5774
  932MOL0     H25812   7.555   3.625   3.189 -1.6835 -2.8594 -0.4525
  932MOL0     H25813   7.537   3.683   3.358  0.3835 -1.8134  0.2162
  932MOL0     H25814   7.391   3.837   3.314  0.2808 -1.8171  0.9142
  932MOL0     H25815   7.347   3.764   3.154 -0.4829 -2.3081  0.3718
  932MOL0     H25816   7.487   3.965   3.105 -0.1996  0.0205 -0.2238
  932MOL0     H25817   7.581   3.824   3.061  1.3779 -0.6805  0.8026
  932MOL0     H25818   7.854   3.950   3.330 -1.1447 -1.2408  3.3051
  932MOL0     H25819   7.187   3.300   3.224  0.8559 -0.1289  0.5149
  932MOL0     H25820   6.978   3.224   3.300 -2.0048  0.7826 -3.4316
  933MOL0     O25821   4.442   6.736   1.890 -0.0531 -0.6215 -0.5331
  933MOL0     C25822   4.349   6.687   1.832  0.3841 -0.4889 -0.1048
  933MOL0     O25823   4.327   6.697   1.702  0.1918 -0.0876  0.2763
  933MOL0     C25824   4.396   6.800   1.638 -0.4603  0.2727 -0.0202
  933MOL0     C25825   4.338   6.927   1.610 -1.1218  0.1074 -0.1067
  933MOL0     C25826   4.409   7.023   1.532  0.0442  0.9042  0.3830
  933MOL0     C25827   4.540   6.988   1.483 -0.3340  0.3361  0.3220
  933MOL0     O25828   4.596   7.079   1.400  0.1029 -0.3705  0.1301
  933MOL0     C25829   4.736   7.076   1.383 -0.7177 -0.3947  0.1999
  933MOL0     C25830   4.775   6.992   1.267 -0.7276  0.3407  0.3638
  933MOL0     C25831   4.798   7.086   1.134 -0.9219 -0.3172 -0.0265
  933MOL0     C25832   4.846   7.010   1.015  0.4631  0.6016 -0.2685
  933MOL0     C25833   4.980   7.061   0.964 -0.1274  0.5504  0.5287
  933MOL0     C25834   5.021   6.997   0.832 -0.4091  0.2428 -0.3622
  933MOL0     C25835   4.915   7.018   0.721 -0.2579 -0.4669 -0.3092
  933MOL0     C25836   4.958   6.975   0.581  1.3197  1.3131  0.0587
  933MOL0     N25837   4.857   6.959   0.477  1.0203 -0.3698 -0.6188
  933MOL0     C25838   4.756   6.874   0.490  0.5689  0.1759  0.6175
  933MOL0     C25839   4.664   6.911   0.395  0.8209 -0.0196 -0.1246
  933MOL0     C25840   4.525   6.864   0.383  0.5448  0.0744  0.2339
  933MOL0     C25841   4.508   6.756   0.276  0.4036 -0.1128 -0.9761
  933MOL0     C25842   4.368   6.736   0.220  0.3756 -0.4063  0.6765
  933MOL0     C25843   4.351   6.620   0.119 -1.1793  0.4426  0.3717
  933MOL0     O25844   4.216   6.583   0.113 -0.4384 -0.0133  0.0927
  933MOL0     C25845   4.181   6.497   0.008  0.6516  0.8889  0.6268
  933MOL0     C25846   4.055   6.443   0.023  0.1748  0.8257 -0.0128
  933MOL0     C25847   4.013   6.345  -0.074 -1.4668  1.2981  0.1359
  933MOL0     C25848   3.874   6.290  -0.064 -0.0006 -0.5446 -0.1014
  933MOL0     C25849   4.104   6.311  -0.182  0.5998  0.0005 -0.3486
  933MOL0     C25850   4.077   6.210  -0.295  0.1060  0.3087 -0.4998
  933MOL0     O25851   4.182   6.164  -0.355 -0.2212  0.2417  0.4952
  933MOL0     C25852   4.167   6.080  -0.460  0.5326  0.3230 -0.6286
  933MOL0     C25853   4.133   5.945  -0.447  0.0237  0.4475 -0.2197
  933MOL0     C25854   4.135   5.855  -0.553 -0.8284  1.1728  0.2520
  933MOL0     C25855   4.154   5.907  -0.682  0.1342  0.1464  1.2540
  933MOL0     O25856   4.169   5.823  -0.796  0.4479  0.2713  0.1537
  933MOL0     C25857   4.132   5.686  -0.790 -0.3611 -0.2138  0.2729
  933MOL0     C25858   4.165   5.630  -0.928  0.0314 -0.1750 -0.2429
  933MOL0     C25859   4.182   5.484  -0.939  0.1169  0.9042 -0.0623
  933MOL0     C25860   4.231   5.423  -1.072 -0.8778  0.3149 -0.1807
  933MOL0     C25861   4.292   5.279  -1.049  0.0645  0.0086 -0.7694
  933MOL0     C25862   4.196   5.192  -0.975  0.1292 -0.0336  0.6042
  933MOL0     C25863   4.253   5.059  -0.934  0.7708 -0.0708 -1.0719
  933MOL0     C25864   4.275   4.958  -1.033 -0.0764  0.6010  0.6256
  933MOL0    Cl25865   4.130   4.883  -1.099  0.3125  0.3542 -0.0140
  933MOL0     C25866   4.194   6.044  -0.705  0.4097  0.0796 -0.0602
  933MOL0     C25867   4.199   6.121  -0.590  1.2580 -0.3630 -0.2761
  933MOL0     O25868   3.961   6.179  -0.319 -0.5524  0.7838 -0.2671
  933MOL0     C25869   4.232   6.367  -0.179 -0.1310  0.1235 -1.3843
  933MOL0     C25870   4.267   6.462  -0.088  1.0158 -0.2285  0.0769
  933MOL0     N25871   4.717   7.012   0.321  0.5775  0.6245  0.8564
  933MOL0     N25872   4.831   7.032   0.366 -0.3910  0.5180  0.5784
  933MOL0     C25873   4.595   6.860   1.520 -1.2074  0.2650 -0.8396
  933MOL0     C25874   4.524   6.771   1.597  0.4561 -0.5015  0.4068
  933MOL0     C25875   4.248   6.624   1.912 -0.0359 -0.0240 -0.0126
  933MOL0     C25876   4.126   6.591   1.846 -0.0095  0.4503  0.3440
  933MOL0     C25877   4.028   6.521   1.912 -0.8322  0.2409  1.1403
  933MOL0     C25878   4.040   6.487   2.044  0.5153 -0.1257 -0.9226
  933MOL0     O25879   3.952   6.419   2.121 -0.4970 -0.6913  0.6013
  933MOL0     C25880   3.856   6.337   2.048 -0.6754 -0.0936  0.0077
  933MOL0     C25881   3.770   6.248   2.138  0.3106 -0.0178 -0.1804
  933MOL0     C25882   3.854   6.132   2.196  1.1988 -0.5056  1.1356
  933MOL0     C25883   3.762   6.027   2.258 -0.0736 -0.3147 -0.8046
  933MOL0     C25884   3.844   5.933   2.334 -0.1844  0.7456  0.0772
  933MOL0     C25885   3.924   5.856   2.382 -0.1023 -0.4957 -0.2078
  933MOL0     C25886   4.161   6.520   2.110  0.5569 -0.0107 -0.3557
  933MOL0     C25887   4.263   6.580   2.047 -0.6091  0.8926 -0.2945
  933MOL0     H25888   4.237   6.953   1.642  0.0074  3.1281  1.3967
  933MOL0     H25889   4.377   7.113   1.481  1.5801  0.3369 -1.7314
  933MOL0     H25890   4.777   7.175   1.367  1.8445 -1.2376  1.1545
  933MOL0     H25891   4.783   7.039   1.475  3.6671  0.1841 -1.5978
  933MOL0     H25892   4.871   6.944   1.287  0.0442  2.2828  1.6580
  933MOL0     H25893   4.691   6.925   1.246 -0.3467  0.4386 -1.7339
  933MOL0     H25894   4.703   7.128   1.100  0.3241  1.0728 -2.0082
  933MOL0     H25895   4.856   7.175   1.162 -0.1895 -0.7891 -0.0068
  933MOL0     H25896   4.865   6.904   1.030  1.3547  0.7756 -0.1385
  933MOL0     H25897   4.767   7.012   0.939  0.3318 -1.0943 -0.2094
  933MOL0     H25898   4.979   7.169   0.949  3.0490  0.9881  2.5127
  933MOL0     H25899   5.052   7.031   1.041  0.3568 -1.7179 -0.7259
  933MOL0     H25900   5.120   7.037   0.808  0.4723 -1.1077  0.8477
  933MOL0     H25901   5.031   6.890   0.855  0.5879  1.1741  4.8313
  933MOL0     H25902   4.817   6.975   0.745 -1.6020  2.3343 -0.3633
  933MOL0     H25903   4.891   7.125   0.728 -0.6067 -0.6778  3.6017
  933MOL0     H25904   5.003   6.876   0.590  1.0374  0.9784 -1.7167
  933MOL0     H25905   5.044   7.031   0.545  2.5770 -0.2243  0.5600
  933MOL0     H25906   4.729   6.809   0.573 -0.4273 -0.9186 -0.5200
  933MOL0     H25907   4.479   6.833   0.477 -0.7856 -1.6374 -0.9100
  933MOL0     H25908   4.476   6.952   0.340 -0.6455 -1.4829 -1.7915
  933MOL0     H25909   4.534   6.658   0.316 -1.2591  0.7221  2.5218
  933MOL0     H25910   4.575   6.793   0.197  2.7940  1.0250  1.4145
  933MOL0     H25911   4.333   6.825   0.166 -0.9995  0.5663  3.0018
  933MOL0     H25912   4.304   6.737   0.309 -0.2012  2.7634  0.3429
  933MOL0     H25913   4.418   6.536   0.140 -0.6137  0.7446 -0.1826
  933MOL0     H25914   4.400   6.662   0.030  1.2695 -1.3466  0.7388
  933MOL0     H25915   3.989   6.465   0.107 -0.3402 -1.7854  0.3421
  933MOL0     H25916   3.872   6.181  -0.051 -1.8496 -0.7956 -1.9501
  933MOL0     H25917   3.831   6.339   0.023  0.3870  0.1644 -0.3046
  933MOL0     H25918   3.804   6.316  -0.144 -1.1620 -0.4214  0.9241
  933MOL0     H25919   4.105   5.890  -0.358  0.6197  0.8036  0.1927
  933MOL0     H25920   4.120   5.749  -0.532  2.4124  0.8599  1.5899
  933MOL0     H25921   4.198   5.635  -0.719  0.6570  1.3325  0.4755
  933MOL0     H25922   4.027   5.672  -0.762 -0.4614  0.7736  0.4065
  933MOL0     H25923   4.091   5.658  -1.003  1.6259  2.8550 -0.8421
  933MOL0     H25924   4.260   5.671  -0.963  1.2161 -2.9749 -0.5540
  933MOL0     H25925   4.082   5.440  -0.929 -0.2747  1.6617 -0.5362
  933MOL0     H25926   4.256   5.447  -0.868  0.5935 -1.7108 -1.7704
  933MOL0     H25927   4.143   5.413  -1.136 -0.6296  1.0170 -0.6353
  933MOL0     H25928   4.306   5.478  -1.129  2.4963 -2.8970  0.7305
  933MOL0     H25929   4.384   5.297  -0.993  0.4621 -0.5961 -1.2105
  933MOL0     H25930   4.319   5.235  -1.146  1.4054 -1.4240  0.2084
  933MOL0     H25931   4.160   5.233  -0.880 -2.7915  1.9035 -1.1756
  933MOL0     H25932   4.118   5.178  -1.051 -0.8177  2.7169  0.9605
  933MOL0     H25933   4.192   5.021  -0.852  0.0991  1.1330 -0.9889
  933MOL0     H25934   4.350   5.091  -0.894 -1.2664  3.9976  1.3000
  933MOL0     H25935   4.343   4.879  -1.000 -0.6199  0.3018  1.0599
  933MOL0     H25936   4.332   5.001  -1.116  1.0945 -1.1319  0.4823
  933MOL0     H25937   4.196   6.093  -0.803  2.1923  0.7703  0.2830
  933MOL0     H25938   4.219   6.226  -0.605  1.1308 -0.5613 -2.0714
  933MOL0     H25939   4.303   6.341  -0.257  0.4614 -1.7527 -0.2771
  933MOL0     H25940   4.367   6.505  -0.099  1.8821 -0.7259  4.1685
  933MOL0     H25941   4.697   6.827   1.502 -1.8473 -1.9211 -0.7825
  933MOL0     H25942   4.569   6.679   1.633  0.0012 -0.7433  0.3776
  933MOL0     H25943   4.104   6.627   1.746 -0.0538  3.5740  1.3691
  933MOL0     H25944   3.941   6.484   1.858  1.9037 -2.3376 -1.9254
  933MOL0     H25945   3.783   6.399   1.996  1.3898  2.6125  0.1194
  933MOL0     H25946   3.908   6.276   1.974 -1.0650  1.4057 -1.5406
  933MOL0     H25947   3.694   6.205   2.072  0.0464 -0.6989  0.5505
  933MOL0     H25948   3.722   6.308   2.216 -1.3110  0.4686 -1.5003
  933MOL0     H25949   3.916   6.178   2.273  1.9394 -2.3569  1.7178
  933MOL0     H25950   3.923   6.085   2.124  0.6300  1.5343 -0.8549
  933MOL0     H25951   3.709   5.972   2.180 -0.3748 -0.8983 -0.1971
  933MOL0     H25952   3.685   6.071   2.321 -0.3837 -2.2332  0.2159
  933MOL0     H25953   3.975   5.771   2.422 -2.6409 -1.3924  1.3699
  933MOL0     H25954   4.163   6.489   2.214 -0.6921  0.6253 -0.1261
  933MOL0     H25955   4.354   6.588   2.105 -0.0441 -1.9139 -0.6579
  934MOL0     O25956   8.408   7.438   0.962  0.5974  0.4981 -1.1256
  934MOL0     C25957   8.332   7.487   0.876  0.3423  0.0465  0.2021
  934MOL0     O25958   8.206   7.453   0.850  0.0673  0.5113  0.3985
  934MOL0     C25959   8.147   7.367   0.936 -0.6406 -0.3323 -0.1547
  934MOL0     C25960   8.052   7.416   1.036 -0.7376  0.1228  0.6450
  934MOL0     C25961   7.986   7.332   1.123 -0.5197 -0.0957  0.0621
  934MOL0     C25962   8.032   7.202   1.129  0.8765 -0.4716  0.5149
  934MOL0     O25963   7.952   7.142   1.229  0.2387  0.2399 -0.4074
  934MOL0     C25964   7.949   6.996   1.249  0.9234  0.7640 -0.4202
  934MOL0     C25965   8.051   6.952   1.348  0.5655  1.0433 -0.2594
  934MOL0     C25966   8.050   6.811   1.403 -0.3725 -0.4499 -0.9640
  934MOL0     C25967   8.047   6.706   1.295 -0.4263  1.3497 -0.4219
  934MOL0     C25968   8.070   6.563   1.355 -0.7434 -0.4122  0.8608
  934MOL0     C25969   8.052   6.477   1.228  0.3512  0.3505  0.6692
  934MOL0     C25970   8.094   6.328   1.244  0.8447  0.4892 -0.6258
  934MOL0     C25971   8.028   6.256   1.359 -0.2515 -0.1525  0.3201
  934MOL0     N25972   8.066   6.120   1.388  0.1338 -0.2088 -0.5913
  934MOL0     C25973   8.183   6.087   1.445  0.0117  0.1470 -0.1942
  934MOL0     C25974   8.190   5.950   1.446 -0.4003 -0.6761  0.4201
  934MOL0     C25975   8.300   5.851   1.486 -0.4368 -0.6041 -1.2706
  934MOL0     C25976   8.267   5.774   1.612  0.1469 -0.4470 -0.6543
  934MOL0     C25977   8.307   5.844   1.740 -0.0124 -0.2031  0.4648
  934MOL0     C25978   8.441   5.793   1.780  1.2865 -0.0256  0.0527
  934MOL0     O25979   8.458   5.839   1.906 -0.4134 -0.2255  0.1823
  934MOL0     C25980   8.581   5.804   1.957 -0.6230  1.3566  0.4185
  934MOL0     C25981   8.618   5.879   2.076  1.3843  0.4304  0.4842
  934MOL0     C25982   8.726   5.843   2.155  0.7343  0.4928  0.9150
  934MOL0     C25983   8.734   5.894   2.295  0.2411 -0.3623 -0.3913
  934MOL0     C25984   8.819   5.743   2.107  0.1662 -1.7846 -0.4255
  934MOL0     C25985   8.946   5.701   2.178 -0.5856 -0.3452  0.5224
  934MOL0     O25986   8.998   5.570   2.162  0.4997 -0.0919 -0.3904
  934MOL0     C25987   9.121   5.540   2.222  0.5634 -0.2630 -1.0094
  934MOL0     C25988   9.127   5.437   2.315  0.7727  0.2646  0.0670
  934MOL0     C25989   9.246   5.401   2.380 -0.5048 -0.0403 -0.8230
  934MOL0     C25990   9.368   5.449   2.342  0.6430 -0.0810  0.3492
  934MOL0     O25991   9.473   5.413   2.415 -0.2219  0.6616  0.4241
  934MOL0     C25992   9.604   5.442   2.341  0.7884  0.2594 -0.1956
  934MOL0     C25993   9.716   5.407   2.439 -0.4093 -0.3037  0.2743
  934MOL0     C25994   9.735   5.254   2.458 -0.1167 -0.6648  0.2050
  934MOL0     C25995   9.802   5.177   2.338 -0.8188  0.7050  0.0571
  934MOL0     C25996   9.848   5.040   2.372  0.5809  0.7912 -0.5609
  934MOL0     C25997   9.987   5.038   2.434 -0.6895 -0.0675 -0.9310
  934MOL0     C25998   9.999   4.919   2.542  0.8285  0.2420 -0.0209
  934MOL0     C25999  10.105   4.961   2.647  0.9637 -0.0603 -0.2050
  934MOL0    Cl26000  10.019   5.016   2.787  0.2552 -0.0308 -0.1433
  934MOL0     C26001   9.364   5.552   2.239  0.7559 -0.5756  0.1197
  934MOL0     C26002   9.240   5.594   2.182  0.0483  0.1482  0.4347
  934MOL0     O26003   9.009   5.790   2.237  0.2094 -0.0344 -0.0002
  934MOL0     C26004   8.787   5.667   1.996  0.3525  0.9443 -0.3167
  934MOL0     C26005   8.670   5.697   1.917  0.1253  0.0054  0.0617
  934MOL0     N26006   8.068   5.901   1.390 -0.0547 -0.2309 -0.3306
  934MOL0     N26007   7.999   6.005   1.357  1.1809 -0.2114 -0.0261
  934MOL0     C26008   8.132   7.147   1.046  1.0255 -0.2638  0.0426
  934MOL0     C26009   8.179   7.229   0.940 -0.2099 -0.1210 -0.0194
  934MOL0     C26010   8.380   7.598   0.791 -0.3803 -0.6342 -0.7860
  934MOL0     C26011   8.293   7.691   0.737 -0.3455 -0.4720  0.2246
  934MOL0     C26012   8.333   7.800   0.660 -0.2314 -0.3529 -0.0202
  934MOL0     C26013   8.468   7.829   0.643 -0.1555  0.7078 -0.9000
  934MOL0     O26014   8.506   7.931   0.569  0.8281 -0.4100 -0.2245
  934MOL0     C26015   8.453   7.957   0.434 -0.5505 -0.8453  0.3917
  934MOL0     C26016   8.494   8.108   0.401 -0.5710 -0.5599 -0.6766
  934MOL0     C26017   8.395   8.210   0.458  0.0611 -0.1482  0.3630
  934MOL0     C26018   8.414   8.355   0.415  0.3745  1.3436 -0.7744
  934MOL0     C26019   8.309   8.440   0.455 -0.0341  0.1013 -0.3719
  934MOL0     C26020   8.219   8.524   0.484  0.1028  0.5178 -0.0915
  934MOL0     C26021   8.561   7.745   0.700  0.5638 -0.1349 -0.2284
  934MOL0     C26022   8.518   7.627   0.763 -0.3246 -0.3523  0.0190
  934MOL0     H26023   8.048   7.524   1.033  4.5669  0.5503 -1.2041
  934MOL0     H26024   7.908   7.359   1.194  0.0352 -1.3661  1.2004
  934MOL0     H26025   7.848   6.985   1.291  1.4913  1.1023  1.0769
  934MOL0     H26026   7.950   6.934   1.158 -0.8221 -0.3725  0.2849
  934MOL0     H26027   8.150   6.963   1.303  0.4235 -0.7652 -1.0916
  934MOL0     H26028   8.038   7.028   1.426  0.1518  0.5609  0.1475
  934MOL0     H26029   8.130   6.791   1.475 -1.1491  0.4972  0.1981
  934MOL0     H26030   7.957   6.807   1.461 -0.1326  5.5405  0.4529
  934MOL0     H26031   7.955   6.695   1.236  0.9750 -1.0218 -2.3748
  934MOL0     H26032   8.121   6.739   1.221 -0.3653 -0.0197 -0.9994
  934MOL0     H26033   8.171   6.551   1.395  0.1638  0.0494 -1.1439
  934MOL0     H26034   7.996   6.540   1.432  1.6328 -0.3863  3.2999
  934MOL0     H26035   7.945   6.471   1.206  0.2033  1.2274  1.1161
  934MOL0     H26036   8.104   6.525   1.145 -0.8780 -2.3557 -1.8391
  934MOL0     H26037   8.074   6.279   1.148 -0.4167  0.9222 -0.6097
  934MOL0     H26038   8.203   6.329   1.256  0.7949  1.1860 -0.1481
  934MOL0     H26039   7.919   6.254   1.350 -0.2394 -0.4593  0.2589
  934MOL0     H26040   8.054   6.317   1.447 -1.9136 -0.0399  0.7530
  934MOL0     H26041   8.261   6.159   1.466 -2.9854  2.6233  4.1585
  934MOL0     H26042   8.300   5.782   1.400  1.3920 -0.3875 -1.4904
  934MOL0     H26043   8.401   5.891   1.500 -1.1428  1.1783 -1.1066
  934MOL0     H26044   8.310   5.675   1.597  0.5260 -0.3619 -0.1368
  934MOL0     H26045   8.158   5.774   1.621 -0.0159  2.8013 -1.5245
  934MOL0     H26046   8.241   5.822   1.824  0.6133  0.4825  1.1459
  934MOL0     H26047   8.308   5.952   1.724  0.1145 -0.0839  1.2348
  934MOL0     H26048   8.512   5.837   1.710 -0.9634  1.1325 -1.6685
  934MOL0     H26049   8.434   5.684   1.773  2.7115 -0.1009 -0.5699
  934MOL0     H26050   8.544   5.952   2.107 -0.6523 -1.6418  0.8323
  934MOL0     H26051   8.731   5.804   2.357 -2.4449 -0.0364  0.0467
  934MOL0     H26052   8.832   5.941   2.310 -0.9062  1.1602  3.4567
  934MOL0     H26053   8.653   5.954   2.337 -0.5932 -4.1758  4.2352
  934MOL0     H26054   9.030   5.393   2.337  0.9582  0.9472  2.5902
  934MOL0     H26055   9.241   5.331   2.463 -2.7563  1.0067  0.0120
  934MOL0     H26056   9.614   5.377   2.254 -0.6893  1.6588 -1.4826
  934MOL0     H26057   9.621   5.544   2.305  0.5959  1.4043  2.6808
  934MOL0     H26058   9.808   5.450   2.398 -0.0685 -1.0342  0.2716
  934MOL0     H26059   9.704   5.454   2.538 -2.7263 -0.5677  0.1547
  934MOL0     H26060   9.632   5.216   2.461  0.3940 -2.0844  0.2628
  934MOL0     H26061   9.789   5.234   2.550  2.1967  2.4435 -0.3347
  934MOL0     H26062   9.744   5.178   2.245  1.8082 -1.7357 -1.7706
  934MOL0     H26063   9.893   5.234   2.319 -0.8520  0.5201 -0.6693
  934MOL0     H26064   9.857   4.982   2.279  1.6245 -3.6668  2.0162
  934MOL0     H26065   9.778   4.975   2.426  2.2500 -2.5457 -2.0770
  934MOL0     H26066  10.067   5.019   2.361  0.0892 -1.6412  0.2792
  934MOL0     H26067  10.000   5.136   2.479  1.4863 -0.0364 -1.5186
  934MOL0     H26068  10.024   4.826   2.490 -0.1347 -0.6940  1.1298
  934MOL0     H26069   9.911   4.905   2.606  0.9769 -0.3601  0.0565
  934MOL0     H26070  10.175   5.034   2.606  1.0511 -0.5311 -0.9028
  934MOL0     H26071  10.160   4.875   2.687 -0.1060 -0.5814  0.2003
  934MOL0     H26072   9.454   5.599   2.201  0.0833  0.2745 -0.4526
  934MOL0     H26073   9.238   5.676   2.111 -3.5865  0.1065  0.3182
  934MOL0     H26074   8.858   5.591   1.964  0.5518  1.1298 -0.3212
  934MOL0     H26075   8.641   5.635   1.833 -0.6546 -1.0378  1.0682
  934MOL0     H26076   8.161   7.042   1.051 -0.8838 -0.9754 -2.1544
  934MOL0     H26077   8.246   7.188   0.865 -0.2747 -0.6478  0.2055
  934MOL0     H26078   8.186   7.678   0.745 -0.1949 -0.7916  2.1671
  934MOL0     H26079   8.253   7.865   0.626  0.5292 -0.5931 -2.4448
  934MOL0     H26080   8.507   7.890   0.367 -0.8268 -0.7359  0.0585
  934MOL0     H26081   8.348   7.938   0.408 -0.0382 -3.0106 -0.3105
  934MOL0     H26082   8.493   8.126   0.293  1.2767  1.0146 -0.4818
  934MOL0     H26083   8.592   8.131   0.445 -0.7103  5.4544 -2.5452
  934MOL0     H26084   8.371   8.200   0.564 -0.1780  3.4080  0.7632
  934MOL0     H26085   8.299   8.182   0.412 -0.4560 -0.4717  1.6113
  934MOL0     H26086   8.421   8.352   0.306  1.3517 -0.9105 -0.7052
  934MOL0     H26087   8.507   8.387   0.463  1.3870  0.3696 -2.0109
  934MOL0     H26088   8.135   8.589   0.498  0.8719  1.1649  1.9006
  934MOL0     H26089   8.666   7.768   0.687  0.7541 -0.7880  0.0826
  934MOL0     H26090   8.586   7.559   0.813  0.4251  1.1204  1.0560
  935MOL0     O26091   6.302  11.304   3.153 -0.6336 -0.3857 -0.0732
  935MOL0     C26092   6.425  11.300   3.177 -0.4492 -0.7072  0.5112
  935MOL0     O26093   6.520  11.224   3.109  0.0347 -0.2084  0.1666
  935MOL0     C26094   6.486  11.159   2.991  0.8020  0.1245  0.9218
  935MOL0     C26095   6.376  11.183   2.905  1.0352  0.0609  0.7296
  935MOL0     C26096   6.351  11.111   2.793 -0.0264 -0.1346  0.7062
  935MOL0     C26097   6.431  10.993   2.772  0.7704 -0.3352  0.4084
  935MOL0     O26098   6.395  10.911   2.668  0.4745  0.2200 -0.0203
  935MOL0     C26099   6.401  10.767   2.686  0.6257  0.8256  0.5577
  935MOL0     C26100   6.276  10.705   2.750 -0.7997 -0.4176  0.5338
  935MOL0     C26101   6.256  10.694   2.902 -0.0911 -1.2922 -0.4792
  935MOL0     C26102   6.353  10.612   2.969 -0.3614  0.4294  0.0427
  935MOL0     C26103   6.334  10.588   3.117 -1.2234  1.0163  0.5438
  935MOL0     C26104   6.310  10.705   3.202  0.8762 -0.4002 -0.3772
  935MOL0     C26105   6.432  10.805   3.211  1.1042 -0.3392  0.3831
  935MOL0     C26106   6.397  10.931   3.283 -0.4736 -0.0330  0.5056
  935MOL0     N26107   6.448  10.930   3.421 -0.1068 -0.2014 -0.2776
  935MOL0     C26108   6.499  11.036   3.484 -0.6447  0.2792  0.4457
  935MOL0     C26109   6.530  11.004   3.613 -0.2808 -1.1512 -1.0665
  935MOL0     C26110   6.579  11.098   3.718  0.4061 -0.8911 -0.2084
  935MOL0     C26111   6.734  11.109   3.737 -0.5524 -0.1736  0.1500
  935MOL0     C26112   6.801  11.147   3.605 -0.4754  0.2501 -2.4968
  935MOL0     C26113   6.753  11.280   3.554  0.7736  0.3710  0.7344
  935MOL0     O26114   6.839  11.354   3.470  0.4228  0.3667 -0.1016
  935MOL0     C26115   6.922  11.456   3.521 -0.8656  0.1806 -0.3690
  935MOL0     C26116   6.934  11.485   3.663  0.0641  0.0787  0.5426
  935MOL0     C26117   7.027  11.585   3.707  0.3558 -0.5171  0.9592
  935MOL0     C26118   7.028  11.621   3.857 -0.4718 -0.9430 -0.1775
  935MOL0     C26119   7.113  11.651   3.610  0.8276  0.1701 -0.2416
  935MOL0     C26120   7.212  11.756   3.648  0.1343  0.9145  0.0640
  935MOL0     O26121   7.191  11.838   3.752  0.2162 -0.3575  0.1707
  935MOL0     C26122   7.294  11.905   3.816  0.0591 -0.2228  0.7883
  935MOL0     C26123   7.262  12.020   3.890 -0.4268 -0.3175  0.0472
  935MOL0     C26124   7.357  12.104   3.951 -0.9661 -0.1995 -0.2360
  935MOL0     C26125   7.502  12.072   3.946  0.3564 -0.6417 -0.3796
  935MOL0     O26126   7.608  12.132   4.004  0.6118 -0.1807  0.0691
  935MOL0     C26127   7.613  12.277   3.986 -0.2747  0.4660  1.2131
  935MOL0     C26128   7.668  12.328   3.851 -0.6186  1.2514 -0.1713
  935MOL0     C26129   7.670  12.483   3.834 -0.2460 -0.2129  0.0489
  935MOL0     C26130   7.536  12.525   3.766 -0.3072 -0.7115  0.5621
  935MOL0     C26131   7.512  12.678   3.796 -0.7978 -0.2353 -0.4890
  935MOL0     C26132   7.627  12.760   3.742  0.1497 -0.8491 -0.4228
  935MOL0     C26133   7.637  12.901   3.798 -0.0813 -0.3382  0.5828
  935MOL0     C26134   7.772  12.955   3.761  0.5241 -0.1387 -0.0407
  935MOL0    Cl26135   7.770  13.131   3.754 -0.1014 -0.2260  0.2175
  935MOL0     C26136   7.531  11.947   3.886 -0.6153 -0.4796  0.0042
  935MOL0     C26137   7.426  11.868   3.829  0.2826  0.0818  0.2275
  935MOL0     O26138   7.320  11.747   3.586  0.0854  0.3994 -0.3504
  935MOL0     C26139   7.101  11.623   3.473  1.2645  0.8354  0.3368
  935MOL0     C26140   7.004  11.527   3.434 -0.0533  0.4599 -0.5139
  935MOL0     N26141   6.485  10.870   3.629  0.2301 -0.2395  0.3538
  935MOL0     N26142   6.430  10.832   3.518 -0.1100 -0.3587  0.2074
  935MOL0     C26143   6.540  10.965   2.858 -0.1023  1.2608  0.5232
  935MOL0     C26144   6.566  11.050   2.959  0.3592 -0.6516 -0.4368
  935MOL0     C26145   6.464  11.399   3.286 -0.3301  1.2869  0.4010
  935MOL0     C26146   6.571  11.487   3.281 -0.2372  0.9176  0.2554
  935MOL0     C26147   6.586  11.585   3.376  0.0775 -0.0058 -0.4749
  935MOL0     C26148   6.529  11.574   3.501 -0.1803  0.4319 -0.3463
  935MOL0     O26149   6.546  11.667   3.603  0.1573 -0.4748 -0.6268
  935MOL0     C26150   6.671  11.738   3.598 -0.5929 -0.0784 -0.6280
  935MOL0     C26151   6.705  11.786   3.739 -0.5498 -0.1288 -0.3810
  935MOL0     C26152   6.622  11.902   3.786 -0.3074 -0.0264  0.5279
  935MOL0     C26153   6.623  11.895   3.939 -0.3422  0.2113  1.2188
  935MOL0     C26154   6.756  11.887   4.002 -0.0005  0.8770  0.8128
  935MOL0     C26155   6.874  11.894   4.051  0.6788  0.4058  0.3179
  935MOL0     C26156   6.432  11.482   3.515 -0.4916 -0.5960 -1.3223
  935MOL0     C26157   6.394  11.397   3.408  0.2819  0.2622 -0.9112
  935MOL0     H26158   6.307  11.264   2.923 -1.4898 -1.4143 -1.5684
  935MOL0     H26159   6.284  11.144   2.714  3.6189 -0.4971 -2.9123
  935MOL0     H26160   6.402  10.728   2.584  0.8882  2.5672 -0.1385
  935MOL0     H26161   6.495  10.744   2.737  0.0616  1.0671  1.7348
  935MOL0     H26162   6.194  10.769   2.716 -0.8485 -0.2373  0.9781
  935MOL0     H26163   6.248  10.607   2.710 -2.7433 -0.1686  1.1478
  935MOL0     H26164   6.255  10.794   2.946 -1.4629 -0.8066 -1.5343
  935MOL0     H26165   6.159  10.646   2.917 -0.1585 -1.2227 -0.6982
  935MOL0     H26166   6.378  10.524   2.908  2.6380  0.9840  0.3351
  935MOL0     H26167   6.442  10.674   2.955 -0.3365  0.0590 -1.7204
  935MOL0     H26168   6.255  10.513   3.130  0.9373 -1.3305  0.9552
  935MOL0     H26169   6.422  10.532   3.149 -2.5735 -1.7798 -0.3362
  935MOL0     H26170   6.225  10.753   3.153 -2.5159 -3.3732  2.0425
  935MOL0     H26171   6.276  10.674   3.301  1.8129 -3.7862 -0.9719
  935MOL0     H26172   6.524  10.778   3.265  1.4574  1.0626  0.5179
  935MOL0     H26173   6.457  10.838   3.110 -0.0367  1.8133  0.7638
  935MOL0     H26174   6.290  10.951   3.277 -0.1682  1.3597 -0.9948
  935MOL0     H26175   6.443  11.018   3.236 -0.2169 -0.0627  0.6978
  935MOL0     H26176   6.501  11.133   3.436  1.6246 -0.9334 -2.2015
  935MOL0     H26177   6.538  11.198   3.705  1.2444 -0.3016  1.3838
  935MOL0     H26178   6.538  11.060   3.812 -3.2982  0.6475 -1.0318
  935MOL0     H26179   6.783  11.014   3.759  2.4691  0.8702 -1.4793
  935MOL0     H26180   6.765  11.176   3.817 -1.6377 -1.7945  2.0040
  935MOL0     H26181   6.804  11.067   3.530  1.3448 -0.0660 -2.1484
  935MOL0     H26182   6.909  11.160   3.615 -0.4802  0.1148 -2.2618
  935MOL0     H26183   6.733  11.344   3.640 -1.7866  1.1201 -0.3419
  935MOL0     H26184   6.663  11.268   3.493  1.7856  2.8088 -1.4224
  935MOL0     H26185   6.887  11.425   3.740 -0.7391 -2.3896 -1.6907
  935MOL0     H26186   6.955  11.565   3.916 -0.8744  0.7778  1.0016
  935MOL0     H26187   7.132  11.613   3.891  0.9570  2.9045 -2.9332
  935MOL0     H26188   7.003  11.726   3.874  3.0128 -0.1549  1.0715
  935MOL0     H26189   7.158  12.050   3.893 -0.6202 -0.6090 -2.1019
  935MOL0     H26190   7.334  12.190   4.014  0.4387  0.2229 -0.2622
  935MOL0     H26191   7.526  12.332   4.025 -0.9049  0.8337 -0.6040
  935MOL0     H26192   7.691  12.308   4.056  1.5831 -1.5465  0.1391
  935MOL0     H26193   7.769  12.286   3.849 -1.7705 -1.8058  0.9644
  935MOL0     H26194   7.617  12.277   3.769  2.0229 -3.1350  0.5838
  935MOL0     H26195   7.747  12.505   3.759 -1.4988  2.9675 -0.4569
  935MOL0     H26196   7.694  12.529   3.930  1.0993  0.6067 -0.6600
  935MOL0     H26197   7.544  12.515   3.657 -2.5696  1.5803  0.0806
  935MOL0     H26198   7.456  12.460   3.801 -0.9754 -1.4966 -2.1397
  935MOL0     H26199   7.508  12.691   3.905  3.1530 -0.1954 -0.1898
  935MOL0     H26200   7.417  12.721   3.764 -1.1322 -0.7710 -0.2207
  935MOL0     H26201   7.724  12.712   3.760 -0.9918 -2.3304  2.5733
  935MOL0     H26202   7.624  12.763   3.633  0.5119 -0.4649 -0.4247
  935MOL0     H26203   7.620  12.900   3.906 -0.8594 -0.3703  0.4637
  935MOL0     H26204   7.560  12.967   3.758  0.0745 -0.7369 -0.4020
  935MOL0     H26205   7.799  12.918   3.661  0.2373 -0.3285 -0.0461
  935MOL0     H26206   7.845  12.909   3.828  0.3819 -3.6849 -2.1062
  935MOL0     H26207   7.624  11.894   3.905 -2.5524 -3.9813  0.6611
  935MOL0     H26208   7.454  11.778   3.777  1.1116  1.3379 -1.6040
  935MOL0     H26209   7.168  11.657   3.395  0.8850 -0.4454 -0.5850
  935MOL0     H26210   7.007  11.495   3.330  2.0520  0.9423 -0.6516
  935MOL0     H26211   6.608  10.887   2.828 -1.3338 -1.1283  3.3922
  935MOL0     H26212   6.648  11.030   3.028  1.6668  2.4575 -0.9074
  935MOL0     H26213   6.625  11.481   3.187 -0.3312  1.3592  0.1672
  935MOL0     H26214   6.661  11.660   3.353 -1.5749  1.5049 -1.1693
  935MOL0     H26215   6.742  11.665   3.559  1.3700  1.3984  0.0555
  935MOL0     H26216   6.671  11.822   3.528  1.4782  1.0748  0.6600
  935MOL0     H26217   6.811  11.807   3.755 -0.6032 -1.4281  2.3899
  935MOL0     H26218   6.682  11.701   3.805  1.0463  1.1320  1.9723
  935MOL0     H26219   6.523  11.897   3.740  0.9831 -1.5444 -2.4031
  935MOL0     H26220   6.674  11.989   3.744  0.3825  0.0778  1.5735
  935MOL0     H26221   6.549  11.819   3.966 -0.6596 -1.2703 -3.0499
  935MOL0     H26222   6.586  11.991   3.976 -0.8940 -0.1894  1.7227
  935MOL0     H26223   6.971  11.901   4.097  0.8275  0.5715 -0.0154
  935MOL0     H26224   6.375  11.481   3.608 -0.6710 -0.5067 -1.4311
  935MOL0     H26225   6.306  11.334   3.416 -1.0709  1.9239 -2.1073
  936MOL0     O26226   4.468   7.978   5.243  0.1877 -0.8832  0.1433
  936MOL0     C26227   4.488   7.970   5.371  0.0282 -0.7313 -0.2311
  936MOL0     O26228   4.434   7.868   5.450 -0.3140  0.6917  0.5787
  936MOL0     C26229   4.421   7.744   5.391 -0.1170 -0.0704 -0.1955
  936MOL0     C26230   4.507   7.694   5.296 -0.4160 -0.1982 -0.0932
  936MOL0     C26231   4.493   7.571   5.241  0.5930  0.3183 -0.1065
  936MOL0     C26232   4.381   7.493   5.282  0.2311 -0.6737  0.0512
  936MOL0     O26233   4.363   7.358   5.248 -0.1513  0.4078 -0.0220
  936MOL0     C26234   4.410   7.320   5.114 -0.5576  1.0820 -0.2233
  936MOL0     C26235   4.348   7.174   5.091  0.1344 -0.2688 -0.4131
  936MOL0     C26236   4.235   7.178   4.981  0.2319  0.9391  0.4692
  936MOL0     C26237   4.130   7.073   5.001  0.8236 -0.3483 -0.8321
  936MOL0     C26238   3.984   7.116   5.020 -0.2601  0.2317  0.0814
  936MOL0     C26239   3.910   6.981   5.021 -0.4801  0.6882 -0.2037
  936MOL0     C26240   3.753   6.994   5.022  0.5529  0.2260  0.0500
  936MOL0     C26241   3.688   6.992   4.880  0.3055 -1.1677 -0.7613
  936MOL0     N26242   3.661   7.124   4.831  0.4841  0.1577 -0.7039
  936MOL0     C26243   3.724   7.186   4.724  1.2035 -0.0756  0.2866
  936MOL0     C26244   3.653   7.301   4.713 -1.2201 -0.2121  0.5024
  936MOL0     C26245   3.652   7.404   4.596  0.0115 -0.4226  0.0566
  936MOL0     C26246   3.519   7.386   4.520  0.1210 -0.0189  0.2139
  936MOL0     C26247   3.509   7.477   4.397 -0.5841  1.1307 -0.7838
  936MOL0     C26248   3.367   7.481   4.340 -0.0285  0.6058  0.0321
  936MOL0     O26249   3.370   7.559   4.218  1.0965 -0.1202  0.3060
  936MOL0     C26250   3.348   7.692   4.220  0.2119 -0.4297  0.0472
  936MOL0     C26251   3.325   7.770   4.337  0.3596  0.7111 -0.1424
  936MOL0     C26252   3.324   7.909   4.330  0.4306 -0.0273  0.4318
  936MOL0     C26253   3.299   7.984   4.458 -0.8247 -0.8637  0.1214
  936MOL0     C26254   3.342   7.982   4.206  0.0314  1.2117 -0.1174
  936MOL0     C26255   3.330   8.125   4.184 -0.7890  0.2882 -0.1067
  936MOL0     O26256   3.358   8.163   4.064  0.6618  0.0282  0.0353
  936MOL0     C26257   3.329   8.288   4.019 -0.0295 -0.5423  0.1471
  936MOL0     C26258   3.216   8.308   3.934 -0.1057  0.3021 -0.1319
  936MOL0     C26259   3.181   8.436   3.883  0.5258 -0.6222  0.5200
  936MOL0     C26260   3.246   8.551   3.927 -0.6986  0.0738 -0.5996
  936MOL0     O26261   3.207   8.671   3.893  0.2838  0.3120 -0.0240
  936MOL0     C26262   3.276   8.794   3.926 -0.3699  1.0237  0.1937
  936MOL0     C26263   3.197   8.917   3.864  0.1011 -0.2135  0.0871
  936MOL0     C26264   3.044   8.923   3.890  0.1274  0.4159 -0.2982
  936MOL0     C26265   3.011   8.898   4.041  0.1688 -0.7805  0.0856
  936MOL0     C26266   2.867   8.944   4.073 -0.7101  0.0629  0.4165
  936MOL0     C26267   2.832   9.083   4.052  0.8981 -0.0442  0.8785
  936MOL0     C26268   2.684   9.105   4.032  0.1866  0.0578  0.2759
  936MOL0     C26269   2.660   9.236   3.957 -0.6149  0.0789 -0.7260
  936MOL0    Cl26270   2.732   9.367   4.073  0.4004 -0.1828  0.1094
  936MOL0     C26271   3.363   8.528   4.006 -0.1639 -0.0651 -0.4151
  936MOL0     C26272   3.406   8.404   4.049  1.1564  0.3557 -0.3642
  936MOL0     O26273   3.318   8.202   4.283 -0.1869  0.0402  0.3701
  936MOL0     C26274   3.364   7.904   4.092 -0.2265 -0.2525  0.8048
  936MOL0     C26275   3.371   7.767   4.098 -0.4713 -0.3902  0.5028
  936MOL0     N26276   3.579   7.324   4.824 -0.0266 -0.2672  0.7538
  936MOL0     N26277   3.582   7.220   4.900 -0.1313  0.9568 -0.0499
  936MOL0     C26278   4.303   7.531   5.386  0.6345 -0.5973  0.6556
  936MOL0     C26279   4.319   7.662   5.436  0.4463 -0.0135 -0.3209
  936MOL0     C26280   4.542   8.095   5.438  0.2629  0.4228 -0.5073
  936MOL0     C26281   4.623   8.187   5.365  0.2206  1.0152  0.0397
  936MOL0     C26282   4.707   8.280   5.438 -0.1929  0.9369 -0.9300
  936MOL0     C26283   4.703   8.289   5.576 -0.4328 -0.5522  0.4995
  936MOL0     O26284   4.780   8.390   5.638 -0.2940  0.8535 -0.5328
  936MOL0     C26285   4.805   8.384   5.774 -0.2488 -0.5246 -0.4759
  936MOL0     C26286   4.931   8.465   5.808  0.4960  0.4922  0.0220
  936MOL0     C26287   4.925   8.599   5.739 -0.5704  0.1009 -0.2023
  936MOL0     C26288   4.792   8.682   5.768 -0.0317 -1.0811 -0.0455
  936MOL0     C26289   4.819   8.827   5.730 -0.1105  0.2269  0.5729
  936MOL0     C26290   4.836   8.937   5.683 -0.3156 -0.7499 -0.5769
  936MOL0     C26291   4.610   8.200   5.645 -0.8225  0.6451 -0.2153
  936MOL0     C26292   4.543   8.102   5.582 -0.2281 -0.1060  0.1542
  936MOL0     H26293   4.591   7.756   5.264  1.7403 -2.0391  1.6224
  936MOL0     H26294   4.560   7.541   5.162 -0.5724 -1.8491 -0.3501
  936MOL0     H26295   4.378   7.397   5.043 -0.8336  1.6485  0.4985
  936MOL0     H26296   4.519   7.323   5.119 -0.6114  1.5607  3.6670
  936MOL0     H26297   4.427   7.101   5.073  2.4498  2.5255 -2.4307
  936MOL0     H26298   4.296   7.148   5.184 -0.4829  1.7953 -0.1273
  936MOL0     H26299   4.186   7.276   4.981 -1.0814  0.3239 -0.9285
  936MOL0     H26300   4.275   7.177   4.879 -3.8395  1.8861 -1.3286
  936MOL0     H26301   4.129   7.006   4.915  0.4678 -1.9530  0.3758
  936MOL0     H26302   4.146   7.012   5.091 -0.3328  0.4816 -0.0207
  936MOL0     H26303   3.974   7.167   5.116  1.8600  1.9355 -0.5199
  936MOL0     H26304   3.940   7.170   4.936 -0.2426 -2.9834 -2.1676
  936MOL0     H26305   3.943   6.911   4.943  0.7574 -0.9337  1.6868
  936MOL0     H26306   3.945   6.934   5.113 -1.8007 -0.0070 -0.0303
  936MOL0     H26307   3.720   6.912   5.086  0.4848  1.9072  2.2716
  936MOL0     H26308   3.737   7.080   5.088 -2.9432 -1.0200  1.0432
  936MOL0     H26309   3.587   6.949   4.886 -1.7912  3.1920 -0.8325
  936MOL0     H26310   3.746   6.932   4.809  0.2534  1.3293 -3.0629
  936MOL0     H26311   3.785   7.141   4.646  0.8858 -0.1085  0.0584
  936MOL0     H26312   3.654   7.506   4.635 -1.0408  0.1673 -1.3346
  936MOL0     H26313   3.734   7.396   4.524  1.3390 -0.7762  1.5559
  936MOL0     H26314   3.440   7.406   4.592  0.4351  0.5694  0.3950
  936MOL0     H26315   3.517   7.279   4.496  0.3184 -0.9371  3.7286
  936MOL0     H26316   3.561   7.435   4.310 -0.3120  2.0722 -1.0997
  936MOL0     H26317   3.539   7.578   4.427 -2.8638  2.1367 -1.6179
  936MOL0     H26318   3.282   7.508   4.403  1.2138 -2.0669  3.1795
  936MOL0     H26319   3.342   7.377   4.321  0.0335  0.2071  1.9514
  936MOL0     H26320   3.305   7.716   4.428  0.1946 -1.8752 -1.6095
  936MOL0     H26321   3.322   7.918   4.542  0.3926 -0.6128  0.0024
  936MOL0     H26322   3.367   8.069   4.468 -1.0654 -0.8888  2.3568
  936MOL0     H26323   3.195   8.011   4.474 -2.1270 -4.3321 -1.3854
  936MOL0     H26324   3.148   8.224   3.925  1.3186 -1.1461  1.6646
  936MOL0     H26325   3.084   8.456   3.837  1.3315  3.6265  0.2738
  936MOL0     H26326   3.292   8.788   4.034 -1.7625 -2.6260  0.3132
  936MOL0     H26327   3.371   8.778   3.874  0.0949 -2.9151  1.9102
  936MOL0     H26328   3.245   9.006   3.904  2.4830 -0.4715 -1.9488
  936MOL0     H26329   3.213   8.917   3.756 -1.7139 -0.5085 -0.2161
  936MOL0     H26330   3.020   8.838   3.825  1.2139 -1.4270  1.5864
  936MOL0     H26331   2.995   9.013   3.852  1.0185  1.0751  0.0805
  936MOL0     H26332   3.016   8.790   4.060  2.2562 -0.3771  2.3131
  936MOL0     H26333   3.072   8.957   4.109 -2.1407  2.1377 -0.1949
  936MOL0     H26334   2.833   8.901   4.168 -0.8247  0.9715  0.7944
  936MOL0     H26335   2.801   8.886   4.007 -0.0654 -0.2517  0.0342
  936MOL0     H26336   2.876   9.134   4.138  3.3833  0.2619 -0.4845
  936MOL0     H26337   2.884   9.127   3.967 -4.4510 -0.7757 -3.3397
  936MOL0     H26338   2.630   9.104   4.126 -2.9770 -1.2880 -1.4096
  936MOL0     H26339   2.644   9.028   3.965  0.6609  1.1723 -1.3555
  936MOL0     H26340   2.554   9.262   3.947 -0.7044  1.8511  3.0536
  936MOL0     H26341   2.715   9.233   3.862  0.0693  1.3864 -0.3956
  936MOL0     H26342   3.423   8.612   4.041 -0.2135  0.9294 -2.5483
  936MOL0     H26343   3.486   8.375   4.115 -0.8460 -0.8127  1.6908
  936MOL0     H26344   3.364   7.938   3.989 -0.8297  1.8630  1.4701
  936MOL0     H26345   3.411   7.703   4.020 -0.2545 -2.7605  2.4473
  936MOL0     H26346   4.225   7.459   5.407  0.7310 -1.0396 -0.4714
  936MOL0     H26347   4.254   7.701   5.514  1.3533 -0.1727  0.5316
  936MOL0     H26348   4.657   8.163   5.265  1.4918  2.6476  0.0387
  936MOL0     H26349   4.769   8.351   5.383 -2.7042  4.7716  0.7079
  936MOL0     H26350   4.716   8.411   5.832  0.6516  1.6639 -0.0017
  936MOL0     H26351   4.826   8.281   5.804  1.4677 -0.4975 -1.4181
  936MOL0     H26352   5.020   8.413   5.773 -0.4913  0.1574 -2.1635
  936MOL0     H26353   4.943   8.479   5.916 -5.1544  1.5534  0.8473
  936MOL0     H26354   4.940   8.583   5.632 -0.9500 -3.8717  0.1737
  936MOL0     H26355   5.006   8.659   5.781 -1.5997 -1.2537  4.2266
  936MOL0     H26356   4.754   8.676   5.870  2.5186  0.1809  1.0661
  936MOL0     H26357   4.706   8.640   5.714 -0.8351 -0.3550  0.6285
  936MOL0     H26358   4.848   9.038   5.647  1.5866 -0.3508  0.9702
  936MOL0     H26359   4.588   8.229   5.747  2.1485  2.0333  0.1126
  936MOL0     H26360   4.486   8.021   5.627 -1.7303  0.6974 -0.2388
  937MOL0     O26361   6.708   8.769   1.734 -0.4258 -0.0494  0.0882
  937MOL0     C26362   6.672   8.845   1.649 -0.5597  0.3111  0.8398
  937MOL0     O26363   6.638   8.816   1.522  0.0630  0.3322 -0.2156
  937MOL0     C26364   6.654   8.684   1.479 -0.8647 -0.4832 -0.4575
  937MOL0     C26365   6.784   8.628   1.451  0.2955 -0.3948  0.2937
  937MOL0     C26366   6.803   8.500   1.417  0.3043  0.0816  0.5410
  937MOL0     C26367   6.690   8.418   1.408  0.7241  0.0801 -0.6421
  937MOL0     O26368   6.709   8.289   1.364 -0.1560  0.3860 -0.5675
  937MOL0     C26369   6.639   8.190   1.442  0.8196 -0.4474  0.1479
  937MOL0     C26370   6.710   8.058   1.417  0.1893  0.1616 -0.0026
  937MOL0     C26371   6.858   8.034   1.469  1.1895 -0.2629  0.3091
  937MOL0     C26372   6.883   8.104   1.596 -0.9172 -0.7566  0.6679
  937MOL0     C26373   7.021   8.072   1.654  0.6700  0.1671  0.0059
  937MOL0     C26374   7.125   8.142   1.569  0.1825  0.1940 -0.0177
  937MOL0     C26375   7.264   8.136   1.636  0.1793 -0.4751  0.3428
  937MOL0     C26376   7.283   8.135   1.789  0.9002 -0.1863 -0.1905
  937MOL0     N26377   7.429   8.171   1.821 -0.9521  0.2109 -1.0000
  937MOL0     C26378   7.478   8.288   1.873 -0.3029  0.3868  0.6593
  937MOL0     C26379   7.613   8.273   1.886 -0.7722  0.0771  0.2148
  937MOL0     C26380   7.707   8.365   1.951 -1.3361 -0.4081 -0.6983
  937MOL0     C26381   7.688   8.364   2.103 -0.1587 -0.1302 -0.2932
  937MOL0     C26382   7.737   8.236   2.175 -0.3530 -0.0872 -0.1848
  937MOL0     C26383   7.775   8.263   2.324  0.3865 -1.0735  0.7704
  937MOL0     O26384   7.662   8.297   2.403 -0.4063 -0.4733 -0.0562
  937MOL0     C26385   7.646   8.239   2.527 -0.9197 -0.5809 -0.4365
  937MOL0     C26386   7.596   8.333   2.623 -0.3252  0.4339 -0.6327
  937MOL0     C26387   7.584   8.289   2.759 -0.3976  0.7496  0.0598
  937MOL0     C26388   7.519   8.393   2.854  0.3038 -0.4855  0.2029
  937MOL0     C26389   7.612   8.158   2.799 -0.4451  0.2744  0.4771
  937MOL0     C26390   7.610   8.110   2.943  0.2454 -0.0701 -0.2785
  937MOL0     O26391   7.629   8.192   3.052 -0.5419 -0.9918  0.7069
  937MOL0     C26392   7.582   8.153   3.180  0.1758  0.2002  0.1335
  937MOL0     C26393   7.626   8.035   3.241 -0.6841  0.0278  0.7931
  937MOL0     C26394   7.586   8.001   3.374 -0.5600  0.1442 -0.6070
  937MOL0     C26395   7.507   8.088   3.443  0.3968  0.1500  1.0791
  937MOL0     O26396   7.477   8.046   3.569 -0.3247 -0.5339 -0.6955
  937MOL0     C26397   7.493   8.154   3.671 -0.5624  0.4969 -0.1201
  937MOL0     C26398   7.516   8.090   3.806 -0.1432  1.0833  0.2532
  937MOL0     C26399   7.613   7.970   3.801 -0.0519  0.8688 -0.1853
  937MOL0     C26400   7.636   7.936   3.950  1.5970 -0.0563  0.1273
  937MOL0     C26401   7.750   7.837   3.961 -0.3256 -0.0536 -0.5160
  937MOL0     C26402   7.796   7.831   4.113  0.1712 -0.1347 -0.2807
  937MOL0     C26403   7.898   7.716   4.124  0.1589  0.1340 -0.4425
  937MOL0     C26404   7.967   7.699   4.260 -0.0865  0.7210  0.7266
  937MOL0    Cl26405   8.081   7.835   4.276 -0.2151 -0.0008  0.4214
  937MOL0     C26406   7.438   8.188   3.376 -0.4750 -1.3611  0.2263
  937MOL0     C26407   7.488   8.232   3.245  0.4706  0.9901  0.0824
  937MOL0     O26408   7.574   7.994   2.951  0.2946 -0.1999  0.7081
  937MOL0     C26409   7.646   8.070   2.692  0.5232 -0.4368  0.8745
  937MOL0     C26410   7.660   8.109   2.563 -0.4888  0.9234 -0.9407
  937MOL0     N26411   7.646   8.150   1.837 -0.3066 -0.3601  1.2132
  937MOL0     N26412   7.542   8.091   1.800 -0.5226 -0.6543 -0.4682
  937MOL0     C26413   6.559   8.463   1.442 -0.4681 -0.8554 -0.3125
  937MOL0     C26414   6.548   8.599   1.478 -0.1419 -0.4338 -0.2852
  937MOL0     C26415   6.651   8.983   1.689 -0.0360  0.8662 -0.4555
  937MOL0     C26416   6.666   9.085   1.598 -0.4858 -0.0114 -0.1904
  937MOL0     C26417   6.640   9.222   1.632  1.2869 -0.6905 -1.0829
  937MOL0     C26418   6.618   9.254   1.765 -0.0523  1.1307 -0.0240
  937MOL0     O26419   6.583   9.377   1.809 -1.1458 -0.0024 -0.8398
  937MOL0     C26420   6.562   9.487   1.728  0.4582 -0.3367  0.3561
  937MOL0     C26421   6.467   9.589   1.790 -0.0905 -0.2049 -0.3832
  937MOL0     C26422   6.322   9.552   1.781  0.6858 -0.0471  0.3405
  937MOL0     C26423   6.236   9.658   1.852 -0.0777  0.4793 -1.0481
  937MOL0     C26424   6.214   9.780   1.768  0.1087 -0.0668 -0.7061
  937MOL0     C26425   6.197   9.864   1.687  0.4049  1.3842  0.9032
  937MOL0     C26426   6.603   9.151   1.862  0.3415  0.1688 -0.8154
  937MOL0     C26427   6.621   9.012   1.825 -0.9291  0.7613  0.6850
  937MOL0     H26428   6.864   8.701   1.440 -0.7136  0.8913  1.2027
  937MOL0     H26429   6.897   8.457   1.385  0.1948 -1.0456  1.6710
  937MOL0     H26430   6.635   8.220   1.547 -0.4726  2.1294 -0.5440
  937MOL0     H26431   6.536   8.181   1.406  0.8706 -1.4464  0.2184
  937MOL0     H26432   6.654   7.978   1.468  0.1285  1.0799  1.4520
  937MOL0     H26433   6.685   8.033   1.314  0.6894  2.7183 -0.7991
  937MOL0     H26434   6.890   7.929   1.469 -0.9422 -0.9833  1.2989
  937MOL0     H26435   6.918   8.080   1.390  4.1823 -2.6555  1.0212
  937MOL0     H26436   6.874   8.211   1.577  0.9433 -1.0736 -2.7688
  937MOL0     H26437   6.805   8.079   1.669 -0.6773  0.2271  1.2823
  937MOL0     H26438   7.030   8.114   1.755 -0.1714 -1.6376  0.8692
  937MOL0     H26439   7.036   7.964   1.647  4.5855  0.5785 -0.2479
  937MOL0     H26440   7.136   8.108   1.466 -1.1004 -2.2849  0.5939
  937MOL0     H26441   7.099   8.247   1.554 -1.0543 -0.4213 -2.7727
  937MOL0     H26442   7.326   8.062   1.586  2.5610  1.4063  0.3434
  937MOL0     H26443   7.310   8.232   1.611 -0.8475  0.0815  0.5108
  937MOL0     H26444   7.258   8.038   1.832 -3.9544  0.8407 -0.1031
  937MOL0     H26445   7.209   8.203   1.833  0.3248  1.0920 -2.9681
  937MOL0     H26446   7.427   8.380   1.899  3.4719  2.8169  0.1373
  937MOL0     H26447   7.804   8.323   1.924 -0.0497  2.0828 -0.2437
  937MOL0     H26448   7.711   8.465   1.906 -0.7033 -1.1876 -2.4330
  937MOL0     H26449   7.584   8.392   2.124  0.4890  0.9149  1.8930
  937MOL0     H26450   7.743   8.447   2.149  1.7325  0.1302 -2.8503
  937MOL0     H26451   7.816   8.192   2.115 -2.0273 -2.6812 -0.6461
  937MOL0     H26452   7.652   8.167   2.172 -0.7715  0.3265 -4.6204
  937MOL0     H26453   7.858   8.334   2.327 -0.2998 -0.2676  0.8140
  937MOL0     H26454   7.810   8.165   2.359 -0.8013 -0.9511  2.4081
  937MOL0     H26455   7.567   8.435   2.598  0.5200  0.8839  0.1765
  937MOL0     H26456   7.450   8.452   2.794  0.2251  0.1979  0.9524
  937MOL0     H26457   7.461   8.341   2.931 -2.3732 -0.3056 -1.5435
  937MOL0     H26458   7.593   8.453   2.907  1.0354  0.6204 -1.9671
  937MOL0     H26459   7.698   7.972   3.190 -1.1301 -2.4821  3.0397
  937MOL0     H26460   7.612   7.904   3.415  0.9576  0.7781 -0.0226
  937MOL0     H26461   7.578   8.218   3.645  1.7136 -1.9046  0.9363
  937MOL0     H26462   7.400   8.211   3.678 -0.3834  0.6934  0.8330
  937MOL0     H26463   7.555   8.165   3.876 -0.6556  3.0001 -1.4301
  937MOL0     H26464   7.421   8.066   3.854 -0.2909 -0.8003 -0.8888
  937MOL0     H26465   7.702   8.003   3.747 -0.1333  1.6697  0.1561
  937MOL0     H26466   7.581   7.888   3.736  3.2257 -2.0301  1.4664
  937MOL0     H26467   7.654   8.023   4.014 -0.2883 -0.0854  0.7438
  937MOL0     H26468   7.545   7.891   3.990  0.9882 -1.8197 -2.9658
  937MOL0     H26469   7.840   7.870   3.908  0.3735 -2.3639 -0.8925
  937MOL0     H26470   7.717   7.740   3.924  1.5423 -2.0013  2.5504
  937MOL0     H26471   7.835   7.932   4.124 -2.6608  0.8818  1.3655
  937MOL0     H26472   7.705   7.818   4.171  1.0333  1.4302  1.5005
  937MOL0     H26473   7.971   7.720   4.042  0.3632  0.0931 -0.2614
  937MOL0     H26474   7.850   7.620   4.101 -1.6143  0.5972  1.1391
  937MOL0     H26475   8.022   7.605   4.268  1.1999  0.8440 -3.6902
  937MOL0     H26476   7.897   7.719   4.341  1.2655 -0.3193  2.2072
  937MOL0     H26477   7.361   8.250   3.421 -0.3442 -1.7218  0.9589
  937MOL0     H26478   7.459   8.326   3.199  0.1503  0.4814 -0.7633
  937MOL0     H26479   7.677   7.966   2.692  0.4709 -0.5689 -2.5428
  937MOL0     H26480   7.681   8.045   2.478  2.0689  0.4455 -0.0452
  937MOL0     H26481   6.471   8.400   1.433 -2.3827  1.6346 -0.1091
  937MOL0     H26482   6.455   8.635   1.519 -1.5068 -2.0542 -1.7944
  937MOL0     H26483   6.691   9.055   1.497 -1.3723  2.9611 -1.4134
  937MOL0     H26484   6.656   9.298   1.557  3.8093  0.0782  0.1333
  937MOL0     H26485   6.656   9.537   1.704  0.7336 -0.9575  0.1250
  937MOL0     H26486   6.526   9.448   1.632  2.2574 -2.0476  0.3131
  937MOL0     H26487   6.489   9.679   1.732  0.1402 -0.0926 -0.1252
  937MOL0     H26488   6.504   9.603   1.892  0.3005 -0.8184 -0.4325
  937MOL0     H26489   6.301   9.456   1.829 -0.3463 -0.6361 -1.1901
  937MOL0     H26490   6.290   9.527   1.680  0.3554 -4.7727  1.4138
  937MOL0     H26491   6.271   9.677   1.954 -1.3784 -3.3715  0.3072
  937MOL0     H26492   6.136   9.615   1.862  0.8857 -1.4916  1.1895
  937MOL0     H26493   6.199   9.953   1.626 -2.5487  0.5873 -0.5541
  937MOL0     H26494   6.575   9.173   1.964  2.0361 -0.5056 -0.1779
  937MOL0     H26495   6.606   8.927   1.891 -1.9125 -2.9506 -3.8009
  938MOL0     O26496   8.754   4.023   0.767  0.8669 -1.1189 -0.4365
  938MOL0     C26497   8.793   3.975   0.876 -0.4648 -0.1151  0.9075
  938MOL0     O26498   8.917   3.996   0.927 -0.1405  0.7336  0.1905
  938MOL0     C26499   8.998   4.097   0.895 -0.2775  1.2723  0.4058
  938MOL0     C26500   9.106   4.111   0.982  0.9408  0.4387  0.3231
  938MOL0     C26501   9.199   4.210   0.965 -0.6789 -0.8500  0.9764
  938MOL0     C26502   9.188   4.308   0.864 -0.6103  0.3281  0.3551
  938MOL0     O26503   9.280   4.407   0.868 -0.0108  0.4689  0.1703
  938MOL0     C26504   9.277   4.506   0.764 -0.2501 -0.2322  0.2242
  938MOL0     C26505   9.362   4.633   0.779 -0.6635  0.8890 -0.0516
  938MOL0     C26506   9.516   4.605   0.783  0.2895 -0.3890  0.4854
  938MOL0     C26507   9.575   4.748   0.779 -0.3515  0.6885 -0.2878
  938MOL0     C26508   9.731   4.762   0.806 -0.2249 -0.4371 -0.6036
  938MOL0     C26509   9.822   4.688   0.706 -0.3333 -0.0271 -0.5198
  938MOL0     C26510   9.957   4.741   0.696 -1.3181 -0.9465 -0.1741
  938MOL0     C26511  10.046   4.756   0.821 -0.4094 -0.2815  1.0658
  938MOL0     N26512  10.178   4.810   0.792 -0.2987 -0.3787  0.1613
  938MOL0     C26513  10.207   4.919   0.706 -0.7304 -0.6956 -0.2444
  938MOL0     C26514  10.338   4.936   0.700 -0.7504  0.1232 -0.5394
  938MOL0     C26515  10.435   5.014   0.636 -0.9039  1.0352  0.5442
  938MOL0     C26516  10.497   4.957   0.505  0.1872  0.1853  0.1684
  938MOL0     C26517  10.390   4.945   0.392  0.5404 -0.5276 -0.9179
  938MOL0     C26518  10.386   5.075   0.309  0.6994 -0.1855  0.2217
  938MOL0     O26519  10.509   5.073   0.240  0.0791  0.0139  0.5257
  938MOL0     C26520  10.519   5.156   0.131  0.0655  0.3531 -0.0522
  938MOL0     C26521  10.416   5.225   0.070  0.0394  0.2345  0.7627
  938MOL0     C26522  10.445   5.297  -0.055 -0.2852  0.5176 -0.4922
  938MOL0     C26523  10.329   5.353  -0.129 -0.0455 -0.7596  0.0288
  938MOL0     C26524  10.584   5.314  -0.094  0.4278  1.1824 -0.0158
  938MOL0     C26525  10.627   5.406  -0.201  0.5281 -0.6508 -0.1459
  938MOL0     O26526  10.755   5.437  -0.208 -0.3286 -0.4033 -0.1914
  938MOL0     C26527  10.810   5.521  -0.304 -1.0466  0.5840 -0.1579
  938MOL0     C26528  10.762   5.646  -0.321  0.1278 -0.3793 -0.3531
  938MOL0     C26529  10.812   5.728  -0.418 -0.8032  0.2171  0.2824
  938MOL0     C26530  10.922   5.682  -0.494  1.0978 -0.9840  0.6478
  938MOL0     O26531  10.964   5.773  -0.593  0.3209  0.6349  0.1656
  938MOL0     C26532  11.040   5.728  -0.702 -0.3383 -0.5461 -0.4400
  938MOL0     C26533  11.072   5.853  -0.791  0.5982 -0.1006 -0.5628
  938MOL0     C26534  11.139   5.969  -0.702  0.3513  2.0225 -0.2743
  938MOL0     C26535  11.218   6.065  -0.796 -0.7388 -0.3868 -0.6314
  938MOL0     C26536  11.284   6.167  -0.707 -0.4558  0.4115 -1.2174
  938MOL0     C26537  11.190   6.242  -0.615 -0.6367  0.6163 -0.8051
  938MOL0     C26538  11.252   6.367  -0.558 -0.8306  0.1347  0.1533
  938MOL0     C26539  11.298   6.344  -0.417  0.6142 -1.2701 -0.3505
  938MOL0    Cl26540  11.430   6.227  -0.414  0.3501 -0.7308  0.2299
  938MOL0     C26541  10.976   5.563  -0.471 -0.8488 -0.2037 -0.7134
  938MOL0     C26542  10.922   5.483  -0.374  0.9542  0.5642  0.3006
  938MOL0     O26543  10.541   5.451  -0.284 -0.8869 -0.2193  0.5132
  938MOL0     C26544  10.685   5.246  -0.022  0.1052  0.0884 -0.7024
  938MOL0     C26545  10.647   5.158   0.080 -0.8400  0.1096  0.1105
  938MOL0     N26546  10.393   4.833   0.781  0.0023  0.7243 -0.8172
  938MOL0     N26547  10.294   4.766   0.834  0.7253 -0.4291  0.8562
  938MOL0     C26548   9.085   4.291   0.771 -0.1859 -0.3088 -0.6905
  938MOL0     C26549   8.983   4.194   0.791  0.7528  0.3470 -0.3943
  938MOL0     C26550   8.703   3.871   0.936 -0.4416  0.4480 -0.0024
  938MOL0     C26551   8.569   3.867   0.904 -0.2191  0.5091 -0.2674
  938MOL0     C26552   8.494   3.757   0.952 -0.3117 -1.0241  0.2758
  938MOL0     C26553   8.541   3.673   1.059  0.5231 -0.7820  0.3524
  938MOL0     O26554   8.444   3.580   1.099 -0.3819  0.2475  0.3347
  938MOL0     C26555   8.481   3.490   1.204  0.1181  0.8580  0.4903
  938MOL0     C26556   8.414   3.361   1.168  0.5060 -0.4366  0.5918
  938MOL0     C26557   8.453   3.251   1.273 -0.0463  0.8538  0.6885
  938MOL0     C26558   8.360   3.241   1.395 -0.1734  0.4165 -0.2518
  938MOL0     C26559   8.239   3.170   1.366  0.6335  0.8320  1.4936
  938MOL0     C26560   8.147   3.099   1.330  0.2704 -0.5850 -0.1665
  938MOL0     C26561   8.660   3.701   1.115 -0.0824  0.0644 -0.2049
  938MOL0     C26562   8.742   3.788   1.042  0.0051 -0.0162 -1.3779
  938MOL0     H26563   9.135   4.054   1.070 -0.7382  1.0274  1.3137
  938MOL0     H26564   9.280   4.226   1.036 -0.4057  1.0136  0.3022
  938MOL0     H26565   9.307   4.462   0.669 -4.4067  0.9687 -1.9062
  938MOL0     H26566   9.176   4.543   0.744 -1.0901 -2.4829 -0.0121
  938MOL0     H26567   9.345   4.704   0.698  1.0622 -1.7744 -2.9727
  938MOL0     H26568   9.326   4.665   0.877  0.3395  2.5769 -0.1860
  938MOL0     H26569   9.550   4.560   0.877  2.1809 -0.9457 -0.4132
  938MOL0     H26570   9.560   4.538   0.709 -0.6116 -2.0689  1.4293
  938MOL0     H26571   9.552   4.790   0.681  0.4414 -1.7740 -1.6271
  938MOL0     H26572   9.504   4.798   0.845 -2.2985 -1.8919 -0.2639
  938MOL0     H26573   9.742   4.871   0.801 -1.9528 -0.2719 -1.4977
  938MOL0     H26574   9.759   4.717   0.902  0.3991  0.3338 -0.4109
  938MOL0     H26575   9.835   4.586   0.743 -0.4287  1.0258  2.7261
  938MOL0     H26576   9.784   4.675   0.604 -0.3006 -0.9408 -0.4265
  938MOL0     H26577  10.006   4.676   0.623 -0.4668  0.0859 -0.5375
  938MOL0     H26578   9.941   4.842   0.657  0.6327 -0.4493  0.2182
  938MOL0     H26579  10.059   4.668   0.884  0.6538  0.0970  1.4007
  938MOL0     H26580   9.994   4.829   0.885 -0.9187 -0.9509  1.4356
  938MOL0     H26581  10.141   4.971   0.638  0.9580  0.8038 -0.8355
  938MOL0     H26582  10.396   5.114   0.617  1.5300  1.5068 -2.9028
  938MOL0     H26583  10.529   5.024   0.691 -1.1002  0.3355  1.0204
  938MOL0     H26584  10.542   4.861   0.530 -1.7370 -0.9152 -0.3949
  938MOL0     H26585  10.579   5.026   0.483  1.4620 -1.0418  0.8991
  938MOL0     H26586  10.291   4.931   0.436  0.8814  0.1756  0.1003
  938MOL0     H26587  10.407   4.857   0.329  1.4041 -1.0979  0.0847
  938MOL0     H26588  10.373   5.160   0.377  4.0189 -0.5330  1.4583
  938MOL0     H26589  10.297   5.082   0.246 -0.5268 -2.5599  1.5497
  938MOL0     H26590  10.312   5.205   0.095 -0.2364  0.3831 -0.1821
  938MOL0     H26591  10.330   5.459  -0.152 -0.4937 -0.4732  1.2514
  938MOL0     H26592  10.318   5.308  -0.228 -0.6959  0.4136 -0.4460
  938MOL0     H26593  10.243   5.332  -0.063  0.5965  0.6408  1.3795
  938MOL0     H26594  10.680   5.680  -0.258  1.7009  0.2421  1.4690
  938MOL0     H26595  10.769   5.827  -0.423 -2.5106 -0.4316  1.3281
  938MOL0     H26596  11.129   5.673  -0.668 -1.7036 -2.5558  0.1136
  938MOL0     H26597  10.977   5.652  -0.750  0.8265 -2.1891  0.4943
  938MOL0     H26598  11.138   5.827  -0.874  3.8042  2.4906  0.9221
  938MOL0     H26599  10.986   5.905  -0.834 -0.8132 -0.4989  1.6333
  938MOL0     H26600  11.205   5.932  -0.623 -2.0284 -2.0004  0.1460
  938MOL0     H26601  11.049   6.007  -0.652 -1.4835 -1.4928 -0.5686
  938MOL0     H26602  11.295   6.018  -0.858 -0.2958  1.2213 -1.3499
  938MOL0     H26603  11.132   6.113  -0.845 -1.0888 -0.1495  0.1878
  938MOL0     H26604  11.334   6.238  -0.774  0.1100  2.6185  1.3781
  938MOL0     H26605  11.370   6.126  -0.654 -3.6845 -1.6121  3.0096
  938MOL0     H26606  11.105   6.279  -0.673 -0.1228  1.8902 -0.7545
  938MOL0     H26607  11.138   6.187  -0.536 -2.8465  0.7295 -2.1005
  938MOL0     H26608  11.185   6.453  -0.564  0.2575  0.9710 -0.4072
  938MOL0     H26609  11.333   6.408  -0.618  0.6537  1.0790  2.6412
  938MOL0     H26610  11.206   6.315  -0.365 -1.9485 -1.2922 -4.4603
  938MOL0     H26611  11.335   6.436  -0.371 -0.2442 -1.6383  1.1477
  938MOL0     H26612  11.045   5.528  -0.547 -1.1811  0.4136 -1.3105
  938MOL0     H26613  10.964   5.387  -0.346 -0.0010 -0.3738 -1.3327
  938MOL0     H26614  10.791   5.269  -0.031  0.7651 -0.5222  3.3756
  938MOL0     H26615  10.723   5.092   0.119 -0.9503  1.0658  2.0969
  938MOL0     H26616   9.078   4.357   0.685  2.7468 -1.0856 -1.6618
  938MOL0     H26617   8.886   4.200   0.742  0.9019 -0.3011 -0.7881
  938MOL0     H26618   8.519   3.933   0.834  0.8760 -0.3270 -1.9036
  938MOL0     H26619   8.397   3.739   0.906  0.7826 -1.0002 -2.2007
  938MOL0     H26620   8.589   3.474   1.195 -0.0182 -0.2379  0.5911
  938MOL0     H26621   8.451   3.529   1.302 -1.5271  2.9727 -0.7942
  938MOL0     H26622   8.438   3.308   1.076  0.7159 -0.4411  0.6488
  938MOL0     H26623   8.306   3.379   1.173  0.1192 -1.9068 -1.4391
  938MOL0     H26624   8.557   3.245   1.307  0.1065  0.5639  0.1843
  938MOL0     H26625   8.438   3.157   1.219 -0.6170  0.0869  2.1265
  938MOL0     H26626   8.345   3.339   1.441  1.6901 -0.7712  3.2537
  938MOL0     H26627   8.413   3.174   1.463 -0.4698 -2.3358 -2.5632
  938MOL0     H26628   8.058   3.043   1.309  1.2522 -2.4548  0.3804
  938MOL0     H26629   8.694   3.656   1.208  0.6700  0.2859 -0.3669
  938MOL0     H26630   8.845   3.797   1.074 -0.1668 -2.8646  0.3557
  939MOL0     O26631  11.466   4.922   1.128  0.0067  0.1202 -0.1015
  939MOL0     C26632  11.444   5.021   1.058  0.3445 -0.0594  0.1891
  939MOL0     O26633  11.315   5.058   1.024  0.5859  0.0663  0.7879
  939MOL0     C26634  11.203   5.010   1.086  0.0976  0.6570  0.0342
  939MOL0     C26635  11.197   4.950   1.217 -0.2603  0.8354  0.2804
  939MOL0     C26636  11.079   4.886   1.256 -0.8391  0.0365  0.1732
  939MOL0     C26637  10.966   4.885   1.179  0.1638 -0.5881  0.0947
  939MOL0     O26638  10.855   4.826   1.231 -0.1734 -0.8151  0.5016
  939MOL0     C26639  10.749   4.780   1.148  0.7738  1.1876 -0.1455
  939MOL0     C26640  10.633   4.754   1.237 -0.2798  0.5658 -0.4666
  939MOL0     C26641  10.510   4.731   1.158  0.1352  0.3951 -0.1855
  939MOL0     C26642  10.391   4.753   1.242 -0.1404  0.6525 -0.0171
  939MOL0     C26643  10.262   4.720   1.171 -0.6722  0.2816 -0.6432
  939MOL0     C26644  10.156   4.703   1.272  0.3144  0.6855  0.1008
  939MOL0     C26645  10.018   4.667   1.215 -0.6844  0.2644 -1.1450
  939MOL0     C26646   9.922   4.646   1.336 -0.1738 -0.2795  0.3272
  939MOL0     N26647   9.780   4.663   1.310  0.8617 -0.3650 -0.3038
  939MOL0     C26648   9.677   4.570   1.324 -1.2106 -0.6586 -0.3008
  939MOL0     C26649   9.571   4.632   1.277  1.3380 -0.2794 -0.3662
  939MOL0     C26650   9.442   4.572   1.238 -1.1110  0.2394  0.1269
  939MOL0     C26651   9.398   4.486   1.348  1.3029 -0.2374  0.1500
  939MOL0     C26652   9.255   4.454   1.329  0.2216  0.1038  0.1652
  939MOL0     C26653   9.217   4.365   1.449 -0.1699  0.8182  0.2920
  939MOL0     O26654   9.075   4.351   1.431  0.1276  1.1198 -0.5791
  939MOL0     C26655   9.011   4.281   1.532  0.4325 -0.3647  0.6018
  939MOL0     C26656   9.051   4.159   1.573  0.8255 -0.4787 -0.0474
  939MOL0     C26657   8.974   4.092   1.669  0.1437 -0.8345 -0.0632
  939MOL0     C26658   9.026   3.957   1.719 -0.2352 -0.5885  0.0903
  939MOL0     C26659   8.850   4.146   1.718  0.5963  0.0785 -0.0183
  939MOL0     C26660   8.767   4.078   1.823 -0.0552  0.4916 -0.2165
  939MOL0     O26661   8.823   3.979   1.906 -1.1012 -0.5824  0.0887
  939MOL0     C26662   8.731   3.904   1.977 -0.2406  0.3722  0.3195
  939MOL0     C26663   8.682   3.955   2.104  0.0521  0.3252 -0.7225
  939MOL0     C26664   8.606   3.869   2.189 -0.0599  0.1129 -0.4715
  939MOL0     C26665   8.564   3.740   2.149 -0.8240 -0.9764  0.0675
  939MOL0     O26666   8.465   3.663   2.210  0.6130  0.2402 -0.5425
  939MOL0     C26667   8.449   3.676   2.352  0.6230  0.5895 -0.5182
  939MOL0     C26668   8.327   3.577   2.384  0.4877 -0.4605  0.9383
  939MOL0     C26669   8.373   3.439   2.339  0.1761 -1.2252 -0.2042
  939MOL0     C26670   8.315   3.330   2.414 -0.2668  0.1785  0.2528
  939MOL0     C26671   8.397   3.199   2.380 -0.0918  0.6899 -0.4501
  939MOL0     C26672   8.352   3.071   2.456 -0.2818  0.0974  0.1770
  939MOL0     C26673   8.361   3.098   2.609  0.1549 -0.1715  0.0145
  939MOL0     C26674   8.326   2.972   2.688  0.0150 -0.5075 -0.3671
  939MOL0    Cl26675   8.371   3.033   2.855  0.1145  0.5412 -0.2251
  939MOL0     C26676   8.624   3.697   2.027 -0.1338 -0.0436  1.0155
  939MOL0     C26677   8.706   3.771   1.941  1.2742 -0.6007  0.6898
  939MOL0     O26678   8.647   4.112   1.821 -0.1140 -0.5065 -0.4711
  939MOL0     C26679   8.800   4.255   1.641  0.4314 -0.2568 -0.1074
  939MOL0     C26680   8.888   4.325   1.562  0.1359  0.9250  0.2179
  939MOL0     N26681   9.601   4.755   1.227 -0.3777  0.1199  0.6432
  939MOL0     N26682   9.725   4.780   1.257  0.3993 -0.3810 -0.1828
  939MOL0     C26683  10.971   4.949   1.051 -0.4311 -0.7190  0.6394
  939MOL0     C26684  11.089   5.011   1.010  0.2520 -0.4567 -0.3956
  939MOL0     C26685  11.552   5.100   0.978  0.3565  0.1656  0.4598
  939MOL0     C26686  11.688   5.068   0.988 -0.1569  0.8387  0.2776
  939MOL0     C26687  11.781   5.126   0.902  0.3552 -0.8329  0.9705
  939MOL0     C26688  11.738   5.227   0.815  0.8889  0.7960  0.1692
  939MOL0     O26689  11.817   5.285   0.720  0.8974 -0.4175  0.3646
  939MOL0     C26690  11.922   5.202   0.670 -0.2226  0.4232 -0.1426
  939MOL0     C26691  11.974   5.259   0.547  0.3137 -0.2266 -0.2682
  939MOL0     C26692  11.891   5.211   0.426 -0.4112 -0.7590 -0.0219
  939MOL0     C26693  11.954   5.235   0.293 -0.2895 -0.5502  0.4004
  939MOL0     C26694  12.043   5.129   0.251  0.6339 -0.1192  0.0416
  939MOL0     C26695  12.106   5.029   0.246  0.1170  0.3159  0.0697
  939MOL0     C26696  11.612   5.268   0.820 -0.0289  0.0792  0.9826
  939MOL0     C26697  11.515   5.208   0.895  0.3037 -0.3817  0.4981
  939MOL0     H26698  11.279   4.960   1.288 -2.0561 -0.3320  2.6658
  939MOL0     H26699  11.068   4.849   1.357  0.9436 -0.7496  0.1211
  939MOL0     H26700  10.728   4.849   1.066  0.0935 -2.8161 -3.7070
  939MOL0     H26701  10.774   4.687   1.095  0.9355  0.7416  0.7050
  939MOL0     H26702  10.645   4.668   1.302 -4.0509 -1.8764 -2.6588
  939MOL0     H26703  10.627   4.837   1.308 -3.5348 -1.8582  2.4154
  939MOL0     H26704  10.509   4.791   1.066 -2.1089  0.4809 -0.1505
  939MOL0     H26705  10.516   4.628   1.120  2.7301  1.3513 -2.8080
  939MOL0     H26706  10.389   4.682   1.325 -3.5402  1.6455  0.8574
  939MOL0     H26707  10.374   4.854   1.279 -1.0087 -0.0311  1.5147
  939MOL0     H26708  10.253   4.801   1.098 -0.2521  1.0062  0.0945
  939MOL0     H26709  10.264   4.619   1.128 -1.2296 -0.2644  0.5808
  939MOL0     H26710  10.180   4.618   1.337 -0.5948  0.3324 -0.0028
  939MOL0     H26711  10.156   4.799   1.324  1.0726 -0.1102  1.6550
  939MOL0     H26712   9.985   4.757   1.162 -3.5755 -0.5128 -0.8255
  939MOL0     H26713  10.021   4.578   1.151 -0.8275 -2.5809  2.4824
  939MOL0     H26714   9.947   4.719   1.413  1.1726 -1.4294  1.0267
  939MOL0     H26715   9.929   4.542   1.372 -1.3995 -1.1907 -1.8404
  939MOL0     H26716   9.684   4.469   1.365 -2.7539 -1.0037 -0.8168
  939MOL0     H26717   9.373   4.657   1.239 -2.0828 -0.5126  2.0001
  939MOL0     H26718   9.447   4.520   1.142 -0.6747  0.2818  0.1270
  939MOL0     H26719   9.409   4.539   1.443  2.3202 -5.0146  3.0290
  939MOL0     H26720   9.456   4.394   1.337  3.6157  1.2463 -0.7364
  939MOL0     H26721   9.238   4.406   1.233  1.2717  2.6697 -1.3904
  939MOL0     H26722   9.202   4.550   1.334 -1.8528 -0.8527 -1.5711
  939MOL0     H26723   9.249   4.406   1.545  2.7397 -2.0924  0.7579
  939MOL0     H26724   9.265   4.267   1.439 -0.5531  0.6850 -0.3219
  939MOL0     H26725   9.145   4.122   1.531  0.3163 -0.2243 -1.4622
  939MOL0     H26726   9.081   3.959   1.814  0.9258 -1.8549 -0.5221
  939MOL0     H26727   8.949   3.880   1.707  1.7719 -2.8299  0.6513
  939MOL0     H26728   9.095   3.920   1.642 -2.1241 -0.2951 -1.8304
  939MOL0     H26729   8.686   4.057   2.140 -3.5741  0.0526  0.8890
  939MOL0     H26730   8.562   3.901   2.283 -0.2170 -1.6005  0.0820
  939MOL0     H26731   8.533   3.638   2.410 -0.6382  1.8342  2.3111
  939MOL0     H26732   8.417   3.774   2.390 -0.2874 -0.3275  1.2070
  939MOL0     H26733   8.307   3.567   2.491 -1.1122 -1.2256  0.6032
  939MOL0     H26734   8.234   3.618   2.341  2.4031  3.1372 -0.1873
  939MOL0     H26735   8.478   3.433   2.369  0.6258  0.4843 -1.2591
  939MOL0     H26736   8.380   3.420   2.231  2.5924 -0.9307 -0.1561
  939MOL0     H26737   8.319   3.337   2.524  0.2989 -2.8506  0.5253
  939MOL0     H26738   8.215   3.325   2.369  0.3489 -3.5050 -1.0635
  939MOL0     H26739   8.502   3.222   2.397 -0.2268  0.4882  0.7639
  939MOL0     H26740   8.377   3.174   2.276 -1.6064  3.1729 -0.8206
  939MOL0     H26741   8.246   3.052   2.437 -0.7262  0.9275  1.6552
  939MOL0     H26742   8.412   2.984   2.424  1.0554  0.1016  2.4501
  939MOL0     H26743   8.297   3.180   2.644 -1.0196 -2.1548  2.8796
  939MOL0     H26744   8.465   3.130   2.625 -0.3287  0.9231  1.2331
  939MOL0     H26745   8.390   2.886   2.665  1.9621  1.4423 -2.9722
  939MOL0     H26746   8.223   2.937   2.685  0.0901 -0.8786  0.9100
  939MOL0     H26747   8.590   3.614   1.965 -0.5550 -0.5506  1.9111
  939MOL0     H26748   8.749   3.729   1.851  2.1251 -0.3021  0.9417
  939MOL0     H26749   8.707   4.300   1.675  0.9213  0.5549  0.1562
  939MOL0     H26750   8.838   4.405   1.508  0.0101 -0.4949 -1.9175
  939MOL0     H26751  10.882   4.945   0.989 -1.0154 -1.0036  1.4820
  939MOL0     H26752  11.094   5.055   0.911 -1.4629 -1.2784 -0.8957
  939MOL0     H26753  11.724   4.990   1.054  0.2889 -0.8839 -1.8829
  939MOL0     H26754  11.888   5.120   0.923  1.4971  1.5257 -3.0923
  939MOL0     H26755  12.002   5.195   0.744 -1.2974 -0.8447  0.9603
  939MOL0     H26756  11.894   5.097   0.656 -2.3567  0.3395  3.3365
  939MOL0     H26757  12.079   5.234   0.530  0.9331  2.1463 -0.3344
  939MOL0     H26758  11.982   5.368   0.555 -0.8229 -0.1165 -0.4532
  939MOL0     H26759  11.788   5.248   0.425  0.2554  1.2309 -1.1009
  939MOL0     H26760  11.872   5.104   0.440 -1.3517 -0.3285  2.5051
  939MOL0     H26761  12.013   5.325   0.275  0.7548 -0.8823  1.9688
  939MOL0     H26762  11.877   5.238   0.215  0.3076  3.5458 -0.2726
  939MOL0     H26763  12.169   4.943   0.234 -0.1858  0.3160 -1.6972
  939MOL0     H26764  11.581   5.337   0.742 -1.6508 -0.5705  1.0171
  939MOL0     H26765  11.411   5.239   0.889  0.3813 -0.1494  0.3198
  940MOL0     O26766   9.983   1.502   0.394 -0.4273  0.0237  0.2156
  940MOL0     C26767  10.088   1.520   0.331  0.2592  0.1027 -0.3266
  940MOL0     O26768  10.108   1.483   0.201 -0.6300  0.2371 -0.0917
  940MOL0     C26769   9.998   1.435   0.141  1.2363  0.1267  0.2828
  940MOL0     C26770   9.890   1.514   0.087 -0.6622 -0.3957 -0.9353
  940MOL0     C26771   9.771   1.460   0.041 -0.3162  0.3657  0.3524
  940MOL0     C26772   9.739   1.327   0.051 -0.2285  0.8777 -0.1208
  940MOL0     O26773   9.609   1.280   0.021  0.4840 -0.4082  0.7332
  940MOL0     C26774   9.579   1.147   0.071 -0.7028 -0.4119 -0.1446
  940MOL0     C26775   9.426   1.142   0.109 -0.3752 -0.5029 -0.5630
  940MOL0     C26776   9.405   1.207   0.246 -0.0218  0.3358 -1.0429
  940MOL0     C26777   9.443   1.115   0.374 -0.0445  0.5678  0.7989
  940MOL0     C26778   9.346   0.995   0.395  0.6255  0.9965  0.1770
  940MOL0     C26779   9.376   0.931   0.529 -0.2713  0.2583 -0.4246
  940MOL0     C26780   9.315   1.011   0.644 -0.0995  0.0897 -0.1019
  940MOL0     C26781   9.341   0.941   0.779 -0.1165 -0.1203 -0.9343
  940MOL0     N26782   9.485   0.934   0.818  0.2410 -0.0874 -0.2557
  940MOL0     C26783   9.567   1.044   0.846 -0.6382  0.2592  0.1091
  940MOL0     C26784   9.694   0.990   0.878 -0.5707  0.4738 -0.1001
  940MOL0     C26785   9.813   1.060   0.915  0.1864  0.0916 -0.8989
  940MOL0     C26786   9.816   1.100   1.059  0.0402  0.6303 -0.3701
  940MOL0     C26787   9.764   0.996   1.156  0.0144  1.2302  1.1095
  940MOL0     C26788   9.863   0.867   1.174 -0.3503  0.1469 -0.5634
  940MOL0     O26789   9.969   0.929   1.242 -0.4568 -0.5274  0.4574
  940MOL0     C26790  10.086   0.853   1.262 -0.3734  0.0567  0.7783
  940MOL0     C26791  10.093   0.715   1.236  1.0872  1.2442 -0.4697
  940MOL0     C26792  10.200   0.640   1.283  1.3500  0.0325 -0.1611
  940MOL0     C26793  10.189   0.488   1.259  0.0250 -0.1663  0.4451
  940MOL0     C26794  10.317   0.707   1.326 -0.2077 -0.1315 -0.7349
  940MOL0     C26795  10.435   0.639   1.366 -0.5826 -0.1994 -0.4153
  940MOL0     O26796  10.553   0.681   1.321  0.0211 -0.8419  0.1955
  940MOL0     C26797  10.666   0.611   1.333 -0.8385  0.6352 -0.3465
  940MOL0     C26798  10.731   0.573   1.218 -0.0524 -1.1080  0.6091
  940MOL0     C26799  10.858   0.504   1.217 -0.5813  0.4085  0.4975
  940MOL0     C26800  10.919   0.484   1.338  0.5303  0.7481  0.6794
  940MOL0     O26801  11.036   0.407   1.336  1.1402 -0.1326  0.3348
  940MOL0     C26802  11.121   0.429   1.448  0.1978  0.2523  0.2031
  940MOL0     C26803  11.254   0.372   1.418  0.8080  0.1919  1.2211
  940MOL0     C26804  11.242   0.230   1.347 -0.5142  0.4456 -0.0765
  940MOL0     C26805  11.379   0.163   1.339  0.1428  0.0763 -0.5404
  940MOL0     C26806  11.384   0.021   1.255  0.2401  0.4721 -0.3522
  940MOL0     C26807  11.281  -0.082   1.305  0.2710  0.9728  0.1521
  940MOL0     C26808  11.300  -0.118   1.465  0.1427  0.2209  0.6526
  940MOL0     C26809  11.427  -0.193   1.514  0.0074  0.4974 -0.0959
  940MOL0    Cl26810  11.409  -0.221   1.690  0.3643  0.2687  0.2391
  940MOL0     C26811  10.847   0.512   1.458 -0.5429 -0.6202  0.5758
  940MOL0     C26812  10.723   0.579   1.454  0.1591 -1.1369 -0.2810
  940MOL0     O26813  10.419   0.542   1.448  0.1780 -0.7481  0.4649
  940MOL0     C26814  10.313   0.848   1.337  0.1069 -0.4150  0.5983
  940MOL0     C26815  10.196   0.923   1.303  0.6215  0.1478 -0.5153
  940MOL0     N26816   9.684   0.848   0.864  0.6600  0.9479 -0.5294
  940MOL0     N26817   9.556   0.825   0.825  0.3572 -0.8037 -0.6894
  940MOL0     C26818   9.845   1.248   0.103 -0.7317 -0.6983 -0.9618
  940MOL0     C26819   9.972   1.294   0.148 -1.3087 -0.6788 -0.6590
  940MOL0     C26820  10.216   1.543   0.407  0.4659 -0.0189 -0.8868
  940MOL0     C26821  10.227   1.563   0.548 -1.1216 -0.1189  0.9427
  940MOL0     C26822  10.348   1.581   0.610  0.1749  0.3417  0.3721
  940MOL0     C26823  10.472   1.576   0.536 -0.3522  1.2078  0.0923
  940MOL0     O26824  10.590   1.592   0.593 -0.3545  0.0357 -0.2372
  940MOL0     C26825  10.606   1.574   0.730 -0.9238 -0.0071 -0.6261
  940MOL0     C26826  10.756   1.567   0.767  0.0537 -0.0648  0.4790
  940MOL0     C26827  10.846   1.681   0.719  0.5042 -0.0933  0.3130
  940MOL0     C26828  10.822   1.810   0.792 -0.0552  0.4421 -0.3310
  940MOL0     C26829  10.928   1.836   0.900  0.5914  0.4007 -0.6641
  940MOL0     C26830  11.022   1.856   0.977  0.6978  0.1161 -0.1651
  940MOL0     C26831  10.468   1.563   0.395  1.8197  0.4784  0.3000
  940MOL0     C26832  10.338   1.546   0.339  0.5755  0.0370  0.0194
  940MOL0     H26833   9.892   1.622   0.074  0.8567  0.0712  2.2125
  940MOL0     H26834   9.713   1.525  -0.024 -1.5365  0.7027  1.7104
  940MOL0     H26835   9.604   1.080  -0.011  0.4412 -0.9808  0.6356
  940MOL0     H26836   9.640   1.107   0.152 -0.0945  1.8005  0.5733
  940MOL0     H26837   9.359   1.190   0.036  2.6513  2.8364 -1.4159
  940MOL0     H26838   9.392   1.039   0.123 -2.1676 -0.0696 -1.3581
  940MOL0     H26839   9.464   1.298   0.254  2.1499 -0.9255 -1.8134
  940MOL0     H26840   9.303   1.246   0.253 -0.1750 -0.3612  1.2290
  940MOL0     H26841   9.542   1.069   0.365 -0.4211  0.1326 -2.5417
  940MOL0     H26842   9.429   1.182   0.458  0.3594  0.1901  1.1747
  940MOL0     H26843   9.245   1.034   0.403  0.2976  0.3593 -0.7020
  940MOL0     H26844   9.344   0.920   0.315 -3.6491  2.5027 -1.4177
  940MOL0     H26845   9.352   0.824   0.534 -0.2271  0.2835  3.5429
  940MOL0     H26846   9.485   0.938   0.531 -0.3111  2.8097 -2.2354
  940MOL0     H26847   9.359   1.111   0.653  0.5565 -0.0771 -1.2729
  940MOL0     H26848   9.210   1.041   0.638  0.2665  2.0246  1.7419
  940MOL0     H26849   9.280   0.849   0.777 -0.5850  0.1235 -4.5278
  940MOL0     H26850   9.293   0.999   0.859 -0.7932 -0.4621 -1.0787
  940MOL0     H26851   9.531   1.146   0.831 -1.5134 -0.0871 -0.1876
  940MOL0     H26852   9.899   0.994   0.902  1.4307  1.2669  0.9343
  940MOL0     H26853   9.844   1.143   0.850 -2.4630  0.2871 -2.0669
  940MOL0     H26854   9.748   1.185   1.063 -2.8697 -1.5568  0.8770
  940MOL0     H26855   9.915   1.132   1.091  0.2481 -1.9196  2.0076
  940MOL0     H26856   9.674   0.951   1.115  1.5220 -2.2964  1.3277
  940MOL0     H26857   9.722   1.028   1.252 -1.0036  0.4552  0.9360
  940MOL0     H26858   9.889   0.820   1.079  0.3676  1.4689 -1.0418
  940MOL0     H26859   9.808   0.800   1.241  0.4200  0.9987  0.9720
  940MOL0     H26860  10.008   0.663   1.194  0.7731  0.1170  1.4647
  940MOL0     H26861  10.093   0.454   1.219  0.5854 -1.7444  0.3829
  940MOL0     H26862  10.253   0.455   1.176 -2.1906  1.6079 -2.1742
  940MOL0     H26863  10.190   0.439   1.356 -0.8336  0.8479  0.9877
  940MOL0     H26864  10.669   0.592   1.131 -1.5116 -2.6223  1.2665
  940MOL0     H26865  10.905   0.465   1.128  1.0952  2.3638  0.4386
  940MOL0     H26866  11.128   0.536   1.469 -4.2468  0.5939  0.9287
  940MOL0     H26867  11.076   0.382   1.536 -1.1411  2.2122  0.6271
  940MOL0     H26868  11.303   0.447   1.355 -1.6758 -0.4359 -1.7328
  940MOL0     H26869  11.309   0.360   1.511  0.0952 -0.6297  1.5520
  940MOL0     H26870  11.208   0.251   1.245 -0.3058 -2.0112 -0.6981
  940MOL0     H26871  11.177   0.163   1.403  2.1517 -1.8513  0.5068
  940MOL0     H26872  11.444   0.235   1.288  0.3851 -0.3636 -0.8599
  940MOL0     H26873  11.417   0.142   1.440  0.6844 -3.1215 -1.3056
  940MOL0     H26874  11.479  -0.022   1.289  0.5016  1.7781  0.6461
  940MOL0     H26875  11.386   0.028   1.146 -0.2998 -1.5919 -0.5402
  940MOL0     H26876  11.178  -0.051   1.285 -0.8341 -3.0167 -1.4161
  940MOL0     H26877  11.289  -0.165   1.234 -0.7849  0.9408  0.0487
  940MOL0     H26878  11.208  -0.176   1.478 -0.5791  0.6355 -2.0037
  940MOL0     H26879  11.294  -0.028   1.528  1.6491  0.9718 -0.2187
  940MOL0     H26880  11.523  -0.142   1.504 -0.0561  0.8950  1.1748
  940MOL0     H26881  11.430  -0.290   1.464 -0.4994  0.8482 -0.8306
  940MOL0     H26882  10.886   0.491   1.557  0.4002 -0.5881  0.2181
  940MOL0     H26883  10.669   0.603   1.545  1.1188  0.1437 -0.0163
  940MOL0     H26884  10.388   0.916   1.375 -0.4013  3.0652 -3.7900
  940MOL0     H26885  10.190   1.031   1.307 -3.3444  0.0490 -0.1066
  940MOL0     H26886   9.834   1.143   0.128  1.5308 -0.3909  1.8224
  940MOL0     H26887  10.048   1.226   0.185  0.6404  1.4488 -0.5072
  940MOL0     H26888  10.135   1.579   0.603  0.7787 -0.6918  4.5648
  940MOL0     H26889  10.347   1.578   0.719 -1.3956  0.0066  0.3703
  940MOL0     H26890  10.559   1.653   0.788  1.1916 -0.3636  1.7366
  940MOL0     H26891  10.574   1.474   0.761 -0.8032  0.5011  1.2081
  940MOL0     H26892  10.802   1.481   0.716 -0.4564  0.5236 -1.0415
  940MOL0     H26893  10.765   1.560   0.876 -2.7682  4.3023  1.2352
  940MOL0     H26894  10.832   1.687   0.611  1.8712  1.5438  0.1892
  940MOL0     H26895  10.949   1.646   0.729 -0.1851 -2.2721  0.3084
  940MOL0     H26896  10.716   1.813   0.819 -0.6043 -0.9576 -2.1688
  940MOL0     H26897  10.835   1.893   0.722 -1.9064  1.4280  0.4177
  940MOL0     H26898  11.103   1.869   1.047 -1.2265  1.6162  1.9598
  940MOL0     H26899  10.555   1.577   0.331  1.3804  2.4303  0.0671
  940MOL0     H26900  10.334   1.528   0.232 -0.6239  0.2487  0.0249
  941MOL0     O26901  11.083   1.624   3.108 -0.2181 -0.2951  0.0627
  941MOL0     C26902  11.060   1.526   3.038  0.1365 -0.1858  0.1549
  941MOL0     O26903  11.030   1.531   2.908  0.1626 -0.2259  0.1942
  941MOL0     C26904  10.967   1.646   2.861  0.8013 -0.2068  0.3480
  941MOL0     C26905  10.843   1.638   2.806  0.0331 -0.0608 -0.2177
  941MOL0     C26906  10.783   1.746   2.745  0.2529  0.3158  0.1245
  941MOL0     C26907  10.853   1.865   2.722 -0.6647 -0.7854 -0.7295
  941MOL0     O26908  10.801   1.979   2.662  0.8541  0.0306 -0.0631
  941MOL0     C26909  10.659   1.995   2.644  0.0456 -1.0229  0.7101
  941MOL0     C26910  10.641   2.090   2.525  0.4593 -0.7231 -1.9052
  941MOL0     C26911  10.494   2.112   2.511  0.5689 -0.7669  0.1773
  941MOL0     C26912  10.436   2.041   2.394 -0.2150 -0.2716  0.2832
  941MOL0     C26913  10.288   2.030   2.383  0.3487  0.3986 -0.0759
  941MOL0     C26914  10.259   1.935   2.260 -0.7477 -0.2115 -0.5063
  941MOL0     C26915  10.221   1.993   2.134 -0.5558  0.1602  0.0232
  941MOL0     C26916  10.329   2.093   2.095 -0.5746 -0.7617 -0.2484
  941MOL0     N26917  10.313   2.132   1.951 -0.1243 -0.1773 -0.1130
  941MOL0     C26918  10.199   2.192   1.887 -0.2181  0.3962 -0.8601
  941MOL0     C26919  10.218   2.183   1.753 -0.7354 -0.0649 -0.3927
  941MOL0     C26920  10.123   2.254   1.658 -0.1885  0.9717  1.0776
  941MOL0     C26921  10.157   2.402   1.661 -0.1979 -0.5318  0.0626
  941MOL0     C26922  10.271   2.467   1.588 -0.4916 -0.9237  0.1262
  941MOL0     C26923  10.413   2.451   1.644  0.2847 -0.1755  0.4214
  941MOL0     O26924  10.493   2.559   1.586 -0.3095  0.2828  1.0462
  941MOL0     C26925  10.634   2.549   1.601  0.5929  0.7908 -0.1215
  941MOL0     C26926  10.722   2.603   1.505  0.0471 -0.0538  0.4866
  941MOL0     C26927  10.858   2.613   1.513 -0.0468  0.3242 -0.8198
  941MOL0     C26928  10.944   2.660   1.404  0.0039 -0.1782 -0.7728
  941MOL0     C26929  10.914   2.572   1.634  0.1639  0.9039 -0.6261
  941MOL0     C26930  11.058   2.569   1.657  0.0412  0.7877 -0.6076
  941MOL0     O26931  11.138   2.470   1.588  0.0052  0.0505  0.0434
  941MOL0     C26932  11.260   2.443   1.639 -0.0478 -0.0201 -0.4057
  941MOL0     C26933  11.363   2.471   1.551 -1.2766  0.4197 -0.5278
  941MOL0     C26934  11.492   2.424   1.585  0.9801 -1.0820  0.7297
  941MOL0     C26935  11.514   2.364   1.712  0.0618  0.3531  0.7487
  941MOL0     O26936  11.650   2.324   1.729  0.9150  0.2011 -0.6839
  941MOL0     C26937  11.702   2.284   1.853  0.1440 -0.1428 -0.4028
  941MOL0     C26938  11.680   2.135   1.866  0.1862  0.0608  0.0547
  941MOL0     C26939  11.760   2.087   1.991 -0.3730  0.3532 -0.4302
  941MOL0     C26940  11.771   1.940   1.981 -0.4510  0.5294  0.0316
  941MOL0     C26941  11.843   1.868   2.103 -0.0075 -0.3974 -0.1923
  941MOL0     C26942  11.779   1.880   2.241 -0.7798  0.0343 -1.2667
  941MOL0     C26943  11.880   1.818   2.341  1.0871  0.6054  0.3104
  941MOL0     C26944  11.999   1.901   2.393 -0.6099 -0.6291 -1.3815
  941MOL0    Cl26945  11.946   2.041   2.481  0.5772 -0.3832  0.0712
  941MOL0     C26946  11.411   2.351   1.798 -0.0349  0.3654 -0.6000
  941MOL0     C26947  11.283   2.372   1.757 -0.7711 -0.1967  1.0572
  941MOL0     O26948  11.099   2.645   1.741 -1.1702 -0.4177 -0.3842
  941MOL0     C26949  10.832   2.526   1.745 -0.1963  0.3016 -0.7596
  941MOL0     C26950  10.696   2.510   1.719 -0.4707 -0.1783 -0.6594
  941MOL0     N26951  10.338   2.123   1.739  0.7204 -0.2013 -0.1457
  941MOL0     N26952  10.395   2.086   1.848 -0.2376 -0.2114  0.3599
  941MOL0     C26953  10.989   1.873   2.776  0.1484 -0.9134  0.1795
  941MOL0     C26954  11.044   1.764   2.834 -0.2491  0.0245  0.2815
  941MOL0     C26955  11.061   1.399   3.112  0.2441  0.1568 -0.5271
  941MOL0     C26956  11.133   1.381   3.231  0.0362  0.2931  0.1372
  941MOL0     C26957  11.148   1.252   3.277  0.4276 -0.8354  0.4048
  941MOL0     C26958  11.095   1.141   3.218 -0.1919 -0.1236 -0.7404
  941MOL0     O26959  11.122   1.029   3.287 -0.0440  0.4735  0.1774
  941MOL0     C26960  11.108   0.901   3.223  0.0490  0.1014 -0.4849
  941MOL0     C26961  11.171   0.795   3.318  0.4130  0.9965  0.6857
  941MOL0     C26962  11.105   0.795   3.457  0.0343 -0.2383  0.1230
  941MOL0     C26963  11.174   0.715   3.570 -0.5720 -0.6161  0.5328
  941MOL0     C26964  11.305   0.764   3.605 -0.0694  0.5251 -0.6931
  941MOL0     C26965  11.422   0.791   3.622  0.0752 -0.6617 -0.0457
  941MOL0     C26966  11.027   1.159   3.099 -0.2818  0.2816 -1.0925
  941MOL0     C26967  10.996   1.288   3.058  0.6688  0.4742 -0.1140
  941MOL0     H26968  10.801   1.538   2.812  2.2069 -0.9836  0.6503
  941MOL0     H26969  10.687   1.721   2.701  0.5602 -2.7605  0.9593
  941MOL0     H26970  10.601   1.904   2.627 -0.8711 -0.7697  2.2195
  941MOL0     H26971  10.617   2.036   2.736 -1.8459 -2.6520  0.6286
  941MOL0     H26972  10.699   2.173   2.565  0.4079 -2.0947  1.2706
  941MOL0     H26973  10.679   2.070   2.424  3.0447 -0.9149 -0.9522
  941MOL0     H26974  10.434   2.087   2.599 -1.6354  1.0239 -0.7071
  941MOL0     H26975  10.462   2.216   2.497 -2.3746 -1.0554  3.3450
  941MOL0     H26976  10.472   2.091   2.304 -4.3585  0.3768 -1.2637
  941MOL0     H26977  10.468   1.937   2.404 -1.7994 -0.9665 -1.2153
  941MOL0     H26978  10.256   1.983   2.476  1.1166  0.3662  0.1842
  941MOL0     H26979  10.233   2.123   2.369  1.0432  0.5411 -2.1995
  941MOL0     H26980  10.341   1.864   2.244  0.6748  1.6792 -2.1076
  941MOL0     H26981  10.173   1.872   2.285  0.3797 -1.0260  1.5474
  941MOL0     H26982  10.227   1.912   2.061  1.5750  1.9812 -1.9382
  941MOL0     H26983  10.125   2.045   2.121  1.0862  3.8644  1.2813
  941MOL0     H26984  10.432   2.057   2.105  0.0896  0.5373 -1.9435
  941MOL0     H26985  10.312   2.184   2.153  0.2691 -0.4650 -0.4623
  941MOL0     H26986  10.114   2.246   1.927  1.1118  0.9112  1.4558
  941MOL0     H26987  10.126   2.223   1.553 -2.7589  0.7477  1.0103
  941MOL0     H26988  10.020   2.245   1.694  0.4060  0.1253  2.7079
  941MOL0     H26989  10.159   2.439   1.764 -1.5741 -0.9388  0.2661
  941MOL0     H26990  10.074   2.454   1.612  2.0081 -0.4877 -4.0456
  941MOL0     H26991  10.248   2.574   1.591 -0.9239 -0.9925 -0.6463
  941MOL0     H26992  10.266   2.424   1.488  0.8883  0.4560 -0.5703
  941MOL0     H26993  10.441   2.347   1.625 -0.3050 -0.1517 -0.6429
  941MOL0     H26994  10.412   2.462   1.753 -1.1190 -0.1849  0.4209
  941MOL0     H26995  10.693   2.633   1.404 -1.1257  2.4796  1.4914
  941MOL0     H26996  11.006   2.740   1.446  0.7772 -2.4277  2.7727
  941MOL0     H26997  11.020   2.587   1.378  0.6986 -0.4558  1.8088
  941MOL0     H26998  10.893   2.701   1.316 -0.1394  1.2059 -0.0750
  941MOL0     H26999  11.354   2.527   1.458 -2.9138  1.1309  0.0075
  941MOL0     H27000  11.574   2.443   1.517  1.7680 -1.5547  1.5316
  941MOL0     H27001  11.808   2.310   1.846  0.2830 -0.6998 -0.4151
  941MOL0     H27002  11.662   2.341   1.937  0.4729  0.9164 -0.9386
  941MOL0     H27003  11.576   2.104   1.877 -0.6142  2.8214  1.0945
  941MOL0     H27004  11.720   2.081   1.780 -1.0829 -0.2868 -0.3399
  941MOL0     H27005  11.712   2.126   2.082  1.0167 -1.1722  1.0418
  941MOL0     H27006  11.861   2.126   1.979 -0.2292 -0.0901 -0.6865
  941MOL0     H27007  11.669   1.901   1.990 -0.7658  0.1130 -3.6756
  941MOL0     H27008  11.818   1.923   1.884 -0.7897  0.9539 -0.2085
  941MOL0     H27009  11.946   1.905   2.107 -0.3777  0.6622  3.4562
  941MOL0     H27010  11.846   1.760   2.088 -4.4979 -1.3183  3.3678
  941MOL0     H27011  11.754   1.985   2.263  1.8217  0.7863 -1.6210
  941MOL0     H27012  11.689   1.819   2.226 -1.7220  0.0358  3.2024
  941MOL0     H27013  11.929   1.739   2.283  0.0807  0.3535 -0.2301
  941MOL0     H27014  11.822   1.785   2.428 -0.0032  1.7380  0.0328
  941MOL0     H27015  12.054   1.948   2.311  1.7663  1.0301  1.0171
  941MOL0     H27016  12.068   1.845   2.457  0.7879  0.6165 -1.7506
  941MOL0     H27017  11.430   2.299   1.892  1.1688 -2.7477 -2.4158
  941MOL0     H27018  11.196   2.344   1.815 -0.1524 -2.1814  1.1162
  941MOL0     H27019  10.883   2.507   1.839 -0.4006  0.7646 -0.5533
  941MOL0     H27020  10.629   2.483   1.800 -1.5755  3.7304 -0.0572
  941MOL0     H27021  11.039   1.968   2.758  0.4873 -0.7762  1.7270
  941MOL0     H27022  11.147   1.762   2.866 -0.8017 -0.1763  2.1904
  941MOL0     H27023  11.194   1.464   3.267  0.4416  0.7885 -1.6130
  941MOL0     H27024  11.202   1.230   3.369 -1.1684 -0.1300  1.5743
  941MOL0     H27025  11.004   0.869   3.213 -0.3283  1.1250 -0.0248
  941MOL0     H27026  11.152   0.908   3.123  2.4614  0.2816  0.5279
  941MOL0     H27027  11.280   0.805   3.328  0.5142  0.9082 -0.2110
  941MOL0     H27028  11.136   0.700   3.278 -1.7006  1.7452  0.6673
  941MOL0     H27029  11.005   0.751   3.446  0.2424 -1.4127  2.3301
  941MOL0     H27030  11.081   0.898   3.484  3.3063  1.3195 -2.2566
  941MOL0     H27031  11.195   0.616   3.529  1.9130  0.8465 -2.1639
  941MOL0     H27032  11.122   0.720   3.666  0.4464 -3.8016  1.3680
  941MOL0     H27033  11.523   0.817   3.647 -0.5843  0.0539  2.0827
  941MOL0     H27034  10.997   1.072   3.041  1.8389 -0.3348 -1.3344
  941MOL0     H27035  10.930   1.305   2.974  0.9425  1.4446 -0.1464
  942MOL0     O27036   1.303   0.749   0.797 -0.9074 -0.1186 -0.5255
  942MOL0     C27037   1.249   0.637   0.794  0.0000 -0.3366 -0.7716
  942MOL0     O27038   1.216   0.565   0.675 -0.3831 -0.2197  0.0113
  942MOL0     C27039   1.216   0.640   0.555  1.3641  0.1062  0.3582
  942MOL0     C27040   1.103   0.635   0.470 -0.6848  0.3366  0.0411
  942MOL0     C27041   1.098   0.683   0.339  0.0540 -0.4364  0.2576
  942MOL0     C27042   1.200   0.756   0.287  0.9617  0.0058  0.0138
  942MOL0     O27043   1.178   0.792   0.160  0.0748  0.0054 -0.0085
  942MOL0     C27044   1.272   0.894   0.120  0.3897 -0.6510  0.8453
  942MOL0     C27045   1.212   0.975   0.002 -0.1880  0.6268  2.0143
  942MOL0     C27046   1.093   1.059   0.045 -0.4932 -0.8201 -0.5710
  942MOL0     C27047   1.027   1.135  -0.067 -0.0426  0.0421 -0.4330
  942MOL0     C27048   0.966   1.063  -0.189  0.6655  0.2365 -0.2198
  942MOL0     C27049   0.879   0.942  -0.140 -0.1974 -0.1489  1.2487
  942MOL0     C27050   0.756   0.984  -0.066  1.4435 -0.1450 -0.0268
  942MOL0     C27051   0.663   0.878  -0.006 -0.2926 -0.5763 -0.0383
  942MOL0     N27052   0.579   0.813  -0.103  0.2792  0.4438  0.2689
  942MOL0     C27053   0.478   0.882  -0.166 -0.7308 -0.0751 -0.7366
  942MOL0     C27054   0.431   0.800  -0.264 -0.5534 -0.3152  1.3151
  942MOL0     C27055   0.325   0.857  -0.360 -0.7237  0.4600  0.2934
  942MOL0     C27056   0.393   0.915  -0.489 -0.5250 -0.3124  0.0150
  942MOL0     C27057   0.494   0.831  -0.568 -0.7754 -0.2218  0.7628
  942MOL0     C27058   0.443   0.698  -0.597  0.2625  0.0330  0.1253
  942MOL0     O27059   0.311   0.709  -0.665  0.9146 -0.2716 -0.1236
  942MOL0     C27060   0.316   0.732  -0.795 -0.0064 -0.0450  0.8683
  942MOL0     C27061   0.293   0.859  -0.844 -0.5228  0.4245 -0.4685
  942MOL0     C27062   0.284   0.902  -0.971  0.5319 -0.6022  0.4799
  942MOL0     C27063   0.224   1.041  -0.996 -0.4739  0.2660 -0.4637
  942MOL0     C27064   0.319   0.799  -1.064  0.6144 -1.0006  0.6881
  942MOL0     C27065   0.316   0.818  -1.218  1.1135 -0.3543  0.6044
  942MOL0     O27066   0.244   0.922  -1.265  1.2416  0.3517 -0.3621
  942MOL0     C27067   0.227   0.946  -1.400  0.5558  0.1469 -0.7745
  942MOL0     C27068   0.175   0.849  -1.483  0.3428  0.5123 -0.0442
  942MOL0     C27069   0.149   0.869  -1.618 -0.3146  0.2110 -0.7511
  942MOL0     C27070   0.176   1.002  -1.667  0.1667 -0.6354  0.0261
  942MOL0     O27071   0.171   1.014  -1.802  0.3397 -0.0217  0.0471
  942MOL0     C27072   0.260   1.103  -1.876  0.7220  0.4335  0.6667
  942MOL0     C27073   0.382   1.034  -1.920 -0.5870  0.2020 -0.0374
  942MOL0     C27074   0.380   0.892  -1.982  0.0829  0.0583  0.4313
  942MOL0     C27075   0.423   0.887  -2.132 -0.2325 -0.4276 -0.0195
  942MOL0     C27076   0.560   0.821  -2.137 -1.0432 -0.1169  0.3363
  942MOL0     C27077   0.612   0.794  -2.281 -0.0031  0.4783  0.4393
  942MOL0     C27078   0.618   0.927  -2.356  0.7976  0.0926 -0.5848
  942MOL0     C27079   0.739   0.926  -2.447 -0.2982  0.5868 -0.1495
  942MOL0    Cl27080   0.737   0.790  -2.559  0.4290 -0.4548  0.3870
  942MOL0     C27081   0.227   1.102  -1.585 -0.4481  0.0446  0.7061
  942MOL0     C27082   0.259   1.076  -1.452  0.5408 -0.1015 -0.0275
  942MOL0     O27083   0.373   0.738  -1.288 -0.6485 -0.0453  0.3122
  942MOL0     C27084   0.348   0.662  -1.025 -0.5841 -0.4403  0.2817
  942MOL0     C27085   0.343   0.632  -0.891  0.5123 -1.1673 -0.3927
  942MOL0     N27086   0.521   0.688  -0.268  0.2943 -0.0749 -0.2307
  942MOL0     N27087   0.613   0.701  -0.179  0.0892  0.5655 -0.2053
  942MOL0     C27088   1.307   0.776   0.373 -0.1324 -0.1281 -0.7059
  942MOL0     C27089   1.317   0.717   0.500  0.3851 -0.4185  0.0022
  942MOL0     C27090   1.222   0.578   0.923  0.0538 -0.8363 -0.4200
  942MOL0     C27091   1.223   0.648   1.037 -0.3391  0.3395 -0.1105
  942MOL0     C27092   1.186   0.595   1.160 -0.0659  0.5224  0.4348
  942MOL0     C27093   1.148   0.467   1.173 -0.4782  0.5757 -0.5085
  942MOL0     O27094   1.111   0.401   1.290 -1.2135 -0.3622 -0.4652
  942MOL0     C27095   1.140   0.444   1.430  0.5163  0.5629  0.3651
  942MOL0     C27096   1.019   0.491   1.509 -0.1309  0.9096  0.1708
  942MOL0     C27097   0.918   0.382   1.525  0.4269  0.4284 -0.0768
  942MOL0     C27098   0.785   0.421   1.608 -0.5178 -0.5364  0.2000
  942MOL0     C27099   0.723   0.543   1.555  0.8093  0.0652  0.5649
  942MOL0     C27100   0.684   0.651   1.514  0.0759  0.0328  0.0414
  942MOL0     C27101   1.142   0.392   1.061  0.5297  0.5528  0.7410
  942MOL0     C27102   1.184   0.440   0.934  0.1027 -1.4790  0.1314
  942MOL0     H27103   1.024   0.566   0.497 -0.5064 -0.0352 -0.3747
  942MOL0     H27104   1.012   0.658   0.278  0.4271 -0.1702 -0.3820
  942MOL0     H27105   1.300   0.964   0.199  2.1956  0.1029 -0.4064
  942MOL0     H27106   1.366   0.840   0.104  0.4901 -0.3133  0.2881
  942MOL0     H27107   1.289   1.037  -0.044 -0.3910  0.5926  1.6179
  942MOL0     H27108   1.189   0.897  -0.072  1.4025  2.2496 -0.3426
  942MOL0     H27109   1.011   1.005   0.093 -1.9279  0.5194 -1.4132
  942MOL0     H27110   1.127   1.132   0.119  1.7378  1.4695 -3.5747
  942MOL0     H27111   0.953   1.206  -0.029  0.4447 -0.0565  0.7537
  942MOL0     H27112   1.112   1.192  -0.104  1.4611  0.1529  2.8082
  942MOL0     H27113   0.907   1.127  -0.256  0.0755 -2.0714 -2.0276
  942MOL0     H27114   1.045   1.026  -0.256 -0.3141  2.3762 -2.7800
  942MOL0     H27115   0.846   0.887  -0.228  3.5661  1.7312 -1.6298
  942MOL0     H27116   0.944   0.883  -0.075 -1.2104 -1.0067  1.5011
  942MOL0     H27117   0.777   1.058   0.012 -1.5813  0.2198  0.5662
  942MOL0     H27118   0.702   1.046  -0.139 -1.0652 -1.6701  0.3966
  942MOL0     H27119   0.594   0.934   0.057  0.2924  0.8691 -0.6345
  942MOL0     H27120   0.721   0.806   0.053 -0.8222  0.7358  2.1883
  942MOL0     H27121   0.452   0.983  -0.138  3.9732  0.9742  0.6628
  942MOL0     H27122   0.258   0.776  -0.386  0.2941 -0.4707  0.4890
  942MOL0     H27123   0.267   0.927  -0.299  0.4839 -1.0384  3.3945
  942MOL0     H27124   0.437   1.012  -0.464 -2.0931  0.4486 -0.0705
  942MOL0     H27125   0.329   0.950  -0.571  0.1293  1.6917  0.3060
  942MOL0     H27126   0.587   0.817  -0.513  0.1046  1.8667 -0.0874
  942MOL0     H27127   0.528   0.873  -0.663  1.3861 -0.6632  1.2849
  942MOL0     H27128   0.434   0.635  -0.508  3.1909  1.5726  1.6890
  942MOL0     H27129   0.511   0.645  -0.664 -0.7579 -0.8626 -0.2066
  942MOL0     H27130   0.252   0.923  -0.767  0.5753  3.9732 -2.5827
  942MOL0     H27131   0.250   1.115  -0.920  0.6287  1.6916 -2.1358
  942MOL0     H27132   0.265   1.074  -1.092  0.7878 -0.7937 -0.3065
  942MOL0     H27133   0.116   1.038  -1.018 -0.6315 -3.5122  0.1967
  942MOL0     H27134   0.140   0.755  -1.440  3.1965 -1.2870 -1.3271
  942MOL0     H27135   0.116   0.790  -1.685 -1.5794  1.0276 -1.1419
  942MOL0     H27136   0.199   1.139  -1.959  2.3300  0.4181 -0.5846
  942MOL0     H27137   0.286   1.198  -1.828 -3.6300  1.9916  0.3427
  942MOL0     H27138   0.429   1.099  -1.994  3.3071 -1.1179  1.0451
  942MOL0     H27139   0.443   1.029  -1.829 -2.0697 -2.0192  0.9077
  942MOL0     H27140   0.286   0.835  -1.979  1.1465 -1.7486  0.5993
  942MOL0     H27141   0.443   0.829  -1.919  1.1015 -0.8603 -1.4174
  942MOL0     H27142   0.346   0.835  -2.189 -1.9605 -0.1279  1.9292
  942MOL0     H27143   0.422   0.985  -2.180 -1.2726 -0.3531  0.1285
  942MOL0     H27144   0.573   0.724  -2.088  1.6842 -0.7405 -1.3690
  942MOL0     H27145   0.628   0.894  -2.093 -0.8650 -0.2396  0.2691
  942MOL0     H27146   0.714   0.758  -2.263  1.5195  2.8827 -2.3478
  942MOL0     H27147   0.560   0.715  -2.336  0.5865  0.4626 -0.1119
  942MOL0     H27148   0.633   1.013  -2.290  0.7024 -1.2326  1.2396
  942MOL0     H27149   0.529   0.935  -2.419 -0.6886  2.1354  1.6243
  942MOL0     H27150   0.835   0.917  -2.394  0.6554  0.6093 -1.8150
  942MOL0     H27151   0.745   1.024  -2.496 -4.2230  1.4319  0.6896
  942MOL0     H27152   0.230   1.205  -1.620 -4.2354 -0.2615 -1.0393
  942MOL0     H27153   0.304   1.140  -1.376  0.1458 -2.0452  1.9703
  942MOL0     H27154   0.369   0.581  -1.094 -3.6550 -2.6230  1.6762
  942MOL0     H27155   0.351   0.533  -0.848 -2.0999 -1.0952  0.4658
  942MOL0     H27156   1.398   0.829   0.346  2.7105 -2.5291  3.0576
  942MOL0     H27157   1.402   0.759   0.554 -1.1366  0.4434  1.8487
  942MOL0     H27158   1.253   0.753   1.040  1.9296 -0.2408 -0.7817
  942MOL0     H27159   1.181   0.652   1.252 -3.9011 -1.1213  1.4771
  942MOL0     H27160   1.187   0.355   1.472  1.1433 -0.5850 -2.5313
  942MOL0     H27161   1.215   0.524   1.431 -0.1191  1.2253 -1.3033
  942MOL0     H27162   0.986   0.573   1.445  0.0449  0.1937 -0.8607
  942MOL0     H27163   1.049   0.522   1.610  1.3837 -0.3119  0.1312
  942MOL0     H27164   0.968   0.303   1.581 -2.4238  0.6211  3.0600
  942MOL0     H27165   0.887   0.346   1.427 -0.9671 -0.0285  0.5029
  942MOL0     H27166   0.810   0.432   1.714  1.2048  3.6039 -0.4265
  942MOL0     H27167   0.712   0.340   1.607 -1.4694  0.2151  2.4684
  942MOL0     H27168   0.640   0.748   1.497  4.2519  2.4145  1.4315
  942MOL0     H27169   1.121   0.285   1.066  1.6345  0.3050  0.5199
  942MOL0     H27170   1.177   0.370   0.851 -0.7159  0.3295 -1.3871
  943MOL0     O27171   2.960   9.254   5.122 -1.0623 -0.4032 -0.3383
  943MOL0     C27172   3.005   9.198   5.026 -0.2637 -0.8313 -0.2140
  943MOL0     O27173   3.029   9.254   4.909 -0.4735  0.0401 -0.4477
  943MOL0     C27174   3.093   9.376   4.894  0.3030 -0.7009 -1.3358
  943MOL0     C27175   3.146   9.448   5.006  0.0605  0.5615  0.1558
  943MOL0     C27176   3.202   9.577   4.996 -0.2361 -0.6801 -0.4981
  943MOL0     C27177   3.208   9.629   4.864 -1.5340  0.3028  0.3806
  943MOL0     O27178   3.254   9.764   4.830  0.3870  0.1648 -0.3464
  943MOL0     C27179   3.254   9.865   4.935 -0.1300  1.3884  0.2479
  943MOL0     C27180   3.293   9.999   4.873  0.5510 -0.2060 -0.0928
  943MOL0     C27181   3.425   9.994   4.797 -0.4672 -0.0736 -0.0989
  943MOL0     C27182   3.468  10.130   4.750  0.1439 -0.6310  0.5364
  943MOL0     C27183   3.612  10.129   4.710 -0.2335 -0.7153 -0.6028
  943MOL0     C27184   3.652  10.261   4.644  0.3395 -0.2579  0.9235
  943MOL0     C27185   3.779  10.234   4.567 -0.2513  0.2094  0.3089
  943MOL0     C27186   3.832  10.359   4.493  0.1645 -0.0020 -0.8881
  943MOL0     N27187   3.953  10.334   4.425  0.6339 -0.1029  0.1649
  943MOL0     C27188   3.954  10.332   4.292 -0.1921  0.1572  0.6683
  943MOL0     C27189   4.083  10.336   4.254  0.7192  0.5734 -0.5830
  943MOL0     C27190   4.145  10.317   4.117 -0.8881  0.0253 -0.5962
  943MOL0     C27191   4.232  10.184   4.111  0.8623  0.9140 -0.2818
  943MOL0     C27192   4.365  10.198   4.167  0.3967 -0.2197 -0.5362
  943MOL0     C27193   4.459  10.074   4.160  0.2658 -0.3054  0.6982
  943MOL0     O27194   4.381   9.957   4.200 -0.1154  0.2722  0.0554
  943MOL0     C27195   4.381   9.848   4.113  0.4445  0.2819  0.3906
  943MOL0     C27196   4.351   9.854   3.974 -1.1746  0.1955 -0.6099
  943MOL0     C27197   4.363   9.741   3.895  1.1691 -0.2326  1.1698
  943MOL0     C27198   4.317   9.749   3.746  0.2779  0.1133 -0.9784
  943MOL0     C27199   4.390   9.613   3.954 -0.0332  0.8967 -0.3636
  943MOL0     C27200   4.393   9.477   3.879 -0.5563 -0.7888  0.5998
  943MOL0     O27201   4.435   9.368   3.950 -0.2659 -0.4815 -0.4326
  943MOL0     C27202   4.447   9.241   3.891 -1.0620 -0.3065 -0.4583
  943MOL0     C27203   4.340   9.168   3.836 -0.0125  0.0504  0.7006
  943MOL0     C27204   4.367   9.036   3.777  0.5933  0.2569  0.4382
  943MOL0     C27205   4.492   8.979   3.790  0.4834  0.5290 -1.1617
  943MOL0     O27206   4.507   8.867   3.726  0.2163  0.8225  0.2346
  943MOL0     C27207   4.590   8.771   3.786 -0.6636  1.5297  0.1880
  943MOL0     C27208   4.554   8.650   3.703 -0.3313 -1.8490 -0.6317
  943MOL0     C27209   4.614   8.534   3.782  0.1530 -0.3508  0.4226
  943MOL0     C27210   4.589   8.402   3.701 -0.2253 -0.2899 -0.5433
  943MOL0     C27211   4.671   8.295   3.770 -0.1384  0.0320  0.1043
  943MOL0     C27212   4.632   8.158   3.716  0.6523 -0.2537  0.0013
  943MOL0     C27213   4.734   8.057   3.770  0.0598 -0.5999  0.3563
  943MOL0     C27214   4.684   7.910   3.762 -0.5393 -0.0221  0.7363
  943MOL0    Cl27215   4.789   7.780   3.851 -0.5787 -0.0752  0.1995
  943MOL0     C27216   4.594   9.047   3.863  0.5055  0.2721  0.3387
  943MOL0     C27217   4.570   9.174   3.911 -0.0575 -0.7188  0.0199
  943MOL0     O27218   4.341   9.476   3.768  0.3892  0.6563  0.0121
  943MOL0     C27219   4.423   9.609   4.084  0.7462  1.3268  0.2834
  943MOL0     C27220   4.414   9.724   4.163  0.2148  0.1616 -0.7735
  943MOL0     N27221   4.169  10.352   4.371 -0.0134  0.2382  1.2346
  943MOL0     N27222   4.082  10.343   4.468  0.5181  0.1116  0.2686
  943MOL0     C27223   3.159   9.544   4.751 -1.0231 -0.5907 -0.5713
  943MOL0     C27224   3.098   9.424   4.765  0.1788 -0.3760 -0.4929
  943MOL0     C27225   3.032   9.041   5.048  0.2395 -0.0658  1.0010
  943MOL0     C27226   3.090   8.970   4.940  0.0090  0.0467  0.5204
  943MOL0     C27227   3.088   8.831   4.942 -1.2703 -0.9963  0.4564
  943MOL0     C27228   3.061   8.759   5.060  0.3944 -0.3475  0.0847
  943MOL0     O27229   3.039   8.625   5.081 -0.2880  0.3769 -0.1246
  943MOL0     C27230   3.110   8.536   4.995 -0.0653 -0.2691  0.3127
  943MOL0     C27231   3.254   8.524   5.047 -0.6225  0.0983  0.0988
  943MOL0     C27232   3.258   8.453   5.178  0.3587 -0.9886  1.0802
  943MOL0     C27233   3.404   8.418   5.211 -0.2888  0.0614 -0.8208
  943MOL0     C27234   3.433   8.365   5.347 -0.2809 -0.1742 -0.2215
  943MOL0     C27235   3.485   8.331   5.459  0.2501 -0.3834 -0.2346
  943MOL0     C27236   3.003   8.835   5.165  0.4826  1.3216  0.2072
  943MOL0     C27237   2.995   8.970   5.166  0.1211 -0.2404 -0.5287
  943MOL0     H27238   3.155   9.407   5.106  1.6773  0.5815  0.0463
  943MOL0     H27239   3.222   9.636   5.085  0.5604 -2.3252  0.4624
  943MOL0     H27240   3.157   9.860   4.985  0.3682 -4.7231  1.3973
  943MOL0     H27241   3.334   9.839   5.005  1.7124 -0.9948 -2.4816
  943MOL0     H27242   3.216  10.033   4.803 -0.1911  1.9694  1.6882
  943MOL0     H27243   3.274  10.065   4.957  0.4671 -0.2575 -0.0706
  943MOL0     H27244   3.503   9.961   4.867 -0.1241  0.7806 -0.0722
  943MOL0     H27245   3.414   9.931   4.708  0.6534  0.0221 -0.3184
  943MOL0     H27246   3.401  10.172   4.674  0.2456 -0.5228  0.5055
  943MOL0     H27247   3.439  10.202   4.827 -2.4747 -2.7942  1.7747
  943MOL0     H27248   3.672  10.105   4.798  0.3319  0.8292 -0.5336
  943MOL0     H27249   3.634  10.054   4.633  4.4118 -2.4713  1.9819
  943MOL0     H27250   3.575  10.303   4.578 -0.5544 -4.2197 -0.8950
  943MOL0     H27251   3.662  10.330   4.728  1.2585  0.4668  0.2294
  943MOL0     H27252   3.852  10.192   4.637  1.7307  1.6488 -0.7855
  943MOL0     H27253   3.752  10.149   4.503 -1.5147 -1.4265  2.8182
  943MOL0     H27254   3.853  10.426   4.577 -0.5454 -1.2133  0.3058
  943MOL0     H27255   3.755  10.408   4.432  0.4745 -0.1745 -1.4277
  943MOL0     H27256   3.868  10.312   4.229 -1.4878  4.0320  0.9547
  943MOL0     H27257   4.072  10.310   4.036 -0.2969 -2.2953 -1.0032
  943MOL0     H27258   4.204  10.408   4.099 -0.1864 -0.1501  0.7577
  943MOL0     H27259   4.228  10.145   4.009 -1.5372 -1.1030  0.4744
  943MOL0     H27260   4.182  10.110   4.175  1.8240  1.2391  0.8843
  943MOL0     H27261   4.353  10.208   4.275 -1.3457  0.3655 -0.7435
  943MOL0     H27262   4.414  10.285   4.122 -0.6430  0.3562 -0.5926
  943MOL0     H27263   4.541  10.103   4.225 -0.0078  3.1831 -0.3254
  943MOL0     H27264   4.497  10.053   4.059  3.9614 -1.2358  2.1338
  943MOL0     H27265   4.315   9.947   3.932 -1.3027 -0.4571 -1.9983
  943MOL0     H27266   4.211   9.722   3.747 -0.2971  2.1455  0.6724
  943MOL0     H27267   4.332   9.851   3.710 -0.1034  1.2339  1.7671
  943MOL0     H27268   4.373   9.688   3.675 -1.0076  0.3689 -2.2607
  943MOL0     H27269   4.237   9.203   3.832  0.1464  0.4408 -1.9295
  943MOL0     H27270   4.281   8.989   3.730  0.6443  2.0422 -1.5988
  943MOL0     H27271   4.698   8.788   3.771  0.3690 -3.9135 -0.3896
  943MOL0     H27272   4.558   8.768   3.890 -1.3456  0.1714 -0.0402
  943MOL0     H27273   4.444   8.652   3.698 -0.6180  2.1939  2.4193
  943MOL0     H27274   4.591   8.665   3.601  0.3427 -1.1813 -0.2983
  943MOL0     H27275   4.572   8.540   3.883 -2.9339  1.5617 -0.8283
  943MOL0     H27276   4.720   8.561   3.789  0.2831  0.2704 -2.4692
  943MOL0     H27277   4.482   8.380   3.707 -0.2463 -0.4395 -1.3558
  943MOL0     H27278   4.621   8.404   3.597  0.9488 -2.5986 -0.2732
  943MOL0     H27279   4.655   8.302   3.878  1.0577 -0.1935  0.3072
  943MOL0     H27280   4.771   8.329   3.743 -0.1470  1.4027  1.6698
  943MOL0     H27281   4.532   8.138   3.754  0.8553 -0.1649  0.5895
  943MOL0     H27282   4.623   8.163   3.607 -3.6986  0.1037  0.2087
  943MOL0     H27283   4.733   8.081   3.877 -0.5585 -1.7598  0.6153
  943MOL0     H27284   4.835   8.071   3.731 -0.1454 -2.3403 -0.8914
  943MOL0     H27285   4.692   7.869   3.661  1.0029 -0.0723  0.8676
  943MOL0     H27286   4.585   7.894   3.806 -0.7146  1.6456  1.0065
  943MOL0     H27287   4.692   9.011   3.891  0.3959  0.4399  0.9675
  943MOL0     H27288   4.634   9.234   3.975 -0.6758 -0.8954  0.8307
  943MOL0     H27289   4.446   9.515   4.133  1.2793  0.8644 -0.8200
  943MOL0     H27290   4.433   9.710   4.269 -0.6309 -0.5769 -0.7052
  943MOL0     H27291   3.187   9.590   4.656  0.2021  3.8682  1.6522
  943MOL0     H27292   3.064   9.366   4.680  0.2571 -0.6081 -0.3673
  943MOL0     H27293   3.117   9.030   4.853  0.4802 -1.1140 -0.1574
  943MOL0     H27294   3.121   8.792   4.846  0.6782  0.2606  0.5584
  943MOL0     H27295   3.074   8.435   4.974  0.6858 -0.6221  0.6911
  943MOL0     H27296   3.110   8.577   4.894  0.0957  0.7908  0.7262
  943MOL0     H27297   3.302   8.618   5.073 -0.7753 -0.4735  2.7470
  943MOL0     H27298   3.316   8.492   4.963  0.0578 -0.3778  0.7638
  943MOL0     H27299   3.204   8.359   5.166  2.6826 -2.1981 -0.9139
  943MOL0     H27300   3.214   8.516   5.255 -2.9645 -0.3836 -1.1244
  943MOL0     H27301   3.467   8.506   5.197 -0.3052  0.9830  3.4407
  943MOL0     H27302   3.435   8.333   5.150  1.0834  0.1499 -0.2884
  943MOL0     H27303   3.529   8.305   5.553 -0.9137 -2.3635 -0.1731
  943MOL0     H27304   2.984   8.771   5.251  0.4949 -1.2027 -1.5334
  943MOL0     H27305   2.980   9.038   5.249 -3.6159  0.0833 -1.3036
  944MOL0     O27306   5.699  10.114   9.759 -0.8106  0.1658 -0.3545
  944MOL0     C27307   5.682  10.079   9.641  0.7285 -0.5331 -0.0813
  944MOL0     O27308   5.575  10.122   9.558 -0.5335 -1.0375  1.1689
  944MOL0     C27309   5.496  10.200   9.625 -0.2337 -0.0072 -0.2024
  944MOL0     C27310   5.496  10.342   9.604  1.0550  0.1650  0.5737
  944MOL0     C27311   5.414  10.427   9.674  0.1351  0.1382 -0.3126
  944MOL0     C27312   5.343  10.382   9.782  0.1193 -0.0146  0.7037
  944MOL0     O27313   5.259  10.456   9.865 -0.0962  0.2602 -0.2429
  944MOL0     C27314   5.235  10.586   9.821  1.4636  0.4146 -0.1658
  944MOL0     C27315   5.117  10.624   9.910  0.3619 -0.3711  0.6541
  944MOL0     C27316   4.985  10.545   9.884 -0.0537  0.1945 -0.4510
  944MOL0     C27317   4.851  10.612   9.923 -0.1321  0.0256  1.1472
  944MOL0     C27318   4.737  10.516   9.871 -0.6297  0.5731 -0.4669
  944MOL0     C27319   4.591  10.532   9.931 -0.1004 -0.2303 -0.4234
  944MOL0     C27320   4.492  10.458   9.850 -0.2592  0.4361 -0.0935
  944MOL0     C27321   4.499  10.312   9.898  0.4996 -0.1159 -0.7277
  944MOL0     N27322   4.374  10.231   9.876  0.7290  0.0062  0.7871
  944MOL0     C27323   4.264  10.242   9.958  0.4620 -1.1836  0.0573
  944MOL0     C27324   4.188  10.143   9.923 -0.0558  0.4564 -0.1553
  944MOL0     C27325   4.059  10.101   9.978 -0.0217 -0.3094  0.0802
  944MOL0     C27326   3.961  10.016   9.896 -0.5481 -0.0740  0.4925
  944MOL0     C27327   3.894  10.105   9.797  1.7348  0.0584  0.4036
  944MOL0     C27328   3.780  10.024   9.726  0.6647  0.3538  0.6349
  944MOL0     O27329   3.827   9.952   9.607  0.4851 -0.3820 -0.1786
  944MOL0     C27330   3.828  10.020   9.482 -0.3246  0.6897  0.1944
  944MOL0     C27331   3.901   9.958   9.382 -0.8012  0.4007 -0.4452
  944MOL0     C27332   3.925  10.005   9.257 -0.7366  0.4113  0.0147
  944MOL0     C27333   4.002   9.918   9.153 -0.2648  0.2197 -0.5070
  944MOL0     C27334   3.856  10.128   9.214  0.6656 -0.5740 -0.6841
  944MOL0     C27335   3.870  10.199   9.078  0.5110  0.0689 -0.1485
  944MOL0     O27336   3.773  10.288   9.048 -0.0947  0.1219 -0.1494
  944MOL0     C27337   3.776  10.365   8.931 -0.5101 -0.3977  0.8537
  944MOL0     C27338   3.661  10.382   8.858  0.3354  1.1374 -0.5729
  944MOL0     C27339   3.653  10.479   8.757  0.8619  0.0041  0.4528
  944MOL0     C27340   3.761  10.556   8.715 -0.1271 -0.5914 -0.5410
  944MOL0     O27341   3.748  10.631   8.604 -0.5628  0.0024  0.7491
  944MOL0     C27342   3.860  10.640   8.513  0.0067  0.4664  1.0149
  944MOL0     C27343   3.943  10.766   8.536  0.5227  0.3476 -0.0636
  944MOL0     C27344   4.049  10.794   8.430  0.1834  0.2175 -0.1271
  944MOL0     C27345   4.111  10.925   8.454 -0.2846 -1.0523 -0.1149
  944MOL0     C27346   4.240  10.954   8.379 -0.6677  0.9985 -0.4668
  944MOL0     C27347   4.217  10.928   8.232  0.1878 -0.5703 -0.7178
  944MOL0     C27348   4.108  11.022   8.160 -1.3029 -0.2651 -0.2804
  944MOL0     C27349   4.141  11.041   8.017 -0.4111 -0.1321  0.0432
  944MOL0    Cl27350   4.033  10.949   7.912 -0.2762  0.1462  0.0851
  944MOL0     C27351   3.876  10.551   8.805 -0.3704 -0.3274  0.4044
  944MOL0     C27352   3.889  10.447   8.899  0.5769  0.2630 -0.1299
  944MOL0     O27353   3.965  10.167   9.009 -0.9260  0.3631 -0.5601
  944MOL0     C27354   3.769  10.187   9.313  0.6086  0.1494  1.2306
  944MOL0     C27355   3.763  10.137   9.447 -0.3689 -0.3421  0.5401
  944MOL0     N27356   4.247  10.075   9.813  0.1900 -0.9345  1.1370
  944MOL0     N27357   4.351  10.140   9.781  0.1112 -0.2714  0.4265
  944MOL0     C27358   5.344  10.246   9.809 -0.3351  0.6251  0.4855
  944MOL0     C27359   5.418  10.153   9.729 -0.4657  0.2518  0.3282
  944MOL0     C27360   5.783   9.985   9.597 -0.0485 -0.4581  0.1331
  944MOL0     C27361   5.781   9.935   9.467  0.5535  0.2203 -0.1599
  944MOL0     C27362   5.874   9.843   9.427  0.3669 -0.8468  0.0371
  944MOL0     C27363   5.971   9.791   9.521  0.9122  0.0488  1.2988
  944MOL0     O27364   6.067   9.705   9.471 -0.3003 -0.6789  0.0369
  944MOL0     C27365   6.159   9.639   9.556 -0.7523  0.3542 -0.0654
  944MOL0     C27366   6.273   9.558   9.481  0.4074  0.6251 -0.7749
  944MOL0     C27367   6.372   9.640   9.421 -0.7230 -0.0250 -0.9393
  944MOL0     C27368   6.514   9.592   9.430 -0.2449 -0.1745  0.2542
  944MOL0     C27369   6.599   9.634   9.543 -0.0493  0.4224 -0.2666
  944MOL0     C27370   6.641   9.678   9.650 -0.0669 -0.4013 -0.1710
  944MOL0     C27371   5.966   9.832   9.649  0.7733 -0.8466 -0.4069
  944MOL0     C27372   5.873   9.929   9.692  0.7035  0.0847 -0.4688
  944MOL0     H27373   5.572  10.377   9.535  1.5277  1.9305  1.9199
  944MOL0     H27374   5.421  10.531   9.646  0.8041 -1.1689 -6.4680
  944MOL0     H27375   5.323  10.650   9.830  1.7545  0.3302 -2.0277
  944MOL0     H27376   5.188  10.596   9.723 -1.6594  2.6308  1.3931
  944MOL0     H27377   5.152  10.621  10.014  1.3085  2.0050  0.4650
  944MOL0     H27378   5.097  10.730   9.898 -0.4426 -0.2777  2.3965
  944MOL0     H27379   4.984  10.519   9.778  2.7783  0.3656 -0.5979
  944MOL0     H27380   4.992  10.451   9.939 -1.1006 -0.1568 -0.8922
  944MOL0     H27381   4.837  10.618  10.031 -2.8296 -2.3870  1.0634
  944MOL0     H27382   4.844  10.709   9.872 -1.1124 -0.3098  0.6161
  944MOL0     H27383   4.733  10.532   9.763 -2.4351 -1.5947 -0.7942
  944MOL0     H27384   4.776  10.417   9.895  0.4126  1.1152  0.1820
  944MOL0     H27385   4.593  10.492  10.033 -1.7257  0.9996  0.1473
  944MOL0     H27386   4.554  10.635   9.927 -1.7291 -0.8285 -2.5486
  944MOL0     H27387   4.392  10.483   9.885 -0.5020 -3.9113  3.2263
  944MOL0     H27388   4.513  10.478   9.744  1.2221  0.9695  0.2784
  944MOL0     H27389   4.515  10.299  10.005 -0.0310 -2.8417 -0.9196
  944MOL0     H27390   4.594  10.269   9.866 -0.3437 -1.3023 -1.7071
  944MOL0     H27391   4.254  10.316  10.037  1.4558  0.0056 -0.9018
  944MOL0     H27392   4.085  10.041  10.066 -1.1168  2.4806  2.4270
  944MOL0     H27393   4.006  10.185  10.023 -2.5605 -1.9330  0.3814
  944MOL0     H27394   3.899   9.969   9.974  1.3114  0.4191  2.3686
  944MOL0     H27395   4.014   9.932   9.850 -1.4192 -1.7736  2.4166
  944MOL0     H27396   3.960  10.130   9.714  1.6846  0.5925  0.5224
  944MOL0     H27397   3.848  10.197   9.835  0.8007 -0.1136 -0.2864
  944MOL0     H27398   3.702  10.092   9.693  2.5907  2.2201 -0.3403
  944MOL0     H27399   3.737   9.954   9.799 -0.2153  2.7173  2.5017
  944MOL0     H27400   3.953   9.869   9.418  2.4722  2.7225  1.0787
  944MOL0     H27401   4.024   9.818   9.192  2.4134  1.0039  0.2059
  944MOL0     H27402   3.936   9.897   9.068 -3.6359 -0.8649  2.1351
  944MOL0     H27403   4.090   9.980   9.135 -0.8383  2.6514  3.6074
  944MOL0     H27404   3.571  10.323   8.873 -0.2709  2.3133  0.6033
  944MOL0     H27405   3.560  10.467   8.702  0.6407 -0.3682  0.8962
  944MOL0     H27406   3.924  10.551   8.512 -0.1378  0.3615  1.1632
  944MOL0     H27407   3.817  10.642   8.412  1.1817 -0.2471  0.4717
  944MOL0     H27408   3.868  10.845   8.541  0.0206 -0.0792 -0.6231
  944MOL0     H27409   3.994  10.758   8.632 -1.1960 -2.2584  0.7253
  944MOL0     H27410   3.990  10.803   8.339 -0.4051 -3.0842 -0.2186
  944MOL0     H27411   4.119  10.711   8.415 -1.6791 -1.1379 -1.8882
  944MOL0     H27412   4.044  11.006   8.425 -2.5746 -3.6532 -2.5640
  944MOL0     H27413   4.130  10.941   8.561 -2.1768  0.8974 -0.0075
  944MOL0     H27414   4.311  10.884   8.425  1.3396  1.6841 -2.3410
  944MOL0     H27415   4.272  11.054   8.410 -0.4686  0.5968  0.6809
  944MOL0     H27416   4.311  10.948   8.180  0.5369  0.5191  0.2971
  944MOL0     H27417   4.185  10.824   8.226 -0.9725 -0.3895  1.4843
  944MOL0     H27418   4.131  11.113   8.216  3.7426 -3.1708  3.2305
  944MOL0     H27419   4.005  10.990   8.174 -1.0114 -3.5275 -3.8480
  944MOL0     H27420   4.242  11.001   8.009  0.0135 -0.6728  4.8264
  944MOL0     H27421   4.153  11.143   7.981 -1.1264  0.2663  0.8945
  944MOL0     H27422   3.953  10.626   8.789 -0.5775 -0.3367 -0.7383
  944MOL0     H27423   3.977  10.438   8.961 -0.9863 -0.7340  2.0607
  944MOL0     H27424   3.710  10.272   9.281  0.1383 -0.0391  1.5896
  944MOL0     H27425   3.703  10.189   9.521  1.1675  0.1796  1.4714
  944MOL0     H27426   5.292  10.216   9.900  0.5070 -2.4904  0.0751
  944MOL0     H27427   5.401  10.046   9.724  1.0644  0.0506 -3.0611
  944MOL0     H27428   5.704   9.962   9.396 -0.5877 -2.5745 -0.0864
  944MOL0     H27429   5.859   9.809   9.325 -1.9544 -1.9915  0.6795
  944MOL0     H27430   6.203   9.701   9.635  0.5129 -1.1297  0.4606
  944MOL0     H27431   6.090   9.568   9.602 -1.4022  0.9707 -0.0862
  944MOL0     H27432   6.223   9.507   9.398 -1.9618 -1.3487  1.6623
  944MOL0     H27433   6.306   9.486   9.557 -0.2561  0.2025 -0.8731
  944MOL0     H27434   6.367   9.742   9.460 -6.5563 -0.4391  0.2920
  944MOL0     H27435   6.343   9.657   9.317 -1.5705  2.2712 -0.3937
  944MOL0     H27436   6.563   9.635   9.341 -2.9181 -0.2680 -1.3788
  944MOL0     H27437   6.514   9.483   9.425 -2.4457 -0.2615  0.9824
  944MOL0     H27438   6.686   9.718   9.738 -0.1674  1.0108 -0.7442
  944MOL0     H27439   6.031   9.791   9.725 -0.9990  0.0842  1.7092
  944MOL0     H27440   5.869   9.959   9.796  1.8384  0.3511 -0.4935
  945MOL0     O27441   1.172   8.046   4.766 -0.3895 -0.3691 -0.4165
  945MOL0     C27442   1.084   8.133   4.744 -1.6581  1.2913 -0.3490
  945MOL0     O27443   1.049   8.178   4.620 -0.1144  0.1175 -0.1009
  945MOL0     C27444   1.095   8.110   4.510 -0.1633 -0.3037  0.1127
  945MOL0     C27445   1.078   7.979   4.484  0.3948  0.3252 -0.0498
  945MOL0     C27446   1.115   7.935   4.353 -0.9970  0.0010 -1.0656
  945MOL0     C27447   1.173   8.020   4.258 -0.0629 -0.9369  0.1348
  945MOL0     O27448   1.212   7.953   4.142  0.8632  0.3626 -0.1123
  945MOL0     C27449   1.209   8.033   4.017 -0.0684 -0.1494  0.8156
  945MOL0     C27450   1.215   7.930   3.900  0.2744 -0.7230 -0.8083
  945MOL0     C27451   1.360   7.879   3.879 -0.0403  0.6873  0.2635
  945MOL0     C27452   1.424   7.998   3.816  0.3118  0.5343  0.1800
  945MOL0     C27453   1.544   7.953   3.727  0.0397 -0.1559 -1.0919
  945MOL0     C27454   1.665   7.932   3.814  0.0672  0.2729 -0.4216
  945MOL0     C27455   1.775   7.863   3.732 -0.6042 -0.0524  0.1014
  945MOL0     C27456   1.822   7.939   3.607 -0.8628  1.0485 -0.4826
  945MOL0     N27457   1.941   8.023   3.635 -1.0368 -0.3694 -0.0810
  945MOL0     C27458   1.945   8.161   3.629  0.4476  0.4842 -0.1761
  945MOL0     C27459   2.078   8.194   3.645 -0.0536  0.4492 -0.0334
  945MOL0     C27460   2.133   8.334   3.666  0.0277 -0.5824 -0.4084
  945MOL0     C27461   2.084   8.427   3.555 -0.2856 -0.3676  0.4760
  945MOL0     C27462   2.142   8.572   3.568  0.6146 -0.4163 -0.5552
  945MOL0     C27463   2.216   8.621   3.446 -0.5712 -0.0993  0.4300
  945MOL0     O27464   2.359   8.602   3.477  0.2609 -0.2565 -0.4526
  945MOL0     C27465   2.443   8.668   3.389  0.7247  0.1531  0.4792
  945MOL0     C27466   2.522   8.585   3.309  1.2279  0.5059 -0.0573
  945MOL0     C27467   2.607   8.636   3.227 -0.9748 -0.3446 -0.2976
  945MOL0     C27468   2.728   8.544   3.192  1.1837  0.7149  0.0309
  945MOL0     C27469   2.612   8.781   3.201  0.4325  0.5338 -0.4571
  945MOL0     C27470   2.696   8.864   3.112  0.8616 -0.2065  0.7941
  945MOL0     O27471   2.748   8.796   3.007 -0.0482  0.2300 -0.3359
  945MOL0     C27472   2.806   8.860   2.904  0.2097  0.0707 -0.3937
  945MOL0     C27473   2.922   8.792   2.865 -0.1676 -0.3325  0.7126
  945MOL0     C27474   2.991   8.846   2.756  0.6396  0.1042 -0.1106
  945MOL0     C27475   2.944   8.949   2.677 -0.6770 -0.3751  0.1389
  945MOL0     O27476   3.021   8.988   2.570 -0.6143 -0.2945  0.7181
  945MOL0     C27477   3.012   9.119   2.514 -0.2946 -0.8823 -0.2528
  945MOL0     C27478   3.072   9.116   2.369  0.1148 -0.6994 -0.8325
  945MOL0     C27479   2.984   9.043   2.270 -0.2119 -0.2859  0.9197
  945MOL0     C27480   3.056   9.024   2.135  1.1084 -0.7005  0.4894
  945MOL0     C27481   2.962   8.943   2.035  0.1767  0.1642 -0.4105
  945MOL0     C27482   3.024   8.954   1.893 -0.2408  0.2228 -0.4071
  945MOL0     C27483   2.984   8.856   1.779 -0.6214  0.3814  0.4554
  945MOL0     C27484   2.844   8.832   1.746 -0.7187  0.2448  0.4875
  945MOL0    Cl27485   2.753   8.715   1.860 -0.0590 -0.4040 -0.0471
  945MOL0     C27486   2.833   9.018   2.720 -0.2673 -0.1589  0.0927
  945MOL0     C27487   2.760   8.975   2.831 -0.5840  0.1983  0.4658
  945MOL0     O27488   2.700   8.991   3.122  0.0761  0.1059 -0.0968
  945MOL0     C27489   2.507   8.858   3.267  1.2449 -0.1964 -0.7327
  945MOL0     C27490   2.428   8.798   3.360 -0.0842  0.1686  0.7240
  945MOL0     N27491   2.151   8.066   3.647 -0.1343  0.2096  0.1668
  945MOL0     N27492   2.069   7.968   3.632 -0.4951 -0.0520 -0.2964
  945MOL0     C27493   1.160   8.161   4.282 -1.2175 -0.4312  1.0851
  945MOL0     C27494   1.121   8.202   4.413 -0.3575 -0.9198 -0.3213
  945MOL0     C27495   1.060   8.225   4.849 -0.0994 -0.2033  0.0813
  945MOL0     C27496   1.133   8.230   4.971  0.6513 -0.4943  0.3574
  945MOL0     C27497   1.115   8.343   5.054 -0.2927  0.9443 -0.3551
  945MOL0     C27498   1.019   8.444   5.028 -0.3848  0.1281  0.2375
  945MOL0     O27499   0.991   8.545   5.117 -0.3020 -0.5756  0.1453
  945MOL0     C27500   1.034   8.545   5.254 -0.0839 -0.1001  0.0118
  945MOL0     C27501   0.956   8.463   5.352  0.0521  0.5561 -1.5568
  945MOL0     C27502   1.010   8.475   5.495 -0.4564  0.6861 -0.2259
  945MOL0     C27503   1.026   8.325   5.552 -0.4903  0.5140 -0.4542
  945MOL0     C27504   1.139   8.254   5.484  0.0615 -0.1170  0.4436
  945MOL0     C27505   1.237   8.198   5.431 -0.0047  0.0262  0.3247
  945MOL0     C27506   0.950   8.440   4.910  0.1094  1.4538  0.0494
  945MOL0     C27507   0.964   8.324   4.826  0.4087  0.1616  0.2283
  945MOL0     H27508   1.024   7.919   4.557 -1.1577  1.9185  0.1749
  945MOL0     H27509   1.109   7.833   4.315  4.0158  0.1001 -2.8676
  945MOL0     H27510   1.106   8.068   4.010 -0.1085 -0.3950  0.0698
  945MOL0     H27511   1.288   8.105   3.996  2.1412 -2.8720 -1.0654
  945MOL0     H27512   1.146   7.850   3.928 -2.9965  0.7620 -3.7095
  945MOL0     H27513   1.178   7.978   3.809  0.1002  0.8467  0.0429
  945MOL0     H27514   1.416   7.839   3.964  1.7595 -3.2272 -2.4578
  945MOL0     H27515   1.357   7.795   3.809  0.9818  1.0780 -0.2797
  945MOL0     H27516   1.364   8.060   3.748 -0.3642 -0.1157  0.1796
  945MOL0     H27517   1.464   8.063   3.895 -2.5131  0.7591  1.5510
  945MOL0     H27518   1.517   7.855   3.686 -2.0992 -0.6957  1.3231
  945MOL0     H27519   1.561   8.032   3.654  1.9171 -2.2553 -3.1131
  945MOL0     H27520   1.704   8.030   3.840  1.6560 -1.0214  2.5368
  945MOL0     H27521   1.651   7.873   3.905  2.0109  0.2411 -0.1023
  945MOL0     H27522   1.853   7.861   3.808 -2.0036  2.4861  1.7384
  945MOL0     H27523   1.747   7.759   3.710  0.0854 -0.5420  1.4087
  945MOL0     H27524   1.739   7.996   3.565 -0.1296  1.1843 -1.8173
  945MOL0     H27525   1.860   7.868   3.533 -1.5410  0.8363 -0.6309
  945MOL0     H27526   1.860   8.229   3.626 -1.7042 -2.1138 -2.0582
  945MOL0     H27527   2.100   8.369   3.764  0.6511 -2.2894  0.4491
  945MOL0     H27528   2.242   8.329   3.663  0.0987  0.4737 -0.1609
  945MOL0     H27529   1.976   8.421   3.542  0.0863  0.5039 -5.2652
  945MOL0     H27530   2.128   8.378   3.468 -0.3882 -1.0446  0.7924
  945MOL0     H27531   2.201   8.582   3.660  0.9846  1.1717 -0.9401
  945MOL0     H27532   2.052   8.627   3.596 -0.0537 -3.3420  4.3314
  945MOL0     H27533   2.188   8.724   3.422  1.8435 -0.0315 -2.7880
  945MOL0     H27534   2.192   8.570   3.352 -3.2853 -0.6983  1.3638
  945MOL0     H27535   2.529   8.477   3.315  2.8726  0.6297  0.9015
  945MOL0     H27536   2.713   8.511   3.089 -0.2657  3.7591 -0.8640
  945MOL0     H27537   2.825   8.595   3.201 -0.8289  4.8050  0.9672
  945MOL0     H27538   2.741   8.461   3.261  0.7908  2.1207  1.8906
  945MOL0     H27539   2.965   8.710   2.922 -1.5652 -0.7255  1.2200
  945MOL0     H27540   3.086   8.796   2.739  0.0564 -0.1757 -3.0920
  945MOL0     H27541   2.910   9.158   2.515 -0.0203 -0.1540  0.6928
  945MOL0     H27542   3.070   9.193   2.570  0.1997  2.4042 -4.6229
  945MOL0     H27543   3.094   9.218   2.339 -3.3681  1.8411  3.9131
  945MOL0     H27544   3.169   9.066   2.385  3.0354  4.2328 -0.9252
  945MOL0     H27545   2.894   9.102   2.255  2.2907  3.5414 -0.7679
  945MOL0     H27546   2.947   8.944   2.298 -2.3969 -0.9728 -3.5910
  945MOL0     H27547   3.079   9.115   2.079  1.2366 -0.8691  0.2663
  945MOL0     H27548   3.151   8.972   2.153  1.9018 -0.1336 -1.8070
  945MOL0     H27549   2.862   8.988   2.036 -1.4099 -3.1148 -0.4763
  945MOL0     H27550   2.953   8.839   2.067 -0.9141  0.0733 -0.9587
  945MOL0     H27551   3.014   9.059   1.864 -0.3495  0.1872 -0.4977
  945MOL0     H27552   3.132   8.955   1.913 -0.2021  3.4334 -0.2599
  945MOL0     H27553   3.029   8.757   1.791  2.7061  1.6562 -0.4016
  945MOL0     H27554   3.042   8.886   1.691  2.2999 -3.1108  0.9494
  945MOL0     H27555   2.830   8.797   1.644  0.1596  0.2834  0.3465
  945MOL0     H27556   2.779   8.920   1.750 -3.1012 -1.4349  2.2430
  945MOL0     H27557   2.787   9.101   2.668  0.1177 -0.7651 -1.2359
  945MOL0     H27558   2.672   9.035   2.854 -1.7620 -2.2527  2.8234
  945MOL0     H27559   2.492   8.963   3.244  0.5154 -0.0681  0.2471
  945MOL0     H27560   2.345   8.845   3.413 -2.5383 -3.7685  0.7972
  945MOL0     H27561   1.180   8.234   4.204 -0.1997  0.6826  2.3558
  945MOL0     H27562   1.113   8.309   4.424 -4.3840 -1.2376  1.4102
  945MOL0     H27563   1.199   8.149   4.999 -0.3867 -1.4079  0.2110
  945MOL0     H27564   1.179   8.350   5.141  0.8606  0.4025 -1.1257
  945MOL0     H27565   1.141   8.522   5.247 -0.0690  0.4537 -3.2704
  945MOL0     H27566   1.030   8.649   5.290 -1.3022 -0.7924  2.0023
  945MOL0     H27567   0.966   8.361   5.315  0.7853  0.7114 -1.8175
  945MOL0     H27568   0.849   8.484   5.352 -0.3163 -0.6445  2.1596
  945MOL0     H27569   0.956   8.540   5.565  0.3888  0.4976  0.6285
  945MOL0     H27570   1.110   8.520   5.499  0.0180 -0.4097  1.9581
  945MOL0     H27571   0.937   8.264   5.539  0.9893 -2.0919  0.8774
  945MOL0     H27572   1.040   8.341   5.660 -4.7600  1.3977  0.1646
  945MOL0     H27573   1.313   8.135   5.391  3.4256  1.7604  3.5428
  945MOL0     H27574   0.895   8.529   4.881  2.2032  3.0933  0.8229
  945MOL0     H27575   0.905   8.328   4.735 -0.2624  0.5821  0.6726
  946MOL0     O27576   2.960   6.985   3.794  0.0137 -0.5274 -0.3478
  946MOL0     C27577   2.889   6.936   3.704  0.6553 -0.0799 -0.0597
  946MOL0     O27578   2.777   6.866   3.720 -0.0366  0.0828  0.1656
  946MOL0     C27579   2.753   6.789   3.827 -0.1039 -0.3995  0.1903
  946MOL0     C27580   2.854   6.744   3.909 -1.3128  0.8608  0.2322
  946MOL0     C27581   2.814   6.650   4.005 -0.6091 -0.5960 -0.0089
  946MOL0     C27582   2.681   6.625   4.041 -0.5223 -1.0280  0.0488
  946MOL0     O27583   2.665   6.557   4.158 -0.1543 -0.5802 -0.3509
  946MOL0     C27584   2.542   6.558   4.221  0.9042  0.0644  0.1270
  946MOL0     C27585   2.542   6.501   4.361 -0.3280  0.1274  0.4653
  946MOL0     C27586   2.627   6.578   4.465 -1.0810  0.0681 -0.5020
  946MOL0     C27587   2.556   6.713   4.492 -0.2990 -0.0729 -0.7213
  946MOL0     C27588   2.605   6.789   4.619  0.4419  0.8474 -0.4553
  946MOL0     C27589   2.547   6.730   4.752 -0.2647  0.2782 -0.3344
  946MOL0     C27590   2.616   6.794   4.879  0.1354 -0.1631 -0.0749
  946MOL0     C27591   2.747   6.743   4.923 -0.1060  0.2266  0.3491
  946MOL0     N27592   2.729   6.605   4.971 -0.1889  0.0673 -0.1371
  946MOL0     C27593   2.680   6.564   5.092 -0.6392 -0.4742  0.3516
  946MOL0     C27594   2.725   6.434   5.099 -0.6460  0.4433  0.5485
  946MOL0     C27595   2.701   6.335   5.206  0.6741 -0.5018 -0.5333
  946MOL0     C27596   2.818   6.234   5.221 -0.0983  0.3455  0.1481
  946MOL0     C27597   2.972   6.271   5.198 -0.9406 -1.0079 -0.3186
  946MOL0     C27598   3.018   6.392   5.272 -0.9787 -0.6067 -0.6706
  946MOL0     O27599   2.964   6.411   5.409  0.0965 -0.0932 -0.5358
  946MOL0     C27600   2.992   6.336   5.514 -0.4243  0.5147 -1.1039
  946MOL0     C27601   2.922   6.367   5.629  0.1955  0.4557 -0.6184
  946MOL0     C27602   2.946   6.303   5.752 -0.2895  0.0137  0.2911
  946MOL0     C27603   2.843   6.334   5.858 -0.0467 -0.3201 -0.0600
  946MOL0     C27604   3.054   6.210   5.761  0.3285  0.8890  0.4544
  946MOL0     C27605   3.104   6.145   5.893  0.6346  0.1215  0.5383
  946MOL0     O27606   3.025   6.161   5.992  0.6756  0.5956 -0.7301
  946MOL0     C27607   3.025   6.072   6.098  0.2440 -0.0364 -0.2496
  946MOL0     C27608   2.946   6.116   6.204  0.3444 -0.3014  0.7947
  946MOL0     C27609   2.935   6.032   6.319 -0.0752 -0.6093 -0.2939
  946MOL0     C27610   2.995   5.914   6.337 -0.4958  1.1051  1.0636
  946MOL0     O27611   2.950   5.828   6.432 -0.5797  0.0991  0.3658
  946MOL0     C27612   3.053   5.759   6.504 -0.4589  1.1714 -1.1746
  946MOL0     C27613   2.982   5.682   6.623 -0.6113  0.1884  0.4616
  946MOL0     C27614   2.958   5.789   6.720 -0.6204  0.8156 -0.7229
  946MOL0     C27615   2.856   5.729   6.812  0.8599 -0.0275 -0.5918
  946MOL0     C27616   2.812   5.824   6.919  1.4052  0.5412  0.9611
  946MOL0     C27617   2.715   5.756   7.014 -0.3753  0.3655 -0.1968
  946MOL0     C27618   2.690   5.850   7.133 -0.2953  0.0716 -0.6961
  946MOL0     C27619   2.567   5.795   7.197  0.0731  0.3582  0.2133
  946MOL0    Cl27620   2.568   5.824   7.367 -0.0937  0.3087  0.1050
  946MOL0     C27621   3.094   5.883   6.240 -0.9663  0.3413 -1.5743
  946MOL0     C27622   3.103   5.959   6.121 -0.7386 -0.5008 -0.5951
  946MOL0     O27623   3.214   6.092   5.896  1.0589  0.9523 -0.7370
  946MOL0     C27624   3.111   6.171   5.641 -0.3296  0.3849 -0.0738
  946MOL0     C27625   3.075   6.228   5.519  0.2103 -0.0080 -0.3733
  946MOL0     N27626   2.788   6.399   4.976 -0.5875 -0.0431  0.3021
  946MOL0     N27627   2.785   6.503   4.903 -0.2862 -0.2694 -0.1939
  946MOL0     C27628   2.575   6.696   3.962  0.9098  0.0749 -0.7886
  946MOL0     C27629   2.618   6.760   3.851  0.7329  0.0032  0.3437
  946MOL0     C27630   2.918   6.979   3.567 -0.3631  0.6716  0.1826
  946MOL0     C27631   3.034   7.034   3.525 -0.3114  0.2105 -0.2976
  946MOL0     C27632   3.058   7.053   3.385 -0.9565  1.0399  0.1692
  946MOL0     C27633   2.963   7.024   3.292  0.3102 -0.8288 -0.9438
  946MOL0     O27634   2.975   7.047   3.158 -0.1760  0.4658  0.4160
  946MOL0     C27635   3.025   6.926   3.091 -0.4345  0.2106  0.8529
  946MOL0     C27636   3.113   6.948   2.963 -0.3902 -0.4582 -1.2751
  946MOL0     C27637   3.239   7.023   3.001  0.7996  0.6365  0.5667
  946MOL0     C27638   3.334   6.949   3.088  0.4099 -0.2825  0.9415
  946MOL0     C27639   3.468   6.978   3.046 -0.3611 -0.3518  0.5107
  946MOL0     C27640   3.588   7.003   3.012 -0.3623  0.0747 -0.0695
  946MOL0     C27641   2.835   6.983   3.337  0.6223 -0.4203  0.8734
  946MOL0     C27642   2.816   6.959   3.469  0.2004  0.1349 -0.3710
  946MOL0     H27643   2.958   6.762   3.886 -1.3532  3.5046  1.8304
  946MOL0     H27644   2.881   6.595   4.070 -0.3434  0.8815  1.0209
  946MOL0     H27645   2.500   6.659   4.221 -1.7162 -0.8243  3.9570
  946MOL0     H27646   2.465   6.498   4.172 -0.3469  1.3727  0.4173
  946MOL0     H27647   2.441   6.483   4.400 -1.6391 -1.4121 -3.2210
  946MOL0     H27648   2.592   6.405   4.347 -1.3392 -0.4114  0.4352
  946MOL0     H27649   2.630   6.527   4.562 -0.7690  3.5939  1.4900
  946MOL0     H27650   2.728   6.605   4.432 -0.7783  0.7503  0.8870
  946MOL0     H27651   2.574   6.780   4.407 -0.0837  2.8338  1.4948
  946MOL0     H27652   2.448   6.694   4.492  0.1124 -3.5187 -3.4922
  946MOL0     H27653   2.714   6.786   4.626  0.3711 -1.9817  0.7798
  946MOL0     H27654   2.582   6.895   4.614  1.0619  1.2006  2.3854
  946MOL0     H27655   2.440   6.753   4.752 -0.4767 -0.3947 -2.8844
  946MOL0     H27656   2.563   6.621   4.754 -0.7107  0.2193  1.1236
  946MOL0     H27657   2.650   6.895   4.856 -2.7157  1.4082  1.9839
  946MOL0     H27658   2.553   6.797   4.968 -0.6817  0.0555 -0.6466
  946MOL0     H27659   2.791   6.802   5.003 -1.0923  3.3670 -1.2258
  946MOL0     H27660   2.814   6.748   4.836  1.6851 -1.3393  1.5610
  946MOL0     H27661   2.635   6.609   5.180 -0.5552 -0.5104  0.4143
  946MOL0     H27662   2.680   6.378   5.305  0.0663 -1.3605 -0.2706
  946MOL0     H27663   2.608   6.287   5.174  0.6711 -0.0581 -1.1968
  946MOL0     H27664   2.804   6.164   5.138  0.2372 -1.3226  1.4520
  946MOL0     H27665   2.806   6.166   5.305 -0.4607 -2.6180 -2.1589
  946MOL0     H27666   2.983   6.281   5.089 -2.4049 -1.2443 -0.5102
  946MOL0     H27667   3.034   6.188   5.232  1.8680  0.5191 -1.3774
  946MOL0     H27668   2.988   6.483   5.218  1.5972 -1.3810 -3.7260
  946MOL0     H27669   3.127   6.401   5.275 -1.1602  2.5665  0.9210
  946MOL0     H27670   2.840   6.437   5.623 -1.1411 -0.9625  0.2005
  946MOL0     H27671   2.767   6.403   5.821  0.7875 -1.0751 -3.4996
  946MOL0     H27672   2.789   6.242   5.880 -1.8086  0.7855  0.4498
  946MOL0     H27673   2.899   6.368   5.946 -2.4239  2.0547  0.6774
  946MOL0     H27674   2.888   6.207   6.192  0.5249  0.3288  3.8348
  946MOL0     H27675   2.866   6.058   6.397 -0.2109 -0.4637 -0.4625
  946MOL0     H27676   3.086   5.677   6.441 -2.4899 -0.8401  0.1863
  946MOL0     H27677   3.138   5.814   6.546 -1.3399  1.2513  0.6286
  946MOL0     H27678   2.891   5.639   6.579 -0.5064 -1.2792  1.6271
  946MOL0     H27679   3.047   5.599   6.651 -1.5207 -1.9928 -3.1230
  946MOL0     H27680   2.936   5.886   6.675 -0.1036  1.1156 -0.3312
  946MOL0     H27681   3.047   5.800   6.782  0.1262  1.3547 -1.8683
  946MOL0     H27682   2.763   5.710   6.758 -0.5010 -2.0640  2.1959
  946MOL0     H27683   2.892   5.642   6.867  2.1014 -0.6428 -2.2888
  946MOL0     H27684   2.747   5.904   6.883 -0.9416 -1.4187  0.6428
  946MOL0     H27685   2.902   5.867   6.964  1.3337  1.2362  0.4536
  946MOL0     H27686   2.619   5.735   6.967 -0.1967 -0.3817 -0.2384
  946MOL0     H27687   2.768   5.666   7.046 -0.3417  0.3660 -0.2516
  946MOL0     H27688   2.681   5.952   7.095 -3.3222 -0.4877 -1.8152
  946MOL0     H27689   2.772   5.851   7.205 -1.0688  0.5319  0.2099
  946MOL0     H27690   2.590   5.688   7.192  4.0471  1.0758 -0.4561
  946MOL0     H27691   2.470   5.819   7.152 -0.3248 -1.3489  0.0693
  946MOL0     H27692   3.141   5.785   6.245 -2.0087 -0.1202 -0.2234
  946MOL0     H27693   3.172   5.918   6.048 -1.3174  0.1426 -1.5230
  946MOL0     H27694   3.197   6.106   5.654  0.4687  1.4034 -0.1530
  946MOL0     H27695   3.117   6.197   5.424 -0.2185  1.5049 -1.0811
  946MOL0     H27696   2.468   6.685   3.974  0.7171 -2.5647 -3.6184
  946MOL0     H27697   2.534   6.784   3.787  1.9299  1.6194 -0.7198
  946MOL0     H27698   3.109   7.052   3.601 -0.8871  1.2255  0.0516
  946MOL0     H27699   3.150   7.082   3.335 -2.0615  2.6386 -1.0400
  946MOL0     H27700   3.081   6.856   3.153  0.4411 -1.2535 -1.4564
  946MOL0     H27701   2.935   6.877   3.052 -1.1550  3.0462 -1.4013
  946MOL0     H27702   3.061   7.019   2.898  0.4183  2.8196  1.3565
  946MOL0     H27703   3.126   6.849   2.918 -0.8333 -0.9462 -0.3442
  946MOL0     H27704   3.220   7.121   3.047 -0.8358  2.2086 -3.0173
  946MOL0     H27705   3.269   7.053   2.900 -1.3592  1.5126  0.1276
  946MOL0     H27706   3.314   6.842   3.087 -2.4483  0.1547  2.4353
  946MOL0     H27707   3.322   6.983   3.191 -1.2382  0.7493  0.4454
  946MOL0     H27708   3.688   7.034   2.989 -0.0013  0.9186  2.3067
  946MOL0     H27709   2.746   6.980   3.274  1.0165  1.9019  0.1069
  946MOL0     H27710   2.719   6.934   3.510 -0.0432  3.2030  1.2184
  947MOL0     O27711   9.250   2.141  10.521  0.7015 -0.2011 -0.2776
  947MOL0     C27712   9.338   2.224  10.487 -0.5811  0.6436  0.5477
  947MOL0     O27713   9.321   2.356  10.510 -1.0238 -0.2197  0.1688
  947MOL0     C27714   9.217   2.385  10.586  0.7808 -0.3780 -0.3129
  947MOL0     C27715   9.204   2.348  10.717  0.6023  0.8790 -0.4687
  947MOL0     C27716   9.093   2.385  10.801  0.2644  0.1962  0.6034
  947MOL0     C27717   8.997   2.469  10.741 -0.8303  0.1248 -0.0625
  947MOL0     O27718   8.879   2.500  10.801 -0.7989  0.2226  0.2835
  947MOL0     C27719   8.804   2.393  10.852  0.3322  0.5944  0.8203
  947MOL0     C27720   8.658   2.415  10.887  1.1170  0.4070  0.7784
  947MOL0     C27721   8.649   2.474  11.029 -0.8594 -0.5638  0.2583
  947MOL0     C27722   8.647   2.362  11.134 -0.6103 -0.2309  0.5431
  947MOL0     C27723   8.671   2.426  11.278  0.2626 -0.0927 -0.5460
  947MOL0     C27724   8.686   2.297  11.370 -0.2579 -0.3580 -0.0818
  947MOL0     C27725   8.655   2.339  11.516  0.9404  0.2345  0.3282
  947MOL0     C27726   8.662   2.212  11.598 -0.0172 -0.1026 -0.4617
  947MOL0     N27727   8.584   2.229  11.716 -0.2614  0.6366  0.0560
  947MOL0     C27728   8.459   2.167  11.752  0.3836  0.4753  0.4726
  947MOL0     C27729   8.429   2.234  11.868 -0.0777 -1.0968 -0.6589
  947MOL0     C27730   8.300   2.221  11.940  0.1922  0.4342  0.2837
  947MOL0     C27731   8.266   2.081  11.994  0.4796  0.3091  0.5042
  947MOL0     C27732   8.380   2.024  12.086  0.5904  0.2436  0.4016
  947MOL0     C27733   8.432   2.122  12.200 -0.4861 -0.1647  0.1212
  947MOL0     O27734   8.510   2.031  12.286  0.0181 -0.8623 -0.4234
  947MOL0     C27735   8.451   1.970  12.402 -0.4845 -0.9661 -0.5358
  947MOL0     C27736   8.316   1.979  12.435  0.0456 -0.3486 -0.3030
  947MOL0     C27737   8.265   1.926  12.563 -0.1136 -0.5085  0.6734
  947MOL0     C27738   8.131   1.959  12.625 -0.1571 -0.3707 -0.0001
  947MOL0     C27739   8.358   1.856  12.642  0.0780  0.1454  0.1306
  947MOL0     C27740   8.318   1.796  12.772 -0.2684  0.3242  0.0566
  947MOL0     O27741   8.400   1.831  12.881 -0.1979  0.3389 -0.9313
  947MOL0     C27742   8.360   1.773  12.993 -0.4113 -0.0772  0.6435
  947MOL0     C27743   8.447   1.672  13.052  0.1393  0.6274  0.6222
  947MOL0     C27744   8.393   1.600  13.155  0.3641  0.1347 -0.2418
  947MOL0     C27745   8.278   1.627  13.216 -0.0454 -0.0953  1.7911
  947MOL0     O27746   8.237   1.549  13.314 -0.0867  0.6073 -0.2116
  947MOL0     C27747   8.231   1.407  13.282 -0.1926 -0.5604 -0.5684
  947MOL0     C27748   8.135   1.344  13.383 -0.6053  0.6444  0.3738
  947MOL0     C27749   8.126   1.196  13.351  0.0842 -0.0063  0.0941
  947MOL0     C27750   8.045   1.179  13.229  0.2308 -0.1132  0.5527
  947MOL0     C27751   8.014   1.029  13.200 -0.0988 -0.2274 -0.1538
  947MOL0     C27752   7.957   1.018  13.056 -0.0009  0.9111 -0.5545
  947MOL0     C27753   7.832   1.106  13.024 -0.5068  0.0788 -0.2606
  947MOL0     C27754   7.721   1.086  13.123 -0.6163  0.0849  0.3038
  947MOL0    Cl27755   7.631   0.931  13.090 -0.2043 -0.3039  0.4491
  947MOL0     C27756   8.206   1.740  13.174 -0.3574  0.2502 -0.4552
  947MOL0     C27757   8.243   1.808  13.060 -0.2335  0.2952 -0.0485
  947MOL0     O27758   8.218   1.727  12.771  0.1302  0.8583  0.0642
  947MOL0     C27759   8.492   1.853  12.610  0.6966  0.4704 -0.2414
  947MOL0     C27760   8.537   1.905  12.488 -0.7595 -0.7111 -0.9105
  947MOL0     N27761   8.523   2.327  11.901 -0.3019 -0.1560 -0.4360
  947MOL0     N27762   8.619   2.308  11.825  0.3121  0.1946  0.0787
  947MOL0     C27763   9.013   2.520  10.617 -0.3739  0.7244  0.0536
  947MOL0     C27764   9.121   2.474  10.536  0.6067 -0.2713 -0.2706
  947MOL0     C27765   9.454   2.185  10.398 -0.0735  0.3084 -0.1238
  947MOL0     C27766   9.456   2.055  10.330 -0.6226 -0.9629 -0.6017
  947MOL0     C27767   9.567   2.021  10.253 -0.0498  0.3403 -0.4476
  947MOL0     C27768   9.662   2.108  10.223  0.9469 -0.6316  0.0076
  947MOL0     O27769   9.766   2.065  10.142 -0.9119 -0.3230 -0.1001
  947MOL0     C27770   9.788   2.112  10.006 -0.2448 -0.9305 -0.1805
  947MOL0     C27771   9.653   2.143   9.942  0.8569  0.0403 -0.3937
  947MOL0     C27772   9.684   2.199   9.802 -0.3422  0.7615 -0.0030
  947MOL0     C27773   9.578   2.176   9.699 -0.0910 -0.3338 -0.1446
  947MOL0     C27774   9.585   2.037   9.656 -0.1358  0.9781  0.6283
  947MOL0     C27775   9.583   1.913   9.643  0.7896  0.4370 -0.2432
  947MOL0     C27776   9.660   2.244  10.275  0.1395  0.1460  0.0654
  947MOL0     C27777   9.552   2.278  10.366 -0.9580 -0.1711  0.3086
  947MOL0     H27778   9.278   2.280  10.759 -1.1764 -1.5828 -1.1240
  947MOL0     H27779   9.085   2.324  10.891  0.9209 -0.3045  0.3289
  947MOL0     H27780   8.806   2.306  10.787 -1.6327 -1.2592  3.0524
  947MOL0     H27781   8.849   2.347  10.940 -0.6233 -1.3635  0.3262
  947MOL0     H27782   8.615   2.484  10.813  0.5653  0.3901  1.0779
  947MOL0     H27783   8.597   2.326  10.872  1.0054  0.4102  1.1924
  947MOL0     H27784   8.733   2.542  11.044 -1.1793  0.4232 -1.9431
  947MOL0     H27785   8.556   2.531  11.033 -0.3018  0.6399 -1.8404
  947MOL0     H27786   8.552   2.308  11.132 -0.6085 -0.3929  2.3978
  947MOL0     H27787   8.714   2.283  11.099 -0.6795 -0.7581  1.5681
  947MOL0     H27788   8.764   2.479  11.300  1.4977 -2.3239 -0.0858
  947MOL0     H27789   8.583   2.481  11.312  0.7820 -1.0262  2.6692
  947MOL0     H27790   8.607   2.227  11.342 -0.5637  1.2345 -3.9610
  947MOL0     H27791   8.786   2.258  11.347  1.7767  4.3210 -0.3471
  947MOL0     H27792   8.739   2.394  11.559  1.3682 -1.6101  1.9866
  947MOL0     H27793   8.554   2.380  11.528  0.2110 -1.5882  0.6041
  947MOL0     H27794   8.757   2.184  11.644 -0.6080  2.1861  2.5202
  947MOL0     H27795   8.625   2.123  11.546 -0.9517  0.1059 -0.1734
  947MOL0     H27796   8.405   2.099  11.685 -2.1872  1.7099  1.1756
  947MOL0     H27797   8.297   2.293  12.022 -0.7396  0.1213  0.5434
  947MOL0     H27798   8.228   2.256  11.865  0.9794  3.5139  0.8309
  947MOL0     H27799   8.269   2.018  11.905 -3.0563 -1.9239  1.7203
  947MOL0     H27800   8.167   2.076  12.040  0.4404 -2.4312  0.2625
  947MOL0     H27801   8.467   2.001  12.024 -0.9897 -0.7974 -1.5298
  947MOL0     H27802   8.345   1.928  12.124 -1.1888 -0.7100 -3.2034
  947MOL0     H27803   8.352   2.176  12.253  0.8329  1.3296  0.6855
  947MOL0     H27804   8.501   2.201  12.168  0.8740 -0.2950  2.4673
  947MOL0     H27805   8.247   2.016  12.360 -0.1374  1.2392  0.6099
  947MOL0     H27806   8.056   1.902  12.569 -0.7502  1.2152 -0.8988
  947MOL0     H27807   8.125   1.954  12.734 -2.4619 -1.9617 -0.1364
  947MOL0     H27808   8.106   2.063  12.599 -1.8019 -0.0424  2.5742
  947MOL0     H27809   8.536   1.631  13.006  0.6536  0.9651  1.3063
  947MOL0     H27810   8.462   1.525  13.193 -0.0675  0.5472  1.4310
  947MOL0     H27811   8.181   1.393  13.186 -0.0019 -0.5659 -0.6680
  947MOL0     H27812   8.333   1.366  13.284  0.8432  1.7268  3.3435
  947MOL0     H27813   8.163   1.370  13.485 -1.6730  3.6279 -0.0133
  947MOL0     H27814   8.036   1.390  13.386  0.1326  2.2410  1.1637
  947MOL0     H27815   8.073   1.148  13.433  1.0406 -2.5787 -0.6860
  947MOL0     H27816   8.224   1.147  13.350  0.0911 -0.0617 -2.0329
  947MOL0     H27817   7.951   1.234  13.239 -0.0421  0.5033 -3.5384
  947MOL0     H27818   8.097   1.207  13.136 -1.4596  1.4896  0.0079
  947MOL0     H27819   7.944   0.989  13.273  0.7408 -1.0662  0.2035
  947MOL0     H27820   8.101   0.965  13.212 -0.2030 -0.7507 -1.8760
  947MOL0     H27821   8.036   1.043  12.985  1.5527  0.7890  1.0448
  947MOL0     H27822   7.915   0.918  13.039  1.6189  0.5540 -3.0270
  947MOL0     H27823   7.783   1.089  12.928 -1.2356  0.5363  0.0247
  947MOL0     H27824   7.863   1.211  13.025 -1.9960  0.5451 -0.9656
  947MOL0     H27825   7.650   1.166  13.104 -1.5804 -1.4771 -3.7488
  947MOL0     H27826   7.755   1.083  13.227 -0.9628 -0.0225  0.4154
  947MOL0     H27827   8.105   1.767  13.206 -0.4362  1.9192 -1.9323
  947MOL0     H27828   8.179   1.894  13.044  3.1142  3.2840  1.3304
  947MOL0     H27829   8.567   1.806  12.674  0.7644 -2.9415 -2.5486
  947MOL0     H27830   8.636   1.920  12.446 -0.8527  1.2992 -0.5265
  947MOL0     H27831   8.944   2.595  10.581  3.1394  2.7009 -3.3217
  947MOL0     H27832   9.135   2.508  10.434  0.4529  1.0004  0.1271
  947MOL0     H27833   9.376   1.981  10.339  0.1070 -1.8452 -1.1963
  947MOL0     H27834   9.561   1.918  10.219 -2.2798  1.1395 -2.7386
  947MOL0     H27835   9.845   2.205  10.001 -1.9656  0.1373 -1.2538
  947MOL0     H27836   9.844   2.036   9.951  0.7119 -1.0654  0.9557
  947MOL0     H27837   9.610   2.223  10.002  2.5051  1.5724 -1.1393
  947MOL0     H27838   9.593   2.052   9.929  2.0633 -0.5779 -2.0517
  947MOL0     H27839   9.778   2.160   9.760 -1.2733  1.9421 -3.5713
  947MOL0     H27840   9.693   2.307   9.810  0.1689  0.7283 -0.0757
  947MOL0     H27841   9.590   2.241   9.612 -1.1209  1.9910  1.3707
  947MOL0     H27842   9.477   2.194   9.736 -0.8268 -0.3331 -2.0253
  947MOL0     H27843   9.593   1.807   9.645 -1.0970  0.1989  2.3013
  947MOL0     H27844   9.745   2.308  10.254  0.2910 -0.7718 -2.4938
  947MOL0     H27845   9.535   2.377  10.408 -2.1119 -0.0299 -0.4390
  948MOL0     O27846   3.110   1.154  10.298  0.4595 -0.1537  1.4710
  948MOL0     C27847   3.006   1.106  10.246 -0.8239  0.2541  0.8654
  948MOL0     O27848   2.990   1.048  10.124 -0.7995 -0.0832 -0.1876
  948MOL0     C27849   3.101   1.060  10.039 -0.7475 -0.7292  1.1227
  948MOL0     C27850   3.190   0.951  10.034 -0.4886 -0.2610  0.3155
  948MOL0     C27851   3.305   0.955   9.951 -0.5402 -0.3098  0.7672
  948MOL0     C27852   3.328   1.079   9.869  0.7545 -0.3492  0.2715
  948MOL0     O27853   3.445   1.074   9.791 -0.2506  0.0326 -0.2796
  948MOL0     C27854   3.438   1.118   9.652  0.9372 -1.0334  0.2066
  948MOL0     C27855   3.486   1.267   9.635  0.1859 -0.3480 -0.3888
  948MOL0     C27856   3.633   1.287   9.631 -0.8593 -0.4550 -0.4715
  948MOL0     C27857   3.697   1.266   9.487  0.5848 -0.5458 -0.3286
  948MOL0     C27858   3.835   1.341   9.482 -0.5618  0.4364  0.5263
  948MOL0     C27859   3.936   1.266   9.395 -0.1127 -0.6237  1.0678
  948MOL0     C27860   3.909   1.256   9.236  0.1695 -0.5222 -0.7502
  948MOL0     C27861   3.942   1.114   9.183  0.5026 -0.1270 -0.4192
  948MOL0     N27862   4.054   1.057   9.253 -0.1823 -0.7669  0.2731
  948MOL0     C27863   4.041   0.954   9.338 -2.1886 -0.0553 -0.3863
  948MOL0     C27864   4.173   0.931   9.372  1.3561 -0.8361  0.1212
  948MOL0     C27865   4.209   0.816   9.468  0.6789 -0.0835  0.4482
  948MOL0     C27866   4.262   0.692   9.392 -0.9156 -0.1542  0.1452
  948MOL0     C27867   4.393   0.708   9.308 -0.3110  0.2755 -0.2405
  948MOL0     C27868   4.445   0.567   9.260  0.6733  0.1208  0.2031
  948MOL0     O27869   4.557   0.588   9.172  1.1732 -0.0305  0.7181
  948MOL0     C27870   4.674   0.625   9.225  0.0478 -0.1280 -0.4021
  948MOL0     C27871   4.750   0.532   9.300 -0.9863  0.7425 -0.0794
  948MOL0     C27872   4.871   0.557   9.355 -0.8096  0.5549  0.4172
  948MOL0     C27873   4.936   0.437   9.433  0.9301 -0.0797  0.6042
  948MOL0     C27874   4.939   0.687   9.325  1.3533  0.5873 -0.9128
  948MOL0     C27875   5.076   0.723   9.383 -0.6093 -0.6185 -0.5329
  948MOL0     O27876   5.158   0.620   9.414 -1.0976 -0.0914 -0.2009
  948MOL0     C27877   5.277   0.651   9.490 -0.0285  0.6879 -0.9930
  948MOL0     C27878   5.262   0.675   9.630 -0.5856  0.8788  0.2347
  948MOL0     C27879   5.381   0.695   9.709  0.6036  0.3737 -0.2206
  948MOL0     C27880   5.512   0.691   9.645 -0.1621  0.8276 -0.9532
  948MOL0     O27881   5.614   0.718   9.733 -0.3259 -0.1983  0.3413
  948MOL0     C27882   5.734   0.788   9.679  0.4916  0.5874  0.3151
  948MOL0     C27883   5.834   0.681   9.636 -0.3231 -0.2602 -0.2961
  948MOL0     C27884   5.906   0.734   9.514 -0.7038 -0.2548 -0.4041
  948MOL0     C27885   6.003   0.633   9.460  0.6534  0.7703 -0.4298
  948MOL0     C27886   6.063   0.682   9.324  0.3792  0.2972  0.4753
  948MOL0     C27887   6.163   0.798   9.326 -0.7238  0.2544  0.3132
  948MOL0     C27888   6.305   0.766   9.374  0.2505  0.1509  0.1866
  948MOL0     C27889   6.380   0.671   9.285  0.2592  0.2733 -0.0665
  948MOL0    Cl27890   6.395   0.739   9.107 -0.1450 -0.4473 -0.0396
  948MOL0     C27891   5.517   0.672   9.508  0.2508 -0.1402  0.2668
  948MOL0     C27892   5.404   0.650   9.431  0.3681 -0.1967 -0.4309
  948MOL0     O27893   5.109   0.843   9.385 -0.1091 -0.1079  0.4547
  948MOL0     C27894   4.864   0.782   9.251  0.3533 -0.4367  0.5589
  948MOL0     C27895   4.726   0.752   9.212 -0.6925 -0.1684  0.2084
  948MOL0     N27896   4.259   1.013   9.300  0.4082  0.7651 -0.0697
  948MOL0     N27897   4.183   1.090   9.225  1.5311 -0.4523 -1.2319
  948MOL0     C27898   3.244   1.186   9.878 -0.1961  0.4690  0.2847
  948MOL0     C27899   3.133   1.179   9.968  0.6065  0.5592  0.3800
  948MOL0     C27900   2.884   1.096  10.335  0.1215  0.1138 -0.2050
  948MOL0     C27901   2.782   1.002  10.306 -0.1362 -0.3733  0.3477
  948MOL0     C27902   2.668   0.994  10.387 -0.0391  0.1802  0.2076
  948MOL0     C27903   2.653   1.073  10.493 -0.6042  0.3234 -0.2723
  948MOL0     O27904   2.549   1.085  10.576 -0.4012  0.3649 -0.3894
  948MOL0     C27905   2.427   1.013  10.537 -0.0793  1.1982  0.2478
  948MOL0     C27906   2.328   1.088  10.629  0.1538  1.0264  0.4073
  948MOL0     C27907   2.183   1.058  10.601 -0.7816 -0.8399  0.3076
  948MOL0     C27908   2.085   1.147  10.680 -0.4277 -0.2808 -0.9829
  948MOL0     C27909   2.020   1.240  10.590  0.0539 -1.3456  0.1935
  948MOL0     C27910   1.977   1.335  10.524  0.3298  1.2629  0.1313
  948MOL0     C27911   2.760   1.145  10.531 -0.0883 -0.1767 -0.1092
  948MOL0     C27912   2.876   1.160  10.457  0.2802 -0.0131 -0.1198
  948MOL0     H27913   3.168   0.861  10.091 -1.2713 -2.6681 -3.4454
  948MOL0     H27914   3.392   0.891   9.956  0.1055  0.4294 -0.6579
  948MOL0     H27915   3.492   1.057   9.579  0.7884 -0.3462 -0.5066
  948MOL0     H27916   3.332   1.107   9.625  0.2508  1.3755  1.6097
  948MOL0     H27917   3.447   1.286   9.535 -1.5187 -1.4768  0.0233
  948MOL0     H27918   3.439   1.332   9.709  1.4269 -2.5960  2.5759
  948MOL0     H27919   3.658   1.393   9.642  1.7932 -1.0174 -0.3374
  948MOL0     H27920   3.690   1.230   9.705 -0.5245 -1.2788 -1.3424
  948MOL0     H27921   3.709   1.158   9.476  1.3645 -0.8267  2.3867
  948MOL0     H27922   3.628   1.306   9.413  0.7699  0.6921  0.1450
  948MOL0     H27923   3.822   1.441   9.438  3.2375  1.0792  0.5112
  948MOL0     H27924   3.875   1.358   9.582 -0.1560 -0.9062  0.6130
  948MOL0     H27925   4.037   1.307   9.407 -0.5385  0.2551  1.7109
  948MOL0     H27926   3.935   1.163   9.433 -0.0735 -0.8158  0.5534
  948MOL0     H27927   3.806   1.282   9.211  0.2653  3.3388  1.9806
  948MOL0     H27928   3.976   1.328   9.189 -1.4819  1.2031 -0.5948
  948MOL0     H27929   3.967   1.127   9.077  2.4990  3.9950  0.3741
  948MOL0     H27930   3.850   1.056   9.198  1.4207 -1.0735  2.1795
  948MOL0     H27931   3.961   0.892   9.376 -0.5360 -0.1295  3.4312
  948MOL0     H27932   4.278   0.859   9.541  0.0432  2.8749 -0.5461
  948MOL0     H27933   4.114   0.804   9.521  0.6205 -2.0311 -0.0303
  948MOL0     H27934   4.191   0.645   9.323 -3.1211  1.8785  0.8730
  948MOL0     H27935   4.268   0.619   9.473 -2.0361  1.6786  1.9774
  948MOL0     H27936   4.469   0.758   9.369 -2.4266  1.5805  1.5021
  948MOL0     H27937   4.368   0.777   9.227  1.1555 -0.2593 -1.1898
  948MOL0     H27938   4.360   0.527   9.204  1.8199 -1.4489 -0.5080
  948MOL0     H27939   4.476   0.507   9.346 -0.4762  3.2558  2.9731
  948MOL0     H27940   4.697   0.438   9.312  1.1358 -0.3771  1.0023
  948MOL0     H27941   4.975   0.466   9.531  2.1787 -1.6783  0.6357
  948MOL0     H27942   4.870   0.353   9.457  0.2838  0.5718  1.1668
  948MOL0     H27943   5.019   0.395   9.375 -0.5045 -0.7584 -1.0485
  948MOL0     H27944   5.160   0.680   9.668 -1.9176 -1.9464 -2.5106
  948MOL0     H27945   5.376   0.720   9.815  0.5774  2.6390 -0.7201
  948MOL0     H27946   5.702   0.825   9.582  2.9372  0.8243 -0.4765
  948MOL0     H27947   5.773   0.868   9.743  1.0498  0.6319 -0.0727
  948MOL0     H27948   5.911   0.671   9.714  2.5567 -3.4039 -3.2300
  948MOL0     H27949   5.794   0.586   9.601 -1.1804 -1.2933  3.0762
  948MOL0     H27950   5.948   0.833   9.536 -0.7078 -0.2237 -0.5374
  948MOL0     H27951   5.830   0.741   9.436 -3.4910 -1.1654  2.0554
  948MOL0     H27952   6.087   0.626   9.530  0.7344  0.3057 -0.5716
  948MOL0     H27953   5.961   0.534   9.442 -0.4063  1.0843  0.2093
  948MOL0     H27954   5.982   0.716   9.260  1.4856 -0.3573 -1.3410
  948MOL0     H27955   6.102   0.594   9.272 -2.3916 -1.0151  0.4822
  948MOL0     H27956   6.174   0.842   9.226  2.6603 -3.3213 -1.1703
  948MOL0     H27957   6.136   0.874   9.400  0.8779 -0.3108  1.5282
  948MOL0     H27958   6.280   0.725   9.472  1.6404  1.9089  1.3448
  948MOL0     H27959   6.369   0.855   9.384  0.1216  0.0794  1.8991
  948MOL0     H27960   6.326   0.576   9.283  1.2483 -0.3050 -2.6330
  948MOL0     H27961   6.480   0.650   9.324  0.6023 -0.2858 -1.2015
  948MOL0     H27962   5.599   0.676   9.437  1.6176 -3.0909  1.5006
  948MOL0     H27963   5.400   0.635   9.324  1.7794 -2.7327 -0.2137
  948MOL0     H27964   4.894   0.878   9.211  2.4011 -2.2932 -2.7833
  948MOL0     H27965   4.664   0.823   9.157  0.4937 -0.5106 -1.6505
  948MOL0     H27966   3.265   1.273   9.817 -0.7441  0.4642  0.0878
  948MOL0     H27967   3.068   1.264   9.984 -0.5204 -0.0417 -0.8221
  948MOL0     H27968   2.789   0.932  10.223  3.5289  0.6856 -0.4279
  948MOL0     H27969   2.583   0.927  10.373 -0.9384  0.7413  2.5142
  948MOL0     H27970   2.381   1.029  10.439 -3.2379 -1.6702  1.0883
  948MOL0     H27971   2.440   0.906  10.558  1.0097  1.4714  1.0435
  948MOL0     H27972   2.341   1.196  10.636  0.8502  0.9632  0.1925
  948MOL0     H27973   2.341   1.048  10.730 -0.7757 -2.6845 -0.7764
  948MOL0     H27974   2.161   0.951  10.614 -1.8177 -0.7882 -0.8852
  948MOL0     H27975   2.168   1.080  10.495 -3.2380  1.5513  1.0416
  948MOL0     H27976   2.131   1.204  10.761 -0.3566  1.9462 -2.5171
  948MOL0     H27977   2.004   1.085  10.720 -0.9849  0.4713 -0.9268
  948MOL0     H27978   1.932   1.412  10.466 -1.9344  0.8507  1.2247
  948MOL0     H27979   2.748   1.195  10.627 -0.3744  1.5219 -0.9845
  948MOL0     H27980   2.968   1.201  10.500  1.0181  0.2270 -1.8491
  949MOL0     O27981   2.367   2.412   3.878 -0.3168  0.4535  0.2227
  949MOL0     C27982   2.250   2.381   3.881 -0.7979  0.0041  0.6780
  949MOL0     O27983   2.172   2.339   3.774 -0.2031 -0.0185  0.2237
  949MOL0     C27984   2.231   2.291   3.658 -0.3854 -0.0428  0.5180
  949MOL0     C27985   2.190   2.352   3.540 -0.6022  0.7103  0.5243
  949MOL0     C27986   2.241   2.312   3.417 -0.0630 -0.5683  0.2334
  949MOL0     C27987   2.343   2.219   3.411  0.0110 -0.3786 -1.1888
  949MOL0     O27988   2.398   2.179   3.294  0.6796  0.1656 -0.1207
  949MOL0     C27989   2.327   2.197   3.166  0.6534 -0.9333 -0.1481
  949MOL0     C27990   2.395   2.154   3.045 -0.8258  0.5348  0.7321
  949MOL0     C27991   2.393   1.997   3.025 -1.0890 -0.7207  0.8265
  949MOL0     C27992   2.500   1.952   2.925  1.1150 -1.2594 -0.6221
  949MOL0     C27993   2.485   1.808   2.886 -0.5259 -0.4273 -0.7541
  949MOL0     C27994   2.405   1.799   2.759 -0.0976 -0.3904  0.0071
  949MOL0     C27995   2.380   1.652   2.718  0.2420 -0.5630 -0.4138
  949MOL0     C27996   2.301   1.636   2.586  0.2904 -0.4777  0.2974
  949MOL0     N27997   2.374   1.655   2.460  0.4307  0.8123 -0.1352
  949MOL0     C27998   2.394   1.780   2.396  0.7506 -0.1083 -0.0307
  949MOL0     C27999   2.482   1.746   2.301 -0.7070 -1.2855  0.5887
  949MOL0     C28000   2.540   1.838   2.195  0.2934 -0.0449  1.5699
  949MOL0     C28001   2.658   1.789   2.109  0.4627  0.4092 -0.9823
  949MOL0     C28002   2.687   1.898   2.004  0.8502  0.3960  0.0901
  949MOL0     C28003   2.783   1.839   1.918 -0.6698  1.1332 -0.2728
  949MOL0     O28004   2.710   1.763   1.813 -0.5426  0.5243  0.4074
  949MOL0     C28005   2.787   1.723   1.711 -0.5852  0.2805 -0.0624
  949MOL0     C28006   2.900   1.799   1.657 -0.2020 -0.2225  0.4408
  949MOL0     C28007   2.966   1.769   1.537  0.1741  0.4941 -0.2861
  949MOL0     C28008   3.097   1.847   1.508 -0.1785  0.4563 -0.0031
  949MOL0     C28009   2.925   1.653   1.465  0.3629 -0.3019  0.5659
  949MOL0     C28010   2.980   1.618   1.342 -0.3594 -0.0506  0.3507
  949MOL0     O28011   2.951   1.488   1.304  0.6982  0.4405  0.4856
  949MOL0     C28012   2.980   1.430   1.186 -0.4626 -0.1587 -0.3157
  949MOL0     C28013   2.931   1.295   1.184 -0.2592 -0.6601  0.4105
  949MOL0     C28014   2.947   1.221   1.061 -1.0230 -0.6374 -0.8139
  949MOL0     C28015   3.022   1.279   0.962  0.5638  0.6682  0.8476
  949MOL0     O28016   3.030   1.208   0.842  0.1717  0.3424 -0.6174
  949MOL0     C28017   3.166   1.165   0.796  0.5447  0.6259  0.6656
  949MOL0     C28018   3.175   1.036   0.708  0.9572  0.0338  0.3168
  949MOL0     C28019   3.305   1.035   0.629 -0.8598 -0.2374 -0.6544
  949MOL0     C28020   3.435   1.048   0.715 -0.3756  0.1711  0.6728
  949MOL0     C28021   3.581   1.061   0.658 -0.2441 -0.5319 -0.7363
  949MOL0     C28022   3.621   0.928   0.596  0.2813  0.6332  0.7337
  949MOL0     C28023   3.751   0.951   0.511  1.1163  0.4014  0.4967
  949MOL0     C28024   3.770   0.848   0.395  0.4145 -0.0770  0.0103
  949MOL0    Cl28025   3.730   0.920   0.242  0.0912  0.0983  0.5650
  949MOL0     C28026   3.095   1.391   0.975  0.5720 -0.5776 -0.4740
  949MOL0     C28027   3.079   1.470   1.091  0.0785 -0.5814 -1.0917
  949MOL0     O28028   3.033   1.698   1.273  0.5147  0.3794 -0.0593
  949MOL0     C28029   2.814   1.577   1.512  0.1741  0.5143 -0.0821
  949MOL0     C28030   2.744   1.615   1.628  0.6480 -0.3927  0.0816
  949MOL0     N28031   2.523   1.611   2.309 -0.2331 -0.1522 -0.1531
  949MOL0     N28032   2.462   1.561   2.409  0.3104  0.1598 -0.2943
  949MOL0     C28033   2.386   2.155   3.531  0.2801  0.0602  0.3038
  949MOL0     C28034   2.335   2.191   3.656  0.1288 -0.7164 -0.8483
  949MOL0     C28035   2.183   2.383   4.012  0.0459  1.2061  0.3614
  949MOL0     C28036   2.051   2.330   4.022  0.6370  0.5726  0.1031
  949MOL0     C28037   1.985   2.323   4.140  0.4615 -0.5607  0.2706
  949MOL0     C28038   2.046   2.356   4.260  0.7325  0.2030 -0.6026
  949MOL0     O28039   1.971   2.331   4.369  0.0256 -0.0552  0.4447
  949MOL0     C28040   1.997   2.431   4.471  0.0965  0.3079  0.0209
  949MOL0     C28041   1.890   2.417   4.580  0.5448 -0.1922  0.4864
  949MOL0     C28042   1.916   2.529   4.690 -0.5024  0.2694 -0.3775
  949MOL0     C28043   1.815   2.544   4.803 -0.0543  0.1938 -0.9604
  949MOL0     C28044   1.828   2.429   4.890 -0.0786  0.4510 -0.3288
  949MOL0     C28045   1.841   2.334   4.964  0.6209  0.5499 -0.0789
  949MOL0     C28046   2.184   2.402   4.254  0.4388  0.3168 -0.9812
  949MOL0     C28047   2.249   2.423   4.128  0.4070 -0.6050 -0.1060
  949MOL0     H28048   2.116   2.429   3.557  0.2097  1.3168  1.3621
  949MOL0     H28049   2.199   2.363   3.331  0.1927 -4.4948 -2.5077
  949MOL0     H28050   2.238   2.136   3.181  1.8417 -2.5907  0.3777
  949MOL0     H28051   2.309   2.305   3.170  1.4955 -0.8290  2.0312
  949MOL0     H28052   2.353   2.208   2.960 -0.1588  0.6555  0.4694
  949MOL0     H28053   2.501   2.179   3.054 -0.1462 -2.0443  0.6915
  949MOL0     H28054   2.416   1.942   3.116  2.5052 -3.0207 -1.2358
  949MOL0     H28055   2.293   1.961   2.998 -0.5939 -2.7311  1.4803
  949MOL0     H28056   2.495   2.015   2.835  1.1693 -1.5086 -0.7996
  949MOL0     H28057   2.596   1.973   2.974  1.1999  0.8616 -1.5485
  949MOL0     H28058   2.588   1.775   2.870  0.0868  1.3773 -0.7649
  949MOL0     H28059   2.437   1.745   2.961 -1.0149  2.1015  1.2183
  949MOL0     H28060   2.319   1.862   2.734 -0.6078 -1.9303 -2.4995
  949MOL0     H28061   2.482   1.836   2.691 -2.1080  3.2456 -0.5378
  949MOL0     H28062   2.481   1.609   2.711  0.2961 -0.2331 -1.9002
  949MOL0     H28063   2.326   1.600   2.798 -1.5621  0.4350 -0.9392
  949MOL0     H28064   2.213   1.700   2.584 -0.6132 -1.3801  3.8431
  949MOL0     H28065   2.272   1.531   2.585 -2.3012  0.1770 -1.4097
  949MOL0     H28066   2.346   1.876   2.415  2.0995  0.2857  1.5698
  949MOL0     H28067   2.465   1.874   2.124  3.4626  0.5242 -1.8062
  949MOL0     H28068   2.579   1.920   2.255 -1.3274 -0.9001  3.9454
  949MOL0     H28069   2.646   1.691   2.062 -0.4924  0.4076 -0.7602
  949MOL0     H28070   2.745   1.777   2.175  0.9054 -1.1449 -1.8122
  949MOL0     H28071   2.730   1.987   2.051 -0.4583  0.5308  1.1101
  949MOL0     H28072   2.599   1.910   1.941  0.9669 -2.7004 -0.8265
  949MOL0     H28073   2.848   1.773   1.975  0.9764  1.9262 -1.1702
  949MOL0     H28074   2.850   1.915   1.879 -1.0934  1.1641 -0.9646
  949MOL0     H28075   2.936   1.885   1.713  1.2263 -1.1137  0.9401
  949MOL0     H28076   3.183   1.780   1.515 -0.2523  0.3993  0.3760
  949MOL0     H28077   3.107   1.883   1.405  2.8451  3.6705  1.2568
  949MOL0     H28078   3.109   1.936   1.570  2.3940 -0.4271  0.8626
  949MOL0     H28079   2.849   1.262   1.247 -2.0519  2.2023 -0.2231
  949MOL0     H28080   2.898   1.126   1.044  0.8645 -2.3772  2.4462
  949MOL0     H28081   3.220   1.248   0.749 -0.9775  0.9277 -0.5986
  949MOL0     H28082   3.229   1.141   0.883 -0.3576 -0.0228  1.1531
  949MOL0     H28083   3.152   0.951   0.773 -0.3647  0.0719 -0.0729
  949MOL0     H28084   3.096   1.039   0.632  0.0611 -2.4266  1.0509
  949MOL0     H28085   3.303   1.114   0.553  1.3384  1.1388  0.6118
  949MOL0     H28086   3.300   0.943   0.570 -1.5787 -0.4821 -0.2203
  949MOL0     H28087   3.427   1.141   0.771 -1.5505 -0.2064  1.1596
  949MOL0     H28088   3.436   0.972   0.794  1.6138 -1.8403 -1.1246
  949MOL0     H28089   3.655   1.092   0.733 -0.7895  1.0740 -0.8130
  949MOL0     H28090   3.573   1.132   0.576 -0.8537 -2.6357 -2.5880
  949MOL0     H28091   3.639   0.849   0.670  0.6828 -1.1873 -1.1992
  949MOL0     H28092   3.544   0.891   0.527 -0.2385  1.7265  0.7081
  949MOL0     H28093   3.838   0.939   0.576  1.8508 -0.6744 -0.6289
  949MOL0     H28094   3.753   1.055   0.477  1.8983 -0.0362 -0.8749
  949MOL0     H28095   3.695   0.768   0.398  1.1740 -0.7781  2.0811
  949MOL0     H28096   3.873   0.812   0.385  0.6800  0.6883 -0.0520
  949MOL0     H28097   3.175   1.409   0.904  1.4037 -2.6089 -0.1292
  949MOL0     H28098   3.143   1.555   1.115  0.1464 -0.3849 -1.9521
  949MOL0     H28099   2.784   1.490   1.454 -0.6214  0.4978  0.3401
  949MOL0     H28100   2.656   1.561   1.662 -1.7214  0.6893 -3.7250
  949MOL0     H28101   2.457   2.074   3.526 -1.7573 -1.7793 -0.3179
  949MOL0     H28102   2.371   2.134   3.741  0.3844 -1.1174 -1.2196
  949MOL0     H28103   2.009   2.279   3.936  1.6993  1.7379 -1.1517
  949MOL0     H28104   1.893   2.265   4.146  1.7460 -2.6039  1.6616
  949MOL0     H28105   2.098   2.432   4.513  0.9575 -2.3206 -1.7583
  949MOL0     H28106   1.988   2.533   4.431 -2.9215  0.3488  0.5516
  949MOL0     H28107   1.876   2.315   4.619  0.1876 -0.3003  0.0799
  949MOL0     H28108   1.794   2.430   4.530  0.5832  0.6569  0.6227
  949MOL0     H28109   1.915   2.620   4.629 -1.7065  0.3953 -0.2035
  949MOL0     H28110   2.010   2.512   4.742 -1.0418  2.0567  1.3328
  949MOL0     H28111   1.709   2.557   4.778 -0.4706 -1.1723  0.0266
  949MOL0     H28112   1.850   2.634   4.853  2.3170 -0.8455 -0.6365
  949MOL0     H28113   1.859   2.245   5.020  0.5152  1.0830  0.8092
  949MOL0     H28114   2.237   2.433   4.344 -1.4787 -2.2873  1.2174
  949MOL0     H28115   2.341   2.478   4.113  0.6088 -0.4484  1.5473
  950MOL0     O28116   9.082   3.963   5.786  0.1221  0.6661 -0.3363
  950MOL0     C28117   9.168   3.883   5.813 -0.1910  0.0144 -0.7145
  950MOL0     O28118   9.216   3.793   5.721 -0.3472  0.2590 -0.0727
  950MOL0     C28119   9.111   3.722   5.660 -0.1555 -1.3725  0.4381
  950MOL0     C28120   9.050   3.619   5.720 -0.2881 -0.2275  0.0169
  950MOL0     C28121   8.936   3.560   5.667  0.5862  0.2516  0.1874
  950MOL0     C28122   8.861   3.600   5.555  0.4274 -0.0041  0.3860
  950MOL0     O28123   8.749   3.536   5.498 -0.3949 -0.3171 -0.0797
  950MOL0     C28124   8.634   3.517   5.576 -1.0761 -0.6868  0.0853
  950MOL0     C28125   8.596   3.374   5.560 -0.1553 -0.0050 -0.3725
  950MOL0     C28126   8.449   3.339   5.601 -0.4584  0.0021 -0.2509
  950MOL0     C28127   8.341   3.392   5.509  0.3414  0.3476  0.4512
  950MOL0     C28128   8.273   3.283   5.432  0.9951 -0.2068 -0.3758
  950MOL0     C28129   8.134   3.340   5.389 -0.2978  0.7184 -0.4440
  950MOL0     C28130   8.056   3.233   5.318  0.1705 -0.4385  0.0604
  950MOL0     C28131   7.935   3.283   5.235 -0.1117  0.2415 -0.5894
  950MOL0     N28132   7.977   3.361   5.125  0.6361 -0.3211  0.3214
  950MOL0     C28133   7.925   3.335   5.000 -0.3514 -0.0354 -0.1419
  950MOL0     C28134   7.955   3.444   4.921 -0.3195 -0.5754 -0.6960
  950MOL0     C28135   7.905   3.460   4.782 -0.0496 -0.5443  0.9469
  950MOL0     C28136   7.816   3.587   4.784  0.4954 -0.8639  0.8711
  950MOL0     C28137   7.729   3.597   4.654 -0.2055  0.2080 -0.2344
  950MOL0     C28138   7.638   3.484   4.604  0.4806  0.3523  0.6075
  950MOL0     O28139   7.608   3.404   4.712 -0.0599 -0.5187 -1.0087
  950MOL0     C28140   7.524   3.302   4.694  0.0851  0.3553 -0.2229
  950MOL0     C28141   7.422   3.305   4.597  0.9818  0.2219  0.1318
  950MOL0     C28142   7.327   3.199   4.586  0.1909 -1.0598  0.2054
  950MOL0     C28143   7.243   3.205   4.462  0.0760 -0.3832 -0.1822
  950MOL0     C28144   7.322   3.105   4.686 -1.1053 -0.8898  0.2623
  950MOL0     C28145   7.221   2.990   4.697 -0.0137  0.7065 -0.6408
  950MOL0     O28146   7.253   2.895   4.801 -0.0363 -0.4876 -0.0922
  950MOL0     C28147   7.182   2.779   4.805  1.5202  0.2119  0.4464
  950MOL0     C28148   7.142   2.735   4.928 -1.0505  0.4798 -0.5817
  950MOL0     C28149   7.086   2.616   4.947  0.3520  1.0627  0.1332
  950MOL0     C28150   7.049   2.539   4.842 -0.0745  0.7727  0.6813
  950MOL0     O28151   6.975   2.416   4.842 -0.9967 -0.7420 -0.0491
  950MOL0     C28152   6.947   2.339   4.960  0.3374 -0.2836  0.4993
  950MOL0     C28153   7.060   2.256   5.014  0.0643 -0.6513 -0.4621
  950MOL0     C28154   7.151   2.191   4.904  0.2857 -1.2893  0.7849
  950MOL0     C28155   7.240   2.080   4.956  1.1763  0.6555  0.4520
  950MOL0     C28156   7.342   2.042   4.854 -0.0596  0.4065 -0.1448
  950MOL0     C28157   7.460   1.969   4.920  0.1207 -0.2504  0.5047
  950MOL0     C28158   7.438   1.847   4.995 -0.3690 -0.6114 -1.2584
  950MOL0     C28159   7.566   1.794   5.061  0.4151 -0.7852  0.1671
  950MOL0    Cl28160   7.518   1.651   5.170 -0.6326  0.2531 -0.4547
  950MOL0     C28161   7.087   2.579   4.707  0.3903 -0.1820 -0.1519
  950MOL0     C28162   7.160   2.698   4.688  0.3538 -0.8635 -1.5462
  950MOL0     O28163   7.123   2.989   4.619  0.6732 -0.2060 -0.1996
  950MOL0     C28164   7.431   3.100   4.782  0.8482  0.1334 -0.0239
  950MOL0     C28165   7.523   3.202   4.790 -0.1919 -0.1864 -1.0372
  950MOL0     N28166   8.030   3.529   5.007 -0.1382 -0.0163  1.2205
  950MOL0     N28167   8.034   3.483   5.120 -0.0958  0.7077  0.1911
  950MOL0     C28168   8.931   3.708   5.492  0.0552 -0.6892 -0.7448
  950MOL0     C28169   9.051   3.767   5.540  0.8272  0.6666  0.6790
  950MOL0     C28170   9.230   3.875   5.946 -0.3857  0.0617  0.0897
  950MOL0     C28171   9.155   3.923   6.062 -0.7246  0.1281 -0.1231
  950MOL0     C28172   9.219   3.910   6.183 -0.0756 -0.6364 -0.6010
  950MOL0     C28173   9.342   3.857   6.204 -0.3319  0.5143  0.1420
  950MOL0     O28174   9.411   3.887   6.315 -0.0166  0.3305  0.3146
  950MOL0     C28175   9.367   3.827   6.439 -0.8128 -0.5470 -1.0605
  950MOL0     C28176   9.465   3.875   6.557 -0.2262 -0.4856 -0.7238
  950MOL0     C28177   9.406   3.997   6.612 -0.5569  0.3359 -0.8300
  950MOL0     C28178   9.469   4.072   6.725  0.0514  0.5170 -1.2094
  950MOL0     C28179   9.520   3.982   6.829 -0.1758  0.7141 -0.8140
  950MOL0     C28180   9.580   3.908   6.904 -0.3614 -0.9810 -0.1847
  950MOL0     C28181   9.412   3.803   6.094  0.4503 -0.8428  0.1566
  950MOL0     C28182   9.360   3.813   5.962 -0.7291  0.0568 -0.8685
  950MOL0     H28183   9.088   3.579   5.814 -0.1029  0.5854  0.2934
  950MOL0     H28184   8.908   3.464   5.709  2.3503 -0.8272 -0.9472
  950MOL0     H28185   8.651   3.558   5.676  0.9429 -0.0947 -0.4757
  950MOL0     H28186   8.548   3.568   5.531 -2.9445 -2.9770  0.7948
  950MOL0     H28187   8.615   3.344   5.456  3.0489  2.7326 -0.7710
  950MOL0     H28188   8.665   3.310   5.616  1.4252  0.3798 -1.7864
  950MOL0     H28189   8.431   3.231   5.600 -0.1161 -0.1473 -3.8259
  950MOL0     H28190   8.429   3.373   5.703  4.3504  2.6051  0.1562
  950MOL0     H28191   8.271   3.460   5.557 -0.3972 -0.1359  0.0767
  950MOL0     H28192   8.391   3.455   5.435  0.6401 -0.2025  0.1712
  950MOL0     H28193   8.326   3.260   5.339 -1.6336  3.1904 -3.0157
  950MOL0     H28194   8.257   3.191   5.488 -2.7139  1.7171  2.1215
  950MOL0     H28195   8.076   3.373   5.476  0.4255  1.6782 -0.3055
  950MOL0     H28196   8.150   3.433   5.334  1.0355  1.8167  1.6453
  950MOL0     H28197   8.122   3.182   5.247  1.9171  0.4993  0.9534
  950MOL0     H28198   8.030   3.158   5.393  2.1896 -2.2846 -0.9720
  950MOL0     H28199   7.870   3.340   5.303 -1.2182 -1.7176  0.0709
  950MOL0     H28200   7.867   3.203   5.205  0.3103 -0.6179  0.6495
  950MOL0     H28201   7.877   3.242   4.975  1.1398 -1.0034  0.4476
  950MOL0     H28202   7.989   3.488   4.716 -0.1397 -2.9198 -0.2632
  950MOL0     H28203   7.858   3.369   4.744 -1.5929  0.3969  0.5196
  950MOL0     H28204   7.873   3.679   4.796 -1.0518  0.4756 -1.3285
  950MOL0     H28205   7.752   3.594   4.873  1.1740  2.5614  1.2326
  950MOL0     H28206   7.799   3.616   4.573  0.6775 -1.7918  0.0108
  950MOL0     H28207   7.663   3.683   4.669 -0.7448 -0.3658  0.8170
  950MOL0     H28208   7.707   3.423   4.545 -1.0034 -1.0314  0.2583
  950MOL0     H28209   7.551   3.528   4.555 -1.3581  0.5279  3.7652
  950MOL0     H28210   7.424   3.380   4.518  1.5047 -0.5457 -0.6085
  950MOL0     H28211   7.288   3.124   4.404  0.4539 -1.8536  2.0516
  950MOL0     H28212   7.138   3.200   4.491 -0.0077 -2.0692 -0.6672
  950MOL0     H28213   7.247   3.299   4.406  1.5843 -1.1215 -1.3837
  950MOL0     H28214   7.175   2.796   5.011 -0.6737  1.4511 -1.4235
  950MOL0     H28215   7.059   2.572   5.043  2.9404  0.3232  0.6032
  950MOL0     H28216   6.901   2.405   5.034  3.2328  0.7463  1.5081
  950MOL0     H28217   6.859   2.276   4.942 -2.4243  2.1568  3.9852
  950MOL0     H28218   7.112   2.327   5.079 -2.0599  2.2771 -1.7677
  950MOL0     H28219   7.002   2.181   5.069 -0.3464 -0.6863 -0.9404
  950MOL0     H28220   7.205   2.276   4.860 -2.3223  1.7425  2.9912
  950MOL0     H28221   7.092   2.144   4.824 -2.1582  0.8995  1.1871
  950MOL0     H28222   7.286   2.120   5.047 -0.6794  5.3976 -0.3961
  950MOL0     H28223   7.169   2.001   4.980  1.4419  0.2255 -0.1641
  950MOL0     H28224   7.378   2.134   4.808  0.0375 -1.0514 -3.2592
  950MOL0     H28225   7.294   1.979   4.779 -2.0810 -0.3143  1.6384
  950MOL0     H28226   7.530   1.952   4.837  1.4615  2.3773  1.0216
  950MOL0     H28227   7.514   2.029   4.993  3.1513 -3.5847  1.3347
  950MOL0     H28228   7.403   1.763   4.935 -1.1622 -2.2323  1.3171
  950MOL0     H28229   7.369   1.865   5.078  1.8638 -1.0327  0.7827
  950MOL0     H28230   7.625   1.874   5.107  2.1235 -0.4344 -2.4394
  950MOL0     H28231   7.633   1.766   4.980  1.2759 -0.9440  0.9101
  950MOL0     H28232   7.065   2.509   4.627  3.1200  1.9508 -3.0180
  950MOL0     H28233   7.204   2.729   4.594  2.4288  2.0031  0.2064
  950MOL0     H28234   7.433   3.020   4.855 -1.3529 -0.3414 -0.4356
  950MOL0     H28235   7.614   3.200   4.850 -0.8571  1.9213  0.1076
  950MOL0     H28236   8.886   3.749   5.402 -1.3101  1.5885  0.8425
  950MOL0     H28237   9.075   3.855   5.481 -0.2369  0.5188 -0.0076
  950MOL0     H28238   9.056   3.965   6.045 -0.2113  1.0382 -0.9765
  950MOL0     H28239   9.167   3.955   6.267 -1.1991  0.9529 -2.0957
  950MOL0     H28240   9.267   3.862   6.464  0.0463  0.6401  1.0153
  950MOL0     H28241   9.360   3.718   6.436  3.0630 -0.9960 -0.0616
  950MOL0     H28242   9.568   3.894   6.524 -0.5581  0.9687 -0.9605
  950MOL0     H28243   9.467   3.795   6.632  1.7186  0.8361  0.7516
  950MOL0     H28244   9.305   3.974   6.647 -0.6178 -2.1678 -2.4140
  950MOL0     H28245   9.393   4.066   6.528  1.0027  1.5363 -0.1375
  950MOL0     H28246   9.394   4.135   6.775 -0.2036 -1.7932  1.5653
  950MOL0     H28247   9.552   4.136   6.693  0.8597 -0.1478 -0.4998
  950MOL0     H28248   9.610   3.841   6.981  1.1953  1.6204  1.6467
  950MOL0     H28249   9.515   3.769   6.100  0.0483 -1.9071  1.6382
  950MOL0     H28250   9.429   3.783   5.884 -1.8667 -1.8175 -1.2419
  951MOL0     O28251   6.264   3.183   1.990  0.6975  0.8380  0.0668
  951MOL0     C28252   6.242   3.063   2.000 -0.4843 -0.5251 -0.2075
  951MOL0     O28253   6.215   3.009   2.117  0.2610  0.3431 -0.3242
  951MOL0     C28254   6.196   3.077   2.232 -0.2252 -0.5073  0.1105
  951MOL0     C28255   6.303   3.109   2.319 -0.9218  1.2675  0.8988
  951MOL0     C28256   6.282   3.157   2.445  0.1276  0.0185  0.1313
  951MOL0     C28257   6.146   3.157   2.485 -0.5799  0.6451 -0.2491
  951MOL0     O28258   6.111   3.199   2.607 -0.2937  0.6016 -0.6457
  951MOL0     C28259   6.093   3.342   2.625 -0.2036  1.1391  0.0368
  951MOL0     C28260   5.989   3.360   2.726  0.1526 -0.1906 -0.4538
  951MOL0     C28261   5.946   3.505   2.751 -0.1445 -0.2003  0.2733
  951MOL0     C28262   6.062   3.609   2.787  0.4798  0.3013 -1.1079
  951MOL0     C28263   6.000   3.751   2.817 -0.0414 -0.0424  0.4536
  951MOL0     C28264   6.109   3.859   2.848  1.6046 -1.1244  0.1864
  951MOL0     C28265   6.046   4.004   2.858 -0.5308  0.4635  0.0655
  951MOL0     C28266   6.144   4.115   2.873 -0.2035 -0.2478  0.3336
  951MOL0     N28267   6.218   4.138   2.749 -0.5912  0.2430 -0.8602
  951MOL0     C28268   6.188   4.183   2.625  0.8510 -1.1661 -0.1490
  951MOL0     C28269   6.298   4.205   2.550  0.4261 -0.4675 -0.6809
  951MOL0     C28270   6.307   4.268   2.420  0.7965 -0.4238 -0.7430
  951MOL0     C28271   6.295   4.425   2.429 -0.0060  0.1639 -1.0648
  951MOL0     C28272   6.326   4.477   2.279 -0.5751 -1.0684 -0.3752
  951MOL0     C28273   6.349   4.623   2.255  0.5824  0.2656 -0.1521
  951MOL0     O28274   6.468   4.664   2.317 -0.2333 -0.2327 -0.6273
  951MOL0     C28275   6.480   4.795   2.366 -0.6289  0.2086 -0.2848
  951MOL0     C28276   6.388   4.906   2.347  0.2497  0.0228  0.4009
  951MOL0     C28277   6.402   5.024   2.418  0.6331 -0.1739  0.5445
  951MOL0     C28278   6.295   5.130   2.400  0.0802  0.8448 -0.9130
  951MOL0     C28279   6.529   5.033   2.481  0.3549 -0.6315  0.5813
  951MOL0     C28280   6.576   5.162   2.534  0.0889 -0.2336  0.0723
  951MOL0     O28281   6.485   5.263   2.564  0.2169 -0.3599  0.0605
  951MOL0     C28282   6.528   5.387   2.593 -0.3324 -0.2699 -0.0746
  951MOL0     C28283   6.551   5.409   2.728  1.0988 -0.8977  0.3707
  951MOL0     C28284   6.608   5.537   2.759  0.0281  0.0612  0.5212
  951MOL0     C28285   6.643   5.626   2.659 -0.6834  0.7913 -0.1030
  951MOL0     O28286   6.689   5.752   2.689 -0.0678 -0.2642  0.0812
  951MOL0     C28287   6.596   5.867   2.661  0.5944  0.5231 -0.1822
  951MOL0     C28288   6.566   5.969   2.769  0.5516  0.3011 -1.1752
  951MOL0     C28289   6.690   6.057   2.807  0.3733 -0.1163  0.4390
  951MOL0     C28290   6.688   6.136   2.944  0.1683  0.1251 -0.9132
  951MOL0     C28291   6.776   6.262   2.935  0.6289 -0.4253 -0.0971
  951MOL0     C28292   6.805   6.326   3.072  0.3037  0.8715 -0.9130
  951MOL0     C28293   6.867   6.471   3.074 -0.1861  0.2192  0.0235
  951MOL0     C28294   7.000   6.476   3.000 -0.5023 -0.3205  0.4064
  951MOL0    Cl28295   6.969   6.541   2.827 -0.1633 -0.2368  0.2278
  951MOL0     C28296   6.622   5.598   2.527 -0.3727 -0.1293  0.0073
  951MOL0     C28297   6.569   5.478   2.497  0.2242 -0.7263  0.0115
  951MOL0     O28298   6.699   5.174   2.549  0.0381 -0.1340 -0.0084
  951MOL0     C28299   6.619   4.926   2.503  0.2316  0.0230 -0.3865
  951MOL0     C28300   6.595   4.803   2.446  0.1653  0.6687 -0.8195
  951MOL0     N28301   6.401   4.158   2.635  0.1189 -0.5555  0.0957
  951MOL0     N28302   6.357   4.105   2.742  0.2777 -0.1415  0.1009
  951MOL0     C28303   6.040   3.114   2.403 -0.3163  1.1102 -0.1261
  951MOL0     C28304   6.065   3.067   2.274 -1.1491  0.3260  0.1173
  951MOL0     C28305   6.249   2.970   1.884 -0.2073 -0.7950 -0.0872
  951MOL0     C28306   6.314   3.019   1.766  0.4446  0.4246  0.5247
  951MOL0     C28307   6.334   2.942   1.654 -0.0070  0.3640  0.0281
  951MOL0     C28308   6.259   2.831   1.650  0.0041 -0.2472 -0.3659
  951MOL0     O28309   6.256   2.784   1.528  0.2414  0.4829 -0.3486
  951MOL0     C28310   6.158   2.694   1.487  0.1009 -0.0509 -0.3964
  951MOL0     C28311   6.147   2.662   1.339  0.4926  0.3866  0.3592
  951MOL0     C28312   6.263   2.574   1.308  0.6172  0.2714  0.3103
  951MOL0     C28313   6.270   2.549   1.154  0.2895 -0.8568 -0.4101
  951MOL0     C28314   6.149   2.487   1.114  0.6451  0.0433  0.2014
  951MOL0     C28315   6.037   2.444   1.094  0.9356 -0.1911  0.2272
  951MOL0     C28316   6.208   2.776   1.769  0.5498  0.1949 -0.7808
  951MOL0     C28317   6.202   2.840   1.891  0.2446  0.3979  0.4319
  951MOL0     H28318   6.407   3.105   2.289 -1.3031 -1.2995 -0.3575
  951MOL0     H28319   6.360   3.191   2.512  1.2067 -1.4789 -0.3091
  951MOL0     H28320   6.188   3.393   2.645  1.4785 -0.8021 -2.3841
  951MOL0     H28321   6.049   3.388   2.536 -0.4633  3.1099  1.1208
  951MOL0     H28322   5.903   3.304   2.688  0.3096  0.0062 -1.1254
  951MOL0     H28323   6.011   3.321   2.825 -1.6684 -0.9569 -0.3135
  951MOL0     H28324   5.894   3.541   2.662  1.3166  1.7994  0.1515
  951MOL0     H28325   5.863   3.502   2.823 -2.0564  1.1594 -1.7516
  951MOL0     H28326   6.114   3.559   2.869 -0.1352 -0.8335 -1.3852
  951MOL0     H28327   6.127   3.613   2.699 -0.0169  1.7821 -1.4297
  951MOL0     H28328   5.929   3.786   2.742 -1.7687  0.8266  2.4005
  951MOL0     H28329   5.937   3.744   2.906 -1.4778  2.3076 -0.2966
  951MOL0     H28330   6.148   3.829   2.945  2.7320 -0.8694 -0.1747
  951MOL0     H28331   6.192   3.858   2.777  0.8724 -2.4899 -0.6988
  951MOL0     H28332   5.989   4.019   2.765 -3.8787  2.8431  2.2487
  951MOL0     H28333   5.974   4.019   2.940 -0.8234  0.2815 -0.1548
  951MOL0     H28334   6.204   4.081   2.957  1.5091 -0.1429 -0.7869
  951MOL0     H28335   6.101   4.211   2.902  1.5747  0.7986 -0.2995
  951MOL0     H28336   6.086   4.193   2.590  1.1535  3.2607 -0.3214
  951MOL0     H28337   6.408   4.250   2.383  1.8727  3.1162  0.0711
  951MOL0     H28338   6.218   4.233   2.367 -1.4209  1.7978  1.2124
  951MOL0     H28339   6.368   4.475   2.494  0.4593 -3.0471  1.1203
  951MOL0     H28340   6.197   4.452   2.468  0.3636  2.2315 -1.4826
  951MOL0     H28341   6.253   4.432   2.211  1.6576 -2.4117 -1.9815
  951MOL0     H28342   6.423   4.437   2.249  1.4648  1.9659  1.5931
  951MOL0     H28343   6.264   4.664   2.310  1.4249  0.5485  0.9895
  951MOL0     H28344   6.350   4.649   2.149  0.7515  2.1562  0.2745
  951MOL0     H28345   6.302   4.889   2.283  0.3706  0.8496  0.0165
  951MOL0     H28346   6.205   5.086   2.355 -3.3283  1.1159  4.7318
  951MOL0     H28347   6.255   5.152   2.499 -3.1936  1.7747 -2.3102
  951MOL0     H28348   6.336   5.217   2.348  1.5553  0.9396  0.3431
  951MOL0     H28349   6.515   5.342   2.806 -2.1277 -0.6271 -0.7591
  951MOL0     H28350   6.651   5.573   2.852  2.3498 -1.2450  0.0351
  951MOL0     H28351   6.655   5.921   2.586  3.6164 -2.9822 -0.6221
  951MOL0     H28352   6.499   5.838   2.619  0.8775  1.3096 -1.4334
  951MOL0     H28353   6.480   6.032   2.744  1.1433  2.1865  1.0661
  951MOL0     H28354   6.540   5.922   2.864 -4.2449  3.8187 -0.3519
  951MOL0     H28355   6.707   6.137   2.734 -1.0263  1.4312  1.7526
  951MOL0     H28356   6.780   5.996   2.817 -0.4578 -1.7210 -1.2668
  951MOL0     H28357   6.587   6.159   2.978  1.4809  4.7113  0.4918
  951MOL0     H28358   6.725   6.073   3.025 -4.5176  0.1131  1.5625
  951MOL0     H28359   6.715   6.334   2.879 -0.9866 -0.5018  1.4750
  951MOL0     H28360   6.872   6.249   2.885 -0.5296  0.2394 -2.6632
  951MOL0     H28361   6.707   6.339   3.118 -1.0808  1.3896 -3.7825
  951MOL0     H28362   6.872   6.250   3.115 -0.7409  0.8970  0.8384
  951MOL0     H28363   6.893   6.501   3.175  0.7092 -3.0245  0.8812
  951MOL0     H28364   6.807   6.544   3.019  1.0464  1.9998  0.9455
  951MOL0     H28365   7.047   6.377   3.006  0.0725 -0.0249  0.9151
  951MOL0     H28366   7.058   6.554   3.050 -0.7452 -0.4242  0.8570
  951MOL0     H28367   6.638   5.670   2.447 -0.2691 -2.0615 -1.8182
  951MOL0     H28368   6.555   5.432   2.399 -0.1215 -2.9082  1.0347
  951MOL0     H28369   6.718   4.932   2.546 -0.6009 -1.6759  1.9869
  951MOL0     H28370   6.669   4.725   2.455  0.0335  0.6210 -0.0715
  951MOL0     H28371   5.938   3.124   2.438 -0.2770 -0.9124  0.7100
  951MOL0     H28372   5.996   3.028   2.200  0.4067 -1.4295 -0.4812
  951MOL0     H28373   6.344   3.122   1.782 -2.4680  1.2402  1.4299
  951MOL0     H28374   6.383   2.988   1.568 -0.5855 -0.2802 -0.6635
  951MOL0     H28375   6.172   2.599   1.540 -1.0505 -0.3619 -0.6295
  951MOL0     H28376   6.061   2.733   1.519  1.0454 -0.0714  2.8523
  951MOL0     H28377   6.149   2.755   1.282  0.3592 -0.4923 -1.1266
  951MOL0     H28378   6.044   2.628   1.325 -0.3115  3.7153 -3.4272
  951MOL0     H28379   6.223   2.486   1.361  2.3436  0.4036  1.9464
  951MOL0     H28380   6.358   2.610   1.348  0.3014  0.9123  0.4899
  951MOL0     H28381   6.346   2.472   1.138 -0.4684 -2.8507  3.9614
  951MOL0     H28382   6.273   2.638   1.091 -2.7846  0.0994  0.6056
  951MOL0     H28383   5.939   2.403   1.080  0.3835  1.0100  0.3800
  951MOL0     H28384   6.151   2.684   1.757  1.4166 -0.2711 -1.4035
  951MOL0     H28385   6.147   2.798   1.975 -0.1033 -0.4166 -0.1892
  952MOL0     O28386   9.544   6.728   6.495  0.5613  0.4789 -0.1760
  952MOL0     C28387   9.450   6.676   6.433  0.1688  0.1944 -0.4377
  952MOL0     O28388   9.345   6.744   6.376 -0.4430 -1.3185 -0.2344
  952MOL0     C28389   9.327   6.880   6.403 -0.0482  0.6383  0.2339
  952MOL0     C28390   9.316   6.971   6.295 -0.6813 -0.3383 -0.4832
  952MOL0     C28391   9.277   7.102   6.327  0.8943 -0.1736 -0.7315
  952MOL0     C28392   9.247   7.149   6.455 -0.2556  0.8742  0.3304
  952MOL0     O28393   9.223   7.281   6.466 -1.1344  0.0384 -0.2803
  952MOL0     C28394   9.328   7.368   6.487 -0.3225 -0.6859  0.1781
  952MOL0     C28395   9.275   7.504   6.464 -0.6596  0.2721 -0.1064
  952MOL0     C28396   9.139   7.530   6.548 -0.3269  0.8319  0.5872
  952MOL0     C28397   9.094   7.671   6.514  0.2151 -0.3703  0.2555
  952MOL0     C28398   8.959   7.701   6.585 -0.8148  0.2553 -0.1279
  952MOL0     C28399   8.949   7.685   6.736  0.2028 -0.2639 -0.4281
  952MOL0     C28400   8.843   7.769   6.809  0.1783  0.6268 -0.5441
  952MOL0     C28401   8.709   7.780   6.743 -0.2489  0.2831 -0.5148
  952MOL0     N28402   8.647   7.917   6.769 -1.1989  0.7358  0.0151
  952MOL0     C28403   8.615   7.989   6.882  0.4759  0.0983  0.1697
  952MOL0     C28404   8.562   8.106   6.835  0.0556  0.2220 -0.4912
  952MOL0     C28405   8.531   8.232   6.915 -0.2813 -0.3816 -0.2511
  952MOL0     C28406   8.463   8.207   7.048  0.4351  0.3141  1.5729
  952MOL0     C28407   8.326   8.142   7.018  0.9752  0.4374 -1.0315
  952MOL0     C28408   8.246   8.152   7.142  0.3193 -0.6150 -0.0449
  952MOL0     O28409   8.196   8.285   7.168  0.4870 -0.6707 -0.0358
  952MOL0     C28410   8.082   8.336   7.103 -0.0243 -0.4395 -0.2202
  952MOL0     C28411   8.032   8.455   7.158 -0.2795 -0.2897  0.3600
  952MOL0     C28412   7.921   8.513   7.107  0.5811 -0.8094  0.4210
  952MOL0     C28413   7.883   8.649   7.162  0.1135 -0.2468  0.6085
  952MOL0     C28414   7.862   8.457   6.988  0.3492 -0.4828  0.0266
  952MOL0     C28415   7.737   8.520   6.936 -0.9629  0.6768 -0.2276
  952MOL0     O28416   7.749   8.563   6.808  0.4871 -0.1060 -0.5303
  952MOL0     C28417   7.640   8.627   6.761  0.2180 -0.5743 -0.0945
  952MOL0     C28418   7.513   8.571   6.756 -0.2742 -0.1580  0.2311
  952MOL0     C28419   7.400   8.649   6.709 -0.3203  0.5259 -0.2147
  952MOL0     C28420   7.428   8.773   6.644  0.4261 -0.1844 -0.6861
  952MOL0     O28421   7.330   8.846   6.576  0.1932  0.5479  0.4260
  952MOL0     C28422   7.190   8.826   6.610  0.7956 -1.1060  0.1579
  952MOL0     C28423   7.114   8.939   6.537 -0.9013  1.1666  0.0100
  952MOL0     C28424   6.956   8.917   6.542 -0.6717  0.3628 -0.2564
  952MOL0     C28425   6.879   8.990   6.434  0.2416  0.1122 -0.0841
  952MOL0     C28426   6.892   8.951   6.287 -0.2662 -0.0313  0.1312
  952MOL0     C28427   6.807   9.040   6.191  0.0073 -0.6709  0.1127
  952MOL0     C28428   6.882   9.175   6.186  0.9481  0.6250 -0.0524
  952MOL0     C28429   6.849   9.272   6.074  0.2672 -0.8921  1.3331
  952MOL0    Cl28430   6.867   9.195   5.910 -0.6398 -0.2342  0.0694
  952MOL0     C28431   7.565   8.811   6.630  0.3751 -0.4211  0.6484
  952MOL0     C28432   7.669   8.737   6.691  0.3187  0.4854 -0.7707
  952MOL0     O28433   7.632   8.529   7.008  0.1695 -0.2580  0.3667
  952MOL0     C28434   7.906   8.330   6.937 -0.2381 -0.3004  0.1563
  952MOL0     C28435   8.020   8.275   6.996  0.9319  0.4840  0.1840
  952MOL0     N28436   8.556   8.094   6.700  0.1123 -0.3800  0.5125
  952MOL0     N28437   8.591   7.982   6.667 -0.0370  0.5321 -0.1984
  952MOL0     C28438   9.264   7.072   6.568  0.2702  0.9558 -0.0812
  952MOL0     C28439   9.290   6.928   6.535  0.9486 -0.4799  0.1687
  952MOL0     C28440   9.438   6.528   6.411 -0.3663  0.6618  0.2774
  952MOL0     C28441   9.534   6.436   6.456 -1.1103 -0.1083  0.8345
  952MOL0     C28442   9.548   6.304   6.418  0.5317  0.1716 -0.7748
  952MOL0     C28443   9.442   6.254   6.340  0.2465  0.3900  0.0550
  952MOL0     O28444   9.429   6.122   6.304  0.0174  0.5040 -0.7356
  952MOL0     C28445   9.518   6.076   6.211  0.3116 -0.1186 -0.0413
  952MOL0     C28446   9.484   5.946   6.144  0.6340 -0.3312 -0.6628
  952MOL0     C28447   9.494   5.817   6.228 -0.3330  0.2034 -0.1555
  952MOL0     C28448   9.637   5.786   6.264  0.1493  0.3333  0.1095
  952MOL0     C28449   9.697   5.751   6.142  0.0720 -0.2736 -0.4611
  952MOL0     C28450   9.769   5.725   6.051  0.5087  0.5887 -0.6914
  952MOL0     C28451   9.334   6.329   6.300 -0.2698  0.5106  1.5196
  952MOL0     C28452   9.342   6.465   6.337 -0.1324 -0.3175  0.3657
  952MOL0     H28453   9.345   6.952   6.192  1.8851 -1.2862  0.3520
  952MOL0     H28454   9.274   7.171   6.243  1.2895 -0.3094 -0.8592
  952MOL0     H28455   9.341   7.369   6.596 -1.4749  5.1359  0.6087
  952MOL0     H28456   9.414   7.331   6.432 -1.6933 -3.4506 -0.3035
  952MOL0     H28457   9.354   7.570   6.502  0.3337 -1.8094  1.6633
  952MOL0     H28458   9.268   7.525   6.357 -0.3352  0.7557 -0.0362
  952MOL0     H28459   9.056   7.462   6.528  1.3216 -1.1001 -0.0753
  952MOL0     H28460   9.155   7.530   6.657  0.2588 -4.7553  0.7875
  952MOL0     H28461   9.173   7.734   6.556  1.5256 -2.9922  2.0038
  952MOL0     H28462   9.096   7.687   6.406  1.1961 -1.1913  0.1263
  952MOL0     H28463   8.950   7.809   6.566  2.1291  0.6043  0.0106
  952MOL0     H28464   8.879   7.635   6.550  1.1264 -0.9519 -2.5440
  952MOL0     H28465   8.930   7.580   6.758  1.1167 -0.0940  1.3636
  952MOL0     H28466   9.045   7.704   6.786 -0.6516  1.0155  0.7920
  952MOL0     H28467   8.825   7.717   6.903 -0.2728  1.6127 -0.0741
  952MOL0     H28468   8.887   7.861   6.847 -0.3329 -1.0496  4.9627
  952MOL0     H28469   8.641   7.708   6.790  0.6571  1.7183  3.3792
  952MOL0     H28470   8.728   7.770   6.635 -0.5492  5.7507 -1.3954
  952MOL0     H28471   8.626   7.951   6.983  3.4084 -0.1311 -0.1438
  952MOL0     H28472   8.615   8.300   6.933 -1.3655 -0.1338  5.8778
  952MOL0     H28473   8.455   8.284   6.855  0.4349  2.3620  1.0805
  952MOL0     H28474   8.436   8.306   7.087  1.5150  1.6110 -0.7760
  952MOL0     H28475   8.526   8.147   7.114  2.0671 -1.5598 -1.4676
  952MOL0     H28476   8.343   8.038   6.988 -0.6733 -0.6513  1.3799
  952MOL0     H28477   8.276   8.193   6.935  1.3431 -1.3147 -2.3880
  952MOL0     H28478   8.301   8.106   7.225  0.4386 -1.2705 -0.4821
  952MOL0     H28479   8.159   8.084   7.141 -0.5316  0.3787  1.4609
  952MOL0     H28480   8.078   8.502   7.243 -1.1469  1.7828 -0.2639
  952MOL0     H28481   7.908   8.735   7.099 -1.5180 -0.9333 -1.0658
  952MOL0     H28482   7.781   8.658   7.202 -1.7563  0.4242 -3.7327
  952MOL0     H28483   7.947   8.671   7.248  1.2794 -1.4603  0.0836
  952MOL0     H28484   7.503   8.473   6.803 -0.2373  0.1390  0.8702
  952MOL0     H28485   7.301   8.607   6.701 -0.0756 -0.0215 -0.4387
  952MOL0     H28486   7.151   8.726   6.590 -3.1579  0.2952  0.0679
  952MOL0     H28487   7.170   8.844   6.716 -1.3908 -3.2850  0.2026
  952MOL0     H28488   7.138   9.029   6.595 -1.5762  1.6969 -0.5276
  952MOL0     H28489   7.168   8.943   6.442 -1.3975 -2.7336 -0.6042
  952MOL0     H28490   6.914   8.944   6.639 -2.4840 -1.6277 -0.4191
  952MOL0     H28491   6.949   8.808   6.532  3.0943  0.1533 -2.7014
  952MOL0     H28492   6.772   8.978   6.457 -0.4799  1.8567 -2.1468
  952MOL0     H28493   6.904   9.096   6.446  4.6768 -0.4096 -2.6525
  952MOL0     H28494   6.856   8.847   6.290 -1.6912  0.4543  1.2688
  952MOL0     H28495   6.993   8.953   6.247  1.1120 -1.4129  3.2358
  952MOL0     H28496   6.800   8.994   6.092 -1.7811 -1.1378  0.4305
  952MOL0     H28497   6.709   9.067   6.231  0.0208  1.8030 -1.2812
  952MOL0     H28498   6.990   9.168   6.170  0.3125 -2.5877 -5.6406
  952MOL0     H28499   6.863   9.221   6.284  1.6008 -1.6174  1.1962
  952MOL0     H28500   6.894   9.368   6.102 -1.6909 -0.7324  4.4231
  952MOL0     H28501   6.741   9.294   6.076  0.4672  1.1182 -1.9316
  952MOL0     H28502   7.602   8.894   6.569  1.7233 -0.3080  1.5616
  952MOL0     H28503   7.769   8.780   6.695 -0.0930  1.5942 -1.7624
  952MOL0     H28504   7.851   8.289   6.853  0.1564 -0.6578  0.0657
  952MOL0     H28505   8.043   8.172   6.970 -3.8448 -0.3039 -2.1782
  952MOL0     H28506   9.240   7.119   6.663  3.8231  1.1920  0.8586
  952MOL0     H28507   9.308   6.866   6.622  2.9095  0.9351  0.8422
  952MOL0     H28508   9.617   6.478   6.512 -0.5108 -1.1961  0.7907
  952MOL0     H28509   9.634   6.246   6.448  0.6442  0.8640  0.2902
  952MOL0     H28510   9.512   6.141   6.123 -0.6350 -1.1929 -0.8004
  952MOL0     H28511   9.624   6.076   6.237  1.0780  0.4800 -2.7351
  952MOL0     H28512   9.546   5.933   6.055  0.7213  0.2093 -0.6824
  952MOL0     H28513   9.381   5.955   6.111  0.0018 -2.4866  0.5072
  952MOL0     H28514   9.453   5.730   6.175  0.4418  1.0621 -2.2605
  952MOL0     H28515   9.430   5.826   6.316 -2.8170 -0.5415 -1.7676
  952MOL0     H28516   9.642   5.691   6.318 -0.0179 -0.1818 -0.7520
  952MOL0     H28517   9.695   5.865   6.312 -0.6564  0.8841  0.1981
  952MOL0     H28518   9.840   5.701   5.974 -0.0020 -1.0828 -0.6929
  952MOL0     H28519   9.258   6.274   6.246  0.7661  1.0573 -0.5728
  952MOL0     H28520   9.259   6.529   6.309 -2.6590 -3.1348  0.8176
  953MOL0     O28521   9.264   9.712   6.438 -0.2524 -0.8066 -0.4456
  953MOL0     C28522   9.283   9.825   6.390  0.4162  0.4108 -0.5393
  953MOL0     O28523   9.207   9.876   6.288  1.3862 -1.0303 -0.1563
  953MOL0     C28524   9.123   9.792   6.224  0.5670 -0.1417  0.0739
  953MOL0     C28525   9.179   9.695   6.131  0.1382 -0.4905 -0.7220
  953MOL0     C28526   9.094   9.608   6.070  0.0838  0.4162 -0.5397
  953MOL0     C28527   8.957   9.600   6.114 -0.2394  0.2117  0.2462
  953MOL0     O28528   8.883   9.500   6.066 -0.1634 -0.3083  0.3959
  953MOL0     C28529   8.820   9.529   5.941  0.2007 -0.3386  0.4333
  953MOL0     C28530   8.706   9.430   5.929  0.3432  0.5936  0.7966
  953MOL0     C28531   8.589   9.456   6.030  0.6420  0.4917  0.5621
  953MOL0     C28532   8.506   9.325   6.065 -0.1084  0.3629 -0.5961
  953MOL0     C28533   8.403   9.295   5.958 -0.0683  0.8290  0.2605
  953MOL0     C28534   8.287   9.207   5.993 -0.5800 -0.6978  0.2156
  953MOL0     C28535   8.337   9.068   6.025 -0.1255  0.5294 -0.6438
  953MOL0     C28536   8.244   8.966   6.095  0.3966  0.6150 -0.2468
  953MOL0     N28537   8.104   8.987   6.059 -0.7736 -0.5466  0.8859
  953MOL0     C28538   8.051   8.913   5.961  0.3027 -0.1360 -0.0952
  953MOL0     C28539   7.918   8.925   5.998 -0.1248  0.2370 -0.8329
  953MOL0     C28540   7.794   8.860   5.934  0.3378 -0.6007 -0.2153
  953MOL0     C28541   7.773   8.721   5.982 -0.5828  0.5726  0.3791
  953MOL0     C28542   7.892   8.621   6.000 -0.5563  0.0465  0.3654
  953MOL0     C28543   7.837   8.493   6.071  0.0015 -0.9182 -0.1414
  953MOL0     O28544   7.942   8.423   6.153 -1.0082 -0.8097  0.4555
  953MOL0     C28545   7.988   8.483   6.272  0.1812  0.1252  0.0889
  953MOL0     C28546   7.939   8.605   6.315  0.2470 -1.1824 -0.4505
  953MOL0     C28547   7.989   8.674   6.424 -0.5492 -0.1475  0.4499
  953MOL0     C28548   7.936   8.815   6.459  0.1726 -0.7972  0.1170
  953MOL0     C28549   8.089   8.596   6.503  0.5915  0.2815  0.1605
  953MOL0     C28550   8.129   8.641   6.639  0.4293 -0.2124 -0.0522
  953MOL0     O28551   8.255   8.610   6.685 -0.0116  0.3900  0.2805
  953MOL0     C28552   8.288   8.651   6.815 -0.3770  0.2050 -0.0357
  953MOL0     C28553   8.291   8.789   6.836  0.1762 -0.2294 -0.0331
  953MOL0     C28554   8.311   8.854   6.962  0.1549 -0.0155  0.0626
  953MOL0     C28555   8.337   8.767   7.075  0.6809  0.0337  0.3125
  953MOL0     O28556   8.337   8.831   7.197 -0.1251 -0.1599 -0.0060
  953MOL0     C28557   8.358   8.765   7.321 -1.2316  0.2023 -1.3649
  953MOL0     C28558   8.515   8.721   7.335  0.4052 -0.4235  1.2513
  953MOL0     C28559   8.547   8.654   7.466 -0.3921 -0.5631  0.1795
  953MOL0     C28560   8.528   8.754   7.587 -0.1102 -0.4112  0.0336
  953MOL0     C28561   8.616   8.728   7.714  0.5122 -0.1901  0.7117
  953MOL0     C28562   8.646   8.857   7.799 -0.5556  0.6905 -0.3200
  953MOL0     C28563   8.770   8.855   7.895  0.8676  0.0425  0.3380
  953MOL0     C28564   8.727   8.818   8.040 -0.7828  0.0623  0.1341
  953MOL0    Cl28565   8.886   8.785   8.137  0.0305  0.1632 -0.3149
  953MOL0     C28566   8.337   8.622   7.056 -0.0987 -0.1853  1.0731
  953MOL0     C28567   8.314   8.569   6.927  0.3958 -0.6199 -0.0935
  953MOL0     O28568   8.036   8.691   6.705 -0.1318 -0.6819  0.6197
  953MOL0     C28569   8.146   8.475   6.447 -0.0213 -0.8007  0.0448
  953MOL0     C28570   8.096   8.419   6.331 -0.0855 -0.0636  0.3542
  953MOL0     N28571   7.901   9.008   6.102  0.2773 -0.5956 -0.0801
  953MOL0     N28572   8.018   9.038   6.140  0.6234 -0.2784 -0.3774
  953MOL0     C28573   8.901   9.691   6.202 -0.4612  0.1792 -0.4979
  953MOL0     C28574   8.983   9.791   6.253 -0.4286 -0.9207  0.1713
  953MOL0     C28575   9.385   9.910   6.469 -0.2127  0.0889 -0.2950
  953MOL0     C28576   9.415  10.036   6.425  0.2161  0.7669 -0.2174
  953MOL0     C28577   9.512  10.115   6.479 -0.5659 -0.3558 -0.0717
  953MOL0     C28578   9.583  10.072   6.595 -1.0916  0.7396  1.3902
  953MOL0     O28579   9.682  10.158   6.647 -0.0101  0.6809 -0.7822
  953MOL0     C28580   9.711  10.150   6.786  0.7771  0.2134  0.9705
  953MOL0     C28581   9.827  10.241   6.823 -0.4850  0.7360 -0.7972
  953MOL0     C28582   9.785  10.385   6.845 -0.4958 -1.4257  0.2175
  953MOL0     C28583   9.769  10.434   6.990  0.2123  0.2029 -0.3555
  953MOL0     C28584   9.678  10.357   7.078  0.7754 -0.1009  0.5886
  953MOL0     C28585   9.610  10.300   7.162  0.1833  1.1433 -0.1000
  953MOL0     C28586   9.556   9.937   6.642 -0.0922 -0.8422  0.1412
  953MOL0     C28587   9.472   9.855   6.572 -0.5227  0.0102  0.2949
  953MOL0     H28588   9.285   9.711   6.114  0.5857 -0.4040  1.8176
  953MOL0     H28589   9.132   9.537   5.997 -1.6095 -1.0812 -0.0547
  953MOL0     H28590   8.782   9.632   5.937  1.0200 -0.0360  0.3071
  953MOL0     H28591   8.892   9.519   5.859  0.8896  3.8827  0.2587
  953MOL0     H28592   8.660   9.434   5.830  1.0471 -0.6063  0.3913
  953MOL0     H28593   8.740   9.326   5.939  2.5508  1.0604 -1.1555
  953MOL0     H28594   8.623   9.510   6.119  3.9098  0.4747 -0.5445
  953MOL0     H28595   8.519   9.521   5.977 -0.3319 -0.2772  0.8504
  953MOL0     H28596   8.561   9.234   6.092 -1.2150  0.1303  1.0776
  953MOL0     H28597   8.446   9.355   6.152 -0.9700  0.2656 -1.1505
  953MOL0     H28598   8.361   9.382   5.906 -1.9947 -1.5231 -2.3821
  953MOL0     H28599   8.464   9.250   5.880 -1.5684  2.5233 -2.0513
  953MOL0     H28600   8.249   9.253   6.084  3.1369  2.4260  0.4585
  953MOL0     H28601   8.211   9.199   5.915 -1.3768  0.7626  0.8189
  953MOL0     H28602   8.377   9.037   5.928  0.2632  0.2306 -0.3966
  953MOL0     H28603   8.427   9.070   6.088 -0.2427 -2.7387 -0.2092
  953MOL0     H28604   8.251   8.975   6.204  0.5883  2.8608 -0.4020
  953MOL0     H28605   8.275   8.866   6.063 -0.7366 -0.2531  1.2479
  953MOL0     H28606   8.092   8.843   5.889  1.1896 -1.1453  1.3683
  953MOL0     H28607   7.705   8.915   5.965 -1.9046 -3.5568 -1.0319
  953MOL0     H28608   7.784   8.862   5.825  0.8402 -2.0423 -0.3112
  953MOL0     H28609   7.690   8.670   5.932  0.2653  1.5644 -2.2557
  953MOL0     H28610   7.737   8.749   6.081 -1.3972  5.4779 -1.0433
  953MOL0     H28611   7.969   8.672   6.059 -0.3829  1.0320 -0.6678
  953MOL0     H28612   7.942   8.591   5.907 -0.3013 -2.9200  1.3513
  953MOL0     H28613   7.801   8.427   5.992  0.0687 -0.4177 -0.5972
  953MOL0     H28614   7.752   8.517   6.136  2.7981 -0.4975  3.6604
  953MOL0     H28615   7.860   8.661   6.266 -0.6889 -0.7374  1.4601
  953MOL0     H28616   7.827   8.823   6.464  0.1767  3.8150 -2.0009
  953MOL0     H28617   7.995   8.846   6.546  1.4376  2.2384 -1.6788
  953MOL0     H28618   7.963   8.881   6.377  0.1442  0.1669  0.8674
  953MOL0     H28619   8.247   8.848   6.757  1.3144  0.3146 -0.2860
  953MOL0     H28620   8.309   8.962   6.961 -1.2929 -0.0198  0.1633
  953MOL0     H28621   8.330   8.841   7.395  1.3593  0.7571 -0.8607
  953MOL0     H28622   8.296   8.679   7.349  2.1647 -2.0145 -0.0883
  953MOL0     H28623   8.525   8.648   7.254  0.5210  5.1396 -4.4822
  953MOL0     H28624   8.575   8.806   7.303 -0.5994 -0.6484 -1.4900
  953MOL0     H28625   8.646   8.608   7.461  0.0831  0.3725 -4.6695
  953MOL0     H28626   8.483   8.570   7.494  0.8660 -0.6977  2.9624
  953MOL0     H28627   8.556   8.851   7.546 -3.5983  0.6305 -0.1959
  953MOL0     H28628   8.421   8.772   7.604 -1.4055  0.0561 -6.3298
  953MOL0     H28629   8.708   8.678   7.681 -0.7531 -2.9678  1.0542
  953MOL0     H28630   8.576   8.650   7.780 -0.7912 -0.1447  0.0067
  953MOL0     H28631   8.661   8.949   7.743 -2.2167  0.7803 -0.6793
  953MOL0     H28632   8.547   8.873   7.842 -0.5420  0.5177 -0.2210
  953MOL0     H28633   8.830   8.947   7.898  3.0702 -0.9466 -4.3425
  953MOL0     H28634   8.837   8.776   7.860  1.1434  0.3912  0.0705
  953MOL0     H28635   8.673   8.723   8.048  1.7903 -1.3965  1.3332
  953MOL0     H28636   8.665   8.902   8.073 -0.0100  0.9711 -0.6980
  953MOL0     H28637   8.364   8.565   7.144 -3.3251 -1.6947  1.2269
  953MOL0     H28638   8.306   8.461   6.927 -1.9601 -0.5476  2.3119
  953MOL0     H28639   8.237   8.435   6.490 -0.6769 -1.3174  1.0121
  953MOL0     H28640   8.133   8.325   6.291 -0.1138  1.4786 -3.7570
  953MOL0     H28641   8.797   9.685   6.232  0.2302 -1.1812  1.9110
  953MOL0     H28642   8.943   9.866   6.321 -0.2364 -2.2017  1.7602
  953MOL0     H28643   9.359  10.088   6.348 -1.9016  2.1974  2.1413
  953MOL0     H28644   9.528  10.219   6.451  0.2996 -0.2341  0.7876
  953MOL0     H28645   9.621  10.190   6.835  0.2858  1.9127 -1.1603
  953MOL0     H28646   9.738  10.049   6.819  3.0804  0.6684  0.6475
  953MOL0     H28647   9.901  10.214   6.748  0.7334  1.1170  0.2279
  953MOL0     H28648   9.870  10.211   6.919  0.2447  0.3666 -1.2321
  953MOL0     H28649   9.693  10.409   6.790 -1.0744  2.7336  2.4963
  953MOL0     H28650   9.871  10.443   6.812  0.0215  1.0208  4.9112
  953MOL0     H28651   9.724  10.534   6.988  0.0345  0.1413  0.2534
  953MOL0     H28652   9.866  10.441   7.041 -0.6128 -1.1567  1.5270
  953MOL0     H28653   9.561  10.228   7.224  3.3356 -1.4207 -0.2955
  953MOL0     H28654   9.605   9.900   6.731  2.1678 -0.8076 -0.9978
  953MOL0     H28655   9.452   9.752   6.601 -2.9896  0.9211  2.2288
  954MOL0     O28656   8.436   7.168   5.666  0.5507  0.4866  0.7350
  954MOL0     C28657   8.412   7.275   5.715 -0.2513  0.1322  0.1733
  954MOL0     O28658   8.331   7.288   5.828  0.2251 -0.7525 -0.4303
  954MOL0     C28659   8.259   7.181   5.891 -1.0041 -0.3680  0.1863
  954MOL0     C28660   8.277   7.042   5.868  0.8317  0.7490  0.6680
  954MOL0     C28661   8.202   6.950   5.936 -0.2898 -0.2781 -0.1540
  954MOL0     C28662   8.108   6.985   6.031  0.9163  0.8003 -0.7388
  954MOL0     O28663   8.029   6.896   6.108  0.3282  0.5777 -0.5313
  954MOL0     C28664   8.057   6.755   6.108 -0.1786  0.6251  0.8379
  954MOL0     C28665   7.935   6.685   6.169  0.2943  0.0168  1.0188
  954MOL0     C28666   7.911   6.549   6.097 -0.2131  0.3746  1.0858
  954MOL0     C28667   7.796   6.463   6.142  0.4354  0.4285  0.6691
  954MOL0     C28668   7.825   6.379   6.273 -0.4575 -0.9219  0.9908
  954MOL0     C28669   7.699   6.334   6.342  0.3240  0.0764  0.2624
  954MOL0     C28670   7.728   6.267   6.474 -0.1624  0.1791 -0.0960
  954MOL0     C28671   7.668   6.330   6.593  0.2594  0.0535 -0.5826
  954MOL0     N28672   7.713   6.466   6.611 -0.5319  0.4393  0.0167
  954MOL0     C28673   7.645   6.581   6.591  0.6186 -0.2922  0.4117
  954MOL0     C28674   7.739   6.676   6.601 -0.9982 -1.0619  0.3232
  954MOL0     C28675   7.709   6.817   6.569 -0.1905  0.0711 -0.7046
  954MOL0     C28676   7.739   6.852   6.416 -0.3452 -0.6259  0.7408
  954MOL0     C28677   7.681   6.987   6.377 -0.9494  0.4068  0.6930
  954MOL0     C28678   7.728   7.029   6.234 -0.0699 -0.0019 -0.2297
  954MOL0     O28679   7.713   7.171   6.202  0.8488  0.2487 -0.5185
  954MOL0     C28680   7.598   7.228   6.177  0.8671 -0.1046 -0.3113
  954MOL0     C28681   7.491   7.155   6.130  0.0462  0.4683 -1.4929
  954MOL0     C28682   7.372   7.213   6.089  0.3012  0.3472 -1.1307
  954MOL0     C28683   7.269   7.129   6.033 -0.0605 -0.5266  0.1423
  954MOL0     C28684   7.365   7.349   6.098  0.4618 -0.9570  0.1519
  954MOL0     C28685   7.243   7.428   6.057  0.2144  0.2614 -0.6815
  954MOL0     O28686   7.261   7.562   6.056  0.3951  0.7092 -0.6077
  954MOL0     C28687   7.151   7.646   6.047  0.1226  0.1227 -0.2831
  954MOL0     C28688   7.076   7.657   5.925  0.0436 -0.9052  0.2723
  954MOL0     C28689   6.947   7.718   5.931  0.5526 -0.0840 -0.1330
  954MOL0     C28690   6.897   7.773   6.052 -0.4148 -0.3879 -0.7553
  954MOL0     O28691   6.776   7.827   6.062  0.4616 -0.0530  0.1001
  954MOL0     C28692   6.666   7.742   6.036 -0.1319 -0.0144 -0.1867
  954MOL0     C28693   6.534   7.814   6.007  0.1530 -0.1186  0.1221
  954MOL0     C28694   6.497   7.910   6.122 -0.8951  0.0721  0.1152
  954MOL0     C28695   6.362   7.995   6.083  0.0830 -0.6006 -0.4504
  954MOL0     C28696   6.343   8.102   6.186  0.0737 -0.6594 -0.4190
  954MOL0     C28697   6.200   8.164   6.187 -0.2670 -0.0024  0.1245
  954MOL0     C28698   6.200   8.307   6.247  0.0531  0.1810  0.3657
  954MOL0     C28699   6.059   8.361   6.261 -0.2525 -0.0243 -0.9525
  954MOL0    Cl28700   6.077   8.528   6.333 -0.1989  0.3918 -0.0700
  954MOL0     C28701   6.973   7.758   6.168 -0.1987  0.4344  0.2152
  954MOL0     C28702   7.097   7.691   6.165  0.4558  0.4677  0.1744
  954MOL0     O28703   7.131   7.379   6.066  0.3580  0.2153  1.1459
  954MOL0     C28704   7.477   7.422   6.138  0.0329 -0.2030  0.3025
  954MOL0     C28705   7.590   7.363   6.180 -0.4133 -0.4244 -0.1593
  954MOL0     N28706   7.862   6.627   6.630 -0.2102  0.7339  0.4969
  954MOL0     N28707   7.848   6.499   6.643  0.4589 -0.2544  0.3566
  954MOL0     C28708   8.084   7.130   6.050 -0.3058  0.4369  0.4957
  954MOL0     C28709   8.154   7.223   5.974 -0.2345 -0.8996  0.0533
  954MOL0     C28710   8.458   7.398   5.634  0.0464 -0.7961  0.1290
  954MOL0     C28711   8.512   7.381   5.503 -0.6190 -0.1198 -0.5029
  954MOL0     C28712   8.536   7.483   5.407 -0.5366 -0.6388  0.7746
  954MOL0     C28713   8.510   7.620   5.455  0.5959 -0.4847  0.7042
  954MOL0     O28714   8.522   7.741   5.376 -0.0948  0.5265 -0.3932
  954MOL0     C28715   8.560   7.732   5.241  0.2479 -0.0586  0.1315
  954MOL0     C28716   8.445   7.709   5.131  0.1309  0.0193 -0.1820
  954MOL0     C28717   8.330   7.820   5.131 -0.8907  0.3265 -0.9618
  954MOL0     C28718   8.370   7.962   5.140 -0.2723 -0.2539  0.2412
  954MOL0     C28719   8.261   8.057   5.095 -0.5427 -1.1316 -0.7047
  954MOL0     C28720   8.167   8.123   5.060  0.3399 -0.9717 -0.6220
  954MOL0     C28721   8.456   7.640   5.577 -0.0407 -0.1085 -0.2037
  954MOL0     C28722   8.444   7.528   5.664 -0.1174 -1.2330 -0.2610
  954MOL0     H28723   8.348   6.993   5.802 -2.0869 -1.5889 -0.9915
  954MOL0     H28724   8.209   6.852   5.890  1.1349  0.7456 -2.2543
  954MOL0     H28725   8.075   6.724   6.004  1.1538 -0.9681  1.4838
  954MOL0     H28726   8.142   6.718   6.166 -1.4362 -1.4680  1.4639
  954MOL0     H28727   7.958   6.672   6.276 -0.5075 -0.0392  1.1876
  954MOL0     H28728   7.850   6.751   6.153  1.1693  0.4350 -2.8078
  954MOL0     H28729   7.891   6.569   5.991  0.8285  1.9544  1.1511
  954MOL0     H28730   8.003   6.490   6.093 -0.0196  0.7180  0.2054
  954MOL0     H28731   7.724   6.541   6.169  1.6809  1.4660  1.1273
  954MOL0     H28732   7.756   6.393   6.067  2.5292 -3.8004  3.1014
  954MOL0     H28733   7.890   6.297   6.241  1.7067  1.4241 -1.0514
  954MOL0     H28734   7.882   6.440   6.344 -0.9449 -0.9834  1.4393
  954MOL0     H28735   7.628   6.418   6.349 -1.1267 -0.8666 -1.9739
  954MOL0     H28736   7.647   6.267   6.273  0.3110  1.8332 -1.5105
  954MOL0     H28737   7.708   6.161   6.453  3.4576 -0.5459 -0.4842
  954MOL0     H28738   7.836   6.268   6.492 -0.0377 -1.2440 -0.5903
  954MOL0     H28739   7.702   6.278   6.683  2.6517  1.2766 -0.6804
  954MOL0     H28740   7.560   6.330   6.577  0.4281 -2.0583 -2.1371
  954MOL0     H28741   7.542   6.592   6.558  1.0807 -1.7503 -1.7735
  954MOL0     H28742   7.600   6.812   6.584 -0.3655 -4.4285 -1.8597
  954MOL0     H28743   7.747   6.893   6.638 -0.8707  0.6576 -0.9646
  954MOL0     H28744   7.696   6.768   6.362 -0.4942 -1.8068  2.6198
  954MOL0     H28745   7.848   6.852   6.409 -0.1168  1.0312  2.8718
  954MOL0     H28746   7.718   7.063   6.446 -1.7793  1.9527 -0.4929
  954MOL0     H28747   7.572   6.985   6.386 -0.8055 -0.3374  2.9180
  954MOL0     H28748   7.694   6.963   6.153  1.1700  0.4345 -1.1346
  954MOL0     H28749   7.837   7.024   6.234  0.0092  1.1891 -0.6954
  954MOL0     H28750   7.501   7.047   6.129  0.8153  0.4991  0.2328
  954MOL0     H28751   7.293   7.041   5.972 -2.4548  0.0904 -1.8542
  954MOL0     H28752   7.202   7.096   6.112 -1.8818 -2.0221 -1.9055
  954MOL0     H28753   7.219   7.188   5.956  0.0038  2.1769  2.0129
  954MOL0     H28754   7.097   7.615   5.827 -2.5094  0.4048 -0.9396
  954MOL0     H28755   6.879   7.724   5.847 -2.6513 -0.1745  2.2706
  954MOL0     H28756   6.695   7.677   5.953  4.0466 -3.6321  3.5584
  954MOL0     H28757   6.651   7.674   6.120 -0.0700 -0.0455 -0.2003
  954MOL0     H28758   6.522   7.860   5.909  1.3207 -1.0814 -0.4949
  954MOL0     H28759   6.458   7.736   6.009 -1.7274  1.4231 -3.2544
  954MOL0     H28760   6.573   7.979   6.160 -0.2870 -1.2234  1.3036
  954MOL0     H28761   6.469   7.848   6.207 -2.9291 -1.0793 -1.3217
  954MOL0     H28762   6.367   8.035   5.982  0.5089 -3.7501 -1.7935
  954MOL0     H28763   6.278   7.925   6.090  1.0435 -1.6309  1.9497
  954MOL0     H28764   6.407   8.185   6.153 -1.7512  2.5428  3.2821
  954MOL0     H28765   6.377   8.074   6.286  1.0169  0.4647 -0.3949
  954MOL0     H28766   6.164   8.170   6.084  0.5576  1.4431 -0.1076
  954MOL0     H28767   6.134   8.104   6.250  1.2707 -0.7434  1.0849
  954MOL0     H28768   6.258   8.371   6.180  1.7382 -3.0779 -1.5290
  954MOL0     H28769   6.237   8.299   6.350 -1.4093  2.1339  1.1103
  954MOL0     H28770   6.004   8.285   6.318 -0.7210 -1.7088 -3.4966
  954MOL0     H28771   6.009   8.365   6.163  0.8575  0.9797 -1.4963
  954MOL0     H28772   6.941   7.800   6.263 -1.8957  0.8019 -0.4808
  954MOL0     H28773   7.142   7.680   6.263 -0.3972 -2.5963  0.3162
  954MOL0     H28774   7.465   7.530   6.151 -2.2111 -0.5000  1.1710
  954MOL0     H28775   7.666   7.424   6.227 -0.5168 -0.4587  0.0543
  954MOL0     H28776   7.999   7.157   6.112  1.9450 -0.2105  4.1429
  954MOL0     H28777   8.147   7.331   5.987  2.6754 -0.8975  2.9516
  954MOL0     H28778   8.521   7.283   5.456  3.5966  0.4271 -1.2407
  954MOL0     H28779   8.576   7.466   5.308 -0.0457  2.8754  0.2202
  954MOL0     H28780   8.619   7.816   5.203 -1.0575 -1.0944 -4.8780
  954MOL0     H28781   8.627   7.647   5.228  1.9431  1.3319 -0.5110
  954MOL0     H28782   8.393   7.620   5.169  0.3530  0.3037  0.8130
  954MOL0     H28783   8.488   7.683   5.034  2.3783 -1.9994  1.2520
  954MOL0     H28784   8.262   7.798   5.215 -0.2498 -1.9600 -0.9618
  954MOL0     H28785   8.270   7.813   5.040 -2.8836  2.9550  0.0352
  954MOL0     H28786   8.466   7.973   5.089  0.3654 -1.4815  1.1291
  954MOL0     H28787   8.368   7.986   5.247 -1.1655 -0.9370  0.3903
  954MOL0     H28788   8.095   8.194   5.024  3.3050  2.8441  0.3389
  954MOL0     H28789   8.443   7.738   5.621  1.2475 -0.1932  0.4412
  954MOL0     H28790   8.404   7.553   5.762  0.1330 -1.2825 -0.1443
  955MOL0     O28791   9.257   6.708   7.698  0.2241 -0.0345 -0.5700
  955MOL0     C28792   9.358   6.737   7.625  0.0458 -0.3730  0.9070
  955MOL0     O28793   9.460   6.816   7.657  0.3672  0.5238  0.2242
  955MOL0     C28794   9.453   6.878   7.776  0.3902 -0.2017 -0.8742
  955MOL0     C28795   9.393   7.005   7.784 -0.4482 -0.0737 -1.0149
  955MOL0     C28796   9.406   7.074   7.911  0.4080 -1.0242  0.2711
  955MOL0     C28797   9.469   7.001   8.017 -1.0071 -0.3769 -0.5978
  955MOL0     O28798   9.477   7.066   8.140 -0.0956  0.0907 -0.1425
  955MOL0     C28799   9.375   7.021   8.224  0.2147  0.2380 -0.0142
  955MOL0     C28800   9.451   6.981   8.354  0.2404  0.4351  0.9599
  955MOL0     C28801   9.355   6.942   8.463 -0.3039 -0.8729  0.6503
  955MOL0     C28802   9.428   6.918   8.598  0.1895 -0.6647  0.5416
  955MOL0     C28803   9.320   6.908   8.704  0.0956  0.5692  0.0178
  955MOL0     C28804   9.370   6.844   8.827 -0.1826 -0.5180  0.0860
  955MOL0     C28805   9.269   6.822   8.944 -0.2752 -0.3717 -0.1901
  955MOL0     C28806   9.327   6.817   9.088  0.1731 -0.3824  0.0599
  955MOL0     N28807   9.362   6.953   9.127 -0.0898  0.2858  0.0916
  955MOL0     C28808   9.281   7.053   9.162  0.2314  0.0555  0.3653
  955MOL0     C28809   9.359   7.164   9.176  0.2320  0.6592 -0.4395
  955MOL0     C28810   9.311   7.297   9.236 -0.3955  0.2340  0.6574
  955MOL0     C28811   9.286   7.272   9.384  0.4392  0.0038  0.3830
  955MOL0     C28812   9.240   7.386   9.466  0.5816  0.7822 -0.1743
  955MOL0     C28813   9.143   7.491   9.406  0.8111 -0.3893  0.4043
  955MOL0     O28814   9.141   7.601   9.504  0.4514  0.5918 -0.6392
  955MOL0     C28815   9.078   7.724   9.480 -0.4074  0.3964  1.2447
  955MOL0     C28816   9.127   7.831   9.556  0.4556 -0.6355  0.4596
  955MOL0     C28817   9.062   7.950   9.564 -0.4582  0.1649 -0.6874
  955MOL0     C28818   9.115   8.062   9.653  0.3266  1.0368  0.6641
  955MOL0     C28819   8.942   7.961   9.490 -0.5852  0.3178 -0.0105
  955MOL0     C28820   8.840   8.064   9.513 -0.6370 -0.8041  0.6730
  955MOL0     O28821   8.758   8.094   9.410 -0.0730 -0.1992 -1.0124
  955MOL0     C28822   8.655   8.185   9.415  0.1031 -1.1437 -0.2963
  955MOL0     C28823   8.626   8.260   9.295 -1.1647 -0.0344 -0.4093
  955MOL0     C28824   8.536   8.357   9.296  0.3731 -0.4271  0.0679
  955MOL0     C28825   8.461   8.381   9.403 -0.2214 -0.1768  0.0487
  955MOL0     O28826   8.356   8.467   9.414 -0.8376 -0.1761  0.0258
  955MOL0     C28827   8.340   8.565   9.313 -0.5191 -0.3685 -0.3145
  955MOL0     C28828   8.208   8.638   9.343 -0.4996  0.2376 -0.7501
  955MOL0     C28829   8.165   8.726   9.223  0.1705  0.5545  0.0508
  955MOL0     C28830   8.035   8.817   9.255 -0.7192  1.1203  0.0368
  955MOL0     C28831   8.009   8.904   9.133 -0.5377  0.0154 -0.0789
  955MOL0     C28832   7.902   8.836   9.042 -0.3052 -0.0736 -0.2159
  955MOL0     C28833   7.831   8.933   8.954 -0.4760  0.6287  0.1625
  955MOL0     C28834   7.947   9.015   8.881  0.1123 -0.8977  0.0244
  955MOL0    Cl28835   7.897   9.058   8.718 -0.1828 -0.1245  0.2354
  955MOL0     C28836   8.463   8.303   9.515 -0.1588  0.4909  0.0204
  955MOL0     C28837   8.566   8.207   9.524 -0.1233  0.0384 -0.9660
  955MOL0     O28838   8.836   8.125   9.623 -0.2686 -0.2040  0.0616
  955MOL0     C28839   8.899   7.856   9.401 -0.4934 -0.7479  0.1513
  955MOL0     C28840   8.966   7.739   9.394 -0.3843  1.1181  0.0614
  955MOL0     N28841   9.484   7.132   9.144 -0.6533 -0.5051 -0.2538
  955MOL0     N28842   9.492   7.008   9.110 -0.0323 -0.1207  0.1875
  955MOL0     C28843   9.527   6.880   8.000  0.2443  0.6819 -0.0902
  955MOL0     C28844   9.530   6.820   7.881  0.4098  0.5778  0.2375
  955MOL0     C28845   9.364   6.693   7.484  0.6877 -0.4978  0.0588
  955MOL0     C28846   9.485   6.694   7.418  0.2604 -0.3591  0.4373
  955MOL0     C28847   9.485   6.653   7.283  0.1007 -0.0485  0.7316
  955MOL0     C28848   9.359   6.615   7.220 -0.4590  0.2892  0.1017
  955MOL0     O28849   9.342   6.571   7.087  0.2396  0.3470 -0.3252
  955MOL0     C28850   9.452   6.583   7.003 -0.1818  0.0248  1.1873
  955MOL0     C28851   9.465   6.743   6.964  0.6100  0.5527 -0.1254
  955MOL0     C28852   9.592   6.753   6.879  0.3174  0.0554 -0.1310
  955MOL0     C28853   9.648   6.892   6.884 -0.5465 -0.3797  0.4452
  955MOL0     C28854   9.717   6.935   7.007 -0.4119  0.0304 -0.4064
  955MOL0     C28855   9.780   6.957   7.114  0.0138 -0.2254 -0.5237
  955MOL0     C28856   9.243   6.616   7.286 -0.2524 -0.9100  0.1685
  955MOL0     C28857   9.250   6.648   7.424 -0.2820  1.1393  0.3853
  955MOL0     H28858   9.335   7.044   7.702  2.2043  0.9736 -2.5274
  955MOL0     H28859   9.355   7.169   7.924 -1.7702 -1.6765 -2.4718
  955MOL0     H28860   9.299   7.096   8.249  0.6847  0.7185 -0.0294
  955MOL0     H28861   9.315   6.936   8.190  1.6128 -1.2479  1.0907
  955MOL0     H28862   9.520   6.903   8.322 -1.2392 -0.7858  0.6645
  955MOL0     H28863   9.502   7.071   8.392 -1.0316  0.1088  3.7303
  955MOL0     H28864   9.280   7.021   8.466 -1.3632 -1.7829 -0.4651
  955MOL0     H28865   9.292   6.859   8.428 -4.0229  1.9208  0.1492
  955MOL0     H28866   9.478   6.822   8.585  0.4783 -0.3479 -0.8026
  955MOL0     H28867   9.488   7.002   8.635 -0.9788  1.2077 -1.6246
  955MOL0     H28868   9.282   7.005   8.736 -1.7650  0.1076 -0.6887
  955MOL0     H28869   9.227   6.863   8.668 -0.8753  1.8316  0.8590
  955MOL0     H28870   9.404   6.745   8.796  1.4446  0.3725 -1.1231
  955MOL0     H28871   9.452   6.905   8.866  1.2763 -4.1335  3.3193
  955MOL0     H28872   9.205   6.910   8.944  1.3327  0.8619 -0.4717
  955MOL0     H28873   9.216   6.730   8.915 -0.9808 -0.1434  0.3599
  955MOL0     H28874   9.423   6.764   9.086 -0.1960 -1.1735  1.7192
  955MOL0     H28875   9.256   6.767   9.154 -1.0762 -4.3766 -3.7897
  955MOL0     H28876   9.174   7.059   9.180 -0.0614 -1.6910 -0.6574
  955MOL0     H28877   9.395   7.365   9.224  1.7104 -2.5268 -1.8934
  955MOL0     H28878   9.221   7.334   9.186 -0.8958  0.1469  1.4636
  955MOL0     H28879   9.382   7.237   9.424  1.3102  2.4467  0.5893
  955MOL0     H28880   9.217   7.188   9.396  2.0723 -1.5473 -0.6743
  955MOL0     H28881   9.324   7.445   9.504 -0.1655  1.1737  0.9411
  955MOL0     H28882   9.201   7.340   9.557  2.3162 -1.2324 -0.4068
  955MOL0     H28883   9.042   7.459   9.380  0.0127 -0.3531  3.0903
  955MOL0     H28884   9.182   7.528   9.311  0.3919 -1.8020 -0.3327
  955MOL0     H28885   9.218   7.815   9.613  0.1963  2.8405  2.0758
  955MOL0     H28886   9.223   8.083   9.651  0.9500 -1.8321  0.4373
  955MOL0     H28887   9.075   8.158   9.619 -2.7429  0.2603  1.7540
  955MOL0     H28888   9.083   8.046   9.756 -5.2018  2.4354 -0.5191
  955MOL0     H28889   8.680   8.234   9.205 -2.1301 -1.3617 -0.6360
  955MOL0     H28890   8.513   8.413   9.205  0.6383  0.7352  0.7014
  955MOL0     H28891   8.430   8.627   9.310 -0.4553 -0.3858  0.8208
  955MOL0     H28892   8.328   8.535   9.209 -2.9399  0.9839 -0.5021
  955MOL0     H28893   8.126   8.567   9.359 -2.1754  2.3164  0.4730
  955MOL0     H28894   8.206   8.706   9.429  0.1716  0.6910 -1.0824
  955MOL0     H28895   8.153   8.663   9.134 -1.2757  0.5155  0.2608
  955MOL0     H28896   8.244   8.800   9.206  0.1477  0.5383 -0.1251
  955MOL0     H28897   7.950   8.749   9.269  0.5846 -0.2990  1.4581
  955MOL0     H28898   8.041   8.879   9.345 -4.3400  0.7670  0.6839
  955MOL0     H28899   8.096   8.908   9.068  0.5432 -1.0640  1.2523
  955MOL0     H28900   7.974   9.004   9.162  1.8651  1.6698 -2.3300
  955MOL0     H28901   7.946   8.751   8.989 -2.3835  0.0901 -2.3546
  955MOL0     H28902   7.825   8.796   9.110 -2.7272  3.0949 -0.8735
  955MOL0     H28903   7.761   8.996   9.011 -0.0910 -1.4574  3.2019
  955MOL0     H28904   7.776   8.878   8.877  2.1190 -2.4574  0.3210
  955MOL0     H28905   8.037   8.958   8.855 -0.1769 -0.9729 -0.8164
  955MOL0     H28906   7.960   9.105   8.943 -3.5144  0.6216 -1.1932
  955MOL0     H28907   8.393   8.332   9.592 -1.0543  1.3860 -1.1033
  955MOL0     H28908   8.582   8.153   9.617  1.6684 -2.2909 -2.5109
  955MOL0     H28909   8.808   7.865   9.342 -1.4848  2.1100  1.9223
  955MOL0     H28910   8.953   7.656   9.325  2.7726 -0.0226  0.6397
  955MOL0     H28911   9.581   6.837   8.085 -1.1090  0.3309  0.6298
  955MOL0     H28912   9.570   6.720   7.869  0.0075  0.1761  1.9822
  955MOL0     H28913   9.578   6.729   7.462 -1.1893  1.5929  2.1621
  955MOL0     H28914   9.588   6.647   7.247  1.1951  0.4948  3.5260
  955MOL0     H28915   9.552   6.557   7.040 -0.3304 -0.5326  1.2106
  955MOL0     H28916   9.437   6.526   6.911  0.9209 -0.8893  1.5484
  955MOL0     H28917   9.471   6.799   7.058  1.6876 -0.4107  0.4051
  955MOL0     H28918   9.366   6.766   6.923  0.0484  0.8747  1.3222
  955MOL0     H28919   9.555   6.716   6.783 -4.4902  1.6638  0.7987
  955MOL0     H28920   9.672   6.687   6.911  0.6693  1.3694  1.9314
  955MOL0     H28921   9.566   6.961   6.863 -1.4703 -1.0367  1.7457
  955MOL0     H28922   9.722   6.899   6.804  2.1927 -0.6014  2.7985
  955MOL0     H28923   9.828   6.978   7.208 -1.4232  1.2951 -0.0965
  955MOL0     H28924   9.153   6.571   7.247  0.1254  0.1086 -2.0334
  955MOL0     H28925   9.166   6.647   7.492  1.7418  0.4569  3.0435
  956MOL0     O28926  10.987   8.387  11.492 -0.4637  0.1065 -0.4159
  956MOL0     C28927  11.067   8.303  11.447  0.9507 -0.1044 -0.1574
  956MOL0     O28928  11.121   8.316  11.327 -0.5135 -0.7230 -0.0441
  956MOL0     C28929  11.130   8.441  11.265 -1.0667  0.2577  1.7420
  956MOL0     C28930  11.176   8.425  11.135 -0.2452 -0.2957 -0.3558
  956MOL0     C28931  11.201   8.530  11.047  0.4607  0.5391 -0.4187
  956MOL0     C28932  11.179   8.665  11.086 -0.3859  0.6710 -0.9545
  956MOL0     O28933  11.226   8.776  11.020 -0.0902 -0.6073  0.1649
  956MOL0     C28934  11.259   8.766  10.878  0.1157 -0.1776 -0.5201
  956MOL0     C28935  11.317   8.892  10.821  1.1537  0.2308  0.1287
  956MOL0     C28936  11.291   8.893  10.670 -0.4714 -0.3649 -0.5069
  956MOL0     C28937  11.366   9.007  10.593  0.7498 -0.2342  0.0422
  956MOL0     C28938  11.358   8.985  10.443 -0.5175 -1.2448 -0.5772
  956MOL0     C28939  11.452   9.084  10.379  0.5373  0.1598  1.0398
  956MOL0     C28940  11.450   9.085  10.226  0.4137 -0.0293 -0.0756
  956MOL0     C28941  11.312   9.120  10.163 -0.2941  0.2742 -0.3258
  956MOL0     N28942  11.313   9.150  10.024  0.8056  0.2631 -0.0392
  956MOL0     C28943  11.314   9.278   9.981  0.1292 -0.4301  0.2478
  956MOL0     C28944  11.317   9.273   9.845  0.1630 -0.0409 -0.0013
  956MOL0     C28945  11.316   9.406   9.776  0.1582 -1.0523  0.4653
  956MOL0     C28946  11.165   9.457   9.781 -1.2016 -1.0215 -0.4358
  956MOL0     C28947  11.151   9.598   9.722 -0.7735  0.0912  0.3524
  956MOL0     C28948  10.998   9.634   9.709 -0.3108 -1.1690 -0.2463
  956MOL0     O28949  10.951   9.649   9.845 -0.1540 -0.2248 -0.4121
  956MOL0     C28950  10.843   9.738   9.869 -0.0399  0.6224 -0.1987
  956MOL0     C28951  10.742   9.760   9.770 -0.4797 -0.0973  0.0607
  956MOL0     C28952  10.655   9.864   9.793 -0.7348  0.9106 -0.4475
  956MOL0     C28953  10.553   9.892   9.694 -0.6983 -0.5344  0.9505
  956MOL0     C28954  10.668   9.941   9.914  0.3675 -0.4705  0.4228
  956MOL0     C28955  10.580  10.050   9.939 -0.7957  0.4420 -0.1400
  956MOL0     O28956  10.449  10.033   9.930  0.2058  0.2874 -1.0681
  956MOL0     C28957  10.356  10.133   9.904 -0.0501 -0.5214 -0.3529
  956MOL0     C28958  10.371  10.277   9.914  0.5960  0.4448  0.4950
  956MOL0     C28959  10.269  10.362   9.875  0.8243  0.0138  0.2682
  956MOL0     C28960  10.152  10.323   9.818 -0.0773 -0.0013 -0.0036
  956MOL0     O28961  10.064  10.414   9.771 -0.2445 -0.2405  0.9446
  956MOL0     C28962   9.969  10.389   9.668 -0.6992 -0.1924 -0.1484
  956MOL0     C28963   9.830  10.360   9.730  0.4312  0.4516 -0.1964
  956MOL0     C28964   9.730  10.324   9.620  0.3318  0.2541 -0.3768
  956MOL0     C28965   9.606  10.259   9.689 -0.0221  0.0072 -0.5535
  956MOL0     C28966   9.507  10.214   9.581 -0.1557 -0.9717  0.8646
  956MOL0     C28967   9.366  10.172   9.629  0.1640  0.9228  0.3225
  956MOL0     C28968   9.283  10.106   9.521 -0.3801  0.0780  0.3990
  956MOL0     C28969   9.155  10.062   9.572  0.1968 -0.2210  0.3692
  956MOL0    Cl28970   9.078   9.977   9.444  0.1734 -0.0974 -0.3007
  956MOL0     C28971  10.137  10.182   9.822  0.7877  0.6219 -0.1391
  956MOL0     C28972  10.237  10.095   9.856 -0.2405 -0.2778  0.0426
  956MOL0     O28973  10.632  10.159   9.963 -0.4383  0.1553  0.0117
  956MOL0     C28974  10.768   9.915  10.009  0.6297 -0.1629 -0.0924
  956MOL0     C28975  10.854   9.813   9.985 -0.6498 -0.1366 -0.8535
  956MOL0     N28976  11.317   9.138   9.797  0.0887 -0.4220 -0.7910
  956MOL0     N28977  11.322   9.064   9.910  0.7659 -0.1981 -0.0933
  956MOL0     C28978  11.136   8.690  11.216 -1.0993 -0.0156  0.4982
  956MOL0     C28979  11.111   8.578  11.301 -1.2238  1.0648 -0.6857
  956MOL0     C28980  11.103   8.185  11.529  0.5239 -0.4996  0.5234
  956MOL0     C28981  11.052   8.151  11.658  0.1161 -1.0551 -0.3597
  956MOL0     C28982  11.095   8.035  11.722  0.0297 -1.6766  0.0236
  956MOL0     C28983  11.187   7.949  11.664  1.1586  0.1776 -1.0345
  956MOL0     O28984  11.217   7.826  11.719 -0.2883 -0.2223 -0.5424
  956MOL0     C28985  11.213   7.818  11.858  0.2869  0.2360  0.8788
  956MOL0     C28986  11.291   7.701  11.906 -0.5967  0.6437  0.2681
  956MOL0     C28987  11.312   7.680  12.053  0.2766  0.9762 -0.1888
  956MOL0     C28988  11.189   7.630  12.128 -0.4898 -0.1244  0.4555
  956MOL0     C28989  11.234   7.583  12.263 -0.2160  0.3117  0.4823
  956MOL0     C28990  11.248   7.542  12.372  0.4283 -0.0699 -0.4576
  956MOL0     C28991  11.236   7.973  11.537  0.1300  0.1106  0.0370
  956MOL0     C28992  11.199   8.094  11.475  0.4025  0.5815 -0.4230
  956MOL0     H28993  11.198   8.331  11.084  3.1666  0.2562 -0.0767
  956MOL0     H28994  11.233   8.512  10.944  0.5374 -1.5041 -0.0819
  956MOL0     H28995  11.335   8.689  10.861  1.5431  1.2577 -0.9688
  956MOL0     H28996  11.166   8.741  10.826  0.4006 -0.0593 -1.0895
  956MOL0     H28997  11.275   8.979  10.871  1.3020 -1.2100  2.9400
  956MOL0     H28998  11.426   8.897  10.828  1.1115  0.2349  0.8375
  956MOL0     H28999  11.324   8.797  10.630 -1.4233 -0.0997 -2.0009
  956MOL0     H29000  11.183   8.910  10.659 -0.1575  2.2959 -0.2297
  956MOL0     H29001  11.328   9.107  10.616  1.8108  0.1090  0.3764
  956MOL0     H29002  11.468   9.008  10.631  0.4679  1.3293  0.8460
  956MOL0     H29003  11.390   8.887  10.408  3.7553 -0.0177 -0.6245
  956MOL0     H29004  11.255   9.013  10.417 -0.3960  0.7267  0.8025
  956MOL0     H29005  11.421   9.182  10.416 -1.2404  0.7195 -1.6411
  956MOL0     H29006  11.556   9.064  10.404  1.1351  2.7179  0.9259
  956MOL0     H29007  11.518   9.164  10.192  1.0115 -0.0742  0.9816
  956MOL0     H29008  11.492   8.997  10.176 -1.4739  1.5450 -5.1011
  956MOL0     H29009  11.267   9.202  10.219  1.8099 -0.1110  2.1108
  956MOL0     H29010  11.254   9.028  10.170  1.6860 -1.1522 -1.5658
  956MOL0     H29011  11.323   9.366  10.044  1.2116  0.2115 -0.7581
  956MOL0     H29012  11.389   9.468   9.829  0.7534  1.0330 -2.5989
  956MOL0     H29013  11.347   9.392   9.672  1.3913  2.4347  0.2392
  956MOL0     H29014  11.131   9.469   9.884  1.6411  3.2387  0.2325
  956MOL0     H29015  11.096   9.387   9.733 -0.6596 -1.7854 -0.1325
  956MOL0     H29016  11.198   9.605   9.623  2.5984 -2.2160  1.5856
  956MOL0     H29017  11.212   9.667   9.780  2.3796 -0.2553 -2.2210
  956MOL0     H29018  10.945   9.561   9.647 -1.6301 -0.0855 -0.4359
  956MOL0     H29019  10.999   9.731   9.659  0.5681  1.4498  4.2757
  956MOL0     H29020  10.720   9.701   9.681 -4.2748  2.3755 -0.8878
  956MOL0     H29021  10.457   9.845   9.719 -1.3480  1.0662  1.6236
  956MOL0     H29022  10.547  10.001   9.700  0.7790 -0.4437  1.2788
  956MOL0     H29023  10.588   9.867   9.594 -1.1141  0.2993  0.5913
  956MOL0     H29024  10.469  10.322   9.929  0.3327  1.2126  0.0263
  956MOL0     H29025  10.292  10.464   9.902 -0.0133 -0.3468  2.5951
  956MOL0     H29026   9.967  10.471   9.596 -2.4561  0.2175  0.3150
  956MOL0     H29027  10.007  10.301   9.614 -0.8718 -0.1226 -0.3866
  956MOL0     H29028   9.858  10.277   9.795  2.0051  1.0898 -0.0044
  956MOL0     H29029   9.807  10.450   9.788  2.4254  0.5394  0.5193
  956MOL0     H29030   9.782  10.255   9.552  2.8322 -1.6670  3.1103
  956MOL0     H29031   9.711  10.418   9.568 -3.1549  1.6754  3.0311
  956MOL0     H29032   9.649  10.179   9.749  1.6948 -1.8882 -4.0050
  956MOL0     H29033   9.552  10.330   9.753 -2.8626  0.9521 -3.6606
  956MOL0     H29034   9.547  10.137   9.515  2.1101 -0.7428  1.8879
  956MOL0     H29035   9.479  10.290   9.508  1.0250 -3.1608 -2.0579
  956MOL0     H29036   9.373  10.101   9.712 -1.7360 -0.7085 -0.7995
  956MOL0     H29037   9.309  10.258   9.667 -0.4657  0.0101  1.5267
  956MOL0     H29038   9.331  10.014   9.486 -2.9238 -1.7385  1.4327
  956MOL0     H29039   9.267  10.173   9.436 -0.4367  0.4673  0.7159
  956MOL0     H29040   9.081  10.135   9.606  1.0409 -0.2923  2.5557
  956MOL0     H29041   9.193   9.995   9.651  1.8240  0.7050  0.4256
  956MOL0     H29042  10.044  10.146   9.780  0.6329  0.7102  0.1225
  956MOL0     H29043  10.234   9.988   9.836 -0.1575 -0.1623 -0.6197
  956MOL0     H29044  10.758   9.981  10.095 -2.4170 -0.7878  0.1295
  956MOL0     H29045  10.941   9.797  10.048 -1.1757  0.3062  0.0068
  956MOL0     H29046  11.134   8.787  11.263 -0.4309 -0.3423  1.2189
  956MOL0     H29047  11.080   8.576  11.405  1.4675 -0.8516  0.1880
  956MOL0     H29048  10.975   8.206  11.713  1.1036 -2.9895  3.2214
  956MOL0     H29049  11.039   8.019  11.814 -2.2440  2.1771 -0.4586
  956MOL0     H29050  11.236   7.913  11.906  2.0545  0.0095  0.5616
  956MOL0     H29051  11.107   7.798  11.877  0.1605  0.7821  0.7645
  956MOL0     H29052  11.385   7.700  11.850 -1.5765 -0.3611 -1.4369
  956MOL0     H29053  11.244   7.615  11.859 -1.0602  1.2444 -0.3985
  956MOL0     H29054  11.343   7.774  12.099  2.2801  0.1464  0.2474
  956MOL0     H29055  11.395   7.611  12.069 -2.9689 -3.4383 -0.1429
  956MOL0     H29056  11.147   7.544  12.075  1.4927 -1.1780  0.4965
  956MOL0     H29057  11.122   7.716  12.140 -1.2216 -0.2788 -1.9978
  956MOL0     H29058  11.257   7.497  12.469 -1.8612 -1.5901 -0.8754
  956MOL0     H29059  11.313   7.911  11.492 -0.7875 -2.2392  1.5536
  956MOL0     H29060  11.253   8.135  11.390  0.7001  0.9600 -0.0569
  957MOL0     O29061   5.791   7.028   9.316  0.6345 -0.2179  1.0204
  957MOL0     C29062   5.907   7.055   9.334  0.0747  0.2577 -0.2263
  957MOL0     O29063   6.002   7.087   9.237 -0.5240  0.9720 -0.5075
  957MOL0     C29064   5.959   7.063   9.111  0.3146 -0.1990  0.0961
  957MOL0     C29065   5.948   6.927   9.083  0.2846  0.7324  0.7347
  957MOL0     C29066   5.920   6.880   8.942 -0.0705  0.0017 -0.9552
  957MOL0     C29067   5.874   6.972   8.846 -0.2386 -0.0116 -0.0607
  957MOL0     O29068   5.834   6.935   8.720  1.0028  0.4689 -0.2366
  957MOL0     C29069   5.732   6.833   8.714  0.0114 -0.3640  1.0156
  957MOL0     C29070   5.584   6.875   8.745  0.4659 -0.4819 -0.0485
  957MOL0     C29071   5.581   6.887   8.905 -0.5117 -0.5719  0.0379
  957MOL0     C29072   5.446   6.885   8.972  0.2300  0.5631 -0.3184
  957MOL0     C29073   5.465   6.958   9.117  0.8737  0.1943  0.2357
  957MOL0     C29074   5.372   6.911   9.220 -0.4196  0.4709  0.0313
  957MOL0     C29075   5.357   7.019   9.330  0.3819 -0.3330 -0.1900
  957MOL0     C29076   5.495   7.068   9.377  1.0216 -0.1141 -0.5761
  957MOL0     N29077   5.477   7.128   9.512 -1.2580  0.7975 -0.2392
  957MOL0     C29078   5.373   7.209   9.549  0.2914  0.5610 -0.2250
  957MOL0     C29079   5.402   7.233   9.678 -0.3041  0.0666 -0.0276
  957MOL0     C29080   5.305   7.284   9.773 -0.9799 -0.3644  0.5903
  957MOL0     C29081   5.314   7.441   9.782 -1.0087  0.0237 -0.1640
  957MOL0     C29082   5.201   7.487   9.879 -0.8526  0.2884  0.2615
  957MOL0     C29083   5.230   7.626   9.949  0.9988  0.1177  0.4801
  957MOL0     O29084   5.108   7.664  10.001  0.0718 -0.0356  0.1262
  957MOL0     C29085   5.082   7.790  10.048  0.5420  0.1434 -0.0289
  957MOL0     C29086   5.156   7.907  10.005 -0.0484  0.4078 -0.5719
  957MOL0     C29087   5.118   8.038  10.042 -0.7728 -0.4277 -0.0611
  957MOL0     C29088   5.235   8.139  10.028 -0.9744  0.3242 -0.1897
  957MOL0     C29089   5.006   8.059  10.124 -0.1393 -1.0111  0.4467
  957MOL0     C29090   4.955   8.189  10.181  0.2782 -1.0141  0.8106
  957MOL0     O29091   4.864   8.189  10.279  0.2066 -0.7480 -0.1887
  957MOL0     C29092   4.821   8.320  10.313  0.7371  0.6211 -0.0425
  957MOL0     C29093   4.888   8.406  10.394  0.5345 -0.6977 -0.2461
  957MOL0     C29094   4.833   8.532  10.442 -0.4085 -0.3766  0.7961
  957MOL0     C29095   4.713   8.577  10.371 -0.7436  0.3201 -0.5433
  957MOL0     O29096   4.652   8.694  10.378  0.3523  0.4416 -0.0331
  957MOL0     C29097   4.730   8.791  10.313  0.5462  0.3478 -0.1375
  957MOL0     C29098   4.645   8.917  10.315  0.1486 -0.5348 -0.7293
  957MOL0     C29099   4.723   9.052  10.307 -0.2155 -0.2454 -0.2031
  957MOL0     C29100   4.643   9.178  10.335 -0.2016  1.0949 -0.1834
  957MOL0     C29101   4.739   9.300  10.340 -0.3564  0.1675  0.9105
  957MOL0     C29102   4.655   9.431  10.342  0.3079  0.7825 -0.0405
  957MOL0     C29103   4.665   9.492  10.483  0.1504 -0.7906  0.7118
  957MOL0     C29104   4.567   9.610  10.499  0.4842  0.2495  0.2209
  957MOL0    Cl29105   4.536   9.659  10.673 -0.5873 -0.3566  0.5083
  957MOL0     C29106   4.649   8.495  10.281 -0.3051  1.1492  0.0458
  957MOL0     C29107   4.703   8.366  10.261  0.1840  0.2312  0.0150
  957MOL0     O29108   5.001   8.287  10.129 -0.1215  0.0711  0.4171
  957MOL0     C29109   4.919   7.950  10.146  0.1501 -0.0960  0.2589
  957MOL0     C29110   4.960   7.815  10.116 -0.1123  0.8762  0.5861
  957MOL0     N29111   5.526   7.176   9.712 -0.4207  0.0260  0.4636
  957MOL0     N29112   5.569   7.117   9.612 -0.4064  0.5003  0.0651
  957MOL0     C29113   5.884   7.115   8.890  1.1153 -0.3620  0.2283
  957MOL0     C29114   5.925   7.153   9.013 -0.2352  0.5400  0.3715
  957MOL0     C29115   5.959   7.052   9.477  1.2588 -0.3470 -1.3111
  957MOL0     C29116   5.874   7.031   9.592 -0.7410  0.8554 -0.4729
  957MOL0     C29117   5.932   7.044   9.726  0.1370 -0.0562  0.1500
  957MOL0     C29118   6.061   7.100   9.743  0.9842  0.4020 -1.0305
  957MOL0     O29119   6.122   7.118   9.868  0.6317 -0.3905  0.6611
  957MOL0     C29120   6.081   7.050   9.986  0.1696 -0.4843  0.9756
  957MOL0     C29121   6.187   7.015  10.089 -0.2568  0.0211 -0.9888
  957MOL0     C29122   6.269   6.881  10.064  0.2620 -0.0592 -1.0297
  957MOL0     C29123   6.309   6.855   9.921  0.9294  0.1537 -0.0858
  957MOL0     C29124   6.401   6.958   9.875 -0.5892  0.1659  0.9746
  957MOL0     C29125   6.484   7.024   9.815 -1.5352  0.4249 -0.6565
  957MOL0     C29126   6.136   7.135   9.632 -0.1898  0.4160  0.5000
  957MOL0     C29127   6.088   7.110   9.500  1.0050  0.4240  1.2402
  957MOL0     H29128   5.975   6.852   9.156 -2.2583 -0.1529  0.8666
  957MOL0     H29129   5.928   6.773   8.922  0.9546 -0.1908  0.3242
  957MOL0     H29130   5.734   6.810   8.607 -0.6659  1.1594  0.6532
  957MOL0     H29131   5.773   6.753   8.776  0.4539 -0.1155  1.0501
  957MOL0     H29132   5.565   6.970   8.694  0.5530  0.4145  1.5210
  957MOL0     H29133   5.521   6.796   8.704  0.3963  1.9205 -5.5455
  957MOL0     H29134   5.644   6.807   8.947  0.6797  1.0070  1.4187
  957MOL0     H29135   5.621   6.986   8.929  0.0560 -1.4266  2.9800
  957MOL0     H29136   5.368   6.940   8.919  0.8994  1.9870  0.1175
  957MOL0     H29137   5.424   6.778   8.964  2.9862  0.0681 -3.5377
  957MOL0     H29138   5.569   6.947   9.147  1.7351 -0.1517 -2.6227
  957MOL0     H29139   5.451   7.065   9.102 -0.4425 -0.1843 -1.5899
  957MOL0     H29140   5.278   6.872   9.178  1.5020 -2.6277 -1.7784
  957MOL0     H29141   5.416   6.817   9.255 -2.2919 -1.8598 -3.2977
  957MOL0     H29142   5.304   7.108   9.296  4.6498  2.1690 -0.9112
  957MOL0     H29143   5.307   6.966   9.412 -0.1451 -0.3070 -0.4914
  957MOL0     H29144   5.537   7.136   9.303  0.7017  0.7561  0.0176
  957MOL0     H29145   5.562   6.982   9.369  1.8977  0.6137 -1.2664
  957MOL0     H29146   5.283   7.242   9.498 -2.6137 -2.0803  2.7474
  957MOL0     H29147   5.211   7.246   9.732  0.4728 -1.1339 -2.2902
  957MOL0     H29148   5.327   7.245   9.873  0.7272  1.5215  1.0329
  957MOL0     H29149   5.304   7.479   9.680 -0.9411 -1.0500 -0.5816
  957MOL0     H29150   5.410   7.477   9.820 -1.0705  0.9502 -0.8409
  957MOL0     H29151   5.187   7.406   9.952 -2.3046 -0.7761 -1.1030
  957MOL0     H29152   5.110   7.491   9.818  0.6172 -0.4405 -2.1315
  957MOL0     H29153   5.274   7.691   9.873  3.1836 -2.1880 -0.3887
  957MOL0     H29154   5.298   7.598  10.030 -0.7825 -3.0323  1.0540
  957MOL0     H29155   5.238   7.887   9.936 -0.1871 -1.5591 -0.2247
  957MOL0     H29156   5.296   8.129   9.938  3.3735  0.9382  2.3958
  957MOL0     H29157   5.198   8.241  10.017  1.0227  0.9681 -1.3326
  957MOL0     H29158   5.297   8.123  10.117  0.7294 -0.6513 -1.5005
  957MOL0     H29159   4.986   8.371  10.425  0.5040 -1.2911 -0.7958
  957MOL0     H29160   4.885   8.600  10.508  1.0447 -0.9038  0.2415
  957MOL0     H29161   4.824   8.805  10.368 -0.1272 -2.5083  1.9441
  957MOL0     H29162   4.755   8.775  10.208 -1.0332 -0.1387 -0.4579
  957MOL0     H29163   4.558   8.916  10.248 -1.5038 -0.4600  1.2937
  957MOL0     H29164   4.596   8.921  10.413 -0.2309 -2.8585 -0.7710
  957MOL0     H29165   4.777   9.063  10.212  1.5997 -1.7074  0.6082
  957MOL0     H29166   4.803   9.052  10.381 -0.0957  2.6975 -0.2211
  957MOL0     H29167   4.573   9.182  10.251 -2.6879 -2.4648  1.4465
  957MOL0     H29168   4.579   9.171  10.424 -3.2595  0.0658 -2.3142
  957MOL0     H29169   4.809   9.287  10.256  0.0746 -2.5246  1.6111
  957MOL0     H29170   4.807   9.305  10.425  0.3965 -3.7081  0.7158
  957MOL0     H29171   4.698   9.500  10.268 -0.1482  0.6818 -0.4034
  957MOL0     H29172   4.551   9.411  10.316 -0.5895 -0.2555  3.7178
  957MOL0     H29173   4.761   9.539  10.506 -0.5629  0.4354  1.3054
  957MOL0     H29174   4.649   9.416  10.561 -0.4361 -0.6892  0.6982
  957MOL0     H29175   4.474   9.586  10.447  1.1935 -0.4594 -0.7771
  957MOL0     H29176   4.610   9.688  10.435 -0.4772 -0.5414 -1.4740
  957MOL0     H29177   4.557   8.520  10.230 -2.0974 -2.6229  1.0673
  957MOL0     H29178   4.643   8.299  10.201 -0.7433 -1.2317  2.4256
  957MOL0     H29179   4.820   7.972  10.185  0.7275  2.6199  0.3959
  957MOL0     H29180   4.901   7.724  10.124 -0.4297  0.7707 -2.1919
  957MOL0     H29181   5.855   7.192   8.820  1.3699 -1.4359 -1.1038
  957MOL0     H29182   5.927   7.258   9.040  0.6182 -0.1595  3.3978
  957MOL0     H29183   5.774   6.988   9.587 -1.4529  1.5724  3.8688
  957MOL0     H29184   5.878   7.005   9.811 -1.0723 -0.1264 -0.6201
  957MOL0     H29185   6.022   7.120  10.046  0.1816 -0.5051  1.0114
  957MOL0     H29186   6.023   6.960   9.962 -3.1420  1.8520 -0.5612
  957MOL0     H29187   6.147   6.974  10.182  1.7810 -2.6133 -1.1385
  957MOL0     H29188   6.253   7.100  10.111  0.1395 -0.7991  1.1788
  957MOL0     H29189   6.205   6.798  10.095 -0.6838 -0.5372 -4.0206
  957MOL0     H29190   6.352   6.880  10.136 -1.0214 -0.2938  0.4860
  957MOL0     H29191   6.228   6.849   9.847 -0.1358  1.8319  0.8812
  957MOL0     H29192   6.365   6.761   9.923  2.5730  0.9437 -2.7191
  957MOL0     H29193   6.564   7.069   9.760 -1.1174 -2.0674 -2.2931
  957MOL0     H29194   6.239   7.169   9.635 -0.7030  2.2114 -0.6792
  957MOL0     H29195   6.152   7.134   9.416 -0.1415 -3.8145 -1.1630
  958MOL0     O29196   2.904   5.989   2.808  0.1404  0.1864  0.1067
  958MOL0     C29197   2.866   6.090   2.747  0.5129 -0.7063 -0.8883
  958MOL0     O29198   2.762   6.167   2.775  0.3909  0.0049 -0.5440
  958MOL0     C29199   2.657   6.141   2.855  0.4156 -0.6810  0.1792
  958MOL0     C29200   2.681   6.143   2.996 -0.7345  0.2500  0.3638
  958MOL0     C29201   2.577   6.138   3.082  0.4232 -0.1823 -0.5431
  958MOL0     C29202   2.438   6.149   3.053  0.1316  0.1594 -0.0950
  958MOL0     O29203   2.325   6.144   3.140 -0.0194 -0.2804  0.6610
  958MOL0     C29204   2.345   6.205   3.269  0.5766  0.6569  0.2493
  958MOL0     C29205   2.369   6.086   3.363  0.3676  0.0412 -0.1535
  958MOL0     C29206   2.237   6.013   3.419  0.4654 -1.2268  0.9236
  958MOL0     C29207   2.273   5.879   3.479 -0.0073  0.4277 -0.2758
  958MOL0     C29208   2.139   5.816   3.518 -0.6710 -0.6337 -1.5854
  958MOL0     C29209   2.149   5.688   3.600  0.9547  0.1641 -0.1337
  958MOL0     C29210   2.209   5.571   3.512  0.0142  0.0955  0.1716
  958MOL0     C29211   2.195   5.437   3.586 -1.2902  0.3053 -0.4335
  958MOL0     N29212   2.273   5.423   3.707  0.4001  0.7140 -1.0162
  958MOL0     C29213   2.407   5.460   3.722  0.5013  0.4266  0.2211
  958MOL0     C29214   2.422   5.449   3.857 -0.6374  0.4637  0.9933
  958MOL0     C29215   2.540   5.467   3.950  0.0554 -0.0896  0.0570
  958MOL0     C29216   2.652   5.546   3.869  0.4508  0.2829 -0.6280
  958MOL0     C29217   2.612   5.689   3.872  0.3521 -1.1317 -0.6375
  958MOL0     C29218   2.689   5.791   3.779 -0.2591 -0.8948 -0.8590
  958MOL0     O29219   2.825   5.750   3.788 -0.1840 -0.5268 -0.4432
  958MOL0     C29220   2.907   5.797   3.889 -0.1697  0.6556  0.4158
  958MOL0     C29221   3.040   5.770   3.866  0.3868 -0.7290  0.1267
  958MOL0     C29222   3.139   5.811   3.961 -0.2681  0.5521  0.5190
  958MOL0     C29223   3.284   5.754   3.937  0.7313 -0.1255  0.1578
  958MOL0     C29224   3.100   5.872   4.076  1.1304  0.3784 -0.5837
  958MOL0     C29225   3.200   5.918   4.174 -0.3305 -0.4516 -0.3501
  958MOL0     O29226   3.159   5.953   4.301 -0.7704  0.3903  1.0755
  958MOL0     C29227   3.260   5.968   4.400  1.0455  1.1982  1.0102
  958MOL0     C29228   3.261   5.879   4.510 -0.9415  0.5622 -0.9528
  958MOL0     C29229   3.363   5.889   4.609  0.5231 -0.3527  0.7614
  958MOL0     C29230   3.460   5.990   4.594 -0.1897 -0.2358 -0.1743
  958MOL0     O29231   3.570   6.010   4.677 -0.0573 -0.9541  0.2453
  958MOL0     C29232   3.603   5.922   4.780  0.6563  0.1080 -0.1412
  958MOL0     C29233   3.724   5.966   4.852 -0.4955  0.0554 -0.2938
  958MOL0     C29234   3.801   5.845   4.894 -0.2323 -0.3441  0.7482
  958MOL0     C29235   3.890   5.871   5.006 -0.7488  0.9258 -0.4320
  958MOL0     C29236   4.021   5.944   4.967 -1.0573 -0.4226  0.3451
  958MOL0     C29237   4.156   5.905   5.038 -0.6393 -0.1304 -0.1864
  958MOL0     C29238   4.200   5.779   4.968  0.0156  0.0289 -0.4015
  958MOL0     C29239   4.338   5.737   5.008 -0.5284  0.4829 -0.3481
  958MOL0    Cl29240   4.457   5.874   4.999  0.5142  0.1447 -0.0103
  958MOL0     C29241   3.446   6.087   4.495  0.8276  0.7051 -0.9417
  958MOL0     C29242   3.355   6.072   4.390  0.8474 -0.5212 -0.4704
  958MOL0     O29243   3.317   5.930   4.140 -0.0640 -0.0317  1.3058
  958MOL0     C29244   2.965   5.901   4.094 -0.7912  0.5482 -0.5563
  958MOL0     C29245   2.866   5.863   4.004 -0.2692 -0.3898 -1.3372
  958MOL0     N29246   2.307   5.413   3.921 -0.4172  0.2123 -0.2791
  958MOL0     N29247   2.220   5.386   3.824 -0.7468 -0.1057  0.2683
  958MOL0     C29248   2.418   6.133   2.912 -0.2265  0.6393 -0.1332
  958MOL0     C29249   2.520   6.126   2.812  0.3391 -0.5469 -0.0874
  958MOL0     C29250   2.953   6.140   2.640 -0.3640 -0.0600 -0.2033
  958MOL0     C29251   2.927   6.257   2.571 -0.5634 -0.3731 -0.9319
  958MOL0     C29252   3.022   6.312   2.476 -0.0978  0.0706  0.1612
  958MOL0     C29253   3.145   6.248   2.453 -0.3622  0.4122 -0.1333
  958MOL0     O29254   3.241   6.275   2.359  0.2676  0.0395 -0.7969
  958MOL0     C29255   3.261   6.417   2.335 -0.1743  0.0219 -0.2475
  958MOL0     C29256   3.397   6.423   2.264  0.0342  0.3034 -0.6157
  958MOL0     C29257   3.414   6.559   2.196 -0.1075 -0.1165 -0.0664
  958MOL0     C29258   3.543   6.576   2.120  0.3385  0.1805 -0.8455
  958MOL0     C29259   3.655   6.597   2.207 -0.2692 -0.2506  0.0210
  958MOL0     C29260   3.756   6.624   2.280  1.1943 -0.6721 -0.5365
  958MOL0     C29261   3.164   6.134   2.521 -0.0099  0.3436 -0.2375
  958MOL0     C29262   3.074   6.074   2.608 -0.5019  0.0772  0.5239
  958MOL0     H29263   2.781   6.132   3.036  0.7795 -1.3192 -3.3881
  958MOL0     H29264   2.602   6.115   3.185 -2.4222  1.3125  0.6006
  958MOL0     H29265   2.416   6.289   3.267 -1.1031  2.2965  2.9551
  958MOL0     H29266   2.249   6.252   3.290 -0.2693 -0.1086 -1.6686
  958MOL0     H29267   2.422   6.012   3.302 -0.1586  1.5743 -2.5885
  958MOL0     H29268   2.437   6.124   3.440  1.6715  3.0306 -2.5632
  958MOL0     H29269   2.174   6.074   3.484  0.3854  0.1836 -0.4288
  958MOL0     H29270   2.161   5.995   3.343  0.0839  1.1579  0.6771
  958MOL0     H29271   2.321   5.827   3.396  2.2748 -0.9949  1.7957
  958MOL0     H29272   2.333   5.873   3.570  0.5586 -1.7930 -0.7312
  958MOL0     H29273   2.084   5.883   3.584 -2.3067 -1.6327 -1.9002
  958MOL0     H29274   2.072   5.802   3.433 -0.9404 -3.4956 -0.9912
  958MOL0     H29275   2.207   5.694   3.693  1.6940 -0.0745 -0.5752
  958MOL0     H29276   2.050   5.658   3.637  0.5878  1.5301  0.0349
  958MOL0     H29277   2.169   5.561   3.410 -0.7810  0.6684  0.4181
  958MOL0     H29278   2.314   5.597   3.492  0.0880  0.3725  0.8794
  958MOL0     H29279   2.232   5.359   3.518 -2.4683 -1.7755  1.1702
  958MOL0     H29280   2.092   5.411   3.616 -1.2453 -0.3273 -0.7999
  958MOL0     H29281   2.476   5.485   3.642 -1.5559  3.4583 -0.7783
  958MOL0     H29282   2.506   5.519   4.040 -0.5254 -0.1778 -0.1074
  958MOL0     H29283   2.577   5.367   3.973  0.1286 -0.4819 -1.6017
  958MOL0     H29284   2.663   5.516   3.764 -2.6805  2.0880 -1.6294
  958MOL0     H29285   2.747   5.538   3.921 -0.6366  0.1135  1.4646
  958MOL0     H29286   2.624   5.721   3.976  2.1515 -2.3885 -0.4003
  958MOL0     H29287   2.505   5.709   3.862  0.4960  3.0803  3.0423
  958MOL0     H29288   2.670   5.893   3.816 -2.5143 -1.9974  1.3801
  958MOL0     H29289   2.651   5.778   3.678 -2.9870  2.4637 -0.4645
  958MOL0     H29290   3.074   5.705   3.785  4.7680 -1.2415  2.0686
  958MOL0     H29291   3.353   5.836   3.914  1.3379 -0.3243  1.1881
  958MOL0     H29292   3.325   5.702   4.024 -0.7575  0.9204  1.5374
  958MOL0     H29293   3.293   5.684   3.853 -0.3352  3.0633 -2.8546
  958MOL0     H29294   3.199   5.790   4.511  1.2810 -1.1366 -3.1430
  958MOL0     H29295   3.364   5.804   4.676 -0.9614 -2.2077 -1.4158
  958MOL0     H29296   3.522   5.924   4.854  0.8781 -0.2961  0.1188
  958MOL0     H29297   3.616   5.823   4.735  1.7649  1.2657 -2.5669
  958MOL0     H29298   3.790   6.030   4.793  2.3121 -0.2795  2.2905
  958MOL0     H29299   3.683   6.034   4.927  2.1029  0.2156  1.0743
  958MOL0     H29300   3.867   5.802   4.819 -0.0166 -0.6601  1.1182
  958MOL0     H29301   3.733   5.767   4.930 -1.3794  0.5660  0.6386
  958MOL0     H29302   3.847   5.921   5.093 -1.0259 -3.4531  2.2263
  958MOL0     H29303   3.929   5.774   5.035  1.2290  1.5709 -0.7607
  958MOL0     H29304   4.003   6.047   5.000  2.4122 -0.3820  2.6949
  958MOL0     H29305   4.027   5.958   4.859 -3.6900  1.8224  0.3636
  958MOL0     H29306   4.234   5.980   5.026  0.2446 -0.8338  1.0358
  958MOL0     H29307   4.141   5.882   5.144 -2.5401  0.4738 -0.2799
  958MOL0     H29308   4.194   5.800   4.861  2.0523 -0.1582 -0.5862
  958MOL0     H29309   4.123   5.704   4.991 -1.9288  1.8939 -0.4950
  958MOL0     H29310   4.390   5.666   4.943  0.1468 -0.3263  1.0422
  958MOL0     H29311   4.331   5.689   5.106  3.9806  0.4447  0.1604
  958MOL0     H29312   3.525   6.161   4.503  0.0005  1.4006  3.5097
  958MOL0     H29313   3.359   6.135   4.302  1.6023 -0.9733 -0.7634
  958MOL0     H29314   2.952   5.976   4.172  0.9057  2.2686 -1.8309
  958MOL0     H29315   2.764   5.898   4.015 -1.1937 -2.1087 -3.4796
  958MOL0     H29316   2.315   6.143   2.878 -0.5996 -2.1995 -0.0747
  958MOL0     H29317   2.496   6.118   2.707  1.0067  1.6228 -0.4425
  958MOL0     H29318   2.843   6.317   2.604  1.0604  1.0552  0.8395
  958MOL0     H29319   2.992   6.404   2.426  0.9265 -0.7324 -2.0320
  958MOL0     H29320   3.181   6.457   2.271  0.2059 -1.7105 -1.9016
  958MOL0     H29321   3.262   6.475   2.427  1.4918 -0.4532  0.0617
  958MOL0     H29322   3.415   6.350   2.185  0.5335  1.0981 -1.2487
  958MOL0     H29323   3.474   6.400   2.338  3.7164 -1.1609 -4.5369
  958MOL0     H29324   3.415   6.647   2.262  0.6014  1.4929 -2.1211
  958MOL0     H29325   3.334   6.571   2.122 -3.2334 -0.0190  3.0461
  958MOL0     H29326   3.543   6.655   2.044  1.9530  0.7888 -0.2658
  958MOL0     H29327   3.561   6.479   2.072  1.7393 -1.0432  1.9309
  958MOL0     H29328   3.831   6.648   2.353  0.3094  0.3731  0.0674
  958MOL0     H29329   3.254   6.074   2.511  1.8354  3.2609 -2.6939
  958MOL0     H29330   3.093   5.980   2.658  1.5723  0.0532 -0.2352
  959MOL0     O29331  10.817   8.893   2.955  0.2698  0.0560 -0.2217
  959MOL0     C29332  10.787   8.784   3.007 -0.1248  0.6369  0.2278
  959MOL0     O29333  10.876   8.719   3.098  0.4130 -0.1148  0.9117
  959MOL0     C29334  11.010   8.758   3.112  0.0357 -0.1791 -0.3393
  959MOL0     C29335  11.063   8.751   3.239 -0.2968 -0.3064  0.0700
  959MOL0     C29336  11.202   8.784   3.246  0.6597 -0.3646  0.4108
  959MOL0     C29337  11.279   8.816   3.136  0.1185 -0.0227 -0.9896
  959MOL0     O29338  11.416   8.833   3.153 -0.8486  0.9905 -0.4803
  959MOL0     C29339  11.455   8.925   3.247 -0.0228 -1.1593 -0.1515
  959MOL0     C29340  11.606   8.936   3.245 -0.1722  0.1043 -0.0662
  959MOL0     C29341  11.667   8.965   3.102 -0.2985 -0.7498 -0.6352
  959MOL0     C29342  11.730   8.840   3.044 -0.5068 -0.3049 -0.1119
  959MOL0     C29343  11.759   8.852   2.898  0.2651 -0.6219 -0.1329
  959MOL0     C29344  11.821   8.716   2.840  0.3955 -0.1872  1.2241
  959MOL0     C29345  11.916   8.756   2.716 -0.5165  0.0060 -0.1100
  959MOL0     C29346  12.022   8.648   2.703  0.7732  0.0909 -0.2120
  959MOL0     N29347  12.103   8.660   2.583 -0.2818 -1.0864  0.2509
  959MOL0     C29348  12.076   8.598   2.461  0.5848 -0.3457 -1.7424
  959MOL0     C29349  12.177   8.633   2.379 -0.1650 -0.1336 -0.4340
  959MOL0     C29350  12.206   8.584   2.244 -0.4686 -0.0995  0.7184
  959MOL0     C29351  12.271   8.441   2.240  0.2031  0.6110  0.9389
  959MOL0     C29352  12.292   8.394   2.090 -0.4138 -0.5803 -0.5110
  959MOL0     C29353  12.170   8.348   2.015 -0.2185 -0.2912 -0.7489
  959MOL0     O29354  12.109   8.240   2.080  0.1251  0.3365  0.4885
  959MOL0     C29355  11.978   8.223   2.044  0.7959 -0.1650  0.4495
  959MOL0     C29356  11.881   8.225   2.145 -0.2828  0.7651 -0.5879
  959MOL0     C29357  11.748   8.185   2.123 -0.7497 -0.6224  0.0394
  959MOL0     C29358  11.660   8.177   2.241  0.0291  0.8282 -0.6115
  959MOL0     C29359  11.708   8.138   1.999 -0.1904  0.4541  0.5785
  959MOL0     C29360  11.571   8.090   1.968  0.2002 -0.6659  0.5944
  959MOL0     O29361  11.518   8.134   1.849  0.4445  0.1283 -0.6266
  959MOL0     C29362  11.394   8.113   1.800 -0.3165  0.0361 -0.5453
  959MOL0     C29363  11.307   8.008   1.840  0.7176 -0.0721 -1.0728
  959MOL0     C29364  11.186   7.998   1.759 -0.8504 -0.1213 -0.0966
  959MOL0     C29365  11.165   8.091   1.653  0.3764  0.0406  0.3731
  959MOL0     O29366  11.054   8.084   1.566 -0.3964 -0.5334  0.1788
  959MOL0     C29367  10.969   7.965   1.564  0.3897 -0.3871  0.0218
  959MOL0     C29368  10.930   7.926   1.421 -1.5775  1.3040  0.4964
  959MOL0     C29369  11.035   7.863   1.332  0.1971  0.1328 -0.8484
  959MOL0     C29370  10.978   7.806   1.195 -0.5935  0.8666 -0.7421
  959MOL0     C29371  10.970   7.905   1.079 -0.5285  0.3247 -0.6951
  959MOL0     C29372  10.940   7.830   0.943 -0.6645 -0.2970  1.2277
  959MOL0     C29373  10.920   7.926   0.820 -0.0218 -0.4241  0.1480
  959MOL0     C29374  11.056   7.966   0.759  0.5014  1.3204 -0.7248
  959MOL0    Cl29375  11.040   7.977   0.587  0.0412  0.7153  0.6648
  959MOL0     C29376  11.252   8.196   1.621  0.8685  0.9279 -0.9754
  959MOL0     C29377  11.363   8.206   1.700  0.1632  0.2562 -0.0068
  959MOL0     O29378  11.506   8.021   2.048  0.0459  0.1497 -1.0145
  959MOL0     C29379  11.809   8.123   1.900  0.5226  0.3081  1.2771
  959MOL0     C29380  11.943   8.161   1.926  0.0274  0.6115  0.9866
  959MOL0     N29381  12.258   8.719   2.454  1.1038  0.4285  0.0824
  959MOL0     N29382  12.215   8.737   2.577  1.2781  1.0147  0.5254
  959MOL0     C29383  11.221   8.816   3.012  0.4951  0.1655  0.6496
  959MOL0     C29384  11.090   8.781   2.995 -0.3892  0.0955  0.2039
  959MOL0     C29385  10.662   8.712   2.963 -0.6971 -0.5696  0.2141
  959MOL0     C29386  10.595   8.625   3.052 -0.2716  0.3291  0.6297
  959MOL0     C29387  10.492   8.542   3.003  0.7592 -0.1028  0.5022
  959MOL0     C29388  10.456   8.546   2.873  0.3242  0.2128  0.7557
  959MOL0     O29389  10.337   8.473   2.834 -0.6678  0.0031  0.4461
  959MOL0     C29390  10.307   8.475   2.695 -0.0486  0.8278 -0.2121
  959MOL0     C29391  10.185   8.385   2.685 -0.2367  0.1227  0.9607
  959MOL0     C29392  10.184   8.247   2.749  0.4009 -0.1646  1.0357
  959MOL0     C29393  10.289   8.142   2.699  1.0520 -0.6974  0.7939
  959MOL0     C29394  10.425   8.181   2.741  0.7238  0.2607  0.6768
  959MOL0     C29395  10.542   8.201   2.767 -0.4918 -0.1495  0.0316
  959MOL0     C29396  10.511   8.639   2.779  0.2935 -0.0751 -0.5316
  959MOL0     C29397  10.625   8.712   2.826  0.6250 -0.2340  1.1113
  959MOL0     H29398  10.990   8.735   3.318 -1.2616 -0.4351 -0.8290
  959MOL0     H29399  11.253   8.767   3.340  0.8413  0.7376  0.5237
  959MOL0     H29400  11.420   9.023   3.214  0.2574 -2.0250 -3.3027
  959MOL0     H29401  11.416   8.910   3.349  0.3743  0.1529  0.2149
  959MOL0     H29402  11.629   9.012   3.321  0.5304 -3.7047  3.9994
  959MOL0     H29403  11.655   8.853   3.297 -0.5065  1.1155  1.9959
  959MOL0     H29404  11.598   9.010   3.030  3.7979  0.8594 -4.0504
  959MOL0     H29405  11.752   9.033   3.107  2.1838 -3.7164  2.1340
  959MOL0     H29406  11.823   8.814   3.097 -0.4279  2.2176  1.1199
  959MOL0     H29407  11.656   8.759   3.046  0.2527 -1.0372  2.0327
  959MOL0     H29408  11.663   8.856   2.845  1.1057 -2.7082 -1.9618
  959MOL0     H29409  11.814   8.942   2.869  0.1690 -1.5552 -3.7471
  959MOL0     H29410  11.878   8.676   2.924 -0.9608  0.7959  2.6736
  959MOL0     H29411  11.747   8.650   2.793  2.1516 -0.3927 -1.4922
  959MOL0     H29412  11.860   8.764   2.622  0.1043  0.5397 -0.4500
  959MOL0     H29413  11.976   8.846   2.732  3.6747 -1.8061 -3.3639
  959MOL0     H29414  11.972   8.551   2.713 -2.1477  1.2950 -1.6618
  959MOL0     H29415  12.088   8.671   2.786  1.4162  2.2052 -1.2452
  959MOL0     H29416  11.999   8.523   2.451 -0.6798  0.2735  1.8566
  959MOL0     H29417  12.120   8.569   2.179  1.3573 -1.2166 -1.5754
  959MOL0     H29418  12.281   8.648   2.196 -1.7741  0.2711 -0.9439
  959MOL0     H29419  12.223   8.362   2.298  2.4961 -0.9625  0.8389
  959MOL0     H29420  12.370   8.462   2.283  0.3831  0.3012  0.6731
  959MOL0     H29421  12.376   8.326   2.081 -0.2260 -0.2488 -1.3873
  959MOL0     H29422  12.322   8.475   2.022  0.2897 -1.2223 -0.9771
  959MOL0     H29423  12.193   8.302   1.918 -1.1616  0.5672 -1.3981
  959MOL0     H29424  12.098   8.428   1.995 -2.0805 -1.9391 -1.0197
  959MOL0     H29425  11.914   8.258   2.243  0.8212 -3.0780  0.4968
  959MOL0     H29426  11.570   8.238   2.230 -0.7608  0.1220  1.3758
  959MOL0     H29427  11.627   8.075   2.263 -0.6189  1.5329  2.1300
  959MOL0     H29428  11.727   8.209   2.322  0.4593 -0.1551 -0.5655
  959MOL0     H29429  11.326   7.940   1.922  4.3037  0.3085 -1.4424
  959MOL0     H29430  11.123   7.913   1.780  3.1748 -3.1184  1.0987
  959MOL0     H29431  11.031   7.881   1.598  3.9202  1.0534 -2.3030
  959MOL0     H29432  10.871   7.968   1.612 -0.0830 -2.3823 -0.7095
  959MOL0     H29433  10.850   7.851   1.429  0.8858 -1.2411  3.4351
  959MOL0     H29434  10.906   8.018   1.366 -1.3303 -1.1821 -4.2532
  959MOL0     H29435  11.071   7.782   1.397  0.4497 -1.2650 -2.6362
  959MOL0     H29436  11.119   7.933   1.321 -1.3980  2.1536 -0.6591
  959MOL0     H29437  11.044   7.722   1.171 -0.8517  0.4927 -0.1657
  959MOL0     H29438  10.881   7.759   1.211 -1.9818  4.2167  1.8546
  959MOL0     H29439  11.070   7.947   1.073  0.0011 -0.3126  2.2461
  959MOL0     H29440  10.899   7.984   1.106 -1.7508 -1.5116  1.8747
  959MOL0     H29441  11.000   7.741   0.926 -1.4909 -0.9783  1.8125
  959MOL0     H29442  10.840   7.785   0.944 -1.6950  1.4412 -2.5743
  959MOL0     H29443  10.868   8.005   0.875 -0.1935 -0.9503  0.7564
  959MOL0     H29444  10.865   7.880   0.737  3.2711 -1.6510 -1.5080
  959MOL0     H29445  11.119   7.879   0.779 -4.1122 -2.1614  0.2785
  959MOL0     H29446  11.090   8.056   0.813 -0.5102 -0.4656  3.2321
  959MOL0     H29447  11.224   8.253   1.532 -0.4812  1.3371 -0.3066
  959MOL0     H29448  11.430   8.287   1.674 -1.0234  1.4659  0.5971
  959MOL0     H29449  11.788   8.106   1.795 -2.8383  1.4757  1.6594
  959MOL0     H29450  12.004   8.160   1.837 -1.9582  0.1352 -0.4361
  959MOL0     H29451  11.289   8.840   2.930 -0.3335 -1.4825 -0.5914
  959MOL0     H29452  11.055   8.775   2.892 -3.7178 -2.3729  1.3021
  959MOL0     H29453  10.625   8.614   3.156  2.8046  0.7514 -0.1267
  959MOL0     H29454  10.445   8.466   3.065 -2.3511  0.4397 -1.0025
  959MOL0     H29455  10.291   8.578   2.665  0.2329  1.6750  2.3122
  959MOL0     H29456  10.385   8.436   2.629 -0.2186  0.2974 -0.1122
  959MOL0     H29457  10.159   8.373   2.579 -0.2321 -1.1617  1.0874
  959MOL0     H29458  10.100   8.436   2.731 -1.4087  2.5139 -3.2763
  959MOL0     H29459  10.083   8.208   2.735  1.1435 -1.2092 -2.5266
  959MOL0     H29460  10.215   8.258   2.853  0.3862 -2.3229  1.3088
  959MOL0     H29461  10.275   8.127   2.592  0.8260  1.7568  0.4168
  959MOL0     H29462  10.258   8.050   2.748 -4.8358 -0.7930 -2.2609
  959MOL0     H29463  10.643   8.237   2.777 -1.1247  1.9286 -0.6540
  959MOL0     H29464  10.478   8.659   2.678  0.4612 -1.6178 -0.9111
  959MOL0     H29465  10.675   8.785   2.763 -1.1176 -0.9479 -1.2486
  960MOL0     O29466   8.816   2.531   9.706 -0.9808 -0.9692 -0.1576
  960MOL0     C29467   8.889   2.555   9.808 -0.5319 -0.1202  0.0230
  960MOL0     O29468   9.030   2.545   9.818 -0.9160  0.5254  0.3676
  960MOL0     C29469   9.115   2.555   9.710  0.5520 -0.5283 -0.5609
  960MOL0     C29470   9.085   2.629   9.592 -0.8961  0.3378 -0.5920
  960MOL0     C29471   9.195   2.653   9.502  0.2873  0.9519  0.7383
  960MOL0     C29472   9.323   2.604   9.523 -0.2297  0.3701  0.5634
  960MOL0     O29473   9.414   2.656   9.433 -0.2891  0.1807  0.1452
  960MOL0     C29474   9.546   2.596   9.431  0.0740 -0.1497  0.1616
  960MOL0     C29475   9.539   2.455   9.369 -0.5969 -0.0295  0.3988
  960MOL0     C29476   9.676   2.412   9.312 -1.1701  0.5537 -0.5028
  960MOL0     C29477   9.669   2.261   9.270 -0.1932 -0.4006 -0.2902
  960MOL0     C29478   9.547   2.217   9.182  0.1888  0.8136 -0.2912
  960MOL0     C29479   9.552   2.062   9.143 -0.1198 -0.0316 -0.1297
  960MOL0     C29480   9.516   2.067   8.994  0.7752  0.5928 -0.0147
  960MOL0     C29481   9.536   1.922   8.938  0.2035 -0.3212  0.2640
  960MOL0     N29482   9.469   1.918   8.799 -0.4343  0.1988 -0.7676
  960MOL0     C29483   9.530   1.936   8.681 -0.4887  0.0634 -0.6536
  960MOL0     C29484   9.430   1.893   8.591 -0.4771 -0.1248  0.5118
  960MOL0     C29485   9.468   1.871   8.445 -0.1168 -0.4509  0.8006
  960MOL0     C29486   9.552   1.995   8.386  0.4958 -0.0733 -0.1547
  960MOL0     C29487   9.582   1.996   8.238 -0.1930  0.4153 -0.9627
  960MOL0     C29488   9.663   1.871   8.187  0.0066 -0.2332 -0.4186
  960MOL0     O29489   9.794   1.865   8.249  0.3011  0.2089 -0.1080
  960MOL0     C29490   9.873   1.757   8.233  0.3590 -1.2821  0.4841
  960MOL0     C29491   9.959   1.723   8.336  0.4035  0.2802 -0.5273
  960MOL0     C29492  10.031   1.599   8.326  0.8824  0.3328 -0.4952
  960MOL0     C29493  10.127   1.569   8.434  0.5847  0.1892  0.5303
  960MOL0     C29494  10.005   1.506   8.216  0.2302 -1.9235 -0.7152
  960MOL0     C29495  10.046   1.369   8.216  0.0544  0.6864  0.0911
  960MOL0     O29496  10.091   1.329   8.099  0.1341  0.1435  0.1626
  960MOL0     C29497  10.128   1.192   8.099  0.2120 -0.3902  0.8384
  960MOL0     C29498  10.041   1.088   8.056 -0.0862 -0.6553  0.7184
  960MOL0     C29499  10.089   0.950   8.072  0.7863 -0.3393 -0.2095
  960MOL0     C29500  10.219   0.917   8.123  0.2879  0.5943 -0.3764
  960MOL0     O29501  10.254   0.795   8.162  0.2867 -0.0231  0.1616
  960MOL0     C29502  10.156   0.743   8.263  0.7868 -1.3246 -0.0475
  960MOL0     C29503  10.215   0.624   8.334  0.0007 -1.1041 -0.4240
  960MOL0     C29504  10.330   0.653   8.428  0.9550  0.5338 -0.2962
  960MOL0     C29505  10.275   0.698   8.565  0.2522 -0.0836 -0.2559
  960MOL0     C29506  10.379   0.759   8.665 -0.0028  0.9613 -0.3933
  960MOL0     C29507  10.423   0.893   8.614  0.0008 -0.2294  1.2831
  960MOL0     C29508  10.522   0.953   8.715  0.7668 -0.3363  0.6138
  960MOL0     C29509  10.520   1.098   8.699  0.2060  0.5398  0.6668
  960MOL0    Cl29510  10.623   1.170   8.575  0.0814  0.1713 -0.0377
  960MOL0     C29511  10.304   1.026   8.152  0.2838 -0.4443  0.5567
  960MOL0     C29512  10.252   1.165   8.147  0.7462 -0.0386 -0.2241
  960MOL0     O29513  10.024   1.303   8.314 -0.0132  0.4865 -0.1322
  960MOL0     C29514   9.918   1.549   8.121  0.5309  0.1214  1.4463
  960MOL0     C29515   9.855   1.673   8.116 -0.2598  0.1173 -0.0148
  960MOL0     N29516   9.314   1.871   8.657 -0.1587  1.0977 -0.8519
  960MOL0     N29517   9.346   1.859   8.780  0.8245 -0.4930 -0.5119
  960MOL0     C29518   9.349   2.524   9.630  0.0807 -0.1915  0.1235
  960MOL0     C29519   9.243   2.502   9.728 -0.4832 -0.1142  0.8868
  960MOL0     C29520   8.826   2.607   9.936  0.3738 -0.7325 -0.6098
  960MOL0     C29521   8.886   2.680  10.044 -0.1982 -0.5667  0.7485
  960MOL0     C29522   8.820   2.720  10.160 -0.0179  0.2833  0.3097
  960MOL0     C29523   8.684   2.689  10.173  0.4562 -0.5662  0.8272
  960MOL0     O29524   8.619   2.723  10.287 -0.0129 -0.7572  0.0708
  960MOL0     C29525   8.480   2.761  10.296 -0.3301  0.3357 -0.0295
  960MOL0     C29526   8.481   2.919  10.335 -0.0814 -0.4996 -0.5678
  960MOL0     C29527   8.347   2.973  10.375  0.1129 -0.3433 -0.0525
  960MOL0     C29528   8.324   3.017  10.523 -0.1812 -0.5541  0.7077
  960MOL0     C29529   8.347   2.905  10.612 -0.6159  0.5917  0.1741
  960MOL0     C29530   8.353   2.838  10.711 -0.1302 -0.6040 -0.5803
  960MOL0     C29531   8.621   2.616  10.073  0.3341  0.2876  0.7192
  960MOL0     C29532   8.688   2.584   9.956 -0.1681  0.0379  0.2040
  960MOL0     H29533   8.991   2.674   9.559  0.3418  2.4435 -1.4671
  960MOL0     H29534   9.172   2.692   9.403 -0.4878 -2.9720 -0.8044
  960MOL0     H29535   9.617   2.660   9.378  2.3894 -1.1048  1.9123
  960MOL0     H29536   9.585   2.602   9.533 -4.3989 -1.4202  2.2072
  960MOL0     H29537   9.503   2.383   9.443 -3.0511  0.3981 -0.2907
  960MOL0     H29538   9.458   2.458   9.295  0.2310 -1.4950 -0.6080
  960MOL0     H29539   9.713   2.475   9.231  0.0651 -0.8602 -1.0747
  960MOL0     H29540   9.752   2.417   9.390 -1.6943 -1.5360  0.2088
  960MOL0     H29541   9.757   2.238   9.211 -0.4439 -6.0744  1.0050
  960MOL0     H29542   9.674   2.204   9.363 -0.0709  0.1849  0.0653
  960MOL0     H29543   9.457   2.216   9.244 -0.8292 -0.0571 -1.7280
  960MOL0     H29544   9.539   2.297   9.109 -1.7256  0.9889  0.0519
  960MOL0     H29545   9.657   2.030   9.150 -0.2739 -0.2297  1.6251
  960MOL0     H29546   9.488   1.996   9.202 -3.7410  3.2201 -0.0553
  960MOL0     H29547   9.409   2.089   8.993  0.2357 -1.3571  2.7827
  960MOL0     H29548   9.574   2.147   8.947 -2.3467  1.2151 -3.2083
  960MOL0     H29549   9.508   1.837   9.000  1.6812 -1.0485 -0.0300
  960MOL0     H29550   9.642   1.901   8.925 -0.4258 -2.2891 -2.7617
  960MOL0     H29551   9.635   1.959   8.667  0.4401 -0.5860  3.7734
  960MOL0     H29552   9.519   1.775   8.434 -3.5356 -2.2579 -1.2668
  960MOL0     H29553   9.372   1.858   8.394  0.7219  0.8153 -1.2704
  960MOL0     H29554   9.639   2.012   8.449  0.4090  0.1090 -0.0817
  960MOL0     H29555   9.490   2.084   8.404  0.2276 -0.5217  1.3255
  960MOL0     H29556   9.633   2.091   8.220 -0.3688  0.6231 -0.4113
  960MOL0     H29557   9.487   1.999   8.183 -0.5840 -1.6178 -0.4717
  960MOL0     H29558   9.678   1.881   8.079 -0.8317 -0.1154 -0.5343
  960MOL0     H29559   9.603   1.782   8.208  2.3191 -1.6791  0.3814
  960MOL0     H29560   9.977   1.773   8.431  1.5638 -3.0100  1.1274
  960MOL0     H29561  10.221   1.529   8.396 -0.1638 -0.5567 -0.6030
  960MOL0     H29562  10.144   1.654   8.501 -2.5326  2.1957 -0.9481
  960MOL0     H29563  10.080   1.494   8.499  1.4774  0.8590  2.0131
  960MOL0     H29564   9.946   1.127   8.020  1.9205  2.3990 -1.8757
  960MOL0     H29565  10.012   0.876   8.054 -1.2214  2.4418 -4.6788
  960MOL0     H29566  10.137   0.822   8.336  2.9015 -0.6737 -0.1506
  960MOL0     H29567  10.062   0.717   8.212 -1.3446  0.5429  2.6891
  960MOL0     H29568  10.127   0.580   8.383 -1.1488  1.3034 -0.1937
  960MOL0     H29569  10.265   0.558   8.262  0.8952  0.7742 -1.5963
  960MOL0     H29570  10.386   0.728   8.371 -1.6041 -0.4053 -4.4649
  960MOL0     H29571  10.396   0.567   8.439  0.8748  0.2917 -1.5472
  960MOL0     H29572  10.198   0.775   8.551 -1.0423 -1.4116 -0.7448
  960MOL0     H29573  10.226   0.610   8.606  6.0392 -2.0467  3.6405
  960MOL0     H29574  10.455   0.686   8.696 -2.5832 -1.3242  0.9146
  960MOL0     H29575  10.320   0.772   8.756 -2.2186  0.6140 -1.7112
  960MOL0     H29576  10.467   0.893   8.514 -0.8708 -0.1790  0.8889
  960MOL0     H29577  10.337   0.958   8.597  0.0978 -0.4006  0.0863
  960MOL0     H29578  10.618   0.906   8.691 -0.1637 -3.1548  1.9210
  960MOL0     H29579  10.491   0.901   8.807 -0.4490 -3.6418 -1.4647
  960MOL0     H29580  10.550   1.149   8.791 -1.8625  2.9330  0.1341
  960MOL0     H29581  10.415   1.130   8.694  0.0306 -0.1497 -0.5254
  960MOL0     H29582  10.402   1.000   8.190  0.8988  1.5889  0.4459
  960MOL0     H29583  10.310   1.249   8.184 -1.4904  0.3627  2.8294
  960MOL0     H29584   9.893   1.476   8.044  2.2328 -0.6075  1.5477
  960MOL0     H29585   9.790   1.704   8.035 -3.0122  0.3202  2.0969
  960MOL0     H29586   9.451   2.490   9.646  1.7242  3.5639 -1.2465
  960MOL0     H29587   9.260   2.443   9.818 -1.4351  0.2777  1.3438
  960MOL0     H29588   8.989   2.713  10.034 -1.2952  2.7016 -1.6705
  960MOL0     H29589   8.863   2.768  10.247  2.6109 -3.7125  1.5013
  960MOL0     H29590   8.424   2.731  10.207 -1.2994 -2.4574  1.4109
  960MOL0     H29591   8.431   2.719  10.385  0.3269  0.9955  0.6686
  960MOL0     H29592   8.527   2.983  10.259 -2.8757  3.8154  0.9727
  960MOL0     H29593   8.543   2.935  10.423  0.8046  0.4484 -1.3415
  960MOL0     H29594   8.288   2.883  10.355 -0.8845  0.4656 -0.8472
  960MOL0     H29595   8.323   3.058  10.310 -1.3286 -0.2906  0.4971
  960MOL0     H29596   8.224   3.059  10.539 -0.2604 -0.5306  0.1861
  960MOL0     H29597   8.393   3.096  10.554 -2.6367  2.3272 -0.6177
  960MOL0     H29598   8.353   2.785  10.804 -2.4737 -0.7645 -0.6165
  960MOL0     H29599   8.517   2.585  10.074 -0.4107  2.5898  2.0372
  960MOL0     H29600   8.624   2.531   9.887 -2.1569 -0.4848  2.3306
  961MOL0     O29601  10.997   2.978   7.604 -0.4602 -0.5231  0.0825
  961MOL0     C29602  11.107   3.023   7.647 -0.2885 -0.0474 -0.9975
  961MOL0     O29603  11.198   2.954   7.718 -0.7606 -0.5314  0.1907
  961MOL0     C29604  11.167   2.828   7.769  0.3069  0.1154  0.4631
  961MOL0     C29605  11.260   2.724   7.753 -0.9552  1.2392  0.4826
  961MOL0     C29606  11.244   2.596   7.818  0.1781 -0.3306  0.0889
  961MOL0     C29607  11.135   2.578   7.905  0.1453  0.1591  0.2788
  961MOL0     O29608  11.139   2.479   7.993 -0.3755 -0.4855 -0.1845
  961MOL0     C29609  11.156   2.346   7.946  0.3751 -0.0532 -0.3972
  961MOL0     C29610  11.218   2.270   8.060  0.3892  0.8174 -0.5044
  961MOL0     C29611  11.247   2.122   8.028  0.3443  0.2262  0.1648
  961MOL0     C29612  11.323   2.047   8.138  0.4450  0.4610  0.0007
  961MOL0     C29613  11.358   1.899   8.099  0.8935 -0.2682  0.0619
  961MOL0     C29614  11.496   1.889   8.041 -0.0099 -0.0664 -0.5329
  961MOL0     C29615  11.563   1.749   8.051  0.8196 -0.1067 -0.4366
  961MOL0     C29616  11.491   1.627   7.995 -0.6298  0.6270 -1.0668
  961MOL0     N29617  11.426   1.558   8.106 -0.1233 -0.4667 -0.4234
  961MOL0     C29618  11.288   1.555   8.123  0.4932  0.4339 -0.9244
  961MOL0     C29619  11.263   1.469   8.226 -0.4196 -0.1835  0.3260
  961MOL0     C29620  11.138   1.412   8.282  1.0429 -0.4441  0.6189
  961MOL0     C29621  11.096   1.467   8.416  0.4494  0.1937 -0.3127
  961MOL0     C29622  11.041   1.610   8.407  0.0950  0.6625  0.4778
  961MOL0     C29623  10.905   1.595   8.339 -0.1067 -0.4337 -0.4565
  961MOL0     O29624  10.919   1.623   8.195  0.2509  0.3812  0.5256
  961MOL0     C29625  10.928   1.738   8.128 -1.0925 -0.1609 -0.9055
  961MOL0     C29626  10.948   1.738   7.988  0.4607  0.2880 -0.2736
  961MOL0     C29627  10.949   1.854   7.910  0.1403  0.0617 -0.1374
  961MOL0     C29628  10.986   1.833   7.764 -1.1437  0.2241  0.9601
  961MOL0     C29629  10.903   1.984   7.965  0.0028  0.4456 -0.4809
  961MOL0     C29630  10.876   2.114   7.900  0.4512 -0.5511 -0.0361
  961MOL0     O29631  10.820   2.210   7.986 -0.0109 -0.4358 -0.4742
  961MOL0     C29632  10.741   2.305   7.922  1.1684 -1.1133 -0.4682
  961MOL0     C29633  10.628   2.281   7.843 -0.7281  0.0072  0.2007
  961MOL0     C29634  10.553   2.383   7.786 -0.0422  0.2276 -0.5934
  961MOL0     C29635  10.596   2.510   7.780 -0.4626 -0.2525 -0.1825
  961MOL0     O29636  10.524   2.600   7.707 -0.1957 -0.4254  0.0602
  961MOL0     C29637  10.601   2.691   7.632 -1.1048  1.0160  1.0202
  961MOL0     C29638  10.544   2.744   7.494  0.2332 -0.1389  0.0856
  961MOL0     C29639  10.635   2.853   7.429  0.2588 -0.6002  0.3680
  961MOL0     C29640  10.649   2.852   7.281  0.4547 -0.5269  0.0966
  961MOL0     C29641  10.683   2.989   7.221 -0.3015  0.3038  0.8823
  961MOL0     C29642  10.761   2.970   7.092 -0.1868 -0.0021  0.1931
  961MOL0     C29643  10.820   3.096   7.040  0.0320 -0.3963  0.1046
  961MOL0     C29644  10.938   3.085   6.942 -0.0927  0.4802  0.0545
  961MOL0    Cl29645  10.868   2.997   6.801 -0.3468  0.3397 -0.5174
  961MOL0     C29646  10.709   2.544   7.862 -0.2849 -0.5176  0.7998
  961MOL0     C29647  10.786   2.444   7.931  1.5198  0.6612 -0.4059
  961MOL0     O29648  10.886   2.125   7.778  0.6294  0.0496 -0.6581
  961MOL0     C29649  10.902   1.976   8.109  0.3539 -0.2886  0.5224
  961MOL0     C29650  10.920   1.862   8.183  0.6137 -0.5899 -0.5554
  961MOL0     N29651  11.388   1.432   8.270 -0.1697  0.6626  0.0728
  961MOL0     N29652  11.482   1.475   8.194 -0.3766 -0.7759 -0.1863
  961MOL0     C29653  11.038   2.677   7.920 -0.9642 -0.6370 -0.2068
  961MOL0     C29654  11.054   2.800   7.845 -1.5908  0.3078  0.4403
  961MOL0     C29655  11.138   3.159   7.603  0.2562 -1.1723 -0.5611
  961MOL0     C29656  11.240   3.222   7.662  0.2236 -0.1395 -0.0310
  961MOL0     C29657  11.263   3.362   7.652 -0.0765  0.4378 -0.2891
  961MOL0     C29658  11.183   3.435   7.572  0.0610  0.5854  0.1468
  961MOL0     O29659  11.219   3.561   7.558 -0.4452 -1.0690  0.1353
  961MOL0     C29660  11.154   3.646   7.458  0.5605 -0.6238  0.4368
  961MOL0     C29661  11.228   3.787   7.460 -0.0647 -0.3079  0.6615
  961MOL0     C29662  11.265   3.833   7.320 -0.6331 -0.0767  1.1953
  961MOL0     C29663  11.270   3.986   7.294  0.3520  0.2823 -0.1475
  961MOL0     C29664  11.250   4.037   7.160 -0.2354  0.4785 -0.5773
  961MOL0     C29665  11.231   4.046   7.046 -0.7615  0.5227  1.0109
  961MOL0     C29666  11.071   3.376   7.516 -0.6293 -0.0654  0.0843
  961MOL0     C29667  11.047   3.242   7.538  0.2918  0.4745  0.7306
  961MOL0     H29668  11.355   2.740   7.704 -0.5749 -1.0237  0.3948
  961MOL0     H29669  11.331   2.531   7.818 -0.4074 -1.1624 -1.2954
  961MOL0     H29670  11.059   2.301   7.920  0.8688 -1.1261 -0.4236
  961MOL0     H29671  11.229   2.340   7.865  2.9080 -1.4060  1.8506
  961MOL0     H29672  11.315   2.318   8.072  1.5442 -1.5689  0.4843
  961MOL0     H29673  11.157   2.276   8.151  1.2169  0.0410  0.1250
  961MOL0     H29674  11.159   2.060   8.010  0.5005  0.8625 -3.6784
  961MOL0     H29675  11.315   2.108   7.943  1.8632 -4.5697  1.8194
  961MOL0     H29676  11.407   2.115   8.158  0.6183 -0.4760  2.7593
  961MOL0     H29677  11.259   2.033   8.225 -3.4610 -1.1756 -2.8286
  961MOL0     H29678  11.362   1.838   8.190 -2.5104 -2.1797 -0.8895
  961MOL0     H29679  11.291   1.852   8.026  0.5094  0.9087 -0.3635
  961MOL0     H29680  11.493   1.919   7.935 -3.6498  0.1766 -0.4887
  961MOL0     H29681  11.553   1.960   8.100 -0.4999  0.1599 -0.3314
  961MOL0     H29682  11.648   1.758   7.982  0.1439 -0.5906 -1.3640
  961MOL0     H29683  11.603   1.717   8.147 -2.7472 -0.0629  1.2384
  961MOL0     H29684  11.561   1.553   7.957 -2.6820 -1.5164 -0.9008
  961MOL0     H29685  11.422   1.655   7.915 -3.3712  1.0316  1.2667
  961MOL0     H29686  11.209   1.599   8.063  0.2032  0.4353 -0.5480
  961MOL0     H29687  11.064   1.439   8.206  1.0546  1.4170  1.2108
  961MOL0     H29688  11.141   1.303   8.277 -0.8875 -0.5067  0.2556
  961MOL0     H29689  11.178   1.445   8.485  0.2268 -3.6983 -1.0507
  961MOL0     H29690  11.011   1.414   8.459 -0.6169  1.7369 -0.4542
  961MOL0     H29691  11.101   1.683   8.352 -0.5521  1.6275  1.0140
  961MOL0     H29692  11.045   1.651   8.509  1.8424  0.7496  0.4080
  961MOL0     H29693  10.839   1.672   8.380  0.8065 -0.5295  1.2864
  961MOL0     H29694  10.853   1.502   8.363  0.9756 -0.6419  1.2384
  961MOL0     H29695  10.963   1.644   7.935  3.5154  1.2733 -1.3379
  961MOL0     H29696  10.991   1.725   7.750 -0.5190  0.4578 -0.8217
  961MOL0     H29697  10.915   1.881   7.696  0.2329  0.8944 -0.0548
  961MOL0     H29698  11.087   1.867   7.737 -2.1287  2.3516 -0.2810
  961MOL0     H29699  10.592   2.179   7.833 -0.7564 -0.1156  1.4487
  961MOL0     H29700  10.456   2.358   7.745 -1.1735  0.8830  1.5253
  961MOL0     H29701  10.636   2.769   7.701  2.5149 -0.9604  1.6573
  961MOL0     H29702  10.692   2.640   7.598 -1.7972 -0.1488  0.8336
  961MOL0     H29703  10.545   2.657   7.427 -0.7704 -0.2096  0.1455
  961MOL0     H29704  10.441   2.772   7.518  0.8769  1.8428  0.7940
  961MOL0     H29705  10.736   2.844   7.469  0.3558  0.9127  0.5289
  961MOL0     H29706  10.616   2.956   7.459  3.5945  0.7668 -1.6167
  961MOL0     H29707  10.723   2.772   7.266  0.7045 -0.3668  0.4738
  961MOL0     H29708  10.557   2.829   7.226  1.0289  0.6458 -1.4067
  961MOL0     H29709  10.749   3.045   7.289  1.4545 -0.3581 -0.1963
  961MOL0     H29710  10.596   3.054   7.206  0.3335  0.6257 -2.0083
  961MOL0     H29711  10.844   2.902   7.114  1.2103  1.5751  0.0280
  961MOL0     H29712  10.699   2.927   7.013 -1.8033 -0.1374  1.4772
  961MOL0     H29713  10.872   3.151   7.119 -0.4405  0.9565 -0.4972
  961MOL0     H29714  10.733   3.144   6.996 -1.8899 -3.2180  0.5417
  961MOL0     H29715  11.011   3.016   6.984  1.7858 -0.2314 -3.8912
  961MOL0     H29716  10.986   3.180   6.914 -1.7843  1.4143  0.1790
  961MOL0     H29717  10.743   2.647   7.858 -0.1318 -0.6109 -1.4091
  961MOL0     H29718  10.878   2.476   7.976  0.0871  2.1100  1.6690
  961MOL0     H29719  10.892   2.067   8.168 -1.8345 -0.9846  1.3166
  961MOL0     H29720  10.924   1.884   8.289 -3.6765 -1.4844 -0.0123
  961MOL0     H29721  10.965   2.655   7.997  0.1017 -0.4120  0.9120
  961MOL0     H29722  10.986   2.884   7.860  0.1760  2.2444 -1.6419
  961MOL0     H29723  11.310   3.166   7.723 -1.2675 -0.7547  1.1590
  961MOL0     H29724  11.339   3.421   7.702 -0.9393  1.3335 -0.0067
  961MOL0     H29725  11.143   3.591   7.365 -4.1524  1.9478 -0.8117
  961MOL0     H29726  11.051   3.672   7.485  0.7905  2.7279 -1.3468
  961MOL0     H29727  11.313   3.760   7.524  1.6280 -0.9243 -1.6960
  961MOL0     H29728  11.175   3.863   7.516 -3.3814  0.2021 -2.7936
  961MOL0     H29729  11.191   3.800   7.246  2.0013 -1.1176 -1.1565
  961MOL0     H29730  11.362   3.797   7.284 -0.5912  0.4026  0.8214
  961MOL0     H29731  11.371   4.020   7.321  0.5353  0.4399 -1.0128
  961MOL0     H29732  11.187   4.025   7.353  0.5681 -0.3172  0.5614
  961MOL0     H29733  11.215   4.058   6.941  2.6866  1.5062  0.4860
  961MOL0     H29734  11.007   3.441   7.457  1.8977  4.6877  1.9592
  961MOL0     H29735  10.958   3.190   7.506  2.3667 -1.9268 -1.6854
  962MOL0     O29736   9.965   4.269  10.675 -0.1860  0.4805 -0.0327
  962MOL0     C29737   9.984   4.379  10.725  0.2102 -0.0406  0.7379
  962MOL0     O29738   9.953   4.508  10.668  0.0471 -0.1298 -0.1725
  962MOL0     C29739   9.913   4.509  10.540 -0.1274 -0.3715 -0.3385
  962MOL0     C29740   9.809   4.445  10.488  0.0503 -0.3023 -0.8119
  962MOL0     C29741   9.765   4.491  10.369  0.4410 -0.7175  0.3244
  962MOL0     C29742   9.828   4.574  10.276  0.5844 -0.4193 -0.7695
  962MOL0     O29743   9.788   4.597  10.148  0.2284 -0.0205  0.2038
  962MOL0     C29744   9.658   4.588  10.093 -0.0152 -0.3042 -0.2575
  962MOL0     C29745   9.644   4.709  10.005  0.2922 -0.5578 -0.4443
  962MOL0     C29746   9.500   4.719   9.958  0.3545  0.0213 -0.8324
  962MOL0     C29747   9.459   4.614   9.858  0.3044 -0.9909 -0.3455
  962MOL0     C29748   9.321   4.660   9.812 -0.1449  0.5824  0.4718
  962MOL0     C29749   9.283   4.560   9.709  0.0512 -1.2372 -0.2644
  962MOL0     C29750   9.141   4.587   9.647 -0.0294  0.0740 -0.1167
  962MOL0     C29751   9.113   4.710   9.573  0.6753  0.2736 -0.7239
  962MOL0     N29752   8.972   4.708   9.524 -0.2593 -0.3597  0.1955
  962MOL0     C29753   8.878   4.786   9.579  0.7626 -0.1572 -0.3419
  962MOL0     C29754   8.770   4.745   9.513  0.9017 -0.3800 -0.2435
  962MOL0     C29755   8.640   4.822   9.542  0.7374  1.1026 -0.2057
  962MOL0     C29756   8.601   4.901   9.416  0.4739  0.1502  0.2174
  962MOL0     C29757   8.458   4.975   9.430  0.1318  0.3183 -0.4816
  962MOL0     C29758   8.455   5.111   9.502 -0.3110 -0.2561  0.2948
  962MOL0     O29759   8.521   5.204   9.414  0.2310 -0.3443 -0.4147
  962MOL0     C29760   8.478   5.335   9.409  0.1485  0.2113  0.2845
  962MOL0     C29761   8.418   5.399   9.521 -0.4990 -1.7303 -0.6744
  962MOL0     C29762   8.354   5.519   9.498  0.2198  0.1585  0.7463
  962MOL0     C29763   8.314   5.583   9.627 -0.8093 -0.7485 -0.7371
  962MOL0     C29764   8.350   5.588   9.371 -0.4553  0.3748 -0.9082
  962MOL0     C29765   8.295   5.728   9.372 -0.3065  0.7788  0.0167
  962MOL0     O29766   8.189   5.759   9.451 -0.5766  0.3718  0.1337
  962MOL0     C29767   8.129   5.885   9.456 -0.0196  0.7377 -0.6774
  962MOL0     C29768   8.138   5.987   9.360 -0.7574 -0.5731  0.2990
  962MOL0     C29769   8.062   6.098   9.383 -0.6344 -0.3729  0.5132
  962MOL0     C29770   8.006   6.124   9.504 -0.2013 -0.1207 -0.3399
  962MOL0     O29771   7.957   6.249   9.525  0.2084 -0.3384  0.6230
  962MOL0     C29772   7.857   6.254   9.630  0.1122 -0.4148  1.0318
  962MOL0     C29773   7.808   6.397   9.661 -0.0077  0.5923  0.1970
  962MOL0     C29774   7.876   6.512   9.617 -0.4404  0.5114 -0.0009
  962MOL0     C29775   8.021   6.518   9.669  1.3398 -0.0827 -0.1895
  962MOL0     C29776   8.086   6.658   9.674  0.2482  0.1918 -0.4616
  962MOL0     C29777   8.203   6.679   9.769  1.0367 -0.6323  0.1682
  962MOL0     C29778   8.241   6.829   9.772 -0.8343  0.0539 -0.4462
  962MOL0     C29779   8.333   6.858   9.897 -0.3604  1.1309  0.2431
  962MOL0    Cl29780   8.391   7.021   9.889  0.7068  0.8340  0.1925
  962MOL0     C29781   7.997   6.020   9.600 -0.1508 -0.6493  0.0828
  962MOL0     C29782   8.051   5.898   9.572 -0.9262  0.9019  0.3412
  962MOL0     O29783   8.338   5.803   9.278 -0.3990  0.3143 -0.5098
  962MOL0     C29784   8.419   5.529   9.263 -1.3459 -0.2515  0.1781
  962MOL0     C29785   8.478   5.407   9.287 -0.3043 -0.1538 -0.6870
  962MOL0     N29786   8.802   4.649   9.419  0.4186 -0.4646  0.3531
  962MOL0     N29787   8.929   4.625   9.426 -0.6952 -0.5553  0.1809
  962MOL0     C29788   9.952   4.622  10.327  0.0770  0.4353  1.1181
  962MOL0     C29789   9.993   4.600  10.457 -0.3503  0.0239  0.1735
  962MOL0     C29790  10.033   4.366  10.872 -0.5474  0.4192 -0.0321
  962MOL0     C29791  10.023   4.240  10.943  0.4953 -0.4270 -0.8816
  962MOL0     C29792  10.064   4.232  11.076 -0.1874 -0.7386  0.7090
  962MOL0     C29793  10.133   4.346  11.135 -0.1724  0.7211  0.8840
  962MOL0     O29794  10.161   4.331  11.269  0.0520  1.2723 -0.3893
  962MOL0     C29795  10.187   4.453  11.350 -0.7742  0.2710 -0.1615
  962MOL0     C29796  10.179   4.396  11.496 -0.5666 -0.7472  0.3751
  962MOL0     C29797  10.221   4.492  11.602 -0.5645 -0.2117 -0.1765
  962MOL0     C29798  10.263   4.397  11.713 -0.1327  0.8077 -0.4683
  962MOL0     C29799  10.169   4.313  11.780  0.5056  0.4565  0.6458
  962MOL0     C29800  10.072   4.259  11.830  0.2746  0.0428 -0.8433
  962MOL0     C29801  10.138   4.467  11.068  0.2097 -0.0697  0.7116
  962MOL0     C29802  10.079   4.477  10.936 -1.8171 -0.6078 -1.2405
  962MOL0     H29803   9.757   4.380  10.557 -0.0765  0.3574 -0.2745
  962MOL0     H29804   9.672   4.442  10.339 -0.0446 -0.0285  0.6824
  962MOL0     H29805   9.638   4.499  10.032  2.2650  1.2601 -3.5600
  962MOL0     H29806   9.587   4.585  10.177  0.3357  0.3220  0.0723
  962MOL0     H29807   9.669   4.796  10.067 -2.3128 -0.0752  0.0508
  962MOL0     H29808   9.713   4.706   9.920  1.2235 -0.2636  0.2812
  962MOL0     H29809   9.428   4.712  10.039  0.6108  3.7390 -0.1047
  962MOL0     H29810   9.492   4.820   9.916 -2.4954  0.4434  0.4656
  962MOL0     H29811   9.519   4.608   9.767 -0.8230 -2.1606 -1.0446
  962MOL0     H29812   9.456   4.511   9.896  0.6605 -0.7638  0.3162
  962MOL0     H29813   9.253   4.659   9.898  1.2228  2.5524  1.6788
  962MOL0     H29814   9.330   4.763   9.775 -0.8607  0.7951  0.8724
  962MOL0     H29815   9.353   4.548   9.626  0.9268 -0.8079  0.4082
  962MOL0     H29816   9.263   4.461   9.750 -0.4434 -0.0040  2.7333
  962MOL0     H29817   9.123   4.506   9.576 -1.2422 -2.4402  2.7807
  962MOL0     H29818   9.062   4.571   9.721 -3.6839  3.7348 -2.8024
  962MOL0     H29819   9.189   4.714   9.495  1.6860  0.0103  0.2231
  962MOL0     H29820   9.146   4.798   9.629  3.5541  0.6574 -2.7983
  962MOL0     H29821   8.872   4.850   9.666 -1.5184  0.0957 -0.6338
  962MOL0     H29822   8.566   4.747   9.570  0.7320  1.4936  0.8831
  962MOL0     H29823   8.662   4.885   9.629 -1.5864  0.0572  1.2212
  962MOL0     H29824   8.586   4.822   9.342 -1.8642 -0.4376  1.1922
  962MOL0     H29825   8.677   4.968   9.376  0.6393 -0.4511 -0.4989
  962MOL0     H29826   8.382   4.911   9.475  0.3445  0.4695  0.1137
  962MOL0     H29827   8.427   4.987   9.326 -2.6721 -3.6052 -0.2803
  962MOL0     H29828   8.502   5.116   9.601 -4.7286 -2.3704  2.8038
  962MOL0     H29829   8.349   5.131   9.520 -0.4260  0.6221 -1.2035
  962MOL0     H29830   8.410   5.343   9.613  0.3944 -2.7081 -1.1680
  962MOL0     H29831   8.333   5.690   9.626  2.1471 -1.1949 -0.5745
  962MOL0     H29832   8.207   5.562   9.641 -0.6351 -1.9902 -1.0933
  962MOL0     H29833   8.375   5.549   9.711 -0.1887 -0.3892 -1.0394
  962MOL0     H29834   8.191   5.977   9.266  1.4102  0.0498  1.3850
  962MOL0     H29835   8.035   6.178   9.315 -5.7992 -2.2302 -0.1069
  962MOL0     H29836   7.771   6.190   9.610  2.0402 -2.9804  0.4367
  962MOL0     H29837   7.905   6.209   9.718  0.3795  0.0838  1.1434
  962MOL0     H29838   7.707   6.408   9.621 -1.5872 -5.1819  1.6137
  962MOL0     H29839   7.800   6.410   9.769  2.9980 -1.1590  0.7621
  962MOL0     H29840   7.820   6.591   9.669 -2.0956  0.3836 -1.5099
  962MOL0     H29841   7.880   6.529   9.509 -0.3397  2.5820  0.2876
  962MOL0     H29842   7.997   6.496   9.773 -1.1861 -1.7151 -1.0244
  962MOL0     H29843   8.096   6.449   9.629  0.5002 -1.5266  0.6334
  962MOL0     H29844   8.006   6.723   9.711  1.7482  2.3247 -0.7563
  962MOL0     H29845   8.117   6.693   9.575 -2.4609 -0.3093 -1.5906
  962MOL0     H29846   8.174   6.633   9.863  0.8395 -6.0907 -2.1829
  962MOL0     H29847   8.291   6.628   9.728 -0.4868 -2.4861 -0.9780
  962MOL0     H29848   8.146   6.883   9.774 -1.3844 -0.5988 -3.6851
  962MOL0     H29849   8.308   6.856   9.690  0.0807 -1.8710 -0.3775
  962MOL0     H29850   8.419   6.791   9.893 -0.9206  0.3433  0.9600
  962MOL0     H29851   8.290   6.847   9.997  2.0438  1.2376  1.3646
  962MOL0     H29852   7.959   6.023   9.702 -1.2969  3.1772 -0.3176
  962MOL0     H29853   8.050   5.817   9.645  0.5905 -0.9508 -1.5713
  962MOL0     H29854   8.431   5.569   9.163  1.3522 -4.9142 -1.6935
  962MOL0     H29855   8.532   5.352   9.211 -2.7007 -4.1600  0.1942
  962MOL0     H29856   9.998   4.705  10.274 -0.1771  1.4542  2.4493
  962MOL0     H29857  10.066   4.667  10.502 -0.8384 -0.9173  2.4816
  962MOL0     H29858   9.964   4.164  10.892 -2.4870  0.9254  0.3298
  962MOL0     H29859  10.059   4.134  11.123 -0.8123 -0.3555  1.4643
  962MOL0     H29860  10.289   4.477  11.320 -0.3538 -3.4535 -2.4951
  962MOL0     H29861  10.122   4.539  11.333  0.5327  2.6177  4.7664
  962MOL0     H29862  10.217   4.295  11.510 -2.8793 -1.3910  2.9745
  962MOL0     H29863  10.071   4.390  11.514 -0.6754  1.1593  0.5963
  962MOL0     H29864  10.146   4.559  11.644 -0.9335 -1.0746  0.5639
  962MOL0     H29865  10.301   4.561  11.572 -2.2394  2.6986  1.5487
  962MOL0     H29866  10.307   4.463  11.789 -1.5513  0.4255  0.7409
  962MOL0     H29867  10.347   4.340  11.672  1.8585  4.0484 -1.2150
  962MOL0     H29868   9.993   4.214  11.887  0.9982 -0.5255 -0.2735
  962MOL0     H29869  10.183   4.554  11.115 -0.1994  1.7347 -1.9702
  962MOL0     H29870  10.087   4.573  10.885  4.5290 -0.3632 -0.5213
  963MOL0     O29871   2.394  10.445   1.161 -0.4924 -0.1584 -0.2199
  963MOL0     C29872   2.318  10.394   1.241  0.3133  0.7244 -0.5911
  963MOL0     O29873   2.314  10.406   1.368 -0.3274  0.8376 -0.3588
  963MOL0     C29874   2.403  10.493   1.424  0.2837 -0.2244  0.6610
  963MOL0     C29875   2.347  10.604   1.493  0.7552 -0.4207 -0.3461
  963MOL0     C29876   2.434  10.697   1.543 -0.1446 -0.7390 -1.1481
  963MOL0     C29877   2.571  10.679   1.541 -0.8376 -0.4220 -0.8397
  963MOL0     O29878   2.662  10.759   1.608  1.1906  0.1574 -0.0090
  963MOL0     C29879   2.761  10.829   1.524 -0.3501  1.5111 -0.3649
  963MOL0     C29880   2.748  10.974   1.565 -0.1571 -0.4992  0.6594
  963MOL0     C29881   2.615  11.032   1.502  0.8243 -0.4024  0.0649
  963MOL0     C29882   2.591  11.185   1.528  0.1017 -0.3443 -0.7162
  963MOL0     C29883   2.474  11.236   1.436  0.0878  0.1293 -0.5876
  963MOL0     C29884   2.400  11.358   1.507  0.6268  1.1696 -0.2188
  963MOL0     C29885   2.494  11.468   1.543  0.7669 -0.8080  0.1980
  963MOL0     C29886   2.413  11.585   1.590 -0.5316 -0.2081 -0.6269
  963MOL0     N29887   2.379  11.670   1.477 -0.7554 -0.0370 -0.2216
  963MOL0     C29888   2.263  11.651   1.416  0.6878 -0.2645 -0.1217
  963MOL0     C29889   2.272  11.731   1.308  0.6674 -0.4633  0.2378
  963MOL0     C29890   2.170  11.782   1.207 -0.6051  1.0304  0.3972
  963MOL0     C29891   2.122  11.662   1.125  0.3666 -1.1739  0.1815
  963MOL0     C29892   2.021  11.581   1.216 -0.0043  0.6282  0.2335
  963MOL0     C29893   1.936  11.470   1.138 -0.5017 -0.4943 -0.4885
  963MOL0     O29894   2.006  11.342   1.130  0.7595  0.2648  0.8022
  963MOL0     C29895   2.031  11.252   1.234  0.0218 -0.1954  0.7217
  963MOL0     C29896   2.102  11.140   1.203 -0.2292 -0.4106  0.4437
  963MOL0     C29897   2.127  11.039   1.298 -0.3457 -0.0797  0.9084
  963MOL0     C29898   2.211  10.924   1.251 -0.1488  0.0478  0.1524
  963MOL0     C29899   2.089  11.069   1.430  0.2540  0.2921  0.0980
  963MOL0     C29900   2.116  10.972   1.538 -0.6001  0.6461  0.2504
  963MOL0     O29901   2.137  11.025   1.668  0.6285 -0.5990  0.2553
  963MOL0     C29902   2.190  10.932   1.753 -0.0091 -0.5487 -0.1666
  963MOL0     C29903   2.303  10.965   1.824 -1.0362 -0.4422 -0.0439
  963MOL0     C29904   2.359  10.881   1.914 -0.1171  0.5935 -0.0795
  963MOL0     C29905   2.310  10.750   1.936  0.7717 -0.6953  0.1910
  963MOL0     O29906   2.358  10.655   2.015 -0.5087 -0.1913 -0.2382
  963MOL0     C29907   2.500  10.623   1.997  0.2331  0.0579  0.0804
  963MOL0     C29908   2.519  10.485   2.038 -0.5266  1.1734 -0.2369
  963MOL0     C29909   2.446  10.396   1.933  0.0476  0.0522  0.0613
  963MOL0     C29910   2.519  10.412   1.798 -0.2828 -0.0559  0.1619
  963MOL0     C29911   2.517  10.275   1.725  0.0273 -0.9394  0.4599
  963MOL0     C29912   2.375  10.218   1.698 -0.3991  0.6505 -0.0939
  963MOL0     C29913   2.385  10.089   1.605  0.2044  0.2178  0.0649
  963MOL0     C29914   2.470   9.980   1.666  0.0243  0.8563 -0.4883
  963MOL0    Cl29915   2.462   9.839   1.540  0.9114 -0.3238  0.0407
  963MOL0     C29916   2.190  10.728   1.874 -0.5495  0.2940 -0.0006
  963MOL0     C29917   2.126  10.809   1.787  0.2878  0.7909  0.2355
  963MOL0     O29918   2.137  10.848   1.508  0.2372 -0.1797 -0.6052
  963MOL0     C29919   2.016  11.189   1.470  0.5276  1.0498 -0.7427
  963MOL0     C29920   1.992  11.275   1.366  0.1184  0.8688 -1.2096
  963MOL0     N29921   2.402  11.776   1.293 -0.0842  0.8838  0.5050
  963MOL0     N29922   2.467  11.747   1.405  0.4998 -0.2397  0.0043
  963MOL0     C29923   2.624  10.570   1.476 -0.5650 -0.2674 -0.8873
  963MOL0     C29924   2.543  10.475   1.419 -0.8305  0.3254 -0.0472
  963MOL0     C29925   2.227  10.277   1.191  0.2373 -0.2514 -1.0905
  963MOL0     C29926   2.163  10.182   1.271 -0.1773 -0.7714 -0.8906
  963MOL0     C29927   2.115  10.065   1.223 -0.9175 -0.3367 -0.3027
  963MOL0     C29928   2.136  10.019   1.087 -0.4561 -0.4811  0.0387
  963MOL0     O29929   2.094   9.892   1.045  0.9576  0.0657 -0.2909
  963MOL0     C29930   2.090   9.869   0.901 -0.0271  0.7186  0.3537
  963MOL0     C29931   1.971   9.951   0.837  0.5869  0.3698  0.4893
  963MOL0     C29932   1.833   9.945   0.908  0.5551  0.6913 -0.2864
  963MOL0     C29933   1.777   9.802   0.904 -0.5065  0.2073  0.9784
  963MOL0     C29934   1.764   9.750   0.769 -1.5420  0.2675  1.2145
  963MOL0     C29935   1.763   9.735   0.645 -0.6779 -0.0390 -0.5323
  963MOL0     C29936   2.209  10.113   1.010  0.7269  0.3671  0.3842
  963MOL0     C29937   2.255  10.239   1.057  0.6914 -0.6948 -0.2232
  963MOL0     H29938   2.243  10.621   1.466  1.0432 -1.0112 -1.9472
  963MOL0     H29939   2.387  10.785   1.585  1.3082 -0.3948 -0.1699
  963MOL0     H29940   2.858  10.787   1.555 -0.3258  0.3028 -1.9333
  963MOL0     H29941   2.742  10.811   1.417  0.1445  1.6988 -0.4864
  963MOL0     H29942   2.748  10.977   1.675  3.4706 -2.1475  0.8402
  963MOL0     H29943   2.835  11.028   1.525  3.1251 -3.2862  3.3659
  963MOL0     H29944   2.614  11.020   1.393  1.7640  1.2423 -0.1673
  963MOL0     H29945   2.530  10.982   1.550 -0.7339  2.0166  0.0028
  963MOL0     H29946   2.578  11.206   1.634  0.8341  0.1719 -0.7211
  963MOL0     H29947   2.683  11.230   1.490 -0.3877 -0.1742 -1.7407
  963MOL0     H29948   2.513  11.267   1.339 -1.0555 -1.4252 -1.5737
  963MOL0     H29949   2.397  11.162   1.415 -1.6666  1.8715 -0.5614
  963MOL0     H29950   2.321  11.386   1.436  0.9352  1.9038 -0.2803
  963MOL0     H29951   2.350  11.315   1.594  1.3415 -4.8477 -2.2400
  963MOL0     H29952   2.566  11.431   1.617 -0.9835  0.4000  2.6330
  963MOL0     H29953   2.546  11.507   1.454 -1.4328 -0.1124 -0.8538
  963MOL0     H29954   2.475  11.634   1.666 -2.2233  0.6679  0.2535
  963MOL0     H29955   2.321  11.560   1.643  0.0351  2.3099  1.7823
  963MOL0     H29956   2.175  11.599   1.452  2.0269 -1.1777  2.0050
  963MOL0     H29957   2.085  11.817   1.266 -0.8689 -0.2600  0.8271
  963MOL0     H29958   2.223  11.842   1.132 -0.1295 -2.6224 -2.4780
  963MOL0     H29959   2.193  11.590   1.083 -0.1345 -1.2235 -0.6037
  963MOL0     H29960   2.071  11.705   1.038 -1.5104 -2.1729  0.7370
  963MOL0     H29961   1.946  11.653   1.252  0.4423  1.3531 -0.2694
  963MOL0     H29962   2.071  11.531   1.299 -1.0900  0.0774  0.5801
  963MOL0     H29963   1.917  11.515   1.040 -0.0131  2.9768  0.8543
  963MOL0     H29964   1.836  11.470   1.183 -0.8260  1.1326 -1.1266
  963MOL0     H29965   2.141  11.123   1.103 -2.2892 -1.5514 -0.2440
  963MOL0     H29966   2.249  10.940   1.149 -0.4407  0.7168  0.1449
  963MOL0     H29967   2.300  10.906   1.312  0.0111  1.9139  0.5292
  963MOL0     H29968   2.160  10.827   1.251 -3.0092  1.4553  0.5717
  963MOL0     H29969   2.361  11.056   1.813 -1.1351 -0.0150  2.4111
  963MOL0     H29970   2.438  10.913   1.981 -0.4341 -1.3234  1.2973
  963MOL0     H29971   2.534  10.634   1.894  1.0867 -1.4656  0.1685
  963MOL0     H29972   2.560  10.687   2.064  0.3606 -0.4198  0.4276
  963MOL0     H29973   2.626  10.469   2.029 -0.2932  1.7733  1.1901
  963MOL0     H29974   2.478  10.454   2.135  0.6359 -1.3234 -0.4681
  963MOL0     H29975   2.340  10.417   1.918  0.2363  0.1453 -1.2001
  963MOL0     H29976   2.441  10.294   1.972  0.6633  0.7190  2.0169
  963MOL0     H29977   2.480  10.491   1.734  0.3491 -1.4853 -2.0841
  963MOL0     H29978   2.625  10.439   1.808 -0.4391 -0.0355  2.3060
  963MOL0     H29979   2.579  10.209   1.788  1.7413  2.8196  3.1109
  963MOL0     H29980   2.562  10.295   1.628 -1.0839  4.0689  0.7174
  963MOL0     H29981   2.329  10.187   1.792 -1.6901 -0.3493 -1.0192
  963MOL0     H29982   2.310  10.292   1.650 -1.8761 -0.2887  0.4163
  963MOL0     H29983   2.403  10.118   1.501  1.0787  1.7542  0.6101
  963MOL0     H29984   2.292  10.031   1.603 -0.4468  1.0755  2.4524
  963MOL0     H29985   2.439   9.959   1.768 -0.8640 -2.0022 -1.2488
  963MOL0     H29986   2.575  10.011   1.667  0.2424  0.1139  0.6780
  963MOL0     H29987   2.151  10.627   1.886 -2.6864  1.0493 -0.0548
  963MOL0     H29988   2.039  10.770   1.734  1.6034  1.6958 -2.8565
  963MOL0     H29989   1.989  11.204   1.574  1.8579  0.5401 -0.3073
  963MOL0     H29990   1.941  11.369   1.387  1.9893  2.0217 -1.5706
  963MOL0     H29991   2.731  10.554   1.477 -0.5515 -0.7763 -3.5087
  963MOL0     H29992   2.595  10.395   1.367  1.8254  1.8936  0.0284
  963MOL0     H29993   2.143  10.210   1.374 -0.8233  2.8341 -1.8575
  963MOL0     H29994   2.064  10.001   1.295  1.3589 -3.0098 -0.8851
  963MOL0     H29995   2.179   9.884   0.840 -0.6194  1.7307 -0.2829
  963MOL0     H29996   2.070   9.762   0.888  0.9069  0.4609  0.9506
  963MOL0     H29997   1.964   9.914   0.735  4.2414 -1.1008  0.6416
  963MOL0     H29998   2.001  10.056   0.841 -0.8325  0.7803  1.4421
  963MOL0     H29999   1.765  10.020   0.868  0.8106  0.7183 -0.6772
  963MOL0     H30000   1.848   9.975   1.012  0.8669  0.1855 -0.1787
  963MOL0     H30001   1.673   9.803   0.939 -0.8403  3.3698  0.2043
  963MOL0     H30002   1.842   9.741   0.967  1.3779  0.3454 -0.7450
  963MOL0     H30003   1.780   9.720   0.540 -0.5844 -1.0052 -0.3859
  963MOL0     H30004   2.253  10.111   0.911  2.4561  2.6608  1.0093
  963MOL0     H30005   2.289  10.313   0.985 -1.5746 -0.7669 -1.4700
  964MOL0     O30006   1.574   5.332   2.067  0.1082  0.0189 -0.3829
  964MOL0     C30007   1.621   5.229   2.021  0.4476 -0.2782 -0.4993
  964MOL0     O30008   1.641   5.202   1.889  0.3136 -0.5161  0.8383
  964MOL0     C30009   1.628   5.296   1.792 -0.6003  0.0724  0.1309
  964MOL0     C30010   1.568   5.259   1.675 -0.1519 -0.0734  0.3081
  964MOL0     C30011   1.551   5.343   1.573  0.4880  0.4168  0.3225
  964MOL0     C30012   1.613   5.470   1.568 -0.2761  0.8487 -0.0747
  964MOL0     O30013   1.599   5.551   1.458 -0.1649  0.4654 -0.3404
  964MOL0     C30014   1.700   5.549   1.355 -0.0129 -0.1774 -0.2786
  964MOL0     C30015   1.762   5.686   1.344  0.1727 -0.0884 -0.1863
  964MOL0     C30016   1.657   5.802   1.314 -0.1283  0.1508  0.4432
  964MOL0     C30017   1.739   5.930   1.269 -0.4905 -1.1968  0.1245
  964MOL0     C30018   1.806   5.991   1.387 -0.0159  0.8442  0.1058
  964MOL0     C30019   1.900   6.103   1.339 -0.0602  0.8140  0.0673
  964MOL0     C30020   1.830   6.238   1.326 -0.5131 -0.8095  0.2788
  964MOL0     C30021   1.947   6.344   1.313 -1.1992  0.5252 -0.3377
  964MOL0     N30022   2.051   6.348   1.412 -0.8214  0.2116 -0.6992
  964MOL0     C30023   2.040   6.385   1.550  0.0645  1.4129 -0.0400
  964MOL0     C30024   2.162   6.396   1.595 -0.2426  0.8390 -0.0573
  964MOL0     C30025   2.207   6.427   1.733 -0.1225 -0.1407  0.4624
  964MOL0     C30026   2.244   6.301   1.814  0.3795  0.7447 -0.3374
  964MOL0     C30027   2.146   6.260   1.936  1.5404  0.3880 -1.1184
  964MOL0     C30028   2.025   6.185   1.877  0.0547 -0.2107  0.3135
  964MOL0     O30029   1.948   6.117   1.974  0.0882 -1.1635 -0.0814
  964MOL0     C30030   1.838   6.051   1.933  0.6985 -0.6295  0.9517
  964MOL0     C30031   1.757   6.007   2.040 -0.9785  0.2676  0.2455
  964MOL0     C30032   1.631   5.950   2.020 -0.2639 -0.1992 -0.1785
  964MOL0     C30033   1.576   5.904   2.153 -0.7035  0.2406 -0.0517
  964MOL0     C30034   1.596   5.917   1.889  0.2345  0.0341 -0.2857
  964MOL0     C30035   1.460   5.849   1.870  0.3167  0.2166 -0.5512
  964MOL0     O30036   1.441   5.845   1.736  0.7557 -0.0808  0.1382
  964MOL0     C30037   1.319   5.812   1.681 -0.2016  0.5094  0.2674
  964MOL0     C30038   1.214   5.904   1.680 -0.2193  0.5881 -0.1658
  964MOL0     C30039   1.087   5.858   1.637  0.2174  0.6272 -0.2659
  964MOL0     C30040   1.062   5.727   1.598  0.6171  0.4168  0.4542
  964MOL0     O30041   0.928   5.705   1.558  1.0420 -0.4672 -0.4597
  964MOL0     C30042   0.881   5.573   1.523 -0.5702  0.9743  0.4975
  964MOL0     C30043   0.732   5.549   1.552 -1.0644  0.3321  0.3952
  964MOL0     C30044   0.673   5.433   1.472  0.1187 -0.5990  0.3036
  964MOL0     C30045   0.533   5.392   1.524 -0.2431 -0.2417 -0.3529
  964MOL0     C30046   0.446   5.309   1.427 -0.0109 -0.6389  0.1832
  964MOL0     C30047   0.534   5.189   1.382 -0.5534  0.3017 -1.0582
  964MOL0     C30048   0.440   5.058   1.372  0.0048 -0.3340  0.5975
  964MOL0     C30049   0.493   4.939   1.311 -0.4889  0.1675  0.9305
  964MOL0    Cl30050   0.533   4.978   1.144 -0.3245 -0.0801 -0.2718
  964MOL0     C30051   1.169   5.634   1.603  0.4388  0.5935 -0.2791
  964MOL0     C30052   1.296   5.680   1.628 -0.7928  0.3070 -0.1152
  964MOL0     O30053   1.390   5.793   1.954  0.2897 -0.8413 -0.9179
  964MOL0     C30054   1.674   5.960   1.782 -0.5366  0.1981 -0.3829
  964MOL0     C30055   1.795   6.029   1.798 -0.3905 -0.3233 -0.4684
  964MOL0     N30056   2.248   6.380   1.486 -0.2797 -0.2904 -1.2763
  964MOL0     N30057   2.183   6.337   1.388 -0.1315  0.1515 -0.1362
  964MOL0     C30058   1.674   5.511   1.683  0.2995 -0.1984 -0.7337
  964MOL0     C30059   1.682   5.426   1.801  0.2665  0.7702  0.6711
  964MOL0     C30060   1.629   5.116   2.116  0.3041  0.1924 -1.1711
  964MOL0     C30061   1.618   5.133   2.257  0.1291  0.0056  0.0404
  964MOL0     C30062   1.651   5.027   2.346 -0.2009 -0.5209 -0.9627
  964MOL0     C30063   1.693   4.898   2.296 -0.7033 -0.7954 -0.2341
  964MOL0     O30064   1.716   4.784   2.374  0.0345  0.3326  0.9203
  964MOL0     C30065   1.724   4.774   2.517  1.0025 -0.1626 -0.2478
  964MOL0     C30066   1.708   4.629   2.545 -0.3041  0.5817 -1.0581
  964MOL0     C30067   1.806   4.536   2.466 -0.4181  0.4337 -0.4894
  964MOL0     C30068   1.943   4.543   2.539 -0.3969  0.2740  0.7183
  964MOL0     C30069   2.034   4.626   2.460 -0.7326 -0.8611  0.6520
  964MOL0     C30070   2.119   4.694   2.410  0.5410 -0.9552 -0.4961
  964MOL0     C30071   1.700   4.884   2.158  0.2053 -0.6302 -1.5218
  964MOL0     C30072   1.673   4.990   2.074 -0.2229  0.3214 -0.1952
  964MOL0     H30073   1.532   5.159   1.654  0.4801 -0.5027  1.2301
  964MOL0     H30074   1.501   5.312   1.481 -1.0105  1.2286  0.8233
  964MOL0     H30075   1.781   5.482   1.386 -0.4495  0.4395  2.4734
  964MOL0     H30076   1.664   5.515   1.258  0.7070  0.4441 -0.7723
  964MOL0     H30077   1.807   5.695   1.443  1.5988 -4.2305 -0.2616
  964MOL0     H30078   1.847   5.696   1.275  0.4929  0.4842  0.2766
  964MOL0     H30079   1.589   5.775   1.232 -0.5263 -0.8267  1.0816
  964MOL0     H30080   1.584   5.816   1.394  2.2257 -2.6009  3.3526
  964MOL0     H30081   1.804   5.898   1.188 -2.8188 -2.4708 -1.3554
  964MOL0     H30082   1.661   6.000   1.239  2.4040  2.2369  0.0566
  964MOL0     H30083   1.729   6.028   1.456 -0.3954 -2.7701  1.8579
  964MOL0     H30084   1.867   5.912   1.430 -1.5767 -0.5118 -0.0469
  964MOL0     H30085   1.973   6.113   1.420 -1.6548 -0.1512  1.6918
  964MOL0     H30086   1.948   6.079   1.243 -0.7567 -0.1982 -0.0522
  964MOL0     H30087   1.762   6.258   1.243 -1.3330  4.3892  1.7908
  964MOL0     H30088   1.772   6.263   1.416  0.3607 -0.7452  0.8385
  964MOL0     H30089   1.908   6.446   1.308  0.8174  1.3063 -0.8797
  964MOL0     H30090   1.994   6.316   1.218  0.3697  1.2536  0.2078
  964MOL0     H30091   1.953   6.397   1.614  0.0254 -0.1160  0.2360
  964MOL0     H30092   2.299   6.484   1.713 -0.0608 -1.1808 -2.8053
  964MOL0     H30093   2.135   6.493   1.781 -2.2651 -0.7149 -1.7700
  964MOL0     H30094   2.337   6.327   1.865 -0.4722  0.8302  1.2375
  964MOL0     H30095   2.271   6.214   1.753 -1.7479 -0.3157  0.1138
  964MOL0     H30096   2.134   6.344   2.005  1.7779 -0.6725  0.2627
  964MOL0     H30097   2.175   6.178   2.002 -4.0741 -0.9789  0.1675
  964MOL0     H30098   2.059   6.123   1.793 -1.1020  2.1261 -2.0383
  964MOL0     H30099   1.955   6.252   1.826 -0.5298 -0.6758  0.5005
  964MOL0     H30100   1.798   6.043   2.134 -0.4982 -0.0189  0.1509
  964MOL0     H30101   1.619   5.804   2.157  1.3419  1.0839  0.2636
  964MOL0     H30102   1.608   5.956   2.244 -1.8742  2.3377 -0.7737
  964MOL0     H30103   1.467   5.892   2.152 -0.5538 -1.3296 -1.2559
  964MOL0     H30104   1.234   6.005   1.712 -4.3029  1.1055  1.3604
  964MOL0     H30105   0.995   5.916   1.638 -0.9979 -1.1864  0.0660
  964MOL0     H30106   0.891   5.558   1.416 -4.4405 -3.4220  0.4395
  964MOL0     H30107   0.935   5.494   1.578  0.4034  0.9574 -0.4541
  964MOL0     H30108   0.708   5.550   1.659 -3.3102  0.0141 -0.0737
  964MOL0     H30109   0.683   5.641   1.518 -1.9964  0.0465  0.9466
  964MOL0     H30110   0.752   5.357   1.472  1.2875  0.5738  0.7678
  964MOL0     H30111   0.675   5.462   1.367 -0.4727 -2.0957 -0.1553
  964MOL0     H30112   0.526   5.354   1.626  0.6323  0.3949 -0.0453
  964MOL0     H30113   0.485   5.489   1.539 -3.2800 -1.7779  0.6765
  964MOL0     H30114   0.407   5.372   1.347 -0.7273 -0.6525  0.5155
  964MOL0     H30115   0.354   5.277   1.477  1.5766 -4.1267  1.2291
  964MOL0     H30116   0.567   5.216   1.281  0.9185  0.7600 -0.4745
  964MOL0     H30117   0.609   5.177   1.460 -2.0708  1.2767  0.6242
  964MOL0     H30118   0.349   5.086   1.319  1.2124  0.7030 -0.9967
  964MOL0     H30119   0.401   5.040   1.473  0.0508  1.3302  0.9374
  964MOL0     H30120   0.432   4.849   1.317  1.5909 -1.3670  0.3115
  964MOL0     H30121   0.584   4.910   1.364 -0.4432 -1.0008  0.2548
  964MOL0     H30122   1.163   5.531   1.570  1.3003 -0.1876  1.8093
  964MOL0     H30123   1.373   5.605   1.642 -0.2072  1.1222  1.3016
  964MOL0     H30124   1.644   5.941   1.679  0.9602 -2.5563 -0.4211
  964MOL0     H30125   1.847   6.077   1.716 -2.1270  1.8604 -0.3915
  964MOL0     H30126   1.709   5.613   1.690 -0.5357  0.1504 -1.3986
  964MOL0     H30127   1.727   5.459   1.894  0.5988 -0.2085  0.8604
  964MOL0     H30128   1.588   5.226   2.304  0.1520  1.2102 -2.1813
  964MOL0     H30129   1.632   5.036   2.452  0.8724  0.6195 -0.8358
  964MOL0     H30130   1.818   4.815   2.554 -0.0273 -0.2571  2.6739
  964MOL0     H30131   1.639   4.828   2.559  0.8458 -2.8969  3.3572
  964MOL0     H30132   1.605   4.602   2.522 -1.0810  4.3218 -2.7401
  964MOL0     H30133   1.724   4.628   2.653  0.1902  0.5834 -1.1316
  964MOL0     H30134   1.817   4.567   2.361  3.2291  1.3441 -0.0003
  964MOL0     H30135   1.769   4.434   2.480 -2.6312  1.1286 -0.8846
  964MOL0     H30136   1.976   4.439   2.540  3.4837  1.1672 -2.7489
  964MOL0     H30137   1.944   4.593   2.636  0.4492  3.6004 -0.8432
  964MOL0     H30138   2.192   4.768   2.384  1.3147 -1.5777 -0.1663
  964MOL0     H30139   1.735   4.788   2.121  2.6988 -1.2554  1.9123
  964MOL0     H30140   1.702   4.969   1.972  3.8466 -2.3135  1.2172
  965MOL0     O30141   5.343   1.814   3.763 -0.1067 -0.5874  0.0839
  965MOL0     C30142   5.310   1.855   3.654 -0.3525 -0.7075 -0.2757
  965MOL0     O30143   5.287   1.989   3.624 -0.3289 -0.9079 -0.3254
  965MOL0     C30144   5.364   2.079   3.701  0.1354  1.2014  0.2737
  965MOL0     C30145   5.302   2.183   3.776 -0.3199  0.4707 -0.4848
  965MOL0     C30146   5.385   2.268   3.860 -0.4418  0.0293 -0.2975
  965MOL0     C30147   5.525   2.249   3.862  0.4081 -0.0667  0.2295
  965MOL0     O30148   5.607   2.335   3.940  0.1537  0.1466 -0.0994
  965MOL0     C30149   5.733   2.287   3.985 -0.1539 -1.0327 -0.1205
  965MOL0     C30150   5.714   2.184   4.091 -0.1895  0.6913 -0.1235
  965MOL0     C30151   5.665   2.243   4.230 -0.3050  0.1368 -0.2358
  965MOL0     C30152   5.719   2.153   4.348  0.5566 -0.2063  0.4487
  965MOL0     C30153   5.659   2.014   4.343 -0.2166 -0.2716 -0.0486
  965MOL0     C30154   5.643   1.955   4.493  0.5691 -0.0456  0.9316
  965MOL0     C30155   5.531   2.011   4.577  0.6428 -0.9513 -1.1247
  965MOL0     C30156   5.505   1.905   4.688 -0.6106  0.2052 -0.4720
  965MOL0     N30157   5.413   1.946   4.796 -0.2122 -0.4000 -0.4287
  965MOL0     C30158   5.286   1.991   4.768 -0.2696  0.3589 -0.5278
  965MOL0     C30159   5.253   2.073   4.871  0.8411  0.3044  0.5733
  965MOL0     C30160   5.122   2.143   4.864  0.1789  0.2869  0.0949
  965MOL0     C30161   5.121   2.281   4.814  0.5725 -0.3648 -0.2065
  965MOL0     C30162   5.186   2.304   4.681 -0.5421  0.3270  0.3449
  965MOL0     C30163   5.173   2.442   4.626 -0.9608 -0.2225 -0.4977
  965MOL0     O30164   5.036   2.466   4.586  0.1348  0.1655 -0.7736
  965MOL0     C30165   4.983   2.426   4.473  0.6963  0.2139  0.9278
  965MOL0     C30166   5.049   2.363   4.366 -0.6224  0.1409 -0.6545
  965MOL0     C30167   4.981   2.346   4.252 -0.7800 -0.5106  1.2107
  965MOL0     C30168   5.047   2.278   4.139  0.0588 -0.4661 -0.4817
  965MOL0     C30169   4.839   2.386   4.234  0.5628  0.4568 -0.5378
  965MOL0     C30170   4.755   2.345   4.122  0.2768 -0.3869  0.0303
  965MOL0     O30171   4.616   2.329   4.132 -1.0279  1.1101  0.0508
  965MOL0     C30172   4.542   2.285   4.023  0.2904  0.3279  0.6295
  965MOL0     C30173   4.490   2.382   3.932  0.6350 -0.7331 -0.3504
  965MOL0     C30174   4.399   2.327   3.837  0.0134 -0.5329  0.1601
  965MOL0     C30175   4.361   2.196   3.814 -0.8250  0.3487 -0.0805
  965MOL0     O30176   4.306   2.163   3.690  0.4242 -0.1092 -0.0575
  965MOL0     C30177   4.219   2.262   3.633 -0.3952 -0.9242 -0.2074
  965MOL0     C30178   4.113   2.197   3.537 -0.1044 -0.3386 -0.3858
  965MOL0     C30179   4.157   2.219   3.381 -0.7083 -0.0182 -1.3021
  965MOL0     C30180   4.286   2.127   3.362  0.0128 -0.6137  0.7496
  965MOL0     C30181   4.350   2.141   3.223  0.2031  0.2671 -0.0354
  965MOL0     C30182   4.475   2.044   3.228  1.0415  0.7640  0.8205
  965MOL0     C30183   4.538   2.023   3.095 -0.1458 -0.1324  0.4778
  965MOL0     C30184   4.667   2.098   3.063 -0.1059  0.1789 -0.3438
  965MOL0    Cl30185   4.741   2.045   2.917 -0.1513  0.2901  0.1863
  965MOL0     C30186   4.402   2.108   3.915  0.0518 -0.6601 -0.3581
  965MOL0     C30187   4.489   2.154   4.031 -0.8103  0.0385  0.9153
  965MOL0     O30188   4.808   2.347   4.013  0.4590  1.0092 -0.1369
  965MOL0     C30189   4.780   2.445   4.343  0.5268  0.9008 -0.4344
  965MOL0     C30190   4.856   2.475   4.450  0.4877  0.8161 -0.4178
  965MOL0     N30191   5.350   2.067   4.964  0.5424  0.2957  0.3543
  965MOL0     N30192   5.446   1.995   4.919 -0.9679  0.0392  0.2833
  965MOL0     C30193   5.583   2.138   3.791  0.7388  0.3610 -0.5688
  965MOL0     C30194   5.506   2.055   3.708 -0.5397 -0.6012 -0.1518
  965MOL0     C30195   5.304   1.759   3.546  0.3765 -0.0409  0.1928
  965MOL0     C30196   5.342   1.787   3.416 -0.1313  0.6329 -1.2545
  965MOL0     C30197   5.332   1.680   3.321 -0.7069  0.1997 -0.3430
  965MOL0     C30198   5.305   1.549   3.351  0.9394  0.1730  1.4211
  965MOL0     O30199   5.330   1.457   3.255  0.0724 -0.1531  0.3256
  965MOL0     C30200   5.317   1.328   3.287  0.5039  0.7594 -0.3567
  965MOL0     C30201   5.398   1.248   3.187 -0.4298 -1.1964 -0.4687
  965MOL0     C30202   5.378   1.103   3.200  0.3491 -0.6730  1.5445
  965MOL0     C30203   5.451   1.018   3.094  0.0175 -0.7796  0.4288
  965MOL0     C30204   5.451   0.876   3.132 -0.5727 -0.5684  0.3715
  965MOL0     C30205   5.462   0.765   3.167  0.3377  0.4013  0.4368
  965MOL0     C30206   5.263   1.533   3.477 -0.6310  0.2643 -0.1472
  965MOL0     C30207   5.261   1.627   3.576  0.5396  0.2701 -0.8937
  965MOL0     H30208   5.194   2.179   3.764 -0.4541 -1.5726  0.9351
  965MOL0     H30209   5.349   2.352   3.918 -0.0660  0.9213 -1.3258
  965MOL0     H30210   5.797   2.269   3.899  1.8450  0.6927  0.9033
  965MOL0     H30211   5.780   2.375   4.032 -1.9854 -1.1018  2.0145
  965MOL0     H30212   5.660   2.097   4.052 -0.9537  1.3280 -0.4930
  965MOL0     H30213   5.820   2.156   4.094 -0.3590  0.0829  0.6561
  965MOL0     H30214   5.703   2.345   4.246 -1.5604  0.9657 -2.0951
  965MOL0     H30215   5.556   2.246   4.237 -0.4306 -0.4534 -1.5381
  965MOL0     H30216   5.828   2.149   4.344  0.5333 -3.8497 -0.4010
  965MOL0     H30217   5.682   2.199   4.440 -3.6895 -0.0376 -1.0995
  965MOL0     H30218   5.560   2.001   4.297 -0.5892 -1.8381  1.1138
  965MOL0     H30219   5.725   1.954   4.279 -0.1192  1.2974 -1.4837
  965MOL0     H30220   5.625   1.849   4.473  1.9092  0.2876 -2.6287
  965MOL0     H30221   5.738   1.964   4.547  1.5619  0.5310 -0.8457
  965MOL0     H30222   5.552   2.113   4.609 -1.6656 -0.6356 -0.3986
  965MOL0     H30223   5.447   2.014   4.508  1.0167 -0.7514 -1.5740
  965MOL0     H30224   5.596   1.882   4.745 -1.1464  1.0935  0.7955
  965MOL0     H30225   5.466   1.821   4.631 -2.3812  2.6013 -3.0841
  965MOL0     H30226   5.231   1.979   4.675  0.1173 -0.3203 -0.6761
  965MOL0     H30227   5.077   2.082   4.785  1.6027 -2.1168  1.0462
  965MOL0     H30228   5.082   2.141   4.966  2.5601  0.1288  1.0790
  965MOL0     H30229   5.169   2.344   4.890 -1.1393  1.0689 -0.2271
  965MOL0     H30230   5.014   2.302   4.808  0.4857  0.3148  2.5349
  965MOL0     H30231   5.145   2.229   4.614  0.2896 -0.5964  0.8469
  965MOL0     H30232   5.293   2.283   4.692 -0.8125 -1.9299 -0.9162
  965MOL0     H30233   5.241   2.453   4.541  1.4323 -0.0397  1.3301
  965MOL0     H30234   5.215   2.506   4.704  2.7976 -1.5066 -1.2666
  965MOL0     H30235   5.152   2.328   4.363 -0.4604 -0.2084  3.5726
  965MOL0     H30236   5.062   2.363   4.071  1.2147  1.8679  2.4757
  965MOL0     H30237   5.141   2.232   4.171  0.1937  1.2436  1.8251
  965MOL0     H30238   4.981   2.202   4.097 -0.7576  0.8778 -1.7449
  965MOL0     H30239   4.513   2.488   3.931 -3.1822  0.2886 -3.1150
  965MOL0     H30240   4.360   2.400   3.767 -0.2043  0.7826  1.5943
  965MOL0     H30241   4.180   2.328   3.711  2.5464  0.2575  0.3860
  965MOL0     H30242   4.274   2.338   3.576 -2.3235 -0.4199 -1.4851
  965MOL0     H30243   4.092   2.093   3.563 -2.8431  0.5891  1.6084
  965MOL0     H30244   4.018   2.249   3.556 -1.4419 -2.1105 -1.8609
  965MOL0     H30245   4.172   2.328   3.375 -0.3019 -0.1148 -2.2229
  965MOL0     H30246   4.079   2.189   3.310  0.5513 -1.3023 -2.1924
  965MOL0     H30247   4.355   2.152   3.443 -1.5651  0.6430  1.7871
  965MOL0     H30248   4.249   2.027   3.383 -0.8917 -0.5364 -0.3480
  965MOL0     H30249   4.386   2.243   3.206 -0.0506  0.4836  0.6840
  965MOL0     H30250   4.280   2.102   3.148 -0.9706 -0.9535  1.6216
  965MOL0     H30251   4.556   2.073   3.295  2.5969  1.7810 -1.4019
  965MOL0     H30252   4.431   1.948   3.258 -0.1557  1.1170  0.2512
  965MOL0     H30253   4.474   2.053   3.011 -0.4898 -0.1166  0.7474
  965MOL0     H30254   4.561   1.917   3.078  3.5289  0.3460  1.5462
  965MOL0     H30255   4.734   2.078   3.147 -0.4111  0.4226 -0.0408
  965MOL0     H30256   4.650   2.206   3.062 -2.5445 -0.1365  0.6123
  965MOL0     H30257   4.377   2.003   3.911  1.8168 -1.2369  1.8322
  965MOL0     H30258   4.515   2.091   4.115 -1.9164 -1.2179  0.3633
  965MOL0     H30259   4.672   2.456   4.348 -0.3643 -2.4113 -4.9886
  965MOL0     H30260   4.804   2.536   4.524 -1.6475  1.8199 -2.5898
  965MOL0     H30261   5.687   2.109   3.799  0.6058 -1.1385 -3.2911
  965MOL0     H30262   5.559   1.982   3.647 -1.6472 -2.2352  0.7923
  965MOL0     H30263   5.384   1.883   3.389  1.8587  0.3583  0.5753
  965MOL0     H30264   5.378   1.692   3.223  0.2841 -0.1693  0.0712
  965MOL0     H30265   5.352   1.303   3.388  2.9228 -1.8823 -1.6889
  965MOL0     H30266   5.210   1.305   3.287  0.3048  1.5492  1.2815
  965MOL0     H30267   5.503   1.273   3.203 -0.6456  0.2138 -1.0979
  965MOL0     H30268   5.350   1.278   3.093 -4.6860  2.7569  2.5231
  965MOL0     H30269   5.270   1.085   3.199  0.1996 -0.4881 -2.4308
  965MOL0     H30270   5.409   1.065   3.298  0.8617 -1.2281  1.1720
  965MOL0     H30271   5.549   1.063   3.109  0.9720 -1.8219 -2.1915
  965MOL0     H30272   5.436   1.041   2.988 -0.6057  1.4370  0.9542
  965MOL0     H30273   5.447   0.669   3.212 -2.7137 -0.7237 -2.5516
  965MOL0     H30274   5.238   1.434   3.513  0.4463 -0.4543 -1.2767
  965MOL0     H30275   5.229   1.616   3.679  2.2907  3.7124  0.1716
  966MOL0     O30276   4.283   4.914  10.091 -0.9394  0.7332  0.1178
  966MOL0     C30277   4.245   4.964   9.988  0.0494  0.7127  1.1278
  966MOL0     O30278   4.236   4.897   9.866 -0.4098  0.2688 -0.4286
  966MOL0     C30279   4.308   4.778   9.845  2.2090 -0.8529  0.2317
  966MOL0     C30280   4.371   4.770   9.723  0.2945  0.4726 -0.9617
  966MOL0     C30281   4.422   4.650   9.680  0.1411 -0.4162 -0.1690
  966MOL0     C30282   4.400   4.532   9.748 -0.1062 -0.3695  0.6032
  966MOL0     O30283   4.419   4.399   9.713  0.3232  1.5675  0.0749
  966MOL0     C30284   4.508   4.382   9.605  0.7399  0.6420  0.4513
  966MOL0     C30285   4.547   4.229   9.595  1.1230 -0.0185  0.2557
  966MOL0     C30286   4.633   4.197   9.468 -0.3111  0.0227 -0.1617
  966MOL0     C30287   4.581   4.262   9.334 -0.4899 -0.3896 -0.1766
  966MOL0     C30288   4.466   4.179   9.258 -0.0317  0.0105  0.5707
  966MOL0     C30289   4.524   4.047   9.196  0.2275  0.3185  0.1612
  966MOL0     C30290   4.469   3.916   9.255  0.6959  0.3338 -0.1040
  966MOL0     C30291   4.318   3.888   9.203  0.0876  0.4174  0.6763
  966MOL0     N30292   4.285   3.742   9.202 -0.0381  0.5239  0.0988
  966MOL0     C30293   4.212   3.674   9.116  0.5003  0.8630  0.8638
  966MOL0     C30294   4.228   3.547   9.139  1.3235 -0.7973 -0.1279
  966MOL0     C30295   4.166   3.430   9.072  0.0358  0.8115 -1.1010
  966MOL0     C30296   4.162   3.454   8.918 -0.0766 -0.3097 -0.4229
  966MOL0     C30297   4.116   3.329   8.850 -0.1584  1.2608 -0.4360
  966MOL0     C30298   4.065   3.334   8.710 -0.0026 -0.5089  0.4742
  966MOL0     O30299   4.171   3.356   8.615  0.0396  0.3496 -0.4266
  966MOL0     C30300   4.139   3.369   8.481  1.1931  0.2975 -0.0810
  966MOL0     C30301   4.012   3.362   8.428 -0.2464 -0.4995  0.3249
  966MOL0     C30302   3.982   3.395   8.291 -0.7389  0.5392 -0.5623
  966MOL0     C30303   3.839   3.391   8.248  0.4432 -0.5286 -0.2946
  966MOL0     C30304   4.086   3.430   8.203  0.1401 -0.6390  1.2208
  966MOL0     C30305   4.072   3.467   8.055 -1.1007 -0.7588  0.1048
  966MOL0     O30306   4.183   3.475   7.973 -0.0051 -0.3798  0.0891
  966MOL0     C30307   4.180   3.543   7.856 -0.3668  0.0868  0.2005
  966MOL0     C30308   4.110   3.661   7.815  0.1145 -0.5139 -0.6408
  966MOL0     C30309   4.133   3.715   7.686  0.2972 -0.2934 -0.7684
  966MOL0     C30310   4.213   3.654   7.587 -1.0854  0.0455 -1.0795
  966MOL0     O30311   4.221   3.692   7.457  0.0349  0.3038 -0.2735
  966MOL0     C30312   4.197   3.591   7.357 -0.2836  0.6884 -0.2382
  966MOL0     C30313   4.152   3.651   7.220  0.2023  0.4656  0.5091
  966MOL0     C30314   4.141   3.539   7.115 -0.5954 -0.3255  0.7752
  966MOL0     C30315   4.090   3.585   6.981  1.2112  0.4531  0.5376
  966MOL0     C30316   4.097   3.481   6.875 -0.0519 -0.1971  0.3080
  966MOL0     C30317   4.240   3.444   6.830 -0.1204 -0.1732 -0.0192
  966MOL0     C30318   4.330   3.554   6.783 -0.3846 -0.1084 -0.8084
  966MOL0     C30319   4.263   3.642   6.676  0.7807 -0.3202  0.8477
  966MOL0    Cl30320   4.201   3.533   6.539 -0.2469 -0.5197 -0.1223
  966MOL0     C30321   4.293   3.547   7.647 -0.0831 -0.3511 -0.1952
  966MOL0     C30322   4.274   3.493   7.770 -0.9213  0.5298  0.4112
  966MOL0     O30323   3.961   3.502   8.017 -0.5943 -0.3982  0.2000
  966MOL0     C30324   4.212   3.426   8.262 -0.1813 -0.2559  0.0370
  966MOL0     C30325   4.241   3.397   8.397  0.7210  0.5312 -0.0708
  966MOL0     N30326   4.301   3.541   9.254  0.0201  0.0768  1.3662
  966MOL0     N30327   4.346   3.661   9.277 -0.1795 -0.1014  0.5814
  966MOL0     C30328   4.319   4.537   9.861 -0.4560  0.7778  0.1031
  966MOL0     C30329   4.278   4.662   9.913  0.2273  0.6192 -0.4046
  966MOL0     C30330   4.209   5.108   9.982 -0.2153  1.2469 -0.2501
  966MOL0     C30331   4.230   5.190  10.093 -0.9977  0.0849 -0.5947
  966MOL0     C30332   4.197   5.325  10.097 -0.6374  0.1752 -0.3601
  966MOL0     C30333   4.136   5.368   9.990  0.5519  0.2691  0.0034
  966MOL0     O30334   4.103   5.501   9.991  0.4838  0.4046 -0.9373
  966MOL0     C30335   4.216   5.578   9.934  0.6326  0.5955 -0.8330
  966MOL0     C30336   4.190   5.727   9.942  0.0362 -0.0224  0.0329
  966MOL0     C30337   4.147   5.763  10.082 -0.3721 -0.1523 -0.9830
  966MOL0     C30338   4.188   5.910  10.125  0.6349  0.1318 -0.0602
  966MOL0     C30339   4.074   6.001  10.107 -0.1834 -0.9443 -0.0920
  966MOL0     C30340   3.977   6.073  10.078 -0.5565 -0.6740  0.4059
  966MOL0     C30341   4.096   5.296   9.874 -0.0581 -0.4096  0.2852
  966MOL0     C30342   4.157   5.170   9.867 -0.9035 -0.2971  0.1798
  966MOL0     H30343   4.376   4.858   9.660 -0.1242  0.3005 -1.2427
  966MOL0     H30344   4.469   4.651   9.582  1.8724 -2.9406  0.5232
  966MOL0     H30345   4.458   4.423   9.517  0.6979  2.0174  1.0938
  966MOL0     H30346   4.606   4.430   9.621  2.2453 -2.8643  2.9148
  966MOL0     H30347   4.586   4.195   9.692 -3.6734  0.1002  2.5000
  966MOL0     H30348   4.458   4.165   9.595  1.5501 -0.6398  1.0002
  966MOL0     H30349   4.740   4.221   9.476  0.0627 -1.8946  1.1909
  966MOL0     H30350   4.625   4.088   9.466  0.4078 -0.0280 -1.7002
  966MOL0     H30351   4.547   4.365   9.342 -1.2065 -0.6849  0.6636
  966MOL0     H30352   4.661   4.256   9.259 -0.1951  0.6331  0.0385
  966MOL0     H30353   4.384   4.172   9.330 -0.4124 -0.0690  0.1414
  966MOL0     H30354   4.421   4.239   9.178 -4.9550 -0.7203  2.4020
  966MOL0     H30355   4.510   4.050   9.087  0.8535  0.6201  0.0892
  966MOL0     H30356   4.630   4.037   9.218 -0.3506 -0.6718  2.8983
  966MOL0     H30357   4.540   3.844   9.216  2.3088  0.5690  2.1571
  966MOL0     H30358   4.469   3.925   9.364 -2.0477  1.2023 -0.0882
  966MOL0     H30359   4.321   3.942   9.108  2.1902  0.2694  0.6237
  966MOL0     H30360   4.246   3.939   9.269  1.2134  2.6755  0.2467
  966MOL0     H30361   4.161   3.720   9.032 -2.5000 -1.0681  1.4811
  966MOL0     H30362   4.215   3.337   9.102 -1.9672 -0.6815 -2.1989
  966MOL0     H30363   4.063   3.419   9.106 -0.2574 -2.6783 -2.5897
  966MOL0     H30364   4.261   3.483   8.882  0.7001 -1.4311  0.7503
  966MOL0     H30365   4.092   3.534   8.892 -1.2153 -1.7561 -2.0227
  966MOL0     H30366   4.028   3.303   8.911  1.0873  1.1177  1.3962
  966MOL0     H30367   4.192   3.250   8.855 -0.6911  0.7530 -0.1541
  966MOL0     H30368   3.975   3.395   8.703  0.4861  0.0906 -0.7399
  966MOL0     H30369   4.028   3.235   8.684 -0.9803 -0.3117  1.0585
  966MOL0     H30370   3.936   3.334   8.500 -0.1052  1.3222  1.2627
  966MOL0     H30371   3.821   3.328   8.160  0.1744 -1.2774  0.2839
  966MOL0     H30372   3.767   3.360   8.324 -0.7780  4.2419  0.8090
  966MOL0     H30373   3.809   3.494   8.228 -0.8809 -0.7548  0.4269
  966MOL0     H30374   4.047   3.711   7.888  3.3062  0.4289  1.6683
  966MOL0     H30375   4.061   3.795   7.671  0.9652 -0.0528 -3.0399
  966MOL0     H30376   4.292   3.538   7.344  0.6264  1.5906  2.1444
  966MOL0     H30377   4.123   3.517   7.388  1.4915 -0.3739  1.8091
  966MOL0     H30378   4.068   3.721   7.224  1.0672  1.4952  3.9099
  966MOL0     H30379   4.234   3.715   7.184 -2.2422  2.1871 -2.5232
  966MOL0     H30380   4.080   3.455   7.150  0.0202 -1.1314 -0.0395
  966MOL0     H30381   4.241   3.499   7.097 -0.5857  0.2825 -0.7339
  966MOL0     H30382   3.983   3.603   6.994  0.0383 -2.6419 -2.9626
  966MOL0     H30383   4.134   3.675   6.936  0.5840  0.7472  0.4958
  966MOL0     H30384   4.027   3.516   6.799 -1.4428  2.3238  2.5351
  966MOL0     H30385   4.043   3.400   6.924 -1.7873  1.4294  1.2509
  966MOL0     H30386   4.293   3.390   6.909  2.4158  3.1595  0.7760
  966MOL0     H30387   4.223   3.367   6.754 -1.9419 -1.6423  1.7303
  966MOL0     H30388   4.416   3.498   6.746 -0.4623 -2.1688  1.8089
  966MOL0     H30389   4.362   3.609   6.873  0.0008  0.0700 -1.0505
  966MOL0     H30390   4.354   3.701   6.658  1.9039 -1.9176  1.0205
  966MOL0     H30391   4.177   3.698   6.713  1.5372  1.9997 -0.6851
  966MOL0     H30392   4.376   3.507   7.588 -0.5302  0.5531 -1.4838
  966MOL0     H30393   4.330   3.408   7.807 -4.1076 -1.6756  0.5843
  966MOL0     H30394   4.289   3.449   8.188  1.3251 -1.4916  1.1588
  966MOL0     H30395   4.342   3.410   8.434  0.3913 -0.7950  1.3907
  966MOL0     H30396   4.277   4.445   9.901  0.7205  0.2901  0.2717
  966MOL0     H30397   4.214   4.673  10.000 -0.3631 -1.9047 -0.4330
  966MOL0     H30398   4.277   5.153  10.183 -1.6231  1.2742  0.2603
  966MOL0     H30399   4.228   5.375  10.188 -2.8134  0.7628  0.1010
  966MOL0     H30400   4.304   5.549   9.991 -2.7450 -3.1319  3.2315
  966MOL0     H30401   4.239   5.553   9.830 -0.9907  0.4658 -1.1893
  966MOL0     H30402   4.106   5.751   9.876  2.6478 -1.2272 -4.0462
  966MOL0     H30403   4.272   5.786   9.901  0.2365  0.4392  1.0729
  966MOL0     H30404   4.208   5.695  10.143 -1.4019 -2.7155 -2.6489
  966MOL0     H30405   4.042   5.737  10.101 -0.2425  0.1984  0.3703
  966MOL0     H30406   4.276   5.947  10.072 -0.1090  1.1476 -0.6206
  966MOL0     H30407   4.200   5.915  10.234 -1.6459  2.9974  0.1824
  966MOL0     H30408   3.902   6.147  10.061  0.2742  0.3081  0.9050
  966MOL0     H30409   4.037   5.348   9.800  1.1422  1.3416  0.5076
  966MOL0     H30410   4.152   5.116   9.773 -0.7159  1.7152 -1.0364
  967MOL0     O30411  10.988   3.428   6.952  0.0963  0.4428  0.0044
  967MOL0     C30412  10.943   3.510   6.872 -0.2557  0.8963 -0.2966
  967MOL0     O30413  10.882   3.627   6.917 -0.3534  0.6090  0.2283
  967MOL0     C30414  10.885   3.686   7.041  0.3282 -0.7317  1.0709
  967MOL0     C30415  10.910   3.826   7.054  0.2409  0.2056  0.3128
  967MOL0     C30416  10.918   3.887   7.174 -1.1740 -0.5564  0.5855
  967MOL0     C30417  10.910   3.819   7.288  0.3097 -0.2120  0.0034
  967MOL0     O30418  10.917   3.872   7.414  0.0498  0.4770 -0.2289
  967MOL0     C30419  10.843   3.994   7.432 -0.2658  0.6164 -0.2474
  967MOL0     C30420  10.814   4.004   7.584  0.5983 -1.5000  0.2098
  967MOL0     C30421  10.715   3.895   7.634  0.1109 -0.7216  0.2415
  967MOL0     C30422  10.656   3.938   7.766  0.3087  1.8681  0.0458
  967MOL0     C30423  10.534   3.846   7.802 -1.0956  0.2023 -0.2694
  967MOL0     C30424  10.412   3.872   7.721 -0.1147 -0.5755  0.1854
  967MOL0     C30425  10.319   3.969   7.790  0.0182 -0.0179  0.4170
  967MOL0     C30426  10.175   3.928   7.786 -0.3183  0.2177  0.1758
  967MOL0     N30427  10.119   3.929   7.651  0.5904  0.2800 -0.2136
  967MOL0     C30428  10.090   4.049   7.586 -0.0273  0.6490  0.0254
  967MOL0     C30429  10.093   4.014   7.457  0.8720  0.2750 -0.6539
  967MOL0     C30430  10.108   4.128   7.366 -0.1600 -0.1531  0.0787
  967MOL0     C30431   9.972   4.179   7.328  0.9615 -0.6629 -0.4752
  967MOL0     C30432   9.925   4.086   7.218 -0.8870  0.1673  0.0181
  967MOL0     C30433   9.791   4.125   7.155  0.2454  0.3402 -0.9191
  967MOL0     O30434   9.793   4.263   7.117  0.2300 -0.3607 -0.0181
  967MOL0     C30435   9.664   4.329   7.121  0.1034 -0.1413 -0.5995
  967MOL0     C30436   9.544   4.279   7.078 -0.3805  0.0748  0.3741
  967MOL0     C30437   9.429   4.361   7.078 -0.3602 -0.8556 -0.0744
  967MOL0     C30438   9.311   4.298   7.019  0.0447 -0.1444 -0.4395
  967MOL0     C30439   9.428   4.490   7.134 -0.0358  1.0382  0.8760
  967MOL0     C30440   9.307   4.574   7.117 -0.1511 -0.3610  0.1779
  967MOL0     O30441   9.233   4.576   7.012  0.2137  0.8137 -0.2262
  967MOL0     C30442   9.168   4.682   6.952 -0.2547 -0.4232 -0.6276
  967MOL0     C30443   9.096   4.651   6.836 -0.7998  0.0752  0.3266
  967MOL0     C30444   9.036   4.756   6.766  0.3096 -0.7487 -0.1601
  967MOL0     C30445   9.032   4.885   6.824 -0.0773  0.7189  0.9791
  967MOL0     O30446   8.973   4.984   6.746  0.3651 -0.1742 -0.2522
  967MOL0     C30447   8.988   5.128   6.768 -0.0705  0.9319  0.1503
  967MOL0     C30448   8.906   5.181   6.647 -0.4976  0.8262 -0.0610
  967MOL0     C30449   8.927   5.145   6.509  0.6142  0.7131  0.1223
  967MOL0     C30450   8.835   5.019   6.475 -0.2271  0.1997  0.2253
  967MOL0     C30451   8.836   4.993   6.325  0.6012 -0.8424  0.4767
  967MOL0     C30452   8.829   4.847   6.278 -0.4733  0.1672  0.3386
  967MOL0     C30453   8.970   4.777   6.312  0.2219 -0.4119  0.4115
  967MOL0     C30454   9.072   4.809   6.208  0.3463  0.5423  0.2179
  967MOL0    Cl30455   9.242   4.757   6.226  0.2420  0.3558 -0.0057
  967MOL0     C30456   9.087   4.903   6.948  0.3489 -0.3091 -0.9584
  967MOL0     C30457   9.161   4.811   7.006  0.1383 -0.2043 -0.1085
  967MOL0     O30458   9.300   4.651   7.207 -0.1055 -0.8058 -0.3041
  967MOL0     C30459   9.546   4.539   7.187 -0.6176  0.5443  0.6707
  967MOL0     C30460   9.664   4.469   7.175  0.9558  0.8436  0.1151
  967MOL0     N30461  10.121   3.873   7.444 -0.7985 -0.2280 -0.5874
  967MOL0     N30462  10.128   3.822   7.570  0.3449 -0.7405  1.0802
  967MOL0     C30463  10.879   3.682   7.283 -0.7991  0.5381 -0.1524
  967MOL0     C30464  10.873   3.613   7.163  0.2735  0.3411  1.1642
  967MOL0     C30465  10.970   3.493   6.731  0.3868  0.4581  0.8876
  967MOL0     C30466  11.015   3.595   6.647  0.4519  0.2777  0.3598
  967MOL0     C30467  11.041   3.573   6.515  0.0793 -0.1822  0.1993
  967MOL0     C30468  11.028   3.445   6.467 -0.4508  0.6002  0.3790
  967MOL0     O30469  11.058   3.422   6.335 -0.0832  0.6766 -0.0204
  967MOL0     C30470  10.948   3.456   6.246 -0.0174 -0.2148  0.3513
  967MOL0     C30471  10.969   3.378   6.111 -0.2443  0.0250 -0.1340
  967MOL0     C30472  10.865   3.427   6.005 -0.3506 -0.1206 -0.5322
  967MOL0     C30473  10.898   3.569   5.945  1.2831 -0.0751 -0.7281
  967MOL0     C30474  11.023   3.573   5.858  1.3220  0.1848 -0.2704
  967MOL0     C30475  11.126   3.577   5.798  0.1771  0.5156  0.4958
  967MOL0     C30476  10.987   3.342   6.541  0.0089 -0.2757 -0.8286
  967MOL0     C30477  10.947   3.369   6.677  0.1367 -0.5935 -0.0428
  967MOL0     H30478  10.935   3.886   6.967 -4.4469 -0.5560 -1.9055
  967MOL0     H30479  10.935   3.992   7.152 -1.1838 -1.3360 -4.1962
  967MOL0     H30480  10.907   4.076   7.400  0.0461  0.4516 -0.0454
  967MOL0     H30481  10.747   3.992   7.379  0.6003  2.4116 -2.0462
  967MOL0     H30482  10.898   3.995   7.654 -0.9861  1.5375  2.7261
  967MOL0     H30483  10.776   4.102   7.614  1.0872 -2.4105  4.4021
  967MOL0     H30484  10.638   3.878   7.559  2.2119 -0.2428 -2.1786
  967MOL0     H30485  10.784   3.811   7.641 -1.3619 -2.1072 -1.1259
  967MOL0     H30486  10.734   3.926   7.842 -1.1421  0.5556  1.4125
  967MOL0     H30487  10.623   4.042   7.770  1.0834  2.1764 -1.1132
  967MOL0     H30488  10.570   3.743   7.793 -0.6201  0.5320 -3.5160
  967MOL0     H30489  10.514   3.858   7.909 -1.6342  1.0855 -0.4595
  967MOL0     H30490  10.425   3.905   7.618 -3.9353  1.9314  0.3234
  967MOL0     H30491  10.365   3.773   7.714 -0.0160 -0.6063 -0.0405
  967MOL0     H30492  10.347   3.993   7.893 -4.6281  0.8555  1.6902
  967MOL0     H30493  10.331   4.072   7.754  3.4720  0.6306  2.9154
  967MOL0     H30494  10.125   4.003   7.849  0.4368  0.8162  0.0645
  967MOL0     H30495  10.158   3.833   7.837 -0.4244  2.4806  4.8779
  967MOL0     H30496  10.079   4.136   7.650  1.7188  0.0278  1.2433
  967MOL0     H30497  10.175   4.204   7.410 -1.3892  1.1467 -0.2208
  967MOL0     H30498  10.164   4.086   7.282  1.5116  0.5137  0.8083
  967MOL0     H30499   9.970   4.286   7.307 -2.1661 -0.1355  1.7881
  967MOL0     H30500   9.899   4.174   7.409 -1.5870  2.0329 -2.3952
  967MOL0     H30501   9.908   3.985   7.257 -3.4410  1.1448  1.7287
  967MOL0     H30502   9.995   4.093   7.134 -2.3794  1.0947 -1.2045
  967MOL0     H30503   9.718   4.108   7.235  2.6303 -2.1353  0.9408
  967MOL0     H30504   9.772   4.050   7.078 -1.8793  0.7933 -0.8990
  967MOL0     H30505   9.532   4.179   7.039  1.5745  0.1886 -0.6637
  967MOL0     H30506   9.215   4.342   7.049  0.1433  1.2502 -2.0277
  967MOL0     H30507   9.319   4.305   6.910 -1.1670 -0.6025 -0.5784
  967MOL0     H30508   9.291   4.194   7.044  0.1490  0.1307  0.8395
  967MOL0     H30509   9.097   4.557   6.781  5.1789  1.0256 -1.9553
  967MOL0     H30510   8.992   4.744   6.667 -2.0209  0.3032  0.6925
  967MOL0     H30511   8.953   5.161   6.866 -1.0812 -3.1282  1.3573
  967MOL0     H30512   9.093   5.155   6.753 -0.2273  1.2707 -0.3505
  967MOL0     H30513   8.802   5.165   6.675 -0.6169 -2.3472 -1.8946
  967MOL0     H30514   8.916   5.290   6.657 -2.1711  0.8293  2.1427
  967MOL0     H30515   9.035   5.132   6.496  0.2105  0.4355 -4.6073
  967MOL0     H30516   8.889   5.229   6.451 -0.2908  0.1911 -0.0480
  967MOL0     H30517   8.858   4.929   6.533  1.9653  1.9510  2.2853
  967MOL0     H30518   8.729   5.041   6.488 -0.1500  0.9408 -0.3235
  967MOL0     H30519   8.917   5.046   6.275 -0.0700 -1.4678 -1.3750
  967MOL0     H30520   8.747   5.036   6.277  2.8186  1.2255 -2.1019
  967MOL0     H30521   8.741   4.802   6.324 -1.0780  1.8072  0.8611
  967MOL0     H30522   8.814   4.845   6.169 -2.0017 -1.6513  0.5319
  967MOL0     H30523   8.955   4.672   6.339 -1.1393 -0.9231 -2.0566
  967MOL0     H30524   9.001   4.821   6.407 -0.5571  0.8094  0.1210
  967MOL0     H30525   9.064   4.918   6.205 -2.6884  0.4932  2.1956
  967MOL0     H30526   9.032   4.786   6.109 -0.2027  0.4434  0.4573
  967MOL0     H30527   9.101   5.005   6.984 -1.3670  0.6773 -2.8461
  967MOL0     H30528   9.222   4.836   7.092 -1.7747 -1.9076  1.8760
  967MOL0     H30529   9.533   4.643   7.218 -0.4075  0.6342  0.4644
  967MOL0     H30530   9.757   4.513   7.209  0.9687 -0.6579  2.2011
  967MOL0     H30531  10.869   3.624   7.374  3.6392 -1.4289 -0.6710
  967MOL0     H30532  10.838   3.510   7.157  2.1828 -0.5273  3.2607
  967MOL0     H30533  11.034   3.690   6.697  0.8843 -0.8346  2.4346
  967MOL0     H30534  11.082   3.659   6.464  0.0593  0.0175  0.5171
  967MOL0     H30535  10.861   3.410   6.294 -0.7676  0.2217 -0.5664
  967MOL0     H30536  10.948   3.565   6.239  0.4082 -0.1195  1.6054
  967MOL0     H30537  10.958   3.270   6.120 -1.0191 -0.0550 -1.6376
  967MOL0     H30538  11.070   3.405   6.077  0.2101 -0.0144  1.1432
  967MOL0     H30539  10.767   3.427   6.055 -1.3514 -1.6171 -2.3707
  967MOL0     H30540  10.864   3.357   5.922  2.5358 -1.4980  0.4848
  967MOL0     H30541  10.912   3.627   6.037 -1.6109 -1.7701  0.9212
  967MOL0     H30542  10.813   3.604   5.887 -0.9009  1.1036  2.8758
  967MOL0     H30543  11.227   3.591   5.764  1.1767  1.9861  3.6954
  967MOL0     H30544  10.990   3.237   6.515  0.8261 -0.7694  1.1029
  967MOL0     H30545  10.925   3.290   6.748 -0.8183  1.7741  2.5051
  968MOL0     O30546   1.472  11.188   3.823 -0.3500 -1.0870 -0.4348
  968MOL0     C30547   1.565  11.256   3.784 -0.9542  0.5254 -0.6218
  968MOL0     O30548   1.575  11.306   3.663 -0.2009  0.6797 -0.5913
  968MOL0     C30549   1.474  11.362   3.599  0.2358  0.8176  0.3291
  968MOL0     C30550   1.335  11.350   3.623 -0.4320 -0.1609  0.0411
  968MOL0     C30551   1.237  11.427   3.549 -0.5228  0.0884  0.0516
  968MOL0     C30552   1.275  11.528   3.465  1.1902 -0.4740  0.4180
  968MOL0     O30553   1.191  11.606   3.391  0.0425  0.3735 -0.6951
  968MOL0     C30554   1.054  11.564   3.376 -0.0010  0.3719 -0.0798
  968MOL0     C30555   0.984  11.657   3.281  0.6968  0.4138 -0.0830
  968MOL0     C30556   0.834  11.623   3.277  0.7425  0.1561 -0.2740
  968MOL0     C30557   0.758  11.699   3.168 -0.1073 -0.4570  1.0295
  968MOL0     C30558   0.607  11.679   3.189 -1.2587 -0.2698  0.5038
  968MOL0     C30559   0.516  11.766   3.100 -0.6201 -0.1989 -0.1859
  968MOL0     C30560   0.375  11.736   3.137  0.6935 -0.5076  0.0799
  968MOL0     C30561   0.278  11.814   3.046 -0.4030 -0.0888 -0.0408
  968MOL0     N30562   0.195  11.704   2.990 -0.4827  0.3669 -0.2464
  968MOL0     C30563   0.231  11.606   2.898 -0.3478 -1.1092  0.1193
  968MOL0     C30564   0.120  11.559   2.837 -0.5563  0.7225 -1.2635
  968MOL0     C30565   0.116  11.454   2.728 -0.0675  0.5235  0.2097
  968MOL0     C30566   0.176  11.313   2.746 -0.1291  0.1748 -0.6613
  968MOL0     C30567   0.157  11.227   2.611 -0.8316  0.1197 -0.2028
  968MOL0     C30568   0.195  11.081   2.632 -0.3302  0.3823  0.0366
  968MOL0     O30569   0.168  11.008   2.510  0.4969  0.1836 -0.6298
  968MOL0     C30570   0.159  10.871   2.528  0.7402 -0.8029 -0.9839
  968MOL0     C30571   0.038  10.804   2.570 -0.5141  0.0883 -0.2412
  968MOL0     C30572   0.029  10.664   2.586  0.2033 -0.4081  0.6977
  968MOL0     C30573  -0.106  10.614   2.616 -0.4949 -0.4074 -0.2419
  968MOL0     C30574   0.145  10.591   2.573 -0.6460 -0.0159  0.9282
  968MOL0     C30575   0.142  10.450   2.581  1.7089 -0.2096  0.3927
  968MOL0     O30576   0.213  10.394   2.483 -0.1741  0.6279 -0.2720
  968MOL0     C30577   0.203  10.262   2.468 -0.2065  0.0924 -0.0569
  968MOL0     C30578   0.285  10.181   2.547 -0.0192 -0.4292 -0.1069
  968MOL0     C30579   0.273  10.046   2.541  0.5064  0.7360  0.7387
  968MOL0     C30580   0.168   9.999   2.452  0.3441 -0.1250  0.2630
  968MOL0     O30581   0.136   9.869   2.457 -0.1516 -0.9725 -0.3723
  968MOL0     C30582   0.125   9.802   2.584 -0.9128 -0.0683  0.4730
  968MOL0     C30583   0.073   9.657   2.574 -0.1225  0.3384 -0.2546
  968MOL0     C30584  -0.072   9.667   2.524 -0.1369  0.3058 -0.1848
  968MOL0     C30585  -0.133   9.527   2.483  0.1191 -0.6242 -0.3609
  968MOL0     C30586  -0.260   9.538   2.394 -0.0300 -0.0228  0.6577
  968MOL0     C30587  -0.265   9.401   2.316  0.7073  0.0799 -0.3994
  968MOL0     C30588  -0.381   9.407   2.225 -0.5376  0.6920  0.5399
  968MOL0     C30589  -0.424   9.274   2.163 -1.0077  0.6610 -0.5032
  968MOL0    Cl30590  -0.597   9.253   2.171  0.0870 -0.2000  0.0507
  968MOL0     C30591   0.088  10.084   2.367 -0.2058  0.1159  0.4386
  968MOL0     C30592   0.110  10.220   2.369  0.0898  0.3971 -0.1788
  968MOL0     O30593   0.078  10.391   2.673 -0.1591  0.7428 -0.7638
  968MOL0     C30594   0.265  10.651   2.531  1.0783 -0.3761 -0.6004
  968MOL0     C30595   0.267  10.791   2.512 -0.0337  0.6202  0.4757
  968MOL0     N30596   0.009  11.607   2.902  0.5712  0.2708 -0.0958
  968MOL0     N30597   0.062  11.697   2.989  0.5510  0.5640  1.5130
  968MOL0     C30598   1.414  11.542   3.443  0.2125  0.2723 -0.5811
  968MOL0     C30599   1.515  11.462   3.506  0.2125 -1.3428 -0.0220
  968MOL0     C30600   1.681  11.266   3.864  0.4354  0.4662 -0.6349
  968MOL0     C30601   1.769  11.373   3.844  0.0401 -0.0188  0.6889
  968MOL0     C30602   1.872  11.384   3.938  0.4448  0.1140 -0.2467
  968MOL0     C30603   1.904  11.292   4.037 -0.5988 -0.1825  0.8971
  968MOL0     O30604   2.023  11.318   4.106 -0.7029  0.7794  0.3180
  968MOL0     C30605   2.069  11.220   4.196  0.2853  0.0311  0.6057
  968MOL0     C30606   2.198  11.266   4.267  0.0691 -0.5040  0.3108
  968MOL0     C30607   2.181  11.388   4.349 -0.1182  0.3813 -0.6950
  968MOL0     C30608   2.158  11.523   4.274  0.1626  0.0801  0.6957
  968MOL0     C30609   2.166  11.623   4.384  0.6469  0.9962 -0.9257
  968MOL0     C30610   2.153  11.692   4.491 -0.1573  0.2221 -0.4668
  968MOL0     C30611   1.816  11.183   4.058 -0.0735 -0.8302 -0.0490
  968MOL0     C30612   1.701  11.169   3.969  0.3325 -0.4314  0.9318
  968MOL0     H30613   1.295  11.282   3.697  0.4716 -3.0268 -1.9326
  968MOL0     H30614   1.130  11.409   3.559 -0.4121 -0.3838  0.4282
  968MOL0     H30615   1.041  11.461   3.342  1.1689  0.0423  0.3943
  968MOL0     H30616   1.007  11.586   3.473  0.6127 -0.4009  0.4046
  968MOL0     H30617   0.999  11.759   3.318 -0.1975  0.6354 -0.3111
  968MOL0     H30618   1.014  11.629   3.180 -2.5666 -0.2560 -0.9728
  968MOL0     H30619   0.810  11.519   3.254  0.1849  0.1021  0.5124
  968MOL0     H30620   0.795  11.657   3.374  1.2823  2.3093 -0.7596
  968MOL0     H30621   0.782  11.806   3.178  2.2528 -0.6837 -1.2169
  968MOL0     H30622   0.782  11.660   3.069 -3.2532  1.6269 -0.7556
  968MOL0     H30623   0.584  11.574   3.176  1.9523 -0.9796 -0.3613
  968MOL0     H30624   0.588  11.709   3.293  0.2362  2.2582  0.1380
  968MOL0     H30625   0.536  11.873   3.111  0.3082 -0.2914 -0.8461
  968MOL0     H30626   0.530  11.726   2.999 -0.8115  0.0210 -0.2991
  968MOL0     H30627   0.356  11.629   3.146  1.5964 -0.5990  1.0365
  968MOL0     H30628   0.355  11.771   3.238 -1.8348  0.9723 -0.8466
  968MOL0     H30629   0.328  11.872   2.968  0.6559 -0.6743  0.1699
  968MOL0     H30630   0.216  11.891   3.092 -2.7098  0.2763 -3.4343
  968MOL0     H30631   0.334  11.585   2.874 -0.7285 -0.6639 -2.1001
  968MOL0     H30632   0.013  11.444   2.695 -0.1863  1.8152  0.1041
  968MOL0     H30633   0.169  11.502   2.645 -1.9478 -1.9554 -2.6050
  968MOL0     H30634   0.125  11.260   2.827 -0.7820  2.2491  0.3571
  968MOL0     H30635   0.277  11.317   2.787 -0.5977 -1.7046  0.8133
  968MOL0     H30636   0.220  11.268   2.531 -1.9222 -2.6794 -2.6951
  968MOL0     H30637   0.052  11.222   2.581 -0.2609 -2.3100 -2.1669
  968MOL0     H30638   0.142  11.036   2.717 -3.2521  4.2337  0.5641
  968MOL0     H30639   0.298  11.086   2.668 -1.1147  2.1573  2.3552
  968MOL0     H30640  -0.049  10.867   2.585  0.2641  0.6953  2.1825
  968MOL0     H30641  -0.120  10.584   2.720 -4.1598  1.2222 -0.1111
  968MOL0     H30642  -0.185  10.686   2.594 -1.7651 -1.4437  0.7615
  968MOL0     H30643  -0.131  10.523   2.561  0.8683 -1.4396  0.7410
  968MOL0     H30644   0.356  10.213   2.622  0.9133 -0.3892 -0.9869
  968MOL0     H30645   0.333   9.981   2.604  0.8317  1.9815  1.7590
  968MOL0     H30646   0.222   9.787   2.633 -0.4890 -2.5196 -0.9697
  968MOL0     H30647   0.060   9.867   2.644 -0.1168  0.5263  0.7227
  968MOL0     H30648   0.135   9.600   2.505  2.2577  0.6032  1.5084
  968MOL0     H30649   0.089   9.603   2.668 -0.8093  0.0481 -0.2979
  968MOL0     H30650  -0.078   9.726   2.433 -1.9625  0.2838 -0.1031
  968MOL0     H30651  -0.125   9.717   2.606  0.4053  3.1416 -1.4290
  968MOL0     H30652  -0.063   9.456   2.437  0.8380 -1.6030  2.1014
  968MOL0     H30653  -0.160   9.477   2.577 -2.4614  3.5626  1.4056
  968MOL0     H30654  -0.253   9.617   2.318 -0.4801 -0.5222  0.0799
  968MOL0     H30655  -0.348   9.565   2.453  0.8800 -2.0719  3.1360
  968MOL0     H30656  -0.176   9.381   2.255 -0.4376 -2.4006 -1.3878
  968MOL0     H30657  -0.277   9.325   2.393 -0.7546  2.3854  1.7817
  968MOL0     H30658  -0.349   9.475   2.146 -1.4006  1.1127  0.5341
  968MOL0     H30659  -0.470   9.450   2.273 -0.2228 -0.2946  2.1081
  968MOL0     H30660  -0.366   9.191   2.205 -2.3192 -0.4978 -0.9200
  968MOL0     H30661  -0.397   9.289   2.058  0.6675  2.0687  0.0769
  968MOL0     H30662   0.012  10.025   2.316  1.2102 -0.6486 -0.8891
  968MOL0     H30663   0.038  10.277   2.313 -1.2454 -1.1682 -0.1295
  968MOL0     H30664   0.353  10.590   2.515  1.4047  0.4969 -2.4862
  968MOL0     H30665   0.358  10.839   2.476  0.0799  1.2043  1.4988
  968MOL0     H30666   1.450  11.612   3.369  1.2901 -0.3337 -0.6426
  968MOL0     H30667   1.615  11.492   3.478 -0.0232 -1.0197 -0.5418
  968MOL0     H30668   1.763  11.447   3.766 -4.0952 -2.4785 -1.6559
  968MOL0     H30669   1.935  11.470   3.923 -2.3876  2.7028  1.5465
  968MOL0     H30670   1.992  11.193   4.269 -0.5064 -0.5876 -0.4353
  968MOL0     H30671   2.097  11.128   4.145  0.2406  1.7740 -2.8278
  968MOL0     H30672   2.273  11.273   4.187  0.3733 -2.1608  0.4312
  968MOL0     H30673   2.236  11.184   4.328 -0.7939 -1.1619 -0.0277
  968MOL0     H30674   2.272  11.391   4.411 -1.0386 -1.9778  0.9334
  968MOL0     H30675   2.096  11.371   4.416  1.1266  0.9775  1.1480
  968MOL0     H30676   2.063  11.519   4.219  0.7937 -0.7239 -0.3676
  968MOL0     H30677   2.235  11.525   4.197 -1.6541 -0.3563 -1.2361
  968MOL0     H30678   2.141  11.754   4.577  0.2300 -0.4337  0.0688
  968MOL0     H30679   1.844  11.106   4.130 -1.1024 -0.3042  0.9500
  968MOL0     H30680   1.628  11.089   3.980 -3.1307  2.4704  1.0688
  969MOL0     O30681  11.323   2.955   1.109 -0.3556  0.9267  0.6332
  969MOL0     C30682  11.357   2.837   1.136  0.7386  0.1862 -0.2044
  969MOL0     O30683  11.450   2.793   1.219  0.2533  0.1710 -0.3615
  969MOL0     C30684  11.518   2.902   1.279 -0.9263 -0.1657  0.0268
  969MOL0     C30685  11.628   2.955   1.214 -1.0984  0.6999  0.0330
  969MOL0     C30686  11.722   3.033   1.287 -0.2638 -0.1568  0.5335
  969MOL0     C30687  11.696   3.077   1.415 -0.8101  0.6164  0.9054
  969MOL0     O30688  11.774   3.174   1.468  0.1434  0.4964  0.3177
  969MOL0     C30689  11.732   3.234   1.594  0.2847  0.3732 -0.2198
  969MOL0     C30690  11.613   3.339   1.574  0.6014 -0.4899  0.5098
  969MOL0     C30691  11.597   3.428   1.697 -0.2690  0.2467  0.7001
  969MOL0     C30692  11.673   3.571   1.685 -0.3669  0.2947 -0.2251
  969MOL0     C30693  11.612   3.666   1.786 -0.3643 -0.5476  0.6539
  969MOL0     C30694  11.676   3.810   1.792 -0.5061 -0.0714  0.3890
  969MOL0     C30695  11.652   3.898   1.667  1.3298 -0.6814 -0.1753
  969MOL0     C30696  11.754   3.890   1.555 -0.2867 -0.2451 -0.9359
  969MOL0     N30697  11.710   3.968   1.440 -0.7938  0.1659  0.2772
  969MOL0     C30698  11.667   3.911   1.318 -1.0236  0.0019  0.3732
  969MOL0     C30699  11.659   4.009   1.235  0.7187  0.4054 -0.2524
  969MOL0     C30700  11.604   3.996   1.095 -1.4574 -0.1898  0.1782
  969MOL0     C30701  11.455   4.056   1.082 -0.5378  0.3232 -0.1609
  969MOL0     C30702  11.433   4.095   0.941 -0.2651  0.2628  1.1737
  969MOL0     C30703  11.292   4.092   0.905  0.4626  0.0445 -0.5001
  969MOL0     O30704  11.244   3.951   0.911  0.2363  0.5284 -0.6962
  969MOL0     C30705  11.104   3.938   0.882 -0.5437 -0.7645 -0.7594
  969MOL0     C30706  11.060   3.804   0.886 -0.4141 -0.8190  0.1678
  969MOL0     C30707  10.929   3.773   0.852  0.7496  0.6412  0.9383
  969MOL0     C30708  10.887   3.622   0.868 -0.5146 -0.9211  0.7770
  969MOL0     C30709  10.830   3.877   0.830  0.2550  0.3441 -0.4242
  969MOL0     C30710  10.688   3.859   0.801 -0.1590 -0.2767  0.4730
  969MOL0     O30711  10.624   3.976   0.789 -0.1344 -0.4525 -0.4039
  969MOL0     C30712  10.503   3.988   0.742  0.4382 -0.3956 -0.5800
  969MOL0     C30713  10.403   3.922   0.807  0.6509 -0.5712 -0.0093
  969MOL0     C30714  10.266   3.933   0.748 -1.5598 -0.4407  0.1237
  969MOL0     C30715  10.245   4.005   0.634 -1.2718  0.4791 -0.2850
  969MOL0     O30716  10.120   4.009   0.579  0.0499  0.6924  0.2307
  969MOL0     C30717  10.006   3.955   0.650 -0.4640  0.4086  0.5302
  969MOL0     C30718   9.893   3.925   0.552 -1.0077 -0.6537 -0.7008
  969MOL0     C30719   9.944   3.853   0.422 -0.1051  0.2118  0.3682
  969MOL0     C30720   9.822   3.836   0.327  0.5685  0.4660  0.5025
  969MOL0     C30721   9.865   3.776   0.187  0.0120  0.5700 -0.6507
  969MOL0     C30722   9.958   3.857   0.095 -0.4814  0.3840 -1.0451
  969MOL0     C30723   9.895   3.994   0.054 -0.5943  0.4197  0.0596
  969MOL0     C30724  10.004   4.092   0.016 -0.1196  0.4037 -0.1184
  969MOL0    Cl30725  10.092   4.033  -0.131 -0.4933 -0.2332  0.4692
  969MOL0     C30726  10.347   4.078   0.575  0.2733 -1.2828 -0.3429
  969MOL0     C30727  10.475   4.072   0.634 -1.0183  0.3447 -0.0483
  969MOL0     O30728  10.643   3.747   0.784 -0.0004 -0.3820  0.1552
  969MOL0     C30729  10.877   4.008   0.840  0.2262  0.0775  0.2528
  969MOL0     C30730  11.007   4.036   0.866  0.1637  0.1939 -0.1476
  969MOL0     N30731  11.700   4.127   1.295  0.6578  0.7717  0.6470
  969MOL0     N30732  11.733   4.098   1.414  0.8242  0.0196 -0.2248
  969MOL0     C30733  11.581   3.023   1.475 -0.6407  0.7455 -0.8419
  969MOL0     C30734  11.496   2.937   1.413  1.0611 -0.3457  0.0508
  969MOL0     C30735  11.271   2.732   1.094  1.1474  1.4042 -0.1109
  969MOL0     C30736  11.134   2.744   1.059 -0.0085 -1.1712 -0.1702
  969MOL0     C30737  11.046   2.643   1.022 -0.3637  0.0280  0.2578
  969MOL0     C30738  11.089   2.518   1.012 -0.2094 -0.0835  0.3485
  969MOL0     O30739  10.985   2.436   0.971  0.0069 -0.3906 -0.8261
  969MOL0     C30740  11.012   2.318   0.889 -0.1254 -0.4087  0.4491
  969MOL0     C30741  10.887   2.229   0.834 -0.1289 -1.3200  0.8106
  969MOL0     C30742  10.774   2.311   0.779  0.0786  0.4329  1.0608
  969MOL0     C30743  10.819   2.417   0.675 -0.5862  0.1032 -0.3636
  969MOL0     C30744  10.709   2.486   0.608 -0.2679 -0.0008 -0.0141
  969MOL0     C30745  10.603   2.533   0.572  0.3621  0.3391  0.0588
  969MOL0     C30746  11.227   2.497   1.027  0.8913  0.2400 -0.0271
  969MOL0     C30747  11.318   2.601   1.064  0.4153  0.5175 -0.2157
  969MOL0     H30748  11.652   2.929   1.111  1.6561 -0.3520  0.8250
  969MOL0     H30749  11.817   3.068   1.248 -1.1845  0.5339 -1.1827
  969MOL0     H30750  11.703   3.157   1.665  0.4244  0.7029  0.1941
  969MOL0     H30751  11.813   3.291   1.639 -1.9093  1.8483  2.1610
  969MOL0     H30752  11.631   3.396   1.483  1.9128 -1.0100  0.4152
  969MOL0     H30753  11.517   3.289   1.558 -0.1120  1.6187 -2.8018
  969MOL0     H30754  11.489   3.433   1.716 -0.7379 -4.5868  0.5322
  969MOL0     H30755  11.633   3.369   1.781 -0.5572 -1.6286 -0.4257
  969MOL0     H30756  11.780   3.555   1.696 -0.3108  0.1828 -0.8823
  969MOL0     H30757  11.643   3.605   1.585 -0.9224  1.4728  0.3287
  969MOL0     H30758  11.507   3.693   1.768 -0.1149  0.6929  0.9559
  969MOL0     H30759  11.622   3.631   1.889  0.7886 -0.1864  0.6766
  969MOL0     H30760  11.633   3.845   1.887  1.1105 -0.7248  1.4134
  969MOL0     H30761  11.785   3.801   1.793 -0.3890  1.0238 -0.8516
  969MOL0     H30762  11.549   3.877   1.635  0.4671  0.8814  1.3677
  969MOL0     H30763  11.647   3.999   1.710 -1.3318  0.1157 -2.0517
  969MOL0     H30764  11.756   3.787   1.518 -0.6361  0.3596 -2.7721
  969MOL0     H30765  11.853   3.920   1.591 -1.3852  1.6668  0.7016
  969MOL0     H30766  11.645   3.806   1.299 -0.9108 -0.0328  0.4355
  969MOL0     H30767  11.675   4.056   1.038 -1.3148  2.4065  2.8512
  969MOL0     H30768  11.590   3.892   1.063 -5.6739  0.5737 -1.0774
  969MOL0     H30769  11.437   4.136   1.154  0.9020  0.0217  0.5650
  969MOL0     H30770  11.393   3.974   1.121  0.5525 -0.9691 -1.0310
  969MOL0     H30771  11.479   4.018   0.878 -0.9150  1.3817 -0.7430
  969MOL0     H30772  11.483   4.188   0.913  1.3277 -1.0854 -0.7185
  969MOL0     H30773  11.274   4.150   0.813 -3.0791  0.2284  0.1377
  969MOL0     H30774  11.234   4.158   0.970 -1.1601  1.5699 -3.2551
  969MOL0     H30775  11.125   3.732   0.935  0.5877  1.0343  1.6976
  969MOL0     H30776  10.858   3.585   0.769 -2.1919 -0.7284  1.1721
  969MOL0     H30777  10.974   3.570   0.911  0.2172 -0.5891 -0.2479
  969MOL0     H30778  10.804   3.611   0.937 -0.9238  2.3289  0.9504
  969MOL0     H30779  10.425   3.842   0.877 -1.2286  0.2788  1.6333
  969MOL0     H30780  10.190   3.872   0.795 -1.1383 -2.9572 -2.1944
  969MOL0     H30781  10.020   3.852   0.686 -3.1639 -1.8552 -4.0288
  969MOL0     H30782   9.979   4.019   0.734  0.2835 -0.9966  1.9053
  969MOL0     H30783   9.817   3.853   0.585 -0.8298 -1.1943 -1.4438
  969MOL0     H30784   9.846   4.022   0.535 -1.5471 -0.8800 -0.5480
  969MOL0     H30785   9.982   3.753   0.446 -2.5624 -1.2190 -1.2476
  969MOL0     H30786  10.023   3.907   0.368 -1.6024  1.7322 -0.4008
  969MOL0     H30787   9.745   3.774   0.374 -1.1418  2.2629  0.2194
  969MOL0     H30788   9.769   3.931   0.311  0.6499  0.2368 -1.3143
  969MOL0     H30789   9.774   3.769   0.128 -0.1155  2.3957 -0.7269
  969MOL0     H30790   9.906   3.675   0.202 -1.4045 -0.2413 -1.9530
  969MOL0     H30791  10.054   3.867   0.147  0.3445 -1.1412 -2.1950
  969MOL0     H30792   9.989   3.800   0.008 -0.4273  1.6432 -1.8806
  969MOL0     H30793   9.843   4.042   0.137 -2.2762 -2.7482  0.9792
  969MOL0     H30794   9.826   3.976  -0.029  0.6064 -1.9846 -0.4988
  969MOL0     H30795  10.079   4.098   0.096  0.3935  0.4173 -0.5945
  969MOL0     H30796   9.973   4.196   0.004  0.7746  0.8630  1.3390
  969MOL0     H30797  10.324   4.127   0.481  0.7998 -2.9668 -1.3915
  969MOL0     H30798  10.551   4.139   0.597 -0.3544  0.2916  1.1588
  969MOL0     H30799  10.818   4.099   0.849  0.8678  0.5105  0.1244
  969MOL0     H30800  11.037   4.140   0.871 -1.8342  0.7979  0.4357
  969MOL0     H30801  11.544   3.064   1.568  0.1905  0.2145 -0.2722
  969MOL0     H30802  11.414   2.894   1.470  2.3750  0.0592  2.3553
  969MOL0     H30803  11.095   2.845   1.050  1.0663 -0.7097  0.2452
  969MOL0     H30804  10.946   2.667   0.988 -0.1453 -0.9869 -1.1858
  969MOL0     H30805  11.066   2.357   0.803  0.3015 -1.3231  0.2873
  969MOL0     H30806  11.079   2.257   0.951  0.1067  1.0312  1.6694
  969MOL0     H30807  10.847   2.175   0.921  0.2928 -0.3171  1.6586
  969MOL0     H30808  10.912   2.150   0.764  0.8299  2.2523 -3.3240
  969MOL0     H30809  10.712   2.351   0.860  1.0590 -1.6892  2.9369
  969MOL0     H30810  10.711   2.247   0.717  1.7142 -2.1339  1.8989
  969MOL0     H30811  10.888   2.374   0.602 -0.2674  2.2143 -1.3800
  969MOL0     H30812  10.875   2.499   0.719  1.6846 -0.6234 -1.7117
  969MOL0     H30813  10.513   2.580   0.537 -0.0749  0.4254  1.2430
  969MOL0     H30814  11.259   2.398   0.996 -3.3284 -0.5356 -2.7531
  969MOL0     H30815  11.425   2.588   1.074  0.7508  2.2802 -1.1280
  970MOL0     O30816   9.793   4.152   8.580 -0.0468  0.8404  0.3052
  970MOL0     C30817   9.820   4.276   8.597 -0.4331  0.1521  0.3002
  970MOL0     O30818   9.731   4.378   8.618  0.3132 -0.2972 -0.8120
  970MOL0     C30819   9.606   4.336   8.629  1.1559  0.2626 -0.7840
  970MOL0     C30820   9.533   4.299   8.510  0.3116  0.3234 -0.6594
  970MOL0     C30821   9.403   4.250   8.510 -0.3297  0.7860 -0.0753
  970MOL0     C30822   9.338   4.236   8.634 -0.0959  0.1360  0.4984
  970MOL0     O30823   9.220   4.163   8.618  0.0715 -1.1031  0.6536
  970MOL0     C30824   9.118   4.191   8.712  0.4045 -0.0551  0.3742
  970MOL0     C30825   9.080   4.074   8.800 -0.1238  0.2570 -0.0352
  970MOL0     C30826   8.961   4.101   8.901  0.1756  0.1582 -0.1233
  970MOL0     C30827   9.004   4.214   8.992  0.1975 -0.2018  0.3193
  970MOL0     C30828   8.891   4.206   9.099 -0.4996 -0.6879 -0.3433
  970MOL0     C30829   8.957   4.181   9.241  0.0863 -0.0200 -0.8255
  970MOL0     C30830   8.989   4.311   9.323  0.0226  0.5093  0.4139
  970MOL0     C30831   9.107   4.390   9.263  0.3814 -0.3554  0.6575
  970MOL0     N30832   9.235   4.323   9.294 -0.0851 -0.1652 -0.3986
  970MOL0     C30833   9.267   4.253   9.411 -0.1039  0.6394 -0.2122
  970MOL0     C30834   9.399   4.229   9.395  0.1581 -0.6715  1.1871
  970MOL0     C30835   9.479   4.181   9.512  0.1637  0.7205 -0.4412
  970MOL0     C30836   9.559   4.298   9.568  0.3786  0.3504  0.0704
  970MOL0     C30837   9.690   4.235   9.624  0.1782 -0.0682  0.2094
  970MOL0     C30838   9.761   4.335   9.719 -0.3364  0.3046  0.7314
  970MOL0     O30839   9.876   4.269   9.766 -0.2389 -0.1757 -0.1412
  970MOL0     C30840   9.963   4.335   9.848 -0.0350 -0.5503  1.0051
  970MOL0     C30841  10.084   4.268   9.873  0.0062  0.0447  0.0915
  970MOL0     C30842  10.188   4.325   9.949  0.4119  0.4117 -0.9785
  970MOL0     C30843  10.315   4.249   9.965  0.7593  0.1824 -0.3968
  970MOL0     C30844  10.169   4.454  10.005  0.5615  0.5390  0.0245
  970MOL0     C30845  10.265   4.537  10.079 -0.1355  0.3787  0.7480
  970MOL0     O30846  10.371   4.471  10.136  0.5604 -0.6234  0.1978
  970MOL0     C30847  10.482   4.548  10.177 -1.0411 -0.1485 -0.8525
  970MOL0     C30848  10.527   4.548  10.312 -0.0994  0.0110 -1.6161
  970MOL0     C30849  10.640   4.625  10.355  0.0177 -0.1976 -0.3030
  970MOL0     C30850  10.712   4.700  10.256 -0.8232 -0.1626 -0.4220
  970MOL0     O30851  10.828   4.770  10.304 -0.3065 -0.2516 -0.5959
  970MOL0     C30852  10.859   4.899  10.241 -0.0476  0.2582  0.0901
  970MOL0     C30853  10.966   4.988  10.302  0.2421  0.7106  0.0489
  970MOL0     C30854  10.904   5.061  10.416 -0.6587  0.2700  0.2860
  970MOL0     C30855  10.996   5.061  10.544  0.9420  0.2175 -0.9838
  970MOL0     C30856  10.933   5.123  10.679  0.1055  0.5232  0.2070
  970MOL0     C30857  10.810   5.217  10.656  0.5003 -0.3398  1.0628
  970MOL0     C30858  10.754   5.267  10.795  0.9062 -0.2369 -0.1062
  970MOL0     C30859  10.624   5.348  10.767  0.8253  0.3495 -0.0269
  970MOL0    Cl30860  10.646   5.511  10.676 -0.4732  0.0220  0.2645
  970MOL0     C30861  10.670   4.708  10.126  0.4426  0.2760  0.9335
  970MOL0     C30862  10.555   4.635  10.095 -0.2379 -0.4047 -0.1870
  970MOL0     O30863  10.262   4.661  10.071  0.2672 -1.1429 -0.0687
  970MOL0     C30864  10.042   4.516   9.976 -0.1370  0.0468 -0.8452
  970MOL0     C30865   9.942   4.466   9.893  0.4151 -0.2518  0.8322
  970MOL0     N30866   9.448   4.276   9.276 -0.3129 -0.4863  0.6510
  970MOL0     N30867   9.347   4.336   9.219 -0.2138  0.3128  0.2009
  970MOL0     C30868   9.406   4.274   8.756  0.0761  0.4303 -0.1095
  970MOL0     C30869   9.539   4.325   8.755  0.6005  0.0346  0.2788
  970MOL0     C30870   9.965   4.318   8.601  0.3723  1.8689  0.6950
  970MOL0     C30871  10.053   4.237   8.521  0.4922 -0.0491 -0.5219
  970MOL0     C30872  10.188   4.264   8.510  0.5501  0.2417  0.2541
  970MOL0     C30873  10.233   4.378   8.588  0.4317  0.0285 -0.0852
  970MOL0     O30874  10.369   4.404   8.571  0.2208 -0.4730 -0.8655
  970MOL0     C30875  10.438   4.473   8.679  0.3813 -0.0289  0.4619
  970MOL0     C30876  10.571   4.429   8.668  0.0676  0.8590  0.0042
  970MOL0     C30877  10.644   4.511   8.780  0.6252 -0.3688 -0.0987
  970MOL0     C30878  10.790   4.466   8.770 -0.3223 -0.9430 -0.5824
  970MOL0     C30879  10.828   4.338   8.827  0.1861  0.5909  0.6000
  970MOL0     C30880  10.818   4.221   8.878 -0.1022 -0.9790 -0.5289
  970MOL0     C30881  10.146   4.464   8.654 -0.6152  0.5445 -0.2857
  970MOL0     C30882  10.012   4.427   8.672  0.6541  0.0891 -0.6611
  970MOL0     H30883   9.586   4.302   8.416  2.5696 -0.7955  0.4746
  970MOL0     H30884   9.359   4.233   8.412  1.5401  1.7783 -1.1420
  970MOL0     H30885   9.145   4.278   8.773  1.2208 -0.6029  0.7994
  970MOL0     H30886   9.026   4.227   8.664  0.3226 -0.8636 -0.0815
  970MOL0     H30887   9.046   3.994   8.733 -0.7576 -0.3455  0.9861
  970MOL0     H30888   9.168   4.039   8.856  0.9696 -0.6335 -2.1815
  970MOL0     H30889   8.867   4.117   8.846 -0.1366 -1.4150 -0.0848
  970MOL0     H30890   8.949   4.003   8.947 -1.0749  0.2920 -0.1209
  970MOL0     H30891   9.104   4.199   9.033  1.7629  2.7400 -2.0257
  970MOL0     H30892   9.001   4.305   8.932 -1.9224 -0.4028  0.0269
  970MOL0     H30893   8.843   4.304   9.101 -0.1077 -0.3360 -3.2465
  970MOL0     H30894   8.810   4.135   9.084 -2.2870  1.3082 -0.5433
  970MOL0     H30895   8.870   4.138   9.292 -1.6983  0.0964 -3.5247
  970MOL0     H30896   9.041   4.112   9.231 -0.9321 -1.3333 -0.6578
  970MOL0     H30897   8.898   4.372   9.319 -0.4318 -0.1912 -0.5468
  970MOL0     H30898   8.996   4.288   9.430 -2.7144 -1.3976  0.3019
  970MOL0     H30899   9.104   4.487   9.312 -1.3436  1.1164 -2.1039
  970MOL0     H30900   9.087   4.407   9.157  0.9959 -1.4480  0.3482
  970MOL0     H30901   9.206   4.222   9.495 -2.2985  0.6609 -1.7273
  970MOL0     H30902   9.412   4.141   9.589  0.9689  2.4572  1.2422
  970MOL0     H30903   9.548   4.107   9.471  0.0891  0.1482  0.4463
  970MOL0     H30904   9.507   4.353   9.647 -0.5101 -2.2065  1.4019
  970MOL0     H30905   9.580   4.369   9.488 -0.9940  1.5172  0.6929
  970MOL0     H30906   9.752   4.202   9.540 -0.3172 -1.0189  0.2084
  970MOL0     H30907   9.667   4.153   9.692  1.5114 -0.3457  0.3450
  970MOL0     H30908   9.695   4.371   9.798  2.7529  4.2495  1.8339
  970MOL0     H30909   9.804   4.414   9.655  0.1677 -1.5133 -1.3059
  970MOL0     H30910  10.084   4.166   9.835 -6.7089 -0.2504 -0.3426
  970MOL0     H30911  10.299   4.154   9.914  0.1916  0.1011 -0.0780
  970MOL0     H30912  10.397   4.293   9.907 -0.5266  2.8661 -0.3096
  970MOL0     H30913  10.340   4.239  10.071  2.6700 -2.5819 -1.0101
  970MOL0     H30914  10.476   4.502  10.396 -0.9537  2.1406 -0.8741
  970MOL0     H30915  10.663   4.623  10.461  0.9430  1.5099 -0.4297
  970MOL0     H30916  10.909   4.871  10.148  0.8594  1.0500  0.3206
  970MOL0     H30917  10.773   4.963  10.218 -0.6517  0.1559  1.9157
  970MOL0     H30918  11.048   4.925  10.338  0.5628  0.1646 -1.5449
  970MOL0     H30919  10.989   5.064  10.226 -0.4713  2.0628  1.1282
  970MOL0     H30920  10.805   5.019  10.437  1.1983 -4.4223  0.8783
  970MOL0     H30921  10.903   5.167  10.390  1.6279  0.4652  0.7883
  970MOL0     H30922  11.030   4.964  10.582  0.8572 -1.1181 -4.0587
  970MOL0     H30923  11.082   5.125  10.525  2.1181 -1.0169 -0.0505
  970MOL0     H30924  11.012   5.181  10.727  2.5018  0.1553 -2.9038
  970MOL0     H30925  10.912   5.046  10.754  0.3206  2.2784  2.1582
  970MOL0     H30926  10.836   5.301  10.590  0.8263  0.7043  2.4730
  970MOL0     H30927  10.744   5.154  10.595  2.7675 -1.9698  0.1487
  970MOL0     H30928  10.832   5.326  10.844 -0.4028 -1.4358  3.6954
  970MOL0     H30929  10.736   5.176  10.852  0.9751 -0.8702 -1.0780
  970MOL0     H30930  10.570   5.353  10.862  0.9262  1.6530 -0.0222
  970MOL0     H30931  10.553   5.287  10.710 -0.1162 -0.4105  1.8930
  970MOL0     H30932  10.734   4.756  10.052 -0.1816  1.3824  1.0868
  970MOL0     H30933  10.517   4.645   9.993 -3.7343 -1.4746  0.8592
  970MOL0     H30934  10.026   4.613  10.022 -3.2229 -2.5307  4.4766
  970MOL0     H30935   9.849   4.521   9.886 -0.9954 -2.6443 -0.9958
  970MOL0     H30936   9.369   4.266   8.857 -1.3699 -2.7970 -0.7389
  970MOL0     H30937   9.578   4.352   8.853 -2.8261  1.3542  1.4056
  970MOL0     H30938  10.023   4.143   8.474  1.9582 -2.2384  2.5909
  970MOL0     H30939  10.253   4.199   8.452 -2.5819 -1.0418 -2.1054
  970MOL0     H30940  10.427   4.581   8.666 -1.1938 -0.1484  0.6524
  970MOL0     H30941  10.390   4.444   8.773 -1.7220 -0.8992 -0.8171
  970MOL0     H30942  10.621   4.442   8.572 -0.6618 -1.4671 -0.7784
  970MOL0     H30943  10.579   4.324   8.700  3.2640  1.0707  0.2694
  970MOL0     H30944  10.607   4.491   8.881 -0.7043 -1.8165 -0.8317
  970MOL0     H30945  10.640   4.619   8.759 -1.7727 -0.4871 -0.6254
  970MOL0     H30946  10.851   4.544   8.818  1.5494 -0.8233 -2.9012
  970MOL0     H30947  10.831   4.469   8.668 -0.6181  0.1607 -0.6905
  970MOL0     H30948  10.798   4.120   8.908 -1.3162 -0.7493 -0.4899
  970MOL0     H30949  10.198   4.551   8.693  1.0524 -1.1161  1.4215
  970MOL0     H30950   9.955   4.490   8.740  1.2376 -1.5910  1.5087
  971MOL0     O30951   8.359   2.052  11.427 -0.1521 -0.0989 -1.0691
  971MOL0     C30952   8.351   1.928  11.447  0.0855  0.0107  0.1976
  971MOL0     O30953   8.322   1.831  11.351  0.1137 -0.3433 -0.2943
  971MOL0     C30954   8.340   1.845  11.208 -0.1774  0.2812  0.0269
  971MOL0     C30955   8.297   1.740  11.135  0.4139 -0.2530 -0.0959
  971MOL0     C30956   8.310   1.727  10.989 -0.4094 -0.4914  0.4590
  971MOL0     C30957   8.394   1.828  10.922  0.1249  0.3081 -0.3315
  971MOL0     O30958   8.408   1.848  10.783  0.1355 -0.1006  0.3858
  971MOL0     C30959   8.335   1.768  10.692  0.3326 -0.0618 -0.3201
  971MOL0     C30960   8.373   1.810  10.555 -0.5436 -0.0831  1.1217
  971MOL0     C30961   8.343   1.702  10.452  0.3097 -0.1392  0.8267
  971MOL0     C30962   8.396   1.743  10.322  0.7250  0.2082 -0.5066
  971MOL0     C30963   8.417   1.625  10.229  0.0386  0.2183  0.1302
  971MOL0     C30964   8.287   1.579  10.162  0.3876 -0.9704  0.3764
  971MOL0     C30965   8.250   1.670  10.037 -0.7373  0.3194 -0.1287
  971MOL0     C30966   8.114   1.635   9.967 -0.0567  0.1683 -0.4780
  971MOL0     N30967   8.109   1.492   9.915  0.7312  0.5128 -0.6602
  971MOL0     C30968   8.053   1.381   9.982 -0.2900  0.5550  1.0679
  971MOL0     C30969   8.041   1.294   9.880  0.4759 -0.8918  0.0229
  971MOL0     C30970   7.973   1.161   9.901  0.1978 -0.3435 -0.1863
  971MOL0     C30971   8.063   1.073   9.991  0.4340 -0.8270 -0.8258
  971MOL0     C30972   8.214   1.064   9.947 -0.1749 -0.3574 -0.2393
  971MOL0     C30973   8.279   0.976  10.059 -0.5862  0.2730 -0.0568
  971MOL0     O30974   8.413   0.955  10.032 -0.4319 -0.0388 -0.4960
  971MOL0     C30975   8.493   0.881  10.121 -0.5608 -0.2026 -0.0159
  971MOL0     C30976   8.446   0.828  10.243  0.0875 -0.7103 -0.7293
  971MOL0     C30977   8.537   0.750  10.326  0.8288 -0.3480  0.7097
  971MOL0     C30978   8.488   0.710  10.460 -0.3391 -0.0601 -0.3690
  971MOL0     C30979   8.668   0.721  10.275  0.0040 -1.4815  0.8075
  971MOL0     C30980   8.760   0.629  10.349  0.4447  0.2270 -0.5531
  971MOL0     O30981   8.701   0.543  10.450 -0.4200  0.1889  0.1193
  971MOL0     C30982   8.767   0.435  10.509 -0.3226 -0.3025 -0.0165
  971MOL0     C30983   8.752   0.399  10.642 -0.2092  0.5255  0.3197
  971MOL0     C30984   8.794   0.275  10.693 -0.2068 -0.3723 -0.3910
  971MOL0     C30985   8.863   0.184  10.616 -0.8354 -0.3348 -1.1066
  971MOL0     O30986   8.899   0.066  10.674  0.4444 -0.6442  0.5032
  971MOL0     C30987   8.915  -0.048  10.581 -0.5928  0.1273  0.2620
  971MOL0     C30988   8.985  -0.168  10.644  0.6223  0.0105 -0.0907
  971MOL0     C30989   8.989  -0.285  10.541  0.0154 -0.6145  0.1185
  971MOL0     C30990   9.041  -0.408  10.617 -0.0156  0.0748 -0.5459
  971MOL0     C30991   9.104  -0.503  10.513 -0.1390 -0.0524 -0.7157
  971MOL0     C30992   9.137  -0.636  10.584 -0.2931  0.9914  0.1135
  971MOL0     C30993   9.267  -0.635  10.672  0.0872 -0.5562  0.1117
  971MOL0     C30994   9.305  -0.765  10.741  0.1025 -0.7459  0.3939
  971MOL0    Cl30995   9.309  -0.906  10.621 -0.3384  0.4026 -0.3935
  971MOL0     C30996   8.870   0.213  10.471  0.3599  0.2485 -0.4258
  971MOL0     C30997   8.823   0.336  10.428  0.3190 -0.0400  0.6897
  971MOL0     O30998   8.876   0.631  10.320 -0.3653 -0.2736 -0.5356
  971MOL0     C30999   8.714   0.781  10.156 -0.1211  1.5640 -0.5135
  971MOL0     C31000   8.626   0.856  10.078 -0.3339 -0.3175 -0.4185
  971MOL0     N31001   8.095   1.338   9.762  1.1382  0.3194 -0.0990
  971MOL0     N31002   8.141   1.453   9.787  0.1525 -0.4246 -0.8224
  971MOL0     C31003   8.457   1.920  11.006 -0.6972 -0.5516 -0.1451
  971MOL0     C31004   8.421   1.938  11.145  0.0757  0.6242  0.6891
  971MOL0     C31005   8.409   1.877  11.576  0.7701  0.0414  0.9158
  971MOL0     C31006   8.312   1.842  11.673 -1.3012  0.0404  0.4858
  971MOL0     C31007   8.359   1.789  11.788  0.0556  0.0124 -0.8351
  971MOL0     C31008   8.497   1.760  11.808 -0.2418 -0.2721 -0.2370
  971MOL0     O31009   8.524   1.713  11.937  0.7825  0.1111 -0.3383
  971MOL0     C31010   8.641   1.776  11.986 -0.3286 -0.8709  0.3654
  971MOL0     C31011   8.633   1.776  12.138  0.7719  1.0834  0.8177
  971MOL0     C31012   8.640   1.625  12.182 -0.5265 -0.3106 -0.3777
  971MOL0     C31013   8.687   1.609  12.328 -1.0702 -0.0496  0.6453
  971MOL0     C31014   8.726   1.471  12.331 -0.2339  0.0979  0.1372
  971MOL0     C31015   8.739   1.351  12.347  0.7522  0.7036 -0.4054
  971MOL0     C31016   8.590   1.800  11.718 -0.4791 -0.1733 -0.0979
  971MOL0     C31017   8.548   1.859  11.596  0.2482 -0.0921 -0.8011
  971MOL0     H31018   8.234   1.664  11.179 -2.8665  1.4819 -1.4706
  971MOL0     H31019   8.254   1.653  10.934  0.4589  0.0002 -1.1371
  971MOL0     H31020   8.356   1.661  10.705 -0.3116  0.1380  3.4606
  971MOL0     H31021   8.230   1.783  10.717 -0.2893 -3.0856 -0.7032
  971MOL0     H31022   8.304   1.891  10.529 -2.0229 -1.5316  0.2962
  971MOL0     H31023   8.474   1.852  10.555 -0.5700  0.0538  2.8985
  971MOL0     H31024   8.400   1.618  10.493 -1.7146 -2.4818 -0.8840
  971MOL0     H31025   8.238   1.671  10.455  0.0016  0.6143 -0.9656
  971MOL0     H31026   8.318   1.807  10.279  1.2421  0.3661 -1.2358
  971MOL0     H31027   8.491   1.795  10.334  1.3873 -0.4772 -2.4256
  971MOL0     H31028   8.490   1.662  10.157 -0.4590 -0.5323 -0.7764
  971MOL0     H31029   8.478   1.545  10.273 -0.4144 -1.6992 -2.4917
  971MOL0     H31030   8.307   1.477  10.126  3.1948 -0.9163  1.5399
  971MOL0     H31031   8.203   1.590  10.232 -1.8217 -1.8341 -1.9650
  971MOL0     H31032   8.249   1.776  10.065  0.3527  0.4795 -0.6372
  971MOL0     H31033   8.330   1.659   9.963 -0.7580  6.0713 -1.5353
  971MOL0     H31034   8.094   1.702   9.883 -3.4157  0.6765  0.5486
  971MOL0     H31035   8.033   1.660  10.037  0.9435 -0.9622  1.1652
  971MOL0     H31036   8.018   1.371  10.085 -0.3957  0.4453  1.0217
  971MOL0     H31037   7.877   1.175   9.951  1.3369  1.4940  1.6986
  971MOL0     H31038   7.947   1.110   9.808  0.0398  0.1213 -0.4006
  971MOL0     H31039   8.025   0.971   9.992  2.4840 -1.6765  1.7735
  971MOL0     H31040   8.067   1.119  10.090 -1.1644 -2.7390  0.1947
  971MOL0     H31041   8.261   1.162   9.935  3.7602 -2.2834 -2.4206
  971MOL0     H31042   8.231   1.008   9.855 -0.9758 -1.3037  0.1572
  971MOL0     H31043   8.228   0.880  10.068 -1.0155  0.4009 -1.0125
  971MOL0     H31044   8.278   1.032  10.153 -1.0661  0.6972 -0.3092
  971MOL0     H31045   8.350   0.862  10.282  1.6191  0.5928  2.3039
  971MOL0     H31046   8.557   0.742  10.539 -1.7634  1.9746  0.1256
  971MOL0     H31047   8.389   0.752  10.480 -0.0136  1.2395 -1.3874
  971MOL0     H31048   8.471   0.602  10.453  1.0389 -0.4367  1.2430
  971MOL0     H31049   8.709   0.472  10.709  3.8652  0.7105  3.0761
  971MOL0     H31050   8.772   0.262  10.799  0.8669 -0.2621 -0.1379
  971MOL0     H31051   8.816  -0.079  10.545 -0.8887 -0.4322  1.4952
  971MOL0     H31052   8.973  -0.026  10.491 -2.5055  3.2246 -0.3769
  971MOL0     H31053   9.082  -0.138  10.684  1.2167  1.2605 -2.2989
  971MOL0     H31054   8.920  -0.200  10.726  2.0613 -0.8699  0.7527
  971MOL0     H31055   9.047  -0.266  10.450 -1.0298 -1.0216 -0.6628
  971MOL0     H31056   8.884  -0.298  10.511 -0.7171  0.0994  2.1918
  971MOL0     H31057   9.124  -0.396  10.686 -0.1487  0.2118 -0.4118
  971MOL0     H31058   8.963  -0.450  10.681 -0.4466  0.8415 -0.5661
  971MOL0     H31059   9.182  -0.459  10.450  1.0475 -0.5765  0.3500
  971MOL0     H31060   9.030  -0.525  10.435  0.5783 -2.5984 -0.7674
  971MOL0     H31061   9.056  -0.674  10.646  1.5645 -0.1722  1.9861
  971MOL0     H31062   9.154  -0.714  10.510 -1.3927 -0.8698  1.7256
  971MOL0     H31063   9.275  -0.547  10.737  1.9322 -1.2929  0.9472
  971MOL0     H31064   9.354  -0.612  10.609 -1.6479  2.6688 -1.3790
  971MOL0     H31065   9.240  -0.795  10.823  1.9504 -1.5154  1.6473
  971MOL0     H31066   9.406  -0.751  10.781  0.6935  1.0058 -1.5031
  971MOL0     H31067   8.913   0.139  10.404 -0.3508 -1.3305  0.7951
  971MOL0     H31068   8.827   0.353  10.321 -0.9483  3.2721  1.0712
  971MOL0     H31069   8.811   0.758  10.115 -0.0802  2.7809 -1.1449
  971MOL0     H31070   8.661   0.896   9.983 -1.1869 -1.4243 -1.2274
  971MOL0     H31071   8.524   1.994  10.964  0.0416 -1.4913 -0.6894
  971MOL0     H31072   8.490   2.001  11.201 -0.6833 -2.3976  5.5642
  971MOL0     H31073   8.207   1.861  11.652 -1.5571 -1.0408  0.7068
  971MOL0     H31074   8.288   1.773  11.868 -2.6320  0.0139 -3.0352
  971MOL0     H31075   8.732   1.731  11.947 -0.3927 -0.7171  0.0311
  971MOL0     H31076   8.644   1.880  11.951  0.5284 -1.7247 -2.3695
  971MOL0     H31077   8.536   1.822  12.160  0.6846  1.3635 -0.1176
  971MOL0     H31078   8.719   1.835  12.171  2.1494  0.5664 -1.6448
  971MOL0     H31079   8.710   1.564  12.124 -2.4384 -5.1503  1.8596
  971MOL0     H31080   8.540   1.584  12.172 -0.3501 -0.2875 -2.7405
  971MOL0     H31081   8.601   1.641  12.388 -0.1977  2.1630  0.8266
  971MOL0     H31082   8.763   1.682  12.358 -1.9448  2.4690 -2.7190
  971MOL0     H31083   8.730   1.245  12.356 -0.0628  0.5996 -2.1193
  971MOL0     H31084   8.697   1.790  11.732 -0.4117  1.2131  0.5370
  971MOL0     H31085   8.610   1.887  11.512 -1.2423 -2.3492 -2.7759
  972MOL0     O31086   9.373   8.838   8.168 -0.7564  0.4499 -0.9691
  972MOL0     C31087   9.348   8.956   8.193  0.2126  0.0883 -0.1322
  972MOL0     O31088   9.308   9.056   8.104 -0.1671 -0.2269 -0.4366
  972MOL0     C31089   9.301   9.020   7.968 -0.3872 -0.2880  0.3165
  972MOL0     C31090   9.223   8.906   7.940 -0.7651  0.4612 -0.1814
  972MOL0     C31091   9.221   8.859   7.810  1.1420  0.0924 -0.3147
  972MOL0     C31092   9.301   8.903   7.707  0.6513 -0.3374  0.2301
  972MOL0     O31093   9.285   8.845   7.583 -0.1291 -0.0938  0.5461
  972MOL0     C31094   9.408   8.835   7.511  0.5267 -0.3911 -0.1883
  972MOL0     C31095   9.413   8.725   7.400 -0.5772 -0.4119 -0.1953
  972MOL0     C31096   9.515   8.737   7.290  0.1600 -0.0867  0.1014
  972MOL0     C31097   9.517   8.632   7.183  0.9007  1.4300 -0.2456
  972MOL0     C31098   9.613   8.671   7.071  0.5695 -0.8368 -0.0889
  972MOL0     C31099   9.694   8.553   7.014  0.1268 -0.7031  0.5554
  972MOL0     C31100   9.647   8.521   6.869  0.0824 -1.2166 -0.5084
  972MOL0     C31101   9.519   8.441   6.874 -0.1532  0.7046  1.5256
  972MOL0     N31102   9.488   8.411   6.731 -0.9369  0.5209  0.1367
  972MOL0     C31103   9.403   8.473   6.634  0.5777 -1.1630 -1.0592
  972MOL0     C31104   9.423   8.402   6.520  1.0368 -0.7371  0.1070
  972MOL0     C31105   9.355   8.437   6.384  0.0107 -0.5290  0.2792
  972MOL0     C31106   9.267   8.323   6.330 -0.3307 -0.4945 -0.0192
  972MOL0     C31107   9.176   8.363   6.215 -0.0710  0.1785  0.5108
  972MOL0     C31108   9.056   8.448   6.277 -0.4480  0.1730 -0.2520
  972MOL0     O31109   8.972   8.499   6.172  0.4660 -0.0156  0.5857
  972MOL0     C31110   8.884   8.596   6.203 -0.5118 -0.5889 -0.6600
  972MOL0     C31111   8.801   8.645   6.103  0.0136  0.2053 -0.2430
  972MOL0     C31112   8.693   8.730   6.128 -1.3390  0.0883  1.0474
  972MOL0     C31113   8.601   8.760   6.012  0.5515  0.1794  0.4405
  972MOL0     C31114   8.679   8.782   6.259 -0.0389  0.7711 -0.0621
  972MOL0     C31115   8.576   8.870   6.305 -0.0378 -0.1694  0.7784
  972MOL0     O31116   8.598   8.923   6.430 -0.1942 -0.3914 -0.6223
  972MOL0     C31117   8.516   9.028   6.472 -0.2273  0.7279  0.2007
  972MOL0     C31118   8.472   9.138   6.384 -0.7904 -0.3294 -1.1641
  972MOL0     C31119   8.372   9.230   6.426 -0.0214 -0.2471 -0.4414
  972MOL0     C31120   8.325   9.216   6.558  0.2071 -0.7085 -0.1790
  972MOL0     O31121   8.233   9.301   6.604  0.6411 -0.6101  0.6168
  972MOL0     C31122   8.119   9.322   6.504 -0.0669  1.3387 -0.8381
  972MOL0     C31123   7.978   9.333   6.576  0.5422  0.1567  0.3895
  972MOL0     C31124   7.864   9.252   6.519  0.4366 -0.8258  0.6971
  972MOL0     C31125   7.743   9.226   6.603 -0.9432 -0.6796 -0.0351
  972MOL0     C31126   7.612   9.195   6.532  0.6513  0.4002 -0.1867
  972MOL0     C31127   7.539   9.320   6.483 -0.3658  0.6499 -0.2323
  972MOL0     C31128   7.401   9.288   6.416  0.0331  0.0690 -0.7886
  972MOL0     C31129   7.396   9.203   6.293 -0.4635  0.8735  0.6132
  972MOL0    Cl31130   7.516   9.269   6.177 -0.1073  0.4360 -0.1920
  972MOL0     C31131   8.372   9.128   6.648  1.2185 -0.8501  0.7603
  972MOL0     C31132   8.458   9.025   6.601  0.0779  0.3955 -0.9257
  972MOL0     O31133   8.464   8.864   6.252  0.0910  0.1778 -0.0758
  972MOL0     C31134   8.776   8.761   6.351 -0.4524  0.5493  0.0203
  972MOL0     C31135   8.871   8.661   6.326 -0.0684  0.8766  1.0033
  972MOL0     N31136   9.506   8.307   6.539  0.0348  0.1568  0.3850
  972MOL0     N31137   9.554   8.310   6.664 -0.0061 -0.7830  0.5968
  972MOL0     C31138   9.390   8.999   7.745  1.0077  0.0738  0.7751
  972MOL0     C31139   9.381   9.067   7.872  0.0683 -0.3226  0.1487
  972MOL0     C31140   9.360   9.000   8.343  0.0428  0.7404 -0.1831
  972MOL0     C31141   9.401   9.130   8.375  0.3228  0.5204 -1.2353
  972MOL0     C31142   9.385   9.176   8.509 -0.1601  0.4205 -1.1947
  972MOL0     C31143   9.331   9.086   8.608 -0.0216  0.1030 -0.1093
  972MOL0     O31144   9.307   9.118   8.738  0.2543  0.8648  0.0672
  972MOL0     C31145   9.297   9.257   8.771  1.1295 -0.9167 -0.4059
  972MOL0     C31146   9.330   9.297   8.910  0.4630  0.0042 -0.1350
  972MOL0     C31147   9.329   9.442   8.916  0.4538 -1.1752  0.1890
  972MOL0     C31148   9.380   9.516   9.044 -0.2010  0.0683 -0.1894
  972MOL0     C31149   9.315   9.459   9.160 -0.1648 -0.1030 -0.2567
  972MOL0     C31150   9.255   9.405   9.259 -0.1718 -0.4898  0.9325
  972MOL0     C31151   9.298   8.950   8.573 -0.2198  0.4379  0.3372
  972MOL0     C31152   9.316   8.906   8.444 -0.5697 -0.2199  0.8006
  972MOL0     H31153   9.159   8.861   8.015 -0.1074 -1.2614 -0.6127
  972MOL0     H31154   9.155   8.774   7.795  1.6408 -0.4726  0.6617
  972MOL0     H31155   9.415   8.934   7.465 -3.2839  1.4762  2.6422
  972MOL0     H31156   9.498   8.822   7.571  1.6473  1.5694 -1.3527
  972MOL0     H31157   9.410   8.624   7.439 -0.0168 -0.2703  0.2235
  972MOL0     H31158   9.324   8.733   7.336  1.8302  2.2224 -3.5945
  972MOL0     H31159   9.485   8.828   7.237  3.3887 -0.1147 -2.1067
  972MOL0     H31160   9.611   8.754   7.339  0.3831  5.4912 -1.5600
  972MOL0     H31161   9.554   8.547   7.240  1.8882  1.1740 -1.2276
  972MOL0     H31162   9.420   8.613   7.136  1.4134  1.2294 -1.2494
  972MOL0     H31163   9.550   8.714   6.993 -0.7066 -2.2237  0.1366
  972MOL0     H31164   9.672   8.757   7.104  1.1070 -1.7531  1.4682
  972MOL0     H31165   9.799   8.579   7.002  0.8028 -3.1560  0.4780
  972MOL0     H31166   9.696   8.469   7.084 -0.5063  0.4168  1.9506
  972MOL0     H31167   9.638   8.615   6.814  0.4871 -1.5997 -1.2307
  972MOL0     H31168   9.715   8.460   6.810 -1.8222 -2.4462 -1.5645
  972MOL0     H31169   9.442   8.502   6.923 -1.1966 -0.6047  1.5640
  972MOL0     H31170   9.533   8.345   6.925 -1.2399  0.3033  1.1020
  972MOL0     H31171   9.339   8.559   6.653  0.0323 -1.6694 -0.5617
  972MOL0     H31172   9.288   8.522   6.399  1.7166  1.2332 -1.5031
  972MOL0     H31173   9.435   8.475   6.319 -1.6686  0.8981 -1.0601
  972MOL0     H31174   9.211   8.293   6.419  0.2009 -1.7684 -0.0908
  972MOL0     H31175   9.321   8.237   6.289 -0.0058  0.9441 -2.8586
  972MOL0     H31176   9.152   8.263   6.178  4.6679 -0.1318 -2.6760
  972MOL0     H31177   9.238   8.406   6.136  1.0521  1.6475  2.1254
  972MOL0     H31178   9.093   8.537   6.329  2.8098 -0.2694 -1.5711
  972MOL0     H31179   8.999   8.380   6.341  1.0949 -1.0439 -0.1102
  972MOL0     H31180   8.792   8.609   6.001  0.1590 -0.5857  0.0121
  972MOL0     H31181   8.514   8.694   6.012  0.5185  0.1633 -1.6903
  972MOL0     H31182   8.566   8.862   6.028 -1.8275 -0.6678  1.1500
  972MOL0     H31183   8.645   8.733   5.916 -2.7800 -3.0228 -0.4062
  972MOL0     H31184   8.518   9.158   6.288  2.0228  1.0815  0.3435
  972MOL0     H31185   8.341   9.318   6.370  3.1808  0.1610 -1.7842
  972MOL0     H31186   8.137   9.416   6.452  2.2975  2.4909  1.8028
  972MOL0     H31187   8.103   9.240   6.433 -4.8235  0.6816  0.6638
  972MOL0     H31188   7.991   9.311   6.682  0.3327 -0.3556  0.3145
  972MOL0     H31189   7.957   9.440   6.588  0.7719  0.0385  2.1023
  972MOL0     H31190   7.901   9.157   6.480  3.5678  0.4145  0.3615
  972MOL0     H31191   7.840   9.303   6.425 -1.0041 -0.8298  1.0401
  972MOL0     H31192   7.766   9.135   6.659  0.0409 -1.1624 -1.1969
  972MOL0     H31193   7.721   9.311   6.669  1.4285  0.5605 -0.7130
  972MOL0     H31194   7.555   9.155   6.616  1.0523  2.4956  1.1604
  972MOL0     H31195   7.606   9.108   6.466 -1.1776 -3.0290  4.0161
  972MOL0     H31196   7.524   9.374   6.577 -0.7249  0.7245 -0.3295
  972MOL0     H31197   7.610   9.381   6.427  2.6563  1.0832  3.6542
  972MOL0     H31198   7.357   9.386   6.395  1.0497  0.2154 -2.4256
  972MOL0     H31199   7.335   9.239   6.488  0.6856 -2.8583 -2.0332
  972MOL0     H31200   7.293   9.196   6.257 -1.1052 -0.6670  2.5619
  972MOL0     H31201   7.415   9.102   6.330 -0.9352  0.7275  0.4640
  972MOL0     H31202   8.344   9.125   6.753  3.0007 -2.3990  1.2525
  972MOL0     H31203   8.487   8.938   6.659  5.1807  2.3841 -0.0225
  972MOL0     H31204   8.784   8.798   6.453 -1.3476  3.0210 -0.7409
  972MOL0     H31205   8.939   8.639   6.407  1.0014  0.2029 -0.0509
  972MOL0     H31206   9.450   9.042   7.666 -0.1361  2.7083  1.2184
  972MOL0     H31207   9.448   9.148   7.899 -0.3898 -0.4529  1.7947
  972MOL0     H31208   9.421   9.208   8.303 -0.9321  3.6065  1.5229
  972MOL0     H31209   9.414   9.280   8.518  0.4452  0.1029  0.8709
  972MOL0     H31210   9.352   9.317   8.698 -0.1019 -1.0851 -1.4992
  972MOL0     H31211   9.192   9.283   8.755  0.3994 -0.1923  4.0834
  972MOL0     H31212   9.427   9.255   8.938  0.6446 -2.7770 -4.1227
  972MOL0     H31213   9.258   9.254   8.980  0.1600 -0.8521 -0.9460
  972MOL0     H31214   9.224   9.467   8.901 -0.8565 -3.5101  4.0876
  972MOL0     H31215   9.390   9.482   8.834  1.6171  3.6281  3.0186
  972MOL0     H31216   9.353   9.621   9.031 -1.7952 -0.2359  0.4960
  972MOL0     H31217   9.488   9.514   9.060  0.2923 -0.7997 -3.1010
  972MOL0     H31218   9.216   9.362   9.348 -2.1489 -1.5879 -0.4007
  972MOL0     H31219   9.256   8.892   8.654 -0.1025 -1.4558 -0.9003
  972MOL0     H31220   9.279   8.807   8.421  0.5591 -0.4738 -0.0088
  973MOL0     O31221   6.281   0.103   9.961 -0.5924 -0.1810  0.6530
  973MOL0     C31222   6.166   0.073   9.938  0.1903  0.3328  0.1566
  973MOL0     O31223   6.124  -0.029   9.855 -0.1155  0.6805  0.4485
  973MOL0     C31224   6.222  -0.095   9.780  0.7209  0.4848  0.6257
  973MOL0     C31225   6.237  -0.063   9.647  0.1768 -0.0749  0.4239
  973MOL0     C31226   6.316  -0.148   9.574  0.1137 -0.3513  0.2002
  973MOL0     C31227   6.391  -0.252   9.628  0.7095 -0.3778  0.5340
  973MOL0     O31228   6.478  -0.335   9.551 -0.0819 -0.8138  0.2555
  973MOL0     C31229   6.597  -0.270   9.518 -0.4788 -0.9668  0.4700
  973MOL0     C31230   6.709  -0.375   9.506 -0.8510  0.0018  0.4408
  973MOL0     C31231   6.849  -0.325   9.539 -0.5018  0.8896 -0.3221
  973MOL0     C31232   6.946  -0.448   9.533  0.8997  0.6850  0.1314
  973MOL0     C31233   7.072  -0.425   9.613  0.0738  0.0694  0.1441
  973MOL0     C31234   7.157  -0.549   9.633  0.2385 -0.5327  0.0047
  973MOL0     C31235   7.262  -0.521   9.734 -0.3888  1.3672 -0.4172
  973MOL0     C31236   7.338  -0.648   9.774  0.1092 -0.1489  0.8442
  973MOL0     N31237   7.402  -0.633   9.908  0.2369  0.7340  0.5569
  973MOL0     C31238   7.505  -0.544   9.924  0.7027 -0.2082  0.3245
  973MOL0     C31239   7.507  -0.536  10.058  0.2184 -0.9394 -0.2676
  973MOL0     C31240   7.629  -0.472  10.136 -0.4746  0.3255  0.1473
  973MOL0     C31241   7.557  -0.360  10.224 -0.7532 -0.3654  0.1748
  973MOL0     C31242   7.479  -0.244  10.155  0.4010 -0.1630  0.2610
  973MOL0     C31243   7.339  -0.294  10.138  0.1831 -0.0901  1.0838
  973MOL0     O31244   7.252  -0.185  10.112  0.6360  0.2780  0.2217
  973MOL0     C31245   7.215  -0.166   9.977  0.3536  0.6117  0.5571
  973MOL0     C31246   7.292  -0.199   9.862  0.2425 -0.3710 -0.1254
  973MOL0     C31247   7.260  -0.157   9.736  0.1624 -1.2823 -0.4593
  973MOL0     C31248   7.365  -0.174   9.625  1.3758 -0.3384  0.4705
  973MOL0     C31249   7.130  -0.088   9.714 -0.1808  0.3137  0.8954
  973MOL0     C31250   7.072  -0.049   9.576  0.1354 -1.0822  0.0703
  973MOL0     O31251   6.953   0.026   9.582  0.0533  0.3159  0.3956
  973MOL0     C31252   6.906   0.083   9.468 -0.7253 -0.4031  0.0496
  973MOL0     C31253   6.940   0.218   9.461 -0.0701 -0.4437 -0.6728
  973MOL0     C31254   6.893   0.292   9.359 -0.3047 -0.7847 -0.4679
  973MOL0     C31255   6.816   0.242   9.258  0.3241 -0.3558 -0.0972
  973MOL0     O31256   6.764   0.333   9.171 -0.8572  0.3284 -1.2463
  973MOL0     C31257   6.792   0.290   9.032  0.1935  0.0392 -0.1474
  973MOL0     C31258   6.818   0.423   8.959 -0.0905  0.8368  0.2648
  973MOL0     C31259   6.941   0.501   9.024  0.4890  0.0280  1.3910
  973MOL0     C31260   6.954   0.625   8.952 -0.3543  0.3786  0.6367
  973MOL0     C31261   7.084   0.691   8.998 -1.0160  0.3801  0.4014
  973MOL0     C31262   7.078   0.846   8.956  0.1658  0.2697 -0.3264
  973MOL0     C31263   7.199   0.928   8.986 -0.0716  0.8193 -0.7325
  973MOL0     C31264   7.256   0.897   9.125  0.3579  0.3633  0.5672
  973MOL0    Cl31265   7.151   0.917   9.266 -0.0648 -0.5048  0.4299
  973MOL0     C31266   6.786   0.100   9.261 -0.3431 -0.4266  0.6721
  973MOL0     C31267   6.828   0.027   9.370  0.1912 -0.1409  0.4695
  973MOL0     O31268   7.119  -0.091   9.478  0.0526 -0.0179  0.5691
  973MOL0     C31269   7.042  -0.062   9.826  0.1307  0.1268  0.0385
  973MOL0     C31270   7.095  -0.108   9.950 -0.3918 -0.0588  0.1790
  973MOL0     N31271   7.405  -0.604  10.119 -0.7011  1.2952  0.6650
  973MOL0     N31272   7.342  -0.658  10.031  0.6177 -1.0150  0.4033
  973MOL0     C31273   6.383  -0.280   9.763 -0.0601 -0.2694  0.4565
  973MOL0     C31274   6.297  -0.199   9.835  0.3325  0.6623 -0.0043
  973MOL0     C31275   6.058   0.123  10.031  0.0080  1.1766 -0.0607
  973MOL0     C31276   6.088   0.182  10.151  0.5824 -0.5707 -0.7083
  973MOL0     C31277   5.973   0.201  10.242 -0.4737  0.0767  0.1731
  973MOL0     C31278   5.839   0.177  10.214 -0.3778  0.3094  0.5287
  973MOL0     O31279   5.739   0.226  10.292 -0.5498  1.1757 -0.3662
  973MOL0     C31280   5.760   0.288  10.421  0.2662  1.0244  0.3786
  973MOL0     C31281   5.636   0.299  10.513 -0.7051  0.1952  0.3033
  973MOL0     C31282   5.505   0.353  10.435 -0.5178  0.7632  0.6820
  973MOL0     C31283   5.453   0.462  10.527 -0.6752  0.1154  0.5989
  973MOL0     C31284   5.523   0.590  10.509  0.3487 -0.5491 -1.0915
  973MOL0     C31285   5.568   0.705  10.494 -0.3837 -0.7857 -0.0053
  973MOL0     C31286   5.813   0.129  10.088 -0.4344 -0.4795 -0.3799
  973MOL0     C31287   5.920   0.106   9.994  0.3435 -0.1248  1.2135
  973MOL0     H31288   6.171   0.014   9.610 -0.0461  0.0053  0.9807
  973MOL0     H31289   6.344  -0.129   9.471  0.9885 -0.5814  0.3919
  973MOL0     H31290   6.572  -0.223   9.422 -1.3449  2.0330  2.0475
  973MOL0     H31291   6.631  -0.186   9.578  0.8408 -1.6300  0.6802
  973MOL0     H31292   6.689  -0.465   9.564 -1.7235 -2.1141 -2.8376
  973MOL0     H31293   6.710  -0.419   9.406 -1.4547 -1.4059  1.0276
  973MOL0     H31294   6.881  -0.247   9.469 -0.0808 -0.3374 -1.5550
  973MOL0     H31295   6.832  -0.287   9.640 -3.2670  2.5579 -1.2977
  973MOL0     H31296   6.894  -0.534   9.576 -0.2506  1.4677  0.3557
  973MOL0     H31297   6.978  -0.466   9.431 -2.1915 -0.4543 -0.7604
  973MOL0     H31298   7.129  -0.346   9.563  1.4875  0.7190  2.5908
  973MOL0     H31299   7.046  -0.380   9.710  2.7652 -0.6414  1.2908
  973MOL0     H31300   7.091  -0.629   9.668  0.7833 -0.9395  0.1213
  973MOL0     H31301   7.191  -0.584   9.535 -0.2975 -1.6528  0.2066
  973MOL0     H31302   7.335  -0.444   9.707 -2.1099  3.1349 -0.2444
  973MOL0     H31303   7.211  -0.496   9.828 -0.3316  0.0776 -0.0207
  973MOL0     H31304   7.410  -0.674   9.696 -1.0910  0.4240 -0.4953
  973MOL0     H31305   7.274  -0.737   9.779 -0.4260  0.0031 -1.9835
  973MOL0     H31306   7.574  -0.496   9.855 -0.0607  0.8019  0.2220
  973MOL0     H31307   7.681  -0.549  10.193 -0.8646 -0.2789 -0.3069
  973MOL0     H31308   7.692  -0.426  10.059  1.5343 -2.1977  0.1626
  973MOL0     H31309   7.636  -0.322  10.289 -1.7973 -1.8887  2.4366
  973MOL0     H31310   7.489  -0.397  10.301 -0.3042  1.2853  1.4206
  973MOL0     H31311   7.524  -0.222  10.058  0.5325  0.0795  0.3756
  973MOL0     H31312   7.468  -0.149  10.207 -1.3305  0.7556 -1.6559
  973MOL0     H31313   7.302  -0.342  10.229 -1.0025 -0.2016  0.5583
  973MOL0     H31314   7.334  -0.362  10.052 -3.2846  1.4757 -0.1425
  973MOL0     H31315   7.395  -0.230   9.874  0.6967  1.4036  0.8778
  973MOL0     H31316   7.456  -0.213   9.672  1.0603 -1.9863 -0.1894
  973MOL0     H31317   7.339  -0.243   9.544 -1.0550  0.9646  0.0368
  973MOL0     H31318   7.389  -0.074   9.587  0.1245  0.4832  1.7342
  973MOL0     H31319   7.013   0.254   9.534  0.5389  0.7154 -1.8254
  973MOL0     H31320   6.932   0.393   9.354 -0.2326 -0.7534  0.4386
  973MOL0     H31321   6.876   0.223   9.010 -0.0149  0.4308 -2.3965
  973MOL0     H31322   6.699   0.244   8.999 -0.6312  2.2650 -1.1205
  973MOL0     H31323   6.842   0.407   8.854  0.2200  0.7635  0.3464
  973MOL0     H31324   6.727   0.479   8.982 -0.3135  0.0517  1.3856
  973MOL0     H31325   7.028   0.435   9.016 -0.9015 -1.7628  0.2687
  973MOL0     H31326   6.919   0.538   9.125 -1.7428  1.1997  0.5536
  973MOL0     H31327   6.978   0.611   8.846  1.0469 -2.4513  1.2176
  973MOL0     H31328   6.864   0.687   8.960 -1.5534 -1.0580 -0.9058
  973MOL0     H31329   7.173   0.650   8.949 -1.0422  1.8353 -0.9535
  973MOL0     H31330   7.111   0.673   9.102  0.9195  1.5191  0.1362
  973MOL0     H31331   7.059   0.860   8.849 -1.3211  4.5713  0.3095
  973MOL0     H31332   6.993   0.896   9.003 -1.0964 -1.1240 -1.0429
  973MOL0     H31333   7.172   1.033   8.971 -3.1438 -0.1187 -2.6642
  973MOL0     H31334   7.286   0.897   8.926  1.0751 -2.0568  2.0734
  973MOL0     H31335   7.334   0.967   9.154  0.3400  0.5500  0.1756
  973MOL0     H31336   7.299   0.796   9.121  1.2088  0.6960  1.0626
  973MOL0     H31337   6.720   0.049   9.192  1.8512  0.2649 -2.1303
  973MOL0     H31338   6.796  -0.077   9.372  2.1817 -0.7929  0.8829
  973MOL0     H31339   6.943  -0.019   9.817  1.5374  3.4829 -0.9226
  973MOL0     H31340   7.033  -0.087  10.036  0.4853 -1.9384  1.3308
  973MOL0     H31341   6.422  -0.368   9.811  0.6607  1.0966  2.5010
  973MOL0     H31342   6.278  -0.233   9.936  2.4667  0.6752  0.4519
  973MOL0     H31343   6.192   0.189  10.180  0.1033  1.6899  0.7103
  973MOL0     H31344   6.006   0.250  10.334  3.2891 -2.7083  0.5334
  973MOL0     H31345   5.833   0.236  10.484  1.0662  1.3040 -0.2974
  973MOL0     H31346   5.791   0.391  10.403 -2.0738  1.5296 -1.1392
  973MOL0     H31347   5.660   0.357  10.603 -0.2960  0.0361  0.3016
  973MOL0     H31348   5.609   0.196  10.538 -0.0351  0.2327  1.2410
  973MOL0     H31349   5.440   0.267  10.416  0.0805  0.5194 -0.3467
  973MOL0     H31350   5.531   0.391  10.336 -1.6326  0.3637  0.2195
  973MOL0     H31351   5.454   0.423  10.629  0.3204  0.2671  0.6551
  973MOL0     H31352   5.345   0.472  10.510 -1.0033 -2.1701  1.0048
  973MOL0     H31353   5.600   0.807  10.495  1.0552 -1.2157  0.3590
  973MOL0     H31354   5.709   0.110  10.064 -0.0982 -1.4726 -1.1062
  973MOL0     H31355   5.892   0.072   9.895 -3.3133 -0.5330  2.2475
  974MOL0     O31356   4.597  10.908   7.898 -1.0288 -0.8591 -0.5033
  974MOL0     C31357   4.569  10.812   7.973 -0.3893  0.7043  0.7816
  974MOL0     O31358   4.489  10.714   7.932 -0.6910 -0.6308  0.0101
  974MOL0     C31359   4.442  10.721   7.806  0.5114 -0.3233  0.6081
  974MOL0     C31360   4.525  10.725   7.686 -0.4824 -0.3901 -0.4540
  974MOL0     C31361   4.468  10.757   7.561  0.3014 -0.4178  0.4221
  974MOL0     C31362   4.324  10.754   7.545 -0.1178 -0.2266  0.1226
  974MOL0     O31363   4.288  10.766   7.419  0.1202 -0.1102 -0.0046
  974MOL0     C31364   4.167  10.709   7.378 -0.3261 -0.4537 -0.7224
  974MOL0     C31365   4.184  10.556   7.385  0.0160 -0.1566  0.2460
  974MOL0     C31366   4.057  10.489   7.333  0.6694 -1.3465  0.2281
  974MOL0     C31367   4.052  10.335   7.312 -0.1850 -0.0714 -0.8236
  974MOL0     C31368   3.992  10.250   7.429 -0.2894 -0.6969  0.1089
  974MOL0     C31369   4.055  10.288   7.567  0.4420 -0.0526  0.2499
  974MOL0     C31370   4.205  10.256   7.586 -0.5320 -0.2782 -0.3415
  974MOL0     C31371   4.259  10.342   7.699  0.5751 -0.7360 -0.8466
  974MOL0     N31372   4.399  10.302   7.715  0.6740  0.0289 -0.7378
  974MOL0     C31373   4.501  10.347   7.629  0.2264 -0.4522  0.7473
  974MOL0     C31374   4.614  10.285   7.674 -0.0162  0.2427 -0.2233
  974MOL0     C31375   4.759  10.309   7.625  0.4397  0.1635 -0.6693
  974MOL0     C31376   4.833  10.176   7.622  0.5508  0.9697 -0.3702
  974MOL0     C31377   4.990  10.202   7.604 -0.8400 -0.0772 -0.8378
  974MOL0     C31378   5.049  10.198   7.746 -0.2637 -0.2195  0.1633
  974MOL0     O31379   5.184  10.236   7.743 -0.5213  0.1737 -0.4590
  974MOL0     C31380   5.247  10.229   7.871  0.7354 -0.9657  0.3954
  974MOL0     C31381   5.385  10.246   7.869  0.7051 -0.2179  0.7816
  974MOL0     C31382   5.463  10.282   7.979 -0.1983 -1.1814  0.0588
  974MOL0     C31383   5.611  10.294   7.953 -0.5943  0.3341  0.4002
  974MOL0     C31384   5.390  10.325   8.096 -0.1648  0.4262  0.6603
  974MOL0     C31385   5.455  10.392   8.215  1.2617  0.2807 -0.2055
  974MOL0     O31386   5.576  10.449   8.191  0.2693  0.1841  0.2261
  974MOL0     C31387   5.627  10.540   8.274 -0.5216  0.6687 -0.1985
  974MOL0     C31388   5.682  10.656   8.220  0.3559  0.4957 -0.5013
  974MOL0     C31389   5.731  10.756   8.298  0.5559 -0.3645 -0.5556
  974MOL0     C31390   5.721  10.748   8.435 -0.1853  0.7380 -0.3549
  974MOL0     O31391   5.775  10.851   8.506 -1.0968 -0.9388 -0.5084
  974MOL0     C31392   5.749  10.856   8.647 -0.6720  0.7148  0.2395
  974MOL0     C31393   5.763  11.005   8.686 -0.0374  0.0073  0.0829
  974MOL0     C31394   5.638  11.085   8.640 -1.2906  0.3046  0.1696
  974MOL0     C31395   5.635  11.227   8.710 -0.4666  0.0363  0.2525
  974MOL0     C31396   5.555  11.323   8.622  0.0215 -0.1862 -0.4022
  974MOL0     C31397   5.563  11.462   8.691  0.5053  0.1324  0.5385
  974MOL0     C31398   5.567  11.585   8.602 -0.1437  0.4067  0.9302
  974MOL0     C31399   5.440  11.600   8.519  0.2676 -0.0930 -0.1298
  974MOL0    Cl31400   5.304  11.642   8.606 -0.3985 -0.5466 -0.2501
  974MOL0     C31401   5.674  10.629   8.502 -0.4088  0.9231 -0.2010
  974MOL0     C31402   5.628  10.529   8.419 -0.7280  0.9980 -0.3552
  974MOL0     O31403   5.377  10.419   8.304  0.9102 -0.6800 -0.3338
  974MOL0     C31404   5.252  10.286   8.098 -0.1587  0.4364 -1.2779
  974MOL0     C31405   5.188  10.220   7.995  0.7284 -0.2482 -0.5842
  974MOL0     N31406   4.585  10.204   7.784  0.3071 -0.8434  0.9960
  974MOL0     N31407   4.455  10.213   7.804  0.4726 -0.0787 -0.7583
  974MOL0     C31408   4.242  10.746   7.659 -0.9901 -0.0884  1.1469
  974MOL0     C31409   4.300  10.732   7.780 -0.6204  0.1787  0.2947
  974MOL0     C31410   4.620  10.818   8.114  0.1271 -0.7676  0.5617
  974MOL0     C31411   4.640  10.943   8.172 -0.9137  0.3695  0.1782
  974MOL0     C31412   4.671  10.948   8.309  0.3305  0.8799 -0.9314
  974MOL0     C31413   4.707  10.833   8.385 -0.0700  0.6032 -0.2085
  974MOL0     O31414   4.749  10.825   8.514  0.4894  0.6557 -0.6819
  974MOL0     C31415   4.801  10.944   8.577 -0.4334  1.0315 -0.2981
  974MOL0     C31416   4.694  11.018   8.650 -0.0852  0.0940 -0.6657
  974MOL0     C31417   4.610  10.931   8.747 -0.8477 -0.4961 -0.2503
  974MOL0     C31418   4.513  11.008   8.839  0.2709 -0.5265 -0.5854
  974MOL0     C31419   4.390  11.058   8.779  0.3777 -0.6021 -0.1685
  974MOL0     C31420   4.303  11.102   8.708 -0.9824  0.9226  0.9206
  974MOL0     C31421   4.710  10.714   8.319 -0.9683  0.0617  0.0923
  974MOL0     C31422   4.658  10.707   8.191  0.3082  0.9551  0.8738
  974MOL0     H31423   4.630  10.700   7.697 -0.5028 -0.2505  0.0891
  974MOL0     H31424   4.533  10.794   7.482 -0.7009 -0.1789 -0.3238
  974MOL0     H31425   4.090  10.758   7.438  0.0108  0.6531 -1.1598
  974MOL0     H31426   4.146  10.733   7.273  2.8414 -3.3021 -2.1809
  974MOL0     H31427   4.260  10.532   7.309 -1.2008  2.0824 -1.8324
  974MOL0     H31428   4.215  10.528   7.486 -3.6895  0.2213  1.6281
  974MOL0     H31429   3.972  10.527   7.390  0.6355 -1.5042  0.2824
  974MOL0     H31430   4.036  10.528   7.233 -3.2289 -3.0150  0.2016
  974MOL0     H31431   3.982  10.315   7.230 -1.4143  3.0530 -0.6922
  974MOL0     H31432   4.155  10.303   7.294  0.8760  1.9995  1.0864
  974MOL0     H31433   3.884  10.267   7.438 -0.8104 -2.0334 -2.5853
  974MOL0     H31434   4.000  10.142   7.411 -1.4104 -1.3525  3.0242
  974MOL0     H31435   4.032  10.393   7.585  0.2948 -0.2430  1.1904
  974MOL0     H31436   3.994  10.236   7.641  0.8414 -0.8363  0.0433
  974MOL0     H31437   4.213  10.154   7.626 -1.0958 -0.3466 -0.3908
  974MOL0     H31438   4.271  10.259   7.499  2.1637 -0.2761  1.5795
  974MOL0     H31439   4.207  10.331   7.795  0.6764  0.8121 -0.5937
  974MOL0     H31440   4.252  10.450   7.683 -2.3291 -0.8609 -1.0379
  974MOL0     H31441   4.496  10.421   7.550  1.4435  0.0764  1.1286
  974MOL0     H31442   4.773  10.346   7.522  1.8782 -0.4740 -0.7296
  974MOL0     H31443   4.821  10.370   7.692  4.0498 -2.4334 -1.3238
  974MOL0     H31444   4.812  10.128   7.525  3.4419  1.3411 -1.2956
  974MOL0     H31445   4.800  10.124   7.712  1.9767  3.3594  1.6681
  974MOL0     H31446   5.018  10.299   7.560  1.7176  1.6195  3.8148
  974MOL0     H31447   5.031  10.106   7.573 -1.9017 -0.7604 -0.1688
  974MOL0     H31448   5.040  10.093   7.775  0.7333 -0.8664 -1.7287
  974MOL0     H31449   4.989  10.266   7.807 -2.7350 -3.6481  1.9320
  974MOL0     H31450   5.430  10.241   7.770 -3.7868 -1.7627 -1.4829
  974MOL0     H31451   5.634  10.245   7.858  2.4084  1.0435  0.6748
  974MOL0     H31452   5.651  10.396   7.944 -1.4168  0.6418  0.0810
  974MOL0     H31453   5.684  10.241   8.014  0.0240  0.5404 -0.1450
  974MOL0     H31454   5.685  10.664   8.112  0.4219  0.9663 -0.4681
  974MOL0     H31455   5.792  10.838   8.261  0.3355  0.1063  0.1035
  974MOL0     H31456   5.656  10.814   8.683 -0.1917  0.3879  1.1195
  974MOL0     H31457   5.838  10.809   8.691  0.5516  1.9649 -0.7827
  974MOL0     H31458   5.749  11.005   8.794 -0.4900 -1.5441  0.0561
  974MOL0     H31459   5.860  11.037   8.648  0.1892  0.2822  0.8860
  974MOL0     H31460   5.538  11.042   8.633  0.2016 -3.4784 -0.1016
  974MOL0     H31461   5.662  11.106   8.535 -0.9323  2.1686  0.5828
  974MOL0     H31462   5.595  11.212   8.811 -1.1220 -2.2294 -0.2995
  974MOL0     H31463   5.735  11.271   8.721  0.2761 -1.5817  0.3349
  974MOL0     H31464   5.452  11.287   8.628 -0.9600  1.7285 -3.6793
  974MOL0     H31465   5.599  11.329   8.522 -0.2878  0.6853 -0.4896
  974MOL0     H31466   5.486  11.479   8.767 -0.4713 -3.3810  0.4861
  974MOL0     H31467   5.658  11.462   8.746  2.0620 -2.0758 -1.8897
  974MOL0     H31468   5.654  11.565   8.539 -0.1610  1.0358  0.7004
  974MOL0     H31469   5.596  11.676   8.657  1.3303  0.5603 -0.0494
  974MOL0     H31470   5.423  11.504   8.469 -0.8886  1.1679 -2.3573
  974MOL0     H31471   5.456  11.678   8.444 -0.2354 -0.7103 -0.9018
  974MOL0     H31472   5.666  10.608   8.609  0.2220  1.5827 -0.0170
  974MOL0     H31473   5.592  10.431   8.449  2.1755 -0.5844 -1.6094
  974MOL0     H31474   5.199  10.304   8.191  2.3551 -0.7744  0.5034
  974MOL0     H31475   5.083  10.195   8.007  0.8321 -0.6980 -0.6137
  974MOL0     H31476   4.135  10.764   7.653 -0.9017  0.3224  0.7227
  974MOL0     H31477   4.230  10.750   7.862  0.1758  0.5557  0.9039
  974MOL0     H31478   4.639  11.036   8.116  1.4729 -1.6474 -3.6417
  974MOL0     H31479   4.679  11.049   8.347  3.6688  0.2006  0.5932
  974MOL0     H31480   4.886  10.923   8.642 -0.3617  1.4587 -0.2522
  974MOL0     H31481   4.836  11.015   8.501  1.2607 -1.6889 -2.2870
  974MOL0     H31482   4.631  11.051   8.567 -1.0770 -3.2618 -1.3654
  974MOL0     H31483   4.728  11.109   8.701  0.6206  0.3686 -1.5964
  974MOL0     H31484   4.681  10.889   8.818  0.1943 -0.0537 -1.0047
  974MOL0     H31485   4.555  10.851   8.697  3.7963 -3.4207 -1.2341
  974MOL0     H31486   4.562  11.090   8.892 -0.7822 -0.1598 -0.1364
  974MOL0     H31487   4.479  10.936   8.915  1.4687 -0.5683 -0.0643
  974MOL0     H31488   4.253  11.144   8.623  0.0694  0.8650  0.2629
  974MOL0     H31489   4.742  10.627   8.376  1.4576  0.9401  0.1617
  974MOL0     H31490   4.654  10.605   8.153  1.5343  1.3616 -0.4231
  975MOL0     O31491   8.004   4.719   6.705 -0.7925  0.2836  0.5863
  975MOL0     C31492   8.096   4.784   6.653 -0.6594  0.1367 -0.8882
  975MOL0     O31493   8.099   4.838   6.532 -0.3611  0.3233  0.1560
  975MOL0     C31494   7.978   4.851   6.468 -0.4430  0.0459  0.2441
  975MOL0     C31495   7.876   4.935   6.519 -0.1448  0.1327 -0.6827
  975MOL0     C31496   7.769   4.957   6.439 -0.9697 -0.6538 -0.3474
  975MOL0     C31497   7.757   4.900   6.307  0.1792 -0.4070 -0.0159
  975MOL0     O31498   7.643   4.924   6.236 -0.5227  0.1393  0.4952
  975MOL0     C31499   7.554   4.814   6.226 -0.3383 -0.3850  0.0119
  975MOL0     C31500   7.520   4.772   6.079 -0.0782 -0.0729 -0.4048
  975MOL0     C31501   7.557   4.872   5.971 -1.1205 -0.5514  0.2152
  975MOL0     C31502   7.511   4.811   5.831 -0.3907  0.8717 -1.5703
  975MOL0     C31503   7.357   4.768   5.821 -0.7417 -0.6124  0.2673
  975MOL0     C31504   7.323   4.751   5.668 -0.2963 -1.5626  0.6677
  975MOL0     C31505   7.345   4.608   5.613  0.0098  0.3507  0.1438
  975MOL0     C31506   7.484   4.567   5.597 -0.0872 -0.3461 -0.9149
  975MOL0     N31507   7.498   4.446   5.509 -0.0248  0.1611 -0.3228
  975MOL0     C31508   7.513   4.319   5.552 -0.1311 -0.0076  0.1043
  975MOL0     C31509   7.495   4.247   5.445  0.3496  0.4758  0.1794
  975MOL0     C31510   7.493   4.088   5.420 -0.4579  0.4097 -0.8411
  975MOL0     C31511   7.378   4.017   5.499  0.3560  0.0953 -0.4130
  975MOL0     C31512   7.252   3.995   5.419 -0.7112  0.3937  0.8972
  975MOL0     C31513   7.177   4.130   5.394  0.6669 -0.2171 -0.7008
  975MOL0     O31514   7.053   4.130   5.465  0.7203 -0.0864 -0.7495
  975MOL0     C31515   7.043   4.168   5.594 -0.3874 -0.9243 -0.0358
  975MOL0     C31516   6.955   4.101   5.677  0.2469 -0.1679  0.4199
  975MOL0     C31517   6.954   4.133   5.813  0.5479  0.7101  0.0559
  975MOL0     C31518   6.868   4.066   5.906  0.2356 -0.1983  0.9957
  975MOL0     C31519   7.033   4.238   5.864  0.3497 -1.2310 -1.1246
  975MOL0     C31520   7.020   4.291   6.005  0.1244 -0.4880  0.5903
  975MOL0     O31521   7.014   4.424   6.026  0.5202 -0.9738  0.1599
  975MOL0     C31522   6.903   4.488   5.975  0.3394 -0.1173 -1.0386
  975MOL0     C31523   6.769   4.443   5.957  0.0229  1.1024  0.8156
  975MOL0     C31524   6.663   4.517   5.907  0.0806 -0.1832 -0.4772
  975MOL0     C31525   6.687   4.650   5.867 -0.1043 -0.1655 -0.5122
  975MOL0     O31526   6.582   4.727   5.823  0.3226  0.0557  0.7537
  975MOL0     C31527   6.550   4.842   5.893 -1.1465  0.5112 -0.4607
  975MOL0     C31528   6.415   4.897   5.852 -0.1283 -0.9160 -0.3285
  975MOL0     C31529   6.347   4.984   5.964 -0.4600  0.7862 -0.0269
  975MOL0     C31530   6.412   5.117   5.995  0.2654 -0.8689 -0.3392
  975MOL0     C31531   6.337   5.205   6.096  1.0282 -0.0340 -1.0995
  975MOL0     C31532   6.389   5.191   6.237 -0.1345 -0.4319 -0.0683
  975MOL0     C31533   6.522   5.277   6.265 -0.1292 -0.1019  0.6346
  975MOL0     C31534   6.606   5.213   6.380  0.5668 -0.3313 -0.3106
  975MOL0    Cl31535   6.705   5.075   6.312  0.2193  0.1545  0.1887
  975MOL0     C31536   6.815   4.700   5.863 -0.1442  0.0197  1.2522
  975MOL0     C31537   6.920   4.618   5.921 -0.1823  0.0234 -0.1240
  975MOL0     O31538   7.041   4.212   6.100  0.1280 -0.2930  0.4259
  975MOL0     C31539   7.134   4.290   5.788 -0.0755 -1.3027 -0.3170
  975MOL0     C31540   7.140   4.258   5.652  0.3987 -0.3126 -0.6208
  975MOL0     N31541   7.455   4.327   5.339  0.6810 -0.3257 -0.0162
  975MOL0     N31542   7.459   4.446   5.382 -0.0245 -0.1280 -0.3296
  975MOL0     C31543   7.869   4.834   6.258  0.5600 -0.0349  0.7946
  975MOL0     C31544   7.980   4.802   6.335  0.0841  0.3233  0.6683
  975MOL0     C31545   8.225   4.790   6.728 -0.4529 -0.1975  0.9622
  975MOL0     C31546   8.259   4.692   6.820  0.0421 -0.1906 -0.0546
  975MOL0     C31547   8.387   4.708   6.882  0.0715 -0.8636  0.2548
  975MOL0     C31548   8.480   4.810   6.845 -1.4414  0.0269  0.6513
  975MOL0     O31549   8.607   4.836   6.904  0.6774  0.0246 -0.9887
  975MOL0     C31550   8.621   4.792   7.045  0.1870  0.2697  0.4253
  975MOL0     C31551   8.767   4.832   7.089 -0.4581 -0.2289  0.2103
  975MOL0     C31552   8.778   4.796   7.242 -0.0345 -0.6735  0.6986
  975MOL0     C31553   8.916   4.819   7.301 -0.4252 -0.2034 -0.9865
  975MOL0     C31554   8.947   4.963   7.277  0.5916  0.6647 -0.7893
  975MOL0     C31555   8.979   5.080   7.264  0.4352 -0.0451  0.3765
  975MOL0     C31556   8.438   4.910   6.753 -0.6312  0.1512  0.1647
  975MOL0     C31557   8.313   4.895   6.690  0.6306  0.5679 -1.1073
  975MOL0     H31558   7.870   4.980   6.618 -0.7280  2.7646 -1.8177
  975MOL0     H31559   7.687   5.009   6.487 -1.0461 -0.4269 -0.7256
  975MOL0     H31560   7.582   4.725   6.283 -1.5408  0.1028  1.4108
  975MOL0     H31561   7.466   4.841   6.285  0.1940  0.4783  0.4265
  975MOL0     H31562   7.588   4.689   6.061  2.0587  0.7582  2.9725
  975MOL0     H31563   7.421   4.725   6.071  0.1092 -1.6054  3.7816
  975MOL0     H31564   7.505   4.966   5.990 -1.7548 -0.9509  0.4861
  975MOL0     H31565   7.663   4.895   5.959 -1.7759  2.1496 -0.9790
  975MOL0     H31566   7.544   4.891   5.764  0.8120  1.3359 -0.4678
  975MOL0     H31567   7.565   4.717   5.814 -4.1924 -2.4086  2.1402
  975MOL0     H31568   7.328   4.679   5.878 -2.4462 -0.6707 -0.6098
  975MOL0     H31569   7.295   4.847   5.865  0.3506  0.3293  0.1463
  975MOL0     H31570   7.217   4.775   5.668  0.5427  3.0193  0.8443
  975MOL0     H31571   7.371   4.822   5.600 -5.2895  2.6744  0.9602
  975MOL0     H31572   7.290   4.535   5.672 -1.9177  2.4080  1.0619
  975MOL0     H31573   7.298   4.598   5.514  1.7741 -2.2800 -0.5122
  975MOL0     H31574   7.516   4.527   5.693  1.9121 -0.0512 -1.3979
  975MOL0     H31575   7.547   4.648   5.558  1.1455 -0.3936  0.8321
  975MOL0     H31576   7.529   4.290   5.655 -0.1081  1.0385  0.4151
  975MOL0     H31577   7.494   4.071   5.312  1.9238 -0.0929 -0.7881
  975MOL0     H31578   7.586   4.040   5.451  0.3646  2.2072 -0.4213
  975MOL0     H31579   7.349   4.050   5.599 -0.1052 -1.5267  0.0241
  975MOL0     H31580   7.420   3.920   5.526  3.2228  1.6743  1.1323
  975MOL0     H31581   7.187   3.931   5.479 -0.1999  0.4604  1.5225
  975MOL0     H31582   7.283   3.941   5.329 -1.5473  1.3706 -0.0195
  975MOL0     H31583   7.148   4.135   5.289  2.4267 -1.3405 -1.2889
  975MOL0     H31584   7.235   4.222   5.408 -0.5225  0.6841 -1.3832
  975MOL0     H31585   6.891   4.031   5.625  1.3267 -1.8152  1.2192
  975MOL0     H31586   6.931   4.016   5.980  0.4200 -2.7436 -0.7638
  975MOL0     H31587   6.792   4.139   5.935  1.8779  2.5063 -1.0928
  975MOL0     H31588   6.827   3.977   5.858  1.0095 -1.2943  2.2690
  975MOL0     H31589   6.736   4.350   6.002  0.0558  1.0458  0.7229
  975MOL0     H31590   6.563   4.475   5.903 -0.4444  0.9647  0.0588
  975MOL0     H31591   6.557   4.830   6.001  1.8223  0.3387 -0.6042
  975MOL0     H31592   6.620   4.920   5.863  0.0084 -0.8882 -1.5346
  975MOL0     H31593   6.414   4.945   5.754 -2.1173 -1.2801 -0.5469
  975MOL0     H31594   6.361   4.802   5.849  3.7016 -3.2600 -3.5231
  975MOL0     H31595   6.340   4.931   6.060 -1.4708  1.6661  0.4070
  975MOL0     H31596   6.244   4.998   5.930 -1.7228 -0.6021  2.8544
  975MOL0     H31597   6.514   5.105   6.032  0.2977  0.1697 -0.0602
  975MOL0     H31598   6.405   5.182   5.907  0.2018 -0.2576  0.1093
  975MOL0     H31599   6.230   5.187   6.084 -0.1434  6.1109 -3.7996
  975MOL0     H31600   6.340   5.312   6.076 -2.6235  1.2182  3.3987
  975MOL0     H31601   6.308   5.244   6.289 -2.0369 -0.6403 -2.5908
  975MOL0     H31602   6.397   5.084   6.259  1.3531 -0.5833 -1.2618
  975MOL0     H31603   6.484   5.374   6.300 -2.4972 -1.3343  1.7557
  975MOL0     H31604   6.569   5.301   6.170 -3.3514  1.5979 -0.7222
  975MOL0     H31605   6.538   5.174   6.456  0.7906 -2.4283 -1.1232
  975MOL0     H31606   6.664   5.289   6.433 -0.1572 -0.4256  0.6403
  975MOL0     H31607   6.832   4.800   5.826  0.0362 -0.7783 -0.9742
  975MOL0     H31608   7.016   4.669   5.924 -1.6636  2.9913  0.2093
  975MOL0     H31609   7.200   4.369   5.821 -1.7934  0.2730 -0.4952
  975MOL0     H31610   7.229   4.291   5.600  0.3603 -1.0498 -1.1792
  975MOL0     H31611   7.860   4.798   6.156  0.4909 -0.6236  1.0007
  975MOL0     H31612   8.061   4.742   6.296  0.6359  2.0129 -0.9126
  975MOL0     H31613   8.197   4.612   6.860 -2.5645  0.8278 -1.8239
  975MOL0     H31614   8.421   4.642   6.960 -0.4840 -3.1317 -1.3061
  975MOL0     H31615   8.543   4.834   7.109 -0.4161  0.2986 -0.3167
  975MOL0     H31616   8.611   4.683   7.045 -0.7752  0.3424  0.0139
  975MOL0     H31617   8.777   4.940   7.074  1.2214 -0.2561  0.9340
  975MOL0     H31618   8.834   4.775   7.025  0.6604  1.4996 -0.2251
  975MOL0     H31619   8.756   4.689   7.252 -1.9712 -0.6919 -2.3409
  975MOL0     H31620   8.698   4.849   7.294  0.4802  0.8374 -0.0142
  975MOL0     H31621   8.988   4.749   7.257 -0.1343  0.8499 -2.2663
  975MOL0     H31622   8.923   4.809   7.409 -1.3805  2.3569 -0.6269
  975MOL0     H31623   9.008   5.183   7.263  3.1229 -0.7023  1.8163
  975MOL0     H31624   8.507   4.994   6.743 -1.2471  0.6694  0.2159
  975MOL0     H31625   8.288   4.973   6.619  1.3436  1.8478  0.0017
  976MOL0     O31626   1.815   2.494   7.051 -0.1465  0.4658  0.1208
  976MOL0     C31627   1.841   2.617   7.032 -0.0938  1.0838 -0.4358
  976MOL0     O31628   1.964   2.668   7.017 -1.0238  0.5820 -0.2935
  976MOL0     C31629   2.080   2.592   7.022  0.2009 -0.1743 -0.0250
  976MOL0     C31630   2.166   2.561   6.913 -0.1229  0.1339  0.3870
  976MOL0     C31631   2.297   2.510   6.941  0.1445  0.5081  0.4276
  976MOL0     C31632   2.351   2.489   7.075  0.9175  0.2209 -1.0503
  976MOL0     O31633   2.481   2.478   7.102 -0.3686 -0.6117  0.5237
  976MOL0     C31634   2.554   2.386   7.016  0.6669 -1.0495  0.4585
  976MOL0     C31635   2.578   2.262   7.110  0.6193  0.1336  0.3309
  976MOL0     C31636   2.675   2.168   7.055 -0.6008  1.4693 -0.6748
  976MOL0     C31637   2.825   2.213   7.025  0.7801 -0.0141 -1.4720
  976MOL0     C31638   2.893   2.197   7.153 -0.0455 -0.5319 -0.2504
  976MOL0     C31639   3.027   2.265   7.160  0.4074  0.1239  0.5948
  976MOL0     C31640   3.084   2.272   7.303  0.4917 -0.5184  0.5686
  976MOL0     C31641   3.109   2.135   7.369  0.3403  0.3165  0.2860
  976MOL0     N31642   3.218   2.146   7.471  0.1365  0.8120  0.0667
  976MOL0     C31643   3.214   2.243   7.569  0.2796  0.0663 -0.7214
  976MOL0     C31644   3.319   2.188   7.656  0.5469 -0.7728  0.4107
  976MOL0     C31645   3.378   2.253   7.770 -0.1899  1.1036  0.7368
  976MOL0     C31646   3.284   2.286   7.881  0.1402  0.2451  0.2173
  976MOL0     C31647   3.371   2.364   7.983 -0.5624 -0.6832  0.7587
  976MOL0     C31648   3.313   2.421   8.111  0.2597 -0.1202  0.0064
  976MOL0     O31649   3.424   2.464   8.193 -0.4314 -0.4469  0.3744
  976MOL0     C31650   3.413   2.489   8.326  0.1027 -0.2641 -0.3225
  976MOL0     C31651   3.525   2.475   8.402 -0.5968  0.0420  1.4742
  976MOL0     C31652   3.527   2.488   8.541  1.0179  0.7532  0.6185
  976MOL0     C31653   3.657   2.473   8.619 -0.1652  0.4017 -0.2975
  976MOL0     C31654   3.407   2.523   8.608  0.0297  0.1956  0.1193
  976MOL0     C31655   3.403   2.580   8.750 -0.4312  0.3280 -0.0197
  976MOL0     O31656   3.269   2.586   8.808 -0.5157  0.7647  1.2662
  976MOL0     C31657   3.255   2.640   8.927  0.1662  0.1773 -0.2348
  976MOL0     C31658   3.253   2.550   9.030 -0.9274 -0.3138  0.0856
  976MOL0     C31659   3.267   2.599   9.160  0.0328  0.0429 -0.0256
  976MOL0     C31660   3.266   2.734   9.192 -0.5428  0.2956  1.2592
  976MOL0     O31661   3.259   2.776   9.321  0.4529 -0.3714  0.2128
  976MOL0     C31662   3.141   2.845   9.353  0.0021 -1.0108  0.6148
  976MOL0     C31663   3.149   2.861   9.503  0.4327 -0.1302  0.9781
  976MOL0     C31664   3.140   2.722   9.577 -0.1275 -0.6488  0.2921
  976MOL0     C31665   3.149   2.744   9.722 -0.0019  0.0296 -0.2450
  976MOL0     C31666   3.156   2.621   9.817  0.0720 -0.2053  0.0357
  976MOL0     C31667   3.278   2.536   9.803 -0.0028  0.1002 -0.5130
  976MOL0     C31668   3.269   2.415   9.910  0.1227 -0.9268  0.0465
  976MOL0     C31669   3.292   2.445  10.056  0.1275 -0.2345 -0.0705
  976MOL0    Cl31670   3.326   2.285  10.147  0.9908  0.2502 -0.0117
  976MOL0     C31671   3.262   2.824   9.081 -0.4759 -0.4939  0.0094
  976MOL0     C31672   3.259   2.772   8.943  0.2278 -0.6208  0.8078
  976MOL0     O31673   3.503   2.617   8.805 -0.5113  0.0502 -1.3367
  976MOL0     C31674   3.289   2.545   8.528 -0.9659 -0.0515  0.5988
  976MOL0     C31675   3.291   2.525   8.390 -0.6105 -0.4944 -0.0442
  976MOL0     N31676   3.375   2.083   7.592  0.1139  0.2484 -0.4786
  976MOL0     N31677   3.323   2.062   7.480  0.2760  0.1371 -0.3376
  976MOL0     C31678   2.264   2.529   7.180  1.7060  0.3264 -0.2452
  976MOL0     C31679   2.138   2.579   7.147  0.5788 -0.7772  0.4639
  976MOL0     C31680   1.724   2.715   7.043 -0.4906 -0.6579  0.1660
  976MOL0     C31681   1.598   2.674   7.083  0.3420  0.7798  0.3412
  976MOL0     C31682   1.489   2.751   7.087  0.4585 -0.0461  0.0466
  976MOL0     C31683   1.502   2.888   7.045  0.4181  0.9480 -0.8541
  976MOL0     O31684   1.381   2.957   7.057  0.1835  0.7290 -0.3101
  976MOL0     C31685   1.360   3.098   7.014 -0.1000 -0.6856  0.2520
  976MOL0     C31686   1.310   3.107   6.872 -0.3058  0.2953 -0.0506
  976MOL0     C31687   1.295   3.247   6.807 -0.0460  0.9494  0.0722
  976MOL0     C31688   1.241   3.352   6.897  0.3901  0.6518 -0.5072
  976MOL0     C31689   1.118   3.314   6.963 -0.1249 -0.1255  0.5187
  976MOL0     C31690   1.026   3.270   7.013  0.6312  1.0304  0.6617
  976MOL0     C31691   1.623   2.927   6.996 -0.3439 -0.1891  0.8239
  976MOL0     C31692   1.732   2.837   6.984 -0.5751 -0.3632  0.0452
  976MOL0     H31693   2.131   2.581   6.812  2.1581  0.1773 -0.4666
  976MOL0     H31694   2.366   2.488   6.860  0.5672  2.1802  0.2973
  976MOL0     H31695   2.500   2.365   6.923 -0.8224 -0.0155  1.0426
  976MOL0     H31696   2.648   2.427   6.978  0.4970 -2.6741 -1.9411
  976MOL0     H31697   2.614   2.291   7.209 -0.2020 -0.2142  0.7454
  976MOL0     H31698   2.476   2.222   7.118 -0.8869  3.0031 -2.2484
  976MOL0     H31699   2.676   2.075   7.113 -1.6181  1.4962 -0.6011
  976MOL0     H31700   2.642   2.133   6.957  1.3971 -2.3115 -0.2175
  976MOL0     H31701   2.854   2.139   6.950  3.7348 -0.3096 -0.1490
  976MOL0     H31702   2.825   2.313   6.979 -1.0388 -0.5177 -2.7266
  976MOL0     H31703   2.829   2.248   7.225  0.1978 -0.0151 -0.3989
  976MOL0     H31704   2.896   2.090   7.174 -1.5209 -0.2607  1.7190
  976MOL0     H31705   3.104   2.212   7.104 -2.2951 -2.5987 -0.8339
  976MOL0     H31706   3.014   2.364   7.117 -3.5268 -0.7051 -0.5623
  976MOL0     H31707   3.180   2.320   7.283 -0.1590  0.1394 -1.0789
  976MOL0     H31708   3.034   2.339   7.374 -0.2603 -0.5062  0.0276
  976MOL0     H31709   3.144   2.072   7.286  2.0464  1.4035  0.1477
  976MOL0     H31710   3.018   2.099   7.418  1.0816 -0.4388  1.1412
  976MOL0     H31711   3.145   2.327   7.576  0.5521  0.1771  1.1804
  976MOL0     H31712   3.449   2.189   7.824 -0.8876 -0.0477  0.3465
  976MOL0     H31713   3.417   2.353   7.751  0.9715  0.9944  2.3975
  976MOL0     H31714   3.247   2.190   7.917  0.0053 -0.6115 -2.0368
  976MOL0     H31715   3.199   2.344   7.844  1.5386  1.6001 -1.0007
  976MOL0     H31716   3.409   2.453   7.932  2.1168 -2.5517 -0.7622
  976MOL0     H31717   3.459   2.303   8.005  1.9237  1.2984 -2.7440
  976MOL0     H31718   3.264   2.344   8.172  0.4632  2.5428  3.9309
  976MOL0     H31719   3.240   2.500   8.087 -0.8646 -1.3489 -0.7419
  976MOL0     H31720   3.610   2.465   8.334  1.0119 -1.9548  3.6236
  976MOL0     H31721   3.648   2.409   8.708  1.9787  1.6829  0.9289
  976MOL0     H31722   3.736   2.431   8.557 -0.1083  0.1763 -0.0764
  976MOL0     H31723   3.688   2.572   8.654 -0.8705  0.0881  1.3165
  976MOL0     H31724   3.243   2.445   9.003 -1.3588  0.0302 -1.1269
  976MOL0     H31725   3.278   2.537   9.249 -0.0605 -1.3522 -0.9578
  976MOL0     H31726   3.142   2.945   9.308 -1.2351 -1.1183  0.3317
  976MOL0     H31727   3.048   2.793   9.328 -1.3252  0.3589  2.3949
  976MOL0     H31728   3.243   2.914   9.521 -0.3834  2.2163 -1.1954
  976MOL0     H31729   3.072   2.923   9.548  0.8107  1.4348 -0.4688
  976MOL0     H31730   3.230   2.664   9.555 -0.7481 -1.6063  0.2356
  976MOL0     H31731   3.049   2.667   9.551  0.4772 -0.7620 -1.7726
  976MOL0     H31732   3.237   2.806   9.741 -0.0148 -0.6884  2.5234
  976MOL0     H31733   3.065   2.811   9.743  0.0374 -0.5427  1.9067
  976MOL0     H31734   3.064   2.560   9.818  1.7146 -2.9585  3.2292
  976MOL0     H31735   3.149   2.659   9.919  0.9589 -1.4902  0.5910
  976MOL0     H31736   3.282   2.479   9.710  0.2759 -0.5183 -0.1296
  976MOL0     H31737   3.363   2.605   9.802 -1.0475  1.4305 -1.0757
  976MOL0     H31738   3.339   2.335   9.883  2.2767  0.8720  0.0360
  976MOL0     H31739   3.163   2.388   9.908 -1.1536  2.9530  2.9795
  976MOL0     H31740   3.205   2.496  10.097 -1.1409 -2.9442  0.9003
  976MOL0     H31741   3.378   2.512  10.065 -0.2489  0.4296 -1.2654
  976MOL0     H31742   3.268   2.931   9.098 -1.3901 -0.3385 -0.5853
  976MOL0     H31743   3.263   2.836   8.855  1.0067 -0.3456  1.0280
  976MOL0     H31744   3.204   2.582   8.584  0.3045 -1.0796  3.3518
  976MOL0     H31745   3.213   2.547   8.318  0.1314 -2.3782 -1.4980
  976MOL0     H31746   2.292   2.552   7.282 -3.2185  0.8200  1.2513
  976MOL0     H31747   2.073   2.621   7.224 -2.4706  1.0078 -2.7918
  976MOL0     H31748   1.586   2.579   7.134  3.4121  0.3059  0.3345
  976MOL0     H31749   1.390   2.713   7.109  0.6961 -1.4868 -1.2768
  976MOL0     H31750   1.294   3.142   7.090 -0.3917 -1.5117  0.4882
  976MOL0     H31751   1.457   3.148   7.015 -0.4006 -0.0030 -1.5547
  976MOL0     H31752   1.211   3.059   6.872  0.4452 -1.4626  2.3839
  976MOL0     H31753   1.382   3.049   6.815 -0.2774  0.9358 -0.6783
  976MOL0     H31754   1.232   3.234   6.719 -0.2829 -0.2561  0.3936
  976MOL0     H31755   1.391   3.270   6.762  1.4323 -3.7194  0.2923
  976MOL0     H31756   1.218   3.442   6.840 -1.0113  1.2654  0.9569
  976MOL0     H31757   1.319   3.370   6.972 -0.9999 -0.7415  1.3609
  976MOL0     H31758   0.955   3.210   7.066  2.2867 -1.2321  0.4428
  976MOL0     H31759   1.629   3.027   6.955 -2.1845  0.4580  2.0173
  976MOL0     H31760   1.829   2.874   6.954 -1.4184  0.5604 -1.6858
  977MOL0     O31761  10.367   2.828   5.797 -0.5520  0.5150 -0.6618
  977MOL0     C31762  10.292   2.887   5.722 -0.0286 -0.3318  0.1315
  977MOL0     O31763  10.158   2.869   5.714 -0.7920  0.2621 -0.2788
  977MOL0     C31764  10.097   2.794   5.814  0.6113 -0.1138 -0.0288
  977MOL0     C31765  10.000   2.697   5.785  0.6929 -0.0969 -0.4483
  977MOL0     C31766   9.944   2.617   5.889 -0.1989  0.6903  0.9693
  977MOL0     C31767   9.957   2.649   6.024 -0.0582  0.1142 -0.5359
  977MOL0     O31768   9.890   2.570   6.123  0.0648  0.0076 -0.1721
  977MOL0     C31769   9.827   2.643   6.223 -1.0014  0.8240 -0.3200
  977MOL0     C31770   9.711   2.571   6.296 -0.7140 -0.6646 -0.1912
  977MOL0     C31771   9.637   2.667   6.397 -0.4317  0.4465 -0.7262
  977MOL0     C31772   9.714   2.744   6.504 -1.1762  1.0488  0.1809
  977MOL0     C31773   9.655   2.770   6.642  0.4713  0.8018  1.1193
  977MOL0     C31774   9.612   2.643   6.728 -0.9445  0.0267  0.0814
  977MOL0     C31775   9.574   2.666   6.870  0.0256 -0.1432 -0.2447
  977MOL0     C31776   9.456   2.564   6.914  0.5659  0.2997  0.2658
  977MOL0     N31777   9.491   2.426   6.899 -0.0841 -0.1885 -0.6008
  977MOL0     C31778   9.492   2.348   6.789 -0.5502  0.6782 -0.2630
  977MOL0     C31779   9.521   2.220   6.836 -0.0402 -0.1705 -0.9382
  977MOL0     C31780   9.514   2.098   6.749  0.0805 -0.8452  0.9737
  977MOL0     C31781   9.655   2.064   6.689 -0.0049  0.2304 -0.0052
  977MOL0     C31782   9.704   2.156   6.576 -0.0752 -0.5729  0.5357
  977MOL0     C31783   9.605   2.166   6.453 -0.1922 -0.0462  0.0953
  977MOL0     O31784   9.499   2.261   6.469 -0.5307  0.1292  0.4441
  977MOL0     C31785   9.384   2.247   6.395 -0.2815  0.2073 -0.5683
  977MOL0     C31786   9.300   2.352   6.385  0.2035  0.2355  0.2255
  977MOL0     C31787   9.187   2.361   6.293 -0.0263  0.2721 -1.0825
  977MOL0     C31788   9.118   2.493   6.288 -0.4346  0.5953  0.1230
  977MOL0     C31789   9.161   2.257   6.217 -0.4395  0.5260 -0.1880
  977MOL0     C31790   9.036   2.247   6.129  0.8848 -0.7755  0.7006
  977MOL0     O31791   9.053   2.231   6.002  0.0326  0.1967  0.2179
  977MOL0     C31792   8.951   2.235   5.914 -0.9052  0.5180 -0.9589
  977MOL0     C31793   8.853   2.143   5.914  0.1293  0.4819  0.0770
  977MOL0     C31794   8.745   2.145   5.828 -0.3605  0.7365 -0.6757
  977MOL0     C31795   8.720   2.258   5.753  0.6222 -0.6060 -0.2909
  977MOL0     O31796   8.610   2.275   5.661  0.0978 -0.0980 -0.3466
  977MOL0     C31797   8.555   2.161   5.607  0.2811  0.2044  0.1990
  977MOL0     C31798   8.633   2.092   5.494 -0.4254 -0.4500  1.1719
  977MOL0     C31799   8.584   1.948   5.472  0.5597  0.4659  0.2608
  977MOL0     C31800   8.687   1.872   5.376 -0.1754  0.2274  0.2567
  977MOL0     C31801   8.670   1.905   5.223 -0.3588  1.1866 -0.1476
  977MOL0     C31802   8.560   1.811   5.160  0.1885  0.5098  0.4881
  977MOL0     C31803   8.589   1.816   5.007  1.3766  1.1820 -0.6863
  977MOL0     C31804   8.485   1.733   4.931 -0.0387 -0.2219  0.1392
  977MOL0    Cl31805   8.319   1.808   4.965 -0.2048  0.5868 -0.1341
  977MOL0     C31806   8.813   2.365   5.764  0.2887  0.3514  1.0632
  977MOL0     C31807   8.930   2.350   5.841  0.0342 -0.3146  0.6095
  977MOL0     O31808   8.931   2.276   6.183 -0.6964 -0.2541  0.0383
  977MOL0     C31809   9.234   2.138   6.233 -0.1480  0.0537  1.1695
  977MOL0     C31810   9.348   2.133   6.319 -0.0224 -0.5880  0.3321
  977MOL0     N31811   9.548   2.227   6.970  0.7232 -0.2319  0.5948
  977MOL0     N31812   9.537   2.352   7.002  0.3402 -0.3083  0.0053
  977MOL0     C31813  10.042   2.754   6.055  0.3987  0.3039  0.8163
  977MOL0     C31814  10.115   2.812   5.950 -1.4481 -0.2467 -0.2882
  977MOL0     C31815  10.351   2.994   5.628 -0.9438  0.6229 -0.2221
  977MOL0     C31816  10.273   3.076   5.560  0.2700 -0.1425 -1.2956
  977MOL0     C31817  10.326   3.180   5.492  0.1638 -1.0532  0.2821
  977MOL0     C31818  10.467   3.207   5.480  0.1150  0.1414  0.2688
  977MOL0     O31819  10.518   3.309   5.412 -0.0785  0.3188 -0.5300
  977MOL0     C31820  10.463   3.359   5.294  0.2551  0.7703  0.3548
  977MOL0     C31821  10.564   3.442   5.218  0.2289  0.2578  0.2161
  977MOL0     C31822  10.516   3.540   5.112  0.8766  0.4558 -0.3224
  977MOL0     C31823  10.629   3.631   5.070  0.3436 -0.2491  1.0603
  977MOL0     C31824  10.587   3.722   4.959  0.2082 -1.0376  0.2103
  977MOL0     C31825  10.554   3.779   4.852  0.3946  0.1440 -0.3317
  977MOL0     C31826  10.543   3.109   5.552 -0.9575  0.3266 -0.3232
  977MOL0     C31827  10.490   3.002   5.620 -0.2345 -1.3096 -0.5869
  977MOL0     H31828   9.970   2.679   5.682 -2.3198  0.2590  0.2685
  977MOL0     H31829   9.880   2.533   5.865 -1.4160  1.5826  1.0266
  977MOL0     H31830   9.903   2.680   6.294 -0.4703  1.2306 -1.0821
  977MOL0     H31831   9.779   2.728   6.175 -0.8057  2.4469  2.1724
  977MOL0     H31832   9.640   2.531   6.224 -2.8829 -0.7280  1.8666
  977MOL0     H31833   9.753   2.482   6.342 -2.4962 -0.4337  2.0072
  977MOL0     H31834   9.574   2.741   6.348 -1.1390  2.9061  3.3652
  977MOL0     H31835   9.566   2.601   6.447 -3.0360  2.8533 -0.9682
  977MOL0     H31836   9.803   2.682   6.519 -0.8761  1.2871 -0.5881
  977MOL0     H31837   9.754   2.838   6.465  1.0786 -0.1756 -0.6572
  977MOL0     H31838   9.735   2.820   6.698  4.4147 -1.6007 -1.8348
  977MOL0     H31839   9.560   2.825   6.641  0.3059  0.5119  0.8819
  977MOL0     H31840   9.526   2.605   6.673 -0.2022  0.7614 -1.6988
  977MOL0     H31841   9.695   2.572   6.723  1.1517  2.2715  0.9836
  977MOL0     H31842   9.656   2.661   6.942 -1.1067  1.3892  1.2490
  977MOL0     H31843   9.544   2.771   6.880 -0.7684 -0.3501 -0.3798
  977MOL0     H31844   9.358   2.593   6.877 -0.8735 -1.5455  2.3653
  977MOL0     H31845   9.447   2.584   7.021 -2.6689 -1.3664  0.4234
  977MOL0     H31846   9.478   2.377   6.686 -1.2526 -4.2572 -1.8303
  977MOL0     H31847   9.483   2.014   6.813  0.1235 -2.4078 -0.9500
  977MOL0     H31848   9.441   2.120   6.671  0.6382  1.6755  1.1014
  977MOL0     H31849   9.647   1.961   6.655 -0.0133  0.3483 -0.3679
  977MOL0     H31850   9.726   2.069   6.772 -1.0478  0.3954  0.9009
  977MOL0     H31851   9.802   2.114   6.549 -0.9054 -0.3760 -3.3115
  977MOL0     H31852   9.716   2.259   6.610  1.3023 -0.3056 -0.6545
  977MOL0     H31853   9.570   2.065   6.430  0.5060 -1.0862  3.0527
  977MOL0     H31854   9.673   2.208   6.379  2.1989 -1.0635  1.5933
  977MOL0     H31855   9.328   2.435   6.449  0.9944 -1.4370  2.1312
  977MOL0     H31856   9.191   2.572   6.303  0.3748  0.3225 -2.0306
  977MOL0     H31857   9.088   2.494   6.183  1.4869  0.5885 -0.4575
  977MOL0     H31858   9.038   2.504   6.362  0.0935  1.7411  0.5380
  977MOL0     H31859   8.870   2.052   5.971 -0.8429 -0.5120 -1.1417
  977MOL0     H31860   8.680   2.059   5.835 -1.6760  1.6589 -1.1073
  977MOL0     H31861   8.521   2.089   5.682 -0.8426 -1.4533 -1.7827
  977MOL0     H31862   8.465   2.199   5.558  0.5272 -0.0702 -0.4836
  977MOL0     H31863   8.621   2.153   5.404  0.6846 -1.3090  0.4018
  977MOL0     H31864   8.741   2.079   5.509  0.5536  1.4874 -2.7912
  977MOL0     H31865   8.490   1.938   5.417  0.9271 -2.2087 -0.0102
  977MOL0     H31866   8.565   1.895   5.565  0.2764 -1.5024 -0.8634
  977MOL0     H31867   8.793   1.882   5.401 -0.3707  0.2716  1.1266
  977MOL0     H31868   8.662   1.767   5.395  2.6279 -0.3572  1.1015
  977MOL0     H31869   8.765   1.871   5.182 -0.2591 -2.2658  2.4991
  977MOL0     H31870   8.644   2.011   5.213  0.5220  1.8091  3.0276
  977MOL0     H31871   8.571   1.709   5.196  2.5026 -0.3924 -2.3478
  977MOL0     H31872   8.466   1.864   5.178  0.8914  2.2954 -0.8063
  977MOL0     H31873   8.686   1.767   4.990  0.8214  1.1577 -5.0373
  977MOL0     H31874   8.597   1.920   4.973 -2.7291  2.0618  0.5262
  977MOL0     H31875   8.489   1.631   4.970  0.1799 -0.7718 -1.2643
  977MOL0     H31876   8.520   1.733   4.827  0.0655  2.6796  0.0853
  977MOL0     H31877   8.811   2.452   5.700  2.2341  0.8058  1.5604
  977MOL0     H31878   8.997   2.435   5.838 -0.2626 -0.0286  1.7495
  977MOL0     H31879   9.217   2.047   6.176 -0.6319  0.5980  0.4247
  977MOL0     H31880   9.405   2.041   6.333  1.2692  0.2913  1.0629
  977MOL0     H31881  10.056   2.792   6.156  2.2595  4.8275 -0.8772
  977MOL0     H31882  10.186   2.889   5.977 -2.6107  0.6053  0.4689
  977MOL0     H31883  10.166   3.058   5.563 -0.0824  1.8413 -0.5878
  977MOL0     H31884  10.264   3.247   5.432 -0.7563 -1.7180  0.4804
  977MOL0     H31885  10.417   3.275   5.240 -0.8124  2.8304 -2.1862
  977MOL0     H31886  10.372   3.419   5.306  1.3559  2.4054  0.8299
  977MOL0     H31887  10.639   3.380   5.167 -1.9669  0.5847 -3.8915
  977MOL0     H31888  10.613   3.511   5.286  0.8076  2.7885 -2.5554
  977MOL0     H31889  10.442   3.609   5.154 -1.0880 -1.7098  0.0117
  977MOL0     H31890  10.480   3.484   5.026  0.8900 -2.1638  1.2530
  977MOL0     H31891  10.705   3.567   5.026 -0.0390  0.1226 -0.1724
  977MOL0     H31892  10.650   3.681   5.165 -0.4155 -1.7627  2.0617
  977MOL0     H31893  10.536   3.827   4.758 -0.7898 -1.0184 -0.7435
  977MOL0     H31894  10.651   3.124   5.555 -1.2225  2.3161  1.8386
  977MOL0     H31895  10.563   2.944   5.676 -0.4823 -2.3093 -1.2628
  978MOL0     O31896   3.589   1.958  10.063 -0.0458 -0.4618  0.3303
  978MOL0     C31897   3.545   1.845  10.048 -0.6038 -0.4309  0.8373
  978MOL0     O31898   3.586   1.755   9.955 -0.2096  0.0982 -0.5234
  978MOL0     C31899   3.703   1.773   9.890  0.3271 -0.2928 -0.1632
  978MOL0     C31900   3.737   1.678   9.800 -0.4771 -0.4429  0.1315
  978MOL0     C31901   3.844   1.694   9.711 -0.2217  0.3195  0.4340
  978MOL0     C31902   3.946   1.787   9.733 -0.0296 -0.1206 -0.4742
  978MOL0     O31903   4.066   1.791   9.665  0.7328  0.1427  0.7346
  978MOL0     C31904   4.071   1.763   9.520 -0.4810 -0.0753 -0.0800
  978MOL0     C31905   4.152   1.647   9.503  0.3235 -0.1939 -0.4924
  978MOL0     C31906   4.186   1.613   9.357  1.3393  1.3548 -0.1568
  978MOL0     C31907   4.281   1.485   9.354  0.0114 -0.7398 -0.5930
  978MOL0     C31908   4.347   1.467   9.217 -0.6027 -0.1080  0.9069
  978MOL0     C31909   4.460   1.358   9.226  0.7043  0.3469  0.5113
  978MOL0     C31910   4.536   1.327   9.096 -0.5043 -0.4561 -0.5276
  978MOL0     C31911   4.580   1.182   9.093  0.0302 -0.3669  0.1905
  978MOL0     N31912   4.694   1.154   9.001  0.0789 -0.0284  0.4836
  978MOL0     C31913   4.716   1.222   8.884  0.7384  0.4918 -0.8112
  978MOL0     C31914   4.832   1.171   8.835 -0.4410 -0.0931 -0.5408
  978MOL0     C31915   4.903   1.202   8.704 -0.0452 -0.5962 -0.3091
  978MOL0     C31916   4.839   1.146   8.578  0.1107  0.0045 -0.4471
  978MOL0     C31917   4.791   0.997   8.583  0.1532  1.4592 -0.0580
  978MOL0     C31918   4.900   0.881   8.607  0.2318 -0.3430  0.4664
  978MOL0     O31919   4.848   0.747   8.592  0.1881  0.3622 -0.5424
  978MOL0     C31920   4.726   0.737   8.643 -0.4152  0.5218  0.1872
  978MOL0     C31921   4.620   0.686   8.566 -0.6894  0.8294 -0.0059
  978MOL0     C31922   4.494   0.652   8.612  1.0484 -0.1856 -0.3232
  978MOL0     C31923   4.396   0.588   8.522 -1.1266 -0.0074  1.1728
  978MOL0     C31924   4.465   0.678   8.749 -0.5616 -0.7631 -1.5074
  978MOL0     C31925   4.334   0.651   8.813  0.0035  0.6206  0.7260
  978MOL0     O31926   4.290   0.739   8.904 -0.6239 -0.6420  0.5726
  978MOL0     C31927   4.167   0.735   8.965 -0.5589 -0.8199  0.0421
  978MOL0     C31928   4.087   0.850   8.964  0.5593 -0.8584  0.7847
  978MOL0     C31929   3.968   0.849   9.023 -0.5627  0.4130 -0.0823
  978MOL0     C31930   3.925   0.738   9.091 -0.1436 -0.1154  0.1605
  978MOL0     O31931   3.798   0.749   9.149 -0.0441 -0.2644 -1.0638
  978MOL0     C31932   3.727   0.628   9.157  0.6814  0.5213 -1.1363
  978MOL0     C31933   3.699   0.545   9.035  1.1714  0.0992 -0.6822
  978MOL0     C31934   3.608   0.427   9.065 -0.3177  0.4490 -0.5175
  978MOL0     C31935   3.574   0.328   8.951  0.0294  0.1803 -0.5897
  978MOL0     C31936   3.457   0.232   8.988 -0.0538 -0.4017  1.0260
  978MOL0     C31937   3.440   0.122   8.885  0.6288  0.6276 -0.1046
  978MOL0     C31938   3.310   0.043   8.912 -0.1715 -0.2255 -0.3921
  978MOL0     C31939   3.315  -0.078   8.811 -0.3061  1.0952  0.2691
  978MOL0    Cl31940   3.153  -0.146   8.823  0.0268  0.0874  0.1847
  978MOL0     C31941   4.005   0.619   9.097 -0.1199 -0.0114  0.2980
  978MOL0     C31942   4.123   0.619   9.032 -0.9190 -0.7163  0.3303
  978MOL0     O31943   4.275   0.547   8.787 -0.1529  0.5817  0.9924
  978MOL0     C31944   4.572   0.732   8.827 -0.6102  0.8717  0.2198
  978MOL0     C31945   4.698   0.770   8.775 -0.2191 -1.0991  0.9572
  978MOL0     N31946   4.883   1.076   8.920 -0.5085 -0.3590  0.1565
  978MOL0     N31947   4.797   1.068   9.020 -0.7643 -0.0871  0.8767
  978MOL0     C31948   3.931   1.865   9.848 -0.1543  0.0252  0.2519
  978MOL0     C31949   3.814   1.859   9.923  0.0593  0.1281 -0.3773
  978MOL0     C31950   3.421   1.809  10.133  0.1297  1.3001  0.3544
  978MOL0     C31951   3.341   1.900  10.195  0.4265 -0.5166  0.1349
  978MOL0     C31952   3.218   1.861  10.246 -0.3836  0.0433 -0.2541
  978MOL0     C31953   3.172   1.727  10.241 -0.5001 -0.6236  0.3922
  978MOL0     O31954   3.058   1.676  10.308 -0.2761  0.2250  0.8276
  978MOL0     C31955   3.089   1.653  10.450 -0.6861  0.6904  0.5179
  978MOL0     C31956   2.993   1.742  10.516  0.6052 -0.1420  0.4231
  978MOL0     C31957   2.848   1.692  10.511  0.3971 -0.0040  0.6046
  978MOL0     C31958   2.754   1.765  10.605 -0.0948  0.3215 -0.7935
  978MOL0     C31959   2.724   1.903  10.574  0.6899 -0.5203 -0.3611
  978MOL0     C31960   2.695   2.016  10.555 -0.1427 -0.2098 -0.1421
  978MOL0     C31961   3.259   1.631  10.187 -0.0088 -0.2959 -0.2232
  978MOL0     C31962   3.385   1.668  10.141  0.3352  0.1784  0.0189
  978MOL0     H31963   3.679   1.588   9.782  0.8635 -1.0160 -1.6631
  978MOL0     H31964   3.867   1.613   9.643 -5.7471 -1.4477  0.2253
  978MOL0     H31965   3.976   1.731   9.476  0.0936  0.7060 -1.9674
  978MOL0     H31966   4.109   1.850   9.466 -0.6448  2.1433  3.1024
  978MOL0     H31967   4.247   1.672   9.551 -0.8091 -2.2132  3.1304
  978MOL0     H31968   4.105   1.563   9.553  0.2472  0.4512  0.5456
  978MOL0     H31969   4.094   1.594   9.301  0.5594 -2.0802  1.9424
  978MOL0     H31970   4.234   1.698   9.309  1.3716  0.6378 -1.4272
  978MOL0     H31971   4.355   1.503   9.432  2.2398  0.7563 -2.8981
  978MOL0     H31972   4.226   1.398   9.390 -1.1600 -0.3540 -1.4105
  978MOL0     H31973   4.281   1.428   9.139  0.6707  0.4649 -0.5269
  978MOL0     H31974   4.382   1.562   9.176 -0.1143 -0.5437  0.2871
  978MOL0     H31975   4.520   1.409   9.302  0.0633  1.6121  0.2067
  978MOL0     H31976   4.423   1.266   9.272 -3.2862  1.4963  0.0244
  978MOL0     H31977   4.468   1.345   9.013 -1.1610 -1.4187 -0.2196
  978MOL0     H31978   4.621   1.395   9.089 -2.4782  2.4299  1.2669
  978MOL0     H31979   4.499   1.118   9.057  0.2473 -1.4871  1.6397
  978MOL0     H31980   4.609   1.152   9.194 -2.3078  0.1604  1.0905
  978MOL0     H31981   4.653   1.298   8.839 -0.8174 -0.6783 -0.7078
  978MOL0     H31982   4.934   1.307   8.701  1.3653 -0.9243  1.0502
  978MOL0     H31983   4.996   1.146   8.717 -0.8130 -1.5805  1.1891
  978MOL0     H31984   4.915   1.143   8.499  0.4869  2.6087 -0.2568
  978MOL0     H31985   4.754   1.206   8.545 -0.8813 -1.6707 -1.1114
  978MOL0     H31986   4.755   0.967   8.484  2.7029 -0.8100 -0.4344
  978MOL0     H31987   4.705   0.990   8.650  0.1004 -1.8552 -0.2996
  978MOL0     H31988   4.967   0.883   8.694 -1.5055 -1.1484  1.8734
  978MOL0     H31989   4.967   0.900   8.523 -0.9543  2.0643 -0.0014
  978MOL0     H31990   4.642   0.654   8.464 -2.0376 -2.4864  0.5986
  978MOL0     H31991   4.318   0.660   8.496 -0.9800 -0.2224  0.1089
  978MOL0     H31992   4.455   0.559   8.435  1.7246  0.1289  2.9437
  978MOL0     H31993   4.356   0.491   8.554  0.6676 -1.5088 -0.8112
  978MOL0     H31994   4.131   0.941   8.923  3.6274 -1.2516  2.8865
  978MOL0     H31995   3.891   0.926   9.022 -2.8269 -1.6879  1.4596
  978MOL0     H31996   3.781   0.558   9.222  2.8015  0.6821 -2.6179
  978MOL0     H31997   3.632   0.650   9.207  1.9340 -0.3713  1.8732
  978MOL0     H31998   3.645   0.603   8.960  1.5783  1.9442  0.3847
  978MOL0     H31999   3.796   0.525   8.990  1.1746 -2.3107  0.2371
  978MOL0     H32000   3.512   0.459   9.105 -0.7065 -0.2893 -0.8470
  978MOL0     H32001   3.651   0.370   9.148  0.6814  2.2719  0.2746
  978MOL0     H32002   3.542   0.387   8.864  0.5374 -2.3550 -2.5934
  978MOL0     H32003   3.658   0.265   8.922 -1.8428 -2.0036 -1.5584
  978MOL0     H32004   3.363   0.289   8.996 -1.4546 -2.6617  1.5852
  978MOL0     H32005   3.469   0.186   9.086  3.2944 -2.6501 -0.2852
  978MOL0     H32006   3.433   0.156   8.782 -0.9709 -1.2692 -0.6595
  978MOL0     H32007   3.532   0.065   8.899  0.9117  1.1187  0.0817
  978MOL0     H32008   3.220   0.104   8.900 -3.0699 -4.4540 -2.8802
  978MOL0     H32009   3.313   0.002   9.013 -1.6931  2.2044  0.7320
  978MOL0     H32010   3.383  -0.150   8.857 -1.2792  0.5788  0.9284
  978MOL0     H32011   3.340  -0.045   8.709 -0.7350  1.9199  0.4244
  978MOL0     H32012   3.988   0.523   9.144  0.3517 -2.0033 -3.2375
  978MOL0     H32013   4.182   0.529   9.046 -2.3651 -1.4388  2.0925
  978MOL0     H32014   4.542   0.739   8.931 -0.9744  1.9030  0.0477
  978MOL0     H32015   4.774   0.797   8.848  1.9002 -3.9521 -0.0045
  978MOL0     H32016   4.007   1.940   9.869 -0.1155 -0.1875  0.8809
  978MOL0     H32017   3.820   1.926  10.008 -0.8872 -1.0305  0.6370
  978MOL0     H32018   3.376   1.997  10.230 -0.8027 -1.4942  4.8081
  978MOL0     H32019   3.167   1.938  10.304 -0.3664  0.5479 -0.8928
  978MOL0     H32020   3.066   1.548  10.467  2.0413 -0.3838 -1.6934
  978MOL0     H32021   3.194   1.660  10.481  0.6521 -1.5658 -2.9291
  978MOL0     H32022   3.003   1.842  10.474  1.4435 -0.0764  0.7755
  978MOL0     H32023   3.026   1.750  10.619  1.5746  0.3303  0.0855
  978MOL0     H32024   2.845   1.586  10.539 -1.5815 -0.3998 -0.9232
  978MOL0     H32025   2.798   1.703  10.415 -0.1005 -2.9750  0.4226
  978MOL0     H32026   2.793   1.745  10.705 -0.2364 -4.0869 -1.4168
  978MOL0     H32027   2.660   1.710  10.619  0.7678 -0.8027  0.9651
  978MOL0     H32028   2.672   2.117  10.528 -0.3475 -0.3643 -0.5474
  978MOL0     H32029   3.230   1.527  10.204 -2.4994  0.2618 -0.6434
  978MOL0     H32030   3.453   1.591  10.107  3.0192  2.0306  0.8489
  979MOL0     O32031   1.939  10.119   8.929  0.3828  0.5227 -0.4506
  979MOL0     C32032   2.002  10.066   8.837 -0.2672 -0.3035 -0.4075
  979MOL0     O32033   2.124  10.101   8.791  0.6631  0.1643  0.9582
  979MOL0     C32034   2.200  10.181   8.865 -0.7631  0.4836  0.5755
  979MOL0     C32035   2.161  10.306   8.903 -0.6298  0.6680 -0.2147
  979MOL0     C32036   2.255  10.390   8.967 -0.0234  0.0698 -0.7217
  979MOL0     C32037   2.387  10.345   9.009 -1.4118 -0.4658  0.5636
  979MOL0     O32038   2.479  10.429   9.071  0.3097 -0.0240 -0.9172
  979MOL0     C32039   2.618  10.407   9.033  0.9088  0.1676 -0.0792
  979MOL0     C32040   2.697  10.530   9.056  0.2908 -0.0612 -0.2013
  979MOL0     C32041   2.650  10.650   8.976 -0.5222  0.5201 -0.3747
  979MOL0     C32042   2.763  10.761   8.978  0.1413  0.5590 -0.7045
  979MOL0     C32043   2.714  10.872   8.904  0.3471 -0.5326  1.7106
  979MOL0     C32044   2.790  11.004   8.900 -0.1954 -0.3444 -0.5390
  979MOL0     C32045   2.699  11.118   8.868  0.2845 -0.2882 -1.1342
  979MOL0     C32046   2.790  11.245   8.848  0.4502 -0.9168  0.0590
  979MOL0     N32047   2.708  11.362   8.809 -0.4575  0.3611  0.3685
  979MOL0     C32048   2.762  11.487   8.783  1.0345  0.1391 -0.4229
  979MOL0     C32049   2.654  11.566   8.751  0.6515 -0.0301  0.1873
  979MOL0     C32050   2.638  11.716   8.735  0.0559  1.0283  0.1151
  979MOL0     C32051   2.764  11.796   8.725 -0.8091 -0.7987 -0.1833
  979MOL0     C32052   2.725  11.945   8.748 -0.2945  0.4118 -0.7163
  979MOL0     C32053   2.837  12.031   8.688 -0.0343  0.2323 -0.9250
  979MOL0     O32054   2.796  12.169   8.693  0.3823  0.9339  0.3104
  979MOL0     C32055   2.889  12.260   8.644 -0.2962  0.8952 -0.1133
  979MOL0     C32056   2.846  12.373   8.592 -0.0501 -0.3410  0.6623
  979MOL0     C32057   2.927  12.476   8.548  0.0536 -0.9366 -0.7192
  979MOL0     C32058   2.864  12.606   8.505 -0.4251 -0.3502 -0.7860
  979MOL0     C32059   3.072  12.444   8.545  0.2454  0.2987  0.9204
  979MOL0     C32060   3.167  12.520   8.470 -0.6792 -0.6959  0.0934
  979MOL0     O32061   3.127  12.618   8.383 -0.5699  0.5854  0.9971
  979MOL0     C32062   3.223  12.696   8.323  0.2777 -1.0848 -0.2432
  979MOL0     C32063   3.265  12.811   8.377 -0.0453  0.1352  0.0410
  979MOL0     C32064   3.350  12.891   8.312  0.4619  0.1969  1.1284
  979MOL0     C32065   3.413  12.851   8.185  0.7306 -0.0192  0.3487
  979MOL0     O32066   3.500  12.932   8.118 -0.4426 -0.1653  0.3030
  979MOL0     C32067   3.502  13.071   8.133  0.1835 -0.2630 -0.5235
  979MOL0     C32068   3.549  13.132   8.007  0.4105  0.6491  0.7000
  979MOL0     C32069   3.546  13.281   8.005  0.1962  0.2218 -0.4821
  979MOL0     C32070   3.534  13.333   7.858  0.1774 -0.6154 -0.4027
  979MOL0     C32071   3.402  13.308   7.776  0.3747  0.5910 -0.2711
  979MOL0     C32072   3.276  13.365   7.846 -0.8615 -0.5960  0.1879
  979MOL0     C32073   3.151  13.341   7.761  0.2713  0.3627  0.8996
  979MOL0     C32074   3.047  13.450   7.780 -0.6821 -0.2791  0.4052
  979MOL0    Cl32075   3.005  13.481   7.965  0.4213 -0.0768  0.3215
  979MOL0     C32076   3.384  12.726   8.130 -0.0333 -0.4357  0.3629
  979MOL0     C32077   3.287  12.650   8.202 -0.4140 -0.3335 -0.0061
  979MOL0     O32078   3.287  12.491   8.487  0.3218  0.5073  0.2593
  979MOL0     C32079   3.118  12.330   8.614 -0.0452  0.3091 -0.6610
  979MOL0     C32080   3.026  12.244   8.671 -0.2339  0.0494  0.6442
  979MOL0     N32081   2.547  11.485   8.731  0.1228 -1.0598  0.5383
  979MOL0     N32082   2.573  11.361   8.781 -0.7505 -0.0797  0.1247
  979MOL0     C32083   2.423  10.218   8.962 -0.4119 -0.1591  0.6784
  979MOL0     C32084   2.331  10.140   8.885 -0.0109 -0.3527 -0.0846
  979MOL0     C32085   1.931   9.965   8.756  0.1003  1.0851 -0.7220
  979MOL0     C32086   1.803   9.910   8.793  0.0619  0.0422  0.6186
  979MOL0     C32087   1.749   9.813   8.705  0.1425  0.4623 -0.6924
  979MOL0     C32088   1.814   9.765   8.589  0.4721 -0.8491  0.5814
  979MOL0     O32089   1.737   9.698   8.499  0.6341  0.5510  0.1907
  979MOL0     C32090   1.682   9.571   8.533 -0.3406  0.4676  1.3785
  979MOL0     C32091   1.789   9.454   8.517  0.2695  0.3082  0.2846
  979MOL0     C32092   1.894   9.445   8.619 -0.4773 -0.2882  0.1167
  979MOL0     C32093   1.845   9.385   8.756  0.6734  1.1411  0.4498
  979MOL0     C32094   1.817   9.236   8.759  0.1384 -0.6741 -0.6046
  979MOL0     C32095   1.777   9.121   8.760  0.2056  0.5088 -0.3404
  979MOL0     C32096   1.935   9.826   8.546 -0.8447  0.3433 -0.4485
  979MOL0     C32097   1.989   9.928   8.629  0.6393 -0.3842  0.2286
  979MOL0     H32098   2.059  10.341   8.889 -0.2988  1.8393  0.1297
  979MOL0     H32099   2.215  10.486   8.997 -2.3047 -0.4951 -1.7970
  979MOL0     H32100   2.664  10.327   9.092  1.4660  0.2684 -0.3735
  979MOL0     H32101   2.622  10.374   8.929  0.1937 -2.0487  0.5379
  979MOL0     H32102   2.693  10.550   9.163 -1.6252  1.6353 -0.5249
  979MOL0     H32103   2.797  10.502   9.023  1.3664  3.2268 -0.1043
  979MOL0     H32104   2.617  10.608   8.880  3.6283 -1.1058 -1.2691
  979MOL0     H32105   2.557  10.698   9.008 -0.3995  2.7750 -3.0343
  979MOL0     H32106   2.791  10.780   9.083  4.0078  5.0490 -2.1959
  979MOL0     H32107   2.856  10.729   8.931  0.2944  0.5782 -0.4172
  979MOL0     H32108   2.703  10.842   8.799  1.1460  0.4260  1.3428
  979MOL0     H32109   2.611  10.888   8.937  0.3878  0.3586  1.4451
  979MOL0     H32110   2.837  11.025   8.996  1.5009 -0.2050 -1.3550
  979MOL0     H32111   2.878  10.986   8.836  0.4032 -1.9945  0.6743
  979MOL0     H32112   2.646  11.087   8.778 -1.2720  2.0265 -1.0980
  979MOL0     H32113   2.628  11.140   8.949  2.6930  2.8422  0.3588
  979MOL0     H32114   2.863  11.225   8.769 -0.2617  0.6356 -1.0442
  979MOL0     H32115   2.855  11.272   8.932 -0.7089  0.3026  0.5986
  979MOL0     H32116   2.851  11.526   8.833  0.3381 -0.1884  1.1453
  979MOL0     H32117   2.577  11.728   8.645 -1.8884 -1.3868  0.9915
  979MOL0     H32118   2.568  11.757   8.809 -1.2693 -2.2592  0.8520
  979MOL0     H32119   2.807  11.773   8.627 -0.3786 -2.0471  0.2753
  979MOL0     H32120   2.845  11.772   8.795 -1.3976 -4.1178 -0.4883
  979MOL0     H32121   2.715  11.977   8.852 -0.6483 -1.8482 -0.0162
  979MOL0     H32122   2.630  11.966   8.699 -1.6259 -1.4457  0.9101
  979MOL0     H32123   2.842  12.003   8.582 -4.1802 -1.6858 -0.8068
  979MOL0     H32124   2.929  12.005   8.742 -0.7727 -1.6378 -0.4755
  979MOL0     H32125   2.739  12.386   8.584  0.0756  0.6672  0.5271
  979MOL0     H32126   2.867  12.606   8.396  2.9166  0.1435 -0.7940
  979MOL0     H32127   2.759  12.620   8.533 -0.3862  3.4734 -2.0184
  979MOL0     H32128   2.921  12.691   8.544 -0.4635 -0.6349 -0.0962
  979MOL0     H32129   3.230  12.843   8.475  1.6567 -1.7449  1.3300
  979MOL0     H32130   3.378  12.992   8.343 -1.7779  0.7776  1.4089
  979MOL0     H32131   3.399  13.106   8.140 -0.8856 -3.4580  2.5661
  979MOL0     H32132   3.563  13.096   8.220  0.0143  2.6370 -1.1394
  979MOL0     H32133   3.647  13.085   7.993 -0.6639 -2.1491  1.8000
  979MOL0     H32134   3.484  13.088   7.931  2.5335 -2.2880  0.3874
  979MOL0     H32135   3.618  13.334   8.068 -0.8495  0.3241  0.6815
  979MOL0     H32136   3.453  13.309   8.056 -1.4427 -2.3596 -1.7979
  979MOL0     H32137   3.536  13.442   7.862  0.5687 -0.6740  2.4016
  979MOL0     H32138   3.621  13.293   7.804 -0.4516  1.2061 -2.9337
  979MOL0     H32139   3.382  13.203   7.754 -0.2268  0.3049  1.4243
  979MOL0     H32140   3.418  13.356   7.679  1.4537 -2.3905 -1.6868
  979MOL0     H32141   3.265  13.337   7.951  0.7326  1.0702  0.8478
  979MOL0     H32142   3.298  13.472   7.850  1.7577 -1.0172 -0.9988
  979MOL0     H32143   3.100  13.254   7.804 -1.9233  1.0473 -0.1595
  979MOL0     H32144   3.173  13.336   7.654  1.5648  1.5117  1.0889
  979MOL0     H32145   2.961  13.412   7.723 -1.3164  2.3628 -0.5443
  979MOL0     H32146   3.085  13.538   7.729  1.1070 -3.5119 -4.5684
  979MOL0     H32147   3.420  12.682   8.038 -3.5729 -2.3621 -0.2720
  979MOL0     H32148   3.247  12.558   8.160 -2.5569  0.2270  0.7082
  979MOL0     H32149   3.220  12.303   8.638 -0.8753 -0.4531  2.5345
  979MOL0     H32150   3.070  12.163   8.728  3.6747  2.4968  1.4947
  979MOL0     H32151   2.522  10.178   8.984 -0.1095 -0.4149 -1.0074
  979MOL0     H32152   2.379  10.049   8.849  1.6715 -0.1693  1.5388
  979MOL0     H32153   1.753   9.929   8.887 -0.2160 -1.0553  0.6981
  979MOL0     H32154   1.652   9.774   8.735 -1.1209  1.2312 -3.4066
  979MOL0     H32155   1.664   9.587   8.640  0.9972  4.9071  1.1226
  979MOL0     H32156   1.589   9.573   8.475  1.7905  2.5398 -2.3406
  979MOL0     H32157   1.824   9.459   8.414 -2.3802 -1.7221 -0.8378
  979MOL0     H32158   1.736   9.358   8.513 -0.8336  0.8479  1.3321
  979MOL0     H32159   1.948   9.539   8.634  1.4383 -1.6836  2.8442
  979MOL0     H32160   1.977   9.378   8.591  1.2574  0.2775  3.4603
  979MOL0     H32161   1.750   9.429   8.786 -1.1985 -2.1149 -0.1525
  979MOL0     H32162   1.912   9.412   8.838  2.4526 -0.3035 -0.4272
  979MOL0     H32163   1.736   9.023   8.775 -0.2474  0.9970  2.0926
  979MOL0     H32164   1.985   9.801   8.453  2.3507  0.4082  1.1042
  979MOL0     H32165   2.077   9.985   8.604 -0.6846  2.0198  0.7644
  980MOL0     O32166   9.952   9.244   2.110  0.3579 -0.8139  0.0106
  980MOL0     C32167   9.970   9.159   2.020  0.8199  0.0124  0.0435
  980MOL0     O32168   9.921   9.026   2.023  0.2555  0.7128 -0.3693
  980MOL0     C32169   9.858   8.985   2.134  0.0656 -0.0457  0.4601
  980MOL0     C32170   9.927   8.908   2.226 -1.2877 -0.6499  0.4640
  980MOL0     C32171   9.853   8.865   2.336 -0.2041 -0.3573 -0.4179
  980MOL0     C32172   9.720   8.913   2.359 -0.8437  0.2746 -0.0275
  980MOL0     O32173   9.639   8.870   2.459 -0.4050 -0.5076 -0.1964
  980MOL0     C32174   9.666   8.747   2.525  0.3092  0.2884 -1.0503
  980MOL0     C32175   9.536   8.672   2.555  0.1267  0.1528 -0.4546
  980MOL0     C32176   9.474   8.594   2.442 -1.3238  0.0344 -0.7229
  980MOL0     C32177   9.365   8.672   2.371  0.7064  0.0062  0.6346
  980MOL0     C32178   9.330   8.595   2.244  0.5542 -0.3669 -0.1952
  980MOL0     C32179   9.245   8.696   2.161 -0.2363 -0.4387 -0.3699
  980MOL0     C32180   9.225   8.627   2.023 -1.3013  0.0059 -0.9558
  980MOL0     C32181   9.101   8.679   1.962  0.1836 -0.5151  0.1550
  980MOL0     N32182   9.069   8.619   1.823 -0.1573  1.2367 -0.4309
  980MOL0     C32183   8.975   8.657   1.740 -0.2041 -1.0144  0.0297
  980MOL0     C32184   8.988   8.587   1.626  0.1440  0.4754 -0.4958
  980MOL0     C32185   8.885   8.590   1.511 -0.3585  0.5697 -0.1389
  980MOL0     C32186   8.936   8.650   1.374  0.1372  0.1941  1.4167
  980MOL0     C32187   8.875   8.789   1.337 -1.1765 -0.4847  0.0165
  980MOL0     C32188   8.863   8.817   1.186  0.2766 -0.1340  0.1997
  980MOL0     O32189   8.833   8.957   1.164 -1.0846  0.9103 -0.0360
  980MOL0     C32190   8.812   8.997   1.031  0.8309  0.4197 -0.6000
  980MOL0     C32191   8.689   9.058   1.005 -0.6167  1.0754 -0.1537
  980MOL0     C32192   8.648   9.086   0.877  0.1780  0.7703 -0.5145
  980MOL0     C32193   8.513   9.143   0.855  0.2614 -1.0186  0.0933
  980MOL0     C32194   8.738   9.054   0.766  0.2603 -0.0002 -0.6243
  980MOL0     C32195   8.716   9.093   0.619  0.9605 -1.0294 -0.1451
  980MOL0     O32196   8.813   9.061   0.533 -0.0475  0.0486  0.1876
  980MOL0     C32197   8.806   9.126   0.407  0.3946  1.2994 -1.0813
  980MOL0     C32198   8.735   9.063   0.308  1.0674 -0.4257 -0.3510
  980MOL0     C32199   8.720   9.118   0.181 -0.6222  0.7347  0.5284
  980MOL0     C32200   8.776   9.250   0.158  0.0717  0.3827 -0.0598
  980MOL0     O32201   8.790   9.300   0.034  0.5826  0.3653  0.7209
  980MOL0     C32202   8.686   9.255  -0.063  0.1077  0.4730 -0.6899
  980MOL0     C32203   8.683   9.368  -0.173 -0.8319 -0.7845 -0.0802
  980MOL0     C32204   8.605   9.313  -0.295  0.6393  0.3881 -0.5368
  980MOL0     C32205   8.574   9.406  -0.414  0.0974 -0.7187  0.0289
  980MOL0     C32206   8.455   9.354  -0.486  0.0592  0.9336  1.2492
  980MOL0     C32207   8.429   9.411  -0.633  0.2394 -0.1307 -0.0396
  980MOL0     C32208   8.457   9.558  -0.637  0.4011  0.7774  0.1738
  980MOL0     C32209   8.352   9.646  -0.556 -0.0952  0.7418 -0.3603
  980MOL0    Cl32210   8.379   9.823  -0.550 -0.4255 -0.3359 -0.4003
  980MOL0     C32211   8.846   9.303   0.261 -0.4863 -0.2018  0.2817
  980MOL0     C32212   8.855   9.254   0.390 -0.4835 -0.8240  0.8124
  980MOL0     O32213   8.615   9.162   0.585 -1.1020 -0.0591  0.1070
  980MOL0     C32214   8.862   8.990   0.797  0.1983 -0.1548  1.7145
  980MOL0     C32215   8.893   8.963   0.923  0.1240  0.6996  0.2113
  980MOL0     N32216   9.089   8.493   1.647 -0.4508  0.1425  0.0933
  980MOL0     N32217   9.124   8.505   1.772 -0.1907 -0.2114 -0.6271
  980MOL0     C32218   9.652   8.984   2.259 -0.5811  0.0315  0.0129
  980MOL0     C32219   9.725   9.030   2.150  0.1332 -0.8147 -0.2769
  980MOL0     C32220  10.038   9.208   1.897  0.9391  0.6208 -0.6485
  980MOL0     C32221  10.039   9.131   1.783  0.6440  0.7462  0.2323
  980MOL0     C32222  10.114   9.174   1.671 -0.3515  0.4737 -0.0722
  980MOL0     C32223  10.193   9.293   1.676  0.2368 -0.1854 -0.7678
  980MOL0     O32224  10.270   9.348   1.574 -0.5228 -0.5444 -0.6489
  980MOL0     C32225  10.268   9.290   1.441 -0.0469 -0.6151 -0.4180
  980MOL0     C32226  10.303   9.396   1.333 -0.2463  0.5938 -0.2948
  980MOL0     C32227  10.195   9.471   1.259  0.8612  0.2789 -0.3219
  980MOL0     C32228  10.257   9.564   1.150  0.3459  0.1470  0.0103
  980MOL0     C32229  10.145   9.641   1.080  0.0166 -0.6676  0.4286
  980MOL0     C32230  10.051   9.712   1.029 -0.3534 -0.2355  0.4790
  980MOL0     C32231  10.187   9.375   1.792  0.2034  0.2263  0.0422
  980MOL0     C32232  10.116   9.332   1.898 -0.1860  0.7236  0.3172
  980MOL0     H32233  10.034   8.897   2.211 -1.2984 -1.9221  1.1535
  980MOL0     H32234   9.897   8.812   2.420 -1.8154  1.2931  1.5680
  980MOL0     H32235   9.738   8.680   2.477  0.3664 -1.1338  0.8998
  980MOL0     H32236   9.698   8.760   2.629  0.2703  0.5215 -1.0668
  980MOL0     H32237   9.562   8.588   2.620  1.7298 -1.7278 -3.3049
  980MOL0     H32238   9.466   8.742   2.601  2.4719  0.3036  3.3182
  980MOL0     H32239   9.551   8.571   2.367 -0.9463 -0.5049 -0.1764
  980MOL0     H32240   9.421   8.507   2.480 -1.5145  0.4846  0.0742
  980MOL0     H32241   9.294   8.715   2.443 -0.7790  0.2418 -0.9072
  980MOL0     H32242   9.412   8.762   2.329  0.4790 -0.0299  0.2997
  980MOL0     H32243   9.421   8.566   2.190  0.8132 -3.3292  1.6018
  980MOL0     H32244   9.280   8.499   2.258  2.5758 -1.2478  1.6291
  980MOL0     H32245   9.147   8.709   2.207 -1.3481 -2.1570 -2.1095
  980MOL0     H32246   9.289   8.792   2.131  0.6560 -0.6573  0.1881
  980MOL0     H32247   9.308   8.646   1.954 -3.4101 -0.3465 -3.7607
  980MOL0     H32248   9.212   8.518   2.030 -1.8624  0.0999 -0.4658
  980MOL0     H32249   9.115   8.787   1.955 -1.9812  0.0992  3.0896
  980MOL0     H32250   9.015   8.663   2.027  0.3330 -0.6674  0.3197
  980MOL0     H32251   8.908   8.741   1.755 -0.0525 -0.2468 -2.9137
  980MOL0     H32252   8.853   8.488   1.491 -2.2039  1.0686  0.0958
  980MOL0     H32253   8.799   8.647   1.547  0.4657  1.9069 -0.1885
  980MOL0     H32254   8.915   8.578   1.294 -0.5324  1.3659  0.5071
  980MOL0     H32255   9.043   8.661   1.356 -0.1314 -1.8727 -2.6723
  980MOL0     H32256   8.938   8.867   1.381 -2.2932 -0.7990  2.2812
  980MOL0     H32257   8.775   8.803   1.379 -0.7568  0.5094  0.7235
  980MOL0     H32258   8.792   8.742   1.150  0.6430 -1.5383  2.1867
  980MOL0     H32259   8.962   8.801   1.141  1.1199 -0.4982  2.0643
  980MOL0     H32260   8.625   9.082   1.089 -0.3217  0.8990  0.1223
  980MOL0     H32261   8.526   9.239   0.804  0.1760 -0.6549  0.7492
  980MOL0     H32262   8.445   9.084   0.793 -3.2860  1.7478  0.9884
  980MOL0     H32263   8.462   9.166   0.949 -0.9548 -0.3039 -0.7051
  980MOL0     H32264   8.701   8.961   0.325  1.5966 -0.6547 -0.6380
  980MOL0     H32265   8.674   9.055   0.106 -0.9477 -1.1984  2.2502
  980MOL0     H32266   8.723   9.160  -0.103 -2.6834 -1.2684  0.6162
  980MOL0     H32267   8.588   9.245  -0.017  1.7007 -0.0427  2.9413
  980MOL0     H32268   8.641   9.459  -0.128  1.4107  0.0490  0.4412
  980MOL0     H32269   8.789   9.384  -0.193 -0.7532 -1.0407  0.1225
  980MOL0     H32270   8.513   9.282  -0.245  2.3623 -2.3750  1.1918
  980MOL0     H32271   8.657   9.219  -0.318  0.6911 -0.5244  2.8089
  980MOL0     H32272   8.547   9.508  -0.385 -2.2343 -0.6626 -1.9909
  980MOL0     H32273   8.655   9.411  -0.487  0.8191 -0.8861  0.8071
  980MOL0     H32274   8.368   9.376  -0.424 -2.3877 -0.1031 -1.5634
  980MOL0     H32275   8.462   9.245  -0.499  1.6918  0.7978  2.8961
  980MOL0     H32276   8.495   9.357  -0.702  0.4990 -1.0643  0.9122
  980MOL0     H32277   8.325   9.391  -0.658 -0.1986  1.1987  0.6310
  980MOL0     H32278   8.459   9.592  -0.741 -2.8286  0.0069 -0.2154
  980MOL0     H32279   8.555   9.578  -0.593  1.3459 -1.1308 -0.9227
  980MOL0     H32280   8.356   9.615  -0.451  0.9381  2.2624  0.0869
  980MOL0     H32281   8.257   9.633  -0.609  0.9972  1.2646 -2.5837
  980MOL0     H32282   8.871   9.404   0.231  5.5454 -2.1193 -2.8187
  980MOL0     H32283   8.912   9.306   0.467 -1.4415 -1.5723  2.0814
  980MOL0     H32284   8.945   8.978   0.729  1.3695 -0.8390  3.2094
  980MOL0     H32285   8.983   8.906   0.945 -1.9104 -3.8755 -1.9318
  980MOL0     H32286   9.554   9.029   2.259  1.4666  5.2089  1.5399
  980MOL0     H32287   9.690   9.098   2.073 -0.1693 -2.5662 -1.7680
  980MOL0     H32288   9.966   9.051   1.775  1.3060  0.1818 -0.3010
  980MOL0     H32289  10.105   9.099   1.592  3.4769 -1.6581  1.2860
  980MOL0     H32290  10.330   9.200   1.449  0.1162 -0.4026  0.9679
  980MOL0     H32291  10.166   9.265   1.412 -0.6909  1.5651 -0.2510
  980MOL0     H32292  10.359   9.340   1.257 -1.3197  0.8270 -1.2855
  980MOL0     H32293  10.371   9.477   1.363 -3.5403  2.7226  2.0749
  980MOL0     H32294  10.158   9.544   1.331  1.6457 -0.6266  1.0275
  980MOL0     H32295  10.108   9.410   1.231  1.4716  0.9555 -4.2523
  980MOL0     H32296  10.308   9.510   1.070 -1.9476 -0.4282 -1.1645
  980MOL0     H32297  10.327   9.634   1.196 -2.0856  0.7711  3.0804
  980MOL0     H32298   9.990   9.793   0.995  1.9043  3.3074  4.0777
  980MOL0     H32299  10.238   9.471   1.795 -0.3238  0.4896  0.9377
  980MOL0     H32300  10.125   9.401   1.981 -1.6461  0.4802  0.7014
  981MOL0     O32301  11.273   9.674  11.374  0.0175  0.4001  0.2764
  981MOL0     C32302  11.173   9.715  11.321  0.1704  0.9094 -0.1371
  981MOL0     O32303  11.087   9.794  11.375  1.3634 -0.3369 -0.4489
  981MOL0     C32304  11.082   9.850  11.510  0.0658  0.7636  0.5942
  981MOL0     C32305  11.193   9.844  11.595  0.2953  0.4119  0.1845
  981MOL0     C32306  11.189   9.917  11.716  0.0610  0.5738 -1.1881
  981MOL0     C32307  11.069   9.981  11.761  0.5936  0.6258 -0.1446
  981MOL0     O32308  11.079  10.044  11.879  0.1602  0.0869  0.4953
  981MOL0     C32309  10.965  10.036  11.964 -0.7432 -0.1980  0.5531
  981MOL0     C32310  10.990  10.116  12.097  0.6791 -0.3976 -0.7649
  981MOL0     C32311  11.067  10.030  12.188 -0.1364  0.2745  0.7215
  981MOL0     C32312  11.061  10.088  12.327 -0.8293 -1.0862  0.1335
  981MOL0     C32313  11.152  10.005  12.407 -0.1394 -0.5909 -0.2336
  981MOL0     C32314  11.160  10.058  12.550 -1.1553 -0.3918 -1.1405
  981MOL0     C32315  11.237  10.193  12.568  0.1035 -0.0282  0.1430
  981MOL0     C32316  11.203  10.246  12.707  0.5126 -1.0766  0.2291
  981MOL0     N32317  11.305  10.335  12.753 -0.6916  0.5897  0.1497
  981MOL0     C32318  11.324  10.457  12.699  0.6241  0.7138 -0.6426
  981MOL0     C32319  11.413  10.521  12.779  0.7436  0.0013  0.1258
  981MOL0     C32320  11.448  10.667  12.759  0.6401  0.1095  0.6483
  981MOL0     C32321  11.515  10.708  12.885  0.0611  0.2096 -0.4716
  981MOL0     C32322  11.565  10.850  12.886 -0.0036 -0.9730  0.2383
  981MOL0     C32323  11.697  10.884  12.810  0.7752 -0.1160 -1.2008
  981MOL0     O32324  11.668  10.954  12.693 -0.0937 -0.2985 -0.2092
  981MOL0     C32325  11.723  11.082  12.677 -1.1038  0.3577 -0.0025
  981MOL0     C32326  11.802  11.125  12.570 -0.5746  0.5140 -0.1172
  981MOL0     C32327  11.873  11.249  12.569  0.5042 -0.0831  0.4090
  981MOL0     C32328  11.989  11.255  12.466  0.2215 -0.5992  0.3777
  981MOL0     C32329  11.824  11.351  12.664 -0.7782 -0.4239 -1.4914
  981MOL0     C32330  11.882  11.490  12.666 -0.1342  0.1723  0.6436
  981MOL0     O32331  11.879  11.553  12.779  0.1447 -0.7451  0.0173
  981MOL0     C32332  11.910  11.687  12.787 -0.1358  0.5385 -0.9824
  981MOL0     C32333  11.836  11.777  12.706  0.0309 -0.6515 -0.6345
  981MOL0     C32334  11.894  11.895  12.668  0.5117 -0.1766  0.6991
  981MOL0     C32335  12.021  11.926  12.707 -0.5106 -0.1168  0.3144
  981MOL0     O32336  12.081  12.040  12.651  0.4319  0.4054  0.1789
  981MOL0     C32337  12.217  12.028  12.616 -0.0831 -0.4780 -0.2245
  981MOL0     C32338  12.310  12.124  12.686 -0.2389 -0.2256  0.1927
  981MOL0     C32339  12.278  12.265  12.677  0.3104  0.5055  0.3703
  981MOL0     C32340  12.393  12.351  12.735  1.1803  0.5576 -0.9050
  981MOL0     C32341  12.440  12.475  12.664  0.3016  0.0088 -0.2664
  981MOL0     C32342  12.322  12.564  12.604 -1.1683 -0.0350 -0.1142
  981MOL0     C32343  12.228  12.599  12.711 -0.6834  1.3741 -1.0588
  981MOL0     C32344  12.144  12.728  12.686  0.1477  0.7348  1.2226
  981MOL0    Cl32345  12.111  12.852  12.820 -0.5523 -0.1404 -0.0055
  981MOL0     C32346  12.079  11.852  12.806 -0.2161 -0.2141 -0.4343
  981MOL0     C32347  12.025  11.729  12.859  0.7796 -0.9062  0.6582
  981MOL0     O32348  11.926  11.538  12.556 -0.7610  1.0617  0.1480
  981MOL0     C32349  11.746  11.313  12.769  0.7319  0.2153  0.8695
  981MOL0     C32350  11.698  11.184  12.771  0.2646 -0.7998  0.4806
  981MOL0     N32351  11.457  10.436  12.870 -0.0571 -0.1567 -0.2657
  981MOL0     N32352  11.393  10.316  12.860  0.0941  0.3528 -0.8449
  981MOL0     C32353  10.953   9.967  11.691 -0.2311 -0.2628  0.7443
  981MOL0     C32354  10.961   9.897  11.570 -0.2321 -0.5070 -0.4647
  981MOL0     C32355  11.134   9.650  11.195  0.4689  0.0247 -0.0142
  981MOL0     C32356  11.023   9.698  11.127  1.3313 -0.7915 -0.4395
  981MOL0     C32357  10.980   9.640  11.009  0.0159  0.5697 -0.0536
  981MOL0     C32358  11.049   9.539  10.949 -0.9447  0.3144 -0.1073
  981MOL0     O32359  11.003   9.472  10.837  0.6719 -0.0684  0.1460
  981MOL0     C32360  10.864   9.491  10.800 -0.7733 -1.2549  0.3590
  981MOL0     C32361  10.794   9.371  10.731 -0.5278 -0.4776 -0.5392
  981MOL0     C32362  10.835   9.334  10.583  1.1040  0.4190 -0.4709
  981MOL0     C32363  10.967   9.267  10.576  0.2204 -0.1773 -0.0866
  981MOL0     C32364  10.968   9.191  10.452  0.2106 -0.5332 -0.4845
  981MOL0     C32365  10.960   9.107  10.370 -0.1168 -0.5672 -0.0699
  981MOL0     C32366  11.168   9.495  11.007  0.0643  0.1192 -0.2901
  981MOL0     C32367  11.215   9.554  11.128 -0.3044 -0.1336  0.0415
  981MOL0     H32368  11.278   9.783  11.568  2.4756  2.5351  1.7697
  981MOL0     H32369  11.289   9.919  11.759  0.1003 -0.9691 -1.1672
  981MOL0     H32370  10.889  10.090  11.905 -0.2905  0.6726  0.7478
  981MOL0     H32371  10.950   9.931  11.988  0.4782 -0.3514  0.7061
  981MOL0     H32372  11.043  10.209  12.076  2.7686 -1.7329 -1.8608
  981MOL0     H32373  10.894  10.134  12.146  0.0286 -0.0604 -2.1006
  981MOL0     H32374  11.034   9.926  12.187  0.0459  0.2149  0.8247
  981MOL0     H32375  11.169  10.018  12.151 -0.5306  1.1785 -0.7329
  981MOL0     H32376  11.092  10.193  12.330  3.2087 -1.9955 -2.0427
  981MOL0     H32377  10.955  10.084  12.355 -1.5260  1.8774 -1.6999
  981MOL0     H32378  11.124   9.899  12.406  0.2990 -0.7346  1.1120
  981MOL0     H32379  11.250  10.017  12.359 -1.7244  0.5722 -3.4454
  981MOL0     H32380  11.059  10.070  12.592 -0.4378 -0.0173  0.5558
  981MOL0     H32381  11.214   9.978  12.601  0.1851  0.7961 -0.6406
  981MOL0     H32382  11.345  10.181  12.559  0.1925 -0.7866  1.8089
  981MOL0     H32383  11.192  10.264  12.498 -1.6959 -1.4960 -0.3038
  981MOL0     H32384  11.215  10.164  12.778  2.6158  1.1027  2.6116
  981MOL0     H32385  11.111  10.304  12.713  2.8843  2.9056  3.3355
  981MOL0     H32386  11.276  10.501  12.612  1.0113  3.7212  0.5257
  981MOL0     H32387  11.521  10.676  12.678  0.7181 -3.1045  0.2443
  981MOL0     H32388  11.363  10.734  12.741  0.7282  0.1437  0.3569
  981MOL0     H32389  11.599  10.642  12.906  0.5417  0.1257 -2.5095
  981MOL0     H32390  11.448  10.693  12.970  0.1256  2.3615  0.0184
  981MOL0     H32391  11.587  10.869  12.992  1.5397 -2.3334  0.2060
  981MOL0     H32392  11.485  10.919  12.860 -1.2321 -1.8690  1.4300
  981MOL0     H32393  11.739  10.785  12.788 -2.7331 -1.6085 -1.8346
  981MOL0     H32394  11.766  10.936  12.877  0.0054  0.6219 -0.9664
  981MOL0     H32395  11.819  11.041  12.503 -5.0245 -3.0272  2.6245
  981MOL0     H32396  12.027  11.163  12.419  0.3731  0.5725 -1.9734
  981MOL0     H32397  11.965  11.329  12.389 -1.6222  0.2276  1.6722
  981MOL0     H32398  12.063  11.298  12.534  0.4219 -0.3207 -0.0085
  981MOL0     H32399  11.735  11.753  12.673  0.2421 -0.1432 -1.7043
  981MOL0     H32400  11.828  11.949  12.600 -0.2769 -0.8936  0.8747
  981MOL0     H32401  12.255  11.929  12.642 -0.0341 -0.9385 -1.9238
  981MOL0     H32402  12.228  12.052  12.510 -1.4633 -0.9823 -0.4992
  981MOL0     H32403  12.312  12.089  12.790 -1.9312 -1.8133 -0.2564
  981MOL0     H32404  12.407  12.110  12.637 -0.0550  0.6646  0.2798
  981MOL0     H32405  12.190  12.278  12.741  0.6256 -3.2416  1.8377
  981MOL0     H32406  12.262  12.294  12.573 -2.1467 -0.7299  0.3308
  981MOL0     H32407  12.370  12.386  12.836  0.4159  0.1766 -0.9382
  981MOL0     H32408  12.479  12.284  12.743 -1.1933 -2.5484  1.2597
  981MOL0     H32409  12.507  12.440  12.585 -2.1188 -1.3349 -1.8539
  981MOL0     H32410  12.508  12.534  12.726  2.1388  0.4437 -2.5500
  981MOL0     H32411  12.370  12.650  12.555 -2.3421 -0.3201 -1.8492
  981MOL0     H32412  12.273  12.519  12.517 -1.9514 -0.0724  0.3480
  981MOL0     H32413  12.286  12.603  12.804 -2.5567  0.9148  0.1732
  981MOL0     H32414  12.161  12.515  12.727 -1.2593  1.7029 -1.6836
  981MOL0     H32415  12.051  12.683  12.649 -0.3275 -1.4537  4.6129
  981MOL0     H32416  12.196  12.792  12.614 -0.7018  0.8007  0.6532
  981MOL0     H32417  12.174  11.890  12.843  0.1791 -3.7060  2.7855
  981MOL0     H32418  12.079  11.653  12.914 -5.6918 -5.6157  1.7262
  981MOL0     H32419  11.718  11.387  12.844  1.2682  1.5195 -0.1758
  981MOL0     H32420  11.634  11.162  12.856  1.8927  0.5361  2.1221
  981MOL0     H32421  10.859  10.008  11.725 -2.1315 -3.7070  0.1082
  981MOL0     H32422  10.866   9.888  11.518 -1.4726  5.0471  0.1775
  981MOL0     H32423  10.957   9.773  11.168  3.7187  1.0665  0.2549
  981MOL0     H32424  10.882   9.673  10.975 -0.5124 -0.3675  0.4998
  981MOL0     H32425  10.806   9.495  10.893 -0.8011  2.6799  0.3280
  981MOL0     H32426  10.875   9.587  10.748 -2.5920 -1.1750  0.0404
  981MOL0     H32427  10.687   9.392  10.739 -0.3890  0.2251 -0.4602
  981MOL0     H32428  10.807   9.283  10.795  2.0929  0.7030  0.7128
  981MOL0     H32429  10.857   9.428  10.532  1.8373 -0.9122 -2.7423
  981MOL0     H32430  10.753   9.286  10.528  0.9957 -0.1511  0.1674
  981MOL0     H32431  10.981   9.201  10.662 -1.8624  1.7248  1.8762
  981MOL0     H32432  11.046   9.342  10.583  0.0158 -0.1305  3.1484
  981MOL0     H32433  10.954   9.014  10.317 -1.1701 -0.8454  0.5226
  981MOL0     H32434  11.234   9.433  10.946  1.3237  0.4498  0.7035
  981MOL0     H32435  11.311   9.516  11.162  2.8531  3.9650 -3.2004
  982MOL0     O32436   3.635   7.351   4.046 -0.1547 -0.8886 -0.1522
  982MOL0     C32437   3.602   7.272   3.960  0.1976  0.0917  0.0245
  982MOL0     O32438   3.567   7.140   3.991 -0.3909  0.6504  0.7252
  982MOL0     C32439   3.583   7.084   4.116 -0.3226 -0.1967  0.8895
  982MOL0     C32440   3.484   6.999   4.154  1.4062  0.2533 -0.4456
  982MOL0     C32441   3.476   6.939   4.279 -0.4853  0.0067 -0.4459
  982MOL0     C32442   3.590   6.949   4.366  0.5212  0.4462  0.0939
  982MOL0     O32443   3.604   6.890   4.491  0.0603  0.2005  0.0868
  982MOL0     C32444   3.570   6.757   4.487  0.2327 -0.4051 -0.0172
  982MOL0     C32445   3.627   6.696   4.620  0.7858 -0.5215 -0.4810
  982MOL0     C32446   3.617   6.547   4.616 -0.5929 -0.3250 -0.4536
  982MOL0     C32447   3.704   6.494   4.720  0.4311  0.0264 -0.2116
  982MOL0     C32448   3.797   6.380   4.665 -0.4103  0.4320  1.2206
  982MOL0     C32449   3.941   6.419   4.611  0.3499 -0.4476 -0.1930
  982MOL0     C32450   3.943   6.519   4.485 -0.4498 -0.1714 -0.9237
  982MOL0     C32451   4.071   6.572   4.442 -1.1395  0.1991  0.2335
  982MOL0     N32452   4.155   6.618   4.553 -0.8273 -0.3948  0.0920
  982MOL0     C32453   4.265   6.547   4.599 -0.4360  0.6710 -0.1106
  982MOL0     C32454   4.333   6.635   4.685 -0.6351  0.8307  0.1292
  982MOL0     C32455   4.461   6.608   4.762  0.7310  0.1271 -0.1140
  982MOL0     C32456   4.587   6.625   4.672  0.6553 -0.3912  0.3880
  982MOL0     C32457   4.650   6.771   4.653 -0.1957 -0.8914 -0.2061
  982MOL0     C32458   4.552   6.872   4.580 -0.1718 -0.3851 -0.0081
  982MOL0     O32459   4.624   6.977   4.524  0.1296 -0.4469 -0.1886
  982MOL0     C32460   4.652   7.088   4.602  0.8441 -0.2732 -1.4924
  982MOL0     C32461   4.711   7.210   4.549  0.2876  0.3311  0.1179
  982MOL0     C32462   4.726   7.331   4.624 -0.4129 -0.2478 -0.5611
  982MOL0     C32463   4.779   7.446   4.548 -0.7942  0.1964 -0.0655
  982MOL0     C32464   4.701   7.343   4.761 -0.7218  0.1042 -0.1348
  982MOL0     C32465   4.720   7.465   4.844 -0.0917  0.6478 -1.1489
  982MOL0     O32466   4.785   7.578   4.797  0.1056 -0.0278 -0.4351
  982MOL0     C32467   4.723   7.695   4.815 -0.6241  0.3649 -0.3993
  982MOL0     C32468   4.599   7.722   4.869  0.8564 -0.1473  1.0712
  982MOL0     C32469   4.549   7.857   4.871 -0.3046 -0.5827 -0.1402
  982MOL0     C32470   4.619   7.968   4.822  0.1054  1.0045  0.0979
  982MOL0     O32471   4.554   8.085   4.840  0.3751  1.2125 -0.0810
  982MOL0     C32472   4.552   8.182   4.737  0.6952 -0.0961  0.8834
  982MOL0     C32473   4.526   8.322   4.787 -0.2010  0.5955 -0.0255
  982MOL0     C32474   4.629   8.351   4.898 -0.2660  0.8324  0.5354
  982MOL0     C32475   4.627   8.502   4.946 -0.7007  0.3721  0.4778
  982MOL0     C32476   4.638   8.596   4.828 -0.0025  0.2477 -0.1587
  982MOL0     C32477   4.674   8.739   4.873 -0.6428  0.1444  0.3836
  982MOL0     C32478   4.694   8.844   4.753  0.0554  0.6569 -1.1560
  982MOL0     C32479   4.798   8.954   4.778 -0.3066  0.1601  0.2183
  982MOL0    Cl32480   4.960   8.873   4.824 -0.4143  0.0125  0.3989
  982MOL0     C32481   4.749   7.939   4.775 -0.0882  0.1176 -0.1306
  982MOL0     C32482   4.800   7.810   4.775  0.3302  0.9026 -0.1032
  982MOL0     O32483   4.669   7.465   4.959  0.2339  0.0379  1.1887
  982MOL0     C32484   4.647   7.215   4.817 -0.3505 -0.5248  0.2576
  982MOL0     C32485   4.619   7.095   4.739 -0.5710  0.2761 -0.3381
  982MOL0     N32486   4.253   6.747   4.691  0.0791 -0.7806  0.1495
  982MOL0     N32487   4.152   6.743   4.610 -0.1906  1.0215 -1.0713
  982MOL0     C32488   3.688   7.045   4.329  0.2942  0.0728 -1.5667
  982MOL0     C32489   3.685   7.115   4.209  0.2889  0.1505  0.3147
  982MOL0     C32490   3.585   7.331   3.826  0.3176  1.2145 -1.0876
  982MOL0     C32491   3.505   7.262   3.731 -0.3963 -0.0683  0.0839
  982MOL0     C32492   3.498   7.310   3.589  0.1626  0.7006  0.1902
  982MOL0     C32493   3.561   7.429   3.554 -0.2713 -0.4937 -1.0655
  982MOL0     O32494   3.560   7.463   3.419 -0.3803 -0.1632 -0.4350
  982MOL0     C32495   3.612   7.586   3.372  0.1121  0.0077  0.6370
  982MOL0     C32496   3.508   7.695   3.347 -0.0614  0.1949  0.1677
  982MOL0     C32497   3.439   7.746   3.482 -0.4888 -0.1607  0.6532
  982MOL0     C32498   3.325   7.852   3.466  0.2978 -0.1510 -0.1326
  982MOL0     C32499   3.311   7.932   3.586  0.2908  0.1918 -0.1924
  982MOL0     C32500   3.326   8.001   3.681 -0.1844  1.1814 -0.6834
  982MOL0     C32501   3.624   7.505   3.657 -0.4156 -0.4216 -0.3128
  982MOL0     C32502   3.631   7.452   3.794  0.3312  0.1952  0.9890
  982MOL0     H32503   3.400   6.976   4.090  0.3529 -1.1670  1.3512
  982MOL0     H32504   3.392   6.877   4.310 -2.1351  1.6274 -1.3885
  982MOL0     H32505   3.467   6.725   4.469  0.7197 -1.8399 -0.4115
  982MOL0     H32506   3.619   6.716   4.398  0.2597 -1.9197  0.6667
  982MOL0     H32507   3.730   6.733   4.626  1.4276 -1.8929 -2.0590
  982MOL0     H32508   3.558   6.736   4.694  2.3975 -0.1293  0.8593
  982MOL0     H32509   3.512   6.518   4.632 -1.0956  1.7013  0.2714
  982MOL0     H32510   3.648   6.523   4.514 -0.7447  1.1455 -0.8644
  982MOL0     H32511   3.772   6.572   4.755 -1.7171  1.7887  0.2421
  982MOL0     H32512   3.644   6.461   4.805  2.0387 -1.7559  0.2938
  982MOL0     H32513   3.821   6.308   4.743 -1.0093  0.7805  1.7387
  982MOL0     H32514   3.756   6.313   4.588  1.1862 -0.9563  1.5170
  982MOL0     H32515   3.992   6.451   4.703  2.3476  1.1902 -1.7706
  982MOL0     H32516   3.993   6.324   4.600  1.7993  0.4467 -1.3490
  982MOL0     H32517   3.909   6.458   4.401 -0.5282  0.3500 -1.2721
  982MOL0     H32518   3.873   6.601   4.501  1.0886  1.1171 -0.6001
  982MOL0     H32519   4.051   6.647   4.366 -0.7954 -0.9549 -1.0370
  982MOL0     H32520   4.131   6.499   4.386  3.7606  2.0497  2.4780
  982MOL0     H32521   4.316   6.461   4.555 -0.6366  0.0430  0.8723
  982MOL0     H32522   4.472   6.661   4.857 -2.0839  0.8570 -0.1143
  982MOL0     H32523   4.451   6.504   4.794  2.3309 -0.7179 -2.0873
  982MOL0     H32524   4.574   6.581   4.573  0.8265 -1.1339  0.6904
  982MOL0     H32525   4.669   6.581   4.729  1.5839  0.2578 -0.3974
  982MOL0     H32526   4.740   6.764   4.591  1.2824  2.0229  1.3666
  982MOL0     H32527   4.709   6.811   4.736 -0.0426 -2.7379  0.6023
  982MOL0     H32528   4.468   6.916   4.635  1.1156  1.0138  0.8965
  982MOL0     H32529   4.519   6.815   4.492 -0.6909  2.1216 -1.5389
  982MOL0     H32530   4.730   7.191   4.444 -1.1928  1.9123 -0.4873
  982MOL0     H32531   4.884   7.473   4.556 -0.7096 -0.0897 -0.1759
  982MOL0     H32532   4.759   7.421   4.444 -4.3123 -2.9520  1.1048
  982MOL0     H32533   4.720   7.537   4.559  1.7630  2.2761 -2.2568
  982MOL0     H32534   4.528   7.649   4.907 -1.6309  2.4015  1.6352
  982MOL0     H32535   4.448   7.875   4.906 -0.7220 -0.0996 -1.5260
  982MOL0     H32536   4.647   8.189   4.683 -0.7681 -1.3858 -2.1013
  982MOL0     H32537   4.484   8.148   4.658 -0.5614  1.5864  1.1865
  982MOL0     H32538   4.543   8.383   4.698  2.3270 -3.0345 -2.3287
  982MOL0     H32539   4.423   8.336   4.821  0.5688  6.9819  0.9210
  982MOL0     H32540   4.729   8.326   4.861 -0.3851  1.5574 -0.3167
  982MOL0     H32541   4.611   8.290   4.987  1.5740 -2.6002 -1.1974
  982MOL0     H32542   4.537   8.531   5.002  0.9342  4.3971  1.3469
  982MOL0     H32543   4.713   8.504   5.013  0.4213  0.8916 -0.9140
  982MOL0     H32544   4.544   8.597   4.771  0.4074 -1.7882 -0.9506
  982MOL0     H32545   4.719   8.558   4.765  0.7930 -0.5503  1.2887
  982MOL0     H32546   4.606   8.783   4.946  0.1379  0.7448  0.7722
  982MOL0     H32547   4.774   8.732   4.917 -0.7716 -2.4154  0.4236
  982MOL0     H32548   4.598   8.893   4.734  0.3952  1.6833 -0.3401
  982MOL0     H32549   4.716   8.784   4.664  0.3962  1.7263 -1.8056
  982MOL0     H32550   4.761   9.023   4.854  0.0739 -0.7148  1.2352
  982MOL0     H32551   4.818   9.011   4.688 -0.2872 -2.9483 -1.9084
  982MOL0     H32552   4.812   8.019   4.737 -0.1477  1.2322  1.9681
  982MOL0     H32553   4.902   7.800   4.737 -0.3251 -2.1743 -1.2992
  982MOL0     H32554   4.616   7.214   4.922  2.9507 -0.9988  1.3214
  982MOL0     H32555   4.580   7.004   4.784  0.0960  0.4511  0.6177
  982MOL0     H32556   3.758   7.073   4.408 -2.3451  1.0555  0.5577
  982MOL0     H32557   3.763   7.189   4.198 -0.5960  1.2222  0.9563
  982MOL0     H32558   3.466   7.162   3.748  1.3922 -0.9199 -0.5583
  982MOL0     H32559   3.440   7.265   3.509  1.0546  1.8448 -1.1317
  982MOL0     H32560   3.706   7.623   3.414  1.1703 -0.5961 -1.0615
  982MOL0     H32561   3.640   7.564   3.268  2.4463 -0.0652  1.2210
  982MOL0     H32562   3.449   7.664   3.260  1.8979  1.9887 -1.9201
  982MOL0     H32563   3.562   7.786   3.320  1.4214 -0.8720 -0.6123
  982MOL0     H32564   3.515   7.789   3.548  0.3709 -2.1400  1.0157
  982MOL0     H32565   3.381   7.669   3.532 -1.6899  1.1329  1.2986
  982MOL0     H32566   3.227   7.820   3.428  1.3551 -0.0732 -3.2122
  982MOL0     H32567   3.353   7.926   3.390  1.0429 -1.0789 -0.7804
  982MOL0     H32568   3.352   8.063   3.765  5.1093 -1.9374  0.4617
  982MOL0     H32569   3.670   7.600   3.633 -1.7644  0.9076  1.9569
  982MOL0     H32570   3.686   7.509   3.867  2.8064  2.7624 -2.5569
  983MOL0     O32571   1.880   4.522   7.995  0.4065  0.4469  0.1870
  983MOL0     C32572   1.887   4.412   8.048 -0.2544  0.0890  0.9747
  983MOL0     O32573   1.833   4.381   8.162  0.5150  0.4111 -0.6749
  983MOL0     C32574   1.753   4.479   8.219 -0.4666 -0.9815 -0.6471
  983MOL0     C32575   1.818   4.597   8.274  0.4177  0.6735 -0.8411
  983MOL0     C32576   1.743   4.706   8.329  0.4048  0.1850  0.5160
  983MOL0     C32577   1.600   4.689   8.341 -0.4664  0.2297  0.8141
  983MOL0     O32578   1.512   4.778   8.400  0.1968 -0.6618  0.2249
  983MOL0     C32579   1.556   4.832   8.524 -0.0124  0.6556 -0.0518
  983MOL0     C32580   1.431   4.851   8.605 -0.7672  0.0252 -0.2471
  983MOL0     C32581   1.365   4.716   8.637  0.6099  0.4809 -0.8286
  983MOL0     C32582   1.240   4.733   8.721  0.1539 -0.3679  0.1893
  983MOL0     C32583   1.184   4.601   8.763 -0.0204  0.0018 -0.6019
  983MOL0     C32584   1.040   4.607   8.823  0.1932 -0.7553  0.0528
  983MOL0     C32585   0.940   4.646   8.708  0.7047 -0.2386 -0.5559
  983MOL0     C32586   0.800   4.644   8.761  0.7246 -0.0075 -0.1772
  983MOL0     N32587   0.705   4.709   8.674 -1.1688  0.3186 -0.0718
  983MOL0     C32588   0.666   4.843   8.685 -0.5307 -0.3355  0.6077
  983MOL0     C32589   0.576   4.847   8.589 -0.5766  1.4677 -0.0906
  983MOL0     C32590   0.496   4.960   8.553  1.0060 -0.0552  0.7918
  983MOL0     C32591   0.392   4.994   8.659 -0.4355  0.0709  0.0999
  983MOL0     C32592   0.289   4.881   8.675  0.1475  0.0198  0.5904
  983MOL0     C32593   0.182   4.920   8.778  0.8453 -0.7433 -0.4664
  983MOL0     O32594   0.062   4.833   8.765 -0.9181 -1.0370 -0.6518
  983MOL0     C32595   0.071   4.698   8.791  0.1260  0.0942 -0.0808
  983MOL0     C32596   0.088   4.615   8.681  0.1097  0.5794  0.6062
  983MOL0     C32597   0.120   4.478   8.699  0.8008  0.4072 -0.2364
  983MOL0     C32598   0.152   4.398   8.575  0.0966  0.3564 -0.0136
  983MOL0     C32599   0.103   4.404   8.821  0.2112 -0.5084  0.1437
  983MOL0     C32600   0.120   4.263   8.847 -1.0888 -0.9826 -0.7825
  983MOL0     O32601   0.124   4.213   8.975 -0.9531 -0.0764  0.0934
  983MOL0     C32602   0.125   4.075   8.995  0.6393  0.5961 -0.5851
  983MOL0     C32603   0.074   3.964   8.922  0.0390 -0.2452  0.8290
  983MOL0     C32604   0.099   3.826   8.951  0.4288  0.4460  0.0248
  983MOL0     C32605   0.185   3.801   9.057 -0.1484 -0.9387 -0.7481
  983MOL0     O32606   0.206   3.669   9.093 -0.3167  0.7091  0.0360
  983MOL0     C32607   0.232   3.616   9.226  0.6016  0.2170 -0.4741
  983MOL0     C32608   0.145   3.496   9.270  0.2270 -0.1244  0.4559
  983MOL0     C32609   0.152   3.467   9.431  0.5231 -0.3173  1.2428
  983MOL0     C32610   0.287   3.415   9.460 -0.0734 -0.4509  0.4764
  983MOL0     C32611   0.289   3.383   9.610  0.0899  0.3061 -0.6078
  983MOL0     C32612   0.413   3.297   9.649 -0.7517 -0.7120  0.1210
  983MOL0     C32613   0.403   3.256   9.796  0.5556 -0.3625 -0.1530
  983MOL0     C32614   0.535   3.226   9.868 -0.1186 -0.1228  0.4382
  983MOL0    Cl32615   0.640   3.368   9.875  0.3849  0.0998  0.5352
  983MOL0     C32616   0.237   3.905   9.133  0.5428 -0.4728 -0.5582
  983MOL0     C32617   0.207   4.044   9.106  0.1282  0.7599 -0.0229
  983MOL0     O32618   0.130   4.194   8.745  0.0553  0.5458  0.0766
  983MOL0     C32619   0.087   4.490   8.933  0.9684 -0.6083 -0.4519
  983MOL0     C32620   0.069   4.633   8.918 -0.3261  0.1526  0.8029
  983MOL0     N32621   0.560   4.726   8.525 -0.5027  0.0460 -0.4103
  983MOL0     N32622   0.634   4.643   8.575 -0.9658 -0.5661  1.1789
  983MOL0     C32623   1.545   4.584   8.260 -0.7515 -0.9329 -0.5641
  983MOL0     C32624   1.620   4.482   8.200 -0.4101  0.0279  0.7724
  983MOL0     C32625   1.957   4.314   7.969 -0.0420 -0.1213  0.6747
  983MOL0     C32626   1.938   4.177   7.986 -0.0815 -0.5385  0.1618
  983MOL0     C32627   2.011   4.088   7.899 -0.2524  0.2881 -0.1543
  983MOL0     C32628   2.102   4.135   7.808  0.9733 -0.4347 -0.6033
  983MOL0     O32629   2.166   4.028   7.744 -0.1190 -0.5136 -0.2319
  983MOL0     C32630   2.296   4.054   7.680  0.4582  0.2164 -1.2822
  983MOL0     C32631   2.370   3.919   7.675 -0.0072 -0.6754 -0.3040
  983MOL0     C32632   2.310   3.831   7.575 -0.2026 -0.5101  0.4643
  983MOL0     C32633   2.332   3.674   7.602  0.3333 -1.1082  0.4462
  983MOL0     C32634   2.477   3.635   7.618  0.0491  0.2325  0.0431
  983MOL0     C32635   2.596   3.598   7.631  0.0508  1.2096  0.1223
  983MOL0     C32636   2.123   4.271   7.805 -0.4908 -0.5863 -0.1110
  983MOL0     C32637   2.048   4.357   7.869  0.5085 -0.0069 -0.9047
  983MOL0     H32638   1.923   4.586   8.301 -0.0094  0.6281  0.9140
  983MOL0     H32639   1.791   4.794   8.371 -2.0682  0.9011  2.1105
  983MOL0     H32640   1.615   4.766   8.587 -1.3074  0.8672  1.4551
  983MOL0     H32641   1.606   4.929   8.518  1.0915  0.5575  4.3811
  983MOL0     H32642   1.439   4.893   8.706  2.3487 -3.2031  1.0792
  983MOL0     H32643   1.358   4.908   8.547  0.6551 -1.2326 -3.4848
  983MOL0     H32644   1.344   4.657   8.547 -4.1784  1.4469 -0.5728
  983MOL0     H32645   1.435   4.660   8.700  2.1256  1.1144 -1.8708
  983MOL0     H32646   1.277   4.782   8.812  1.4081 -2.2563  0.7468
  983MOL0     H32647   1.165   4.796   8.672 -0.0821  0.7744  1.8875
  983MOL0     H32648   1.183   4.533   8.678  0.9305 -0.9701  0.1367
  983MOL0     H32649   1.261   4.556   8.827 -1.2035 -0.9108  0.2197
  983MOL0     H32650   1.005   4.510   8.861 -5.5774 -0.3534 -3.0268
  983MOL0     H32651   1.034   4.679   8.904  0.1283  0.0771 -0.6796
  983MOL0     H32652   0.947   4.752   8.680 -3.0095 -0.1524 -1.7213
  983MOL0     H32653   0.956   4.576   8.626  1.8229 -0.9613  0.2496
  983MOL0     H32654   0.802   4.690   8.861  3.2635 -1.2162  0.4089
  983MOL0     H32655   0.751   4.548   8.782 -2.4007  1.1932 -1.4157
  983MOL0     H32656   0.712   4.930   8.731 -1.6621  0.2566  0.6642
  983MOL0     H32657   0.554   5.052   8.540  1.0350 -0.4476 -3.2192
  983MOL0     H32658   0.455   4.939   8.453  1.9903  3.6427 -0.5584
  983MOL0     H32659   0.340   5.088   8.643  1.7544  1.3658  0.1216
  983MOL0     H32660   0.446   4.995   8.754 -0.8766 -2.6490  0.4667
  983MOL0     H32661   0.345   4.793   8.709  1.9820  1.7170  2.1527
  983MOL0     H32662   0.245   4.851   8.579  0.6058  2.5703 -0.4814
  983MOL0     H32663   0.162   5.024   8.753  2.1795  0.4221  2.7485
  983MOL0     H32664   0.216   4.921   8.882 -2.0010  0.6117  0.5536
  983MOL0     H32665   0.088   4.659   8.582 -1.3745 -3.4176 -1.3707
  983MOL0     H32666   0.159   4.472   8.494 -1.9206  0.9096  0.2625
  983MOL0     H32667   0.253   4.358   8.586  0.4915  1.2049 -0.3999
  983MOL0     H32668   0.077   4.321   8.557  0.2625  0.4270 -1.1162
  983MOL0     H32669   0.017   3.991   8.834 -0.5109 -2.4426  0.4651
  983MOL0     H32670   0.048   3.746   8.898  0.0239  0.5023  0.3206
  983MOL0     H32671   0.340   3.603   9.243  0.7074  1.7791  0.2091
  983MOL0     H32672   0.196   3.694   9.293  1.0989  0.8687 -0.9481
  983MOL0     H32673   0.045   3.522   9.233  0.5526  0.3775 -0.0684
  983MOL0     H32674   0.173   3.411   9.208  0.9193  1.1207 -0.9852
  983MOL0     H32675   0.074   3.397   9.461 -0.9839 -0.4521 -2.4750
  983MOL0     H32676   0.137   3.559   9.489 -0.5601 -1.0951  2.2315
  983MOL0     H32677   0.318   3.332   9.397 -4.0425 -1.1984 -0.7531
  983MOL0     H32678   0.364   3.493   9.454  0.1183 -0.6460  0.4002
  983MOL0     H32679   0.201   3.329   9.646  1.0205  1.0057  3.2822
  983MOL0     H32680   0.293   3.474   9.670  1.6146 -0.9554  1.3694
  983MOL0     H32681   0.420   3.204   9.592 -0.0440 -2.4297  2.8342
  983MOL0     H32682   0.506   3.351   9.630  0.5305 -2.1537  1.9512
  983MOL0     H32683   0.330   3.174   9.795 -0.1095  0.1983 -2.3908
  983MOL0     H32684   0.350   3.331   9.857 -0.8946 -0.1527 -1.6036
  983MOL0     H32685   0.590   3.140   9.829  3.1705  2.5348 -1.3952
  983MOL0     H32686   0.519   3.207   9.975 -0.5068  0.5444  0.5030
  983MOL0     H32687   0.305   3.887   9.216 -0.3010  2.3384  0.8806
  983MOL0     H32688   0.243   4.128   9.164 -1.2376  1.0276  0.4654
  983MOL0     H32689   0.085   4.453   9.035 -1.5289 -1.4726 -0.7501
  983MOL0     H32690   0.047   4.696   9.003 -6.0599  0.0848 -0.2842
  983MOL0     H32691   1.439   4.564   8.254 -0.5300 -1.6205 -3.4069
  983MOL0     H32692   1.576   4.408   8.134 -0.6831  1.8992 -1.2732
  983MOL0     H32693   1.866   4.146   8.061  0.5172 -1.3082  0.4331
  983MOL0     H32694   2.007   3.980   7.910  0.6945  0.4687  3.3593
  983MOL0     H32695   2.272   4.096   7.582 -2.1512 -1.1020 -1.3094
  983MOL0     H32696   2.342   4.130   7.743  0.3733 -0.1795 -0.7358
  983MOL0     H32697   2.372   3.868   7.772 -0.6479 -0.1268  0.0109
  983MOL0     H32698   2.475   3.934   7.648  1.3718  0.9107  4.6748
  983MOL0     H32699   2.358   3.842   7.478  2.7372 -0.6615  1.8162
  983MOL0     H32700   2.205   3.856   7.557  0.9935  4.9530 -0.8269
  983MOL0     H32701   2.290   3.626   7.513  0.5610 -1.4753  0.5351
  983MOL0     H32702   2.268   3.640   7.684  2.6454 -1.4815  2.1899
  983MOL0     H32703   2.685   3.546   7.660 -1.3157 -0.9771  0.6064
  983MOL0     H32704   2.203   4.311   7.745  2.4889  0.8801  4.3346
  983MOL0     H32705   2.079   4.461   7.857  1.2742  0.4397  3.2825
  984MOL0     O32706   5.574   9.898   3.330  0.2301  0.2576 -0.2073
  984MOL0     C32707   5.518   9.787   3.333 -0.3499  0.4229 -0.4777
  984MOL0     O32708   5.404   9.752   3.262  0.8799  0.3160 -0.2782
  984MOL0     C32709   5.316   9.859   3.224  1.0637  0.5489 -0.0840
  984MOL0     C32710   5.261   9.863   3.097 -0.9154  0.3476 -1.1522
  984MOL0     C32711   5.173   9.965   3.058  0.1493  0.4611 -0.0623
  984MOL0     C32712   5.137  10.069   3.149 -0.1836 -0.5796  1.2187
  984MOL0     O32713   5.049  10.172   3.119  0.5406  0.4218 -0.2858
  984MOL0     C32714   4.995  10.183   2.980 -1.2591 -0.1745  0.3356
  984MOL0     C32715   4.849  10.235   2.995  0.9147  0.0798  0.2286
  984MOL0     C32716   4.850  10.368   3.073  0.3758 -0.8782  0.6794
  984MOL0     C32717   4.706  10.416   3.093 -0.6539  0.8721  0.5769
  984MOL0     C32718   4.690  10.562   3.142 -0.6123  0.0244  0.2047
  984MOL0     C32719   4.728  10.598   3.291  0.3211  0.2377 -0.1968
  984MOL0     C32720   4.688  10.746   3.327 -0.0671 -0.8021 -0.6668
  984MOL0     C32721   4.770  10.844   3.245  0.1764  0.7468 -0.8554
  984MOL0     N32722   4.756  10.972   3.306 -0.0366  0.6217 -0.0036
  984MOL0     C32723   4.846  11.031   3.391  0.6633  0.4080 -0.1071
  984MOL0     C32724   4.792  11.153   3.404 -0.9665  0.7282 -0.1660
  984MOL0     C32725   4.862  11.257   3.499  0.1582  0.7204 -0.3070
  984MOL0     C32726   4.826  11.245   3.650  0.1597  0.9028  0.8764
  984MOL0     C32727   4.677  11.272   3.676  0.3987 -0.3943  0.8677
  984MOL0     C32728   4.625  11.409   3.612 -0.1048 -1.4308  0.5168
  984MOL0     O32729   4.699  11.526   3.656 -0.6516  0.8057 -0.6314
  984MOL0     C32730   4.670  11.565   3.787  0.8171 -0.3770 -0.6510
  984MOL0     C32731   4.781  11.600   3.875 -0.7164  0.4123 -0.2299
  984MOL0     C32732   4.765  11.667   3.992  0.8091  0.1109  0.6841
  984MOL0     C32733   4.888  11.705   4.067 -0.2576  0.5421 -0.7355
  984MOL0     C32734   4.637  11.703   4.035 -0.0383  0.3364 -0.2136
  984MOL0     C32735   4.604  11.778   4.157 -0.1336 -0.8102 -0.2817
  984MOL0     O32736   4.697  11.831   4.240 -0.0135 -0.2959  0.4677
  984MOL0     C32737   4.659  11.912   4.350 -0.0884  0.3752 -0.7912
  984MOL0     C32738   4.645  12.049   4.344  0.2302  0.3856  0.8891
  984MOL0     C32739   4.587  12.126   4.449  0.1412 -0.0470 -0.0470
  984MOL0     C32740   4.538  12.059   4.563  0.4411 -0.6597  0.7392
  984MOL0     O32741   4.460  12.121   4.652 -0.2006  0.5009  0.6829
  984MOL0     C32742   4.325  12.073   4.670  0.9118 -0.0635 -0.4345
  984MOL0     C32743   4.230  12.139   4.560 -0.9577 -1.1073 -0.8268
  984MOL0     C32744   4.266  12.288   4.531 -0.1276 -0.3386  0.1826
  984MOL0     C32745   4.210  12.344   4.393  0.0728  0.9944  0.0225
  984MOL0     C32746   4.182  12.498   4.416  0.4182 -0.4154  0.3074
  984MOL0     C32747   4.163  12.565   4.285  0.2450 -0.5617  0.0404
  984MOL0     C32748   4.179  12.717   4.285  0.3898  0.3675 -0.0511
  984MOL0     C32749   4.181  12.762   4.130 -0.2689 -0.3449  0.3177
  984MOL0    Cl32750   4.193  12.940   4.116  0.0253  0.0357  0.1631
  984MOL0     C32751   4.564  11.919   4.571 -1.3336  0.4407  0.2814
  984MOL0     C32752   4.612  11.852   4.467 -0.1837 -0.0902  0.7087
  984MOL0     O32753   4.481  11.786   4.174  0.1884 -0.0352 -0.3565
  984MOL0     C32754   4.531  11.662   3.953  0.7184 -0.7889 -0.3044
  984MOL0     C32755   4.543  11.597   3.833  0.4162  1.0173  1.1930
  984MOL0     N32756   4.684  11.162   3.332  0.1341 -0.1566 -0.4072
  984MOL0     N32757   4.656  11.056   3.268 -0.3500 -0.5907  0.6250
  984MOL0     C32758   5.181  10.061   3.277  0.1952  0.4771  0.0357
  984MOL0     C32759   5.274   9.962   3.311  0.1876  0.3289 -1.2812
  984MOL0     C32760   5.582   9.682   3.417 -0.3806  0.0129  1.0112
  984MOL0     C32761   5.528   9.550   3.406  0.3879 -0.2037  0.5762
  984MOL0     C32762   5.591   9.453   3.478  0.4353  0.8260  0.3464
  984MOL0     C32763   5.692   9.471   3.569  0.3727 -0.2414  0.1334
  984MOL0     O32764   5.746   9.370   3.650 -0.7945 -0.0858 -0.5805
  984MOL0     C32765   5.803   9.271   3.562  0.2513 -0.7749  0.2882
  984MOL0     C32766   5.899   9.190   3.644  0.5458 -0.7751  0.1219
  984MOL0     C32767   5.827   9.090   3.740 -0.7221  0.0984 -0.7417
  984MOL0     C32768   5.784   8.963   3.668  0.4068  0.5796 -0.6856
  984MOL0     C32769   5.894   8.871   3.632 -0.0546 -0.3146 -0.8256
  984MOL0     C32770   5.980   8.794   3.611 -0.6900  0.5438  0.2673
  984MOL0     C32771   5.746   9.600   3.589  0.1292  0.4402 -0.4976
  984MOL0     C32772   5.687   9.697   3.512  0.3815  0.5496  0.4254
  984MOL0     H32773   5.282   9.788   3.021  1.4283 -1.4704  1.1275
  984MOL0     H32774   5.128   9.945   2.962 -4.4621  1.3483  1.6439
  984MOL0     H32775   5.056  10.256   2.926 -0.6576 -0.9428 -0.0482
  984MOL0     H32776   4.982  10.090   2.923  2.1408 -0.6196  0.0688
  984MOL0     H32777   4.812  10.253   2.893 -2.5961  0.2678  1.3896
  984MOL0     H32778   4.780  10.163   3.039 -1.2307  1.4894 -0.6266
  984MOL0     H32779   4.905  10.358   3.167  2.0700  0.2390 -0.1300
  984MOL0     H32780   4.905  10.446   3.018  1.2553 -3.2655 -2.1263
  984MOL0     H32781   4.655  10.406   2.997 -0.0642  0.8999  0.2581
  984MOL0     H32782   4.663  10.349   3.169 -0.6405  1.4928  1.1373
  984MOL0     H32783   4.743  10.627   3.072 -3.0138 -0.3832 -2.1639
  984MOL0     H32784   4.588  10.599   3.129  0.4835  2.6266 -1.9213
  984MOL0     H32785   4.666  10.535   3.356  1.7158 -0.8943  0.0840
  984MOL0     H32786   4.832  10.572   3.310  0.0772  0.1198  1.0556
  984MOL0     H32787   4.581  10.765   3.318  0.0465  0.9689  1.1259
  984MOL0     H32788   4.712  10.774   3.430  2.6492 -3.9593 -0.2489
  984MOL0     H32789   4.743  10.835   3.139  0.1882  1.8147 -0.9570
  984MOL0     H32790   4.873  10.808   3.252 -0.5884 -1.7557 -1.5886
  984MOL0     H32791   4.930  10.976   3.435 -0.2112 -1.2366 -0.4232
  984MOL0     H32792   4.969  11.250   3.482  0.0600 -3.0833 -0.0476
  984MOL0     H32793   4.821  11.356   3.474  0.3884  1.2611  1.2996
  984MOL0     H32794   4.882  11.320   3.706  1.9847 -0.8140  1.4873
  984MOL0     H32795   4.850  11.144   3.685 -0.0228  0.8151  0.7516
  984MOL0     H32796   4.650  11.262   3.782 -3.0505 -0.0326  0.1267
  984MOL0     H32797   4.625  11.196   3.617  3.6544 -0.6396 -1.9550
  984MOL0     H32798   4.518  11.428   3.613  0.0201 -0.5277 -0.7630
  984MOL0     H32799   4.631  11.407   3.503  0.3171  2.4202  0.3111
  984MOL0     H32800   4.878  11.553   3.857 -0.6675  0.8987 -1.3823
  984MOL0     H32801   4.969  11.651   4.018 -1.2214 -0.2864 -1.4626
  984MOL0     H32802   4.927  11.807   4.057  2.3800 -0.0314  2.0569
  984MOL0     H32803   4.890  11.678   4.173  1.1748 -0.8110 -1.0640
  984MOL0     H32804   4.661  12.092   4.245  1.2918  0.9055  1.2761
  984MOL0     H32805   4.565  12.231   4.436 -0.0828  0.5972  4.2210
  984MOL0     H32806   4.317  11.964   4.669 -2.7077  0.0226  1.6373
  984MOL0     H32807   4.292  12.115   4.765  3.6122  2.9434 -0.6514
  984MOL0     H32808   4.240  12.073   4.473 -2.3179 -0.7565 -1.2829
  984MOL0     H32809   4.126  12.142   4.594 -0.2520 -0.6609  1.4992
  984MOL0     H32810   4.373  12.305   4.514 -0.7100  2.4692 -1.2490
  984MOL0     H32811   4.220  12.345   4.613 -1.3909  0.4983 -1.0622
  984MOL0     H32812   4.283  12.320   4.316  4.8622  0.4182  4.1986
  984MOL0     H32813   4.116  12.294   4.370  0.9234 -0.2452 -0.8561
  984MOL0     H32814   4.270  12.551   4.456  1.1534 -0.1552 -1.5638
  984MOL0     H32815   4.100  12.532   4.481 -0.4623  0.5131 -1.2349
  984MOL0     H32816   4.234  12.531   4.210  0.6804  0.0369  0.1781
  984MOL0     H32817   4.064  12.542   4.243  0.7201  1.6346 -2.5218
  984MOL0     H32818   4.275  12.743   4.332  3.1894 -3.1215 -3.2189
  984MOL0     H32819   4.092  12.773   4.320  0.7773  0.9637 -0.0360
  984MOL0     H32820   4.091  12.744   4.072 -1.4454  2.3242  1.1538
  984MOL0     H32821   4.271  12.720   4.083  0.6795 -0.2077  1.9319
  984MOL0     H32822   4.534  11.860   4.657 -1.4009  1.8030  1.2291
  984MOL0     H32823   4.630  11.745   4.478  0.4920 -0.2574 -1.5449
  984MOL0     H32824   4.430  11.698   3.970  0.1720 -1.3364 -2.1956
  984MOL0     H32825   4.448  11.584   3.782  0.1183  2.8654  1.2244
  984MOL0     H32826   5.154  10.140   3.346 -1.1570 -0.1117  0.2090
  984MOL0     H32827   5.324   9.962   3.407 -2.2667  2.6367  0.1444
  984MOL0     H32828   5.436   9.539   3.350  1.6651  2.5802 -2.4072
  984MOL0     H32829   5.543   9.356   3.462 -1.5989  2.1068 -2.0977
  984MOL0     H32830   5.722   9.212   3.518  0.0880 -2.9495  3.1786
  984MOL0     H32831   5.865   9.309   3.481  2.9663 -2.0502  1.6532
  984MOL0     H32832   5.943   9.267   3.709 -0.5733 -1.0052  1.1918
  984MOL0     H32833   5.975   9.137   3.586  2.0915 -1.5192  2.6232
  984MOL0     H32834   5.745   9.150   3.781  0.6154  1.6351 -0.2179
  984MOL0     H32835   5.897   9.064   3.820 -0.5092  2.1051 -0.2425
  984MOL0     H32836   5.725   8.994   3.581 -0.6860 -0.3508 -0.2983
  984MOL0     H32837   5.716   8.905   3.731 -0.9018  3.0960  0.3470
  984MOL0     H32838   6.064   8.728   3.593  0.6286  1.7288  1.7762
  984MOL0     H32839   5.838   9.607   3.647  0.4297 -0.0248 -0.9133
  984MOL0     H32840   5.727   9.798   3.515 -0.5619  0.9623 -0.4981
  985MOL0     O32841   5.723   7.986   7.382  0.4057  0.1051  0.1784
  985MOL0     C32842   5.763   8.075   7.456  0.1289  0.6881  0.3598
  985MOL0     O32843   5.870   8.147   7.437 -0.1017 -0.4408 -0.0495
  985MOL0     C32844   5.974   8.067   7.391 -0.6695 -0.9930 -0.4335
  985MOL0     C32845   6.034   7.975   7.481 -0.4974  0.2207 -0.1869
  985MOL0     C32846   6.136   7.898   7.425  0.5997 -0.2544 -0.3380
  985MOL0     C32847   6.192   7.906   7.299  0.5631  0.1985  1.1526
  985MOL0     O32848   6.288   7.813   7.271  0.1353  0.5537  0.3617
  985MOL0     C32849   6.376   7.815   7.166  1.0964 -0.2556  0.0288
  985MOL0     C32850   6.459   7.941   7.171 -0.0601 -0.2337 -0.3822
  985MOL0     C32851   6.547   7.944   7.041 -1.0063 -0.3077 -0.7928
  985MOL0     C32852   6.688   7.871   7.055  0.4724  0.6669 -0.8673
  985MOL0     C32853   6.756   7.848   6.924 -0.0549  0.8416 -0.1486
  985MOL0     C32854   6.752   7.970   6.828 -0.0262 -0.3855 -0.3699
  985MOL0     C32855   6.889   7.976   6.753  0.7813  0.8138 -0.5360
  985MOL0     C32856   6.905   7.872   6.645 -0.6802 -0.4000 -0.0493
  985MOL0     N32857   7.036   7.887   6.584 -0.7282 -0.9930  0.3928
  985MOL0     C32858   7.062   7.999   6.498 -0.4225  0.0406  0.5174
  985MOL0     C32859   7.190   7.975   6.459 -0.2875 -0.8829  0.5353
  985MOL0     C32860   7.288   8.063   6.380  0.0795  0.0325  1.0494
  985MOL0     C32861   7.210   8.156   6.270 -0.1031  0.0002 -1.1148
  985MOL0     C32862   7.139   8.071   6.158 -0.4147 -0.7108  0.1772
  985MOL0     C32863   7.099   8.148   6.029  0.8292 -0.4337  0.7616
  985MOL0     O32864   7.224   8.210   5.975  0.5291  0.7041 -0.9513
  985MOL0     C32865   7.229   8.223   5.839 -1.3175 -0.5146  0.0619
  985MOL0     C32866   7.127   8.281   5.766 -1.2712  0.3656  0.6674
  985MOL0     C32867   7.151   8.307   5.626 -0.0267 -0.2149 -0.3749
  985MOL0     C32868   7.038   8.377   5.548 -0.0685 -0.1325 -1.3614
  985MOL0     C32869   7.264   8.243   5.560 -0.2255  0.1301 -0.0209
  985MOL0     C32870   7.291   8.256   5.417 -0.9474  0.6814  0.6022
  985MOL0     O32871   7.354   8.146   5.370 -0.4735  0.0047 -0.3542
  985MOL0     C32872   7.346   8.113   5.241 -0.1483  0.1713 -0.5746
  985MOL0     C32873   7.220   8.090   5.175 -0.1873  0.8374 -0.3013
  985MOL0     C32874   7.215   8.048   5.042 -0.5977  0.2899  0.1218
  985MOL0     C32875   7.343   8.016   4.978  0.7507 -0.5581 -0.2252
  985MOL0     O32876   7.352   7.964   4.858 -0.4598  0.7279 -0.3692
  985MOL0     C32877   7.245   7.994   4.772  0.6492  2.0586  0.0865
  985MOL0     C32878   7.327   7.975   4.643 -0.1961 -0.1830  0.4381
  985MOL0     C32879   7.226   7.953   4.527 -0.1800  0.5923  0.4601
  985MOL0     C32880   7.302   7.893   4.406  0.2287  0.2764  0.2212
  985MOL0     C32881   7.214   7.914   4.276 -0.0696  0.3167  0.5883
  985MOL0     C32882   7.291   7.880   4.153  0.2214  0.9219  0.0046
  985MOL0     C32883   7.272   7.732   4.109 -0.0436  0.4993  0.2670
  985MOL0     C32884   7.325   7.616   4.200  0.3275 -0.5583 -0.7872
  985MOL0    Cl32885   7.499   7.632   4.233 -0.0119 -0.1121  0.0207
  985MOL0     C32886   7.464   8.062   5.043  0.2484  0.8354  0.5312
  985MOL0     C32887   7.465   8.101   5.178 -0.3182 -0.4356  0.6060
  985MOL0     O32888   7.260   8.355   5.355 -0.4976  0.1869  0.1155
  985MOL0     C32889   7.355   8.176   5.645  0.4458  0.6344 -0.3321
  985MOL0     C32890   7.343   8.170   5.787 -0.0105 -0.0282 -0.5734
  985MOL0     N32891   7.235   7.863   6.527  0.3900  0.3938  0.2063
  985MOL0     N32892   7.147   7.819   6.609 -0.6816 -0.3029 -0.2093
  985MOL0     C32893   6.133   8.004   7.215  0.4372  0.6117  0.1698
  985MOL0     C32894   6.031   8.085   7.263  0.2152  0.8337 -0.2108
  985MOL0     C32895   5.681   8.131   7.566 -0.2529 -0.7257  0.6003
  985MOL0     C32896   5.588   8.050   7.630 -0.2872  0.0972  0.3682
  985MOL0     C32897   5.503   8.107   7.733 -0.8311 -0.6747 -0.1078
  985MOL0     C32898   5.519   8.250   7.768  0.6894 -0.7728  0.3117
  985MOL0     O32899   5.437   8.302   7.863  1.0575 -0.0637  0.5245
  985MOL0     C32900   5.438   8.437   7.922 -0.0986  0.0129  0.5162
  985MOL0     C32901   5.512   8.433   8.051 -0.2979 -0.3011  0.4157
  985MOL0     C32902   5.496   8.565   8.127 -0.3519  0.2293 -0.8421
  985MOL0     C32903   5.568   8.682   8.062  0.6320  0.3094 -0.2547
  985MOL0     C32904   5.484   8.803   8.042 -0.2068  1.0785  0.5243
  985MOL0     C32905   5.397   8.885   8.037 -0.3847  0.6694 -0.3409
  985MOL0     C32906   5.617   8.328   7.705  0.3794  0.0113  0.1535
  985MOL0     C32907   5.686   8.265   7.604 -0.9379  0.0806  0.3560
  985MOL0     H32908   5.985   7.968   7.577  1.5246 -1.9135  0.7757
  985MOL0     H32909   6.179   7.829   7.498  2.2072 -0.6296 -1.5767
  985MOL0     H32910   6.435   7.723   7.173  1.9773  0.3148  0.3649
  985MOL0     H32911   6.321   7.815   7.071  0.5459  0.9533  0.3269
  985MOL0     H32912   6.406   8.037   7.166 -0.6040 -0.4551  0.8369
  985MOL0     H32913   6.511   7.939   7.267 -1.5901  0.5058  0.4965
  985MOL0     H32914   6.482   7.906   6.961 -2.9634  3.8497 -1.4514
  985MOL0     H32915   6.580   8.046   7.019 -3.0507  0.0960 -2.3359
  985MOL0     H32916   6.755   7.940   7.107  2.5565  0.3034 -2.9057
  985MOL0     H32917   6.676   7.777   7.110 -0.1723  2.4163  2.2208
  985MOL0     H32918   6.858   7.818   6.953 -1.2447 -0.6757  2.9363
  985MOL0     H32919   6.713   7.755   6.885 -0.0550  0.2224  1.2538
  985MOL0     H32920   6.672   7.959   6.755 -0.5138  1.9255 -0.2517
  985MOL0     H32921   6.745   8.063   6.886 -1.7824 -2.9575  4.0414
  985MOL0     H32922   6.896   8.068   6.694 -2.5468  1.6876  0.2270
  985MOL0     H32923   6.975   7.973   6.821  1.0502  1.0991 -0.8586
  985MOL0     H32924   6.838   7.895   6.562 -1.3861  4.3635  1.5158
  985MOL0     H32925   6.878   7.772   6.681  0.0106 -0.5282  0.1160
  985MOL0     H32926   6.989   8.076   6.477 -2.4315 -1.9110 -0.0006
  985MOL0     H32927   7.351   8.121   6.449 -2.8637  3.8342  0.8827
  985MOL0     H32928   7.353   7.996   6.323 -0.8632  0.1054 -0.1376
  985MOL0     H32929   7.280   8.229   6.228  0.1841  3.2345  4.1310
  985MOL0     H32930   7.142   8.222   6.324  0.3046 -1.2807  1.0890
  985MOL0     H32931   7.054   8.019   6.202  0.9872 -0.7476  3.0854
  985MOL0     H32932   7.209   7.996   6.121  0.1950  1.1513 -2.7833
  985MOL0     H32933   7.028   8.226   6.058 -0.0701 -0.8966 -0.1491
  985MOL0     H32934   7.054   8.082   5.955 -0.4556  1.1132  0.0990
  985MOL0     H32935   7.040   8.320   5.818 -0.5395  0.6084  1.7419
  985MOL0     H32936   7.006   8.337   5.451 -1.1079 -0.0451 -1.0639
  985MOL0     H32937   6.946   8.363   5.605 -1.3115  1.1828 -2.9443
  985MOL0     H32938   7.058   8.483   5.532 -4.0135  1.1776  1.1282
  985MOL0     H32939   7.123   8.106   5.221 -0.1535  3.4823 -1.0105
  985MOL0     H32940   7.117   8.022   5.005 -0.9282  1.0994  0.4005
  985MOL0     H32941   7.162   7.923   4.777  2.1691  0.1951  0.5940
  985MOL0     H32942   7.189   8.084   4.795 -4.7077  0.1902 -3.6322
  985MOL0     H32943   7.380   8.065   4.612  0.6866 -1.0291 -0.5563
  985MOL0     H32944   7.409   7.905   4.660  1.6153  1.9524  0.9565
  985MOL0     H32945   7.163   8.039   4.501 -0.0624  0.6068  0.2174
  985MOL0     H32946   7.156   7.873   4.550  2.2268 -1.1412  2.3704
  985MOL0     H32947   7.398   7.944   4.392 -0.8573  2.5059  0.4440
  985MOL0     H32948   7.314   7.786   4.423 -0.3333  0.0284 -0.8727
  985MOL0     H32949   7.190   8.020   4.264  2.6698  1.0832  1.1543
  985MOL0     H32950   7.122   7.854   4.275  1.3852 -2.0955  1.6565
  985MOL0     H32951   7.249   7.946   4.077 -0.2117  1.4554  0.7041
  985MOL0     H32952   7.397   7.902   4.172  0.6400 -0.6019 -0.3775
  985MOL0     H32953   7.333   7.720   4.019  2.2155 -0.7408  1.8645
  985MOL0     H32954   7.165   7.717   4.090 -0.1148  1.5242 -0.2126
  985MOL0     H32955   7.306   7.522   4.147 -2.2014 -0.3867 -0.3331
  985MOL0     H32956   7.262   7.622   4.290 -3.0607  0.9591 -3.0392
  985MOL0     H32957   7.552   8.055   4.981 -0.5254 -2.8924 -0.3921
  985MOL0     H32958   7.561   8.133   5.220  0.6102 -2.9502  0.5483
  985MOL0     H32959   7.443   8.121   5.611  0.4075  1.1516 -1.3068
  985MOL0     H32960   7.402   8.119   5.862  1.4780  0.7162 -1.2126
  985MOL0     H32961   6.172   8.025   7.116 -0.6163  3.4675  0.2694
  985MOL0     H32962   5.992   8.162   7.197  1.4319 -1.4037 -3.8719
  985MOL0     H32963   5.586   7.948   7.593 -1.1105  0.7062 -1.3644
  985MOL0     H32964   5.417   8.058   7.778 -0.9208 -0.9414 -0.5637
  985MOL0     H32965   5.470   8.519   7.857 -0.9381 -1.2932 -1.6382
  985MOL0     H32966   5.334   8.461   7.946 -0.4614 -1.9671  1.0783
  985MOL0     H32967   5.620   8.418   8.040 -0.1926  0.6422  0.0104
  985MOL0     H32968   5.481   8.343   8.104 -1.2223  0.5812  1.4075
  985MOL0     H32969   5.532   8.557   8.230 -0.8116 -2.7301 -0.7987
  985MOL0     H32970   5.389   8.575   8.145  0.2059  0.7491  3.0893
  985MOL0     H32971   5.604   8.642   7.967 -1.2187 -0.7901 -0.5239
  985MOL0     H32972   5.654   8.709   8.125 -1.5056 -1.0930  3.5843
  985MOL0     H32973   5.318   8.957   8.036 -1.7551 -0.7626 -1.6486
  985MOL0     H32974   5.618   8.435   7.717  2.2959  0.1120 -0.5416
  985MOL0     H32975   5.757   8.332   7.557 -3.5117  0.5550 -3.2049
  986MOL0     O32976   2.164   8.859   5.193  0.6129  1.0877  0.2249
  986MOL0     C32977   2.172   8.918   5.088  1.6709 -0.0265 -0.4966
  986MOL0     O32978   2.134   8.877   4.964 -0.2742  0.4221  0.3068
  986MOL0     C32979   2.100   8.740   4.946 -0.2418 -0.0483 -0.1636
  986MOL0     C32980   2.188   8.638   4.985 -0.2264 -0.4956  0.8219
  986MOL0     C32981   2.164   8.516   4.934  0.5505 -0.6343 -0.7234
  986MOL0     C32982   2.052   8.486   4.856 -0.2216 -0.2190 -0.5706
  986MOL0     O32983   2.024   8.361   4.834 -0.1040  0.4121 -0.0966
  986MOL0     C32984   1.885   8.323   4.845 -0.1254 -0.0836 -0.4850
  986MOL0     C32985   1.909   8.190   4.910  0.2117  0.0241 -0.1348
  986MOL0     C32986   1.930   8.192   5.065 -0.7624  0.5452 -0.5410
  986MOL0     C32987   1.942   8.041   5.105 -0.1293  0.1447  0.1859
  986MOL0     C32988   1.987   8.020   5.244 -0.3272  0.3966  0.4474
  986MOL0     C32989   1.937   7.894   5.314 -0.1788  0.2021 -0.1271
  986MOL0     C32990   2.008   7.898   5.455  0.4633 -0.0468 -0.2397
  986MOL0     C32991   1.962   7.769   5.541  1.0282 -0.3140  0.0816
  986MOL0     N32992   1.961   7.650   5.462  0.0489  0.3403  1.1212
  986MOL0     C32993   2.078   7.598   5.389  0.1658  0.1008 -0.2677
  986MOL0     C32994   2.028   7.515   5.290  0.1775 -1.0464  0.3525
  986MOL0     C32995   2.089   7.434   5.184 -0.2192  0.0276  0.5782
  986MOL0     C32996   2.060   7.494   5.048  0.2807  0.5711  0.8401
  986MOL0     C32997   1.932   7.460   4.970 -0.3339 -0.5390 -0.9188
  986MOL0     C32998   1.853   7.576   4.923 -1.5217  0.0453  1.1054
  986MOL0     O32999   1.731   7.553   4.848 -0.5604  0.4486 -0.8272
  986MOL0     C33000   1.632   7.512   4.931 -0.4713  0.4365  1.6786
  986MOL0     C33001   1.536   7.433   4.860 -0.0423  0.2670 -0.5898
  986MOL0     C33002   1.408   7.404   4.916 -0.3104  0.2223  0.7255
  986MOL0     C33003   1.326   7.318   4.830 -0.0127  0.9350  0.4138
  986MOL0     C33004   1.372   7.457   5.041  0.8328 -0.6667 -0.1715
  986MOL0     C33005   1.237   7.442   5.091  0.1970  0.2874 -0.4772
  986MOL0     O33006   1.223   7.437   5.224 -0.1604 -0.1263  0.3491
  986MOL0     C33007   1.090   7.427   5.270  0.3126  0.3510  0.0638
  986MOL0     C33008   1.012   7.534   5.307  0.2280  0.7287  0.1559
  986MOL0     C33009   0.876   7.518   5.349  0.2267 -1.3584 -0.0495
  986MOL0     C33010   0.819   7.394   5.352 -0.8363 -0.3049 -0.9471
  986MOL0     O33011   0.687   7.370   5.388  0.0932  0.1402 -0.3866
  986MOL0     C33012   0.583   7.467   5.371  0.7185  0.0336 -0.5072
  986MOL0     C33013   0.576   7.522   5.219 -0.9100 -0.1469 -0.9884
  986MOL0     C33014   0.455   7.616   5.197  0.2145  0.4931  0.5983
  986MOL0     C33015   0.457   7.676   5.050  0.4179  0.5019 -0.8406
  986MOL0     C33016   0.319   7.737   5.014 -0.5629  0.1476 -0.2599
  986MOL0     C33017   0.336   7.784   4.865  0.0543  0.2255 -0.4881
  986MOL0     C33018   0.220   7.841   4.802 -0.0414  0.1006  0.6888
  986MOL0     C33019   0.269   7.902   4.671 -0.0039  0.0563  0.4165
  986MOL0    Cl33020   0.132   7.937   4.558 -0.1758 -0.0203  0.1375
  986MOL0     C33021   0.895   7.281   5.332  0.1079 -0.7716 -0.0564
  986MOL0     C33022   1.029   7.297   5.293 -0.6155 -0.2843 -1.0001
  986MOL0     O33023   1.144   7.438   5.014  0.4853  0.0700 -1.1558
  986MOL0     C33024   1.478   7.508   5.129  0.5474  0.5589  0.4366
  986MOL0     C33025   1.602   7.534   5.066 -0.2238  0.2208 -0.1174
  986MOL0     N33026   1.887   7.506   5.298 -0.2973  0.7658  0.3853
  986MOL0     N33027   1.850   7.592   5.401 -0.6819 -0.5635 -0.5612
  986MOL0     C33028   1.955   8.585   4.829 -0.5728 -0.6001 -0.4014
  986MOL0     C33029   1.985   8.717   4.869 -0.5640 -1.3632 -0.0234
  986MOL0     C33030   2.215   9.066   5.088  0.2733 -0.3765  0.4519
  986MOL0     C33031   2.207   9.132   4.963  0.0721  0.5355  0.2441
  986MOL0     C33032   2.247   9.276   4.962  0.6314 -0.5771  0.0075
  986MOL0     C33033   2.302   9.330   5.074 -0.2520  0.2998  0.7139
  986MOL0     O33034   2.327   9.461   5.092  0.9182 -0.0324 -0.1012
  986MOL0     C33035   2.369   9.537   4.976  0.2560 -0.5020 -0.6445
  986MOL0     C33036   2.506   9.501   4.924 -0.1011  0.2622  0.0537
  986MOL0     C33037   2.623   9.516   5.022 -0.0683 -0.0247 -0.2344
  986MOL0     C33038   2.750   9.478   4.952 -0.6817  0.2943 -0.2113
  986MOL0     C33039   2.795   9.558   4.835 -0.0485  0.2928  0.0892
  986MOL0     C33040   2.831   9.624   4.749  1.1153  0.1274  0.0161
  986MOL0     C33041   2.329   9.253   5.189  0.2621 -0.1329  0.1127
  986MOL0     C33042   2.284   9.122   5.196 -0.4680  0.2595 -0.6985
  986MOL0     H33043   2.274   8.657   5.049  1.0568  3.0555 -1.6351
  986MOL0     H33044   2.233   8.442   4.972  0.3895  0.3616  1.6860
  986MOL0     H33045   1.829   8.372   4.926  0.0469 -1.1680  0.3225
  986MOL0     H33046   1.837   8.316   4.747 -0.8502 -1.3573 -0.0671
  986MOL0     H33047   1.817   8.136   4.884 -0.6149 -0.5370  3.4813
  986MOL0     H33048   1.986   8.133   4.857 -0.0507  0.6956 -1.2917
  986MOL0     H33049   2.014   8.257   5.091 -0.6168  0.9697 -2.0154
  986MOL0     H33050   1.838   8.226   5.114 -0.7472 -0.2794  0.0860
  986MOL0     H33051   1.842   7.997   5.100 -0.7401  1.0624  2.7057
  986MOL0     H33052   2.009   7.995   5.031 -0.4062  2.7535 -1.8276
  986MOL0     H33053   2.095   8.000   5.238 -0.7274 -1.6082 -0.9495
  986MOL0     H33054   1.958   8.111   5.296 -1.0369  0.0252  0.7180
  986MOL0     H33055   1.829   7.901   5.328 -0.1070  1.0949  0.0399
  986MOL0     H33056   1.963   7.801   5.262  1.5140  0.1387  0.7792
  986MOL0     H33057   2.116   7.893   5.438  0.6610 -0.8623  1.1032
  986MOL0     H33058   1.980   7.984   5.517 -3.8998 -1.5354  0.2295
  986MOL0     H33059   1.863   7.774   5.587  1.6682 -1.8929  1.7787
  986MOL0     H33060   2.037   7.771   5.621  1.7980  1.2328 -0.6376
  986MOL0     H33061   2.179   7.625   5.417  0.3952 -0.4984 -0.5235
  986MOL0     H33062   2.195   7.414   5.203  0.4351 -0.9547 -3.2420
  986MOL0     H33063   2.041   7.335   5.178 -0.8907  0.4258 -2.1186
  986MOL0     H33064   2.146   7.468   4.985 -0.6008  1.4044 -0.7666
  986MOL0     H33065   2.067   7.603   5.062  0.9501  0.5394  0.8056
  986MOL0     H33066   1.865   7.413   5.043 -0.4328 -0.3646 -0.8977
  986MOL0     H33067   1.964   7.396   4.887 -0.4793 -3.4073  1.1009
  986MOL0     H33068   1.928   7.630   4.863 -2.0823 -0.3298  0.0308
  986MOL0     H33069   1.845   7.651   5.002 -0.7497 -1.8542  3.0794
  986MOL0     H33070   1.553   7.383   4.765 -2.3520 -2.5714  0.3612
  986MOL0     H33071   1.278   7.246   4.897 -1.1546  0.9394 -0.3694
  986MOL0     H33072   1.250   7.381   4.783  0.6139  1.8630  0.6190
  986MOL0     H33073   1.386   7.259   4.760  1.2744 -0.3782  2.5282
  986MOL0     H33074   1.058   7.632   5.312  1.3547  0.5942 -3.9373
  986MOL0     H33075   0.825   7.609   5.379  1.4971  0.0247 -1.8295
  986MOL0     H33076   0.485   7.431   5.401  1.1436 -0.9899 -0.3059
  986MOL0     H33077   0.614   7.548   5.438  2.4700 -1.5957  0.7310
  986MOL0     H33078   0.671   7.570   5.196  0.0073  0.7827  3.6937
  986MOL0     H33079   0.563   7.430   5.160 -1.9634  0.7234 -2.1570
  986MOL0     H33080   0.457   7.701   5.267 -1.8762 -0.0298  1.3894
  986MOL0     H33081   0.367   7.551   5.208 -0.4162  1.3585  0.7893
  986MOL0     H33082   0.546   7.741   5.048  0.9643 -0.2481 -1.3684
  986MOL0     H33083   0.480   7.600   4.975  2.6646 -1.5519  1.7131
  986MOL0     H33084   0.292   7.815   5.086 -0.8598 -1.5708  1.5558
  986MOL0     H33085   0.246   7.657   5.028  0.5245 -0.6248  1.3567
  986MOL0     H33086   0.417   7.857   4.861  0.7653 -0.6000 -1.4840
  986MOL0     H33087   0.362   7.698   4.803  0.6503 -1.2294  1.6646
  986MOL0     H33088   0.177   7.916   4.869 -1.5464  0.4441 -0.6065
  986MOL0     H33089   0.150   7.760   4.778 -0.0543 -0.9620  3.8292
  986MOL0     H33090   0.345   7.834   4.630  0.3270 -1.0715  2.7352
  986MOL0     H33091   0.317   7.999   4.683  1.4763 -0.2938 -2.0662
  986MOL0     H33092   0.861   7.178   5.328  2.2761 -1.5215 -0.2763
  986MOL0     H33093   1.086   7.207   5.274  3.1435  1.7035 -0.1888
  986MOL0     H33094   1.469   7.541   5.232  0.7133  1.6456  0.1227
  986MOL0     H33095   1.674   7.589   5.125  2.6528 -1.5272 -1.7751
  986MOL0     H33096   1.872   8.570   4.760  0.1667  2.9983 -2.3208
  986MOL0     H33097   1.903   8.783   4.840 -1.2562 -3.1786 -2.5329
  986MOL0     H33098   2.177   9.090   4.868 -2.8784  1.5241  0.6324
  986MOL0     H33099   2.228   9.337   4.875 -0.3901  1.1356  1.3777
  986MOL0     H33100   2.294   9.533   4.896 -0.5723 -1.0393  0.1315
  986MOL0     H33101   2.380   9.639   5.015 -2.2730  0.0428 -1.1215
  986MOL0     H33102   2.521   9.544   4.825  0.0139 -1.0523 -0.5250
  986MOL0     H33103   2.517   9.393   4.911 -0.3720  0.0220  1.6716
  986MOL0     H33104   2.605   9.451   5.107 -1.5295 -0.1771 -0.6303
  986MOL0     H33105   2.616   9.623   5.047 -0.1272 -0.3272  1.0667
  986MOL0     H33106   2.738   9.375   4.917 -1.0284 -0.3321  1.6819
  986MOL0     H33107   2.824   9.479   5.031  3.4691 -0.2100 -3.7167
  986MOL0     H33108   2.850   9.690   4.667 -2.0227  1.8798  0.5508
  986MOL0     H33109   2.380   9.289   5.277 -1.5055  0.5001  0.9191
  986MOL0     H33110   2.304   9.076   5.292 -2.0591  1.7059  0.3889
  987MOL0     O33111   4.140   2.375   1.344  0.7879  0.6781 -0.0978
  987MOL0     C33112   4.144   2.497   1.367  0.5628 -0.7849 -0.1257
  987MOL0     O33113   4.156   2.601   1.275  0.0584 -0.6295 -0.4127
  987MOL0     C33114   4.178   2.570   1.141 -0.2787  0.0308  0.4876
  987MOL0     C33115   4.286   2.631   1.072 -0.0468  0.7125  0.4824
  987MOL0     C33116   4.275   2.644   0.930  0.3073  0.4314 -0.4078
  987MOL0     C33117   4.190   2.569   0.857 -0.2088  0.5034 -0.5866
  987MOL0     O33118   4.207   2.578   0.723 -0.1372  0.8720 -0.1323
  987MOL0     C33119   4.098   2.622   0.651  0.2874 -0.5772  0.2079
  987MOL0     C33120   4.149   2.655   0.515 -0.1633 -0.5072 -0.8008
  987MOL0     C33121   4.038   2.687   0.407  0.2545  0.0146 -0.4891
  987MOL0     C33122   3.932   2.788   0.443 -0.8418  0.2543 -0.8076
  987MOL0     C33123   3.846   2.817   0.320  0.0952  0.3164  0.9715
  987MOL0     C33124   3.717   2.896   0.343  0.2587 -0.6508  0.1576
  987MOL0     C33125   3.640   2.924   0.209 -0.0265 -0.2858  0.0793
  987MOL0     C33126   3.538   3.031   0.222 -0.6667 -0.1760 -0.4704
  987MOL0     N33127   3.474   3.062   0.095 -0.5769  0.1405  0.4696
  987MOL0     C33128   3.364   3.140   0.084  0.4098 -0.5921 -0.0916
  987MOL0     C33129   3.345   3.162  -0.051 -1.1268  0.0739  0.5259
  987MOL0     C33130   3.243   3.258  -0.103  0.1049  0.6890  0.7129
  987MOL0     C33131   3.102   3.187  -0.085 -0.6695  0.2804 -1.0774
  987MOL0     C33132   3.093   3.060  -0.171 -0.0743  0.3349 -0.0053
  987MOL0     C33133   3.115   3.078  -0.324 -0.1935  1.1776  0.8917
  987MOL0     O33134   3.027   3.167  -0.389 -0.5370  1.2405 -0.4813
  987MOL0     C33135   2.898   3.159  -0.362 -0.2597  0.2306  1.0086
  987MOL0     C33136   2.829   3.039  -0.340  0.1366  0.3163 -0.0308
  987MOL0     C33137   2.691   3.047  -0.320  0.0445 -0.1440  0.1688
  987MOL0     C33138   2.631   2.926  -0.262  0.3122 -0.3415 -0.7991
  987MOL0     C33139   2.623   3.171  -0.354  0.0002  0.0760 -0.0853
  987MOL0     C33140   2.475   3.183  -0.372 -0.4913  0.0411 -0.3990
  987MOL0     O33141   2.414   3.061  -0.364  0.1344 -0.0201  0.4378
  987MOL0     C33142   2.278   3.042  -0.363  0.0398 -0.5787 -0.1716
  987MOL0     C33143   2.187   3.111  -0.282  0.2261  0.0346 -0.4944
  987MOL0     C33144   2.048   3.084  -0.294 -0.7687  0.1748 -0.0060
  987MOL0     C33145   2.007   2.975  -0.370  0.6798 -0.6092  0.1765
  987MOL0     O33146   1.876   2.932  -0.376  0.2449 -0.2341  0.5936
  987MOL0     C33147   1.778   3.002  -0.309 -0.3639 -0.5092  0.3994
  987MOL0     C33148   1.641   2.925  -0.309 -0.0176 -0.1421  0.9354
  987MOL0     C33149   1.559   2.978  -0.188 -0.3020  0.4237 -1.0829
  987MOL0     C33150   1.480   3.106  -0.236  1.3455  0.6729  0.3979
  987MOL0     C33151   1.376   3.139  -0.131 -0.5173 -0.1026  0.0344
  987MOL0     C33152   1.350   3.283  -0.101 -0.0452  0.3513  0.7879
  987MOL0     C33153   1.213   3.310  -0.020 -0.0449 -0.2019 -0.0843
  987MOL0     C33154   1.105   3.372  -0.111 -0.2152  0.0300  0.6366
  987MOL0    Cl33155   0.963   3.400  -0.019  0.3081  0.0564 -0.0212
  987MOL0     C33156   2.101   2.892  -0.434  0.3447 -0.4325 -0.4803
  987MOL0     C33157   2.231   2.934  -0.429 -0.0461 -0.1048  0.5029
  987MOL0     O33158   2.424   3.292  -0.392  0.4381  0.4000  0.2690
  987MOL0     C33159   2.698   3.282  -0.385  0.4815 -1.0228  0.3289
  987MOL0     C33160   2.831   3.282  -0.385 -0.7811 -0.5119  0.5985
  987MOL0     N33161   3.445   3.096  -0.120 -0.2407 -0.2871  0.1226
  987MOL0     N33162   3.522   3.040  -0.035 -0.1600  0.5899  0.0417
  987MOL0     C33163   4.092   2.496   0.924 -0.4009 -1.1660 -0.1809
  987MOL0     C33164   4.083   2.500   1.061  0.3678 -0.5278 -0.0027
  987MOL0     C33165   4.119   2.541   1.508  0.5908  0.8218 -0.3816
  987MOL0     C33166   4.093   2.673   1.543 -0.2186 -0.3564 -0.0285
  987MOL0     C33167   4.062   2.716   1.669 -0.8714  1.0945 -1.3862
  987MOL0     C33168   4.040   2.621   1.768 -0.2025  0.2438 -0.0774
  987MOL0     O33169   4.010   2.665   1.899  0.1243  0.8596 -0.5925
  987MOL0     C33170   4.120   2.714   1.966  0.0345 -0.2954 -0.8912
  987MOL0     C33171   4.116   2.653   2.105 -0.0172  0.3968 -0.0752
  987MOL0     C33172   4.100   2.495   2.110  0.2821  0.4069  0.3151
  987MOL0     C33173   4.073   2.451   2.245 -1.1903 -0.2271 -0.5469
  987MOL0     C33174   4.094   2.314   2.283  1.2094  0.3286 -0.1651
  987MOL0     C33175   4.107   2.203   2.326 -0.3330  0.2297 -0.6153
  987MOL0     C33176   4.054   2.490   1.736 -0.3022 -0.3518 -0.7885
  987MOL0     C33177   4.101   2.445   1.612  0.5650 -0.1939 -1.3521
  987MOL0     H33178   4.356   2.685   1.135 -2.7261  0.9482  3.4925
  987MOL0     H33179   4.340   2.713   0.877 -1.0937  1.0416 -1.3945
  987MOL0     H33180   4.030   2.536   0.643  1.1545 -1.1407 -1.7767
  987MOL0     H33181   4.043   2.705   0.696  2.3238  0.4788  0.8464
  987MOL0     H33182   4.212   2.744   0.522 -3.7829  2.2543 -0.3534
  987MOL0     H33183   4.208   2.568   0.486 -1.8163 -1.8823 -0.1816
  987MOL0     H33184   4.092   2.717   0.317 -0.5380  0.0042 -0.9860
  987MOL0     H33185   3.982   2.595   0.390 -1.1281  0.1484  2.6149
  987MOL0     H33186   3.872   2.750   0.527 -0.3704 -2.1875 -1.4993
  987MOL0     H33187   3.983   2.879   0.477 -0.7355 -0.1492  0.1307
  987MOL0     H33188   3.905   2.867   0.243  1.6311 -1.0008  1.2457
  987MOL0     H33189   3.806   2.724   0.279 -3.4396  0.3950  3.7576
  987MOL0     H33190   3.652   2.836   0.408  0.9067  0.2914  1.7437
  987MOL0     H33191   3.738   2.983   0.406  1.0414 -1.0468  0.4582
  987MOL0     H33192   3.710   2.940   0.126  0.7958  0.0013  0.8046
  987MOL0     H33193   3.574   2.843   0.179 -3.2872  2.3896 -0.5310
  987MOL0     H33194   3.595   3.122   0.242 -2.3597  0.7839  0.1558
  987MOL0     H33195   3.473   3.006   0.306 -1.4414 -0.7999 -1.2366
  987MOL0     H33196   3.314   3.193   0.165 -1.6732  0.2135 -1.8207
  987MOL0     H33197   3.239   3.352  -0.046  0.8874  1.3294 -0.2554
  987MOL0     H33198   3.265   3.279  -0.208  0.1652  0.7049  0.7289
  987MOL0     H33199   3.036   3.263  -0.128  1.4893  0.6662 -4.1236
  987MOL0     H33200   3.086   3.161   0.019  2.3082  0.2977 -0.5284
  987MOL0     H33201   2.997   3.012  -0.147  1.0391 -1.7008  0.5353
  987MOL0     H33202   3.162   2.985  -0.134  0.3672  2.6973  4.6246
  987MOL0     H33203   3.135   2.984  -0.376 -1.1598  0.0040  2.5608
  987MOL0     H33204   3.212   3.128  -0.330 -1.0281  2.8072  0.2472
  987MOL0     H33205   2.877   2.942  -0.330 -1.8447 -0.4934  2.3569
  987MOL0     H33206   2.700   2.857  -0.213 -0.3201  0.6938  1.7062
  987MOL0     H33207   2.553   2.949  -0.188  0.0088  1.5360 -1.6596
  987MOL0     H33208   2.581   2.860  -0.333 -0.2006 -0.4025 -0.3862
  987MOL0     H33209   2.228   3.185  -0.214 -1.6391  2.9283 -2.3169
  987MOL0     H33210   1.965   3.134  -0.245 -2.8784 -1.5997 -1.5723
  987MOL0     H33211   1.812   3.012  -0.205 -0.9447  2.5950  0.3871
  987MOL0     H33212   1.780   3.103  -0.350  1.8896 -0.9720 -0.8143
  987MOL0     H33213   1.581   2.926  -0.401  1.5089 -3.6816 -0.2843
  987MOL0     H33214   1.660   2.817  -0.302  1.0483 -0.3426 -2.6391
  987MOL0     H33215   1.619   3.005  -0.100  1.5693  1.2637 -2.5445
  987MOL0     H33216   1.492   2.894  -0.166  1.3651 -0.2203  2.2785
  987MOL0     H33217   1.552   3.186  -0.253 -2.3850  4.1341 -0.5538
  987MOL0     H33218   1.426   3.076  -0.327 -1.1775 -0.0411  2.0453
  987MOL0     H33219   1.377   3.079  -0.039 -1.2830  2.3343  1.7458
  987MOL0     H33220   1.286   3.104  -0.183 -0.6841 -0.0793  0.3011
  987MOL0     H33221   1.432   3.309  -0.034 -0.7151  2.1072  0.9924
  987MOL0     H33222   1.354   3.338  -0.195 -0.4361 -1.8242 -0.5793
  987MOL0     H33223   1.237   3.381   0.059 -0.1483  1.1084 -1.1921
  987MOL0     H33224   1.173   3.225   0.037 -2.0147  0.0640 -0.9817
  987MOL0     H33225   1.091   3.313  -0.202 -1.5069  2.0197 -0.5388
  987MOL0     H33226   1.135   3.467  -0.155 -0.7768 -0.5236 -1.0660
  987MOL0     H33227   2.052   2.815  -0.494 -0.0032 -0.3905 -0.2566
  987MOL0     H33228   2.305   2.873  -0.481 -1.5210  0.4462 -2.3763
  987MOL0     H33229   2.637   3.367  -0.412 -0.5359 -0.5315  3.7783
  987MOL0     H33230   2.888   3.371  -0.411 -2.9139  0.8292  0.2318
  987MOL0     H33231   4.023   2.430   0.872  2.4015 -2.4402 -2.6354
  987MOL0     H33232   4.002   2.451   1.112  0.3257  0.1242  0.5795
  987MOL0     H33233   4.102   2.746   1.463  0.2687  1.8918  1.9626
  987MOL0     H33234   4.069   2.821   1.694 -0.2677  0.9340 -0.8299
  987MOL0     H33235   4.206   2.658   1.926 -1.0006 -2.8697  0.2793
  987MOL0     H33236   4.140   2.821   1.967  1.2452 -0.5036 -0.5791
  987MOL0     H33237   4.038   2.703   2.163  2.3664  1.6974  2.2562
  987MOL0     H33238   4.216   2.668   2.148  1.1204 -1.4785 -1.8617
  987MOL0     H33239   4.195   2.447   2.085  1.2079  2.1758  0.2760
  987MOL0     H33240   4.019   2.468   2.042  0.4131 -1.0511  0.6923
  987MOL0     H33241   3.972   2.481   2.272 -1.8830 -2.0821 -0.9427
  987MOL0     H33242   4.128   2.511   2.318 -1.1264  2.2752 -2.5031
  987MOL0     H33243   4.117   2.101   2.359 -3.9295 -1.3492 -3.6804
  987MOL0     H33244   4.031   2.421   1.816 -0.8258 -0.0264 -0.6476
  987MOL0     H33245   4.117   2.339   1.595  1.9483 -0.2328 -0.0821
  988MOL0     O33246   2.175  10.965  11.445  0.1853  0.2819  0.0419
  988MOL0     C33247   2.096  11.036  11.381  0.2511 -0.3096 -0.4275
  988MOL0     O33248   1.959  11.018  11.373  0.4970 -0.1948 -0.7257
  988MOL0     C33249   1.913  10.906  11.425 -0.2838 -0.6902  0.5447
  988MOL0     C33250   1.910  10.787  11.348  0.0830 -0.8145  0.3993
  988MOL0     C33251   1.861  10.666  11.402 -0.3832 -0.0682 -0.2098
  988MOL0     C33252   1.825  10.662  11.539 -1.3044 -0.3324 -0.3733
  988MOL0     O33253   1.792  10.547  11.609 -0.7391 -0.5427 -0.0049
  988MOL0     C33254   1.714  10.457  11.527  0.0731 -0.3095  0.5248
  988MOL0     C33255   1.627  10.378  11.617  0.0343 -0.2741  1.0381
  988MOL0     C33256   1.536  10.275  11.543  0.7547  1.6428  0.3978
  988MOL0     C33257   1.415  10.227  11.612  0.1028 -0.5726  0.1702
  988MOL0     C33258   1.306  10.143  11.535 -0.0203 -0.1234  0.1150
  988MOL0     C33259   1.243  10.225  11.425 -0.0661 -0.1488 -0.1961
  988MOL0     C33260   1.145  10.133  11.352  0.7350 -0.1226 -0.6718
  988MOL0     C33261   1.075  10.199  11.229  0.5209  0.1389 -0.7054
  988MOL0     N33262   0.965  10.117  11.182  0.6186  0.3855 -0.0632
  988MOL0     C33263   0.840  10.165  11.141 -0.3311  0.0398 -0.5889
  988MOL0     C33264   0.770  10.059  11.094 -0.2787 -0.1369  0.2861
  988MOL0     C33265   0.633  10.046  11.039 -0.1319 -0.1917 -0.4847
  988MOL0     C33266   0.557   9.989  11.153 -0.1352  1.5046 -0.5644
  988MOL0     C33267   0.415  10.047  11.154 -0.5829 -0.8357 -0.4794
  988MOL0     C33268   0.356  10.049  11.011  0.0434 -0.3556  0.3431
  988MOL0     O33269   0.222  10.102  11.024  0.7494  0.3287 -1.1900
  988MOL0     C33270   0.171  10.172  10.922 -0.7408  0.1550  0.1042
  988MOL0     C33271   0.200  10.149  10.789  0.1248  0.4966 -0.6195
  988MOL0     C33272   0.152  10.234  10.688 -0.6179  0.6615  0.1213
  988MOL0     C33273   0.181  10.189  10.548  0.4770 -1.1755  1.7136
  988MOL0     C33274   0.053  10.328  10.716  0.5516  0.1874  0.0027
  988MOL0     C33275  -0.015  10.405  10.617 -0.7031  0.1629  0.1777
  988MOL0     O33276   0.019  10.539  10.628  1.0061  0.7373  0.3574
  988MOL0     C33277  -0.044  10.625  10.538 -0.2575  0.3631 -0.2308
  988MOL0     C33278  -0.027  10.623  10.403  0.4550 -0.3828 -0.2549
  988MOL0     C33279  -0.092  10.709  10.314  0.2456 -0.6745  0.3916
  988MOL0     C33280  -0.185  10.807  10.371 -0.0452  0.6077 -0.1717
  988MOL0     O33281  -0.259  10.904  10.298  1.0545  0.3767 -0.0606
  988MOL0     C33282  -0.262  10.889  10.157 -0.3766  0.6499  0.0477
  988MOL0     C33283  -0.323  11.009  10.084 -0.1945 -0.5347  0.2043
  988MOL0     C33284  -0.473  11.016  10.085  0.5770 -0.5661  0.0389
  988MOL0     C33285  -0.519  11.146  10.020 -0.6667  0.0905 -0.1976
  988MOL0     C33286  -0.672  11.149  10.008 -0.3531  0.0089  0.4572
  988MOL0     C33287  -0.709  11.299  10.004 -0.0289 -0.4849 -0.3555
  988MOL0     C33288  -0.866  11.310  10.003  0.7767 -0.8082 -0.2178
  988MOL0     C33289  -0.923  11.217   9.888 -0.6409 -0.4038 -0.0945
  988MOL0    Cl33290  -0.848  11.270   9.724  0.3782  0.1223  0.2370
  988MOL0     C33291  -0.198  10.810  10.513  0.3555 -1.3235  0.5494
  988MOL0     C33292  -0.126  10.723  10.596 -0.4234  0.1648  0.1536
  988MOL0     O33293  -0.089  10.363  10.534  0.5099  0.8332  0.3895
  988MOL0     C33294   0.026  10.354  10.855  0.6005  0.7016  0.6194
  988MOL0     C33295   0.082  10.276  10.957 -0.3298  0.3829  0.3548
  988MOL0     N33296   0.848   9.944  11.110  0.4405  0.8602  0.5106
  988MOL0     N33297   0.968   9.983  11.149  0.2522  0.3997  0.4255
  988MOL0     C33298   1.839  10.781  11.618 -0.9802  0.4971 -0.0637
  988MOL0     C33299   1.873  10.905  11.554 -0.2515 -0.3494 -0.8244
  988MOL0     C33300   2.154  11.154  11.314  0.3813  0.5425  0.4998
  988MOL0     C33301   2.287  11.171  11.317 -0.6343 -0.4865 -0.3257
  988MOL0     C33302   2.354  11.278  11.259  1.0463 -0.6476  0.3241
  988MOL0     C33303   2.278  11.377  11.187  0.2989  0.6929  0.4818
  988MOL0     O33304   2.325  11.491  11.121  0.1632  0.7914  0.4328
  988MOL0     C33305   2.464  11.529  11.115  0.1572 -0.2239 -1.2185
  988MOL0     C33306   2.470  11.676  11.056 -0.0238 -0.2153 -0.0544
  988MOL0     C33307   2.620  11.726  11.063 -0.2974  0.2062 -0.2305
  988MOL0     C33308   2.654  11.770  10.924 -0.8368  0.4863  0.3695
  988MOL0     C33309   2.666  11.646  10.841 -0.1869  0.4482 -0.7403
  988MOL0     C33310   2.681  11.539  10.782 -0.0593 -0.1992  0.1242
  988MOL0     C33311   2.139  11.373  11.195  0.2429 -0.1147  0.2678
  988MOL0     C33312   2.082  11.251  11.253  0.0314 -0.7011 -0.0571
  988MOL0     H33313   1.932  10.780  11.242  0.7409 -0.2213  0.4870
  988MOL0     H33314   1.871  10.575  11.343 -1.7010 -1.1608  1.1780
  988MOL0     H33315   1.651  10.507  11.452 -2.5672 -0.7270  2.3212
  988MOL0     H33316   1.775  10.389  11.468  3.6907  3.3140 -0.3755
  988MOL0     H33317   1.679  10.321  11.694 -0.1653  2.8194  3.6937
  988MOL0     H33318   1.571  10.456  11.669 -0.2029 -0.2382  0.7339
  988MOL0     H33319   1.502  10.327  11.453  0.8993  0.3481 -0.4228
  988MOL0     H33320   1.602  10.192  11.516 -0.6906  0.1152  1.4154
  988MOL0     H33321   1.450  10.179  11.703 -2.6678  0.9734  2.1937
  988MOL0     H33322   1.366  10.319  11.645  1.7170 -0.3552  2.1759
  988MOL0     H33323   1.361  10.059  11.491 -0.9413 -2.6906  3.4141
  988MOL0     H33324   1.229  10.109  11.605 -0.7422 -1.9705 -1.4695
  988MOL0     H33325   1.189  10.310  11.468  0.3878  0.0295  0.0367
  988MOL0     H33326   1.322  10.256  11.356  0.1653  0.4449  0.3230
  988MOL0     H33327   1.195  10.039  11.324 -0.3797 -0.2752 -2.3376
  988MOL0     H33328   1.062  10.112  11.420  0.1387 -0.6891 -1.5464
  988MOL0     H33329   1.143  10.221  11.147  3.0088  3.0122  1.8911
  988MOL0     H33330   1.035  10.294  11.266 -2.3702 -1.0788 -0.4434
  988MOL0     H33331   0.786  10.258  11.153 -1.2650 -0.5984  0.3999
  988MOL0     H33332   0.617  10.153  11.024 -1.5425 -0.0616  1.5131
  988MOL0     H33333   0.628   9.990  10.945 -0.0590  0.5676 -0.9423
  988MOL0     H33334   0.596  10.022  11.250  2.7573 -1.8227 -0.3840
  988MOL0     H33335   0.552   9.881  11.135 -0.9393  1.3640  0.4041
  988MOL0     H33336   0.410  10.150  11.192  2.3173  0.2984 -2.7676
  988MOL0     H33337   0.342  10.004  11.223 -1.2587  2.1805  0.8480
  988MOL0     H33338   0.362   9.946  10.977  0.1805 -1.8382  4.3451
  988MOL0     H33339   0.407  10.117  10.943  1.3500 -0.1706  1.4676
  988MOL0     H33340   0.262  10.064  10.762  2.1774  0.8017  2.5347
  988MOL0     H33341   0.179  10.274  10.479 -0.7727 -3.1418 -0.9031
  988MOL0     H33342   0.271  10.127  10.539  0.6306 -0.6491 -2.0337
  988MOL0     H33343   0.093  10.132  10.515  1.5658 -1.5996 -0.7004
  988MOL0     H33344   0.051  10.556  10.367  1.9538  1.9934 -1.6436
  988MOL0     H33345  -0.073  10.710  10.207  0.0160 -0.9239  0.3490
  988MOL0     H33346  -0.161  10.877  10.115 -0.8417  0.8455 -1.1741
  988MOL0     H33347  -0.313  10.795  10.136 -0.3101  1.0908 -2.4836
  988MOL0     H33348  -0.288  11.101  10.132 -0.8767  0.1521 -0.5776
  988MOL0     H33349  -0.296  11.013   9.978  0.3134  2.8747  0.3611
  988MOL0     H33350  -0.502  11.018  10.190 -0.4050  1.0087 -0.2180
  988MOL0     H33351  -0.520  10.926  10.042 -3.6328  0.6999  1.4810
  988MOL0     H33352  -0.498  11.237  10.077  1.1364  0.1006 -0.8150
  988MOL0     H33353  -0.463  11.161   9.927 -0.3368 -5.2995 -1.1880
  988MOL0     H33354  -0.716  11.112  10.101 -0.3123 -1.1706  0.0243
  988MOL0     H33355  -0.709  11.090   9.924  0.6774 -0.4832  0.3274
  988MOL0     H33356  -0.648  11.352  10.078 -0.6437  0.1666 -0.3051
  988MOL0     H33357  -0.669  11.347   9.914  1.4795  0.0873  0.5807
  988MOL0     H33358  -0.889  11.410   9.966  0.5576 -0.6740  0.2731
  988MOL0     H33359  -0.911  11.285  10.099 -4.9463  3.6390 -1.2115
  988MOL0     H33360  -1.032  11.223   9.879 -0.7478 -0.9939  0.6608
  988MOL0     H33361  -0.901  11.112   9.909  2.3583  0.3896  1.3414
  988MOL0     H33362  -0.273  10.867  10.567  1.7600 -0.7212  1.9370
  988MOL0     H33363  -0.130  10.717  10.705  1.3564 -2.2362  0.1522
  988MOL0     H33364  -0.046  10.432  10.880  1.1827  0.8821  1.7945
  988MOL0     H33365   0.052  10.294  11.060 -1.3682  0.4191  0.0575
  988MOL0     H33366   1.824  10.791  11.725 -3.3247  1.8826 -0.4538
  988MOL0     H33367   1.884  10.994  11.616 -1.4828 -1.6462  1.3929
  988MOL0     H33368   2.349  11.088  11.352  0.7000  0.4008 -0.5116
  988MOL0     H33369   2.462  11.287  11.249  0.7861  0.7614 -1.7820
  988MOL0     H33370   2.505  11.532  11.216 -1.2100 -1.3854 -0.5902
  988MOL0     H33371   2.523  11.458  11.056  1.7883 -1.6848  1.9499
  988MOL0     H33372   2.411  11.745  11.116 -0.7540  0.5841 -1.6306
  988MOL0     H33373   2.436  11.677  10.952  1.0150 -0.2278 -0.4038
  988MOL0     H33374   2.683  11.642  11.095 -2.0095 -2.4880 -3.2741
  988MOL0     H33375   2.628  11.807  11.136  1.6422 -0.6172  0.5470
  988MOL0     H33376   2.755  11.812  10.930 -0.6878  0.0286  1.3073
  988MOL0     H33377   2.581  11.844  10.893 -1.1543 -0.2096 -0.6134
  988MOL0     H33378   2.701  11.442  10.741 -1.6916 -0.3673 -0.3629
  988MOL0     H33379   2.072  11.440  11.142  0.2991 -1.7181 -1.9735
  988MOL0     H33380   1.979  11.220  11.240  0.2287 -0.8921 -1.3321
  989MOL0     O33381   5.575   4.238   0.217  0.3832  0.7547  0.4119
  989MOL0     C33382   5.567   4.209   0.340 -0.2407 -0.1302  0.3610
  989MOL0     O33383   5.617   4.101   0.402  0.7447 -0.4503  0.8280
  989MOL0     C33384   5.706   4.018   0.326 -0.5386 -1.5818 -0.1513
  989MOL0     C33385   5.639   3.904   0.278 -0.5319 -1.3972  0.9256
  989MOL0     C33386   5.719   3.810   0.202  0.5301  0.1830  0.5357
  989MOL0     C33387   5.847   3.839   0.179 -0.2295  1.1008 -0.2578
  989MOL0     O33388   5.907   3.743   0.108  0.0389 -0.4452  0.3378
  989MOL0     C33389   6.055   3.754   0.081 -0.1246  0.1841 -1.1701
  989MOL0     C33390   6.091   3.857  -0.031  0.7792  0.2860  0.5399
  989MOL0     C33391   6.239   3.907  -0.028 -0.4156  0.2542 -0.7618
  989MOL0     C33392   6.270   4.007  -0.136 -0.3459  0.1588  0.2280
  989MOL0     C33393   6.411   3.988  -0.199  0.3133  0.1024 -0.4115
  989MOL0     C33394   6.500   4.062  -0.109  0.1598  0.2243  0.3606
  989MOL0     C33395   6.648   4.065  -0.168  0.1801  0.0380  0.3111
  989MOL0     C33396   6.742   3.946  -0.124  0.1464  0.3239 -0.3292
  989MOL0     N33397   6.874   3.964  -0.169 -0.0939 -0.1014 -0.3379
  989MOL0     C33398   6.937   4.072  -0.231  1.5082  0.4060 -0.3728
  989MOL0     C33399   7.059   4.041  -0.264 -1.0334  0.1107  0.4221
  989MOL0     C33400   7.144   4.128  -0.350  0.3318  0.6211 -0.4916
  989MOL0     C33401   7.070   4.139  -0.484  0.5441  0.1837 -0.2989
  989MOL0     C33402   7.157   4.229  -0.573  0.4535 -0.3716  0.2433
  989MOL0     C33403   7.079   4.359  -0.607 -0.0844  0.3752  0.4314
  989MOL0     O33404   7.050   4.453  -0.495 -0.0750  0.9714 -0.4954
  989MOL0     C33405   7.152   4.530  -0.437 -0.3061 -0.6110 -0.2850
  989MOL0     C33406   7.280   4.558  -0.496  1.2609  0.6248  0.4548
  989MOL0     C33407   7.365   4.651  -0.442 -0.0765 -0.1487 -0.9825
  989MOL0     C33408   7.488   4.685  -0.522 -0.2507  0.6192 -0.7993
  989MOL0     C33409   7.334   4.696  -0.308 -0.5910  0.0506 -0.0230
  989MOL0     C33410   7.426   4.782  -0.231  0.1046 -0.6717 -0.1012
  989MOL0     O33411   7.492   4.881  -0.302 -0.3390  0.0432 -0.7078
  989MOL0     C33412   7.588   4.963  -0.245 -0.2240  0.1605  0.1751
  989MOL0     C33413   7.686   4.912  -0.155 -0.6288 -0.2461  0.2521
  989MOL0     C33414   7.776   4.994  -0.091  0.1799 -0.8322 -0.0403
  989MOL0     C33415   7.767   5.136  -0.120  0.3834 -0.3583 -0.6240
  989MOL0     O33416   7.849   5.224  -0.052  0.4268  1.1250 -1.2375
  989MOL0     C33417   7.969   5.245  -0.116 -0.5525 -0.5691  0.6052
  989MOL0     C33418   7.955   5.372  -0.198  0.3829  0.1446  0.3312
  989MOL0     C33419   8.076   5.461  -0.171  0.4491  0.2581 -0.0066
  989MOL0     C33420   8.090   5.590  -0.256  0.3105 -0.3522 -0.1055
  989MOL0     C33421   8.233   5.641  -0.266 -0.2388  0.2643 -0.0778
  989MOL0     C33422   8.298   5.650  -0.129  0.0092 -0.6781 -0.0009
  989MOL0     C33423   8.446   5.702  -0.152 -0.0333  0.0140 -0.1977
  989MOL0     C33424   8.506   5.764  -0.020  0.2273 -0.6405 -0.1968
  989MOL0    Cl33425   8.688   5.779  -0.030 -0.0416  0.5114 -0.2102
  989MOL0     C33426   7.680   5.180  -0.217 -0.8621  0.2184 -1.5568
  989MOL0     C33427   7.596   5.099  -0.285  0.2906  0.2164  0.2358
  989MOL0     O33428   7.436   4.759  -0.113 -0.9325  0.3334  0.3006
  989MOL0     C33429   7.209   4.662  -0.258 -0.0390 -0.9141 -0.9413
  989MOL0     C33430   7.116   4.583  -0.315 -0.3307 -0.3685 -1.0980
  989MOL0     N33431   7.085   3.912  -0.203  1.0509 -0.1312  0.3841
  989MOL0     N33432   6.975   3.863  -0.147  0.4854  0.0013  0.5678
  989MOL0     C33433   5.918   3.938   0.248 -0.8174 -0.4476 -0.5914
  989MOL0     C33434   5.851   4.029   0.326  0.1842  0.3897 -0.7842
  989MOL0     C33435   5.501   4.313   0.428  0.0688  0.3051 -0.0116
  989MOL0     C33436   5.495   4.297   0.571 -1.4369  0.1883  0.4581
  989MOL0     C33437   5.442   4.392   0.661  0.2603 -0.1530  0.3586
  989MOL0     C33438   5.375   4.503   0.617  0.3210 -0.1032  0.1419
  989MOL0     O33439   5.317   4.604   0.698  1.1563 -0.4758  0.3525
  989MOL0     C33440   5.355   4.611   0.835  0.3351  0.8801 -0.1935
  989MOL0     C33441   5.310   4.740   0.904 -0.9743  0.8252  0.3909
  989MOL0     C33442   5.346   4.738   1.054  0.0359  0.8671 -0.9225
  989MOL0     C33443   5.265   4.646   1.146 -0.4920  0.0599 -0.3959
  989MOL0     C33444   5.127   4.694   1.152  0.7637 -1.2399  0.2401
  989MOL0     C33445   5.014   4.738   1.161 -0.1232 -0.3170 -0.1954
  989MOL0     C33446   5.377   4.530   0.483 -0.1069 -0.1523  0.8833
  989MOL0     C33447   5.441   4.439   0.389  0.7016  0.0978 -0.9603
  989MOL0     H33448   5.531   3.899   0.275 -0.5205 -4.2939  1.5912
  989MOL0     H33449   5.658   3.725   0.173  0.1611  1.2292 -1.9924
  989MOL0     H33450   6.113   3.767   0.172 -0.9075 -1.8767 -0.2993
  989MOL0     H33451   6.082   3.651   0.055 -2.8237 -2.1146  3.7013
  989MOL0     H33452   6.086   3.797  -0.122 -0.1353  1.6703 -0.3678
  989MOL0     H33453   6.022   3.940  -0.047 -0.6705 -1.0532 -0.3906
  989MOL0     H33454   6.260   3.954   0.068  0.9603 -1.4648 -0.1749
  989MOL0     H33455   6.304   3.819  -0.038 -4.4074 -3.0809 -0.3975
  989MOL0     H33456   6.204   3.997  -0.223  1.3775 -0.9601 -1.0355
  989MOL0     H33457   6.257   4.101  -0.083  1.9502  1.9518 -2.0764
  989MOL0     H33458   6.446   3.885  -0.209  4.0938  1.2990 -1.0373
  989MOL0     H33459   6.425   4.034  -0.297 -1.8971  0.3896 -0.6487
  989MOL0     H33460   6.466   4.165  -0.101  0.3229  0.3231 -0.1971
  989MOL0     H33461   6.492   4.025  -0.006  1.0419  2.4565  1.2886
  989MOL0     H33462   6.650   4.063  -0.277 -1.7408  1.2275  0.2233
  989MOL0     H33463   6.680   4.162  -0.131 -4.7107  2.2013 -0.3834
  989MOL0     H33464   6.703   3.851  -0.160  0.2394 -0.2404  1.0235
  989MOL0     H33465   6.759   3.939  -0.016  0.0663  0.4761 -0.3048
  989MOL0     H33466   6.887   4.164  -0.260  1.2563 -0.1107 -1.6904
  989MOL0     H33467   7.153   4.227  -0.304 -0.7153  1.1405 -1.3409
  989MOL0     H33468   7.242   4.080  -0.357  0.7765  0.4521  4.0447
  989MOL0     H33469   6.968   4.178  -0.479  0.3015  0.2353 -3.4111
  989MOL0     H33470   7.071   4.047  -0.543 -1.0597 -1.0325  1.4720
  989MOL0     H33471   7.182   4.184  -0.670  0.4718  1.4187 -0.6377
  989MOL0     H33472   7.253   4.260  -0.532 -0.2353  2.3772 -0.0329
  989MOL0     H33473   6.982   4.333  -0.649 -0.1206  1.2911 -0.0839
  989MOL0     H33474   7.129   4.421  -0.682  1.9794 -1.9733 -0.2817
  989MOL0     H33475   7.300   4.515  -0.593  3.4139 -4.0757  2.6646
  989MOL0     H33476   7.580   4.640  -0.485  0.1647  1.3041 -0.9633
  989MOL0     H33477   7.478   4.635  -0.619  0.7051 -0.2372 -0.4693
  989MOL0     H33478   7.506   4.793  -0.532 -2.2807  1.0087 -0.5191
  989MOL0     H33479   7.691   4.803  -0.156  1.6668 -0.3129 -3.6392
  989MOL0     H33480   7.853   4.961  -0.022  0.1876 -0.3033  0.2108
  989MOL0     H33481   8.052   5.257  -0.046 -0.0820 -0.6842  0.0801
  989MOL0     H33482   7.992   5.166  -0.188 -3.3889  0.8589 -2.1128
  989MOL0     H33483   7.929   5.348  -0.301 -1.8174  0.1848  0.8239
  989MOL0     H33484   7.864   5.426  -0.170  0.1033  0.7875 -1.6846
  989MOL0     H33485   8.163   5.405  -0.208  1.7556  0.9655  1.8468
  989MOL0     H33486   8.092   5.490  -0.067  0.5753 -3.3811  1.1404
  989MOL0     H33487   8.078   5.570  -0.363  0.2838  1.3740 -0.4483
  989MOL0     H33488   8.022   5.667  -0.220  2.1381  1.0109  0.5772
  989MOL0     H33489   8.227   5.732  -0.327 -2.7992 -0.3659 -0.8912
  989MOL0     H33490   8.292   5.565  -0.318  1.4863 -0.9638  3.3404
  989MOL0     H33491   8.243   5.731  -0.081 -1.6726 -0.4130 -2.2182
  989MOL0     H33492   8.307   5.557  -0.073  1.5467  0.5658  1.9821
  989MOL0     H33493   8.439   5.769  -0.238  3.5145 -0.4715 -1.0122
  989MOL0     H33494   8.509   5.623  -0.193 -0.3950 -1.4166  1.8753
  989MOL0     H33495   8.478   5.696   0.061  2.3328 -1.6515 -0.2389
  989MOL0     H33496   8.459   5.862  -0.005  3.1639  0.8607 -0.0338
  989MOL0     H33497   7.675   5.282  -0.254  0.6480  0.4264 -1.2851
  989MOL0     H33498   7.529   5.142  -0.358  0.4667  2.6010  1.3709
  989MOL0     H33499   7.180   4.697  -0.160 -2.5225 -0.7672 -1.6679
  989MOL0     H33500   7.019   4.559  -0.272 -0.6986  2.2104 -0.3157
  989MOL0     H33501   6.023   3.957   0.227 -0.2991 -1.5216  0.9082
  989MOL0     H33502   5.905   4.107   0.378  1.3206 -0.7891 -0.1494
  989MOL0     H33503   5.532   4.212   0.626 -2.5936 -0.0889  0.8484
  989MOL0     H33504   5.440   4.375   0.768 -1.1088 -3.0709 -0.0490
  989MOL0     H33505   5.318   4.527   0.895  0.4002 -2.1889 -4.0856
  989MOL0     H33506   5.465   4.609   0.839  0.6280  2.5563 -3.9954
  989MOL0     H33507   5.203   4.762   0.900 -0.9299  1.6122  2.2042
  989MOL0     H33508   5.359   4.821   0.849 -1.0286 -0.4986 -1.7221
  989MOL0     H33509   5.337   4.840   1.094  0.8266  1.0037 -1.0798
  989MOL0     H33510   5.453   4.718   1.058  0.3092  2.1330 -1.2354
  989MOL0     H33511   5.308   4.657   1.246 -0.9355 -0.5727 -0.1277
  989MOL0     H33512   5.264   4.538   1.129 -3.1147 -0.0570  0.1200
  989MOL0     H33513   4.920   4.788   1.169  0.4947  0.7450  0.7033
  989MOL0     H33514   5.341   4.625   0.445 -0.7665  0.1590  2.2361
  989MOL0     H33515   5.423   4.474   0.287  0.7383 -0.5045 -1.1758
  990MOL0     O33516   9.537   1.158   5.658 -0.1213 -0.1857  0.5716
  990MOL0     C33517   9.648   1.106   5.654  1.1450  0.2914  0.1744
  990MOL0     O33518   9.764   1.158   5.691 -0.0294 -0.2009  0.2291
  990MOL0     C33519   9.789   1.284   5.743 -0.8263 -0.1865 -0.0843
  990MOL0     C33520   9.700   1.369   5.813 -0.3870  0.0945  0.8173
  990MOL0     C33521   9.749   1.479   5.886 -0.5568 -0.1406  0.4932
  990MOL0     C33522   9.883   1.508   5.880  0.4084  0.1724 -0.8289
  990MOL0     O33523   9.922   1.629   5.941 -0.3379  0.3513 -0.0900
  990MOL0     C33524  10.047   1.698   5.909 -0.0026 -0.3717 -0.1102
  990MOL0     C33525  10.171   1.635   5.982  0.0442 -0.1353 -0.4066
  990MOL0     C33526  10.153   1.530   6.093 -0.0984  0.1284  0.9144
  990MOL0     C33527  10.291   1.495   6.148  0.7972  0.2725  0.0350
  990MOL0     C33528  10.326   1.575   6.276 -0.1062  0.5920  0.0208
  990MOL0     C33529  10.452   1.556   6.356  0.3076 -0.9617 -0.5289
  990MOL0     C33530  10.450   1.654   6.477 -0.2228 -0.7027 -0.0372
  990MOL0     C33531  10.595   1.661   6.537  0.6591 -0.0596  0.3101
  990MOL0     N33532  10.678   1.765   6.479  0.5771 -1.1897 -0.2025
  990MOL0     C33533  10.641   1.873   6.394  0.2819 -0.4162 -0.2960
  990MOL0     C33534  10.763   1.930   6.372  0.2417  0.1295 -0.5310
  990MOL0     C33535  10.769   2.051   6.286  0.0807  0.2377 -0.4014
  990MOL0     C33536  10.679   2.176   6.315 -0.4910  0.3213  0.1078
  990MOL0     C33537  10.725   2.248   6.443 -0.1125 -0.2020 -0.8160
  990MOL0     C33538  10.609   2.300   6.534  0.3136 -0.5349  0.3333
  990MOL0     O33539  10.532   2.394   6.460  1.2826  0.1819  0.0723
  990MOL0     C33540  10.579   2.524   6.439  0.1733  0.0023 -0.4342
  990MOL0     C33541  10.555   2.613   6.542  0.0712 -0.2631 -0.3530
  990MOL0     C33542  10.607   2.738   6.549 -0.4141  0.4703 -0.5504
  990MOL0     C33543  10.601   2.817   6.677 -0.6582 -0.1507 -0.4119
  990MOL0     C33544  10.699   2.779   6.442  0.9395  1.2689 -0.4579
  990MOL0     C33545  10.781   2.899   6.430  0.6849 -0.4750  0.4576
  990MOL0     O33546  10.894   2.885   6.352 -0.5596  0.2815  0.2143
  990MOL0     C33547  11.005   2.952   6.401  0.0773 -0.3430  0.7508
  990MOL0     C33548  11.057   2.913   6.516  0.1342  0.1667 -0.2321
  990MOL0     C33549  11.171   2.973   6.565 -0.1062  0.0753  0.4713
  990MOL0     C33550  11.239   3.076   6.493 -0.2441 -0.6362 -0.0459
  990MOL0     O33551  11.363   3.140   6.523 -0.6356  0.3363  0.6600
  990MOL0     C33552  11.455   3.083   6.616 -0.7882 -0.3300 -0.7982
  990MOL0     C33553  11.538   3.177   6.707 -0.1242  0.3853  0.0138
  990MOL0     C33554  11.597   3.296   6.637  1.0955 -0.0847 -0.4331
  990MOL0     C33555  11.529   3.432   6.672  0.5515 -0.4934 -0.2298
  990MOL0     C33556  11.528   3.545   6.567 -0.6265 -0.7435  0.1995
  990MOL0     C33557  11.472   3.676   6.628 -0.0479 -0.4012  0.0973
  990MOL0     C33558  11.514   3.798   6.543  0.9158  0.3273  0.5142
  990MOL0     C33559  11.497   3.931   6.607  0.4468 -0.0151 -0.3136
  990MOL0    Cl33560  11.596   4.065   6.515  0.4243  0.6339  0.1756
  990MOL0     C33561  11.191   3.116   6.371 -0.1463  0.6609 -0.0233
  990MOL0     C33562  11.068   3.053   6.324  0.1446 -0.4347 -0.0387
  990MOL0     O33563  10.740   2.999   6.475  0.3273 -0.7815  0.2471
  990MOL0     C33564  10.704   2.685   6.330  0.3658 -0.3747 -0.0460
  990MOL0     C33565  10.645   2.561   6.324 -0.4521 -0.9127  0.0440
  990MOL0     N33566  10.866   1.866   6.445  0.1225 -0.0155  0.3478
  990MOL0     N33567  10.805   1.777   6.513  0.8952  0.1293 -0.0843
  990MOL0     C33568   9.969   1.428   5.806  0.1091  0.7898  1.1443
  990MOL0     C33569   9.923   1.318   5.731  0.7554 -0.4747  0.1623
  990MOL0     C33570   9.648   0.978   5.596  0.5283  0.9807 -0.3009
  990MOL0     C33571   9.763   0.913   5.572 -0.0611  0.4400 -0.9805
  990MOL0     C33572   9.765   0.779   5.516 -0.3923  0.1784 -0.3992
  990MOL0     C33573   9.651   0.711   5.486  0.2494  0.4344 -0.1327
  990MOL0     O33574   9.644   0.581   5.445 -0.0874  0.9413 -0.6003
  990MOL0     C33575   9.764   0.502   5.472  0.0445  0.3623 -0.0367
  990MOL0     C33576   9.748   0.356   5.418  0.5071  0.4649 -0.2298
  990MOL0     C33577   9.622   0.290   5.471 -0.3610 -0.6246 -1.0429
  990MOL0     C33578   9.644   0.141   5.489 -0.1865  0.4047  0.2918
  990MOL0     C33579   9.716   0.078   5.603  0.3633  1.0366 -0.2605
  990MOL0     C33580   9.765   0.015   5.696  0.1911  0.1737 -1.2659
  990MOL0     C33581   9.535   0.784   5.509 -0.0843  0.9059  0.8321
  990MOL0     C33582   9.527   0.909   5.562  0.6193 -0.1638 -0.4598
  990MOL0     H33583   9.607   1.317   5.833 -0.1895 -0.4449  0.3597
  990MOL0     H33584   9.694   1.547   5.950  1.3356  1.2811  0.6859
  990MOL0     H33585  10.068   1.731   5.807  2.8674  1.3820  0.9378
  990MOL0     H33586  10.034   1.793   5.960  2.4949  0.9099 -1.6704
  990MOL0     H33587  10.228   1.588   5.901 -1.9210 -2.9389 -0.3016
  990MOL0     H33588  10.226   1.720   6.024  0.2038  0.6810 -2.1779
  990MOL0     H33589  10.079   1.560   6.167 -0.2162  1.8945  0.1351
  990MOL0     H33590  10.113   1.443   6.041 -1.8467  0.9257  0.8509
  990MOL0     H33591  10.296   1.388   6.172 -1.5183  0.0319 -0.3591
  990MOL0     H33592  10.367   1.516   6.073  1.4835 -4.2150 -0.8029
  990MOL0     H33593  10.313   1.680   6.248 -2.0341  0.7654  1.3679
  990MOL0     H33594  10.240   1.569   6.343  0.9897  0.9681  1.4990
  990MOL0     H33595  10.464   1.453   6.391  0.7521 -0.7244  0.0302
  990MOL0     H33596  10.545   1.568   6.300  1.7061 -0.9795  1.6858
  990MOL0     H33597  10.407   1.754   6.467  0.4892 -0.2562  1.0928
  990MOL0     H33598  10.402   1.604   6.562  1.3770 -3.1603 -0.4871
  990MOL0     H33599  10.645   1.568   6.511 -1.8466 -1.2881 -0.4609
  990MOL0     H33600  10.589   1.672   6.645  0.4890 -0.2174  0.3172
  990MOL0     H33601  10.546   1.905   6.353 -1.2938 -5.6337 -1.4448
  990MOL0     H33602  10.877   2.073   6.289  0.3563 -0.9824 -1.0203
  990MOL0     H33603  10.746   2.024   6.183 -0.4019  3.0335 -1.1031
  990MOL0     H33604  10.572   2.151   6.319 -0.3273 -0.2598  1.8119
  990MOL0     H33605  10.680   2.244   6.230 -5.1240 -0.0465 -0.4929
  990MOL0     H33606  10.794   2.331   6.420  2.5319 -1.9978  0.2041
  990MOL0     H33607  10.785   2.174   6.496 -2.7116 -0.8859  1.4045
  990MOL0     H33608  10.647   2.344   6.626  2.3704  0.8308 -1.0788
  990MOL0     H33609  10.551   2.210   6.557 -2.0557  0.1539 -2.3778
  990MOL0     H33610  10.500   2.571   6.626  0.3116 -0.1855 -0.1548
  990MOL0     H33611  10.501   2.850   6.706 -1.6803 -1.2442 -2.4654
  990MOL0     H33612  10.653   2.757   6.752  0.3811 -0.4113 -1.3145
  990MOL0     H33613  10.663   2.907   6.673 -0.6530 -0.1492 -0.3132
  990MOL0     H33614  11.014   2.828   6.567 -0.0482  0.0570 -0.5656
  990MOL0     H33615  11.209   2.932   6.658  3.6721 -0.3259 -1.0724
  990MOL0     H33616  11.404   3.013   6.683 -2.5597 -0.6119 -2.3626
  990MOL0     H33617  11.539   3.034   6.565  1.0972  1.2186  0.6640
  990MOL0     H33618  11.470   3.216   6.783 -1.6483  1.4717 -1.8239
  990MOL0     H33619  11.614   3.121   6.763 -0.2388  0.8942  0.6839
  990MOL0     H33620  11.584   3.285   6.528  1.7372  1.0915 -0.6499
  990MOL0     H33621  11.701   3.307   6.667  1.0287 -1.0371  0.1809
  990MOL0     H33622  11.423   3.414   6.691  0.0736  2.2839  0.2333
  990MOL0     H33623  11.558   3.472   6.770 -3.1386  3.2082 -0.3489
  990MOL0     H33624  11.478   3.513   6.475  1.8029  0.4792 -1.6703
  990MOL0     H33625  11.635   3.562   6.550 -0.4427 -1.9725  0.0170
  990MOL0     H33626  11.363   3.666   6.631 -0.0778  0.2519  1.6638
  990MOL0     H33627  11.503   3.694   6.731  0.4962 -0.7639  0.0013
  990MOL0     H33628  11.455   3.790   6.451 -0.2671  0.9367  1.1867
  990MOL0     H33629  11.619   3.773   6.525  1.2955  0.9962  1.7080
  990MOL0     H33630  11.545   3.919   6.705 -1.9037 -4.4131  0.5422
  990MOL0     H33631  11.391   3.957   6.610  0.3215 -0.3996 -1.1478
  990MOL0     H33632  11.249   3.188   6.314 -2.0104  0.7227 -1.9894
  990MOL0     H33633  11.031   3.080   6.226  2.8926 -2.2502 -1.7135
  990MOL0     H33634  10.754   2.709   6.237  3.0054  2.2014  1.8619
  990MOL0     H33635  10.657   2.500   6.235 -1.9922  1.1100 -1.6470
  990MOL0     H33636  10.077   1.440   5.800  0.2931 -0.4691  1.5654
  990MOL0     H33637   9.985   1.256   5.668 -0.8284 -2.2307  0.2528
  990MOL0     H33638   9.855   0.960   5.606 -0.6798 -0.1521  1.7568
  990MOL0     H33639   9.859   0.725   5.528 -1.0116 -0.8576 -0.0825
  990MOL0     H33640   9.853   0.543   5.424  1.3562 -0.4104  1.6325
  990MOL0     H33641   9.785   0.512   5.579 -2.8947  0.9564  0.5796
  990MOL0     H33642   9.843   0.310   5.449  1.1602  0.3748 -2.2107
  990MOL0     H33643   9.742   0.352   5.309  0.0945 -1.2229 -0.1666
  990MOL0     H33644   9.549   0.312   5.393  0.7004  0.8087 -1.6943
  990MOL0     H33645   9.577   0.344   5.555  0.1192  0.1378 -1.2566
  990MOL0     H33646   9.697   0.101   5.402 -1.8513 -0.6101 -0.2984
  990MOL0     H33647   9.543   0.100   5.489 -1.0618  2.3792  1.5968
  990MOL0     H33648   9.818  -0.017   5.783  0.6709  0.6311 -1.3846
  990MOL0     H33649   9.437   0.745   5.484  0.9009 -0.3087 -1.3762
  990MOL0     H33650   9.432   0.957   5.581  0.5294  0.0602 -1.4466
  991MOL0     O33651   2.334  11.505   5.812 -0.8981 -0.4207 -0.1596
  991MOL0     C33652   2.381  11.453   5.910  0.1716  0.1090 -0.1497
  991MOL0     O33653   2.495  11.485   5.971 -0.2730 -0.4459  1.1418
  991MOL0     C33654   2.556  11.602   5.935  0.1102 -0.4784 -0.1477
  991MOL0     C33655   2.637  11.611   5.822 -0.2949 -0.4500  0.4308
  991MOL0     C33656   2.716  11.718   5.793  0.5229 -0.9107  0.2852
  991MOL0     C33657   2.714  11.831   5.879 -1.2847  0.7104 -0.4725
  991MOL0     O33658   2.772  11.958   5.863 -0.7188 -0.1167 -0.1595
  991MOL0     C33659   2.852  11.987   5.747  0.4431 -0.2007  1.1293
  991MOL0     C33660   2.914  12.127   5.768  0.6055 -0.0750  0.1784
  991MOL0     C33661   3.027  12.151   5.663 -0.2203  0.6043  0.7439
  991MOL0     C33662   3.080  12.292   5.637  0.4371  0.4572 -0.6117
  991MOL0     C33663   3.127  12.324   5.495 -0.3200 -0.0055 -0.4087
  991MOL0     C33664   3.170  12.479   5.476 -0.4675  0.9538 -0.9570
  991MOL0     C33665   3.044  12.563   5.478  0.1002 -0.1006  0.5131
  991MOL0     C33666   3.079  12.715   5.451 -0.2026 -0.0666 -0.1880
  991MOL0     N33667   2.967  12.794   5.406  0.8434 -0.8202  0.2719
  991MOL0     C33668   2.890  12.767   5.293  0.5012 -0.7684 -0.6729
  991MOL0     C33669   2.799  12.868   5.296  0.1489  0.0432 -0.0749
  991MOL0     C33670   2.692  12.886   5.191 -0.2092 -0.2175 -0.7810
  991MOL0     C33671   2.751  12.940   5.054  0.5052  0.6130 -0.9092
  991MOL0     C33672   2.671  13.062   5.019  0.0516 -0.7034  0.3237
  991MOL0     C33673   2.716  13.141   4.886  0.9192  0.6368 -0.0537
  991MOL0     O33674   2.811  13.247   4.920  0.4753  0.5862 -0.9543
  991MOL0     C33675   2.840  13.342   4.818 -0.7793  0.3376 -0.3354
  991MOL0     C33676   2.887  13.469   4.861  0.0440  0.9182  0.5095
  991MOL0     C33677   2.928  13.563   4.765 -1.1320 -0.6366  0.4157
  991MOL0     C33678   3.001  13.696   4.816  0.3466  0.3271 -0.7283
  991MOL0     C33679   2.898  13.540   4.631 -0.1478 -0.6353  1.4044
  991MOL0     C33680   2.919  13.641   4.527  0.7339 -0.4808  0.7510
  991MOL0     O33681   2.834  13.633   4.413  0.3430  0.1130  0.0082
  991MOL0     C33682   2.850  13.697   4.294 -0.7866 -0.0718  0.0055
  991MOL0     C33683   2.908  13.831   4.282  0.5470 -0.5988  0.7774
  991MOL0     C33684   2.891  13.899   4.160 -0.6823  0.2732 -0.1118
  991MOL0     C33685   2.822  13.841   4.054  0.5506  0.3854 -0.1964
  991MOL0     O33686   2.804  13.912   3.945 -0.1919  0.4027  0.3100
  991MOL0     C33687   2.671  13.944   3.915  0.2473 -0.5022  0.8026
  991MOL0     C33688   2.658  14.048   3.804 -0.6693  0.9619  0.3953
  991MOL0     C33689   2.699  13.987   3.668  1.0751 -0.3876  0.3356
  991MOL0     C33690   2.695  14.098   3.561  0.4907 -0.4115 -0.5285
  991MOL0     C33691   2.720  14.062   3.413 -0.6411 -0.7417 -0.0464
  991MOL0     C33692   2.600  13.978   3.359  0.5072  0.5274  0.0052
  991MOL0     C33693   2.613  13.947   3.211 -0.2358 -0.1732 -0.3910
  991MOL0     C33694   2.586  14.073   3.129 -0.0755  0.4255 -0.0887
  991MOL0    Cl33695   2.413  14.112   3.103 -0.2194  0.2054 -0.1665
  991MOL0     C33696   2.761  13.706   4.076  0.3403  0.4865  0.5484
  991MOL0     C33697   2.778  13.641   4.191 -0.1461 -0.0057  0.0064
  991MOL0     O33698   3.010  13.716   4.535 -0.3607 -0.7824 -0.2849
  991MOL0     C33699   2.844  13.419   4.587  0.0361  0.2326  0.0224
  991MOL0     C33700   2.821  13.319   4.679  0.0582 -0.4222  0.2695
  991MOL0     N33701   2.823  12.946   5.410  0.4619  0.0232 -0.4362
  991MOL0     N33702   2.928  12.902   5.476 -0.4150  0.0849 -0.8005
  991MOL0     C33703   2.644  11.819   6.003  1.0810 -0.1517  0.5259
  991MOL0     C33704   2.573  11.702   6.026  0.7654  0.8094  0.5945
  991MOL0     C33705   2.309  11.330   5.954 -1.0418 -0.2132 -0.3737
  991MOL0     C33706   2.372  11.261   6.056  0.2789 -0.0066  0.2700
  991MOL0     C33707   2.325  11.137   6.094 -0.2880  0.2540  0.9631
  991MOL0     C33708   2.211  11.081   6.031 -1.4074  0.2258 -0.9433
  991MOL0     O33709   2.158  10.960   6.087  0.0999  0.1455  0.9352
  991MOL0     C33710   2.027  10.978   6.131 -0.2741 -0.3325  0.5404
  991MOL0     C33711   1.973  10.850   6.204  0.4569 -0.3095  0.0718
  991MOL0     C33712   1.934  10.735   6.104 -0.0587  0.8880 -0.2511
  991MOL0     C33713   1.927  10.600   6.180  0.4872 -0.4094 -0.0928
  991MOL0     C33714   1.834  10.597   6.294 -0.4520  0.1599 -0.1869
  991MOL0     C33715   1.759  10.585   6.388  0.1359  0.5424  0.3876
  991MOL0     C33716   2.148  11.158   5.929 -0.2797  0.5500 -1.3136
  991MOL0     C33717   2.198  11.281   5.884  0.2523  0.1667 -0.6648
  991MOL0     H33718   2.635  11.531   5.748 -1.7476  1.6810 -1.9945
  991MOL0     H33719   2.778  11.715   5.704  0.9924 -0.4502  0.5933
  991MOL0     H33720   2.940  11.923   5.734 -0.5366 -1.0938 -2.1692
  991MOL0     H33721   2.796  11.981   5.653  1.1565  0.7394  0.6272
  991MOL0     H33722   2.837  12.205   5.760 -0.7212 -1.3149  0.4622
  991MOL0     H33723   2.954  12.124   5.870  1.1107  1.6699  0.0797
  991MOL0     H33724   3.112  12.085   5.686  0.2162  1.2396  0.9665
  991MOL0     H33725   3.002  12.110   5.564  1.0061  0.1823  0.5924
  991MOL0     H33726   2.996  12.355   5.670  1.5225  1.2409  0.7318
  991MOL0     H33727   3.169  12.313   5.697  0.8594 -0.3764 -0.9342
  991MOL0     H33728   3.214  12.257   5.486 -1.4907 -1.3830 -2.2549
  991MOL0     H33729   3.053  12.301   5.418  0.0279 -0.7178 -0.5483
  991MOL0     H33730   3.247  12.493   5.552  0.9600 -2.9691 -1.4554
  991MOL0     H33731   3.213  12.495   5.376 -0.0357  0.8996 -0.7804
  991MOL0     H33732   2.976  12.530   5.399 -0.1625  0.1917  0.6174
  991MOL0     H33733   2.988  12.559   5.572 -0.1303  1.2258  0.4497
  991MOL0     H33734   3.150  12.730   5.368 -0.2024  0.8445 -0.0383
  991MOL0     H33735   3.127  12.749   5.543 -1.8233 -1.6614  1.3064
  991MOL0     H33736   2.893  12.690   5.217  0.4421  1.4376 -3.0591
  991MOL0     H33737   2.622  12.803   5.174 -2.3942  1.5969 -1.2467
  991MOL0     H33738   2.622  12.962   5.226  0.1149  1.8595 -4.1798
  991MOL0     H33739   2.742  12.869   4.972  1.5287  0.3655 -0.8211
  991MOL0     H33740   2.853  12.977   5.068 -0.6282  3.3340  1.3560
  991MOL0     H33741   2.660  13.136   5.098 -1.8178  2.1782 -2.3765
  991MOL0     H33742   2.574  13.022   4.988  0.1046  1.6601 -3.6776
  991MOL0     H33743   2.623  13.170   4.837 -1.4735 -2.2644  2.3080
  991MOL0     H33744   2.764  13.067   4.822  4.4580  1.9328  0.9090
  991MOL0     H33745   2.908  13.481   4.967 -3.1078  1.8795  1.1232
  991MOL0     H33746   2.945  13.787   4.791  0.0598  0.5628  0.6446
  991MOL0     H33747   2.997  13.695   4.926  0.2146 -1.4195 -0.7105
  991MOL0     H33748   3.100  13.693   4.771  0.6312 -0.8983 -0.0558
  991MOL0     H33749   2.971  13.874   4.359  2.3279 -0.1069 -0.8883
  991MOL0     H33750   2.911  14.005   4.154  0.1999  0.2173  1.3417
  991MOL0     H33751   2.629  13.850   3.878 -2.0778  0.1601  1.5526
  991MOL0     H33752   2.614  13.971   4.005  0.6552  0.1636  0.8672
  991MOL0     H33753   2.554  14.082   3.804 -0.5062  1.5785 -1.4180
  991MOL0     H33754   2.722  14.130   3.838  0.3021  0.4587 -0.1764
  991MOL0     H33755   2.636  13.899   3.651 -1.2880  1.0958  0.8605
  991MOL0     H33756   2.800  13.946   3.675  1.0190 -0.3957  1.3300
  991MOL0     H33757   2.600  14.149   3.573 -0.1353 -1.4067 -1.1324
  991MOL0     H33758   2.769  14.170   3.597  0.5876  0.1741 -1.8446
  991MOL0     H33759   2.811  14.007   3.390 -1.3682 -1.2453 -1.9789
  991MOL0     H33760   2.740  14.158   3.365 -0.4961 -1.0775 -0.6693
  991MOL0     H33761   2.602  13.887   3.418 -0.4170  1.3876  1.4285
  991MOL0     H33762   2.504  14.022   3.388 -2.1721 -3.8691 -1.3187
  991MOL0     H33763   2.553  13.860   3.182 -2.7273  1.0727  0.7539
  991MOL0     H33764   2.716  13.918   3.189 -0.9876 -2.2369 -1.5025
  991MOL0     H33765   2.640  14.056   3.035 -0.5227 -4.0924  0.2536
  991MOL0     H33766   2.628  14.155   3.187 -0.8831  1.2424 -0.6156
  991MOL0     H33767   2.697  13.649   4.009  2.1372 -1.9128  0.7475
  991MOL0     H33768   2.724  13.547   4.195  0.2877 -0.3163 -1.1617
  991MOL0     H33769   2.814  13.406   4.484  0.9874  2.2845 -0.5731
  991MOL0     H33770   2.777  13.226   4.644  1.0757 -1.2621  1.1576
  991MOL0     H33771   2.646  11.897   6.079 -1.1175 -0.7905  1.3161
  991MOL0     H33772   2.533  11.697   6.127 -2.2499  2.8810 -0.3517
  991MOL0     H33773   2.465  11.303   6.094  0.6047  2.4948 -2.7925
  991MOL0     H33774   2.384  11.095   6.175 -2.7854  0.6929  3.1280
  991MOL0     H33775   2.029  11.072   6.186  1.8388  2.7581 -4.2108
  991MOL0     H33776   1.953  10.992   6.052  1.4021  2.7715 -0.6334
  991MOL0     H33777   1.889  10.855   6.273  1.3899 -0.8889  1.2959
  991MOL0     H33778   2.056  10.809   6.263  0.0495 -1.8243 -0.3802
  991MOL0     H33779   2.019  10.739   6.036  1.4832  3.7197  1.6563
  991MOL0     H33780   1.837  10.746   6.056 -1.4399 -2.2802  1.4437
  991MOL0     H33781   2.021  10.570   6.228 -0.1778 -1.5602  0.5134
  991MOL0     H33782   1.902  10.532   6.098 -0.6384 -1.3677  1.0263
  991MOL0     H33783   1.685  10.585   6.467 -0.1275 -1.6910  0.1960
  991MOL0     H33784   2.057  11.121   5.883 -0.0576 -1.4618 -0.2221
  991MOL0     H33785   2.149  11.342   5.810 -1.9896 -0.0107  0.5825
  992MOL0     O33786   8.028   5.998   3.460  0.4092  0.1601  0.1446
  992MOL0     C33787   8.074   6.110   3.409  0.5657  0.6069 -0.2137
  992MOL0     O33788   8.047   6.155   3.284  0.4848  0.0194  0.1838
  992MOL0     C33789   7.960   6.075   3.206 -0.9962 -0.0380  0.4227
  992MOL0     C33790   7.988   5.941   3.190  0.6813 -0.3423 -0.5452
  992MOL0     C33791   7.897   5.855   3.119  0.1695 -1.1978  0.0518
  992MOL0     C33792   7.793   5.919   3.052 -0.2738  0.2216 -0.5863
  992MOL0     O33793   7.705   5.858   2.965  0.8440  0.0084 -0.5800
  992MOL0     C33794   7.663   5.729   3.007 -0.7547  0.2233 -0.2947
  992MOL0     C33795   7.564   5.670   2.924  0.5624  0.0252 -0.5811
  992MOL0     C33796   7.574   5.525   2.912 -0.0234  0.2261 -0.6025
  992MOL0     C33797   7.521   5.452   3.033 -0.0058 -0.0491  1.2682
  992MOL0     C33798   7.511   5.304   2.996  0.2606  0.6076 -0.2879
  992MOL0     C33799   7.463   5.242   3.127 -0.1775 -0.1197 -0.3021
  992MOL0     C33800   7.429   5.090   3.109 -0.5189  0.2849 -0.5474
  992MOL0     C33801   7.422   5.024   3.247  0.9475  0.0610  0.7513
  992MOL0     N33802   7.399   4.873   3.250 -0.3634  0.1025 -0.2652
  992MOL0     C33803   7.500   4.789   3.271  0.1358  0.0699  0.0637
  992MOL0     C33804   7.442   4.665   3.294  0.0567  0.2664  0.5566
  992MOL0     C33805   7.511   4.533   3.314 -0.6449 -0.3735  0.0792
  992MOL0     C33806   7.537   4.455   3.181 -0.2090 -0.7824  0.0309
  992MOL0     C33807   7.638   4.337   3.196 -0.3693 -0.0293  0.6136
  992MOL0     C33808   7.712   4.301   3.062  0.5240 -0.0328  0.7057
  992MOL0     O33809   7.600   4.263   2.977 -0.2059  0.2807 -0.2959
  992MOL0     C33810   7.624   4.269   2.841  0.7711  0.8164  0.3844
  992MOL0     C33811   7.740   4.219   2.784 -0.3499 -0.3233  1.0963
  992MOL0     C33812   7.774   4.239   2.650  0.4331 -0.5777 -0.6977
  992MOL0     C33813   7.906   4.190   2.607 -0.1518 -0.4835 -0.0885
  992MOL0     C33814   7.679   4.298   2.565  0.6997 -0.1343 -0.8532
  992MOL0     C33815   7.689   4.287   2.414  0.6510  0.6409 -0.5072
  992MOL0     O33816   7.811   4.264   2.353  0.2786  0.4010  0.5441
  992MOL0     C33817   7.813   4.277   2.213 -0.1030 -0.7146 -0.0428
  992MOL0     C33818   7.886   4.180   2.151 -0.6479  0.6915 -0.9521
  992MOL0     C33819   7.913   4.174   2.015  0.0959  0.1921  0.6872
  992MOL0     C33820   7.857   4.271   1.929 -0.3976  0.6835 -0.8128
  992MOL0     O33821   7.893   4.248   1.803 -0.3086 -0.1939 -0.4236
  992MOL0     C33822   7.820   4.298   1.690  0.3212 -0.0804  0.5137
  992MOL0     C33823   7.736   4.188   1.625 -0.0389 -0.2005 -0.6649
  992MOL0     C33824   7.662   4.228   1.503  0.5112  1.0767 -0.7355
  992MOL0     C33825   7.580   4.112   1.449  0.8445  0.1932 -0.2839
  992MOL0     C33826   7.483   4.162   1.341 -0.5282 -0.4189 -0.4504
  992MOL0     C33827   7.396   4.071   1.263  0.3232 -0.0823  0.6597
  992MOL0     C33828   7.478   3.972   1.178 -0.1095  1.2621  0.7636
  992MOL0     C33829   7.386   3.874   1.108 -0.6510 -0.3101 -0.2545
  992MOL0    Cl33830   7.279   3.961   0.983 -0.5185 -0.1879 -0.3727
  992MOL0     C33831   7.795   4.379   1.991  0.1378  0.6176  0.0750
  992MOL0     C33832   7.776   4.388   2.133 -0.4911 -0.5521 -0.3604
  992MOL0     O33833   7.578   4.286   2.352  0.3093 -0.1011  0.1149
  992MOL0     C33834   7.555   4.336   2.624 -0.1620 -0.3941  0.4248
  992MOL0     C33835   7.525   4.326   2.760 -0.7596 -0.6652 -0.9322
  992MOL0     N33836   7.301   4.681   3.287 -1.0279 -0.7207  0.1020
  992MOL0     N33837   7.284   4.807   3.261 -1.0593  0.1305  0.1312
  992MOL0     C33838   7.773   6.060   3.063 -0.4270 -0.1109 -1.2762
  992MOL0     C33839   7.859   6.140   3.127 -0.9412 -0.7776 -0.6159
  992MOL0     C33840   8.165   6.193   3.494  0.0809 -1.0394  0.5177
  992MOL0     C33841   8.217   6.139   3.615 -0.0709 -0.1977  0.1965
  992MOL0     C33842   8.296   6.210   3.701  0.0051  0.7290 -0.4556
  992MOL0     C33843   8.343   6.341   3.675 -0.2248  0.9668  1.1010
  992MOL0     O33844   8.439   6.403   3.741  0.5348  0.0240  0.1256
  992MOL0     C33845   8.483   6.351   3.867  0.2881  0.9380  0.6407
  992MOL0     C33846   8.592   6.243   3.837 -0.9500 -0.2820  0.1565
  992MOL0     C33847   8.659   6.215   3.980 -0.6049  0.0940 -0.0292
  992MOL0     C33848   8.741   6.084   3.999 -0.1592 -0.7504 -1.3468
  992MOL0     C33849   8.815   6.045   3.882 -0.3808 -0.1482  0.2418
  992MOL0     C33850   8.880   6.031   3.778 -0.3772 -0.2897 -0.6886
  992MOL0     C33851   8.295   6.398   3.553 -0.7265 -0.2269 -0.4634
  992MOL0     C33852   8.206   6.326   3.468  0.1907  0.7722 -0.1967
  992MOL0     H33853   8.083   5.901   3.222  1.4934  0.2372 -2.1547
  992MOL0     H33854   7.926   5.752   3.100  4.9318  0.3072 -2.4070
  992MOL0     H33855   7.758   5.675   2.999  0.7616  2.2352  2.4862
  992MOL0     H33856   7.629   5.725   3.111  3.2231 -0.3179  1.1582
  992MOL0     H33857   7.467   5.704   2.961  0.2630  0.7840 -1.9749
  992MOL0     H33858   7.577   5.705   2.821 -0.5139 -0.7790 -1.0077
  992MOL0     H33859   7.501   5.498   2.835  0.6125  0.7103 -1.3823
  992MOL0     H33860   7.675   5.497   2.881  0.4254  1.8803 -0.7171
  992MOL0     H33861   7.595   5.449   3.114  0.4705 -1.7847  0.8126
  992MOL0     H33862   7.426   5.486   3.075 -1.3743 -0.5919 -1.2129
  992MOL0     H33863   7.439   5.282   2.916  1.6920 -2.1889 -0.9336
  992MOL0     H33864   7.609   5.266   2.969  0.5766  1.1787  0.0354
  992MOL0     H33865   7.535   5.254   3.208  0.1629  3.6516 -0.9670
  992MOL0     H33866   7.372   5.289   3.164 -0.2287 -2.0730  2.2946
  992MOL0     H33867   7.332   5.083   3.060 -0.9308  1.2744  0.0834
  992MOL0     H33868   7.516   5.040   3.065 -0.6140 -1.7023  1.3516
  992MOL0     H33869   7.344   5.071   3.308  1.9699  2.9318  0.0151
  992MOL0     H33870   7.512   5.040   3.306  0.4534 -3.0659  2.6142
  992MOL0     H33871   7.604   4.816   3.264  0.3388 -0.9451 -1.6002
  992MOL0     H33872   7.605   4.541   3.368 -0.5018 -0.4455 -0.1566
  992MOL0     H33873   7.445   4.470   3.374 -0.5367  1.3523  2.1044
  992MOL0     H33874   7.581   4.525   3.111 -1.1064  0.2306  0.4394
  992MOL0     H33875   7.442   4.414   3.143 -0.9906  1.8739 -1.0843
  992MOL0     H33876   7.582   4.249   3.230 -1.0622 -0.0399 -0.4886
  992MOL0     H33877   7.713   4.349   3.274  0.8833 -1.2137 -0.3471
  992MOL0     H33878   7.794   4.232   3.086  3.0201  1.7541 -1.9940
  992MOL0     H33879   7.770   4.382   3.017  1.2327 -0.6270  0.5184
  992MOL0     H33880   7.816   4.162   2.835  0.3279  1.0667  1.7030
  992MOL0     H33881   7.962   4.255   2.539  2.7868 -2.6664  0.0123
  992MOL0     H33882   7.980   4.181   2.687  0.0380 -1.7969 -0.3744
  992MOL0     H33883   7.889   4.099   2.549  0.5776 -0.0435 -1.0182
  992MOL0     H33884   7.910   4.094   2.213  0.7303 -1.0868 -3.7249
  992MOL0     H33885   7.982   4.100   1.978  3.6253  1.7056  3.6375
  992MOL0     H33886   7.748   4.375   1.716 -1.9748 -1.1797 -2.0867
  992MOL0     H33887   7.897   4.325   1.616  0.1709 -0.7175  0.1144
  992MOL0     H33888   7.795   4.097   1.609 -1.9230 -2.3400  3.3045
  992MOL0     H33889   7.663   4.172   1.704 -0.3481  0.7569 -0.7368
  992MOL0     H33890   7.733   4.248   1.422  2.5366 -1.1101  0.3816
  992MOL0     H33891   7.602   4.318   1.519 -1.4550 -0.4535  0.9808
  992MOL0     H33892   7.641   4.027   1.417 -0.3340  0.4710 -3.6130
  992MOL0     H33893   7.523   4.089   1.540 -0.0279  4.2852  0.3677
  992MOL0     H33894   7.550   4.224   1.280  1.8226 -2.3602  0.0232
  992MOL0     H33895   7.407   4.227   1.385  0.6832  0.9350 -0.2817
  992MOL0     H33896   7.335   4.019   1.337 -1.3220 -2.7782 -2.3438
  992MOL0     H33897   7.331   4.132   1.200  1.7385  0.6060 -0.2068
  992MOL0     H33898   7.552   3.919   1.238  1.0653  1.1862 -0.6803
  992MOL0     H33899   7.548   4.019   1.109 -0.5642  0.8757  0.0110
  992MOL0     H33900   7.321   3.825   1.182  0.6858  0.5677  1.5818
  992MOL0     H33901   7.453   3.811   1.050  0.9603  2.3390 -1.4408
  992MOL0     H33902   7.770   4.461   1.925 -1.2800  2.3625  2.6073
  992MOL0     H33903   7.745   4.481   2.181  1.9162  1.1573 -1.9107
  992MOL0     H33904   7.477   4.355   2.551  1.0164 -0.4204 -0.8588
  992MOL0     H33905   7.433   4.358   2.806 -0.3570  0.3464 -0.8152
  992MOL0     H33906   7.691   6.100   3.005 -0.4167 -2.0039 -2.6710
  992MOL0     H33907   7.840   6.246   3.134 -0.2420 -0.6785 -0.1158
  992MOL0     H33908   8.181   6.040   3.642 -1.8922 -0.7909 -3.6355
  992MOL0     H33909   8.326   6.164   3.794 -0.2127  1.7919  0.1597
  992MOL0     H33910   8.527   6.445   3.902  0.3925 -0.3544  4.4315
  992MOL0     H33911   8.403   6.313   3.930 -0.4148  0.8885 -0.2615
  992MOL0     H33912   8.671   6.286   3.776  2.0344 -2.8091  1.9655
  992MOL0     H33913   8.546   6.155   3.791 -3.7283  1.8881 -1.5643
  992MOL0     H33914   8.574   6.201   4.048 -1.0322  2.0739 -0.0985
  992MOL0     H33915   8.722   6.297   4.014  0.6528 -0.0032 -1.9427
  992MOL0     H33916   8.664   6.008   4.013  2.8841 -4.4606 -3.0754
  992MOL0     H33917   8.798   6.098   4.091  0.0976  2.3871 -1.8521
  992MOL0     H33918   8.933   6.033   3.684  0.9302 -1.0400  0.0110
  992MOL0     H33919   8.321   6.500   3.527  1.3854 -1.1686 -2.2458
  992MOL0     H33920   8.164   6.367   3.377 -2.6021 -0.9352  0.2113
  993MOL0     O33921   4.385   8.117   4.324 -0.4820 -0.5808 -0.6699
  993MOL0     C33922   4.457   8.217   4.341  0.4052  0.2728  0.7392
  993MOL0     O33923   4.592   8.225   4.311  0.1616 -0.1990  0.2397
  993MOL0     C33924   4.667   8.116   4.285  0.0791 -0.1074 -0.1355
  993MOL0     C33925   4.685   8.011   4.377 -0.0360 -0.8446 -0.7365
  993MOL0     C33926   4.764   7.901   4.338 -0.0157 -0.9968  1.1216
  993MOL0     C33927   4.831   7.894   4.212 -0.0574 -0.1585  0.2477
  993MOL0     O33928   4.896   7.779   4.172 -0.4209 -0.1646 -0.0937
  993MOL0     C33929   5.041   7.780   4.161  0.1908  0.7763  0.7879
  993MOL0     C33930   5.098   7.642   4.125  0.1144 -0.3948  0.8867
  993MOL0     C33931   5.094   7.544   4.244  0.8357  0.8332  0.1373
  993MOL0     C33932   5.213   7.552   4.330 -0.6466  0.1414  0.4009
  993MOL0     C33933   5.203   7.464   4.443 -0.0924  0.0540 -0.1770
  993MOL0     C33934   5.330   7.492   4.538 -0.5961  0.8657  1.3676
  993MOL0     C33935   5.292   7.486   4.685 -0.8717 -0.1100 -0.0681
  993MOL0     C33936   5.215   7.364   4.737  0.4280 -0.1152 -0.1922
  993MOL0     N33937   5.280   7.238   4.705  0.4451  0.6195 -0.3830
  993MOL0     C33938   5.216   7.156   4.615 -0.1132 -1.3737  0.6903
  993MOL0     C33939   5.273   7.028   4.623 -0.7522  0.4657  0.5034
  993MOL0     C33940   5.239   6.913   4.530  0.4265  0.6646 -0.0495
  993MOL0     C33941   5.093   6.889   4.511  0.4835 -1.0128  0.2582
  993MOL0     C33942   5.015   6.873   4.643 -0.7494  0.6766 -0.3030
  993MOL0     C33943   5.016   6.732   4.698 -0.8286 -0.1539 -0.0531
  993MOL0     O33944   4.946   6.728   4.826 -0.2313 -0.2705 -0.4887
  993MOL0     C33945   4.984   6.826   4.918  0.7053  0.3110 -0.1257
  993MOL0     C33946   5.113   6.828   4.969  0.1222  0.2320  0.4111
  993MOL0     C33947   5.162   6.916   5.065 -0.7622 -0.5064  0.4574
  993MOL0     C33948   5.301   6.897   5.108 -0.3028  0.2038 -0.7195
  993MOL0     C33949   5.072   7.016   5.116  0.4635 -0.0209 -0.4561
  993MOL0     C33950   5.094   7.105   5.236  0.1787  0.4279 -0.4676
  993MOL0     O33951   5.017   7.225   5.259 -0.3178  0.3659 -0.0344
  993MOL0     C33952   5.063   7.338   5.201  0.3589 -0.0901  0.0598
  993MOL0     C33953   4.960   7.421   5.152  0.9239  1.0809  1.0895
  993MOL0     C33954   4.994   7.538   5.084  0.5649 -0.1950  0.2814
  993MOL0     C33955   5.125   7.566   5.053 -0.5660 -1.0667 -0.3408
  993MOL0     O33956   5.155   7.691   4.984  0.5042 -0.1438 -0.1157
  993MOL0     C33957   5.266   7.770   5.031 -0.0439 -0.4571  0.0913
  993MOL0     C33958   5.312   7.860   4.916 -0.3038 -0.2724  0.4204
  993MOL0     C33959   5.234   7.991   4.909  0.2017  0.7891 -0.7587
  993MOL0     C33960   5.226   8.065   4.779 -1.0472  0.5121 -0.0515
  993MOL0     C33961   5.181   8.202   4.810 -0.4493 -0.0338  0.1282
  993MOL0     C33962   5.120   8.272   4.686  0.8000 -0.6503 -1.7832
  993MOL0     C33963   5.070   8.412   4.732  0.4877 -0.4649  0.7711
  993MOL0     C33964   4.996   8.499   4.629 -0.6409 -0.4241 -0.2829
  993MOL0    Cl33965   4.871   8.412   4.533 -0.0019  0.2188  0.0071
  993MOL0     C33966   5.229   7.487   5.111 -0.5296  0.1925  0.4359
  993MOL0     C33967   5.196   7.381   5.201 -0.1411  0.1880 -0.3999
  993MOL0     O33968   5.183   7.066   5.310 -0.2120 -0.5458  0.7090
  993MOL0     C33969   4.946   7.013   5.064  0.0256  0.3092 -0.3101
  993MOL0     C33970   4.892   6.924   4.967  0.0742  0.8112  0.9371
  993MOL0     N33971   5.379   7.046   4.712 -0.5775  0.1168 -0.3652
  993MOL0     N33972   5.373   7.158   4.768 -0.9019 -0.7710  0.4853
  993MOL0     C33973   4.815   8.003   4.130  0.0469  0.2586 -0.6820
  993MOL0     C33974   4.739   8.113   4.168  0.6765  0.3137  0.5744
  993MOL0     C33975   4.392   8.342   4.379  0.0736  0.2261  0.2191
  993MOL0     C33976   4.250   8.358   4.373 -0.0779 -0.5246  1.2834
  993MOL0     C33977   4.187   8.478   4.404  0.5749  1.0020 -0.4820
  993MOL0     C33978   4.257   8.581   4.461  0.2092  1.1646 -0.1213
  993MOL0     O33979   4.179   8.681   4.506  0.0389 -0.3289 -1.8926
  993MOL0     C33980   4.235   8.792   4.587  0.3470  0.9570  0.9970
  993MOL0     C33981   4.129   8.873   4.656 -0.2742 -0.6627  0.1645
  993MOL0     C33982   4.200   9.000   4.717  0.2773  0.1304  0.3070
  993MOL0     C33983   4.112   9.093   4.784 -0.1326 -0.1317 -1.2311
  993MOL0     C33984   3.999   9.136   4.705 -0.0895  0.2236 -1.2633
  993MOL0     C33985   3.905   9.154   4.619 -0.5002 -0.2439  0.1764
  993MOL0     C33986   4.396   8.566   4.479 -0.3160 -0.0941 -0.0112
  993MOL0     C33987   4.462   8.448   4.441 -0.5694 -0.1907  0.1873
  993MOL0     H33988   4.639   8.023   4.475 -0.2007  2.6661 -1.0971
  993MOL0     H33989   4.765   7.814   4.404  1.5394 -1.6429  0.3132
  993MOL0     H33990   5.058   7.849   4.078 -0.4851 -2.3898 -2.2102
  993MOL0     H33991   5.094   7.811   4.252 -0.2167 -1.4229  1.8210
  993MOL0     H33992   5.039   7.609   4.039 -2.2623  0.5934  2.0243
  993MOL0     H33993   5.202   7.649   4.095 -0.6395 -0.4124 -2.0340
  993MOL0     H33994   5.009   7.579   4.303  1.7614 -0.1143  2.1550
  993MOL0     H33995   5.080   7.441   4.212  2.3898  1.1467 -1.7551
  993MOL0     H33996   5.296   7.526   4.263  1.3559  3.1772  1.4923
  993MOL0     H33997   5.232   7.655   4.362 -0.8007  0.2824  0.0424
  993MOL0     H33998   5.114   7.496   4.498  0.8956  1.8842  0.4481
  993MOL0     H33999   5.195   7.360   4.411 -1.5694  0.0300  0.1882
  993MOL0     H34000   5.410   7.417   4.525  0.4263  2.1804 -0.3905
  993MOL0     H34001   5.362   7.593   4.512  0.7673 -0.5406 -3.3994
  993MOL0     H34002   5.373   7.510   4.754 -0.7753 -0.5436 -0.0235
  993MOL0     H34003   5.222   7.569   4.696  1.5436  2.0390 -0.0057
  993MOL0     H34004   5.114   7.364   4.696 -0.6783  1.0434  2.2792
  993MOL0     H34005   5.207   7.378   4.845  1.3665  1.4841 -0.2851
  993MOL0     H34006   5.155   7.194   4.533  0.8337 -1.9499 -0.3045
  993MOL0     H34007   5.287   6.926   4.433  1.6082  0.0362  0.4301
  993MOL0     H34008   5.288   6.819   4.560 -1.1095 -0.0317  0.3847
  993MOL0     H34009   5.071   6.813   4.435 -1.2211  1.1686 -1.5944
  993MOL0     H34010   5.065   6.980   4.456  3.7869 -1.0769 -1.8726
  993MOL0     H34011   4.907   6.891   4.636 -1.0905 -0.2049  1.8940
  993MOL0     H34012   5.053   6.947   4.713  0.3924 -1.8862  1.9304
  993MOL0     H34013   5.119   6.700   4.714 -0.5890  0.7755  0.3276
  993MOL0     H34014   4.971   6.669   4.622  1.9915  0.0001 -1.9787
  993MOL0     H34015   5.179   6.758   4.919 -0.7206 -0.5854  0.4247
  993MOL0     H34016   5.309   6.850   5.207  0.2790  4.8067  1.6801
  993MOL0     H34017   5.362   6.836   5.041  1.7100  1.4167 -0.0798
  993MOL0     H34018   5.351   6.992   5.129  2.2588 -1.0311 -0.8542
  993MOL0     H34019   4.861   7.377   5.159  1.9722 -1.7140 -0.3833
  993MOL0     H34020   4.907   7.600   5.064  0.2394  0.1488  2.5303
  993MOL0     H34021   5.243   7.818   5.127 -1.0153  3.6012 -1.9327
  993MOL0     H34022   5.353   7.707   5.050 -1.0340 -0.7057  5.0490
  993MOL0     H34023   5.418   7.885   4.918 -0.5486  0.8150  1.5771
  993MOL0     H34024   5.303   7.799   4.826 -0.0427 -0.0327  0.2298
  993MOL0     H34025   5.290   8.047   4.985  0.1483  1.0625 -0.9193
  993MOL0     H34026   5.132   7.975   4.944  0.0086 -0.4552 -1.8467
  993MOL0     H34027   5.328   8.072   4.740 -1.0123  0.4613  0.0308
  993MOL0     H34028   5.163   8.013   4.706  0.3492  2.3928 -2.7767
  993MOL0     H34029   5.270   8.259   4.837  0.0348  0.4746 -2.2564
  993MOL0     H34030   5.105   8.210   4.888 -0.7547  1.8952 -0.3004
  993MOL0     H34031   5.178   8.269   4.593 -0.8557 -0.3732 -2.8636
  993MOL0     H34032   5.026   8.221   4.663  0.8069 -1.7192  0.3470
  993MOL0     H34033   5.157   8.471   4.763  1.9307 -1.9200 -0.3093
  993MOL0     H34034   5.010   8.398   4.823  1.7987 -2.0988  1.4558
  993MOL0     H34035   5.057   8.548   4.553 -0.7885 -1.3935 -1.0307
  993MOL0     H34036   4.951   8.578   4.691 -0.4869  2.2437 -3.3228
  993MOL0     H34037   5.335   7.505   5.096 -0.7011  1.7418  0.8657
  993MOL0     H34038   5.274   7.332   5.258 -0.7118  0.4042  0.5929
  993MOL0     H34039   4.882   7.094   5.099  1.7465  1.2504  0.8176
  993MOL0     H34040   4.791   6.922   4.929  1.5205  2.6348 -3.6488
  993MOL0     H34041   4.856   7.994   4.030 -0.2930  0.6053 -0.8530
  993MOL0     H34042   4.725   8.189   4.091 -0.2416 -3.1666 -3.0822
  993MOL0     H34043   4.176   8.285   4.338 -0.7907 -0.6351  2.9306
  993MOL0     H34044   4.079   8.483   4.393  0.0294  4.0514  3.7235
  993MOL0     H34045   4.299   8.753   4.667 -0.3904 -0.7531  0.7977
  993MOL0     H34046   4.301   8.851   4.523  1.0149 -1.8632 -1.1355
  993MOL0     H34047   4.078   8.820   4.736 -3.7859  0.3737 -1.1981
  993MOL0     H34048   4.051   8.902   4.585  1.9471  1.4350 -1.6504
  993MOL0     H34049   4.259   9.054   4.643 -0.2367  3.0909  1.9265
  993MOL0     H34050   4.275   8.975   4.793 -1.4653 -1.0912  1.7388
  993MOL0     H34051   4.182   9.172   4.815 -1.5965  0.5253  0.6378
  993MOL0     H34052   4.076   9.038   4.872  2.4153 -1.0912 -0.7209
  993MOL0     H34053   3.818   9.158   4.556  0.5642  3.2133 -1.2939
  993MOL0     H34054   4.461   8.643   4.520  1.4394 -0.8537 -1.2262
  993MOL0     H34055   4.567   8.448   4.467 -0.3981 -1.7727 -0.3613
  994MOL0     O34056  10.643   6.863  11.419  0.0455  0.3216 -2.0885
  994MOL0     C34057  10.673   6.762  11.353 -0.0787  0.2772 -0.3387
  994MOL0     O34058  10.605   6.712  11.258  0.6190  0.6916 -0.3325
  994MOL0     C34059  10.470   6.746  11.240  0.8639  0.7824  0.6492
  994MOL0     C34060  10.372   6.700  11.327  0.1932 -0.0628 -1.2325
  994MOL0     C34061  10.237   6.742  11.316  0.6733  0.5100 -0.2542
  994MOL0     C34062  10.203   6.837  11.219  0.3269  0.1386  0.1229
  994MOL0     O34063  10.079   6.881  11.197  0.7505 -0.3206  0.5086
  994MOL0     C34064   9.994   6.777  11.163 -0.8670 -1.1837  0.5598
  994MOL0     C34065   9.868   6.805  11.250 -0.4360 -0.6240 -0.5122
  994MOL0     C34066   9.777   6.688  11.290 -0.5262  0.0392  0.4412
  994MOL0     C34067   9.844   6.607  11.415  0.0392 -0.3650 -0.1429
  994MOL0     C34068   9.753   6.479  11.439  0.8459  0.7204 -0.5868
  994MOL0     C34069   9.618   6.513  11.506  0.6364 -0.8996 -0.4300
  994MOL0     C34070   9.571   6.393  11.591 -0.3966 -0.8069 -0.3396
  994MOL0     C34071   9.427   6.393  11.612  0.2964  0.1715  0.0834
  994MOL0     N34072   9.369   6.272  11.681  0.3625 -0.4523  0.8663
  994MOL0     C34073   9.232   6.253  11.683 -0.3829  0.6013 -0.5415
  994MOL0     C34074   9.225   6.131  11.743  0.8044 -0.0204  1.3182
  994MOL0     C34075   9.093   6.059  11.768  0.2499  0.0811  0.1209
  994MOL0     C34076   9.081   5.921  11.718 -0.2404  0.1499 -0.7068
  994MOL0     C34077   8.980   5.832  11.794 -0.8038 -0.4443  0.9064
  994MOL0     C34078   8.967   5.681  11.735  0.2876 -0.7019 -0.2681
  994MOL0     O34079   8.855   5.615  11.804  0.7130  0.0533 -0.0205
  994MOL0     C34080   8.799   5.506  11.729 -1.0336 -0.2481  0.1194
  994MOL0     C34081   8.691   5.456  11.787  1.4598  0.2420  0.8083
  994MOL0     C34082   8.604   5.373  11.709  0.0635  0.0014  0.8693
  994MOL0     C34083   8.480   5.341  11.779 -0.7840  0.4780  0.5606
  994MOL0     C34084   8.635   5.339  11.569 -0.2944 -0.4300  0.1729
  994MOL0     C34085   8.558   5.246  11.489 -0.1088  0.5879 -1.0804
  994MOL0     O34086   8.452   5.179  11.549 -1.1794  0.7332  0.7133
  994MOL0     C34087   8.378   5.094  11.481 -0.2298 -0.4088  0.0100
  994MOL0     C34088   8.347   4.988  11.562  0.2523 -0.1490 -0.2111
  994MOL0     C34089   8.252   4.889  11.518  0.1723  0.2125  0.0252
  994MOL0     C34090   8.201   4.893  11.392  0.6314 -0.4795 -0.2982
  994MOL0     O34091   8.123   4.786  11.353 -0.3818 -0.2141 -0.3742
  994MOL0     C34092   8.102   4.743  11.219 -0.2365  0.9488 -0.5394
  994MOL0     C34093   8.017   4.618  11.219 -0.7265 -0.9407  0.3013
  994MOL0     C34094   7.965   4.556  11.093 -0.2801 -0.2324 -0.8333
  994MOL0     C34095   7.871   4.637  11.009 -0.1544 -0.3133 -0.2511
  994MOL0     C34096   7.920   4.745  10.906 -0.1486  1.0885  0.3955
  994MOL0     C34097   7.816   4.841  10.867 -0.9194  0.4272 -1.2051
  994MOL0     C34098   7.848   4.933  10.751 -0.4520 -0.8869  0.3106
  994MOL0     C34099   7.791   5.072  10.786 -0.4478 -0.6373 -0.1488
  994MOL0    Cl34100   7.623   5.081  10.861 -0.2987  0.3698 -0.1711
  994MOL0     C34101   8.222   5.003  11.319  0.3905 -0.6455  0.2284
  994MOL0     C34102   8.314   5.106  11.357  0.1371 -0.8381  0.0584
  994MOL0     O34103   8.587   5.233  11.369  0.0775 -0.5283 -0.3171
  994MOL0     C34104   8.757   5.391  11.523  0.4477 -0.1246 -0.7652
  994MOL0     C34105   8.835   5.470  11.607 -0.4461 -0.3458  0.2039
  994MOL0     N34106   9.353   6.084  11.774 -0.7273 -0.5128  0.1215
  994MOL0     N34107   9.435   6.176  11.739 -0.2311 -0.9546  0.0899
  994MOL0     C34108  10.311   6.894  11.150 -0.0403  0.1830  0.3914
  994MOL0     C34109  10.440   6.849  11.157 -0.7780  0.0195  0.7128
  994MOL0     C34110  10.815   6.719  11.376  0.1830 -0.3426  0.4351
  994MOL0     C34111  10.875   6.669  11.266 -1.0079  0.1785 -0.4042
  994MOL0     C34112  10.994   6.603  11.277 -1.0768  0.3243 -0.3330
  994MOL0     C34113  11.050   6.573  11.407 -0.9870  0.9164 -0.4671
  994MOL0     O34114  11.181   6.525  11.401  0.3388 -0.4188  0.7319
  994MOL0     C34115  11.237   6.476  11.521  0.1229 -0.8745  0.5940
  994MOL0     C34116  11.349   6.356  11.500 -0.3332 -0.2931 -0.4918
  994MOL0     C34117  11.287   6.229  11.452 -0.0816 -0.4840  0.5889
  994MOL0     C34118  11.409   6.123  11.443  0.1961 -0.6813 -0.2975
  994MOL0     C34119  11.452   6.080  11.570 -0.3009  0.5324  0.0160
  994MOL0     C34120  11.499   6.063  11.680 -0.6119  0.7688 -0.4272
  994MOL0     C34121  10.986   6.624  11.522 -1.4605  0.4283 -0.4875
  994MOL0     C34122  10.871   6.703  11.504 -0.1017  0.8421 -0.1749
  994MOL0     H34123  10.392   6.620  11.398 -0.0625 -0.1674 -1.2746
  994MOL0     H34124  10.170   6.696  11.387  0.6279 -0.5534 -0.9669
  994MOL0     H34125   9.968   6.788  11.057  0.2232  0.0017  0.3828
  994MOL0     H34126  10.043   6.679  11.159 -1.8759 -1.6735 -0.3988
  994MOL0     H34127   9.897   6.863  11.338  1.4479  2.8659 -3.1915
  994MOL0     H34128   9.811   6.878  11.192 -0.1997  0.9767  1.1903
  994MOL0     H34129   9.681   6.722  11.332 -1.5777 -0.9665 -1.0527
  994MOL0     H34130   9.755   6.624  11.205  1.6043 -0.0371 -0.0886
  994MOL0     H34131   9.945   6.574  11.387 -0.6713 -0.8910 -2.2889
  994MOL0     H34132   9.848   6.666  11.507  0.3382 -0.7042  0.0635
  994MOL0     H34133   9.728   6.434  11.343  0.6333 -1.8595  0.5886
  994MOL0     H34134   9.817   6.409  11.494  1.2812  2.6970  1.5707
  994MOL0     H34135   9.648   6.593  11.574  0.9170 -1.1588 -0.2397
  994MOL0     H34136   9.539   6.556  11.445 -0.6218 -0.0077  1.6956
  994MOL0     H34137   9.599   6.302  11.537  1.8239  1.3857 -3.2209
  994MOL0     H34138   9.636   6.398  11.679  0.4605 -0.3881 -0.9885
  994MOL0     H34139   9.383   6.390  11.512 -0.0078  1.0319  0.1804
  994MOL0     H34140   9.401   6.491  11.653  2.0814  0.6775  0.0717
  994MOL0     H34141   9.153   6.321  11.652 -0.3061  0.8478 -0.1995
  994MOL0     H34142   9.084   6.062  11.877  1.1744 -0.3528  0.2131
  994MOL0     H34143   9.012   6.117  11.720 -1.8474 -0.7905  2.4206
  994MOL0     H34144   9.182   5.879  11.723 -0.2500 -0.0366 -1.8149
  994MOL0     H34145   9.042   5.923  11.616 -1.7327 -1.8505 -0.2454
  994MOL0     H34146   8.887   5.889  11.782 -0.0120  1.0943  1.7220
  994MOL0     H34147   9.009   5.833  11.900 -2.1393  1.3440  1.3036
  994MOL0     H34148   9.057   5.624  11.758  0.6350  0.2844  0.9430
  994MOL0     H34149   8.940   5.689  11.629 -0.2152 -2.9996 -0.3651
  994MOL0     H34150   8.653   5.481  11.886 -0.7920 -0.9161  0.2794
  994MOL0     H34151   8.398   5.352  11.707  0.3255 -1.2597 -1.0491
  994MOL0     H34152   8.481   5.245  11.832  1.2712 -0.8256 -1.6407
  994MOL0     H34153   8.463   5.418  11.854  2.2165  1.2940  0.5339
  994MOL0     H34154   8.387   4.982  11.663 -2.8610  2.7901  1.4301
  994MOL0     H34155   8.218   4.812  11.587 -0.6489  1.2026  0.7717
  994MOL0     H34156   8.061   4.827  11.161 -3.0807 -0.9775 -1.5722
  994MOL0     H34157   8.199   4.725  11.172  0.0117 -1.3442  0.7117
  994MOL0     H34158   8.077   4.541  11.270 -2.7733 -1.1215  2.6283
  994MOL0     H34159   7.934   4.630  11.290 -0.7503  0.2588  0.0781
  994MOL0     H34160   7.912   4.464  11.121 -0.3455 -0.4598 -1.6520
  994MOL0     H34161   8.049   4.528  11.029  1.5131  1.2648  0.7578
  994MOL0     H34162   7.818   4.564  10.948  0.5350  0.2744 -1.5918
  994MOL0     H34163   7.796   4.686  11.072  1.1959  3.7455 -1.4722
  994MOL0     H34164   7.959   4.685  10.824  1.6525  2.4040  0.2070
  994MOL0     H34165   8.011   4.796  10.940 -0.3361  0.1546  2.4315
  994MOL0     H34166   7.730   4.789  10.823  0.8744 -0.5292 -3.8312
  994MOL0     H34167   7.773   4.895  10.952  1.2514 -0.7325  0.7408
  994MOL0     H34168   7.803   4.886  10.663 -0.5202  1.5660 -1.0237
  994MOL0     H34169   7.954   4.941  10.724 -1.4449 -0.0816 -3.9648
  994MOL0     H34170   7.798   5.141  10.701 -0.5083  3.0758  2.6098
  994MOL0     H34171   7.856   5.120  10.860 -0.6056  1.5950 -1.3716
  994MOL0     H34172   8.183   5.013  11.218  0.6121  3.9433  0.3966
  994MOL0     H34173   8.324   5.191  11.290 -0.4027 -0.9636 -0.1825
  994MOL0     H34174   8.795   5.356  11.428 -1.5757 -2.6358 -0.7369
  994MOL0     H34175   8.926   5.501  11.557  0.2519 -2.0502  0.3841
  994MOL0     H34176  10.282   6.964  11.074 -0.1615 -0.2374  0.0475
  994MOL0     H34177  10.518   6.900  11.100 -1.3392  2.9870  2.3523
  994MOL0     H34178  10.822   6.659  11.172  0.3290 -3.9769 -0.9124
  994MOL0     H34179  11.035   6.550  11.192  1.7521  0.1263  1.0277
  994MOL0     H34180  11.265   6.553  11.593 -1.4377 -1.7143  2.1765
  994MOL0     H34181  11.151   6.425  11.566 -0.2285  1.4165  2.6585
  994MOL0     H34182  11.388   6.343  11.602 -1.9020  2.3687  0.5604
  994MOL0     H34183  11.425   6.388  11.429 -0.9471 -1.9888 -1.9967
  994MOL0     H34184  11.241   6.245  11.354  1.0396 -2.2833 -0.2834
  994MOL0     H34185  11.208   6.192  11.518 -0.6647  0.9278  0.7263
  994MOL0     H34186  11.486   6.179  11.388 -0.5508 -1.8307 -2.6680
  994MOL0     H34187  11.388   6.035  11.381 -0.6537 -0.0139 -0.9846
  994MOL0     H34188  11.525   6.042  11.782  0.9569  4.6619  0.1435
  994MOL0     H34189  11.031   6.624  11.621  1.6411  0.8191 -1.7921
  994MOL0     H34190  10.821   6.757  11.583 -0.1299 -1.6129  1.6143
  995MOL0     O34191   0.943   3.811   3.006  0.2952  0.6428 -0.1227
  995MOL0     C34192   0.864   3.821   2.907  0.4224 -0.0947 -0.5599
  995MOL0     O34193   0.900   3.875   2.785  1.2915 -0.3869 -0.4339
  995MOL0     C34194   1.030   3.874   2.759 -0.1314  1.0412 -0.1312
  995MOL0     C34195   1.069   3.779   2.668  1.8944 -1.1074 -0.7173
  995MOL0     C34196   1.207   3.766   2.633  1.2835 -1.0375 -0.6533
  995MOL0     C34197   1.297   3.836   2.707 -0.1739 -1.2392 -0.3490
  995MOL0     O34198   1.434   3.816   2.698  0.8146 -0.2387  0.8450
  995MOL0     C34199   1.477   3.679   2.697 -1.1279  0.4350  0.7523
  995MOL0     C34200   1.629   3.685   2.679 -0.4474 -0.9112 -0.1821
  995MOL0     C34201   1.684   3.754   2.556 -0.2638  0.5016  0.3571
  995MOL0     C34202   1.837   3.748   2.539 -0.6171  1.2297 -0.1447
  995MOL0     C34203   1.889   3.823   2.411 -0.5650 -0.0278 -0.0093
  995MOL0     C34204   2.038   3.799   2.371 -0.4574 -0.3556 -0.0343
  995MOL0     C34205   2.144   3.870   2.455 -0.1323 -0.5305  0.4334
  995MOL0     C34206   2.219   3.776   2.551 -0.3329  0.1692  0.5451
  995MOL0     N34207   2.337   3.711   2.489  0.3670 -0.3764 -0.5136
  995MOL0     C34208   2.378   3.582   2.521  0.5259  0.6752 -0.2444
  995MOL0     C34209   2.506   3.566   2.480  0.5677  0.6694 -0.3063
  995MOL0     C34210   2.599   3.454   2.502  0.1336  0.3457 -0.0670
  995MOL0     C34211   2.561   3.331   2.581 -0.4939  0.0267  0.5236
  995MOL0     C34212   2.672   3.220   2.557  0.3485 -0.4555  0.2078
  995MOL0     C34213   2.688   3.122   2.669 -0.2239  0.3962  0.2195
  995MOL0     O34214   2.768   3.019   2.623 -0.0298 -0.1612  0.5217
  995MOL0     C34215   2.809   2.924   2.714 -0.4287  0.4157 -0.1756
  995MOL0     C34216   2.904   2.830   2.673  1.0079 -0.5952 -0.3385
  995MOL0     C34217   2.945   2.719   2.748  0.6818 -0.0128  0.7567
  995MOL0     C34218   3.013   2.613   2.670 -0.0221  0.0635 -0.2349
  995MOL0     C34219   2.909   2.707   2.887 -0.4317 -0.0706 -0.2035
  995MOL0     C34220   2.938   2.593   2.977 -0.3284 -0.2572  0.4186
  995MOL0     O34221   2.970   2.468   2.907  0.2262 -0.1081  0.1397
  995MOL0     C34222   3.038   2.369   2.973  0.2484 -0.4061 -0.4564
  995MOL0     C34223   3.005   2.308   3.101 -1.0757  0.8515  0.5599
  995MOL0     C34224   3.083   2.193   3.140  0.6618  0.5097 -0.0565
  995MOL0     C34225   3.187   2.141   3.065 -0.1597 -0.5427  0.1687
  995MOL0     O34226   3.252   2.024   3.101  0.4498 -0.1417 -0.7696
  995MOL0     C34227   3.175   1.902   3.115 -0.4796  0.0620  0.7647
  995MOL0     C34228   3.264   1.780   3.104 -0.0492  0.4491  0.6048
  995MOL0     C34229   3.290   1.749   2.950 -0.1307 -0.4560 -0.0983
  995MOL0     C34230   3.433   1.686   2.940  0.9930 -0.6027 -0.6495
  995MOL0     C34231   3.475   1.619   2.813 -0.0596  0.3249  0.7137
  995MOL0     C34232   3.412   1.670   2.688 -1.0183  0.8665 -0.0832
  995MOL0     C34233   3.449   1.591   2.556 -0.0120 -0.5351 -0.0816
  995MOL0     C34234   3.592   1.606   2.523  0.0296  0.4884 -0.3240
  995MOL0    Cl34235   3.615   1.538   2.350 -0.0369  0.4979 -0.2781
  995MOL0     C34236   3.210   2.197   2.933 -0.5325 -0.3413 -1.0701
  995MOL0     C34237   3.144   2.313   2.891  0.2955  0.0121 -0.4557
  995MOL0     O34238   2.917   2.602   3.094 -0.1022  0.1636 -0.0140
  995MOL0     C34239   2.831   2.820   2.930 -0.1256  0.4914  0.2777
  995MOL0     C34240   2.784   2.927   2.856  0.2589  1.0012 -0.4058
  995MOL0     N34241   2.528   3.678   2.405 -0.5549  0.5551 -0.7188
  995MOL0     N34242   2.433   3.766   2.418  0.0474  0.9593  0.4033
  995MOL0     C34243   1.252   3.931   2.801 -0.3316 -0.8406  0.4002
  995MOL0     C34244   1.118   3.953   2.827  0.2075  0.3550  0.0557
  995MOL0     C34245   0.730   3.756   2.921  0.4628  0.3330  0.4099
  995MOL0     C34246   0.686   3.694   3.032  0.1620 -0.4081 -0.3130
  995MOL0     C34247   0.555   3.654   3.051  0.1896 -0.5565  0.2407
  995MOL0     C34248   0.464   3.666   2.942  0.8244 -0.4016  0.4580
  995MOL0     O34249   0.330   3.652   2.975  0.3036 -0.2565 -0.3789
  995MOL0     C34250   0.221   3.661   2.879  0.4192 -0.8214 -0.2989
  995MOL0     C34251   0.177   3.812   2.871  0.8387  0.7151  0.3858
  995MOL0     C34252   0.042   3.821   2.796 -0.0435 -0.9374 -0.4156
  995MOL0     C34253   0.065   3.771   2.650  0.4985 -0.0080 -0.4407
  995MOL0     C34254  -0.042   3.779   2.557  0.7078 -0.1518  0.2066
  995MOL0     C34255  -0.142   3.782   2.499 -0.3878 -0.0939 -0.1184
  995MOL0     C34256   0.510   3.716   2.816  0.4682 -0.0075 -0.0967
  995MOL0     C34257   0.643   3.763   2.815 -0.6786 -0.9170 -0.2919
  995MOL0     H34258   0.982   3.718   2.643  0.0830 -0.5661  3.3987
  995MOL0     H34259   1.220   3.694   2.553  1.9132  1.0311 -2.5387
  995MOL0     H34260   1.451   3.633   2.793 -0.5297 -3.0015 -0.5765
  995MOL0     H34261   1.438   3.607   2.624  1.3565 -3.9395  3.2641
  995MOL0     H34262   1.672   3.724   2.772 -0.6361  0.2914 -0.5790
  995MOL0     H34263   1.674   3.586   2.687  0.3441 -0.4759  1.1226
  995MOL0     H34264   1.643   3.694   2.474 -0.1604  0.0185  0.6551
  995MOL0     H34265   1.657   3.860   2.548  1.1254  0.7548 -3.0033
  995MOL0     H34266   1.868   3.796   2.633 -1.5829  1.9565 -0.1814
  995MOL0     H34267   1.876   3.646   2.531 -1.9764  0.8077 -1.8925
  995MOL0     H34268   1.842   3.773   2.325  1.7928  0.7069 -1.8474
  995MOL0     H34269   1.855   3.927   2.413 -0.2947  0.0770 -0.5507
  995MOL0     H34270   2.068   3.693   2.376  2.3623  0.3873  0.5744
  995MOL0     H34271   2.052   3.822   2.265 -3.2521 -1.0898 -0.6554
  995MOL0     H34272   2.206   3.921   2.381 -0.6240 -1.8778 -0.9667
  995MOL0     H34273   2.099   3.950   2.514 -0.3065  0.0157 -0.4277
  995MOL0     H34274   2.157   3.697   2.593  0.1655 -1.0979 -0.9880
  995MOL0     H34275   2.249   3.833   2.640  0.7859  0.5329 -0.0469
  995MOL0     H34276   2.315   3.511   2.574  0.9775 -2.3841 -3.4523
  995MOL0     H34277   2.635   3.425   2.403 -2.3167 -0.3697 -0.8374
  995MOL0     H34278   2.688   3.484   2.557  3.1637 -0.5300 -3.9942
  995MOL0     H34279   2.461   3.294   2.555  0.1773  0.2125 -2.6666
  995MOL0     H34280   2.568   3.359   2.686  0.1566 -2.8420  1.3454
  995MOL0     H34281   2.765   3.277   2.543 -0.8384  1.6026  0.3449
  995MOL0     H34282   2.642   3.170   2.465 -0.2962  1.6007 -0.7516
  995MOL0     H34283   2.588   3.079   2.682 -0.7986  2.0128  1.6321
  995MOL0     H34284   2.730   3.172   2.757  1.1753 -0.6651  0.1921
  995MOL0     H34285   2.924   2.832   2.566 -1.2722  0.1200 -0.8069
  995MOL0     H34286   3.115   2.591   2.704 -0.8246  0.8497  3.0278
  995MOL0     H34287   2.953   2.524   2.688 -2.3373  1.3709 -1.1450
  995MOL0     H34288   3.010   2.634   2.563 -2.3658  1.9898  0.1321
  995MOL0     H34289   2.922   2.323   3.170 -1.3259 -2.0130  1.0260
  995MOL0     H34290   3.063   2.157   3.240 -2.5396  3.0601  0.4024
  995MOL0     H34291   3.137   1.897   3.218  1.0740 -0.2402  1.3450
  995MOL0     H34292   3.093   1.914   3.044  0.8307 -0.5092 -0.9006
  995MOL0     H34293   3.355   1.797   3.162  0.8019  0.2112 -0.6177
  995MOL0     H34294   3.218   1.689   3.144 -1.0363 -0.6647 -2.6978
  995MOL0     H34295   3.285   1.841   2.892 -1.0755 -0.1832  0.3893
  995MOL0     H34296   3.216   1.675   2.919 -1.8463  0.5210  1.4722
  995MOL0     H34297   3.498   1.773   2.956 -2.2577  2.1055 -1.0959
  995MOL0     H34298   3.432   1.612   3.021 -1.6116  1.1074  1.0161
  995MOL0     H34299   3.448   1.513   2.812  3.0387 -0.5787  0.5377
  995MOL0     H34300   3.584   1.621   2.801 -0.2971  0.7281 -1.8173
  995MOL0     H34301   3.305   1.648   2.699 -0.6018 -1.3343  0.1610
  995MOL0     H34302   3.442   1.774   2.673 -0.5138  0.4918 -1.9274
  995MOL0     H34303   3.388   1.627   2.473 -1.5348  1.4632  1.8019
  995MOL0     H34304   3.431   1.483   2.566 -1.0762 -0.5608 -1.8357
  995MOL0     H34305   3.649   1.537   2.586 -0.0478  1.8076  1.2275
  995MOL0     H34306   3.636   1.705   2.527  0.6337  0.1845  2.9785
  995MOL0     H34307   3.293   2.164   2.871  2.2370  0.7982  1.7310
  995MOL0     H34308   3.176   2.365   2.801 -1.5046  0.2662 -0.9866
  995MOL0     H34309   2.800   2.819   3.034  0.7744  0.4415  0.5558
  995MOL0     H34310   2.715   3.001   2.896  0.6762  1.9371 -1.3560
  995MOL0     H34311   1.308   4.013   2.846 -0.2153  2.5383 -5.0256
  995MOL0     H34312   1.078   4.017   2.905  1.3980  1.3140 -0.0860
  995MOL0     H34313   0.749   3.671   3.118  0.7951 -1.3015 -1.0027
  995MOL0     H34314   0.517   3.620   3.147 -0.7282 -3.9819 -1.1587
  995MOL0     H34315   0.249   3.625   2.779  1.8525  2.7501 -1.3560
  995MOL0     H34316   0.132   3.607   2.912 -1.1317  3.7325  4.4513
  995MOL0     H34317   0.251   3.878   2.825  0.4966  1.0961  0.3796
  995MOL0     H34318   0.155   3.840   2.975 -0.9168  0.2152  0.1907
  995MOL0     H34319   0.010   3.925   2.798  0.3196 -0.8251  1.3406
  995MOL0     H34320  -0.031   3.756   2.845  1.7963 -3.0546 -0.2854
  995MOL0     H34321   0.084   3.663   2.653  1.6899  0.0287 -3.4483
  995MOL0     H34322   0.155   3.816   2.609  0.9067 -3.0429 -3.3737
  995MOL0     H34323  -0.233   3.781   2.443 -2.4457 -3.0360  2.8798
  995MOL0     H34324   0.449   3.737   2.729 -1.2096 -3.0059  0.2367
  995MOL0     H34325   0.680   3.788   2.716 -1.6863  1.2712 -0.1870
  996MOL0     O34326  11.099   8.131   4.422  0.6081  0.1584 -0.0488
  996MOL0     C34327  10.995   8.067   4.426 -0.5989  0.9808  0.2163
  996MOL0     O34328  10.912   8.067   4.526  1.3884  0.6547 -0.5335
  996MOL0     C34329  10.957   8.140   4.640  0.9192  0.8606  0.3883
  996MOL0     C34330  10.901   8.266   4.665 -1.1525 -0.4353 -0.6771
  996MOL0     C34331  10.945   8.343   4.778 -0.2171 -0.0293  0.7601
  996MOL0     C34332  11.049   8.289   4.863  0.1250 -0.0835  0.6197
  996MOL0     O34333  11.102   8.321   4.981  0.2076 -0.0179 -0.1281
  996MOL0     C34334  11.063   8.460   5.012  0.3647  1.2064 -0.5728
  996MOL0     C34335  11.129   8.499   5.151 -0.1740  0.1541 -0.6403
  996MOL0     C34336  11.284   8.499   5.149  1.1536  1.1900 -1.0827
  996MOL0     C34337  11.354   8.603   5.237  0.3604 -0.0884  0.1967
  996MOL0     C34338  11.365   8.569   5.390  0.2776  0.4453 -0.8433
  996MOL0     C34339  11.239   8.576   5.473 -0.2117  0.0276  0.3746
  996MOL0     C34340  11.194   8.725   5.462  0.1040 -0.3331 -0.9101
  996MOL0     C34341  11.085   8.743   5.568 -0.2827 -0.3938 -0.0305
  996MOL0     N34342  10.969   8.651   5.541  0.0466 -0.9967  0.6407
  996MOL0     C34343  10.873   8.682   5.452  0.2004 -0.1834 -0.2197
  996MOL0     C34344  10.799   8.568   5.442  0.5074  0.0003 -1.0236
  996MOL0     C34345  10.677   8.537   5.364  0.3004 -0.0157 -0.4640
  996MOL0     C34346  10.666   8.650   5.257 -0.2474  1.1786  0.2118
  996MOL0     C34347  10.565   8.630   5.142 -0.4347 -0.8813 -0.4506
  996MOL0     C34348  10.531   8.757   5.078  0.3535 -0.2589 -0.0269
  996MOL0     O34349  10.647   8.816   5.012 -1.8366  0.7762 -0.6454
  996MOL0     C34350  10.667   8.801   4.875  0.4156 -0.3349 -1.1296
  996MOL0     C34351  10.735   8.903   4.802 -0.6240  1.0606  0.4757
  996MOL0     C34352  10.748   8.894   4.664 -0.6965 -0.3042  0.6768
  996MOL0     C34353  10.822   9.012   4.599  0.3356  1.0353  0.1844
  996MOL0     C34354  10.700   8.781   4.593 -0.1766  0.5040  0.7721
  996MOL0     C34355  10.700   8.770   4.444  0.5093 -0.2829  0.3041
  996MOL0     O34356  10.610   8.674   4.392  0.3328  0.4414 -0.9362
  996MOL0     C34357  10.627   8.630   4.267  0.7627 -0.8363  0.3730
  996MOL0     C34358  10.544   8.677   4.157 -0.2377  0.1874 -0.0539
  996MOL0     C34359  10.570   8.639   4.020  0.2452  0.3249 -0.0041
  996MOL0     C34360  10.676   8.553   3.990  0.0279  0.8799 -0.3012
  996MOL0     O34361  10.708   8.509   3.860  0.3689  0.1288 -0.7190
  996MOL0     C34362  10.656   8.577   3.742  0.1901  0.7858  0.0747
  996MOL0     C34363  10.711   8.524   3.618 -1.1062  0.1193 -0.1117
  996MOL0     C34364  10.860   8.522   3.607  0.0148  0.1266 -1.1553
  996MOL0     C34365  10.885   8.464   3.466 -1.3063 -0.9097 -0.1843
  996MOL0     C34366  11.028   8.468   3.425 -0.1010  0.7736  0.9235
  996MOL0     C34367  11.113   8.354   3.493 -0.5842 -0.0941 -0.1027
  996MOL0     C34368  11.258   8.387   3.467 -0.7403 -0.5163  0.3203
  996MOL0     C34369  11.321   8.462   3.586 -0.5818 -0.4490  0.6582
  996MOL0    Cl34370  11.299   8.340   3.715 -0.3433 -0.0152  0.0092
  996MOL0     C34371  10.757   8.509   4.094  0.1607  0.5751  0.0916
  996MOL0     C34372  10.735   8.551   4.225 -0.1266  0.0398  0.6937
  996MOL0     O34373  10.770   8.842   4.376 -0.4331 -0.4717 -0.0386
  996MOL0     C34374  10.636   8.679   4.664  0.4709  0.3446  0.2333
  996MOL0     C34375  10.617   8.693   4.800  0.0392  0.2911  0.0146
  996MOL0     N34376  10.843   8.479   5.537 -0.1779 -0.0448 -0.0547
  996MOL0     N34377  10.950   8.528   5.595 -0.9490 -0.1415 -0.0546
  996MOL0     C34378  11.094   8.161   4.831 -0.8329  0.0849  0.1913
  996MOL0     C34379  11.045   8.080   4.728 -0.6337 -0.3534 -0.4387
  996MOL0     C34380  10.973   7.981   4.306 -0.6598 -0.0408 -1.5398
  996MOL0     C34381  10.901   7.860   4.327  0.9357  0.0864 -0.1675
  996MOL0     C34382  10.862   7.792   4.216  0.4447 -0.6330  0.0345
  996MOL0     C34383  10.909   7.831   4.089  0.7285 -0.2074 -0.4235
  996MOL0     O34384  10.865   7.762   3.981 -0.1986  0.3084 -0.3367
  996MOL0     C34385  10.829   7.634   3.984  0.3927  0.3170  0.4106
  996MOL0     C34386  10.941   7.546   4.040 -0.3439  0.4076 -0.5801
  996MOL0     C34387  11.071   7.561   3.954 -1.1708  0.2535 -0.5684
  996MOL0     C34388  11.184   7.478   4.026 -0.0969 -0.2577 -0.1573
  996MOL0     C34389  11.246   7.378   3.931 -0.1834 -1.1501 -0.1098
  996MOL0     C34390  11.297   7.282   3.879  0.0971 -1.2220 -0.0102
  996MOL0     C34391  10.984   7.946   4.071  0.2444  0.9070 -1.0025
  996MOL0     C34392  11.016   8.019   4.179 -0.4304 -0.6191  0.6568
  996MOL0     H34393  10.817   8.313   4.614 -2.1025  1.3493  2.2703
  996MOL0     H34394  10.894   8.436   4.803 -0.4103  0.1237 -0.1787
  996MOL0     H34395  11.103   8.527   4.935  0.5789 -1.1597 -2.6721
  996MOL0     H34396  10.954   8.465   5.017  0.4387  1.6192  1.1500
  996MOL0     H34397  11.099   8.600   5.181  2.0737  0.6825  0.0913
  996MOL0     H34398  11.092   8.429   5.227 -1.6648  1.4934 -0.0754
  996MOL0     H34399  11.334   8.403   5.161 -0.3968  0.6275  1.5069
  996MOL0     H34400  11.309   8.514   5.043  0.9248 -2.2260 -1.7348
  996MOL0     H34401  11.462   8.598   5.222  0.3032 -3.4619  0.1908
  996MOL0     H34402  11.323   8.706   5.214  2.0614  0.8222  1.7996
  996MOL0     H34403  11.408   8.469   5.399 -0.5597  0.1281 -0.2886
  996MOL0     H34404  11.439   8.637   5.436 -1.5364  0.7432  1.8571
  996MOL0     H34405  11.164   8.505   5.438 -0.7322 -0.9213  3.1792
  996MOL0     H34406  11.258   8.537   5.573  0.3236 -3.0897 -0.8243
  996MOL0     H34407  11.267   8.804   5.484 -0.3199  0.2600 -1.5992
  996MOL0     H34408  11.158   8.742   5.360 -0.0536 -2.5203 -1.2732
  996MOL0     H34409  11.036   8.840   5.568 -1.6354 -0.9984  2.2201
  996MOL0     H34410  11.124   8.722   5.668  0.1426 -0.6427 -0.2430
  996MOL0     H34411  10.882   8.779   5.405  0.9868 -0.5344 -0.8281
  996MOL0     H34412  10.682   8.448   5.300 -3.1314 -3.4840  3.4046
  996MOL0     H34413  10.587   8.525   5.425  0.3215 -1.0054 -0.6024
  996MOL0     H34414  10.761   8.653   5.202 -0.5762 -1.4490 -0.6305
  996MOL0     H34415  10.650   8.744   5.311  0.8854  0.9927  0.8952
  996MOL0     H34416  10.472   8.579   5.169  0.2214 -1.1517  1.4362
  996MOL0     H34417  10.606   8.569   5.061 -0.1787 -0.0951 -0.9290
  996MOL0     H34418  10.505   8.830   5.155 -3.1127  1.7367 -2.8219
  996MOL0     H34419  10.446   8.748   5.009 -0.4252  3.1183  0.3429
  996MOL0     H34420  10.774   8.989   4.855  1.7992  0.9374 -0.9671
  996MOL0     H34421  10.855   9.084   4.675 -1.0703  1.3424  0.5317
  996MOL0     H34422  10.911   8.974   4.548  0.6941  3.8519 -1.5122
  996MOL0     H34423  10.761   9.069   4.528  2.0888 -0.1537 -2.4295
  996MOL0     H34424  10.467   8.751   4.175  1.7557  2.5720 -0.7651
  996MOL0     H34425  10.516   8.690   3.941 -0.4570  2.6217  1.8217
  996MOL0     H34426  10.548   8.566   3.733  0.2231 -0.4285  0.8447
  996MOL0     H34427  10.698   8.678   3.742  0.5988  0.6187  0.0495
  996MOL0     H34428  10.675   8.422   3.601  2.8322 -1.4634  0.0033
  996MOL0     H34429  10.670   8.595   3.545  1.7905  1.9701 -0.1093
  996MOL0     H34430  10.907   8.445   3.668  1.7637  2.7035  0.9823
  996MOL0     H34431  10.906   8.621   3.621  1.1046 -0.5404  0.1606
  996MOL0     H34432  10.848   8.361   3.455 -2.3566 -0.6436  0.6749
  996MOL0     H34433  10.827   8.536   3.408 -1.2393 -0.5161  0.2317
  996MOL0     H34434  11.073   8.561   3.462  0.7816 -0.4745  3.2152
  996MOL0     H34435  11.036   8.454   3.317 -1.0299 -0.0643  0.9504
  996MOL0     H34436  11.091   8.345   3.600 -1.6010  1.1745 -0.1812
  996MOL0     H34437  11.095   8.262   3.436 -0.5411 -0.4194  0.4067
  996MOL0     H34438  11.274   8.440   3.373  2.3790  1.8795  1.9932
  996MOL0     H34439  11.325   8.304   3.447  0.7156  0.0351  2.5026
  996MOL0     H34440  11.259   8.551   3.604 -0.3573 -0.2634  0.5138
  996MOL0     H34441  11.423   8.496   3.571  0.0310 -2.3328  0.2684
  996MOL0     H34442  10.840   8.441   4.079 -1.2751 -1.7338  1.8286
  996MOL0     H34443  10.797   8.507   4.302 -1.8291  1.8270  3.2312
  996MOL0     H34444  10.583   8.598   4.616 -1.9839  0.6380  2.2649
  996MOL0     H34445  10.551   8.620   4.846 -2.6213  1.7427 -1.2666
  996MOL0     H34446  11.172   8.131   4.900  1.1234 -2.2828 -2.7456
  996MOL0     H34447  11.087   7.980   4.723  3.3004  0.9080  2.6693
  996MOL0     H34448  10.849   7.821   4.413  1.0021 -1.3560 -0.7533
  996MOL0     H34449  10.813   7.697   4.234 -2.5239  0.0673 -3.2137
  996MOL0     H34450  10.739   7.636   4.045 -0.4723 -0.2389 -0.7981
  996MOL0     H34451  10.805   7.613   3.879  2.5555  3.5274 -0.8742
  996MOL0     H34452  10.905   7.443   4.042  2.1797 -0.5706 -1.9130
  996MOL0     H34453  10.972   7.573   4.142  0.8103 -3.2910  0.1876
  996MOL0     H34454  11.099   7.666   3.946 -1.8053  0.7133  2.1487
  996MOL0     H34455  11.056   7.525   3.852  3.9820 -2.7210 -0.6354
  996MOL0     H34456  11.143   7.405   4.097 -2.4051 -0.1991 -1.3293
  996MOL0     H34457  11.255   7.548   4.070 -0.3917  0.6111 -1.0334
  996MOL0     H34458  11.342   7.194   3.837  0.1052 -1.3019  0.1661
  996MOL0     H34459  11.019   7.972   3.971 -1.6269  0.3682 -1.8342
  996MOL0     H34460  11.057   8.119   4.181 -0.3327 -0.6597  2.9163
  997MOL0     O34461   9.487   9.426   3.188 -0.5910  0.4801  0.4557
  997MOL0     C34462   9.467   9.311   3.156 -0.2697  0.2402 -0.5852
  997MOL0     O34463   9.452   9.199   3.239 -0.4812 -0.8918  0.4288
  997MOL0     C34464   9.480   9.188   3.372  0.1862  0.1298  0.1847
  997MOL0     C34465   9.488   9.057   3.409 -0.1560  0.3903 -0.0838
  997MOL0     C34466   9.484   9.028   3.545 -0.4758 -0.0469 -0.8196
  997MOL0     C34467   9.477   9.139   3.644  0.1770 -0.8527 -0.8080
  997MOL0     O34468   9.440   9.103   3.771 -0.6765  0.2876  0.6437
  997MOL0     C34469   9.452   9.214   3.864 -0.2718  1.0165 -0.2197
  997MOL0     C34470   9.471   9.156   4.006  0.7842 -0.6904  0.6267
  997MOL0     C34471   9.440   9.256   4.111 -0.1585 -0.3620 -0.2179
  997MOL0     C34472   9.474   9.198   4.249  0.3344 -0.0729  0.6500
  997MOL0     C34473   9.419   9.289   4.360 -0.5945 -0.4074 -0.4747
  997MOL0     C34474   9.507   9.411   4.418  0.1200 -0.3937  0.0323
  997MOL0     C34475   9.422   9.540   4.431  0.6646  0.0940  0.2149
  997MOL0     C34476   9.496   9.663   4.497 -0.6737  0.5918 -0.2189
  997MOL0     N34477   9.539   9.636   4.641  1.1960 -0.3015 -0.6690
  997MOL0     C34478   9.463   9.582   4.753 -0.3073 -0.3572  0.6818
  997MOL0     C34479   9.537   9.582   4.861 -0.3215  0.1501 -0.4802
  997MOL0     C34480   9.503   9.524   4.998 -0.9302 -0.5875  0.0575
  997MOL0     C34481   9.358   9.539   5.039  0.4955 -0.5126 -0.5192
  997MOL0     C34482   9.325   9.458   5.171  0.0514  1.0935  0.0824
  997MOL0     C34483   9.401   9.515   5.294 -0.5825 -0.3809  0.5356
  997MOL0     O34484   9.355   9.431   5.395  0.1359  0.6035 -0.0048
  997MOL0     C34485   9.383   9.456   5.525  0.3455  0.9070  0.4375
  997MOL0     C34486   9.453   9.565   5.567 -1.0593  0.9879  0.3419
  997MOL0     C34487   9.483   9.580   5.706 -0.0117 -0.2834  1.0485
  997MOL0     C34488   9.588   9.681   5.746  0.6352 -0.0894 -0.2380
  997MOL0     C34489   9.424   9.485   5.795  1.7263  0.7298 -0.2703
  997MOL0     C34490   9.441   9.492   5.943  0.7462 -0.5174 -0.7109
  997MOL0     O34491   9.419   9.382   6.020 -0.4523 -0.4360 -0.5425
  997MOL0     C34492   9.432   9.376   6.162  0.2775  0.0143  0.0858
  997MOL0     C34493   9.448   9.245   6.211  0.4189 -0.4353  0.2564
  997MOL0     C34494   9.470   9.231   6.351  0.4214 -0.6545  0.0322
  997MOL0     C34495   9.483   9.332   6.439 -0.2762 -0.3911 -0.5381
  997MOL0     O34496   9.509   9.318   6.579 -0.1928 -0.2436  0.3817
  997MOL0     C34497   9.550   9.203   6.642  0.8558 -0.6359 -0.1480
  997MOL0     C34498   9.613   9.227   6.782 -0.1575 -0.2706 -0.0126
  997MOL0     C34499   9.651   9.092   6.839  0.5550 -0.3612 -0.0078
  997MOL0     C34500   9.784   9.027   6.800  0.5265 -0.4937  0.0822
  997MOL0     C34501   9.819   8.893   6.857  0.5413 -0.1251 -0.0057
  997MOL0     C34502   9.958   8.857   6.836 -0.1781  0.4862 -1.5133
  997MOL0     C34503   9.985   8.844   6.687  0.5044  0.4857 -0.6203
  997MOL0     C34504  10.140   8.815   6.667  1.5891 -0.2762 -1.6423
  997MOL0    Cl34505  10.179   8.645   6.717  0.7245  0.3131 -0.4421
  997MOL0     C34506   9.460   9.456   6.391 -0.7804 -0.4213  0.3422
  997MOL0     C34507   9.436   9.484   6.254  0.9909  1.1415 -0.5595
  997MOL0     O34508   9.468   9.601   5.992 -0.2039  0.5836  0.9391
  997MOL0     C34509   9.339   9.378   5.742 -0.7260 -0.3220 -0.0241
  997MOL0     C34510   9.325   9.366   5.608 -0.6969  0.1610  0.4293
  997MOL0     N34511   9.653   9.648   4.822  0.3787  0.3802  0.6298
  997MOL0     N34512   9.652   9.679   4.696  0.5225 -0.2138 -0.1760
  997MOL0     C34513   9.462   9.268   3.598 -0.2484  0.0635 -0.5790
  997MOL0     C34514   9.472   9.293   3.465  0.4051 -0.7886  0.4770
  997MOL0     C34515   9.485   9.281   3.014 -0.5110  0.4902 -0.0279
  997MOL0     C34516   9.449   9.373   2.921 -0.8637  0.4337  1.2379
  997MOL0     C34517   9.453   9.344   2.779  0.5829  0.0690 -0.2833
  997MOL0     C34518   9.498   9.221   2.736  1.3289 -0.0716 -0.2705
  997MOL0     O34519   9.512   9.192   2.603 -1.3050 -0.0396  1.1872
  997MOL0     C34520   9.416   9.095   2.563 -0.7170 -0.7061 -0.6093
  997MOL0     C34521   9.263   9.130   2.587 -0.5022 -0.0965 -0.5443
  997MOL0     C34522   9.168   9.038   2.513 -0.1166  0.6162  0.2438
  997MOL0     C34523   9.046   9.116   2.469 -0.0052  0.6661 -0.5590
  997MOL0     C34524   8.958   9.049   2.359  0.7657 -0.8475  0.5878
  997MOL0     C34525   8.884   8.984   2.294  0.1843  0.6156  0.5578
  997MOL0     C34526   9.544   9.128   2.827 -0.6622  0.1177  0.4844
  997MOL0     C34527   9.536   9.156   2.961 -0.0879  0.0359 -0.5390
  997MOL0     H34528   9.500   8.990   3.324 -1.0965  3.8516 -3.2573
  997MOL0     H34529   9.513   8.928   3.575  1.4691  0.1843 -1.7694
  997MOL0     H34530   9.543   9.272   3.844 -1.6121  2.3847 -2.9045
  997MOL0     H34531   9.374   9.289   3.852  0.9085  2.0345 -1.9329
  997MOL0     H34532   9.384   9.090   4.015 -0.2784  0.4598 -0.8641
  997MOL0     H34533   9.569   9.108   4.017  1.0545 -0.5059 -0.8939
  997MOL0     H34534   9.507   9.341   4.097 -1.1532  0.6254  0.7888
  997MOL0     H34535   9.338   9.294   4.120  0.9062  2.2990  1.5288
  997MOL0     H34536   9.428   9.099   4.252  3.1528 -1.6610 -1.7972
  997MOL0     H34537   9.582   9.180   4.257  0.5329 -0.4088 -1.8457
  997MOL0     H34538   9.313   9.317   4.351  0.2211  5.5830  2.9633
  997MOL0     H34539   9.430   9.210   4.435  3.3719  2.0886  1.8980
  997MOL0     H34540   9.539   9.377   4.517  3.4447 -0.7201 -1.0081
  997MOL0     H34541   9.592   9.437   4.353 -0.9747 -2.2969 -2.3276
  997MOL0     H34542   9.389   9.565   4.330  2.1280  0.5857 -0.1670
  997MOL0     H34543   9.334   9.512   4.491  1.1434 -1.7577  0.1361
  997MOL0     H34544   9.429   9.750   4.494 -4.0950 -1.8264 -2.3208
  997MOL0     H34545   9.582   9.681   4.432 -1.9043  3.1075 -1.2970
  997MOL0     H34546   9.359   9.552   4.750 -0.8416  1.1930  1.7894
  997MOL0     H34547   9.532   9.419   4.987 -1.6084 -0.6336 -1.5295
  997MOL0     H34548   9.561   9.570   5.078  0.3425  1.8340 -2.1010
  997MOL0     H34549   9.297   9.525   4.949  0.5121 -1.2331 -0.4238
  997MOL0     H34550   9.344   9.640   5.079 -2.0771 -1.4132  1.1384
  997MOL0     H34551   9.342   9.351   5.156  0.6283  0.9412  1.5911
  997MOL0     H34552   9.218   9.464   5.193 -0.4543 -2.5113 -0.7299
  997MOL0     H34553   9.381   9.622   5.303  0.9760  0.0408 -0.5518
  997MOL0     H34554   9.509   9.510   5.281 -0.3521  2.8994  0.3201
  997MOL0     H34555   9.499   9.645   5.510 -1.8555  2.6955  1.9989
  997MOL0     H34556   9.668   9.628   5.799 -0.3694 -1.7459 -0.3114
  997MOL0     H34557   9.640   9.741   5.672 -1.4667 -0.3082 -1.9894
  997MOL0     H34558   9.551   9.754   5.818 -0.2322 -1.1988  0.4823
  997MOL0     H34559   9.443   9.161   6.142 -1.6562  0.7530 -1.1427
  997MOL0     H34560   9.470   9.130   6.391 -0.0339  0.4450  3.1433
  997MOL0     H34561   9.469   9.130   6.644  0.1044  0.1676 -0.5781
  997MOL0     H34562   9.627   9.154   6.583  0.2312 -0.8207 -0.8259
  997MOL0     H34563   9.702   9.290   6.778  0.0936 -0.6800 -0.9812
  997MOL0     H34564   9.540   9.284   6.841 -0.8569  4.5246 -4.7044
  997MOL0     H34565   9.564   9.034   6.808  1.4460  0.1672 -4.0849
  997MOL0     H34566   9.654   9.104   6.947  1.8896 -2.0427  0.1824
  997MOL0     H34567   9.788   9.027   6.691 -1.8633 -0.7547 -0.0470
  997MOL0     H34568   9.861   9.093   6.841 -1.2580  0.5894  1.9184
  997MOL0     H34569   9.766   8.815   6.802  2.5068 -1.6387  0.1187
  997MOL0     H34570   9.787   8.887   6.962 -2.4601 -3.4552 -0.8847
  997MOL0     H34571  10.037   8.916   6.883 -0.8390 -1.6250  2.7387
  997MOL0     H34572   9.979   8.761   6.883  0.3969  0.9331 -0.8325
  997MOL0     H34573   9.954   8.932   6.630  0.4006  0.0776 -1.1967
  997MOL0     H34574   9.938   8.755   6.644  2.1744 -0.0617 -1.3986
  997MOL0     H34575  10.199   8.874   6.737  0.1776 -1.0904  0.3306
  997MOL0     H34576  10.172   8.845   6.567  3.6315  1.3111 -0.5847
  997MOL0     H34577   9.455   9.543   6.457  1.6811 -0.6288  0.9062
  997MOL0     H34578   9.412   9.586   6.226 -0.0359  1.0494 -0.0631
  997MOL0     H34579   9.287   9.300   5.796  0.4710 -0.3470  1.1406
  997MOL0     H34580   9.269   9.285   5.563 -0.9617 -1.4639  3.4515
  997MOL0     H34581   9.457   9.359   3.657  0.8148 -1.3012  1.7533
  997MOL0     H34582   9.450   9.392   3.428 -3.9375 -0.7854  2.4999
  997MOL0     H34583   9.430   9.473   2.958 -2.5404  0.2969  0.8597
  997MOL0     H34584   9.422   9.416   2.704 -0.1750 -1.1358 -1.1605
  997MOL0     H34585   9.441   9.095   2.457  1.9827 -1.3216 -0.0513
  997MOL0     H34586   9.433   9.000   2.614 -1.8880  0.4452  2.1430
  997MOL0     H34587   9.248   9.232   2.552 -2.9113 -1.6580 -4.8334
  997MOL0     H34588   9.253   9.121   2.695 -1.8591  0.8284 -0.5786
  997MOL0     H34589   9.137   8.954   2.575  0.0075  0.9159  0.7150
  997MOL0     H34590   9.221   9.006   2.423  2.9756  1.4304  1.6131
  997MOL0     H34591   9.065   9.215   2.427 -2.2452  0.5737 -2.0146
  997MOL0     H34592   8.975   9.133   2.551 -0.8313  0.5725 -1.2316
  997MOL0     H34593   8.826   8.928   2.223  4.6919 -1.6676 -1.8316
  997MOL0     H34594   9.592   9.038   2.790 -0.6084 -0.7808  2.6122
  997MOL0     H34595   9.570   9.075   3.026 -2.5189 -1.0957 -0.5785
  998MOL0     O34596  10.110   5.018   1.814  0.1050 -0.3414 -0.1780
  998MOL0     C34597  10.151   4.927   1.748  0.5117 -1.2871  0.9202
  998MOL0     O34598  10.062   4.841   1.676 -0.5075  0.6548  0.0333
  998MOL0     C34599   9.930   4.867   1.674 -0.6617 -0.2952  0.4663
  998MOL0     C34600   9.866   4.929   1.573  0.0857  0.0262  0.9978
  998MOL0     C34601   9.725   4.942   1.573  0.1142 -0.3998  0.3394
  998MOL0     C34602   9.659   4.894   1.691 -0.0040 -0.7580 -0.3356
  998MOL0     O34603   9.526   4.899   1.698 -0.2869  0.3596  0.3008
  998MOL0     C34604   9.436   4.875   1.588  0.7176 -0.7600  0.0518
  998MOL0     C34605   9.287   4.902   1.610 -0.2029 -0.4827  0.1950
  998MOL0     C34606   9.215   4.790   1.672  0.2425 -0.3487 -0.4872
  998MOL0     C34607   9.108   4.848   1.775  0.2626  0.7855  0.1676
  998MOL0     C34608   8.997   4.750   1.812  0.2208 -0.0996  0.1006
  998MOL0     C34609   9.033   4.610   1.867 -0.7000  0.5434 -0.6619
  998MOL0     C34610   8.904   4.521   1.880 -0.4108  0.0718  0.1165
  998MOL0     C34611   8.816   4.577   1.980 -0.0026 -0.5654 -0.5321
  998MOL0     N34612   8.726   4.477   2.042 -0.7077 -0.7757  0.4361
  998MOL0     C34613   8.587   4.498   2.032  0.3666  0.6264  0.3710
  998MOL0     C34614   8.551   4.383   2.088  0.8203 -0.2661  0.4720
  998MOL0     C34615   8.409   4.333   2.132  0.0352  0.0852 -0.1620
  998MOL0     C34616   8.382   4.193   2.067  0.1231  0.7780 -0.7215
  998MOL0     C34617   8.239   4.130   2.096 -0.0107 -0.1088  0.6318
  998MOL0     C34618   8.233   3.978   2.064 -0.0349 -0.5706  0.0525
  998MOL0     O34619   8.110   3.931   2.082 -0.9154  0.3669  0.3996
  998MOL0     C34620   8.092   3.802   2.099  1.3655  0.3266  0.5049
  998MOL0     C34621   7.965   3.761   2.149 -1.0608  0.1261  0.0786
  998MOL0     C34622   7.927   3.622   2.149 -0.8122 -0.1221  1.5723
  998MOL0     C34623   7.795   3.583   2.187 -0.4493 -0.3303 -0.0596
  998MOL0     C34624   8.014   3.524   2.103 -0.8459  0.9234  0.6258
  998MOL0     C34625   7.979   3.380   2.082 -0.0874  0.3591 -0.2924
  998MOL0     O34626   7.867   3.348   2.013 -0.3168  0.5219  0.0305
  998MOL0     C34627   7.839   3.216   1.986  0.1215  1.1627  0.0016
  998MOL0     C34628   7.859   3.173   1.861  0.5349 -0.7524 -0.0499
  998MOL0     C34629   7.805   3.045   1.812 -0.1241 -0.3477  0.6395
  998MOL0     C34630   7.754   2.960   1.914  0.0958 -0.2110 -0.1932
  998MOL0     O34631   7.694   2.841   1.874 -0.3760  0.9642 -0.1797
  998MOL0     C34632   7.741   2.724   1.943 -1.3346  0.6385  1.0440
  998MOL0     C34633   7.682   2.600   1.864  0.9604 -0.2423  1.3328
  998MOL0     C34634   7.719   2.612   1.715  0.5263 -0.0731 -0.3834
  998MOL0     C34635   7.694   2.468   1.652  0.6475 -0.4104  0.4650
  998MOL0     C34636   7.773   2.470   1.516  0.1675  0.0678  0.1472
  998MOL0     C34637   7.777   2.329   1.450 -1.4327  0.4271 -0.7156
  998MOL0     C34638   7.881   2.320   1.334  0.3310 -0.5206 -0.0997
  998MOL0     C34639   7.845   2.194   1.257  0.5750  0.1841 -0.6216
  998MOL0    Cl34640   7.895   2.046   1.358 -0.1427  0.6828 -0.0074
  998MOL0     C34641   7.742   3.002   2.043  0.1141  0.3612 -0.2227
  998MOL0     C34642   7.780   3.128   2.072 -0.6473 -0.3465 -0.4312
  998MOL0     O34643   8.055   3.305   2.139 -0.1904 -0.7441  0.1781
  998MOL0     C34644   8.139   3.575   2.057 -0.5128  0.8491 -0.1957
  998MOL0     C34645   8.173   3.706   2.046 -0.8861 -0.1276  0.0928
  998MOL0     N34646   8.651   4.302   2.124  0.7806  0.3055  0.3273
  998MOL0     N34647   8.759   4.359   2.093  0.5062  0.1992  0.1440
  998MOL0     C34648   9.715   4.833   1.794  0.2050 -1.0489 -0.6043
  998MOL0     C34649   9.852   4.823   1.783 -0.9555  0.2354  0.3608
  998MOL0     C34650  10.293   4.895   1.729  0.4773 -0.5707 -0.1346
  998MOL0     C34651  10.344   4.845   1.612  0.5160  0.3986 -1.3989
  998MOL0     C34652  10.481   4.847   1.585 -0.5389 -0.1280  0.0286
  998MOL0     C34653  10.570   4.908   1.675 -0.1120  0.5890  0.5820
  998MOL0     O34654  10.706   4.927   1.663  0.1291  0.1561  0.1465
  998MOL0     C34655  10.775   4.844   1.572  0.7728  0.2214  0.3872
  998MOL0     C34656  10.768   4.694   1.599  0.0890 -0.4844 -0.6542
  998MOL0     C34657  10.842   4.661   1.740 -0.2190  0.3676  0.9587
  998MOL0     C34658  10.733   4.647   1.849 -1.0471  0.1296 -0.9870
  998MOL0     C34659  10.796   4.604   1.981  0.9599  0.3465 -0.2534
  998MOL0     C34660  10.851   4.581   2.085 -0.4088  1.0020 -0.7698
  998MOL0     C34661  10.520   4.959   1.791  0.0982  0.2421 -0.7798
  998MOL0     C34662  10.382   4.953   1.823 -0.7556 -0.5489  0.8562
  998MOL0     H34663   9.924   4.969   1.491 -0.0194 -2.0502 -0.1754
  998MOL0     H34664   9.675   4.981   1.485 -2.3566  1.0518  2.2349
  998MOL0     H34665   9.456   4.948   1.510 -0.1089 -0.8260 -0.2360
  998MOL0     H34666   9.452   4.775   1.545 -1.9459 -0.6547 -1.4375
  998MOL0     H34667   9.283   4.993   1.670  0.7022 -1.7162  2.2598
  998MOL0     H34668   9.251   4.912   1.508  2.2715  0.4454 -0.6692
  998MOL0     H34669   9.174   4.716   1.602 -0.5217 -0.9901  0.6129
  998MOL0     H34670   9.280   4.731   1.737 -3.7618 -0.7085  3.6743
  998MOL0     H34671   9.158   4.880   1.867  1.7611  0.4840 -0.5219
  998MOL0     H34672   9.048   4.929   1.732 -2.0892 -2.2676 -2.7200
  998MOL0     H34673   8.918   4.798   1.869 -1.4349 -4.2327  1.6567
  998MOL0     H34674   8.942   4.713   1.725 -2.4121 -1.8752  2.3465
  998MOL0     H34675   9.103   4.557   1.801 -1.9830  0.3563 -1.9360
  998MOL0     H34676   9.085   4.630   1.961 -1.6298  1.0382 -0.2491
  998MOL0     H34677   8.845   4.511   1.788  1.0799 -1.7418 -0.7153
  998MOL0     H34678   8.938   4.421   1.907  3.9363  1.5321  0.8049
  998MOL0     H34679   8.765   4.656   1.923  1.1026 -1.1435 -2.4079
  998MOL0     H34680   8.880   4.615   2.060 -2.0408  0.0098  0.8838
  998MOL0     H34681   8.544   4.592   1.997 -0.6314  0.1476  0.2873
  998MOL0     H34682   8.414   4.321   2.241  1.4128 -0.3497 -0.2545
  998MOL0     H34683   8.320   4.393   2.111 -2.7448 -3.5736  0.1683
  998MOL0     H34684   8.449   4.118   2.110 -0.6751 -1.1284 -2.6188
  998MOL0     H34685   8.395   4.187   1.958 -0.6152 -1.0593 -0.7563
  998MOL0     H34686   8.177   4.181   2.022  1.4392  0.5566 -0.1815
  998MOL0     H34687   8.201   4.151   2.196  1.1576  1.0752  0.8579
  998MOL0     H34688   8.293   3.917   2.133 -0.8561 -1.1775  0.2472
  998MOL0     H34689   8.263   3.969   1.959  0.0336  0.2090  0.0030
  998MOL0     H34690   7.886   3.832   2.169 -0.5758  0.3604  1.2822
  998MOL0     H34691   7.737   3.560   2.097  1.5763 -2.0234 -1.0170
  998MOL0     H34692   7.799   3.488   2.241  1.3349 -0.9007 -1.1097
  998MOL0     H34693   7.752   3.661   2.250  1.1438  0.0957  0.5452
  998MOL0     H34694   7.894   3.243   1.786  1.3157 -1.1046 -0.0258
  998MOL0     H34695   7.816   3.031   1.705  0.0323  2.2783  0.2543
  998MOL0     H34696   7.849   2.709   1.949 -1.5096 -0.2952  2.3241
  998MOL0     H34697   7.712   2.728   2.048 -0.0838 -1.9881  1.5611
  998MOL0     H34698   7.720   2.508   1.908 -1.4528 -2.0494 -0.1021
  998MOL0     H34699   7.573   2.610   1.869  0.8853 -0.7859  0.9435
  998MOL0     H34700   7.825   2.630   1.697  0.3384  0.0956 -1.3718
  998MOL0     H34701   7.664   2.683   1.653  1.7455  0.7221 -0.5804
  998MOL0     H34702   7.726   2.383   1.713  2.0771 -0.9258 -0.9264
  998MOL0     H34703   7.587   2.454   1.633  0.6476 -0.4907  0.5212
  998MOL0     H34704   7.876   2.505   1.528 -0.3748  0.6737  5.4358
  998MOL0     H34705   7.739   2.545   1.444 -0.1634  1.5633  1.7836
  998MOL0     H34706   7.798   2.258   1.531 -2.5187 -0.6735 -1.3789
  998MOL0     H34707   7.678   2.301   1.413 -1.0099 -0.6378 -1.0685
  998MOL0     H34708   7.986   2.330   1.363  0.1140  0.8949  0.3184
  998MOL0     H34709   7.854   2.396   1.259 -1.8731 -4.3412 -3.6173
  998MOL0     H34710   7.904   2.202   1.165  1.8258 -1.1991  0.0269
  998MOL0     H34711   7.738   2.183   1.235  1.0093 -2.6846 -1.6746
  998MOL0     H34712   7.699   2.950   2.128  2.6577  3.8355  3.6077
  998MOL0     H34713   7.781   3.164   2.174 -1.0711 -1.5877  0.0265
  998MOL0     H34714   8.223   3.511   2.031 -1.4382  0.4866 -2.6281
  998MOL0     H34715   8.271   3.730   2.006 -0.5478  0.3802  1.1730
  998MOL0     H34716   9.658   4.797   1.879  0.3909  2.5600  1.2194
  998MOL0     H34717   9.907   4.765   1.857 -2.3008  1.5065  2.4461
  998MOL0     H34718  10.287   4.801   1.531  0.8165  2.4434 -2.7814
  998MOL0     H34719  10.502   4.820   1.481 -0.3485  1.2827 -0.3158
  998MOL0     H34720  10.746   4.876   1.472  0.4546  1.8141  0.9661
  998MOL0     H34721  10.880   4.874   1.574  1.1433 -1.0065  0.6280
  998MOL0     H34722  10.817   4.649   1.512  0.9207  2.6645 -1.9685
  998MOL0     H34723  10.666   4.653   1.597  0.2098 -0.8581 -3.4862
  998MOL0     H34724  10.914   4.736   1.772 -0.6000  0.7205  1.0029
  998MOL0     H34725  10.883   4.560   1.734  1.1030  0.9100  0.6683
  998MOL0     H34726  10.656   4.575   1.819 -1.4133  0.3113 -0.4986
  998MOL0     H34727  10.682   4.740   1.876 -0.4128  0.2547 -0.1947
  998MOL0     H34728  10.909   4.560   2.172 -1.1252 -0.5413 -0.6302
  998MOL0     H34729  10.581   5.018   1.859 -0.4772 -1.1378  1.0258
  998MOL0     H34730  10.346   4.981   1.921 -1.0156 -3.0207  1.5429
  999MOL0     O34731   4.968   1.765   9.760  0.3200 -0.5058  0.4468
  999MOL0     C34732   4.955   1.743   9.883 -0.4660  0.8994  0.3317
  999MOL0     O34733   5.034   1.809   9.984 -0.6725  0.0125 -0.3529
  999MOL0     C34734   5.146   1.880   9.945 -0.1932  0.4393  0.1433
  999MOL0     C34735   5.157   2.021   9.965  1.1304  0.4030 -0.1178
  999MOL0     C34736   5.269   2.091   9.933 -0.0219  0.6586 -0.0981
  999MOL0     C34737   5.377   2.031   9.874 -0.3732 -0.1599  0.0115
  999MOL0     O34738   5.473   2.116   9.820 -0.1054  0.1949  0.0444
  999MOL0     C34739   5.504   2.125   9.680  0.3537  0.3605  0.3500
  999MOL0     C34740   5.396   2.192   9.593 -0.0594 -0.4778 -0.1270
  999MOL0     C34741   5.393   2.347   9.616  0.5773  0.1722  0.2928
  999MOL0     C34742   5.263   2.395   9.547 -0.3886 -0.2541 -0.7942
  999MOL0     C34743   5.259   2.543   9.558 -0.0085 -0.7626 -0.7777
  999MOL0     C34744   5.138   2.602   9.488  0.9921 -0.3319 -0.0683
  999MOL0     C34745   5.119   2.749   9.497  0.3470 -0.5147  0.1795
  999MOL0     C34746   5.187   2.833   9.390 -0.1176  0.3694 -0.7003
  999MOL0     N34747   5.143   2.964   9.403 -0.9498  0.0668  0.5706
  999MOL0     C34748   5.188   3.049   9.503 -0.1607 -0.0797  0.2214
  999MOL0     C34749   5.112   3.159   9.496 -0.2560  0.0972 -0.2450
  999MOL0     C34750   5.087   3.281   9.593 -0.2918 -0.7578  0.0854
  999MOL0     C34751   4.953   3.296   9.668  0.5393 -0.0589  0.6163
  999MOL0     C34752   4.910   3.176   9.762 -0.4768  0.6335  0.1253
  999MOL0     C34753   5.013   3.154   9.872  0.8084  0.3261  0.3375
  999MOL0     O34754   4.950   3.060   9.957 -0.7549 -0.0119  0.4657
  999MOL0     C34755   4.993   3.042  10.086 -0.8662 -0.1319 -0.0016
  999MOL0     C34756   5.114   3.100  10.128 -0.4458 -0.1968 -0.0286
  999MOL0     C34757   5.175   3.056  10.246 -0.2748 -0.2507 -0.2999
  999MOL0     C34758   5.318   3.097  10.270  0.3360  0.2797 -0.0673
  999MOL0     C34759   5.103   2.968  10.327 -0.9899  0.0934  1.1936
  999MOL0     C34760   5.146   2.942  10.462  0.5128  0.4892 -0.6215
  999MOL0     O34761   5.172   2.807  10.482 -0.2875  0.0840 -0.4009
  999MOL0     C34762   5.253   2.776  10.588 -0.4591 -0.7281  0.2808
  999MOL0     C34763   5.342   2.855  10.660 -0.2019  0.3656  0.2623
  999MOL0     C34764   5.428   2.800  10.759 -1.1067 -1.1728 -0.3764
  999MOL0     C34765   5.426   2.666  10.798  0.7518  0.5030 -0.4257
  999MOL0     O34766   5.510   2.616  10.897  0.9597 -0.4820  0.0244
  999MOL0     C34767   5.533   2.473  10.915 -0.4350 -0.0625 -0.2710
  999MOL0     C34768   5.658   2.454  11.005  0.7694 -1.0003 -0.3519
  999MOL0     C34769   5.779   2.492  10.909 -0.0906 -0.8239 -0.4291
  999MOL0     C34770   5.843   2.623  10.961 -0.2874  0.7330  1.0756
  999MOL0     C34771   5.935   2.617  11.079 -0.1647  0.2500 -0.9640
  999MOL0     C34772   6.018   2.743  11.085  0.9420  0.4759 -0.7977
  999MOL0     C34773   6.149   2.731  11.166 -0.2396  0.2105 -1.4572
  999MOL0     C34774   6.145   2.689  11.312 -0.7263  0.3625  0.4729
  999MOL0    Cl34775   6.064   2.816  11.407 -0.0308 -0.2719 -0.3053
  999MOL0     C34776   5.335   2.590  10.726  0.5877  0.1463 -0.6661
  999MOL0     C34777   5.243   2.643  10.628 -0.1637  0.6395 -0.8707
  999MOL0     O34778   5.153   3.037  10.552 -0.6202  0.5635 -1.0046
  999MOL0     C34779   4.977   2.923  10.281 -0.1958  0.1576  0.2615
  999MOL0     C34780   4.928   2.952  10.156 -0.2769 -0.3162  0.0079
  999MOL0     N34781   5.037   3.154   9.381  0.6845 -0.2996  0.3577
  999MOL0     N34782   5.045   3.031   9.329 -0.1439 -0.8440  0.0567
  999MOL0     C34783   5.382   1.899   9.864  0.4134 -0.0153  0.3743
  999MOL0     C34784   5.259   1.823   9.903 -0.2361  0.0495 -0.3727
  999MOL0     C34785   4.849   1.651   9.940 -0.3476 -0.3349  0.2476
  999MOL0     C34786   4.723   1.640   9.877 -0.1754  0.2195  0.4345
  999MOL0     C34787   4.616   1.565   9.920 -0.0244 -0.8641 -0.4409
  999MOL0     C34788   4.636   1.484  10.035  0.1365  0.2148 -0.6680
  999MOL0     O34789   4.541   1.388  10.052 -0.0500 -0.1888 -0.4679
  999MOL0     C34790   4.567   1.294  10.154  0.4838  0.4868  0.1567
  999MOL0     C34791   4.454   1.182  10.157 -0.9426 -1.6155  0.2403
  999MOL0     C34792   4.324   1.248  10.224  0.8927 -0.8075 -0.3505
  999MOL0     C34793   4.228   1.132  10.237 -0.2149 -0.1454  0.5481
  999MOL0     C34794   4.117   1.178  10.327 -0.7612 -0.9095 -0.7041
  999MOL0     C34795   4.026   1.222  10.384  0.3622  0.4958  0.6816
  999MOL0     C34796   4.756   1.500  10.110 -0.8749  0.3293 -0.1314
  999MOL0     C34797   4.862   1.580  10.062 -0.3628 -0.9704 -0.0508
  999MOL0     H34798   5.072   2.075  10.006 -1.3289 -1.1363 -2.8407
  999MOL0     H34799   5.277   2.200   9.933  4.3221  0.5388 -1.9156
  999MOL0     H34800   5.600   2.176   9.669 -0.1964  1.5983  1.1411
  999MOL0     H34801   5.516   2.026   9.634 -1.8804  0.0019  0.4134
  999MOL0     H34802   5.421   2.178   9.487  1.3307  0.9432 -0.0233
  999MOL0     H34803   5.295   2.151   9.604  0.0089 -0.7270 -0.4163
  999MOL0     H34804   5.387   2.369   9.723  0.4682  1.3017  0.0602
  999MOL0     H34805   5.483   2.394   9.576  1.1273  0.1218  1.4306
  999MOL0     H34806   5.254   2.344   9.451 -1.1980 -0.2008 -0.7590
  999MOL0     H34807   5.174   2.353   9.595 -1.5778  1.4375 -1.3844
  999MOL0     H34808   5.242   2.566   9.663 -2.1701 -0.5654 -1.1311
  999MOL0     H34809   5.343   2.589   9.506  0.6295 -0.8741  0.1320
  999MOL0     H34810   5.141   2.590   9.379  4.4090 -1.5311  0.0345
  999MOL0     H34811   5.047   2.551   9.522  0.3857  1.9945  2.1295
  999MOL0     H34812   5.013   2.770   9.485  0.3541 -0.0530  0.8688
  999MOL0     H34813   5.142   2.779   9.600 -0.5193  1.0835 -0.0647
  999MOL0     H34814   5.146   2.783   9.301 -4.0691  0.2939  0.9311
  999MOL0     H34815   5.296   2.830   9.393 -0.0350 -0.3199 -2.6201
  999MOL0     H34816   5.252   3.017   9.585  0.0229  2.3215  1.0980
  999MOL0     H34817   5.162   3.303   9.670 -1.3656  0.0633  0.9309
  999MOL0     H34818   5.104   3.368   9.529 -0.1209 -1.7018 -1.1861
  999MOL0     H34819   4.875   3.321   9.595  0.0770 -1.2808  0.6665
  999MOL0     H34820   4.968   3.385   9.731  2.9902 -0.7138  1.0385
  999MOL0     H34821   4.896   3.089   9.697  0.2448  0.7027 -0.1283
  999MOL0     H34822   4.817   3.200   9.816 -0.9443  0.7984 -0.7374
  999MOL0     H34823   5.036   3.246   9.927  2.5866 -0.4308  0.9326
  999MOL0     H34824   5.104   3.111   9.830 -0.0574  0.6837 -2.0349
  999MOL0     H34825   5.180   3.159  10.065  0.4328  0.0229  1.0614
  999MOL0     H34826   5.387   3.013  10.283 -2.0710 -1.5925  1.5538
  999MOL0     H34827   5.355   3.168  10.196  3.0022 -1.3204 -0.4086
  999MOL0     H34828   5.317   3.154  10.364  1.7771  1.8025 -0.9248
  999MOL0     H34829   5.355   2.955  10.620 -0.5296  0.4115  0.2616
  999MOL0     H34830   5.494   2.879  10.793 -2.0344 -1.0491  1.2444
  999MOL0     H34831   5.450   2.429  10.970 -1.1729  2.8093  1.1469
  999MOL0     H34832   5.545   2.433  10.814  0.7061  0.7372 -0.4794
  999MOL0     H34833   5.656   2.516  11.095  0.7298  1.5916 -2.0434
  999MOL0     H34834   5.663   2.351  11.044  5.0823 -0.5555  0.8623
  999MOL0     H34835   5.749   2.496  10.804 -0.9171  0.4627 -0.1645
  999MOL0     H34836   5.863   2.424  10.927  1.2421  1.1153  1.0230
  999MOL0     H34837   5.910   2.661  10.884  1.2427 -1.4104  1.2668
  999MOL0     H34838   5.764   2.697  10.979  1.2764  2.9909 -0.7617
  999MOL0     H34839   5.998   2.528  11.083 -0.6516 -0.1098 -1.2709
  999MOL0     H34840   5.874   2.612  11.170  3.6641 -2.6905  1.7862
  999MOL0     H34841   6.068   2.776  10.994  0.1962 -0.3333 -1.5242
  999MOL0     H34842   5.960   2.831  11.115 -1.4270 -1.2500  0.0083
  999MOL0     H34843   6.193   2.831  11.163 -0.5756  0.3780 -0.8159
  999MOL0     H34844   6.218   2.656  11.125 -0.6986 -0.1488 -1.5779
  999MOL0     H34845   6.248   2.671  11.343 -1.2460 -0.1143  2.0239
  999MOL0     H34846   6.081   2.600  11.314  1.9527 -1.7029  0.1918
  999MOL0     H34847   5.308   2.489  10.756 -0.0965  0.5082 -0.0084
  999MOL0     H34848   5.167   2.596  10.566  1.1739 -1.5189 -0.9682
  999MOL0     H34849   4.936   2.846  10.346 -1.3862  2.4347  2.3564
  999MOL0     H34850   4.845   2.893  10.118 -0.7423 -0.0152  0.5440
  999MOL0     H34851   5.467   1.840   9.830 -0.7849 -1.7131  0.1845
  999MOL0     H34852   5.259   1.715   9.909 -0.7651 -0.1433 -2.6692
  999MOL0     H34853   4.707   1.698   9.786 -2.3700  0.3661  0.8661
  999MOL0     H34854   4.521   1.560   9.868 -2.0991 -1.8586  3.1125
  999MOL0     H34855   4.665   1.246  10.144  0.5932  0.4777  1.2236
  999MOL0     H34856   4.562   1.340  10.253 -2.6219 -1.1288  0.8768
  999MOL0     H34857   4.487   1.099  10.220 -0.8860 -1.2794  0.6556
  999MOL0     H34858   4.424   1.151  10.056 -1.6049  2.4326 -0.9967
  999MOL0     H34859   4.285   1.337  10.175  3.1703  0.7381  0.5070
  999MOL0     H34860   4.354   1.276  10.325  0.8081  0.3228 -0.6251
  999MOL0     H34861   4.271   1.039  10.275 -4.3865 -3.6629 -2.3415
  999MOL0     H34862   4.191   1.103  10.138 -0.1476 -0.6746  0.6799
  999MOL0     H34863   3.949   1.271  10.440 -2.3467 -2.2047 -0.3890
  999MOL0     H34864   4.784   1.442  10.197 -1.2010  0.9020  0.3662
  999MOL0     H34865   4.950   1.593  10.124 -1.8587  0.1530  1.9561
 1000MOL0     O34866   2.512   4.567   0.678 -0.3583  0.0649 -0.8535
 1000MOL0     C34867   2.443   4.641   0.609 -0.1923  0.3124  0.1731
 1000MOL0     O34868   2.484   4.753   0.542 -0.4491  0.3318 -0.1841
 1000MOL0     C34869   2.619   4.766   0.524 -0.1636  0.5108 -0.0622
 1000MOL0     C34870   2.703   4.800   0.631 -0.3799  0.5442  0.0468
 1000MOL0     C34871   2.841   4.823   0.623 -0.1008  0.2459 -0.9649
 1000MOL0     C34872   2.903   4.776   0.503 -0.0293 -0.6102  1.0751
 1000MOL0     O34873   3.035   4.739   0.508  0.1529  0.4838 -0.2303
 1000MOL0     C34874   3.122   4.834   0.583  0.1648 -0.2597  1.5657
 1000MOL0     C34875   3.269   4.803   0.569 -0.9394 -0.4158 -0.4745
 1000MOL0     C34876   3.314   4.816   0.433  0.2524 -0.3086 -0.3533
 1000MOL0     C34877   3.272   4.941   0.360  0.1959 -0.1689  0.0127
 1000MOL0     C34878   3.338   4.921   0.225 -0.2308 -0.2034  0.4284
 1000MOL0     C34879   3.335   5.042   0.126  0.4585  0.0212  0.1394
 1000MOL0     C34880   3.315   4.992  -0.024 -1.0319 -0.2340 -1.0943
 1000MOL0     C34881   3.327   5.100  -0.132 -0.1768 -0.3711 -0.2278
 1000MOL0     N34882   3.464   5.156  -0.128  0.1486  0.3017 -0.1533
 1000MOL0     C34883   3.582   5.088  -0.122 -1.2031  0.1251 -0.0114
 1000MOL0     C34884   3.685   5.173  -0.176 -0.4808  0.5339  0.2584
 1000MOL0     C34885   3.836   5.155  -0.189  0.6341  0.6257 -0.8337
 1000MOL0     C34886   3.924   5.184  -0.073  0.8508 -0.2873 -0.2167
 1000MOL0     C34887   4.063   5.134  -0.091 -0.4287  0.4652  0.7158
 1000MOL0     C34888   4.149   5.122   0.031 -0.4132 -0.7896 -0.4631
 1000MOL0     O34889   4.105   5.046   0.134  0.2190  0.4008  0.4544
 1000MOL0     C34890   4.098   4.910   0.134 -0.2150  0.0287 -0.7821
 1000MOL0     C34891   4.205   4.830   0.092 -0.6371 -0.1714  0.8000
 1000MOL0     C34892   4.199   4.698   0.072  0.3067  0.3254 -0.0935
 1000MOL0     C34893   4.317   4.618   0.040 -0.3515  0.6913 -0.8849
 1000MOL0     C34894   4.071   4.633   0.090  0.0012 -0.1334 -0.4220
 1000MOL0     C34895   4.039   4.481   0.069  0.1293 -1.4005 -0.5982
 1000MOL0     O34896   3.919   4.441   0.115  0.1316 -0.3144 -0.0167
 1000MOL0     C34897   3.878   4.307   0.109 -1.4454 -0.6703  0.0523
 1000MOL0     C34898   3.787   4.258   0.199 -0.1584  0.1260 -0.6316
 1000MOL0     C34899   3.745   4.129   0.190  0.0251  0.0707  0.1665
 1000MOL0     C34900   3.778   4.043   0.080  0.4953 -0.1762  0.3314
 1000MOL0     O34901   3.702   3.932   0.076  0.6362  0.0709  0.4489
 1000MOL0     C34902   3.690   3.859  -0.054 -0.2218 -0.4862  0.0350
 1000MOL0     C34903   3.596   3.932  -0.142  0.4228 -0.2699  1.1613
 1000MOL0     C34904   3.606   3.874  -0.286 -0.4627 -0.8884 -0.0650
 1000MOL0     C34905   3.479   3.906  -0.370  0.5081 -0.6708  1.4490
 1000MOL0     C34906   3.510   3.828  -0.502  0.0056 -0.1111 -0.3658
 1000MOL0     C34907   3.401   3.844  -0.604 -1.1142  0.6337 -0.4365
 1000MOL0     C34908   3.416   3.747  -0.725  0.4119  0.6783 -0.2150
 1000MOL0     C34909   3.336   3.805  -0.835  0.7121  0.2374  0.1348
 1000MOL0    Cl34910   3.332   3.703  -0.979  0.2369  0.5233  0.1850
 1000MOL0     C34911   3.861   4.095  -0.018  0.3581  0.9272  0.3542
 1000MOL0     C34912   3.913   4.222  -0.008  0.2862 -0.9832  0.5658
 1000MOL0     O34913   4.128   4.402   0.037  0.4584  0.2238  0.0609
 1000MOL0     C34914   3.965   4.713   0.138  0.5841  1.1307 -1.1710
 1000MOL0     C34915   3.976   4.845   0.171 -0.8218 -0.0039  0.5675
 1000MOL0     N34916   3.614   5.283  -0.223  0.0336 -0.3409  0.2380
 1000MOL0     N34917   3.493   5.270  -0.195 -0.6166  0.3668 -0.0133
 1000MOL0     C34918   2.824   4.746   0.389  1.0990 -0.3655  0.2675
 1000MOL0     C34919   2.684   4.750   0.400 -0.2792 -0.8571  0.5011
 1000MOL0     C34920   2.294   4.601   0.602  0.2992  0.8680 -0.4753
 1000MOL0     C34921   2.263   4.474   0.661 -0.0890 -0.0599 -0.3786
 1000MOL0     C34922   2.129   4.432   0.641  0.5045 -0.6581  0.3951
 1000MOL0     C34923   2.038   4.530   0.576 -0.1927  0.4914  1.0875
 1000MOL0     O34924   1.908   4.520   0.543  0.1491 -0.5539  0.3974
 1000MOL0     C34925   1.869   4.385   0.520  0.1697  1.0776  0.1039
 1000MOL0     C34926   1.718   4.360   0.492 -0.3115 -0.9564 -0.1542
 1000MOL0     C34927   1.636   4.493   0.507  0.1767 -0.4338  1.4739
 1000MOL0     C34928   1.479   4.481   0.478  0.0783 -0.2644 -0.1174
 1000MOL0     C34929   1.430   4.467   0.339 -0.4702 -0.6771 -0.0837
 1000MOL0     C34930   1.386   4.471   0.230 -0.6381 -0.2440 -0.1833
 1000MOL0     C34931   2.079   4.651   0.519  0.3289  0.0149  0.0648
 1000MOL0     C34932   2.206   4.686   0.545  0.4137  1.0252 -0.1849
 1000MOL0     H34933   2.655   4.791   0.728 -1.3920  1.0079 -0.3878
 1000MOL0     H34934   2.881   4.826   0.723 -6.3244 -0.8440  2.0753
 1000MOL0     H34935   3.105   4.941   0.570  2.8626  0.2912  1.9993
 1000MOL0     H34936   3.110   4.809   0.689  1.1053  0.6368  1.8864
 1000MOL0     H34937   3.319   4.876   0.633 -0.0890 -0.7893 -0.7060
 1000MOL0     H34938   3.286   4.701   0.602  0.6045 -0.2401 -0.6389
 1000MOL0     H34939   3.424   4.819   0.430  0.2365 -0.4738 -1.3405
 1000MOL0     H34940   3.262   4.738   0.376  0.4923  0.8405 -2.2304
 1000MOL0     H34941   3.165   4.943   0.336  0.6251 -1.3406 -2.3365
 1000MOL0     H34942   3.302   5.035   0.408  1.4634 -0.8493  0.6023
 1000MOL0     H34943   3.445   4.902   0.232  0.1055  1.1684 -0.6445
 1000MOL0     H34944   3.289   4.836   0.176  1.9461 -0.4774 -1.4432
 1000MOL0     H34945   3.250   5.108   0.147 -0.1411 -0.7852  0.2587
 1000MOL0     H34946   3.422   5.104   0.149 -0.3446  0.9058  0.9006
 1000MOL0     H34947   3.398   4.921  -0.035  0.2024 -0.0443  4.0532
 1000MOL0     H34948   3.228   4.927  -0.029  0.1868 -1.9142 -1.5754
 1000MOL0     H34949   3.261   5.185  -0.112  1.4597  0.6907  1.0066
 1000MOL0     H34950   3.313   5.056  -0.231 -3.2590  2.9277 -1.4659
 1000MOL0     H34951   3.603   4.989  -0.085  1.5664  0.7076  0.2042
 1000MOL0     H34952   3.853   5.052  -0.224  4.6425  1.0541 -0.5108
 1000MOL0     H34953   3.876   5.213  -0.273 -0.1903 -3.3508 -4.3509
 1000MOL0     H34954   3.884   5.151   0.023 -2.5767  0.4787 -1.2337
 1000MOL0     H34955   3.929   5.293  -0.072 -1.2603 -0.1414 -0.4895
 1000MOL0     H34956   4.103   5.205  -0.164  2.1048 -3.8635 -2.5548
 1000MOL0     H34957   4.054   5.030  -0.124 -1.2827 -0.5153  3.6951
 1000MOL0     H34958   4.158   5.221   0.078  0.2390 -2.0978  2.3534
 1000MOL0     H34959   4.251   5.090   0.010 -0.2624 -0.0513 -0.9247
 1000MOL0     H34960   4.297   4.886   0.082 -0.2657 -1.0148 -0.7593
 1000MOL0     H34961   4.288   4.569  -0.054  0.0286  1.0993 -1.2225
 1000MOL0     H34962   4.404   4.682   0.027 -1.0752  1.6343 -1.2068
 1000MOL0     H34963   4.346   4.541   0.113 -0.3034  2.3080  0.8616
 1000MOL0     H34964   3.755   4.307   0.291  0.3987  1.0644 -0.9189
 1000MOL0     H34965   3.695   4.088   0.277 -1.3391  1.1240 -0.0861
 1000MOL0     H34966   3.783   3.822  -0.100  1.2839  1.5661  1.2585
 1000MOL0     H34967   3.637   3.769  -0.023 -0.3754 -0.3040  0.3020
 1000MOL0     H34968   3.494   3.925  -0.101 -0.2546 -0.8061 -0.5372
 1000MOL0     H34969   3.612   4.040  -0.150 -2.5885  0.1221 -3.1122
 1000MOL0     H34970   3.625   3.767  -0.277 -0.8171 -0.7749  3.3482
 1000MOL0     H34971   3.695   3.914  -0.334 -2.7580  3.9852 -0.8980
 1000MOL0     H34972   3.381   3.869  -0.340  0.0328 -1.7995 -1.2302
 1000MOL0     H34973   3.466   4.014  -0.384 -2.6044 -1.2006 -0.7725
 1000MOL0     H34974   3.512   3.722  -0.474 -0.2195  0.6908  3.1765
 1000MOL0     H34975   3.604   3.857  -0.550  0.7325 -2.1527 -0.2741
 1000MOL0     H34976   3.304   3.833  -0.555  0.0518 -1.0394  1.7140
 1000MOL0     H34977   3.417   3.944  -0.645 -3.1841  0.2792 -2.2867
 1000MOL0     H34978   3.392   3.643  -0.702  0.9952  0.1410 -1.8216
 1000MOL0     H34979   3.510   3.737  -0.781 -1.3073 -3.8472 -2.8448
 1000MOL0     H34980   3.386   3.893  -0.878  4.3917 -1.5955  0.2626
 1000MOL0     H34981   3.234   3.830  -0.806  1.0738  1.3714  0.4583
 1000MOL0     H34982   3.887   4.035  -0.105  2.1197 -0.6444  1.8718
 1000MOL0     H34983   3.983   4.251  -0.086  0.6907 -2.1648  0.4741
 1000MOL0     H34984   3.868   4.674   0.168  0.6577  0.7932 -1.3695
 1000MOL0     H34985   3.902   4.912   0.213  1.9856  2.3534  2.0991
 1000MOL0     H34986   2.874   4.706   0.301  1.7134  1.1393 -0.0975
 1000MOL0     H34987   2.619   4.721   0.317 -0.9438  2.2720 -0.1874
 1000MOL0     H34988   2.337   4.419   0.719  0.1652  2.5323  1.9855
 1000MOL0     H34989   2.091   4.334   0.667 -3.0425  0.7365  1.0044
 1000MOL0     H34990   1.923   4.329   0.443  0.1387  0.9688  0.1599
 1000MOL0     H34991   1.884   4.333   0.615 -1.4205 -2.1183 -1.2379
 1000MOL0     H34992   1.687   4.296   0.575  1.6854 -0.9258  0.6748
 1000MOL0     H34993   1.695   4.310   0.397  0.0840 -0.6873 -0.3956
 1000MOL0     H34994   1.681   4.559   0.433  0.7655 -1.2211  1.1219
 1000MOL0     H34995   1.642   4.538   0.607 -1.2899  0.3072  1.2646
 1000MOL0     H34996   1.414   4.560   0.516  0.2134 -0.8455  1.3985
 1000MOL0     H34997   1.441   4.402   0.543 -4.0091  1.8978  0.4303
 1000MOL0     H34998   1.341   4.468   0.133  1.2013 -2.3057 -1.0570
 1000MOL0     H34999   2.013   4.719   0.466 -1.8609  0.8545  3.5318
 1000MOL0     H35000   2.243   4.779   0.503  1.7072  0.5901 -0.0781
 1001MOL0     O35001   0.366  10.919   2.877 -0.2494  0.0896 -0.6895
 1001MOL0     C35002   0.394  10.895   2.995 -0.3390 -0.3833 -0.4300
 1001MOL0     O35003   0.411  10.776   3.049  0.0159 -0.4502 -0.5221
 1001MOL0     C35004   0.432  10.661   2.982 -0.5252  0.7264  0.4388
 1001MOL0     C35005   0.561  10.613   3.012 -0.6108  0.0906 -0.4818
 1001MOL0     C35006   0.598  10.493   2.955 -0.2319  0.1056 -0.0575
 1001MOL0     C35007   0.507  10.409   2.892 -0.8557 -0.5109  0.5421
 1001MOL0     O35008   0.527  10.291   2.830 -0.3013  0.6718  0.2993
 1001MOL0     C35009   0.575  10.182   2.907  0.1382 -0.8581 -0.3556
 1001MOL0     C35010   0.447  10.108   2.943  0.0579  0.0163 -0.0535
 1001MOL0     C35011   0.457   9.976   2.996  1.1029 -0.1200 -0.1469
 1001MOL0     C35012   0.334   9.893   2.953  0.4411  0.6799  0.4788
 1001MOL0     C35013   0.342   9.760   3.024 -0.5703 -0.2703  0.4192
 1001MOL0     C35014   0.303   9.767   3.169  0.2025  0.3329 -0.9807
 1001MOL0     C35015   0.361   9.645   3.255 -0.6231 -0.6520  0.0978
 1001MOL0     C35016   0.486   9.675   3.340  0.3187 -0.3358 -1.1712
 1001MOL0     N35017   0.551   9.551   3.398  0.4157  0.0638 -0.4233
 1001MOL0     C35018   0.674   9.554   3.459 -0.2852 -0.6359  0.1800
 1001MOL0     C35019   0.709   9.423   3.455 -1.3400  0.0494  0.1555
 1001MOL0     C35020   0.847   9.380   3.495  0.2077 -1.0172  0.2632
 1001MOL0     C35021   0.907   9.277   3.393 -1.2215 -0.2803  0.1441
 1001MOL0     C35022   0.961   9.323   3.259  0.3723  0.1845 -0.5313
 1001MOL0     C35023   1.077   9.429   3.278  0.2105  0.9882 -0.3307
 1001MOL0     O35024   1.202   9.383   3.339 -0.0274 -0.3288 -0.3364
 1001MOL0     C35025   1.294   9.457   3.415 -0.2188 -0.1394  0.4640
 1001MOL0     C35026   1.408   9.387   3.455 -0.4582  0.1481  0.4242
 1001MOL0     C35027   1.518   9.453   3.509 -0.1611  0.0396  0.1467
 1001MOL0     C35028   1.630   9.358   3.540 -0.3045 -0.3424 -0.3821
 1001MOL0     C35029   1.503   9.594   3.546 -0.1572  0.2143 -0.7142
 1001MOL0     C35030   1.600   9.682   3.620  0.1551 -0.2065 -0.1050
 1001MOL0     O35031   1.592   9.826   3.618  0.7068 -0.8899 -0.1597
 1001MOL0     C35032   1.703   9.905   3.634  0.2393 -0.4376  0.4261
 1001MOL0     C35033   1.693  10.018   3.714 -0.0081 -0.3231 -1.1925
 1001MOL0     C35034   1.808  10.104   3.710 -0.5572  0.9987 -0.2687
 1001MOL0     C35035   1.916  10.082   3.625 -0.0253  0.2190  0.1514
 1001MOL0     O35036   2.031  10.156   3.613 -0.0901  0.7593  0.5307
 1001MOL0     C35037   2.048  10.260   3.709 -0.0643  0.4760 -0.1556
 1001MOL0     C35038   2.177  10.326   3.681 -0.0327 -0.5756  0.5414
 1001MOL0     C35039   2.287  10.235   3.721  0.0527 -0.6649 -0.6136
 1001MOL0     C35040   2.402  10.217   3.628  0.0588 -0.2210  0.3002
 1001MOL0     C35041   2.366  10.136   3.500  0.7393  0.1243  0.1983
 1001MOL0     C35042   2.471  10.162   3.387 -1.5504  0.9164 -0.5275
 1001MOL0     C35043   2.425  10.090   3.261  0.0774  0.1508  0.1823
 1001MOL0     C35044   2.549  10.078   3.166  0.8011 -0.8740 -1.1865
 1001MOL0    Cl35045   2.636  10.228   3.140 -0.0300 -0.4275  0.1109
 1001MOL0     C35046   1.921   9.964   3.545 -0.2281 -0.3202  0.0621
 1001MOL0     C35047   1.812   9.876   3.559 -0.4051  0.1217  0.4172
 1001MOL0     O35048   1.691   9.619   3.676  0.2593 -0.3270  0.5288
 1001MOL0     C35049   1.376   9.645   3.519  0.0104 -0.4735  0.3831
 1001MOL0     C35050   1.271   9.584   3.452  0.3319 -0.2249  0.3301
 1001MOL0     N35051   0.609   9.332   3.413 -0.0694 -0.1956 -0.2913
 1001MOL0     N35052   0.517   9.421   3.374  0.0750  0.8045  0.0477
 1001MOL0     C35053   0.383  10.468   2.848 -0.4204 -0.2401 -0.4124
 1001MOL0     C35054   0.347  10.590   2.908 -0.3362  0.2767  0.4048
 1001MOL0     C35055   0.379  11.012   3.088  0.2641 -0.2284 -0.0276
 1001MOL0     C35056   0.422  11.003   3.225  1.0396  0.5161  0.1196
 1001MOL0     C35057   0.413  11.107   3.314 -0.3165 -0.4193  0.5766
 1001MOL0     C35058   0.351  11.227   3.274 -0.5576 -0.7343  0.1346
 1001MOL0     O35059   0.295  11.315   3.368 -0.6528 -0.7313 -0.1627
 1001MOL0     C35060   0.292  11.282   3.506 -0.7952  0.5727 -0.5355
 1001MOL0     C35061   0.169  11.350   3.576  0.4561  0.6295 -0.6322
 1001MOL0     C35062   0.202  11.496   3.621 -0.4911  0.0672  0.5403
 1001MOL0     C35063   0.124  11.555   3.737 -0.3797  0.2410 -0.5831
 1001MOL0     C35064  -0.014  11.555   3.694  0.7644  0.6462  0.7430
 1001MOL0     C35065  -0.127  11.566   3.656  0.3064  0.3547 -0.1376
 1001MOL0     C35066   0.304  11.241   3.142  0.3392  0.2313  0.4886
 1001MOL0     C35067   0.322  11.137   3.052 -0.0091  0.2635  0.3045
 1001MOL0     H35068   0.621  10.671   3.082  1.9466 -2.7752 -0.0679
 1001MOL0     H35069   0.699  10.457   2.967 -0.7017 -1.5524 -0.7715
 1001MOL0     H35070   0.640  10.123   2.842  1.2298  2.8106 -2.8957
 1001MOL0     H35071   0.635  10.210   2.995  0.2174 -2.4753  0.1292
 1001MOL0     H35072   0.397  10.172   3.017  2.8368 -0.7414  2.7017
 1001MOL0     H35073   0.384  10.109   2.853 -3.9168 -1.5911  2.4403
 1001MOL0     H35074   0.553   9.936   2.962  0.6009  0.8136 -2.9463
 1001MOL0     H35075   0.455   9.988   3.105  1.6548  2.9192 -0.3934
 1001MOL0     H35076   0.241   9.946   2.977 -0.1353 -0.3361  0.5596
 1001MOL0     H35077   0.339   9.880   2.845  3.1195  2.1669  0.3481
 1001MOL0     H35078   0.275   9.689   2.975 -0.1374 -0.1705 -0.3313
 1001MOL0     H35079   0.437   9.707   3.012 -1.1365 -1.6781  1.8612
 1001MOL0     H35080   0.313   9.870   3.204  2.4635  0.9265 -3.1107
 1001MOL0     H35081   0.196   9.755   3.151 -0.0110  2.5266 -1.4423
 1001MOL0     H35082   0.282   9.604   3.318  1.1178 -1.8368  1.6212
 1001MOL0     H35083   0.385   9.565   3.184 -0.7592  1.2177 -2.1978
 1001MOL0     H35084   0.453   9.730   3.429  3.6240 -0.4822  0.2734
 1001MOL0     H35085   0.560   9.737   3.288  1.4510 -1.3151 -0.7527
 1001MOL0     H35086   0.729   9.642   3.489  1.8757 -1.9313  0.2498
 1001MOL0     H35087   0.916   9.465   3.492 -2.4785  1.3614  1.1909
 1001MOL0     H35088   0.836   9.332   3.592 -2.7286  2.0230  1.6248
 1001MOL0     H35089   0.839   9.195   3.371  1.6474 -2.3542 -1.7826
 1001MOL0     H35090   0.992   9.230   3.444 -2.6474 -1.3926  1.5737
 1001MOL0     H35091   0.879   9.379   3.213 -1.5198  1.8344  4.2430
 1001MOL0     H35092   1.003   9.238   3.205 -1.5470  0.9835 -3.5015
 1001MOL0     H35093   1.046   9.509   3.345  2.1478  0.2136  1.5817
 1001MOL0     H35094   1.103   9.466   3.178  3.5197  1.1758  0.4836
 1001MOL0     H35095   1.397   9.280   3.439 -1.3835  0.4357 -1.0805
 1001MOL0     H35096   1.595   9.256   3.562  1.4933 -1.1225 -0.9702
 1001MOL0     H35097   1.689   9.356   3.448  2.1707  1.5276  1.0636
 1001MOL0     H35098   1.694   9.394   3.620  0.5414  0.6001 -1.4449
 1001MOL0     H35099   1.616  10.047   3.785  3.1553  1.4523  1.8092
 1001MOL0     H35100   1.806  10.192   3.774  0.8730  2.5489 -2.1870
 1001MOL0     H35101   1.969  10.334   3.695 -0.6025  0.6210  2.8459
 1001MOL0     H35102   2.039  10.224   3.812 -0.3655  3.2152  0.8664
 1001MOL0     H35103   2.189  10.349   3.575  0.1587 -2.1029  0.2062
 1001MOL0     H35104   2.179  10.421   3.735  2.8089 -1.3087  1.9673
 1001MOL0     H35105   2.244  10.136   3.739  0.1820 -1.1864 -2.9073
 1001MOL0     H35106   2.322  10.269   3.819 -0.0622  0.7985 -1.0587
 1001MOL0     H35107   2.457  10.304   3.591  3.0991 -2.7451 -1.6789
 1001MOL0     H35108   2.477  10.163   3.686  3.5991 -1.3805 -4.6927
 1001MOL0     H35109   2.261  10.157   3.480  0.5851  1.7659  2.3673
 1001MOL0     H35110   2.360  10.028   3.515 -0.4385 -0.2871 -2.5993
 1001MOL0     H35111   2.483  10.269   3.363  0.5155  0.9760  0.5453
 1001MOL0     H35112   2.568  10.123   3.420  0.0600  3.6163 -1.6834
 1001MOL0     H35113   2.358  10.164   3.215  0.6455 -0.7362 -2.2172
 1001MOL0     H35114   2.372   9.995   3.276 -0.6572  0.5124 -0.0761
 1001MOL0     H35115   2.516  10.048   3.066 -0.9338 -1.0985 -0.5817
 1001MOL0     H35116   2.616   9.999   3.202 -1.2507 -1.7594  0.9709
 1001MOL0     H35117   2.006   9.942   3.481 -1.9809  0.4121 -2.6750
 1001MOL0     H35118   1.812   9.796   3.485 -1.8820  1.4968 -1.1608
 1001MOL0     H35119   1.361   9.749   3.547 -1.5670 -0.4239 -0.5496
 1001MOL0     H35120   1.185   9.640   3.416  0.6702 -1.3530 -2.4815
 1001MOL0     H35121   0.320  10.414   2.777  0.8563 -0.6444 -1.2705
 1001MOL0     H35122   0.249  10.632   2.888 -0.8201 -0.4313  1.2265
 1001MOL0     H35123   0.468  10.911   3.259 -1.9250 -1.6989 -1.4326
 1001MOL0     H35124   0.437  11.069   3.413 -0.0376 -1.2313  0.2050
 1001MOL0     H35125   0.283  11.174   3.523  1.6048  0.5512  0.9678
 1001MOL0     H35126   0.383  11.313   3.558 -2.3460  0.1949  2.6360
 1001MOL0     H35127   0.142  11.306   3.673 -0.9219  1.8020 -0.4429
 1001MOL0     H35128   0.078  11.359   3.515 -1.1925  4.2216  1.9664
 1001MOL0     H35129   0.180  11.562   3.536 -0.8707  1.5979  1.7952
 1001MOL0     H35130   0.306  11.498   3.654 -0.4677 -3.9603  1.2201
 1001MOL0     H35131   0.168  11.653   3.760  2.2102 -0.6298 -1.4431
 1001MOL0     H35132   0.141  11.496   3.828  3.4584  1.2980 -0.4300
 1001MOL0     H35133  -0.226  11.594   3.628  0.7299  1.1788 -0.8644
 1001MOL0     H35134   0.255  11.325   3.095  0.3995 -1.2307 -2.4482
 1001MOL0     H35135   0.279  11.141   2.953 -4.1884  1.3025  1.9638
 1002MOL0     O35136   7.254   7.390  10.937 -0.0703 -0.3781 -0.0538
 1002MOL0     C35137   7.325   7.462  10.871 -0.8377  0.4007 -0.1871
 1002MOL0     O35138   7.442   7.526  10.916 -0.7593  0.7078 -0.6190
 1002MOL0     C35139   7.455   7.542  11.054  0.4328  0.1590  0.1334
 1002MOL0     C35140   7.413   7.664  11.105 -0.6095  1.1909  0.3711
 1002MOL0     C35141   7.421   7.678  11.241 -0.5175  0.0310 -0.1313
 1002MOL0     C35142   7.480   7.588  11.326 -0.0759 -1.1889 -0.1059
 1002MOL0     O35143   7.506   7.609  11.459 -0.3051 -0.8884  0.1713
 1002MOL0     C35144   7.426   7.703  11.543  0.1483 -0.0734 -0.4175
 1002MOL0     C35145   7.514   7.808  11.587  0.0764  1.0874  0.4133
 1002MOL0     C35146   7.630   7.741  11.662  0.4172  0.1326 -0.6323
 1002MOL0     C35147   7.728   7.854  11.707 -0.2710 -0.9907 -0.3847
 1002MOL0     C35148   7.839   7.881  11.592  0.3304 -0.6776 -0.2637
 1002MOL0     C35149   7.947   7.980  11.618  0.7185 -0.7774 -0.0616
 1002MOL0     C35150   8.056   7.976  11.512 -0.6390  0.8125 -0.7842
 1002MOL0     C35151   8.004   8.005  11.373 -0.0455 -0.0046  0.3547
 1002MOL0     N35152   8.112   7.973  11.277  0.2109  0.4807  0.7864
 1002MOL0     C35153   8.131   7.841  11.226 -0.4278 -0.3445  0.2940
 1002MOL0     C35154   8.250   7.843  11.158  0.0530 -0.7474 -0.4351
 1002MOL0     C35155   8.288   7.727  11.073 -0.3365  0.5616 -0.2298
 1002MOL0     C35156   8.436   7.725  11.051  0.1830  0.3338  0.1798
 1002MOL0     C35157   8.478   7.581  11.006 -0.2748 -0.6569 -1.4409
 1002MOL0     C35158   8.404   7.533  10.884  0.4667  0.1452  0.4817
 1002MOL0     O35159   8.295   7.436  10.913 -0.0915 -0.5256  0.2432
 1002MOL0     C35160   8.327   7.321  10.976  0.5721 -0.5636  0.1719
 1002MOL0     C35161   8.458   7.255  10.957  0.7811 -0.0231  1.2433
 1002MOL0     C35162   8.482   7.133  11.016  0.2928 -0.0091  0.1903
 1002MOL0     C35163   8.614   7.078  10.990  0.0208  1.7273 -0.4733
 1002MOL0     C35164   8.386   7.073  11.098 -0.5420 -0.1408 -0.0823
 1002MOL0     C35165   8.391   6.937  11.165  0.0715 -0.6753  0.1028
 1002MOL0     O35166   8.313   6.922  11.275 -0.5377 -0.3187 -0.3624
 1002MOL0     C35167   8.386   6.891  11.389  0.2864 -0.1831  0.1329
 1002MOL0     C35168   8.526   6.866  11.398 -0.3928  0.1973 -0.1525
 1002MOL0     C35169   8.601   6.843  11.517 -0.1187 -0.0166 -0.0112
 1002MOL0     C35170   8.524   6.838  11.632  0.6609 -0.4842 -0.0382
 1002MOL0     O35171   8.605   6.827  11.737  0.0997 -0.5352  0.9696
 1002MOL0     C35172   8.548   6.808  11.866 -0.4100  0.3718  0.2971
 1002MOL0     C35173   8.663   6.798  11.974  0.3465 -0.8423 -0.3291
 1002MOL0     C35174   8.752   6.919  11.971  0.6395  0.1460  0.6046
 1002MOL0     C35175   8.847   6.912  12.088 -1.8389 -0.3941 -0.4000
 1002MOL0     C35176   8.957   7.024  12.087  0.2803 -0.7544  0.2098
 1002MOL0     C35177   8.931   7.121  12.200 -0.4400 -0.4677 -0.9301
 1002MOL0     C35178   8.852   7.233  12.147 -0.5547 -0.1253 -0.0234
 1002MOL0     C35179   8.810   7.330  12.243 -0.3767  0.7896 -0.3861
 1002MOL0    Cl35180   8.935   7.443  12.324 -0.1936 -0.3645  0.0637
 1002MOL0     C35181   8.386   6.853  11.634 -0.2596  0.8321  0.6033
 1002MOL0     C35182   8.315   6.871  11.516 -0.8529  0.1472  0.1222
 1002MOL0     O35183   8.452   6.844  11.109 -0.4062 -0.6760  0.9527
 1002MOL0     C35184   8.256   7.140  11.110 -1.0314 -0.0091 -0.5913
 1002MOL0     C35185   8.231   7.255  11.051  0.3559  0.3904 -0.5383
 1002MOL0     N35186   8.301   7.976  11.177 -0.6831 -0.0642  0.2111
 1002MOL0     N35187   8.225   8.052  11.244  0.3538  0.1429  0.2253
 1002MOL0     C35188   7.546   7.476  11.265  0.3565 -0.2564 -0.8799
 1002MOL0     C35189   7.518   7.448  11.133 -0.2646 -0.2081  0.6024
 1002MOL0     C35190   7.300   7.489  10.724 -0.2688  1.6602  0.0302
 1002MOL0     C35191   7.401   7.541  10.641  0.6647  0.1271  0.0576
 1002MOL0     C35192   7.390   7.559  10.510 -0.2608  1.5192  0.5324
 1002MOL0     C35193   7.276   7.508  10.440 -0.3910 -0.3815 -0.5408
 1002MOL0     O35194   7.255   7.506  10.299  0.2759  0.0889 -0.2637
 1002MOL0     C35195   7.347   7.580  10.221 -0.6012 -1.4798 -0.0002
 1002MOL0     C35196   7.298   7.560  10.079  0.3504  0.5139  0.2109
 1002MOL0     C35197   7.240   7.692  10.011  0.0585  0.3919 -0.1868
 1002MOL0     C35198   7.249   7.708   9.861  0.2376 -0.1530 -1.0705
 1002MOL0     C35199   7.169   7.608   9.793 -0.0633 -0.8891  0.2626
 1002MOL0     C35200   7.087   7.542   9.722 -0.0600  0.0295 -0.2916
 1002MOL0     C35201   7.170   7.448  10.519 -0.9145 -0.0467  0.2456
 1002MOL0     C35202   7.189   7.440  10.664  0.3383 -0.6873 -0.0303
 1002MOL0     H35203   7.370   7.741  11.042  0.2277  1.3343 -0.0332
 1002MOL0     H35204   7.382   7.770  11.283  0.1049  0.6185 -0.8324
 1002MOL0     H35205   7.344   7.744  11.484  0.0764 -1.0313 -1.0032
 1002MOL0     H35206   7.368   7.649  11.619  0.3143  0.2768 -0.0404
 1002MOL0     H35207   7.552   7.851  11.493  1.7288 -0.7337  0.1816
 1002MOL0     H35208   7.455   7.871  11.654  0.0158 -1.6843  3.2018
 1002MOL0     H35209   7.599   7.704  11.760 -3.0894 -1.3296 -2.1162
 1002MOL0     H35210   7.680   7.658  11.612  2.1651 -0.0231  1.2540
 1002MOL0     H35211   7.678   7.950  11.721  0.7043  0.0128 -3.0760
 1002MOL0     H35212   7.772   7.828  11.803 -3.9775 -2.8074  1.0032
 1002MOL0     H35213   7.898   7.789  11.581 -0.9839 -1.8441  1.8463
 1002MOL0     H35214   7.786   7.902  11.499  0.9638  0.1516 -0.4484
 1002MOL0     H35215   7.902   8.079  11.628  1.3222 -0.5311  0.2504
 1002MOL0     H35216   7.996   7.955  11.712  2.2838 -0.8952 -0.8780
 1002MOL0     H35217   8.128   8.055  11.536  1.7941 -1.5063 -0.0827
 1002MOL0     H35218   8.115   7.884  11.521  1.3775  2.2350  3.5487
 1002MOL0     H35219   7.980   8.110  11.355 -1.1702 -0.6202 -2.1943
 1002MOL0     H35220   7.922   7.939  11.344  1.3094 -0.7948 -2.0235
 1002MOL0     H35221   8.071   7.751  11.237 -1.1227  0.2157  1.2305
 1002MOL0     H35222   8.254   7.635  11.121  1.4473  0.1095  0.2369
 1002MOL0     H35223   8.237   7.740  10.977 -0.2687  0.9135 -0.2211
 1002MOL0     H35224   8.491   7.745  11.144  0.6970  1.1521 -0.2847
 1002MOL0     H35225   8.452   7.803  10.976  3.0772 -1.1332 -0.8919
 1002MOL0     H35226   8.466   7.518  11.094  1.5923  0.4595 -0.3108
 1002MOL0     H35227   8.587   7.574  10.996 -0.2822 -1.2064 -1.1624
 1002MOL0     H35228   8.479   7.490  10.818  1.4715  2.3464  0.1139
 1002MOL0     H35229   8.361   7.618  10.830  0.8592 -0.4397 -0.7582
 1002MOL0     H35230   8.522   7.289  10.877 -1.2133 -2.8058 -1.7979
 1002MOL0     H35231   8.611   6.980  10.941 -0.5312  2.1605 -1.3412
 1002MOL0     H35232   8.669   7.131  10.912  1.5740 -0.7564 -1.1666
 1002MOL0     H35233   8.682   7.076  11.076  0.2119 -2.1648 -0.5106
 1002MOL0     H35234   8.583   6.851  11.306  0.2252 -0.3499  0.3072
 1002MOL0     H35235   8.709   6.839  11.518 -0.1095  0.1921  0.8727
 1002MOL0     H35236   8.489   6.898  11.888  1.2919  1.4458  0.7202
 1002MOL0     H35237   8.498   6.711  11.870  0.8134 -0.2437  1.2512
 1002MOL0     H35238   8.608   6.797  12.069  1.2279  0.5681  0.2300
 1002MOL0     H35239   8.723   6.707  11.966 -0.3495 -1.3242 -0.0938
 1002MOL0     H35240   8.696   7.012  11.987 -0.8251 -0.8406  1.5534
 1002MOL0     H35241   8.806   6.923  11.876 -0.2709 -0.3535  0.0508
 1002MOL0     H35242   8.784   6.913  12.177 -4.5089 -0.0341 -2.2086
 1002MOL0     H35243   8.904   6.818  12.079  3.4870  2.4530 -0.8998
 1002MOL0     H35244   8.968   7.084  11.996 -1.4591  0.7572  0.9310
 1002MOL0     H35245   9.055   6.983  12.113  0.2482 -0.4646  0.8125
 1002MOL0     H35246   8.887   7.068  12.285 -0.3278  1.9290  0.7282
 1002MOL0     H35247   9.025   7.167  12.232 -0.9793 -0.6709  1.0587
 1002MOL0     H35248   8.768   7.201  12.085 -0.6339  0.4788 -0.2353
 1002MOL0     H35249   8.913   7.293  12.078  0.1399  1.6430  1.9745
 1002MOL0     H35250   8.760   7.269  12.319 -1.4008  1.9322 -0.1083
 1002MOL0     H35251   8.725   7.378  12.194 -1.2867  0.6027  0.9405
 1002MOL0     H35252   8.341   6.848  11.733 -1.0163 -1.8797  0.2180
 1002MOL0     H35253   8.207   6.883  11.528 -0.9933 -0.6097 -0.3131
 1002MOL0     H35254   8.182   7.084  11.167 -0.3761 -2.1121 -1.7144
 1002MOL0     H35255   8.130   7.292  11.066 -0.5864 -1.7404 -1.0815
 1002MOL0     H35256   7.599   7.410  11.333 -1.8830  0.3701  1.6501
 1002MOL0     H35257   7.561   7.369  11.073 -2.3135  0.6318 -2.1225
 1002MOL0     H35258   7.501   7.566  10.674  0.6165 -0.2693  0.5088
 1002MOL0     H35259   7.472   7.603  10.455  1.1355 -1.6293 -0.0910
 1002MOL0     H35260   7.354   7.685  10.251  2.9743 -1.7808  0.6994
 1002MOL0     H35261   7.448   7.542  10.240 -0.9776 -2.1901  0.6279
 1002MOL0     H35262   7.213   7.491  10.087 -0.3321  1.4736  1.9033
 1002MOL0     H35263   7.379   7.515  10.022 -0.8004  1.8519 -2.6616
 1002MOL0     H35264   7.290   7.783  10.047 -1.0690  2.1987 -2.8358
 1002MOL0     H35265   7.134   7.697  10.035  0.2786 -1.1875  1.3046
 1002MOL0     H35266   7.355   7.716   9.833  0.7241  5.3031  1.0338
 1002MOL0     H35267   7.213   7.805   9.827  2.2149  1.6673  1.5962
 1002MOL0     H35268   7.017   7.474   9.678 -0.5144 -0.9626  1.8053
 1002MOL0     H35269   7.079   7.413  10.473 -1.1718  1.5203 -0.5162
 1002MOL0     H35270   7.110   7.392  10.721 -0.0214 -2.9225 -2.2407
 1003MOL0     O35271   4.518   8.313   6.044 -0.7383 -0.2854 -0.4145
 1003MOL0     C35272   4.533   8.372   6.156  0.1737  0.3061 -0.2664
 1003MOL0     O35273   4.657   8.387   6.214  0.1151 -0.2417  0.0404
 1003MOL0     C35274   4.767   8.326   6.153 -0.1301  0.2450 -0.9469
 1003MOL0     C35275   4.885   8.394   6.164  0.0322 -0.1976 -0.1385
 1003MOL0     C35276   5.006   8.341   6.123 -0.5142 -0.9549  0.1113
 1003MOL0     C35277   5.013   8.212   6.068 -0.2157 -1.5756  0.0507
 1003MOL0     O35278   5.144   8.171   6.047  0.1618  0.0506 -0.0966
 1003MOL0     C35279   5.187   8.059   6.117  0.7061 -0.1827  0.8903
 1003MOL0     C35280   5.325   8.030   6.076  0.3521  0.2022  0.2420
 1003MOL0     C35281   5.392   7.911   6.150 -0.4582 -0.0415  0.2912
 1003MOL0     C35282   5.541   7.906   6.146  0.1717  0.1789  0.7599
 1003MOL0     C35283   5.595   7.783   6.216  1.1416 -0.5459  1.1926
 1003MOL0     C35284   5.754   7.775   6.198 -0.0852  0.0100  0.3388
 1003MOL0     C35285   5.800   7.683   6.075  0.2538 -0.4001 -0.2581
 1003MOL0     C35286   5.953   7.658   6.078  0.6372  0.2683  0.1171
 1003MOL0     N35287   6.001   7.593   6.201  0.5484 -0.3194 -0.4059
 1003MOL0     C35288   5.948   7.481   6.261 -0.0944 -0.3057  0.4639
 1003MOL0     C35289   6.038   7.457   6.366  0.4952  0.4489  0.4337
 1003MOL0     C35290   6.033   7.330   6.454  0.0998 -0.0902 -0.2347
 1003MOL0     C35291   5.966   7.353   6.593 -0.4486  0.1849  0.0881
 1003MOL0     C35292   6.019   7.470   6.676 -0.0000 -1.0565 -0.3534
 1003MOL0     C35293   5.900   7.541   6.742  0.2589  0.6430  0.1814
 1003MOL0     O35294   5.843   7.637   6.653 -0.1592 -0.1306 -0.2294
 1003MOL0     C35295   5.712   7.602   6.605 -0.1310  0.2156 -0.4636
 1003MOL0     C35296   5.593   7.612   6.684  0.3300 -0.0205 -0.3861
 1003MOL0     C35297   5.464   7.581   6.637 -0.4792  0.6887  0.1315
 1003MOL0     C35298   5.358   7.603   6.749  0.5071  0.3512  0.1230
 1003MOL0     C35299   5.440   7.523   6.507 -0.3782 -0.3026 -1.3017
 1003MOL0     C35300   5.305   7.506   6.446 -0.6606 -0.3794  0.2553
 1003MOL0     O35301   5.297   7.512   6.314  0.8685 -0.3506 -0.1874
 1003MOL0     C35302   5.189   7.568   6.250  0.2460 -0.9884 -0.1921
 1003MOL0     C35303   5.070   7.639   6.302 -0.6026  0.1977 -0.1801
 1003MOL0     C35304   4.997   7.710   6.210 -0.9729  1.2245  0.9468
 1003MOL0     C35305   5.031   7.724   6.074  0.5107  1.2184 -0.9497
 1003MOL0     O35306   4.955   7.799   5.988 -0.6230  0.2458 -0.4455
 1003MOL0     C35307   4.832   7.721   5.973  0.5198 -0.1391  0.3321
 1003MOL0     C35308   4.766   7.781   5.862 -0.1679 -0.8763  0.3497
 1003MOL0     C35309   4.831   7.748   5.722  0.1984  0.4757 -0.5839
 1003MOL0     C35310   4.798   7.844   5.605  0.1772  0.2260 -0.8275
 1003MOL0     C35311   4.871   7.785   5.484  0.1978 -0.9642 -0.1435
 1003MOL0     C35312   4.849   7.880   5.363 -0.8093 -0.3274 -0.4940
 1003MOL0     C35313   4.919   7.817   5.244 -0.0903 -0.5132  0.0203
 1003MOL0     C35314   4.853   7.851   5.112 -0.1741  0.6312  0.4177
 1003MOL0    Cl35315   4.815   8.030   5.106 -0.1195  0.5074 -0.6430
 1003MOL0     C35316   5.144   7.662   6.023  0.3285 -0.9750 -1.0321
 1003MOL0     C35317   5.214   7.580   6.109  0.2271  0.5247  0.0248
 1003MOL0     O35318   5.201   7.477   6.512 -0.9475  0.0652  0.4213
 1003MOL0     C35319   5.553   7.518   6.431 -0.1039  0.0793 -0.0243
 1003MOL0     C35320   5.686   7.536   6.482  0.4787 -1.0508  0.2942
 1003MOL0     N35321   6.128   7.560   6.368  0.0563  0.1005 -0.0250
 1003MOL0     N35322   6.103   7.639   6.279  1.1027 -0.1575 -1.2696
 1003MOL0     C35323   4.899   8.140   6.052  0.2017 -0.6810 -0.5043
 1003MOL0     C35324   4.780   8.194   6.096  0.1944  0.5913  0.3113
 1003MOL0     C35325   4.410   8.391   6.235  0.3328 -0.4071  0.3379
 1003MOL0     C35326   4.277   8.360   6.193  0.2496  0.2681  1.0947
 1003MOL0     C35327   4.169   8.399   6.262  0.5625  0.5948 -0.1452
 1003MOL0     C35328   4.186   8.466   6.386 -0.1277  0.4316  1.0034
 1003MOL0     O35329   4.078   8.505   6.443 -0.3011  0.0478 -0.8039
 1003MOL0     C35330   3.997   8.606   6.386  0.1269  0.3994  0.8401
 1003MOL0     C35331   3.898   8.650   6.497 -0.5937  0.1100 -0.1091
 1003MOL0     C35332   3.974   8.734   6.610 -0.6989  0.0350 -0.3868
 1003MOL0     C35333   3.897   8.762   6.740 -0.1057  0.4482  0.0572
 1003MOL0     C35334   3.774   8.844   6.736  0.7781  0.2642  0.1032
 1003MOL0     C35335   3.661   8.898   6.745 -0.3620  0.3662  0.2919
 1003MOL0     C35336   4.312   8.491   6.435  0.0406  0.2433  0.2353
 1003MOL0     C35337   4.426   8.444   6.363 -0.9294  0.0176 -0.1226
 1003MOL0     H35338   4.877   8.496   6.200  0.1654 -0.6371  1.1680
 1003MOL0     H35339   5.091   8.397   6.161  0.0557 -1.3164 -0.6127
 1003MOL0     H35340   5.162   8.070   6.223 -2.5422 -1.6087  0.4046
 1003MOL0     H35341   5.141   7.970   6.072 -0.5991  0.3591  1.1085
 1003MOL0     H35342   5.335   8.012   5.968 -0.5721  1.7850 -0.1462
 1003MOL0     H35343   5.383   8.119   6.104  0.3601 -0.2822  1.8588
 1003MOL0     H35344   5.369   7.916   6.257 -0.2214  1.2060  0.3007
 1003MOL0     H35345   5.357   7.812   6.121  1.1500 -1.1600  1.9523
 1003MOL0     H35346   5.572   7.905   6.041  3.3601  0.0031  1.6154
 1003MOL0     H35347   5.579   8.002   6.184  0.0571  1.1694 -1.4809
 1003MOL0     H35348   5.570   7.782   6.323 -0.1657 -1.9462  0.9084
 1003MOL0     H35349   5.556   7.687   6.180  1.3712 -0.1921 -0.0257
 1003MOL0     H35350   5.812   7.867   6.190 -1.2334  0.6220 -1.5755
 1003MOL0     H35351   5.788   7.730   6.292  1.6198  0.5845  0.0201
 1003MOL0     H35352   5.761   7.581   6.083 -0.8065 -0.2289 -2.6093
 1003MOL0     H35353   5.761   7.714   5.978  1.4983 -1.4190 -1.1239
 1003MOL0     H35354   6.005   7.752   6.060  1.5158  0.1714  1.9998
 1003MOL0     H35355   5.983   7.582   6.004  1.0921  0.1660  0.4033
 1003MOL0     H35356   5.860   7.427   6.226  1.0030 -1.0131 -1.3957
 1003MOL0     H35357   5.976   7.251   6.403 -0.0812  0.5253 -0.9964
 1003MOL0     H35358   6.138   7.303   6.466  0.2670  0.3316 -0.7354
 1003MOL0     H35359   5.962   7.262   6.653  0.6829 -1.1400 -1.7355
 1003MOL0     H35360   5.857   7.365   6.580 -1.1729 -2.8597  2.3533
 1003MOL0     H35361   6.081   7.539   6.617  1.3041 -3.8196 -2.4224
 1003MOL0     H35362   6.094   7.439   6.749 -1.6385  1.7873  2.8674
 1003MOL0     H35363   5.935   7.603   6.826 -0.0978  2.3943 -0.8962
 1003MOL0     H35364   5.830   7.461   6.767 -0.1442  0.7216 -0.6682
 1003MOL0     H35365   5.603   7.673   6.773 -0.0176 -2.0652  1.1283
 1003MOL0     H35366   5.374   7.709   6.770 -0.9760  0.4563  0.8779
 1003MOL0     H35367   5.254   7.585   6.721  0.8260 -4.3855  1.0967
 1003MOL0     H35368   5.380   7.528   6.826 -0.7030 -0.1510 -0.0024
 1003MOL0     H35369   5.029   7.631   6.402 -0.1484 -1.2860 -0.1007
 1003MOL0     H35370   4.910   7.763   6.246 -0.0164  3.1764  0.5385
 1003MOL0     H35371   4.855   7.618   5.944  0.8182  0.0195 -0.0049
 1003MOL0     H35372   4.780   7.716   6.069 -0.7556  0.6426 -0.3079
 1003MOL0     H35373   4.659   7.758   5.853 -0.4020 -0.5115  1.9135
 1003MOL0     H35374   4.762   7.890   5.872 -3.1402 -0.9877  1.5740
 1003MOL0     H35375   4.806   7.645   5.697 -1.1267  1.0178 -1.5985
 1003MOL0     H35376   4.940   7.743   5.733  0.3358 -1.1159 -2.2234
 1003MOL0     H35377   4.690   7.853   5.591  0.2151  2.6118 -0.1518
 1003MOL0     H35378   4.837   7.945   5.622  1.3570 -0.5153  1.1049
 1003MOL0     H35379   4.829   7.690   5.449 -2.5797 -0.1215  0.6501
 1003MOL0     H35380   4.979   7.773   5.499  0.3385 -1.3340 -1.3402
 1003MOL0     H35381   4.741   7.892   5.350 -0.7260  0.6363 -0.3564
 1003MOL0     H35382   4.891   7.976   5.392  2.1836 -2.3871  2.9942
 1003MOL0     H35383   4.908   7.710   5.267 -0.3809  0.1736  3.4962
 1003MOL0     H35384   5.023   7.851   5.244 -0.8239  1.8656  0.7452
 1003MOL0     H35385   4.763   7.791   5.098 -0.1510 -0.7967  4.8094
 1003MOL0     H35386   4.915   7.832   5.024  1.1675 -0.1354  1.4822
 1003MOL0     H35387   5.171   7.670   5.918 -0.2730  0.3723 -1.1106
 1003MOL0     H35388   5.302   7.526   6.074  1.4805  0.9018  2.3737
 1003MOL0     H35389   5.533   7.486   6.329  1.0413  0.9174 -0.5349
 1003MOL0     H35390   5.776   7.528   6.422  2.1686  0.2220  2.4920
 1003MOL0     H35391   4.920   8.046   6.004 -1.9881 -0.5595 -1.7960
 1003MOL0     H35392   4.700   8.121   6.096  2.1913 -1.7435 -0.6463
 1003MOL0     H35393   4.259   8.315   6.096 -2.6734  1.2203  1.0915
 1003MOL0     H35394   4.068   8.376   6.228  0.1450  2.8996 -0.6340
 1003MOL0     H35395   4.050   8.690   6.340  0.3420  0.1595  0.6434
 1003MOL0     H35396   3.965   8.552   6.297  2.8334  1.6553 -1.0557
 1003MOL0     H35397   3.849   8.563   6.542  1.9740 -2.4115 -1.8710
 1003MOL0     H35398   3.822   8.719   6.460 -1.4762 -0.5811  0.3817
 1003MOL0     H35399   3.994   8.830   6.561 -0.6416 -0.4988 -1.4416
 1003MOL0     H35400   4.078   8.705   6.629 -0.0450  1.6222 -1.3131
 1003MOL0     H35401   3.961   8.823   6.804 -0.6682  2.6714 -1.3874
 1003MOL0     H35402   3.877   8.661   6.778 -0.4437 -0.7011 -2.8838
 1003MOL0     H35403   3.561   8.933   6.763 -0.9747 -0.2428 -1.6043
 1003MOL0     H35404   4.311   8.557   6.522 -0.8188 -0.7095  0.9768
 1003MOL0     H35405   4.516   8.485   6.407 -0.6228  0.1121 -0.8236
 1004MOL0     O35406  10.941   5.111   4.745 -0.2000  0.5083 -0.3871
 1004MOL0     C35407  11.026   5.064   4.670 -0.7038 -0.2460  0.6506
 1004MOL0     O35408  11.105   4.957   4.688 -0.4577 -0.4171 -0.7850
 1004MOL0     C35409  11.084   4.881   4.801 -1.0408 -0.4718  0.2692
 1004MOL0     C35410  11.155   4.911   4.923 -0.4324  0.3752  0.0159
 1004MOL0     C35411  11.134   4.834   5.034 -0.7523  0.7238  0.9028
 1004MOL0     C35412  11.054   4.708   5.025  0.2157 -0.3330 -0.3065
 1004MOL0     O35413  11.015   4.630   5.132 -0.0364 -0.1594 -1.2046
 1004MOL0     C35414  11.094   4.608   5.251 -0.4862  0.0108 -0.0909
 1004MOL0     C35415  11.021   4.513   5.350 -0.8079 -0.2835 -0.1179
 1004MOL0     C35416  11.086   4.383   5.365  1.1684  0.3665  0.7735
 1004MOL0     C35417  11.008   4.277   5.448  0.4235 -0.0331 -0.5644
 1004MOL0     C35418  11.002   4.307   5.595 -1.0889  0.1174 -0.0863
 1004MOL0     C35419  10.918   4.204   5.670 -0.2027  0.2818  0.0949
 1004MOL0     C35420  10.939   4.229   5.821 -0.4704  0.0331  0.5341
 1004MOL0     C35421  10.894   4.110   5.911 -0.2065  1.0352  0.0941
 1004MOL0     N35422  10.824   4.157   6.039  0.8651  0.9372  0.1703
 1004MOL0     C35423  10.889   4.251   6.113  0.8049  0.1848  0.2943
 1004MOL0     C35424  10.806   4.280   6.211  0.7177 -0.3036  0.3483
 1004MOL0     C35425  10.827   4.366   6.334  0.5273 -0.2475 -0.8082
 1004MOL0     C35426  10.748   4.504   6.324  0.5345  0.7758 -0.1797
 1004MOL0     C35427  10.750   4.600   6.456 -0.6059 -0.1961 -0.1876
 1004MOL0     C35428  10.891   4.617   6.523  0.5562 -0.2066 -0.3203
 1004MOL0     O35429  10.914   4.752   6.571  0.9274 -0.3642 -0.5190
 1004MOL0     C35430  11.039   4.788   6.613  0.2675 -1.0544 -0.2742
 1004MOL0     C35431  11.081   4.913   6.580 -0.0482  0.4909 -0.2111
 1004MOL0     C35432  11.206   4.960   6.593  0.4437 -0.1164 -0.5423
 1004MOL0     C35433  11.226   5.108   6.560  0.4670 -0.8488 -0.2249
 1004MOL0     C35434  11.309   4.878   6.662 -0.0984 -0.5337 -0.6449
 1004MOL0     C35435  11.444   4.929   6.694  0.8104  0.5178 -0.3752
 1004MOL0     O35436  11.505   4.864   6.801 -0.3426  0.1999  0.2617
 1004MOL0     C35437  11.625   4.923   6.850 -0.2917  0.6445 -0.7052
 1004MOL0     C35438  11.726   4.846   6.890  0.2480 -1.0971  0.0641
 1004MOL0     C35439  11.855   4.885   6.939 -0.6193 -0.1551 -0.0164
 1004MOL0     C35440  11.883   5.021   6.927  0.6593  0.7187 -0.3691
 1004MOL0     O35441  12.009   5.064   6.946  0.2039  0.3116  0.9448
 1004MOL0     C35442  12.033   5.206   6.935 -0.2135 -0.4307 -0.4095
 1004MOL0     C35443  12.188   5.220   6.918 -0.2244 -0.6325  0.2425
 1004MOL0     C35444  12.237   5.154   6.791 -0.7001  0.5958  0.2673
 1004MOL0     C35445  12.384   5.187   6.762  0.0886  0.6099  0.2050
 1004MOL0     C35446  12.439   5.092   6.666  0.1102  0.1400  0.5999
 1004MOL0     C35447  12.387   5.123   6.518 -1.1900  0.3137 -1.0449
 1004MOL0     C35448  12.457   5.052   6.409 -0.6460  0.6827  0.4516
 1004MOL0     C35449  12.385   5.087   6.286  0.2118 -0.4269  0.6997
 1004MOL0    Cl35450  12.449   5.023   6.128  0.2314  0.2574 -0.4636
 1004MOL0     C35451  11.771   5.110   6.920  0.8785  1.0641 -0.6595
 1004MOL0     C35452  11.645   5.063   6.872  0.4365 -0.0531  0.4424
 1004MOL0     O35453  11.486   5.021   6.633 -0.9181 -0.8800 -0.5776
 1004MOL0     C35454  11.270   4.746   6.683 -0.6349 -0.1552 -1.0178
 1004MOL0     C35455  11.136   4.704   6.663  0.7607  0.4152  1.0271
 1004MOL0     N35456  10.698   4.200   6.191 -0.3183  0.9329  0.6752
 1004MOL0     N35457  10.696   4.140   6.076 -0.4811 -0.0316 -0.5409
 1004MOL0     C35458  10.997   4.674   4.903 -0.2029 -0.4383 -0.4240
 1004MOL0     C35459  11.012   4.759   4.794 -0.8375  0.1619 -0.2136
 1004MOL0     C35460  11.047   5.135   4.547  0.0295 -0.4500 -0.0254
 1004MOL0     C35461  10.984   5.260   4.535  0.3197 -0.5214 -0.2619
 1004MOL0     C35462  11.013   5.338   4.422 -1.0550 -0.2263 -0.1410
 1004MOL0     C35463  11.104   5.306   4.321  0.4980  0.2210 -0.1463
 1004MOL0     O35464  11.135   5.367   4.202 -0.2257  0.1180  0.6293
 1004MOL0     C35465  11.070   5.484   4.149  0.0951  0.1707 -0.0415
 1004MOL0     C35466  10.973   5.450   4.046  0.8933 -0.3877 -0.4120
 1004MOL0     C35467  11.041   5.393   3.921  0.2559 -0.2642 -1.0053
 1004MOL0     C35468  10.966   5.437   3.800 -0.9811 -0.0793 -0.4232
 1004MOL0     C35469  10.986   5.579   3.787 -0.0240 -0.4749  0.9606
 1004MOL0     C35470  11.014   5.694   3.767  0.3069 -0.9483 -0.2169
 1004MOL0     C35471  11.153   5.175   4.336 -1.0429  0.7355 -0.2020
 1004MOL0     C35472  11.133   5.099   4.452 -0.0301  0.5387  1.3739
 1004MOL0     H35473  11.229   4.990   4.933  1.5359 -1.5161  1.2309
 1004MOL0     H35474  11.193   4.857   5.122 -0.2618  5.6748 -0.4351
 1004MOL0     H35475  11.189   4.561   5.224 -1.0051 -1.1919  0.1258
 1004MOL0     H35476  11.118   4.696   5.312  0.1798 -0.3126  0.1294
 1004MOL0     H35477  11.018   4.572   5.443 -0.6418  1.6089 -1.2551
 1004MOL0     H35478  10.922   4.499   5.305 -1.5425  0.9368  1.0433
 1004MOL0     H35479  11.111   4.327   5.274 -0.4045 -1.2047  1.2479
 1004MOL0     H35480  11.178   4.393   5.423  0.4867 -0.2213  1.9949
 1004MOL0     H35481  10.909   4.271   5.402 -0.7625 -0.0878  1.8648
 1004MOL0     H35482  11.058   4.179   5.441  2.0740  0.7734 -0.5830
 1004MOL0     H35483  11.103   4.293   5.633 -0.7889 -0.2821 -0.9928
 1004MOL0     H35484  10.978   4.412   5.616 -1.5213  0.2737 -1.2500
 1004MOL0     H35485  10.812   4.219   5.645  0.0283  1.6524 -0.1234
 1004MOL0     H35486  10.956   4.108   5.635  0.9925  2.0222 -4.0511
 1004MOL0     H35487  11.048   4.237   5.829 -0.2944 -1.1691 -0.3385
 1004MOL0     H35488  10.891   4.325   5.839 -0.2197  0.5904 -1.6119
 1004MOL0     H35489  10.976   4.044   5.939  2.9600  3.5140 -2.4668
 1004MOL0     H35490  10.835   4.045   5.845  0.1364  1.8086 -1.0147
 1004MOL0     H35491  10.992   4.283   6.104  1.2505 -1.6341 -1.8094
 1004MOL0     H35492  10.797   4.310   6.423 -0.9482 -1.5797 -2.0710
 1004MOL0     H35493  10.933   4.383   6.352  0.2230 -1.1146  2.3698
 1004MOL0     H35494  10.648   4.474   6.295  0.5281 -0.9698  1.4410
 1004MOL0     H35495  10.792   4.562   6.243 -0.5524  2.7593  0.5819
 1004MOL0     H35496  10.687   4.571   6.541 -0.3272 -2.4029 -0.6737
 1004MOL0     H35497  10.710   4.693   6.414 -0.6848 -0.8044 -1.5095
 1004MOL0     H35498  10.970   4.586   6.454 -0.1164 -2.7190 -0.0428
 1004MOL0     H35499  10.899   4.554   6.611  1.3910  0.6112  0.2045
 1004MOL0     H35500  11.006   4.969   6.524  0.8938  2.1549  0.1344
 1004MOL0     H35501  11.271   5.162   6.644  0.0315 -0.7338 -0.0578
 1004MOL0     H35502  11.294   5.122   6.476  0.8198 -1.6919 -0.0919
 1004MOL0     H35503  11.136   5.162   6.527 -0.3895 -1.2523  1.3292
 1004MOL0     H35504  11.704   4.742   6.913  0.9145 -0.8546  2.0678
 1004MOL0     H35505  11.926   4.807   6.962  0.5972  0.8373 -0.2637
 1004MOL0     H35506  11.972   5.251   6.856 -1.1076 -4.6413 -2.3659
 1004MOL0     H35507  11.991   5.247   7.027 -0.2933 -1.7883  0.1773
 1004MOL0     H35508  12.223   5.324   6.909 -1.8272  0.1404  2.2710
 1004MOL0     H35509  12.234   5.181   7.009 -0.1556  0.0144  0.4894
 1004MOL0     H35510  12.168   5.187   6.712 -1.0196 -0.5911  0.0298
 1004MOL0     H35511  12.213   5.048   6.800 -0.8199  0.7095  1.5076
 1004MOL0     H35512  12.420   5.288   6.740  0.6177  0.0941 -1.5070
 1004MOL0     H35513  12.431   5.151   6.854 -1.4198 -2.5322 -0.1240
 1004MOL0     H35514  12.404   4.991   6.688 -0.3806  0.2131  0.1953
 1004MOL0     H35515  12.548   5.096   6.666  0.2718 -2.2646  2.1663
 1004MOL0     H35516  12.280   5.099   6.517 -1.3876  0.3730  3.2061
 1004MOL0     H35517  12.402   5.228   6.492 -2.3855  0.5586 -0.8099
 1004MOL0     H35518  12.448   4.944   6.424  1.8283  0.6217  2.0788
 1004MOL0     H35519  12.565   5.069   6.415 -0.4996 -0.2022  0.4335
 1004MOL0     H35520  12.388   5.196   6.284  1.0483 -0.4526 -0.6373
 1004MOL0     H35521  12.285   5.047   6.303 -0.8729  1.0229 -1.8468
 1004MOL0     H35522  11.790   5.216   6.935 -0.3113  0.8559  3.7472
 1004MOL0     H35523  11.573   5.136   6.835 -1.2708 -2.5437 -1.4947
 1004MOL0     H35524  11.345   4.674   6.712  0.3158  1.4680  0.7076
 1004MOL0     H35525  11.103   4.602   6.679 -2.1043  0.9525 -0.7198
 1004MOL0     H35526  10.952   4.575   4.897  0.6799 -0.7594 -3.7592
 1004MOL0     H35527  10.968   4.725   4.701 -0.6942 -0.8523  0.0806
 1004MOL0     H35528  10.919   5.310   4.605 -1.7734 -3.5648  0.1978
 1004MOL0     H35529  10.964   5.435   4.411 -0.7232 -0.0023  0.3431
 1004MOL0     H35530  11.007   5.534   4.224 -1.4658 -2.1003  0.2563
 1004MOL0     H35531  11.137   5.556   4.101 -2.0354  2.4465  0.2021
 1004MOL0     H35532  10.909   5.538   4.038 -0.5975 -1.5056 -1.3752
 1004MOL0     H35533  10.901   5.379   4.089 -2.4448  3.5385  1.1732
 1004MOL0     H35534  11.046   5.284   3.923  2.4049 -0.2107  1.1438
 1004MOL0     H35535  11.142   5.435   3.932 -0.4854  1.3654  0.0321
 1004MOL0     H35536  10.863   5.407   3.817 -0.8067  0.0153  0.8698
 1004MOL0     H35537  11.007   5.381   3.715  0.7330 -0.4076  0.5769
 1004MOL0     H35538  11.043   5.794   3.742  2.6216 -1.8246 -1.4346
 1004MOL0     H35539  11.217   5.135   4.258 -1.1150 -1.5275  0.8143
 1004MOL0     H35540  11.187   5.004   4.455 -1.3071 -0.3877 -1.4345
 1005MOL0     O35541   4.003   6.198   3.800  0.9208  0.3818 -0.3609
 1005MOL0     C35542   4.015   6.317   3.799  0.5032 -0.3316 -0.4583
 1005MOL0     O35543   3.908   6.410   3.786 -1.6162 -0.4246  0.8409
 1005MOL0     C35544   3.782   6.364   3.757 -0.6416 -0.2582 -0.9189
 1005MOL0     C35545   3.700   6.331   3.865  0.2378  0.8610  0.5571
 1005MOL0     C35546   3.565   6.304   3.835  0.7765 -0.0247  0.2805
 1005MOL0     C35547   3.526   6.282   3.698 -0.0163  0.5826 -0.5308
 1005MOL0     O35548   3.411   6.231   3.658  0.4989  0.1716  0.1079
 1005MOL0     C35549   3.316   6.175   3.753  0.3585  0.2830  0.3307
 1005MOL0     C35550   3.176   6.134   3.709  0.4797 -0.1134  0.5998
 1005MOL0     C35551   3.163   6.056   3.576 -0.1288 -0.9926 -0.7349
 1005MOL0     C35552   3.029   5.993   3.577  0.1534 -0.0718 -0.7100
 1005MOL0     C35553   3.001   5.902   3.451  0.2599  0.0932 -0.0839
 1005MOL0     C35554   2.864   5.852   3.447 -0.4103 -0.0651 -1.1246
 1005MOL0     C35555   2.849   5.761   3.327 -0.3389  0.7316  0.7009
 1005MOL0     C35556   2.808   5.846   3.201 -0.0440  0.1398 -1.3998
 1005MOL0     N35557   2.844   5.797   3.069  1.3943  0.2977  0.3826
 1005MOL0     C35558   2.747   5.769   2.970  0.4877 -0.1988 -0.0042
 1005MOL0     C35559   2.818   5.704   2.881  0.3084  0.1929 -0.5584
 1005MOL0     C35560   2.765   5.646   2.755  1.0507 -0.5147  0.2325
 1005MOL0     C35561   2.736   5.497   2.774  0.7338  0.0795 -0.7213
 1005MOL0     C35562   2.691   5.417   2.650  1.2775 -0.4345 -0.5743
 1005MOL0     C35563   2.776   5.457   2.527 -0.3166  0.5082  0.4613
 1005MOL0     O35564   2.916   5.465   2.559  0.3648 -0.1907  0.1559
 1005MOL0     C35565   3.004   5.366   2.528  0.0946 -0.1857  0.6629
 1005MOL0     C35566   3.130   5.384   2.575 -0.3857  0.1800  1.1208
 1005MOL0     C35567   3.235   5.291   2.551  0.6305  0.1760  0.0026
 1005MOL0     C35568   3.376   5.327   2.606  0.1280 -0.4637 -0.5088
 1005MOL0     C35569   3.206   5.176   2.470 -0.0623  0.7587  0.1961
 1005MOL0     C35570   3.323   5.077   2.456  0.1730  0.2124 -0.3072
 1005MOL0     O35571   3.395   5.076   2.337  0.7168  0.3088  0.5857
 1005MOL0     C35572   3.486   4.978   2.322  0.3086 -0.1761  0.3246
 1005MOL0     C35573   3.428   4.871   2.264  0.1959 -0.2908 -0.0081
 1005MOL0     C35574   3.511   4.760   2.242  0.1089  0.7158  0.1234
 1005MOL0     C35575   3.638   4.758   2.292  0.3959  0.5228  0.4091
 1005MOL0     O35576   3.728   4.655   2.284  0.2554  0.7982  0.7381
 1005MOL0     C35577   3.689   4.529   2.222  0.2987 -0.5093  0.5166
 1005MOL0     C35578   3.805   4.432   2.243  0.1221 -0.0510 -0.6956
 1005MOL0     C35579   3.788   4.352   2.368  0.0809  0.2650 -1.0779
 1005MOL0     C35580   3.908   4.260   2.390  0.1534 -1.0412  0.7714
 1005MOL0     C35581   3.920   4.181   2.528  0.7466 -1.4180  0.4451
 1005MOL0     C35582   3.893   4.271   2.653 -0.0235 -0.9596 -0.5743
 1005MOL0     C35583   3.932   4.193   2.776  0.7412  0.6976 -0.1422
 1005MOL0     C35584   3.857   4.059   2.802 -0.6721 -1.4753 -0.0598
 1005MOL0    Cl35585   3.916   4.003   2.962 -0.7189 -0.0195  0.4862
 1005MOL0     C35586   3.681   4.862   2.367  0.5871  0.3497  0.0896
 1005MOL0     C35587   3.610   4.980   2.375 -0.6013  0.1591 -0.3958
 1005MOL0     O35588   3.353   5.013   2.562  0.3832  0.1698 -0.3568
 1005MOL0     C35589   3.081   5.165   2.409  0.2977 -0.7786 -0.0389
 1005MOL0     C35590   2.984   5.261   2.440  0.1698 -0.1039 -0.2060
 1005MOL0     N35591   2.942   5.697   2.919 -0.1979 -0.1363  0.8648
 1005MOL0     N35592   2.962   5.742   3.033 -0.3065 -0.0288  0.0165
 1005MOL0     C35593   3.612   6.323   3.588 -0.5454  0.2787  0.0656
 1005MOL0     C35594   3.739   6.373   3.619 -0.7651  0.0575  0.3744
 1005MOL0     C35595   4.155   6.366   3.807 -0.3118  0.0562  0.6415
 1005MOL0     C35596   4.179   6.506   3.820 -0.2941  0.7810  0.3146
 1005MOL0     C35597   4.305   6.550   3.850 -0.3088 -0.0352  0.0565
 1005MOL0     C35598   4.421   6.471   3.846 -0.3274  1.2725 -1.1552
 1005MOL0     O35599   4.546   6.534   3.854 -0.4984  0.1272 -0.4141
 1005MOL0     C35600   4.668   6.457   3.880  0.5459 -0.1059 -0.2171
 1005MOL0     C35601   4.784   6.548   3.919  0.5131  0.3315 -0.1808
 1005MOL0     C35602   4.737   6.641   4.032 -0.3165 -0.3064  1.4021
 1005MOL0     C35603   4.861   6.730   4.059 -0.2343  0.1617  1.2617
 1005MOL0     C35604   4.842   6.843   4.154 -0.0922  0.2324  0.3784
 1005MOL0     C35605   4.826   6.934   4.236 -1.3202  0.2904  0.6825
 1005MOL0     C35606   4.404   6.334   3.812 -0.4522 -0.6966 -0.5330
 1005MOL0     C35607   4.268   6.283   3.800 -0.1469 -0.0734  0.3926
 1005MOL0     H35608   3.743   6.353   3.962  2.6388 -2.2805  0.3342
 1005MOL0     H35609   3.498   6.285   3.919  4.1021 -2.1637  2.7333
 1005MOL0     H35610   3.363   6.097   3.813  2.3339  0.9188 -0.3151
 1005MOL0     H35611   3.293   6.260   3.818  3.9312  0.4041  1.6352
 1005MOL0     H35612   3.150   6.065   3.791  1.9293 -2.4128 -0.7590
 1005MOL0     H35613   3.102   6.214   3.715 -0.7789 -1.2749  1.2736
 1005MOL0     H35614   3.181   6.118   3.488  0.9762  0.1428  0.2278
 1005MOL0     H35615   3.241   5.980   3.571 -2.5456 -3.5627 -1.3159
 1005MOL0     H35616   3.012   5.934   3.667 -3.1861 -0.7054 -1.6125
 1005MOL0     H35617   2.948   6.066   3.569 -1.6722 -1.9355 -0.2364
 1005MOL0     H35618   3.021   5.962   3.362  1.0686 -0.4531 -0.2721
 1005MOL0     H35619   3.073   5.821   3.450 -1.2941 -1.4007  1.4965
 1005MOL0     H35620   2.833   5.789   3.532 -0.5978 -0.8745 -1.7785
 1005MOL0     H35621   2.805   5.944   3.450  1.3550  1.1028 -1.0375
 1005MOL0     H35622   2.946   5.711   3.325  1.2060  3.2706  3.6403
 1005MOL0     H35623   2.773   5.682   3.336 -0.7028  0.7123 -1.8175
 1005MOL0     H35624   2.866   5.936   3.224 -0.3769 -0.3517  1.8755
 1005MOL0     H35625   2.703   5.876   3.207 -0.7932 -2.4734  0.6534
 1005MOL0     H35626   2.641   5.791   2.961 -0.1697 -2.2530  1.7227
 1005MOL0     H35627   2.671   5.696   2.729  1.0973 -1.8881 -3.0838
 1005MOL0     H35628   2.824   5.667   2.665 -0.9231  1.7608 -0.6222
 1005MOL0     H35629   2.660   5.476   2.849 -1.5324  0.2759 -2.8273
 1005MOL0     H35630   2.833   5.452   2.798  0.7776  0.4159 -0.2557
 1005MOL0     H35631   2.590   5.457   2.639  0.7083 -1.2641  1.2725
 1005MOL0     H35632   2.699   5.308   2.656  3.3411 -0.2550  0.6200
 1005MOL0     H35633   2.749   5.559   2.497 -1.4520  0.5656  1.5945
 1005MOL0     H35634   2.748   5.390   2.445 -0.7725  0.7200  0.4381
 1005MOL0     H35635   3.154   5.481   2.618 -0.6051  0.8365 -0.1740
 1005MOL0     H35636   3.411   5.249   2.674  0.0801  1.1237  1.4332
 1005MOL0     H35637   3.439   5.336   2.517 -1.3198  0.0650 -1.5157
 1005MOL0     H35638   3.371   5.415   2.670 -0.3404 -0.5651 -0.4045
 1005MOL0     H35639   3.328   4.872   2.221  0.8167 -0.9345 -1.5609
 1005MOL0     H35640   3.469   4.681   2.180  1.9355 -0.1193 -0.1053
 1005MOL0     H35641   3.603   4.488   2.275 -0.4918  0.2985 -0.1116
 1005MOL0     H35642   3.683   4.529   2.113  2.1429 -0.6348  0.3757
 1005MOL0     H35643   3.789   4.363   2.160  2.3430 -2.2081  0.5690
 1005MOL0     H35644   3.904   4.480   2.242 -0.2200  0.7079  0.2992
 1005MOL0     H35645   3.701   4.286   2.365 -0.2031  0.6048 -0.4982
 1005MOL0     H35646   3.778   4.411   2.460 -2.0753  0.7696 -1.5914
 1005MOL0     H35647   3.897   4.188   2.309  0.6960  2.0359 -2.2709
 1005MOL0     H35648   4.000   4.317   2.374  0.9463 -2.5807 -0.3892
 1005MOL0     H35649   4.022   4.145   2.543  2.9090  2.9256 -1.8468
 1005MOL0     H35650   3.847   4.100   2.522 -0.4921 -0.5080  2.1798
 1005MOL0     H35651   3.953   4.363   2.655 -2.2197  0.6067  2.7171
 1005MOL0     H35652   3.788   4.292   2.674  0.9513  1.1716  2.9411
 1005MOL0     H35653   3.902   4.256   2.860  0.9401  1.0163 -0.3094
 1005MOL0     H35654   4.038   4.165   2.779  0.0945 -1.9379  0.7813
 1005MOL0     H35655   3.880   3.995   2.716  0.8854  0.0815 -0.8699
 1005MOL0     H35656   3.752   4.089   2.803  0.0397  1.2509  0.3878
 1005MOL0     H35657   3.777   4.862   2.417  0.5225 -1.6630  0.2991
 1005MOL0     H35658   3.647   5.056   2.443  0.8793 -1.9358  1.2350
 1005MOL0     H35659   3.065   5.099   2.324  1.0537 -0.9554 -0.0533
 1005MOL0     H35660   2.897   5.232   2.382 -0.2714 -2.9940  1.6742
 1005MOL0     H35661   3.571   6.327   3.488 -0.2319  1.4068 -0.0397
 1005MOL0     H35662   3.799   6.429   3.548  0.9098 -0.2198  1.4917
 1005MOL0     H35663   4.099   6.580   3.820  0.5688  2.1696 -5.0426
 1005MOL0     H35664   4.309   6.657   3.872 -3.7406  0.7298 -2.3035
 1005MOL0     H35665   4.671   6.404   3.975  2.2226 -1.5324 -1.0086
 1005MOL0     H35666   4.690   6.393   3.794 -3.4701  1.3117 -2.5923
 1005MOL0     H35667   4.811   6.611   3.834  0.2720 -2.1454 -2.2415
 1005MOL0     H35668   4.871   6.489   3.951  0.1480 -1.6071 -2.4506
 1005MOL0     H35669   4.722   6.598   4.131  2.2121  1.8966  2.8710
 1005MOL0     H35670   4.645   6.695   4.005 -0.2237 -1.1410 -0.8029
 1005MOL0     H35671   4.893   6.777   3.965  0.9661 -0.4572  1.3481
 1005MOL0     H35672   4.950   6.671   4.079 -0.8672 -1.3864 -0.2107
 1005MOL0     H35673   4.810   7.025   4.291  2.1758  1.7093 -0.3136
 1005MOL0     H35674   4.491   6.269   3.805 -0.4381 -0.6572 -0.7337
 1005MOL0     H35675   4.262   6.175   3.799  0.2711 -0.1588  2.3943
 1006MOL0     O35676   1.879   0.432   5.505 -0.1664  0.2817  0.3086
 1006MOL0     C35677   1.841   0.468   5.617 -0.3041 -0.1470 -0.0119
 1006MOL0     O35678   1.796   0.588   5.646 -0.3893  0.1766  0.1523
 1006MOL0     C35679   1.816   0.687   5.548  1.8751 -0.8146  0.0435
 1006MOL0     C35680   1.730   0.703   5.441 -0.7857 -0.1438 -0.1680
 1006MOL0     C35681   1.724   0.810   5.350 -0.5625  0.3791 -0.6994
 1006MOL0     C35682   1.837   0.897   5.354 -0.1042  0.1033  0.7285
 1006MOL0     O35683   1.843   1.002   5.261  1.3357  0.5517  0.1729
 1006MOL0     C35684   1.724   1.057   5.184 -0.9599 -0.7583  0.6073
 1006MOL0     C35685   1.767   1.177   5.092 -0.0157 -0.1907 -0.5432
 1006MOL0     C35686   1.815   1.294   5.186  0.2332  0.1883 -0.3930
 1006MOL0     C35687   1.838   1.433   5.116  0.1469  0.2717  0.6097
 1006MOL0     C35688   1.872   1.543   5.215 -0.2635  0.6135  0.6321
 1006MOL0     C35689   2.026   1.554   5.244  0.1105 -0.2717  0.2835
 1006MOL0     C35690   2.048   1.692   5.305  0.8150  0.1654 -0.9678
 1006MOL0     C35691   2.064   1.803   5.200  0.5235 -0.0818  0.2973
 1006MOL0     N35692   2.023   1.932   5.257 -0.2331 -0.0200  0.5459
 1006MOL0     C35693   2.070   1.981   5.371 -0.3161 -0.7639  0.2120
 1006MOL0     C35694   2.020   2.104   5.392 -0.6019  0.2133  0.5377
 1006MOL0     C35695   2.024   2.199   5.504 -0.1586  0.5821 -0.1274
 1006MOL0     C35696   2.109   2.311   5.473 -0.0020  0.2266 -0.4563
 1006MOL0     C35697   2.137   2.380   5.613 -0.0666  0.3961  0.1419
 1006MOL0     C35698   2.178   2.520   5.603  0.6042 -0.3377  0.7481
 1006MOL0     O35699   2.300   2.528   5.683  0.6662  0.2951 -0.2566
 1006MOL0     C35700   2.368   2.650   5.694  0.5845 -0.2643  0.4852
 1006MOL0     C35701   2.478   2.656   5.776  0.4533 -0.3304  0.0388
 1006MOL0     C35702   2.562   2.764   5.795  0.1594  0.2988  0.2959
 1006MOL0     C35703   2.680   2.751   5.883 -0.3060  0.1235 -0.1119
 1006MOL0     C35704   2.525   2.883   5.735  0.5822  0.9231 -0.0245
 1006MOL0     C35705   2.608   3.011   5.739  0.0857 -0.7741 -0.4116
 1006MOL0     O35706   2.533   3.123   5.756 -0.0992  0.0004  0.4981
 1006MOL0     C35707   2.591   3.242   5.717  0.3006 -0.8201  0.0903
 1006MOL0     C35708   2.675   3.321   5.799 -0.6234  0.7513 -0.2408
 1006MOL0     C35709   2.709   3.452   5.769 -0.1539 -0.6731 -0.7366
 1006MOL0     C35710   2.659   3.511   5.652  0.0079 -0.4440  0.3077
 1006MOL0     O35711   2.695   3.637   5.605  0.1998  0.1392 -0.3265
 1006MOL0     C35712   2.783   3.713   5.687 -0.4172 -0.0374 -0.0731
 1006MOL0     C35713   2.836   3.835   5.620  0.1892 -0.0839  0.9238
 1006MOL0     C35714   2.941   3.811   5.505  0.6036  0.7944 -0.0948
 1006MOL0     C35715   3.035   3.929   5.476 -1.3396  0.7717 -0.4183
 1006MOL0     C35716   3.155   3.883   5.390 -0.1728 -0.3815 -0.4889
 1006MOL0     C35717   3.232   3.761   5.440 -1.1765  0.3719 -1.0528
 1006MOL0     C35718   3.344   3.724   5.330  0.8413  0.2601  0.3120
 1006MOL0     C35719   3.445   3.828   5.302  0.1908  0.2180 -0.5557
 1006MOL0    Cl35720   3.579   3.747   5.222 -0.0267  0.0200  0.3456
 1006MOL0     C35721   2.563   3.442   5.575 -0.2782 -0.3949 -0.1407
 1006MOL0     C35722   2.528   3.311   5.614 -0.7413 -0.2326 -0.3555
 1006MOL0     O35723   2.724   3.013   5.709 -0.1319  0.6763 -0.3551
 1006MOL0     C35724   2.406   2.887   5.662  1.0548  0.2069 -0.2261
 1006MOL0     C35725   2.333   2.765   5.628 -0.0479 -0.6210  0.4850
 1006MOL0     N35726   1.933   2.124   5.284 -0.0627  0.5782 -0.8077
 1006MOL0     N35727   1.948   2.031   5.198  0.2261 -0.6975  0.4957
 1006MOL0     C35728   1.921   0.890   5.465 -0.2154 -0.4995 -1.2675
 1006MOL0     C35729   1.907   0.783   5.560 -0.0734  0.0117 -0.2695
 1006MOL0     C35730   1.870   0.375   5.734  1.1099 -0.5356  0.3457
 1006MOL0     C35731   1.818   0.411   5.853 -0.9941 -0.8000 -0.3244
 1006MOL0     C35732   1.857   0.342   5.973 -0.0103  0.6362 -0.0776
 1006MOL0     C35733   1.944   0.233   5.965  0.2025 -0.3438 -0.0498
 1006MOL0     O35734   1.977   0.162   6.082  0.7709  0.9102  0.2441
 1006MOL0     C35735   2.093   0.093   6.078  0.1865  0.3523  0.0001
 1006MOL0     C35736   2.139   0.079   6.222 -0.6495 -0.2748 -0.9064
 1006MOL0     C35737   2.072  -0.028   6.316 -0.1885  0.6988  0.5119
 1006MOL0     C35738   1.932   0.007   6.359  0.0966  0.4659 -0.5650
 1006MOL0     C35739   1.920   0.139   6.426 -0.2056 -0.1663  0.4694
 1006MOL0     C35740   1.912   0.236   6.494 -0.1986  0.2457 -0.0960
 1006MOL0     C35741   2.000   0.195   5.836  0.6692  0.2730  0.2542
 1006MOL0     C35742   1.950   0.262   5.723 -0.4541 -0.4950 -0.7574
 1006MOL0     H35743   1.654   0.625   5.436 -1.4897  0.4678  0.6138
 1006MOL0     H35744   1.640   0.825   5.283 -2.6209  0.3618  1.7542
 1006MOL0     H35745   1.701   0.981   5.109 -1.9139  0.9296 -0.8903
 1006MOL0     H35746   1.639   1.075   5.250 -1.7196 -1.0837 -0.2708
 1006MOL0     H35747   1.841   1.140   5.021 -1.2097 -0.3167 -1.7421
 1006MOL0     H35748   1.681   1.210   5.034  0.6898  0.8882 -1.0003
 1006MOL0     H35749   1.741   1.307   5.266 -0.2946 -0.8171 -0.7052
 1006MOL0     H35750   1.912   1.260   5.222 -0.0399 -4.1960 -3.0078
 1006MOL0     H35751   1.919   1.428   5.042  0.6919  2.4970  0.9854
 1006MOL0     H35752   1.754   1.466   5.055  1.6675  2.9151 -0.2384
 1006MOL0     H35753   1.857   1.628   5.147 -0.7611 -2.2604 -3.1759
 1006MOL0     H35754   1.813   1.555   5.306 -2.7303  0.7478 -0.8770
 1006MOL0     H35755   2.048   1.476   5.317 -1.8207  0.4584  1.7500
 1006MOL0     H35756   2.085   1.530   5.155  1.2618  0.5830  0.7931
 1006MOL0     H35757   1.957   1.718   5.359  0.1704 -1.4742 -1.2246
 1006MOL0     H35758   2.121   1.695   5.387 -2.7051  0.2644  2.4851
 1006MOL0     H35759   2.007   1.784   5.108  0.2011  1.3587  0.1789
 1006MOL0     H35760   2.168   1.799   5.166  0.2227  1.1211 -0.8754
 1006MOL0     H35761   2.141   1.924   5.430 -0.3476 -1.4958 -0.4421
 1006MOL0     H35762   1.920   2.219   5.533  0.1883  0.4113  1.3226
 1006MOL0     H35763   2.064   2.143   5.589 -0.5988 -0.5611 -0.6528
 1006MOL0     H35764   2.057   2.381   5.407  0.5510  1.7820  0.6948
 1006MOL0     H35765   2.205   2.275   5.437  1.3533  0.6239  2.4594
 1006MOL0     H35766   2.208   2.314   5.662 -0.7386 -0.6162 -0.2070
 1006MOL0     H35767   2.048   2.367   5.676 -0.4306  1.6852 -0.0700
 1006MOL0     H35768   2.103   2.580   5.655  1.4773  2.6754 -1.1878
 1006MOL0     H35769   2.183   2.551   5.498  0.6978 -2.8599 -0.0566
 1006MOL0     H35770   2.494   2.566   5.835 -2.8248 -0.0698  1.5603
 1006MOL0     H35771   2.769   2.767   5.821  0.1959 -0.7179  0.3701
 1006MOL0     H35772   2.677   2.825   5.963  1.0714  0.0747  0.0058
 1006MOL0     H35773   2.686   2.662   5.947  2.1368 -0.1150 -0.5868
 1006MOL0     H35774   2.710   3.269   5.888  0.9170 -1.0509 -1.8271
 1006MOL0     H35775   2.789   3.488   5.833  1.9693 -2.9897 -1.9162
 1006MOL0     H35776   2.724   3.742   5.775  0.2546 -0.9792  0.7016
 1006MOL0     H35777   2.864   3.650   5.723 -1.7537 -0.8216  1.7545
 1006MOL0     H35778   2.754   3.891   5.574  2.3016  2.2234 -0.2699
 1006MOL0     H35779   2.881   3.900   5.695  0.2780  2.2546 -1.0220
 1006MOL0     H35780   2.881   3.787   5.416 -0.6737  0.0431  0.9264
 1006MOL0     H35781   2.996   3.723   5.537 -0.9334 -0.0342  0.3723
 1006MOL0     H35782   2.977   4.009   5.428 -2.6403 -0.8327 -1.6639
 1006MOL0     H35783   3.081   3.966   5.568 -0.7630  0.7020 -0.6744
 1006MOL0     H35784   3.222   3.969   5.380 -1.3215  0.3641 -2.4236
 1006MOL0     H35785   3.109   3.859   5.293  1.0390 -2.2565 -0.6663
 1006MOL0     H35786   3.282   3.785   5.534 -0.7882  1.3780 -1.4952
 1006MOL0     H35787   3.175   3.668   5.448  1.3387 -1.2691 -1.0589
 1006MOL0     H35788   3.295   3.682   5.242 -0.5422  0.4766  0.9511
 1006MOL0     H35789   3.397   3.634   5.362 -0.3630 -0.5706  0.0709
 1006MOL0     H35790   3.484   3.880   5.390 -0.4984  1.1618 -0.7945
 1006MOL0     H35791   3.420   3.915   5.241 -0.1249 -0.5068 -1.4807
 1006MOL0     H35792   2.532   3.492   5.484  0.9285 -1.8273 -1.3776
 1006MOL0     H35793   2.452   3.265   5.551 -1.3007 -0.5549  0.5321
 1006MOL0     H35794   2.367   2.980   5.622  1.4218  0.3378 -0.2765
 1006MOL0     H35795   2.239   2.773   5.575 -0.9368  3.1369  2.2936
 1006MOL0     H35796   1.999   0.965   5.479 -1.3768  0.4550  0.6304
 1006MOL0     H35797   1.961   0.788   5.654  3.0485  1.2306 -1.9903
 1006MOL0     H35798   1.755   0.493   5.884 -2.6428 -2.1533  0.0779
 1006MOL0     H35799   1.816   0.376   6.068 -1.0711  1.3001 -0.7519
 1006MOL0     H35800   2.087  -0.006   6.031  0.3641  1.2658 -2.0451
 1006MOL0     H35801   2.162   0.150   6.016 -0.4472 -1.4273 -2.4879
 1006MOL0     H35802   2.126   0.170   6.280 -0.0423 -1.4348  1.1557
 1006MOL0     H35803   2.245   0.056   6.236 -1.0150 -2.2299 -1.0837
 1006MOL0     H35804   2.137  -0.038   6.403 -1.0200  1.1253  1.2040
 1006MOL0     H35805   2.063  -0.121   6.258 -1.2652  1.3584 -0.4266
 1006MOL0     H35806   1.909  -0.062   6.440  1.2186  0.9390  0.1744
 1006MOL0     H35807   1.858  -0.010   6.280  0.3138 -0.8382 -0.5095
 1006MOL0     H35808   1.915   0.320   6.560 -0.8686  2.0425 -2.2565
 1006MOL0     H35809   2.067   0.110   5.836  1.5577  0.9648  0.6557
 1006MOL0     H35810   1.981   0.238   5.622 -0.7086  1.3445 -1.3137
 1007MOL0     O35811   5.814   7.953   2.187  0.2475 -0.2380 -0.2779
 1007MOL0     C35812   5.883   7.938   2.094 -0.1407 -1.0699 -0.4632
 1007MOL0     O35813   5.899   7.830   2.023  0.3560  0.3243 -0.0406
 1007MOL0     C35814   5.819   7.716   2.042  0.1516  0.4635 -1.0624
 1007MOL0     C35815   5.681   7.721   2.040  0.1887  0.0652 -0.4718
 1007MOL0     C35816   5.608   7.605   2.080 -0.9373 -0.3869 -0.0315
 1007MOL0     C35817   5.679   7.485   2.102 -0.8061  0.5411 -0.5064
 1007MOL0     O35818   5.610   7.374   2.144  0.2137  0.4752  0.5488
 1007MOL0     C35819   5.471   7.376   2.150 -0.6714  0.2061  0.6420
 1007MOL0     C35820   5.427   7.245   2.203  0.2875 -0.2465 -0.0191
 1007MOL0     C35821   5.472   7.215   2.347 -0.3644 -0.1417 -0.8690
 1007MOL0     C35822   5.422   7.084   2.402 -0.3861  0.3099  0.0183
 1007MOL0     C35823   5.507   7.055   2.529  0.5558  0.7284  0.0868
 1007MOL0     C35824   5.660   7.012   2.510 -0.4001  0.2013 -0.3371
 1007MOL0     C35825   5.728   6.984   2.647  0.6190  0.3254 -0.5228
 1007MOL0     C35826   5.870   6.939   2.665 -0.0007 -0.5043  0.4033
 1007MOL0     N35827   5.901   6.822   2.589  0.6492  0.2088 -0.6447
 1007MOL0     C35828   5.886   6.696   2.640 -0.1181 -0.5191  0.1481
 1007MOL0     C35829   5.944   6.619   2.543  0.4985  0.5406 -0.3151
 1007MOL0     C35830   5.975   6.468   2.569 -0.0405 -0.0353 -0.7600
 1007MOL0     C35831   6.007   6.430   2.710 -0.1971 -0.0159  0.7830
 1007MOL0     C35832   6.066   6.291   2.725  0.5660 -0.1644 -0.3935
 1007MOL0     C35833   6.085   6.251   2.871  0.1571  0.1419  0.0534
 1007MOL0     O35834   6.152   6.124   2.870  0.2905  0.4248  0.7352
 1007MOL0     C35835   6.170   6.063   2.984 -0.1791  0.1344 -0.8352
 1007MOL0     C35836   6.295   6.030   3.030 -0.2733  0.2728 -0.4558
 1007MOL0     C35837   6.317   5.970   3.153  0.7066  0.1260 -0.0285
 1007MOL0     C35838   6.454   5.910   3.170  0.1359  0.2456  0.3138
 1007MOL0     C35839   6.201   5.944   3.242  1.0781 -0.3265  1.0911
 1007MOL0     C35840   6.206   5.905   3.384  0.0152 -0.7352 -0.3799
 1007MOL0     O35841   6.084   5.880   3.441  0.3274  0.2379 -0.6584
 1007MOL0     C35842   6.071   5.866   3.583  0.1207 -0.3503  0.9449
 1007MOL0     C35843   5.951   5.806   3.604  0.1259  1.5139 -1.4564
 1007MOL0     C35844   5.911   5.763   3.731  1.3276  1.1760  0.2416
 1007MOL0     C35845   6.000   5.786   3.837 -0.0577  0.0968  0.7590
 1007MOL0     O35846   5.969   5.738   3.957 -0.0637  0.0979  0.4381
 1007MOL0     C35847   5.865   5.808   4.034  0.9267 -0.7910  0.1861
 1007MOL0     C35848   5.880   5.956   4.043  0.3731 -1.1644  0.0754
 1007MOL0     C35849   5.768   6.031   4.114 -0.9843  0.2898  0.4737
 1007MOL0     C35850   5.807   6.075   4.261 -1.0508 -0.2638  0.4540
 1007MOL0     C35851   5.777   5.971   4.375  1.2447 -0.4386  0.8534
 1007MOL0     C35852   5.828   6.005   4.513  0.3982 -0.4423 -0.7587
 1007MOL0     C35853   5.778   6.136   4.566 -0.8158 -0.5318  0.4801
 1007MOL0     C35854   5.842   6.167   4.703  0.0301  1.4143 -0.0938
 1007MOL0    Cl35855   5.728   6.138   4.828  0.2832  0.0986  0.1347
 1007MOL0     C35856   6.120   5.865   3.811 -0.2936  0.1385 -0.5679
 1007MOL0     C35857   6.159   5.907   3.682  0.4918 -0.0607 -0.1645
 1007MOL0     O35858   6.315   5.901   3.442  0.3978 -0.2904 -0.4842
 1007MOL0     C35859   6.071   5.970   3.188  0.5119  0.0593  0.1432
 1007MOL0     C35860   6.058   6.034   3.063 -0.1236  0.6892  0.4360
 1007MOL0     N35861   5.983   6.688   2.436  0.8854  0.0415 -0.5294
 1007MOL0     N35862   5.964   6.812   2.469  0.3960 -0.9701  0.0406
 1007MOL0     C35863   5.823   7.484   2.099  0.1466 -0.8679 -0.0337
 1007MOL0     C35864   5.896   7.602   2.074  0.9038 -0.4714  1.3663
 1007MOL0     C35865   5.955   8.043   2.035 -0.3742  0.4393 -0.0024
 1007MOL0     C35866   6.048   8.029   1.926  1.1162  0.4649 -0.0067
 1007MOL0     C35867   6.098   8.142   1.858  0.3158  0.1856  0.2060
 1007MOL0     C35868   6.062   8.268   1.904  0.0492 -0.5893  0.3126
 1007MOL0     O35869   6.106   8.369   1.818  0.8382 -0.4089 -0.0423
 1007MOL0     C35870   6.035   8.501   1.838 -0.5234  0.6705  0.5982
 1007MOL0     C35871   5.891   8.503   1.780  0.2081  0.3786 -0.3889
 1007MOL0     C35872   5.881   8.467   1.626  0.1124 -0.8264  0.6769
 1007MOL0     C35873   5.786   8.560   1.549 -0.7108  0.4743 -0.2477
 1007MOL0     C35874   5.655   8.571   1.610 -0.7905 -0.2153 -0.6636
 1007MOL0     C35875   5.552   8.582   1.667 -0.3613 -0.9989 -0.5037
 1007MOL0     C35876   5.981   8.283   2.013 -0.1372  0.2090 -0.4063
 1007MOL0     C35877   5.926   8.175   2.076  0.2931  0.0243 -0.7860
 1007MOL0     H35878   5.638   7.815   2.010 -2.6095 -1.9596 -3.4840
 1007MOL0     H35879   5.500   7.610   2.076 -0.9463 -0.9125 -0.7321
 1007MOL0     H35880   5.440   7.456   2.218  0.2276 -0.4579  1.8740
 1007MOL0     H35881   5.420   7.383   2.053 -1.4774  2.2840  1.1600
 1007MOL0     H35882   5.318   7.238   2.201  0.3988 -3.9250 -1.4371
 1007MOL0     H35883   5.449   7.165   2.131 -2.4284 -2.0687  1.0069
 1007MOL0     H35884   5.581   7.211   2.360 -0.4787 -1.3325 -0.1159
 1007MOL0     H35885   5.430   7.283   2.421  0.1214  3.2049 -3.4010
 1007MOL0     H35886   5.315   7.094   2.423 -1.2185 -3.1862 -1.8114
 1007MOL0     H35887   5.434   7.001   2.331  0.0215  1.4095 -1.2565
 1007MOL0     H35888   5.517   7.149   2.582  0.1968  2.1331 -2.1803
 1007MOL0     H35889   5.460   6.979   2.591  0.6367 -0.2949 -1.0475
 1007MOL0     H35890   5.661   6.919   2.454  2.4285  0.2848 -0.5967
 1007MOL0     H35891   5.720   7.087   2.457 -1.8478 -0.1094 -2.5145
 1007MOL0     H35892   5.729   7.085   2.689 -1.2814  0.0532  0.2569
 1007MOL0     H35893   5.679   6.901   2.699  1.3033  0.6449  0.6627
 1007MOL0     H35894   5.875   6.909   2.770 -0.0074 -1.9394  0.0115
 1007MOL0     H35895   5.935   7.026   2.649 -1.4752  0.4653 -0.4877
 1007MOL0     H35896   5.853   6.657   2.736  0.4484 -0.6116  0.3133
 1007MOL0     H35897   5.883   6.420   2.536 -0.6743  3.7450 -5.5285
 1007MOL0     H35898   6.051   6.430   2.500  1.3568 -0.6924  1.0540
 1007MOL0     H35899   5.913   6.400   2.757  0.4056 -1.1150  1.3318
 1007MOL0     H35900   6.073   6.506   2.754 -0.7970  1.7031 -1.1058
 1007MOL0     H35901   6.162   6.296   2.673  0.4466  1.0976 -0.5334
 1007MOL0     H35902   5.999   6.222   2.672 -2.9549  1.7300  1.2402
 1007MOL0     H35903   5.996   6.265   2.933 -0.0998  1.6240 -0.6182
 1007MOL0     H35904   6.148   6.332   2.910  0.1720  0.3713 -0.4420
 1007MOL0     H35905   6.375   6.046   2.957 -1.0420 -0.6498 -1.5359
 1007MOL0     H35906   6.506   5.890   3.076 -0.4672 -2.0932  0.4087
 1007MOL0     H35907   6.508   5.971   3.243  0.8776  2.0779 -1.6789
 1007MOL0     H35908   6.456   5.810   3.214  0.0503 -0.3390 -0.9656
 1007MOL0     H35909   5.869   5.784   3.536 -3.0614 -1.2062  2.7606
 1007MOL0     H35910   5.809   5.732   3.749  1.1765  0.1393 -2.0211
 1007MOL0     H35911   5.771   5.789   3.982  1.7112 -0.3828 -1.4680
 1007MOL0     H35912   5.846   5.778   4.137  1.1332  2.2684  1.2274
 1007MOL0     H35913   5.973   5.970   4.100  0.9983 -1.2266 -0.9003
 1007MOL0     H35914   5.886   5.998   3.942 -1.1294  0.4728  0.6143
 1007MOL0     H35915   5.676   5.972   4.123 -0.9484  0.5614  5.2193
 1007MOL0     H35916   5.753   6.116   4.047  1.1918 -1.9105 -3.1356
 1007MOL0     H35917   5.916   6.081   4.260 -1.0844  0.5023  0.0024
 1007MOL0     H35918   5.764   6.173   4.282  0.0908 -0.0577  2.0023
 1007MOL0     H35919   5.829   5.879   4.350  0.9546 -0.9407  2.0210
 1007MOL0     H35920   5.668   5.958   4.370  1.2427  0.1590 -2.3013
 1007MOL0     H35921   5.800   5.922   4.579  0.2506  0.6060  0.5595
 1007MOL0     H35922   5.937   6.001   4.507  0.4046  0.8422 -1.8370
 1007MOL0     H35923   5.671   6.126   4.585 -0.4655 -2.0924  1.7978
 1007MOL0     H35924   5.799   6.212   4.489 -0.4117 -0.0463  1.0543
 1007MOL0     H35925   5.872   6.272   4.699  1.6971  0.9639 -0.3325
 1007MOL0     H35926   5.928   6.109   4.738 -1.0341  1.5660  3.1296
 1007MOL0     H35927   6.185   5.890   3.895 -0.8371  0.1571 -0.1461
 1007MOL0     H35928   6.248   5.966   3.666 -0.0582  1.4302  1.7956
 1007MOL0     H35929   5.977   5.960   3.241 -0.1395  0.5533 -0.8739
 1007MOL0     H35930   5.955   6.058   3.037 -0.7028  0.8335  2.5977
 1007MOL0     H35931   5.869   7.386   2.094  2.9466  0.3700 -0.7223
 1007MOL0     H35932   6.004   7.615   2.072  1.6321 -4.4928  3.4325
 1007MOL0     H35933   6.061   7.931   1.881 -2.2775 -0.2602  0.2589
 1007MOL0     H35934   6.161   8.129   1.770 -0.9661  0.7116 -0.8245
 1007MOL0     H35935   6.036   8.543   1.940  0.1769  0.5258  0.6543
 1007MOL0     H35936   6.092   8.573   1.779  0.5491  1.5379  2.5709
 1007MOL0     H35937   5.845   8.597   1.813  2.4791  1.8556 -1.1367
 1007MOL0     H35938   5.826   8.433   1.833 -4.6936  1.5019 -4.1616
 1007MOL0     H35939   5.829   8.371   1.622  0.1303 -0.8482  0.9943
 1007MOL0     H35940   5.980   8.468   1.579  0.3000 -0.9367  1.0659
 1007MOL0     H35941   5.756   8.525   1.450 -1.8905  0.6822  0.0268
 1007MOL0     H35942   5.836   8.658   1.542  2.3516 -0.9265  0.4332
 1007MOL0     H35943   5.473   8.579   1.740  1.5334  2.9754  2.0776
 1007MOL0     H35944   5.968   8.379   2.063 -0.9648 -0.4320  0.6511
 1007MOL0     H35945   5.862   8.194   2.162 -1.5852 -1.7469 -1.7304
 1008MOL0     O35946   9.944   4.306   2.601 -0.1930 -0.3466  0.5469
 1008MOL0     C35947   9.908   4.190   2.578 -0.7549  0.1797 -0.1459
 1008MOL0     O35948   9.852   4.101   2.672  0.3126 -0.2868  0.2546
 1008MOL0     C35949   9.872   4.140   2.807 -0.8152  0.1201  0.4671
 1008MOL0     C35950   9.976   4.091   2.883 -0.3329  0.1708 -0.0703
 1008MOL0     C35951  10.001   4.156   3.009 -0.3022  0.4449 -0.2442
 1008MOL0     C35952   9.915   4.247   3.070 -0.5975 -0.6892 -0.5717
 1008MOL0     O35953   9.947   4.288   3.201  0.4956  0.1709  0.0909
 1008MOL0     C35954   9.936   4.425   3.228  0.5702 -0.9176  0.0154
 1008MOL0     C35955  10.035   4.449   3.345 -0.4595  0.1307  0.1266
 1008MOL0     C35956   9.977   4.428   3.488  0.3676  0.6394  0.1903
 1008MOL0     C35957  10.071   4.489   3.594 -0.5365  0.8667 -1.1137
 1008MOL0     C35958  10.060   4.440   3.744  0.0143  0.1735 -0.0967
 1008MOL0     C35959   9.918   4.473   3.801  0.3981 -0.1291 -0.6300
 1008MOL0     C35960   9.895   4.437   3.948 -0.5873 -0.6594 -0.3651
 1008MOL0     C35961   9.975   4.521   4.049 -0.3457 -0.2107 -0.2694
 1008MOL0     N35962   9.959   4.461   4.181 -0.3911  1.0068  0.2134
 1008MOL0     C35963  10.056   4.419   4.269 -0.7453 -0.4854 -0.9188
 1008MOL0     C35964   9.995   4.364   4.372  0.0579  0.2246  0.9204
 1008MOL0     C35965  10.064   4.311   4.499  1.1764  0.4555 -0.8429
 1008MOL0     C35966  10.204   4.374   4.518 -0.0386 -1.1797 -0.4001
 1008MOL0     C35967  10.241   4.361   4.666  0.5673 -0.6450 -1.0281
 1008MOL0     C35968  10.248   4.215   4.742  0.1220  0.4632  0.0629
 1008MOL0     O35969  10.275   4.232   4.882  0.3634 -0.2870 -0.2977
 1008MOL0     C35970  10.235   4.133   4.971 -0.7413  0.4344  0.1454
 1008MOL0     C35971  10.122   4.141   5.053  0.3129 -0.4348  0.1080
 1008MOL0     C35972  10.082   4.051   5.147 -0.5969 -0.2835 -0.1627
 1008MOL0     C35973   9.941   4.072   5.195 -0.2250 -0.5663 -0.4640
 1008MOL0     C35974  10.159   3.940   5.177  0.2030  0.7457 -0.0771
 1008MOL0     C35975  10.118   3.828   5.262  0.5302 -0.3336 -0.3325
 1008MOL0     O35976  10.178   3.700   5.251 -0.5901 -0.2996  0.4390
 1008MOL0     C35977  10.115   3.589   5.309 -0.2770  0.9481  0.3382
 1008MOL0     C35978  10.053   3.488   5.233  0.2679  0.3518  0.1290
 1008MOL0     C35979   9.987   3.379   5.292  0.1547 -0.1337 -0.6136
 1008MOL0     C35980   9.988   3.364   5.429  0.2584 -0.1562 -0.4435
 1008MOL0     O35981   9.927   3.270   5.510  0.0621  0.4780 -0.3033
 1008MOL0     C35982   9.842   3.166   5.458  0.9432  0.0622  0.1492
 1008MOL0     C35983   9.768   3.082   5.552  1.0482  0.0611 -0.1293
 1008MOL0     C35984   9.838   3.055   5.686  0.9999  0.0091 -0.7767
 1008MOL0     C35985   9.808   3.151   5.800 -0.3999 -0.4879  0.4486
 1008MOL0     C35986   9.896   3.115   5.918 -0.1981 -0.4270 -0.0976
 1008MOL0     C35987   9.873   3.203   6.040 -1.0524  1.0631  0.1483
 1008MOL0     C35988   9.922   3.139   6.172  0.4328  0.3063 -0.5618
 1008MOL0     C35989   9.916   3.247   6.279 -0.4523  0.0507  0.1339
 1008MOL0    Cl35990   9.946   3.189   6.441 -0.2565  0.5154 -0.5419
 1008MOL0     C35991  10.050   3.459   5.508  0.3067 -0.2948 -0.0981
 1008MOL0     C35992  10.107   3.576   5.447 -0.3738 -0.3197  0.4768
 1008MOL0     O35993  10.030   3.848   5.340 -0.1310  0.2584 -0.9148
 1008MOL0     C35994  10.270   3.929   5.096 -0.9538 -0.3548  0.3564
 1008MOL0     C35995  10.303   4.016   4.997 -0.2776  0.1447 -0.1319
 1008MOL0     N35996   9.857   4.363   4.339  0.3616  0.1894  0.0586
 1008MOL0     N35997   9.839   4.432   4.230 -0.0529 -0.1234 -0.1752
 1008MOL0     C35998   9.805   4.291   2.986  0.3994  1.0548  0.8803
 1008MOL0     C35999   9.782   4.243   2.863 -0.4213  0.3386 -0.1516
 1008MOL0     C36000   9.919   4.142   2.441  1.0940 -0.4746  0.9115
 1008MOL0     C36001   9.925   4.230   2.333 -0.4285  0.3810 -0.2083
 1008MOL0     C36002   9.963   4.185   2.205  0.2873  0.6510  0.3915
 1008MOL0     C36003   9.980   4.045   2.177  0.2641 -0.5530 -0.2593
 1008MOL0     O36004  10.013   3.988   2.056 -0.7886 -0.4339 -0.3719
 1008MOL0     C36005  10.138   3.913   2.064  0.7167  1.2830  0.7455
 1008MOL0     C36006  10.249   3.988   2.013 -0.2001  0.0918 -0.7376
 1008MOL0     C36007  10.243   4.015   1.864 -0.4203 -0.0913  0.2297
 1008MOL0     C36008  10.364   4.085   1.822 -0.3097 -0.2384 -1.3276
 1008MOL0     C36009  10.389   4.216   1.886 -0.8280 -0.4241  0.4230
 1008MOL0     C36010  10.421   4.324   1.933  0.6581 -0.1668  0.4023
 1008MOL0     C36011   9.944   3.961   2.284 -0.5814 -1.1472  0.0944
 1008MOL0     C36012   9.921   4.002   2.410 -0.4401 -0.3038  0.2071
 1008MOL0     H36013  10.038   4.010   2.846  1.2845  0.6312  1.4826
 1008MOL0     H36014  10.080   4.125   3.077 -0.0494  0.1696 -0.6555
 1008MOL0     H36015   9.979   4.469   3.138 -4.1090  0.2399 -1.9515
 1008MOL0     H36016   9.832   4.455   3.244  0.4043 -1.7865  0.6803
 1008MOL0     H36017  10.129   4.398   3.322 -0.4671 -0.4471  1.3203
 1008MOL0     H36018  10.052   4.557   3.353 -0.2140  0.1843 -0.9806
 1008MOL0     H36019   9.881   4.477   3.508 -0.6960 -1.2340 -0.0993
 1008MOL0     H36020   9.961   4.322   3.505  4.8934  0.1374  2.7252
 1008MOL0     H36021  10.172   4.469   3.558 -0.6716 -1.3350 -0.4166
 1008MOL0     H36022  10.049   4.596   3.599  0.9372  1.2245 -1.8152
 1008MOL0     H36023  10.082   4.333   3.743  1.3554  0.4258  0.2196
 1008MOL0     H36024  10.137   4.483   3.808 -2.1476 -2.3584  4.7823
 1008MOL0     H36025   9.892   4.579   3.809 -0.5613 -0.4732  1.4838
 1008MOL0     H36026   9.838   4.422   3.746 -0.4367 -0.5535  0.9283
 1008MOL0     H36027   9.791   4.455   3.977  0.0638  0.2700  1.6270
 1008MOL0     H36028   9.912   4.330   3.959 -3.8274 -1.1381  1.1764
 1008MOL0     H36029   9.935   4.621   4.066  1.7042  0.5796  0.2097
 1008MOL0     H36030  10.081   4.520   4.020 -0.8656  0.4568 -2.3622
 1008MOL0     H36031  10.164   4.426   4.257 -0.5820 -2.0920 -0.5691
 1008MOL0     H36032   9.995   4.342   4.578  2.9855  3.9598 -0.4107
 1008MOL0     H36033  10.060   4.202   4.505 -4.0120  0.4525  2.9966
 1008MOL0     H36034  10.196   4.482   4.510  0.7680 -1.1846 -1.4015
 1008MOL0     H36035  10.284   4.337   4.453  0.7314 -0.2334 -0.0013
 1008MOL0     H36036  10.164   4.421   4.716 -0.2946 -1.8224 -0.9264
 1008MOL0     H36037  10.338   4.413   4.670 -1.0647  2.6732 -0.8609
 1008MOL0     H36038  10.328   4.151   4.704  0.3367 -0.1125  1.4313
 1008MOL0     H36039  10.148   4.170   4.733 -0.6535  1.7511  1.6987
 1008MOL0     H36040  10.054   4.223   5.034 -1.9562 -2.4132 -0.8948
 1008MOL0     H36041   9.891   4.166   5.171 -3.6013 -1.8267  1.0045
 1008MOL0     H36042   9.872   3.997   5.157  0.7369 -0.9866 -1.4609
 1008MOL0     H36043   9.952   4.069   5.304 -0.9687 -2.2469 -0.4052
 1008MOL0     H36044  10.076   3.489   5.126  1.0913  2.4492  0.2791
 1008MOL0     H36045   9.943   3.293   5.242 -0.3858  0.2600 -0.8221
 1008MOL0     H36046   9.776   3.220   5.389  0.0196 -1.5186 -0.2768
 1008MOL0     H36047   9.900   3.095   5.399 -0.9400 -2.2665  0.8913
 1008MOL0     H36048   9.677   3.140   5.575  1.1591  0.0137  0.4457
 1008MOL0     H36049   9.736   2.992   5.499 -2.1464  0.4735  0.8431
 1008MOL0     H36050   9.946   3.059   5.669  1.1558 -0.4789  0.0362
 1008MOL0     H36051   9.810   2.964   5.740  3.9370 -0.5802 -0.0505
 1008MOL0     H36052   9.835   3.255   5.780  0.9464 -0.5919  1.5791
 1008MOL0     H36053   9.701   3.152   5.823 -0.5628 -0.6347 -0.2832
 1008MOL0     H36054   9.999   3.124   5.881 -0.6681  0.7673 -1.2172
 1008MOL0     H36055   9.894   3.010   5.947  5.2030 -0.1533  2.4615
 1008MOL0     H36056   9.907   3.306   6.029 -0.6914  1.0588  1.1122
 1008MOL0     H36057   9.764   3.205   6.051 -1.0462  0.5651  0.3584
 1008MOL0     H36058  10.020   3.091   6.163  0.4328  0.3116 -0.5879
 1008MOL0     H36059   9.846   3.067   6.202 -1.7178  2.7953  0.4404
 1008MOL0     H36060   9.812   3.281   6.278 -0.7677 -0.7793  1.7882
 1008MOL0     H36061   9.987   3.328   6.255 -1.5247  1.6802  2.1475
 1008MOL0     H36062  10.041   3.450   5.616 -3.6340 -0.2788 -0.2576
 1008MOL0     H36063  10.155   3.658   5.499  2.8521 -0.3893 -2.0717
 1008MOL0     H36064  10.324   3.835   5.099 -3.2369 -1.7449  0.4231
 1008MOL0     H36065  10.402   3.995   4.957  1.9146 -0.3678  4.8024
 1008MOL0     H36066   9.747   4.381   3.007  0.8455  1.8446 -1.0787
 1008MOL0     H36067   9.693   4.273   2.808 -0.2294  1.2294  0.0191
 1008MOL0     H36068   9.917   4.335   2.358 -0.3686  0.0418  1.3430
 1008MOL0     H36069   9.994   4.251   2.125  2.4922 -1.6422 -0.7976
 1008MOL0     H36070  10.150   3.875   2.166  1.0609 -1.4693 -0.2370
 1008MOL0     H36071  10.122   3.821   2.007  1.9393 -0.2471  2.7460
 1008MOL0     H36072  10.341   3.930   2.031 -1.5254 -1.8779  0.0751
 1008MOL0     H36073  10.241   4.087   2.058 -4.3112  0.6917 -2.3659
 1008MOL0     H36074  10.167   4.091   1.840 -0.8969 -0.9522 -1.1225
 1008MOL0     H36075  10.242   3.927   1.799 -2.0822  0.1189 -0.0805
 1008MOL0     H36076  10.359   4.096   1.713  0.0663 -0.7873 -1.4098
 1008MOL0     H36077  10.449   4.018   1.843 -0.5075 -0.3345 -0.8236
 1008MOL0     H36078  10.443   4.418   1.980 -2.1530  0.8278 -0.0358
 1008MOL0     H36079   9.936   3.854   2.269  1.0126 -1.6320  2.2278
 1008MOL0     H36080   9.911   3.933   2.494  3.1433 -0.4424  0.6651
 1009MOL0     O36081   2.601  10.635   0.779  0.7260  0.1119 -0.9144
 1009MOL0     C36082   2.479  10.598   0.781 -0.6101 -0.6259  0.1724
 1009MOL0     O36083   2.376  10.690   0.773 -0.9648  0.9871  0.0574
 1009MOL0     C36084   2.407  10.826   0.777 -0.3408 -0.3342 -0.0174
 1009MOL0     C36085   2.428  10.887   0.650 -0.6350  0.0059 -0.1244
 1009MOL0     C36086   2.452  11.022   0.642 -0.4249  0.2978 -0.5360
 1009MOL0     C36087   2.455  11.103   0.756  0.4101 -0.9856 -0.7861
 1009MOL0     O36088   2.497  11.236   0.743 -0.0564  0.5413  0.2726
 1009MOL0     C36089   2.449  11.344   0.826  0.8297 -0.7389  0.3168
 1009MOL0     C36090   2.322  11.415   0.757 -0.2615  1.2616 -0.4767
 1009MOL0     C36091   2.188  11.331   0.788 -0.8122 -0.7905  0.0842
 1009MOL0     C36092   2.068  11.407   0.737 -0.2873  0.9836 -0.1292
 1009MOL0     C36093   1.949  11.309   0.736 -0.0947 -1.0696  0.9041
 1009MOL0     C36094   1.826  11.364   0.675 -1.2015  0.7722  0.1088
 1009MOL0     C36095   1.846  11.382   0.522 -0.3552  0.0733 -0.0874
 1009MOL0     C36096   1.715  11.418   0.442  0.0458  0.5251  0.1645
 1009MOL0     N36097   1.663  11.547   0.483  0.1813  0.1317  0.0032
 1009MOL0     C36098   1.694  11.669   0.415  0.7648 -0.2463  0.1984
 1009MOL0     C36099   1.606  11.755   0.462  0.3116  0.1934  0.0038
 1009MOL0     C36100   1.585  11.887   0.401  0.1027 -0.0956 -0.2770
 1009MOL0     C36101   1.525  11.867   0.260  0.0162  0.2420  0.6116
 1009MOL0     C36102   1.468  11.992   0.211 -0.5659 -0.4292 -0.3125
 1009MOL0     C36103   1.569  12.085   0.152  0.4040 -0.0129 -0.7118
 1009MOL0     O36104   1.671  12.129   0.238  0.1785  0.2308  0.2498
 1009MOL0     C36105   1.790  12.155   0.175 -0.3286 -0.6984  0.8339
 1009MOL0     C36106   1.898  12.145   0.255  0.2485  0.0310 -0.4908
 1009MOL0     C36107   2.033  12.166   0.217 -0.1464  0.5470  0.7558
 1009MOL0     C36108   2.155  12.163   0.314 -0.1694  0.0422 -0.0769
 1009MOL0     C36109   2.047  12.212   0.078  0.4354 -0.4282 -0.2610
 1009MOL0     C36110   2.177  12.245   0.000  0.0577 -0.4643  0.2820
 1009MOL0     O36111   2.173  12.261  -0.137  0.1771 -0.3771  0.3291
 1009MOL0     C36112   2.289  12.235  -0.208 -1.0206 -1.0334 -0.7086
 1009MOL0     C36113   2.325  12.118  -0.268 -0.6412  0.8431 -0.3978
 1009MOL0     C36114   2.437  12.099  -0.334  0.5639  1.3282 -0.2622
 1009MOL0     C36115   2.539  12.195  -0.344 -1.7019  0.1844  0.1581
 1009MOL0     O36116   2.662  12.165  -0.398  0.2803 -0.5076 -0.0255
 1009MOL0     C36117   2.784  12.219  -0.340 -0.4442  0.5782  0.3462
 1009MOL0     C36118   2.903  12.126  -0.387  0.1605 -0.8235  0.0210
 1009MOL0     C36119   3.044  12.177  -0.329  0.0286 -0.9120 -0.1791
 1009MOL0     C36120   3.149  12.077  -0.361 -0.3350  1.1009 -0.6067
 1009MOL0     C36121   3.261  12.089  -0.264 -0.3557  1.2806 -0.4392
 1009MOL0     C36122   3.359  11.968  -0.288 -0.4197 -0.4799  1.4105
 1009MOL0     C36123   3.508  12.014  -0.252 -0.1534  0.1454 -0.7754
 1009MOL0     C36124   3.513  12.023  -0.099 -0.9127 -0.7808 -0.9661
 1009MOL0    Cl36125   3.685  12.007  -0.038  0.5571  0.1710  0.3079
 1009MOL0     C36126   2.507  12.317  -0.278 -0.4608 -0.0066 -1.0328
 1009MOL0     C36127   2.383  12.335  -0.215  0.8639  0.1384  0.2654
 1009MOL0     O36128   2.276  12.273   0.070 -0.0558 -0.8640 -0.4830
 1009MOL0     C36129   1.930  12.235   0.002  0.5141 -0.4266 -0.6920
 1009MOL0     C36130   1.805  12.191   0.045  0.1258  0.2732 -0.0087
 1009MOL0     N36131   1.533  11.690   0.569 -0.0484 -0.7355  0.6781
 1009MOL0     N36132   1.564  11.572   0.585  0.1502 -0.2111 -0.2172
 1009MOL0     C36133   2.430  11.045   0.884 -0.1833 -0.6954  0.1099
 1009MOL0     C36134   2.413  10.910   0.892 -0.2836  1.3436 -0.1916
 1009MOL0     C36135   2.449  10.459   0.748  0.0153 -0.1337  1.0411
 1009MOL0     C36136   2.543  10.364   0.709  0.5015  0.2870  0.6192
 1009MOL0     C36137   2.508  10.234   0.674  0.0948  0.6754  0.0810
 1009MOL0     C36138   2.371  10.200   0.676 -0.4609  0.5684  0.8330
 1009MOL0     O36139   2.338  10.069   0.651 -0.3774  0.3332 -0.3487
 1009MOL0     C36140   2.223  10.046   0.571  0.2309 -0.6599  0.4846
 1009MOL0     C36141   2.223  10.107   0.429  0.3475 -0.1148 -0.1302
 1009MOL0     C36142   2.299  10.017   0.328 -0.1295 -0.3482 -0.1338
 1009MOL0     C36143   2.452  10.019   0.359  0.4022  0.7391  0.7468
 1009MOL0     C36144   2.513  10.141   0.310  0.9724  0.4520 -0.2101
 1009MOL0     C36145   2.570  10.233   0.261  0.3617 -0.2132  0.3066
 1009MOL0     C36146   2.267  10.299   0.700 -0.8770 -0.2176  0.8907
 1009MOL0     C36147   2.310  10.430   0.738 -0.0200  0.0494  0.3691
 1009MOL0     H36148   2.434  10.827   0.560 -0.4695  1.8860 -1.4080
 1009MOL0     H36149   2.468  11.067   0.544 -1.7403  0.6012 -0.6327
 1009MOL0     H36150   2.433  11.315   0.931 -0.2110 -0.5506  0.2219
 1009MOL0     H36151   2.524  11.422   0.842 -0.5186  0.3975  1.3563
 1009MOL0     H36152   2.300  11.517   0.790  1.8461  1.7080 -0.2926
 1009MOL0     H36153   2.324  11.422   0.647 -5.5288 -2.2391 -1.1886
 1009MOL0     H36154   2.185  11.238   0.731 -0.7308 -1.3711  1.0057
 1009MOL0     H36155   2.196  11.303   0.894  1.5807 -1.6170 -0.2462
 1009MOL0     H36156   2.049  11.505   0.782  0.1160  1.0116 -0.0235
 1009MOL0     H36157   2.095  11.442   0.637 -1.2911  0.9257 -0.4364
 1009MOL0     H36158   1.967  11.222   0.672  1.0485  0.0355 -0.3468
 1009MOL0     H36159   1.936  11.278   0.840  1.4251 -1.5014  0.9972
 1009MOL0     H36160   1.745  11.291   0.691  0.2789 -1.1122 -0.6416
 1009MOL0     H36161   1.806  11.465   0.714 -4.7010  0.5772 -0.8052
 1009MOL0     H36162   1.916  11.465   0.510  1.7544 -1.2327  2.1310
 1009MOL0     H36163   1.897  11.292   0.486 -0.9791 -1.2369  2.1147
 1009MOL0     H36164   1.638  11.343   0.466 -0.8015  0.8124 -1.5005
 1009MOL0     H36165   1.737  11.399   0.337 -2.2958  1.1780 -0.5167
 1009MOL0     H36166   1.761  11.672   0.330  1.7413 -2.4649  0.8073
 1009MOL0     H36167   1.508  11.934   0.464  1.1655  0.0582  0.9384
 1009MOL0     H36168   1.672  11.953   0.401 -0.4396  0.6640 -1.6910
 1009MOL0     H36169   1.444  11.795   0.272 -1.8785  2.1143 -0.3429
 1009MOL0     H36170   1.605  11.825   0.198 -0.7701  0.8099 -0.8526
 1009MOL0     H36171   1.396  12.044   0.275 -0.6797 -1.3841  0.3681
 1009MOL0     H36172   1.402  11.969   0.127 -0.6650  1.3952 -0.7722
 1009MOL0     H36173   1.530  12.177   0.108 -2.1313  0.0390  1.4343
 1009MOL0     H36174   1.607  12.018   0.074 -2.2532 -0.6805 -1.5428
 1009MOL0     H36175   1.879  12.117   0.358  2.1700  1.8973  0.4279
 1009MOL0     H36176   2.118  12.116   0.405 -2.2250 -2.4831 -2.0553
 1009MOL0     H36177   2.240  12.100   0.287 -1.4054 -2.0966  0.8046
 1009MOL0     H36178   2.183  12.267   0.335 -3.8273  1.0874  0.4502
 1009MOL0     H36179   2.249  12.041  -0.271 -1.0122  1.2366 -2.3375
 1009MOL0     H36180   2.459  12.011  -0.393  1.5264  3.5293 -3.4726
 1009MOL0     H36181   2.811  12.317  -0.379  2.7415  0.0185  0.8500
 1009MOL0     H36182   2.765  12.229  -0.232 -0.0074  1.4940  0.3457
 1009MOL0     H36183   2.885  12.023  -0.356 -1.7991 -0.2071  1.1002
 1009MOL0     H36184   2.904  12.130  -0.496  0.0047  0.6273  0.0543
 1009MOL0     H36185   3.051  12.190  -0.221  0.0112 -1.5125 -0.0985
 1009MOL0     H36186   3.060  12.274  -0.377 -0.7886  0.0061  1.3064
 1009MOL0     H36187   3.100  11.979  -0.365  1.7183  0.0184 -5.4627
 1009MOL0     H36188   3.180  12.077  -0.465  0.8075  0.1948 -0.2765
 1009MOL0     H36189   3.217  12.106  -0.166 -2.8294  2.8114 -1.7139
 1009MOL0     H36190   3.311  12.182  -0.292  0.8206  1.2254  1.3220
 1009MOL0     H36191   3.318  11.884  -0.231 -1.6695 -0.3777  0.7043
 1009MOL0     H36192   3.363  11.947  -0.395 -1.1299  2.4015  0.7173
 1009MOL0     H36193   3.552  12.105  -0.294  1.3355  0.2590  0.9526
 1009MOL0     H36194   3.564  11.929  -0.294 -1.0232 -1.2802  0.8400
 1009MOL0     H36195   3.449  11.943  -0.062 -2.7477  0.7548 -0.5978
 1009MOL0     H36196   3.465  12.117  -0.069  1.8659  0.5804 -0.4913
 1009MOL0     H36197   2.568  12.405  -0.262  1.7828 -1.8406  1.6909
 1009MOL0     H36198   2.351  12.427  -0.167  2.6071  0.3501  1.1187
 1009MOL0     H36199   1.938  12.277  -0.098  1.4317 -0.9379 -0.8363
 1009MOL0     H36200   1.726  12.204  -0.028  0.0761  0.7780  0.1292
 1009MOL0     H36201   2.421  11.107   0.974  0.1636 -1.3365  0.5933
 1009MOL0     H36202   2.399  10.860   0.988  1.4479  2.1895  0.5286
 1009MOL0     H36203   2.644  10.401   0.698  0.1457  1.0062 -0.3320
 1009MOL0     H36204   2.581  10.161   0.640 -0.1644  1.2242 -1.7427
 1009MOL0     H36205   2.204   9.939   0.561 -1.0296 -0.6198  2.0847
 1009MOL0     H36206   2.135  10.087   0.622  1.1448  0.3345  1.3119
 1009MOL0     H36207   2.257  10.211   0.434 -5.6927  2.2389  1.6524
 1009MOL0     H36208   2.119  10.115   0.395  0.4107 -0.1520 -0.3328
 1009MOL0     H36209   2.285  10.066   0.231 -1.0141 -1.8917 -0.8276
 1009MOL0     H36210   2.261   9.917   0.305  1.6001 -0.6060 -2.1240
 1009MOL0     H36211   2.495   9.942   0.294 -0.3828  0.1040  0.9699
 1009MOL0     H36212   2.466   9.983   0.462 -5.1278  1.6410  2.1187
 1009MOL0     H36213   2.605  10.328   0.225  2.4692 -0.5510  1.3510
 1009MOL0     H36214   2.162  10.278   0.683 -0.2879 -0.6219 -3.0443
 1009MOL0     H36215   2.230  10.503   0.750 -1.2441 -1.0008 -1.0467
 1010MOL0     O36216   9.903   8.438  10.856 -0.2486 -0.1608 -0.0969
 1010MOL0     C36217   9.900   8.385  10.741 -0.0341  0.1899 -0.3944
 1010MOL0     O36218   9.868   8.452  10.625 -1.0317  0.2749  0.2633
 1010MOL0     C36219   9.838   8.587  10.618  1.0771  0.4976 -0.0503
 1010MOL0     C36220   9.874   8.645  10.499  0.8286  0.1099 -0.2818
 1010MOL0     C36221   9.838   8.778  10.468  0.2123 -0.4453 -0.3772
 1010MOL0     C36222   9.785   8.869  10.566 -0.2424  0.7921  0.1059
 1010MOL0     O36223   9.744   8.989  10.523  0.1746  0.0971 -0.4791
 1010MOL0     C36224   9.656   9.069  10.609 -0.4234  0.2263  0.3790
 1010MOL0     C36225   9.716   9.188  10.699  0.9458  0.2821 -0.2449
 1010MOL0     C36226   9.800   9.140  10.821  0.3923 -0.4727  0.7617
 1010MOL0     C36227   9.905   9.246  10.845 -0.5423  0.3219 -0.4728
 1010MOL0     C36228   9.969   9.228  10.983  0.2157  0.4249 -0.4712
 1010MOL0     C36229   9.888   9.312  11.091  0.2001  0.0598  0.2242
 1010MOL0     C36230   9.917   9.464  11.095  0.4541  0.4340  0.6813
 1010MOL0     C36231   9.787   9.542  11.119 -0.6848 -0.2848  1.0523
 1010MOL0     N36232   9.735   9.531  11.253 -0.7168  0.2944 -0.9530
 1010MOL0     C36233   9.806   9.533  11.369  0.8366 -0.1749 -0.5801
 1010MOL0     C36234   9.713   9.523  11.469  1.2389 -0.4108  0.2173
 1010MOL0     C36235   9.760   9.505  11.611  0.8879  0.5863 -0.1383
 1010MOL0     C36236   9.659   9.573  11.709 -0.4349  0.5395 -0.2439
 1010MOL0     C36237   9.732   9.629  11.831 -0.6951  1.1815  0.2293
 1010MOL0     C36238   9.624   9.692  11.911 -0.1901  1.0703 -0.7231
 1010MOL0     O36239   9.546   9.781  11.837 -0.5537 -1.1166  0.1419
 1010MOL0     C36240   9.436   9.830  11.908  1.1423  0.3762  0.1135
 1010MOL0     C36241   9.398   9.807  12.049 -0.8382 -0.6768  0.0348
 1010MOL0     C36242   9.285   9.873  12.102  0.6881  0.9002 -0.8987
 1010MOL0     C36243   9.246   9.846  12.245 -0.0188  0.0036  1.0420
 1010MOL0     C36244   9.216   9.974  12.018  0.9063  0.8029 -0.5313
 1010MOL0     C36245   9.116  10.062  12.082  0.2107 -1.1301 -0.1956
 1010MOL0     O36246   9.080  10.173  12.011  0.0555  0.1340 -0.3499
 1010MOL0     C36247   9.003  10.275  12.064  0.1002  0.0109  0.4535
 1010MOL0     C36248   8.912  10.268  12.178 -0.0468  0.3336 -0.1846
 1010MOL0     C36249   8.849  10.386  12.224 -0.0723 -0.6568 -0.0376
 1010MOL0     C36250   8.860  10.502  12.152  0.0231 -0.8111 -0.9819
 1010MOL0     O36251   8.807  10.620  12.191 -0.0943  0.0874  0.6048
 1010MOL0     C36252   8.757  10.645  12.317  0.1452 -0.5098 -0.0961
 1010MOL0     C36253   8.751  10.791  12.345 -0.6273 -0.9690 -0.9015
 1010MOL0     C36254   8.690  10.823  12.479  0.8664 -0.3995  0.5768
 1010MOL0     C36255   8.670  10.974  12.500  0.2577 -0.3610 -0.2718
 1010MOL0     C36256   8.549  11.019  12.590 -0.6595 -0.5017  1.3364
 1010MOL0     C36257   8.568  10.949  12.725 -0.5722  0.3949 -0.6535
 1010MOL0     C36258   8.490  11.007  12.838  0.3970  0.0521 -0.5429
 1010MOL0     C36259   8.342  10.986  12.826 -0.2643  0.5253  0.3088
 1010MOL0    Cl36260   8.273  10.856  12.713 -0.1127  0.0444 -0.0386
 1010MOL0     C36261   8.936  10.507  12.041 -0.1075  0.2540 -0.4420
 1010MOL0     C36262   9.007  10.400  11.991  0.2775  0.1359  0.4681
 1010MOL0     O36263   9.060  10.039  12.193  0.0643  0.1237 -0.0943
 1010MOL0     C36264   9.257   9.988  11.888  0.3715 -0.1364  0.3161
 1010MOL0     C36265   9.371   9.928  11.838 -0.1668  0.3744  0.0478
 1010MOL0     N36266   9.585   9.513  11.406 -0.8613 -0.4185 -0.2599
 1010MOL0     N36267   9.604   9.515  11.277 -0.4090 -0.7412  0.0316
 1010MOL0     C36268   9.751   8.811  10.693 -0.0697  0.1135 -0.2071
 1010MOL0     C36269   9.778   8.672  10.715  0.1933 -0.4283  0.0394
 1010MOL0     C36270   9.937   8.244  10.735 -0.2073 -0.8531 -0.4901
 1010MOL0     C36271   9.940   8.181  10.610 -0.5731  0.1895  0.5532
 1010MOL0     C36272   9.996   8.051  10.601 -0.5313  0.5453 -0.1509
 1010MOL0     C36273  10.034   7.984  10.719  0.1600 -0.2774 -0.2043
 1010MOL0     O36274  10.097   7.862  10.713  0.0441 -0.1028  0.7482
 1010MOL0     C36275  10.050   7.776  10.603 -0.2197  0.0870  0.8274
 1010MOL0     C36276  10.077   7.625  10.642  0.1850 -0.5292  0.1445
 1010MOL0     C36277  10.020   7.519  10.539  0.3514 -1.1770 -0.6100
 1010MOL0     C36278  10.085   7.382  10.548 -0.1150 -0.5405 -0.3167
 1010MOL0     C36279  10.054   7.331  10.679 -0.3289 -0.1419 -0.4573
 1010MOL0     C36280  10.039   7.275  10.788 -0.7282 -0.4915  0.9784
 1010MOL0     C36281  10.005   8.045  10.842  0.3715  0.3909 -0.6463
 1010MOL0     C36282   9.951   8.172  10.851 -0.4089  0.9710  0.3821
 1010MOL0     H36283   9.928   8.586  10.425 -0.5687  0.1487 -1.3978
 1010MOL0     H36284   9.857   8.820  10.370 -0.9980 -1.2097 -0.9513
 1010MOL0     H36285   9.596   9.123  10.535  3.5513  1.7994 -2.0153
 1010MOL0     H36286   9.593   9.006  10.672  0.6408 -1.4934 -0.2198
 1010MOL0     H36287   9.774   9.260  10.640  0.6910  0.1594 -0.6495
 1010MOL0     H36288   9.630   9.248  10.732 -0.8112 -0.1031 -3.7633
 1010MOL0     H36289   9.735   9.114  10.905  0.0573  1.4272  1.1398
 1010MOL0     H36290   9.857   9.049  10.797 -0.2180 -0.6152 -0.2293
 1010MOL0     H36291   9.978   9.230  10.765 -2.0082 -1.7325 -1.4817
 1010MOL0     H36292   9.869   9.349  10.843 -2.1279 -0.2014 -0.0931
 1010MOL0     H36293   9.972   9.122  11.010  1.7031  1.1079  2.4577
 1010MOL0     H36294  10.074   9.259  10.995  0.9935 -1.6544 -1.3987
 1010MOL0     H36295   9.784   9.292  11.064 -0.2738  3.3532 -0.7897
 1010MOL0     H36296   9.913   9.281  11.193 -0.5548  3.0978  1.4450
 1010MOL0     H36297   9.985   9.488  11.178  1.6322  0.0923 -0.1592
 1010MOL0     H36298   9.970   9.494  11.004 -1.6922 -0.7538 -1.0699
 1010MOL0     H36299   9.703   9.521  11.053 -1.2343  3.3818  0.3393
 1010MOL0     H36300   9.811   9.649  11.113 -0.5820 -0.3853 -1.6156
 1010MOL0     H36301   9.913   9.539  11.387  1.0337  2.4565 -2.0908
 1010MOL0     H36302   9.774   9.397  11.622 -2.5406  0.1083  0.7990
 1010MOL0     H36303   9.861   9.544  11.618  3.8022 -4.5881 -5.0874
 1010MOL0     H36304   9.584   9.498  11.737 -1.0749  0.0300 -3.0230
 1010MOL0     H36305   9.610   9.654  11.654 -3.4562 -0.0871  1.3034
 1010MOL0     H36306   9.804   9.706  11.799 -0.0554  0.2939 -0.5208
 1010MOL0     H36307   9.782   9.546  11.881  0.4215 -0.4051 -3.2422
 1010MOL0     H36308   9.672   9.749  11.991  0.9583  1.2088 -1.4890
 1010MOL0     H36309   9.545   9.625  11.947 -0.6945  1.6484 -0.7362
 1010MOL0     H36310   9.447   9.729  12.106  1.2193 -0.0594 -0.8012
 1010MOL0     H36311   9.249   9.936  12.306 -1.8611  1.7322 -1.2363
 1010MOL0     H36312   9.145   9.804  12.252  0.5432 -1.7480 -0.3532
 1010MOL0     H36313   9.313   9.777  12.297 -0.7327 -1.2074  0.4058
 1010MOL0     H36314   8.899  10.175  12.233  1.7682  0.0782 -0.1027
 1010MOL0     H36315   8.784  10.386  12.310 -1.9338 -2.0925 -1.3557
 1010MOL0     H36316   8.661  10.593  12.320  1.3188 -3.0259 -1.8810
 1010MOL0     H36317   8.823  10.610  12.397  1.3484  1.7794 -0.0105
 1010MOL0     H36318   8.850  10.838  12.342 -0.5156 -1.0639  0.5998
 1010MOL0     H36319   8.684  10.831  12.268 -0.4956 -1.5887 -1.3408
 1010MOL0     H36320   8.764  10.789  12.552  0.9083 -0.8575  0.3294
 1010MOL0     H36321   8.594  10.775  12.499 -2.5736  4.5895 -1.9192
 1010MOL0     H36322   8.755  11.018  12.553 -0.2103  1.5428 -1.0233
 1010MOL0     H36323   8.658  11.017  12.400 -2.5374 -0.8391 -0.2337
 1010MOL0     H36324   8.455  10.991  12.540  0.6209 -1.1497 -0.8652
 1010MOL0     H36325   8.565  11.126  12.606  1.9599 -0.3117 -1.6212
 1010MOL0     H36326   8.542  10.843  12.720  1.8393 -0.2631 -0.6658
 1010MOL0     H36327   8.673  10.956  12.757 -0.8919  1.2827  0.2534
 1010MOL0     H36328   8.514  11.114  12.839  2.2943 -0.3358  0.6682
 1010MOL0     H36329   8.531  10.966  12.931  0.0758  3.2992  1.1906
 1010MOL0     H36330   8.300  11.078  12.786  1.2017  0.5522 -1.3146
 1010MOL0     H36331   8.301  10.969  12.925  1.9082 -0.7885  1.0544
 1010MOL0     H36332   8.965  10.597  11.988  2.8732  0.7991  1.8604
 1010MOL0     H36333   9.067  10.409  11.901  2.7170  0.7909  2.0357
 1010MOL0     H36334   9.212  10.058  11.819  1.2142  0.8899  0.7818
 1010MOL0     H36335   9.399   9.954  11.737  0.0770  2.4909  0.6130
 1010MOL0     H36336   9.696   8.864  10.771 -1.7427  0.0694 -1.3078
 1010MOL0     H36337   9.740   8.638  10.811 -1.2774 -3.2901 -1.4146
 1010MOL0     H36338   9.907   8.231  10.519 -1.7469 -0.6195  0.5171
 1010MOL0     H36339   9.999   8.001  10.504 -2.4071  1.3394 -0.6686
 1010MOL0     H36340   9.941   7.791  10.608 -0.3963 -0.8593  0.1078
 1010MOL0     H36341  10.073   7.803  10.500  2.9722  0.4390  1.5407
 1010MOL0     H36342  10.027   7.607  10.738  0.2021  0.8817  0.4472
 1010MOL0     H36343  10.185   7.610  10.644  0.0907 -1.3456  3.1368
 1010MOL0     H36344  10.026   7.555  10.435  1.0958 -4.6346 -1.8955
 1010MOL0     H36345   9.914   7.511  10.565  0.4018 -1.4698 -0.4922
 1010MOL0     H36346  10.192   7.391  10.533  0.4332  0.1063  3.0971
 1010MOL0     H36347  10.039   7.310  10.479  0.5241  1.0144 -2.4682
 1010MOL0     H36348  10.038   7.231  10.886  1.8086 -0.0570  1.2669
 1010MOL0     H36349  10.037   7.990  10.930 -0.0233 -0.4125 -0.9986
 1010MOL0     H36350   9.937   8.221  10.947  2.4054  0.5445  1.1121
 1011MOL0     O36351   1.611   9.866   1.210 -0.2037 -0.3019 -0.1725
 1011MOL0     C36352   1.498   9.839   1.248  0.2583 -0.4646  0.0873
 1011MOL0     O36353   1.385   9.842   1.167 -0.2619  0.6179 -0.3438
 1011MOL0     C36354   1.395   9.858   1.035  0.0575  0.7074  0.1385
 1011MOL0     C36355   1.362   9.748   0.953 -0.8589 -0.0148  0.8424
 1011MOL0     C36356   1.362   9.756   0.812  0.3542  0.8491  0.4690
 1011MOL0     C36357   1.386   9.870   0.752 -0.4363  0.7105  0.0918
 1011MOL0     O36358   1.391   9.879   0.611 -0.5616 -0.2803  0.0346
 1011MOL0     C36359   1.483   9.972   0.550  0.8382 -0.0201  0.9900
 1011MOL0     C36360   1.536   9.927   0.418 -1.4810  1.0256 -0.3523
 1011MOL0     C36361   1.661  10.013   0.379  0.2712  0.3656  0.5813
 1011MOL0     C36362   1.717   9.965   0.242 -0.0134  0.0320  0.4364
 1011MOL0     C36363   1.859  10.023   0.220 -0.6673 -0.3000  0.0029
 1011MOL0     C36364   1.893  10.007   0.071 -0.2499  1.0010  0.1549
 1011MOL0     C36365   2.039  10.054   0.062 -0.4076 -0.6040  0.7851
 1011MOL0     C36366   2.076  10.032  -0.087 -1.1502 -1.1477 -0.7743
 1011MOL0     N36367   1.992  10.118  -0.172 -0.2701 -0.8416 -0.6973
 1011MOL0     C36368   1.912  10.082  -0.266  0.6239  0.5659  0.4832
 1011MOL0     C36369   1.869  10.183  -0.335 -0.7614 -0.3244 -0.0028
 1011MOL0     C36370   1.790  10.166  -0.456 -0.6624  1.2239 -0.0209
 1011MOL0     C36371   1.677  10.271  -0.465 -0.4661  0.2025  1.3227
 1011MOL0     C36372   1.571  10.244  -0.364 -0.6211  0.2992 -0.5229
 1011MOL0     C36373   1.459  10.173  -0.430 -0.2408  0.0497  0.3173
 1011MOL0     O36374   1.404  10.248  -0.541 -0.5409 -0.1364 -0.9670
 1011MOL0     C36375   1.280  10.206  -0.580  0.5082 -0.1515  0.2972
 1011MOL0     C36376   1.195  10.306  -0.609 -0.5089  0.4430 -0.5618
 1011MOL0     C36377   1.072  10.281  -0.661  0.7362  0.7911  0.2485
 1011MOL0     C36378   0.993  10.404  -0.695 -0.1501  0.0209 -0.1625
 1011MOL0     C36379   1.024  10.140  -0.683 -0.4449  0.3843 -0.8098
 1011MOL0     C36380   0.883  10.098  -0.723 -0.2314  0.2080  0.7791
 1011MOL0     O36381   0.871   9.976  -0.778  0.4495 -0.0875  0.5206
 1011MOL0     C36382   0.745   9.940  -0.832 -0.5084  0.9186  0.4921
 1011MOL0     C36383   0.674   9.842  -0.767 -0.3128  0.1667 -0.0079
 1011MOL0     C36384   0.550   9.803  -0.814 -0.2011  0.0310  0.5200
 1011MOL0     C36385   0.493   9.876  -0.924  0.9767  0.1832 -0.4831
 1011MOL0     O36386   0.363   9.844  -0.962  0.5147 -0.0365 -0.3325
 1011MOL0     C36387   0.318   9.876  -1.099  0.4893  0.5760 -0.0806
 1011MOL0     C36388   0.195   9.804  -1.118  0.1320 -0.3948  0.5415
 1011MOL0     C36389   0.217   9.652  -1.130 -0.1219 -0.2445  0.0898
 1011MOL0     C36390   0.096   9.574  -1.151 -0.3856  0.0066 -0.2188
 1011MOL0     C36391   0.094   9.436  -1.093  0.0164 -0.4161  0.2057
 1011MOL0     C36392   0.101   9.429  -0.943  0.6919  0.1712 -0.5600
 1011MOL0     C36393   0.113   9.283  -0.905  0.5617  0.7523  0.0635
 1011MOL0     C36394   0.155   9.288  -0.757 -0.4415  0.8474  0.8929
 1011MOL0    Cl36395   0.196   9.117  -0.703 -0.1202 -0.1042 -0.3565
 1011MOL0     C36396   0.562   9.974  -0.989 -0.1974 -0.5306 -0.9982
 1011MOL0     C36397   0.693  10.006  -0.938 -0.0783 -0.6210  0.7808
 1011MOL0     O36398   0.800  10.188  -0.722  1.0163 -0.1384  0.2566
 1011MOL0     C36399   1.119  10.036  -0.661  0.0560 -0.2968  0.4234
 1011MOL0     C36400   1.248  10.076  -0.605  0.0740 -0.0043 -1.0923
 1011MOL0     N36401   1.941  10.288  -0.287 -0.6864  0.1441  0.0166
 1011MOL0     N36402   2.016  10.257  -0.188 -0.3760  0.7292  0.6496
 1011MOL0     C36403   1.418   9.976   0.839  0.0557 -0.6863  0.3977
 1011MOL0     C36404   1.426   9.977   0.976  0.6822 -0.7311  0.6365
 1011MOL0     C36405   1.467   9.806   1.388  0.2660  0.4126 -0.3132
 1011MOL0     C36406   1.356   9.725   1.410 -0.3521 -0.1965  0.7362
 1011MOL0     C36407   1.335   9.687   1.546 -0.4784  0.7659  0.7775
 1011MOL0     C36408   1.418   9.721   1.645  0.6628 -0.3026 -0.0422
 1011MOL0     O36409   1.385   9.657   1.763  0.6672 -0.0576  0.2010
 1011MOL0     C36410   1.480   9.644   1.868 -0.1140  0.2833 -0.3072
 1011MOL0     C36411   1.413   9.581   1.993  0.3921 -0.5527  0.6932
 1011MOL0     C36412   1.337   9.444   1.965  0.2603 -0.7047  0.4913
 1011MOL0     C36413   1.258   9.399   2.088 -0.0287  0.4683 -0.3819
 1011MOL0     C36414   1.137   9.472   2.108  0.5200 -0.6368 -0.0863
 1011MOL0     C36415   1.037   9.545   2.127 -0.3218 -0.4148 -0.2344
 1011MOL0     C36416   1.523   9.813   1.621  0.3618  0.9239  0.3034
 1011MOL0     C36417   1.555   9.851   1.495  0.4644  0.0453  0.6759
 1011MOL0     H36418   1.320   9.657   0.996 -4.7071  2.0891  2.0857
 1011MOL0     H36419   1.334   9.661   0.766  1.4056  0.5105  0.4944
 1011MOL0     H36420   1.416  10.058   0.540  2.1862  0.7436 -3.8916
 1011MOL0     H36421   1.574   9.992   0.607  2.7516  3.3935 -2.7383
 1011MOL0     H36422   1.580   9.830   0.442 -0.7935  1.9347  2.3936
 1011MOL0     H36423   1.457   9.909   0.345 -4.0557 -1.6309  2.8079
 1011MOL0     H36424   1.641  10.120   0.364  0.9209  0.3978 -0.0887
 1011MOL0     H36425   1.730   9.998   0.462  2.2391  0.4973 -0.9724
 1011MOL0     H36426   1.704   9.857   0.233 -0.3343  0.1068 -0.0774
 1011MOL0     H36427   1.643  10.003   0.171  0.9935  2.9093  0.7881
 1011MOL0     H36428   1.853  10.131   0.229 -1.9295 -0.1808 -1.8038
 1011MOL0     H36429   1.943   9.991   0.284  0.0169  3.7570  1.4327
 1011MOL0     H36430   1.889   9.903   0.039 -0.7775  0.1489  2.7152
 1011MOL0     H36431   1.815  10.054   0.011 -0.5807 -1.2831 -1.3405
 1011MOL0     H36432   2.036  10.158   0.093  1.3987 -0.6258  1.1288
 1011MOL0     H36433   2.106   9.998   0.128  3.7946 -1.5011 -3.5986
 1011MOL0     H36434   2.071   9.925  -0.111  1.1088 -1.0921 -1.8092
 1011MOL0     H36435   2.180  10.066  -0.093 -0.7711 -2.1398 -0.1542
 1011MOL0     H36436   1.904   9.977  -0.292 -0.1123  0.8417 -0.4805
 1011MOL0     H36437   1.862  10.182  -0.537  3.2807 -1.4512  2.5848
 1011MOL0     H36438   1.747  10.067  -0.476  0.4503  0.5789  0.6617
 1011MOL0     H36439   1.633  10.271  -0.565 -1.7595 -3.0314  1.7606
 1011MOL0     H36440   1.715  10.372  -0.449  2.4040 -0.3449 -1.1045
 1011MOL0     H36441   1.537  10.342  -0.328  2.5805  1.4611 -0.3126
 1011MOL0     H36442   1.611  10.177  -0.287 -2.3984  2.0966  2.1496
 1011MOL0     H36443   1.379  10.159  -0.356  0.2567 -0.2813  0.8061
 1011MOL0     H36444   1.499  10.079  -0.470 -0.8644  0.5238 -1.5164
 1011MOL0     H36445   1.233  10.407  -0.594 -1.7004  1.0762 -1.6589
 1011MOL0     H36446   0.979  10.402  -0.803 -1.2106  1.3148 -0.0780
 1011MOL0     H36447   0.894  10.418  -0.651 -0.2936 -2.3540  0.4311
 1011MOL0     H36448   1.059  10.490  -0.689 -0.8042  0.5444 -0.3544
 1011MOL0     H36449   0.723   9.803  -0.679  1.4644 -0.9457 -1.3944
 1011MOL0     H36450   0.484   9.729  -0.770 -2.7368  1.8736  0.0681
 1011MOL0     H36451   0.293   9.982  -1.113 -1.3015  0.3254  0.9375
 1011MOL0     H36452   0.392   9.847  -1.175 -3.2496  1.2226 -4.4326
 1011MOL0     H36453   0.121   9.832  -1.043  0.9448  1.4501  0.6991
 1011MOL0     H36454   0.155   9.822  -1.219  0.5442 -2.8591 -0.1459
 1011MOL0     H36455   0.271   9.621  -1.039 -1.6557 -2.8084  0.2159
 1011MOL0     H36456   0.293   9.614  -1.199  2.3036  0.5280  2.1778
 1011MOL0     H36457   0.003   9.622  -1.119 -1.4221 -0.7893 -1.8843
 1011MOL0     H36458   0.073   9.570  -1.258 -1.5159  1.3362 -0.0628
 1011MOL0     H36459   0.180   9.376  -1.124  0.6493 -0.4872  1.9828
 1011MOL0     H36460   0.007   9.378  -1.123 -0.1334 -1.2645  2.0944
 1011MOL0     H36461   0.174   9.495  -0.895 -2.1693  2.3637  1.0696
 1011MOL0     H36462   0.001   9.455  -0.908  1.3426  0.4820  1.1419
 1011MOL0     H36463   0.193   9.237  -0.965  0.2890  1.0252 -0.5165
 1011MOL0     H36464   0.019   9.233  -0.926  0.1465  1.7771 -0.6155
 1011MOL0     H36465   0.091   9.341  -0.685 -1.0591  3.1143 -1.1746
 1011MOL0     H36466   0.250   9.343  -0.762 -0.6726  1.1391 -0.8014
 1011MOL0     H36467   0.521  10.027  -1.074  1.2895 -1.0042 -2.0517
 1011MOL0     H36468   0.752  10.093  -0.967  1.1923 -0.2263  4.0514
 1011MOL0     H36469   1.086   9.934  -0.672  3.3611 -1.5697  1.1793
 1011MOL0     H36470   1.316   9.993  -0.586 -1.7893 -1.1983  0.8209
 1011MOL0     H36471   1.454  10.068   0.793 -3.8482 -0.3842 -2.5888
 1011MOL0     H36472   1.453  10.062   1.038 -1.8223 -0.5597  1.6100
 1011MOL0     H36473   1.285   9.690   1.336 -0.7806  0.4332  0.8369
 1011MOL0     H36474   1.253   9.616   1.557 -1.1870  1.6634  1.4564
 1011MOL0     H36475   1.569   9.583   1.848  1.2140  1.4567  1.7153
 1011MOL0     H36476   1.518   9.745   1.886 -0.3372  0.2612  0.2860
 1011MOL0     H36477   1.345   9.659   2.030 -2.5284 -0.1633 -4.5335
 1011MOL0     H36478   1.478   9.561   2.078  0.7102 -2.7205 -0.0075
 1011MOL0     H36479   1.395   9.355   1.937 -1.1151 -1.4394 -0.1422
 1011MOL0     H36480   1.271   9.465   1.880  1.8154 -1.0691 -0.8617
 1011MOL0     H36481   1.312   9.401   2.184  1.8952 -0.0981 -1.3951
 1011MOL0     H36482   1.247   9.292   2.070  1.1671  0.3197 -0.2949
 1011MOL0     H36483   0.963   9.623   2.135 -1.0445 -0.9489 -1.4580
 1011MOL0     H36484   1.594   9.839   1.699  1.3659 -1.5072  0.2995
 1011MOL0     H36485   1.640   9.909   1.460  0.5555 -0.4044  0.1367
 1012MOL0     O36486   9.706   8.353   2.114  0.3316  0.1413  0.3735
 1012MOL0     C36487   9.678   8.296   2.222  0.1171  0.6359 -0.1785
 1012MOL0     O36488   9.764   8.281   2.325  0.6128  0.5253 -0.2094
 1012MOL0     C36489   9.892   8.323   2.320 -0.1929 -0.2697  0.2128
 1012MOL0     C36490   9.997   8.238   2.280  0.0443  1.0439 -0.2194
 1012MOL0     C36491  10.125   8.288   2.265  0.5788  0.6080  0.1549
 1012MOL0     C36492  10.151   8.412   2.312  0.3134  0.2051  0.3200
 1012MOL0     O36493  10.283   8.436   2.332  0.6946  0.4590 -0.5701
 1012MOL0     C36494  10.344   8.550   2.262 -0.5585  0.0813  0.5613
 1012MOL0     C36495  10.503   8.531   2.244  0.1928 -1.2781 -1.4934
 1012MOL0     C36496  10.561   8.557   2.384 -0.2869  0.4349  0.6930
 1012MOL0     C36497  10.711   8.544   2.378 -0.4751 -0.4975 -0.1510
 1012MOL0     C36498  10.762   8.621   2.505 -0.0089 -0.1256  0.2222
 1012MOL0     C36499  10.911   8.595   2.534  0.2872 -0.6454  0.2622
 1012MOL0     C36500  10.969   8.720   2.613 -0.9370 -1.0604  0.0301
 1012MOL0     C36501  10.963   8.843   2.525  0.9178 -0.5998  0.0855
 1012MOL0     N36502  11.027   8.836   2.391  0.3036 -0.2358 -0.2569
 1012MOL0     C36503  10.980   8.903   2.283  1.2671  0.0529  0.2133
 1012MOL0     C36504  11.060   8.876   2.183 -0.1069  0.4788 -0.1781
 1012MOL0     C36505  11.069   8.928   2.042  0.4568  0.2397 -0.1162
 1012MOL0     C36506  10.930   8.948   1.974 -0.8154  0.7355 -1.1273
 1012MOL0     C36507  10.932   8.935   1.817  0.1278  0.7442 -0.4859
 1012MOL0     C36508  11.033   9.030   1.765  0.4687 -0.1421  0.7977
 1012MOL0     O36509  11.018   9.023   1.622  0.3387  0.9072  0.2505
 1012MOL0     C36510  11.112   9.080   1.537 -0.2109 -0.4299 -0.8432
 1012MOL0     C36511  11.241   9.125   1.578  0.1646 -0.6258  0.0712
 1012MOL0     C36512  11.327   9.177   1.483  0.0530  1.8175 -0.2543
 1012MOL0     C36513  11.469   9.200   1.540  0.7125  0.2124  0.6261
 1012MOL0     C36514  11.288   9.191   1.348 -0.7514  0.4769 -0.5079
 1012MOL0     C36515  11.387   9.256   1.244  0.6627  0.1937  0.3151
 1012MOL0     O36516  11.496   9.335   1.282 -1.1047 -0.9680 -0.1176
 1012MOL0     C36517  11.573   9.395   1.173 -0.6760 -0.0875  0.0727
 1012MOL0     C36518  11.516   9.443   1.056  0.5366 -0.4697  0.3152
 1012MOL0     C36519  11.596   9.516   0.973  0.3992 -0.1825  0.4200
 1012MOL0     C36520  11.723   9.545   1.001  1.2813 -0.3150  0.2222
 1012MOL0     O36521  11.787   9.626   0.908 -0.2679  0.7946 -0.3681
 1012MOL0     C36522  11.925   9.607   0.898 -0.6162 -0.5469  0.1546
 1012MOL0     C36523  11.994   9.735   0.942 -1.3827 -0.6975 -0.1235
 1012MOL0     C36524  12.087   9.711   1.064  1.2505 -0.3767 -0.1770
 1012MOL0     C36525  12.150   9.853   1.104  0.2687  0.7245 -0.5735
 1012MOL0     C36526  12.267   9.856   1.210 -0.6418  0.5916  1.5491
 1012MOL0     C36527  12.394   9.779   1.163  0.4360  0.6757  0.1744
 1012MOL0     C36528  12.525   9.871   1.157  1.1402  0.6135  0.2854
 1012MOL0     C36529  12.521   9.954   1.031 -0.5656 -0.0836  0.5039
 1012MOL0    Cl36530  12.395  10.089   1.022 -0.0516  0.1739  0.2558
 1012MOL0     C36531  11.775   9.511   1.120  0.1598  0.4151 -0.0407
 1012MOL0     C36532  11.698   9.440   1.207  1.2832 -0.5409 -1.0396
 1012MOL0     O36533  11.368   9.203   1.129 -1.1318 -0.8439  0.3775
 1012MOL0     C36534  11.155   9.155   1.310  0.5283  0.3843  0.4594
 1012MOL0     C36535  11.068   9.099   1.407  0.5386 -0.1753 -0.1443
 1012MOL0     N36536  11.162   8.798   2.237 -0.3303  0.9373 -0.7855
 1012MOL0     N36537  11.135   8.769   2.357 -0.0013 -0.5848 -0.4646
 1012MOL0     C36538  10.051   8.500   2.343  0.7931  0.0890  0.0538
 1012MOL0     C36539   9.917   8.461   2.334  0.9097  0.3802 -0.3297
 1012MOL0     C36540   9.547   8.221   2.232 -0.3479  0.3400  0.1656
 1012MOL0     C36541   9.543   8.110   2.324 -0.9237  0.2055  0.5286
 1012MOL0     C36542   9.438   8.020   2.306  0.4696 -0.9952  0.2087
 1012MOL0     C36543   9.324   8.043   2.222 -0.3339  0.4363  0.5385
 1012MOL0     O36544   9.208   7.973   2.221  0.0289  0.7890 -0.1181
 1012MOL0     C36545   9.190   7.871   2.325  0.2981  0.0829  0.3770
 1012MOL0     C36546   9.054   7.792   2.306 -0.1902  0.5022 -0.6320
 1012MOL0     C36547   8.931   7.862   2.335 -0.0031  0.5227 -0.2544
 1012MOL0     C36548   8.890   7.880   2.482 -0.1514  0.5280  0.3600
 1012MOL0     C36549   8.969   7.971   2.564  0.7704 -0.2236  0.4694
 1012MOL0     C36550   9.035   8.045   2.639 -0.2585  0.1114  0.8613
 1012MOL0     C36551   9.318   8.156   2.147  0.2832 -0.1891 -0.1149
 1012MOL0     C36552   9.441   8.236   2.143  0.3754  0.5347  0.2480
 1012MOL0     H36553   9.982   8.132   2.259  0.5533  1.1706 -1.2847
 1012MOL0     H36554  10.214   8.232   2.236  1.1687 -0.3131  3.3675
 1012MOL0     H36555  10.300   8.567   2.163  2.0203 -0.5407 -0.7678
 1012MOL0     H36556  10.329   8.642   2.320  0.0129  0.0121  0.8139
 1012MOL0     H36557  10.524   8.427   2.215  0.2302 -2.1352  1.2697
 1012MOL0     H36558  10.536   8.600   2.167 -1.4329  0.3171 -0.8156
 1012MOL0     H36559  10.520   8.654   2.416 -0.0955  1.5202 -2.0483
 1012MOL0     H36560  10.529   8.488   2.462 -0.6067 -1.1576 -0.7754
 1012MOL0     H36561  10.733   8.437   2.390  2.3095  0.0144  0.0620
 1012MOL0     H36562  10.759   8.590   2.291  2.3013  3.3321  3.0537
 1012MOL0     H36563  10.731   8.725   2.492  0.7684  0.3135  1.6352
 1012MOL0     H36564  10.709   8.584   2.593  0.3383 -3.3393 -0.8103
 1012MOL0     H36565  10.929   8.513   2.603  2.4274 -0.3186  0.1401
 1012MOL0     H36566  10.970   8.574   2.445  2.5696  2.0781  0.9731
 1012MOL0     H36567  10.911   8.745   2.702 -1.3856  0.4865 -0.6446
 1012MOL0     H36568  11.075   8.718   2.640 -0.7589  0.1016 -0.4988
 1012MOL0     H36569  10.985   8.930   2.588  2.0198 -0.6918 -0.1502
 1012MOL0     H36570  10.858   8.868   2.506  0.3987  0.2040  3.3932
 1012MOL0     H36571  10.892   8.966   2.294 -0.3676 -2.0158 -0.3165
 1012MOL0     H36572  11.126   9.022   2.044  0.4144  0.2516  0.5347
 1012MOL0     H36573  11.127   8.865   1.974 -0.0112  0.9386 -1.1997
 1012MOL0     H36574  10.875   9.033   2.015 -1.3605 -0.8745  1.8556
 1012MOL0     H36575  10.863   8.866   2.004 -2.1286  2.2024  0.1319
 1012MOL0     H36576  10.829   8.956   1.789 -0.6816 -1.9598  0.1939
 1012MOL0     H36577  10.945   8.831   1.787 -1.7192  0.6264 -0.9650
 1012MOL0     H36578  11.139   9.008   1.783  1.3514  0.5823 -2.6719
 1012MOL0     H36579  11.010   9.132   1.797  4.2088  2.0835 -2.6497
 1012MOL0     H36580  11.282   9.099   1.675  5.1283 -0.7737 -1.7744
 1012MOL0     H36581  11.492   9.127   1.618  1.4586 -1.9066 -1.4498
 1012MOL0     H36582  11.547   9.189   1.464  0.6652 -0.5421  0.6814
 1012MOL0     H36583  11.466   9.297   1.590  0.2673  0.2116  0.6053
 1012MOL0     H36584  11.413   9.422   1.032 -0.2434  1.8020  1.3707
 1012MOL0     H36585  11.564   9.565   0.881  2.3261  1.2491  0.4373
 1012MOL0     H36586  11.968   9.528   0.960 -0.9989 -0.3560  0.6723
 1012MOL0     H36587  11.962   9.580   0.799 -4.1645  0.6261 -1.6673
 1012MOL0     H36588  12.061   9.769   0.863 -2.3352  0.9260 -0.2773
 1012MOL0     H36589  11.920   9.812   0.967  1.8744  3.3682 -1.9505
 1012MOL0     H36590  12.171   9.652   1.027  1.2817 -1.2108  1.1475
 1012MOL0     H36591  12.036   9.676   1.155  1.4434  0.1258  0.1324
 1012MOL0     H36592  12.165   9.909   1.011 -3.8436  3.5260  0.1451
 1012MOL0     H36593  12.064   9.900   1.153 -1.9246 -0.9472 -2.5499
 1012MOL0     H36594  12.228   9.805   1.298  0.1545 -1.1018  0.9670
 1012MOL0     H36595  12.293   9.960   1.231  0.0673  1.4116 -2.4568
 1012MOL0     H36596  12.409   9.694   1.231  0.0669  1.5382  1.3503
 1012MOL0     H36597  12.370   9.729   1.069  0.2556  1.7167 -0.3451
 1012MOL0     H36598  12.612   9.806   1.147  0.2929 -0.1975 -2.9806
 1012MOL0     H36599  12.533   9.933   1.247  0.3750 -0.0599  0.8295
 1012MOL0     H36600  12.523   9.895   0.939  0.7689 -1.9276  1.6431
 1012MOL0     H36601  12.616  10.008   1.030  1.1222 -2.8196  1.5362
 1012MOL0     H36602  11.877   9.538   1.146  0.3960  1.2678 -1.7033
 1012MOL0     H36603  11.731   9.412   1.306 -0.8505 -1.2796 -0.4738
 1012MOL0     H36604  11.109   9.171   1.214 -1.2907 -0.0271  1.2162
 1012MOL0     H36605  10.966   9.075   1.379  0.6002  0.9980 -1.4941
 1012MOL0     H36606  10.105   8.589   2.373 -0.2911  1.7986 -2.7142
 1012MOL0     H36607   9.831   8.517   2.368 -1.0401  0.3682 -4.5658
 1012MOL0     H36608   9.618   8.099   2.401 -0.5455 -3.1163 -0.1646
 1012MOL0     H36609   9.443   7.925   2.358 -3.5144 -2.8524 -2.2640
 1012MOL0     H36610   9.274   7.802   2.330 -0.0235 -0.6722 -2.5548
 1012MOL0     H36611   9.176   7.920   2.422 -0.5054  1.1003 -0.2305
 1012MOL0     H36612   9.064   7.699   2.363 -3.2642 -0.2290 -1.1443
 1012MOL0     H36613   9.052   7.771   2.199 -2.3995  2.6023 -1.0906
 1012MOL0     H36614   8.850   7.817   2.276  1.1173  1.1585 -2.4027
 1012MOL0     H36615   8.935   7.962   2.291  1.2162  1.0470  0.9749
 1012MOL0     H36616   8.892   7.779   2.525  2.2150 -0.7177 -2.3599
 1012MOL0     H36617   8.788   7.919   2.478 -0.1065  0.5216 -1.0976
 1012MOL0     H36618   9.104   8.094   2.705 -1.0080  2.6382 -0.0986
 1012MOL0     H36619   9.222   8.169   2.098  0.0988  0.1568  0.3209
 1012MOL0     H36620   9.442   8.317   2.071  0.9466  1.8333  1.6697
 1013MOL0     O36621   6.349   5.981   8.518 -0.3546  0.8559 -0.7566
 1013MOL0     C36622   6.331   6.101   8.526  0.1006 -0.3899 -0.7769
 1013MOL0     O36623   6.328   6.189   8.425 -0.6233 -0.1881  0.4615
 1013MOL0     C36624   6.342   6.157   8.292 -0.6027 -0.4677  0.4159
 1013MOL0     C36625   6.276   6.042   8.246 -0.0390  0.9742  0.2954
 1013MOL0     C36626   6.304   5.994   8.124  0.5946 -0.2142 -0.0081
 1013MOL0     C36627   6.373   6.076   8.036  0.0772  0.4671  0.7948
 1013MOL0     O36628   6.402   6.033   7.907 -0.6576 -0.3562  0.6747
 1013MOL0     C36629   6.374   5.905   7.856 -0.9675 -0.6562  0.6839
 1013MOL0     C36630   6.417   5.902   7.707 -0.5093  0.0782  0.2534
 1013MOL0     C36631   6.372   5.766   7.642  0.7057 -0.2363  0.0775
 1013MOL0     C36632   6.394   5.765   7.489  0.2079  0.6796  0.0485
 1013MOL0     C36633   6.325   5.652   7.425  0.6544 -0.9924  0.6341
 1013MOL0     C36634   6.320   5.655   7.273  0.3470 -0.0792 -0.3607
 1013MOL0     C36635   6.271   5.526   7.211 -0.6112 -0.2482 -1.3187
 1013MOL0     C36636   6.277   5.517   7.059  0.6382  0.0349 -0.6011
 1013MOL0     N36637   6.186   5.620   7.012 -0.0567  0.0178  0.2916
 1013MOL0     C36638   6.048   5.625   7.023 -0.0752  0.9417  0.6242
 1013MOL0     C36639   6.011   5.753   7.003 -0.8164  0.6093  1.0370
 1013MOL0     C36640   5.879   5.812   7.008 -0.0472 -0.8463  0.6571
 1013MOL0     C36641   5.853   5.925   6.911 -0.6996 -0.2087 -0.2126
 1013MOL0     C36642   5.713   6.004   6.913  0.7145 -0.3148  0.9340
 1013MOL0     C36643   5.701   6.086   6.783  0.9608 -0.4207  0.9327
 1013MOL0     O36644   5.700   5.999   6.665 -0.2361  0.2226 -0.1441
 1013MOL0     C36645   5.741   6.057   6.548 -0.6580  0.2344  0.0715
 1013MOL0     C36646   5.725   6.186   6.512 -0.0102 -0.4905 -0.4057
 1013MOL0     C36647   5.766   6.235   6.397  0.0899  0.3408  0.5785
 1013MOL0     C36648   5.702   6.372   6.361  0.1452 -0.8763  0.5086
 1013MOL0     C36649   5.819   6.147   6.302  0.1584 -0.2734 -0.5112
 1013MOL0     C36650   5.852   6.179   6.164  0.3193 -0.2137 -0.0488
 1013MOL0     O36651   5.897   6.080   6.076 -0.4925 -0.3925  0.5122
 1013MOL0     C36652   5.924   6.126   5.946 -0.2988 -0.1436 -0.2532
 1013MOL0     C36653   5.821   6.130   5.854  0.2238 -0.6122  0.6405
 1013MOL0     C36654   5.842   6.182   5.717 -0.9447 -0.7951 -0.4351
 1013MOL0     C36655   5.965   6.258   5.687  0.6479  0.2119 -0.5275
 1013MOL0     O36656   5.973   6.322   5.571 -0.5591  0.7998  0.8126
 1013MOL0     C36657   6.055   6.432   5.553 -0.1334  0.4657  0.7624
 1013MOL0     C36658   6.008   6.507   5.422  0.0601 -0.2661  0.2948
 1013MOL0     C36659   6.095   6.629   5.407 -0.2271  0.0559 -0.3248
 1013MOL0     C36660   6.044   6.729   5.310  0.6858 -0.1841 -0.5249
 1013MOL0     C36661   6.035   6.680   5.164  0.2792  0.2506 -0.2233
 1013MOL0     C36662   6.177   6.705   5.110  0.9217  0.0552 -0.8985
 1013MOL0     C36663   6.182   6.831   5.024  0.1060  0.0707  0.5540
 1013MOL0     C36664   6.324   6.855   4.958 -0.8524 -0.2563 -0.1677
 1013MOL0    Cl36665   6.450   6.843   5.093 -0.3151  1.0307  0.1009
 1013MOL0     C36666   6.058   6.271   5.794  0.4272  0.2522  0.9250
 1013MOL0     C36667   6.043   6.196   5.909 -0.0435  0.8593 -0.0629
 1013MOL0     O36668   5.839   6.297   6.133  0.3203  0.2182  0.5596
 1013MOL0     C36669   5.842   6.010   6.338 -0.0146 -1.1317  0.0986
 1013MOL0     C36670   5.793   5.972   6.460 -0.5177  0.2646 -0.4999
 1013MOL0     N36671   6.128   5.808   6.960 -0.3163 -0.7056 -0.5846
 1013MOL0     N36672   6.230   5.734   6.959 -0.1052  0.3432  0.4500
 1013MOL0     C36673   6.427   6.194   8.075 -0.0715 -0.3146  0.4193
 1013MOL0     C36674   6.419   6.238   8.210 -0.1375  1.0966 -0.3407
 1013MOL0     C36675   6.289   6.153   8.661  0.5385  0.2990 -0.1931
 1013MOL0     C36676   6.289   6.077   8.771 -0.0085 -0.0642  0.1289
 1013MOL0     C36677   6.231   6.120   8.894 -0.5203 -0.2032 -0.7270
 1013MOL0     C36678   6.146   6.233   8.888 -0.2513  0.9486 -0.5309
 1013MOL0     O36679   6.093   6.278   9.001 -0.6153  0.9089 -0.2128
 1013MOL0     C36680   6.118   6.413   9.038  1.1777 -0.0626  0.6736
 1013MOL0     C36681   6.118   6.446   9.188  0.3809  0.2756  0.2749
 1013MOL0     C36682   5.988   6.427   9.271 -0.2913 -0.3295 -0.5232
 1013MOL0     C36683   6.003   6.481   9.411 -0.1493 -0.5714 -0.4092
 1013MOL0     C36684   5.946   6.615   9.421 -0.5842  0.4291  0.4052
 1013MOL0     C36685   5.889   6.721   9.430  0.3021  0.1013  0.3423
 1013MOL0     C36686   6.138   6.303   8.773  0.2640 -1.0046 -0.6106
 1013MOL0     C36687   6.214   6.270   8.660 -0.5094 -0.8051 -0.8434
 1013MOL0     H36688   6.212   5.971   8.297 -0.8369  1.9381  0.6850
 1013MOL0     H36689   6.263   5.895   8.115 -1.2017  0.2174  2.5150
 1013MOL0     H36690   6.423   5.829   7.918 -0.3267 -2.7812 -2.2498
 1013MOL0     H36691   6.267   5.882   7.854 -0.9492 -0.6981  0.2125
 1013MOL0     H36692   6.364   5.991   7.672 -1.7462 -0.9992 -0.6905
 1013MOL0     H36693   6.525   5.919   7.705 -0.6492  1.6820  2.6042
 1013MOL0     H36694   6.431   5.690   7.695  2.7800  0.2057 -1.4454
 1013MOL0     H36695   6.267   5.765   7.670  1.1050 -0.1091  1.6738
 1013MOL0     H36696   6.368   5.859   7.440  0.1491  1.2611  1.1640
 1013MOL0     H36697   6.499   5.769   7.459 -0.2808  2.0831 -1.6182
 1013MOL0     H36698   6.361   5.555   7.460  0.3876 -1.1398  0.5051
 1013MOL0     H36699   6.217   5.656   7.446  0.2641  0.0262 -1.3154
 1013MOL0     H36700   6.251   5.729   7.233  0.2816  0.2816  0.3905
 1013MOL0     H36701   6.415   5.676   7.221  0.3981  0.1354 -0.1853
 1013MOL0     H36702   6.330   5.443   7.253 -1.4280 -0.5789 -0.7981
 1013MOL0     H36703   6.168   5.514   7.246 -0.8603  0.1844 -1.9008
 1013MOL0     H36704   6.271   5.414   7.021 -0.5132 -0.3419  0.5235
 1013MOL0     H36705   6.375   5.548   7.024  0.8293 -1.4482 -1.4601
 1013MOL0     H36706   5.973   5.553   7.053  1.6505 -0.8170  0.8781
 1013MOL0     H36707   5.807   5.732   6.991 -0.6320 -0.5672  1.7649
 1013MOL0     H36708   5.871   5.848   7.111 -0.2449 -1.8356  0.9892
 1013MOL0     H36709   5.858   5.879   6.812 -3.2900 -0.7943 -0.1265
 1013MOL0     H36710   5.931   6.001   6.918 -1.0311  0.0519  0.9707
 1013MOL0     H36711   5.709   6.076   6.996 -3.1460  2.5594 -1.4382
 1013MOL0     H36712   5.623   5.943   6.921 -2.1864  3.0543 -2.2038
 1013MOL0     H36713   5.784   6.156   6.774  1.3201 -1.1198 -3.0625
 1013MOL0     H36714   5.611   6.147   6.780  2.0464  1.3676  2.3584
 1013MOL0     H36715   5.687   6.257   6.585  1.5343 -0.9242  0.8495
 1013MOL0     H36716   5.651   6.417   6.447  0.1675 -0.6337  0.3958
 1013MOL0     H36717   5.779   6.444   6.334  0.6262 -1.9760 -1.2338
 1013MOL0     H36718   5.633   6.372   6.276  1.2099  2.4268 -0.4897
 1013MOL0     H36719   5.722   6.086   5.867 -1.8283  3.3070 -0.0155
 1013MOL0     H36720   5.765   6.186   5.641  0.1208 -0.2470 -1.5148
 1013MOL0     H36721   6.032   6.496   5.639  0.0413  1.2149  0.2636
 1013MOL0     H36722   6.162   6.407   5.554 -0.1355  0.4599  0.9698
 1013MOL0     H36723   6.017   6.438   5.338  0.4666 -1.6110  1.4017
 1013MOL0     H36724   5.901   6.531   5.422  0.1666  0.2765 -1.1373
 1013MOL0     H36725   6.198   6.598   5.386  0.4392  0.8807  1.5316
 1013MOL0     H36726   6.086   6.688   5.498 -3.5780  0.4857 -0.7949
 1013MOL0     H36727   5.950   6.772   5.347  0.7972 -0.4923  0.1307
 1013MOL0     H36728   6.110   6.814   5.332  0.6296 -0.0619 -0.8230
 1013MOL0     H36729   5.954   6.732   5.110  1.7323  0.3831 -2.4017
 1013MOL0     H36730   6.014   6.573   5.167  0.2129  0.2053 -1.4353
 1013MOL0     H36731   6.247   6.694   5.193  1.2137 -3.2655 -1.4392
 1013MOL0     H36732   6.183   6.621   5.040 -0.7718 -1.4925  0.6947
 1013MOL0     H36733   6.174   6.915   5.094 -0.8760 -0.0310  0.5875
 1013MOL0     H36734   6.092   6.844   4.962 -1.8842  0.1616  3.2805
 1013MOL0     H36735   6.312   6.950   4.904 -2.2796 -0.8337 -0.9166
 1013MOL0     H36736   6.341   6.780   4.881  0.6335  0.4084 -0.5232
 1013MOL0     H36737   6.152   6.324   5.790  0.4805  0.1082 -1.9511
 1013MOL0     H36738   6.117   6.208   5.987 -1.7835  1.3422  1.6067
 1013MOL0     H36739   5.873   5.940   6.261  0.6645  0.5925 -1.2569
 1013MOL0     H36740   5.804   5.870   6.493  1.0994  0.5805  0.0229
 1013MOL0     H36741   6.495   6.253   8.015 -0.0497 -2.6451 -2.0502
 1013MOL0     H36742   6.482   6.322   8.239 -0.5498  0.7682  1.7196
 1013MOL0     H36743   6.343   5.984   8.781 -0.2199 -0.0207  1.8637
 1013MOL0     H36744   6.262   6.059   8.978  2.0277  0.5120 -1.0705
 1013MOL0     H36745   6.211   6.445   8.990 -0.1720  0.1200 -2.0456
 1013MOL0     H36746   6.033   6.467   8.993  2.1035  0.6027 -0.3429
 1013MOL0     H36747   6.163   6.545   9.205 -1.5276  2.0653 -3.7240
 1013MOL0     H36748   6.195   6.386   9.237 -2.1858 -1.6234  2.2800
 1013MOL0     H36749   5.947   6.328   9.288 -2.3178  0.9379  3.0516
 1013MOL0     H36750   5.908   6.471   9.212  2.2805  1.9972 -2.5768
 1013MOL0     H36751   6.106   6.487   9.445 -0.0814  6.0422 -0.5007
 1013MOL0     H36752   5.951   6.425   9.490 -0.0349  2.2742  1.8445
 1013MOL0     H36753   5.829   6.808   9.448 -3.7627 -2.4744  0.4351
 1013MOL0     H36754   6.079   6.392   8.754  1.7364  0.0988 -0.1631
 1013MOL0     H36755   6.225   6.328   8.569 -0.9230 -1.2351 -1.1739
 1014MOL0     O36756   6.667   2.449   6.565  1.0590 -0.2531 -0.5680
 1014MOL0     C36757   6.722   2.427   6.671  0.2245 -0.4048 -0.1474
 1014MOL0     O36758   6.728   2.308   6.732 -0.2299  0.3559 -0.2357
 1014MOL0     C36759   6.619   2.223   6.712 -0.5232  0.9907  0.1235
 1014MOL0     C36760   6.478   2.241   6.725 -0.8342 -0.3188 -0.6684
 1014MOL0     C36761   6.385   2.150   6.697  0.1819  0.7207  0.2579
 1014MOL0     C36762   6.416   2.018   6.660 -0.7550 -0.0417 -0.4061
 1014MOL0     O36763   6.310   1.941   6.617  0.3782  0.4468 -0.0325
 1014MOL0     C36764   6.306   1.807   6.672  0.2152  0.0786  0.4359
 1014MOL0     C36765   6.174   1.749   6.644  0.8787  0.3744 -0.3354
 1014MOL0     C36766   6.184   1.599   6.596 -0.4208  1.0277 -0.3665
 1014MOL0     C36767   6.048   1.535   6.597  0.2677 -0.0176  0.1748
 1014MOL0     C36768   6.037   1.377   6.579  0.1350 -0.4054 -0.8390
 1014MOL0     C36769   5.893   1.321   6.565 -0.0808  0.6192  0.8905
 1014MOL0     C36770   5.899   1.176   6.523 -0.3023  0.6541 -0.9358
 1014MOL0     C36771   6.011   1.093   6.601  0.1025 -0.0697  0.8745
 1014MOL0     N36772   5.996   0.945   6.575 -0.4316 -0.0321  0.1965
 1014MOL0     C36773   6.097   0.849   6.574 -0.3566  0.0266  0.2419
 1014MOL0     C36774   6.038   0.730   6.568  0.2177 -0.6756 -0.4445
 1014MOL0     C36775   6.105   0.599   6.553 -0.2453 -0.3212 -0.3038
 1014MOL0     C36776   6.045   0.503   6.656 -0.1455  1.3796  1.1015
 1014MOL0     C36777   6.085   0.531   6.791  0.5692 -0.3818  0.0236
 1014MOL0     C36778   6.212   0.461   6.836 -0.5811  0.4866 -1.2017
 1014MOL0     O36779   6.186   0.321   6.875  0.5767 -0.4612 -0.5230
 1014MOL0     C36780   6.206   0.287   7.001 -0.3757  0.0882 -1.3171
 1014MOL0     C36781   6.192   0.362   7.116  0.5276  0.0748  0.1399
 1014MOL0     C36782   6.223   0.305   7.244  0.7486 -0.4550  1.1505
 1014MOL0     C36783   6.185   0.382   7.367  0.5434  0.8737  0.6893
 1014MOL0     C36784   6.300   0.190   7.248 -0.2194  0.1776  0.0315
 1014MOL0     C36785   6.357   0.122   7.367  0.0391 -0.1107 -0.8656
 1014MOL0     O36786   6.435   0.011   7.340  1.0073 -0.4901  0.1392
 1014MOL0     C36787   6.514  -0.040   7.439 -0.0864 -0.5903 -0.4117
 1014MOL0     C36788   6.580   0.036   7.545 -0.2048  1.0422 -0.4686
 1014MOL0     C36789   6.669  -0.031   7.629  0.4276 -0.6732 -0.9446
 1014MOL0     C36790   6.698  -0.162   7.621  0.3816 -0.2754 -1.0998
 1014MOL0     O36791   6.791  -0.204   7.710  1.2073  0.1907  0.0832
 1014MOL0     C36792   6.788  -0.340   7.753  1.1417  0.0093 -0.0149
 1014MOL0     C36793   6.885  -0.376   7.875 -0.2638 -0.3482 -0.5173
 1014MOL0     C36794   7.031  -0.347   7.850 -0.1060  0.9067 -1.2169
 1014MOL0     C36795   7.053  -0.196   7.871  1.1952  0.9042 -0.4400
 1014MOL0     C36796   7.205  -0.166   7.889  0.5687  0.1962 -0.3615
 1014MOL0     C36797   7.227  -0.022   7.851 -0.4552 -0.0666 -0.0271
 1014MOL0     C36798   7.376   0.012   7.886  1.1507 -0.6349 -0.3700
 1014MOL0     C36799   7.385   0.162   7.917  0.3434 -0.6131 -0.0748
 1014MOL0    Cl36800   7.399   0.246   7.774  0.2546 -0.1934 -0.0235
 1014MOL0     C36801   6.646  -0.235   7.520  0.2967  1.1395  0.8428
 1014MOL0     C36802   6.557  -0.177   7.427  0.0245 -0.9767 -0.2861
 1014MOL0     O36803   6.340   0.174   7.483  0.9252  1.0095 -0.2233
 1014MOL0     C36804   6.306   0.118   7.122  1.1148  0.6803 -1.1474
 1014MOL0     C36805   6.256   0.159   7.008 -0.6176 -0.0995  0.6980
 1014MOL0     N36806   5.905   0.748   6.585  0.1442 -0.1936 -0.1151
 1014MOL0     N36807   5.884   0.873   6.585  0.0503  0.1472  1.1747
 1014MOL0     C36808   6.552   1.993   6.638  0.1313 -0.1930 -0.5549
 1014MOL0     C36809   6.645   2.093   6.667 -0.2656 -0.2723  0.2603
 1014MOL0     C36810   6.793   2.548   6.720  0.7457 -0.3365 -0.6368
 1014MOL0     C36811   6.831   2.649   6.635 -0.1950 -0.8986  0.2038
 1014MOL0     C36812   6.899   2.765   6.682 -0.3405 -0.4880 -0.6036
 1014MOL0     C36813   6.928   2.783   6.819  0.2860 -0.2638  0.9992
 1014MOL0     O36814   6.971   2.906   6.854 -0.4465 -0.4612 -0.2486
 1014MOL0     C36815   7.111   2.921   6.888  0.1424 -0.7725  0.3113
 1014MOL0     C36816   7.208   2.907   6.756 -0.4148  0.1194 -1.1630
 1014MOL0     C36817   7.167   2.988   6.633  0.4690  0.1560 -0.0279
 1014MOL0     C36818   7.238   3.123   6.634 -0.1539 -0.0870 -0.0420
 1014MOL0     C36819   7.178   3.222   6.733  0.6509  0.7647  0.7867
 1014MOL0     C36820   7.117   3.293   6.810 -0.9222  0.2904  0.7958
 1014MOL0     C36821   6.898   2.677   6.901 -0.1010 -0.7281  0.5362
 1014MOL0     C36822   6.831   2.563   6.856  0.4163  0.9205  0.2466
 1014MOL0     H36823   6.437   2.334   6.763 -1.2158 -1.2996  1.4610
 1014MOL0     H36824   6.281   2.183   6.694  0.8419  3.0046 -2.5449
 1014MOL0     H36825   6.377   1.748   6.613 -0.8614 -0.6212 -0.1758
 1014MOL0     H36826   6.341   1.804   6.776  3.6733  2.7394 -0.4493
 1014MOL0     H36827   6.114   1.769   6.733  1.7761  2.5329 -0.1473
 1014MOL0     H36828   6.125   1.808   6.566  0.1124 -2.7154 -2.3627
 1014MOL0     H36829   6.232   1.604   6.497 -2.3551 -3.2852 -1.7671
 1014MOL0     H36830   6.238   1.535   6.666 -2.0665  0.2365  0.2273
 1014MOL0     H36831   6.010   1.558   6.698  1.0426  2.2300  0.0185
 1014MOL0     H36832   5.982   1.582   6.523 -0.2065 -1.2246 -0.1949
 1014MOL0     H36833   6.086   1.344   6.487  0.8379  1.0369 -1.0126
 1014MOL0     H36834   6.081   1.331   6.668 -0.6529  1.3726  0.5491
 1014MOL0     H36835   5.835   1.321   6.658 -1.4617 -1.2784  0.0823
 1014MOL0     H36836   5.839   1.381   6.492 -1.7277 -4.1743 -2.3458
 1014MOL0     H36837   5.802   1.130   6.545  0.8880 -3.0132 -2.6084
 1014MOL0     H36838   5.920   1.169   6.416  0.5702 -4.6210 -0.6749
 1014MOL0     H36839   6.003   1.096   6.710 -1.6525  1.3423  0.7515
 1014MOL0     H36840   6.112   1.121   6.569  0.9265 -2.1778  1.4465
 1014MOL0     H36841   6.204   0.862   6.573 -0.6173  2.6391 -0.5058
 1014MOL0     H36842   6.078   0.569   6.452 -3.2609 -2.4146  0.9881
 1014MOL0     H36843   6.212   0.600   6.575 -0.2608 -0.4764 -0.2219
 1014MOL0     H36844   6.076   0.404   6.621 -1.9730  0.8239  0.9429
 1014MOL0     H36845   5.936   0.497   6.652 -0.3543  2.8713  3.0861
 1014MOL0     H36846   5.996   0.510   6.852 -2.1098  4.1974 -1.7546
 1014MOL0     H36847   6.094   0.638   6.810 -4.5651  1.1428 -3.8946
 1014MOL0     H36848   6.236   0.527   6.920  3.5121 -0.7275 -1.2106
 1014MOL0     H36849   6.297   0.478   6.770  1.7425 -0.4028  1.3493
 1014MOL0     H36850   6.148   0.461   7.120 -1.3400 -0.7583  2.1640
 1014MOL0     H36851   6.125   0.469   7.338  0.1808 -0.3179 -2.6053
 1014MOL0     H36852   6.123   0.321   7.433  0.4468 -0.1019 -0.2726
 1014MOL0     H36853   6.271   0.412   7.427 -0.1887  2.3473  1.0604
 1014MOL0     H36854   6.575   0.142   7.567 -3.6022  0.9985 -0.4865
 1014MOL0     H36855   6.733   0.027   7.693 -0.0628  0.0038 -1.0543
 1014MOL0     H36856   6.681  -0.353   7.770  0.7386 -2.0706 -3.1527
 1014MOL0     H36857   6.804  -0.413   7.672 -0.8401 -1.1151  0.5263
 1014MOL0     H36858   6.838  -0.329   7.962  0.0779  1.9144 -1.4647
 1014MOL0     H36859   6.863  -0.483   7.873  0.4030 -0.4938 -0.2358
 1014MOL0     H36860   7.055  -0.384   7.750 -1.3713  0.0055 -1.2112
 1014MOL0     H36861   7.096  -0.404   7.917 -0.1551  0.7357 -1.3143
 1014MOL0     H36862   7.001  -0.153   7.785  1.0174  1.1740 -0.1966
 1014MOL0     H36863   7.001  -0.159   7.959  1.6591  0.4520  0.0314
 1014MOL0     H36864   7.271  -0.235   7.834  1.0077 -2.8505  3.4947
 1014MOL0     H36865   7.226  -0.186   7.995  0.8721 -0.0617 -0.4687
 1014MOL0     H36866   7.204   0.008   7.748 -1.2270  0.2192  0.2253
 1014MOL0     H36867   7.169   0.044   7.915  1.6165  1.9810 -0.1184
 1014MOL0     H36868   7.444  -0.012   7.804 -0.1179  0.9385 -1.9692
 1014MOL0     H36869   7.413  -0.039   7.976 -0.9602 -0.4160  0.6790
 1014MOL0     H36870   7.475   0.190   7.973  1.1174  0.1929 -1.6486
 1014MOL0     H36871   7.306   0.191   7.986  0.9671  0.4364  0.2165
 1014MOL0     H36872   6.667  -0.342   7.518 -2.1314  0.6169 -0.1578
 1014MOL0     H36873   6.514  -0.238   7.347 -0.2522 -4.3026  2.1610
 1014MOL0     H36874   6.349   0.019   7.122  1.8895  0.9898 -2.5364
 1014MOL0     H36875   6.262   0.114   6.909  3.8960 -0.1863  0.8116
 1014MOL0     H36876   6.568   1.896   6.593 -0.2417 -0.1565 -0.7723
 1014MOL0     H36877   6.750   2.074   6.646  0.1419  1.4292  0.5679
 1014MOL0     H36878   6.792   2.649   6.534 -0.2840  0.9657  0.2056
 1014MOL0     H36879   6.916   2.853   6.621 -0.3469  0.6683  0.9897
 1014MOL0     H36880   7.110   3.024   6.924 -1.6908 -0.6544  0.0318
 1014MOL0     H36881   7.135   2.857   6.973  2.1436 -0.1008  0.3022
 1014MOL0     H36882   7.184   2.805   6.726 -2.4997 -0.1217  0.9435
 1014MOL0     H36883   7.314   2.910   6.781 -0.4629 -1.9686 -0.5281
 1014MOL0     H36884   7.061   3.013   6.629  0.4007 -0.1835 -3.9684
 1014MOL0     H36885   7.197   2.936   6.541  0.1000  1.0863 -0.6906
 1014MOL0     H36886   7.226   3.162   6.532 -1.6609 -0.0176  0.1467
 1014MOL0     H36887   7.345   3.116   6.657 -0.2294  0.0416  0.3438
 1014MOL0     H36888   7.067   3.359   6.878  0.2380  2.0214  0.0487
 1014MOL0     H36889   6.935   2.682   7.003 -0.9407 -2.6178  0.9911
 1014MOL0     H36890   6.820   2.491   6.937 -0.4940  0.9671  0.1796
 1015MOL0     O36891   5.557   2.439   8.761 -0.1878 -0.3142 -0.0330
 1015MOL0     C36892   5.625   2.335   8.752  0.6612 -0.5013 -0.0023
 1015MOL0     O36893   5.759   2.334   8.741  0.6603 -0.3117 -0.5388
 1015MOL0     C36894   5.837   2.448   8.764  0.4348  0.9944 -0.4831
 1015MOL0     C36895   5.948   2.457   8.686 -0.3499  1.5635 -0.8744
 1015MOL0     C36896   6.021   2.572   8.684  0.0210  1.0315  0.0264
 1015MOL0     C36897   6.006   2.678   8.780 -0.6288  0.5376  0.0346
 1015MOL0     O36898   6.090   2.781   8.790 -0.9781  0.4645  0.0628
 1015MOL0     C36899   6.230   2.763   8.804 -0.3369  0.5653 -0.2151
 1015MOL0     C36900   6.262   2.814   8.938  1.1993 -0.0043 -0.8791
 1015MOL0     C36901   6.393   2.889   8.945  0.5524  0.1413  0.3779
 1015MOL0     C36902   6.518   2.806   8.916 -0.8344 -0.8787  0.0607
 1015MOL0     C36903   6.628   2.906   8.896 -0.2684 -0.1878 -0.1956
 1015MOL0     C36904   6.741   2.895   9.000  0.9402  0.2808 -0.5362
 1015MOL0     C36905   6.853   2.799   8.960  0.0665 -0.3371 -0.0444
 1015MOL0     C36906   6.911   2.844   8.823  0.5585 -0.5378 -0.6352
 1015MOL0     N36907   6.949   2.988   8.822 -0.3252 -0.2408 -0.2722
 1015MOL0     C36908   7.039   3.055   8.907 -0.4023  0.5336  0.0741
 1015MOL0     C36909   7.010   3.185   8.895 -0.3340 -1.1351 -0.9086
 1015MOL0     C36910   7.067   3.290   8.985  0.0314  0.1480 -0.4765
 1015MOL0     C36911   7.166   3.390   8.911 -0.4888  0.1401 -0.5138
 1015MOL0     C36912   7.089   3.501   8.841 -0.5869  0.1417 -0.4527
 1015MOL0     C36913   7.084   3.503   8.690  0.2615  0.4970 -0.0319
 1015MOL0     O36914   7.223   3.512   8.641  0.3049 -0.2549  0.8231
 1015MOL0     C36915   7.250   3.511   8.508 -0.5870  1.2526 -0.2105
 1015MOL0     C36916   7.166   3.457   8.413  0.4956  1.5251  0.9739
 1015MOL0     C36917   7.189   3.452   8.271  0.0366  0.0226 -0.4895
 1015MOL0     C36918   7.088   3.382   8.189 -0.4197 -0.0351 -0.1493
 1015MOL0     C36919   7.316   3.512   8.229  0.2956  0.0417  0.8099
 1015MOL0     C36920   7.362   3.518   8.086  0.0830  0.5056 -0.0859
 1015MOL0     O36921   7.462   3.604   8.050 -0.3055 -0.7231 -0.9038
 1015MOL0     C36922   7.578   3.553   8.006  1.0878 -0.4745  0.0186
 1015MOL0     C36923   7.582   3.462   7.906  0.1231  0.1265 -0.8059
 1015MOL0     C36924   7.697   3.408   7.850  0.0017 -0.8065 -0.3635
 1015MOL0     C36925   7.816   3.451   7.900  0.4709 -0.7127 -0.0998
 1015MOL0     O36926   7.934   3.410   7.855 -0.3539  1.0400  0.3436
 1015MOL0     C36927   7.969   3.278   7.907 -0.2894  1.3112  0.4816
 1015MOL0     C36928   8.107   3.231   7.868 -1.3583 -0.7778 -0.2858
 1015MOL0     C36929   8.110   3.201   7.712  0.8189 -0.1571 -0.5153
 1015MOL0     C36930   8.256   3.183   7.659 -0.1647 -0.0021 -1.0510
 1015MOL0     C36931   8.332   3.319   7.639 -0.1222  0.7914 -0.9230
 1015MOL0     C36932   8.459   3.314   7.548  0.2743 -0.0774 -0.0378
 1015MOL0     C36933   8.507   3.460   7.543  0.0722  0.0082  0.0172
 1015MOL0     C36934   8.647   3.477   7.486 -0.2375 -0.0535  0.2798
 1015MOL0    Cl36935   8.762   3.353   7.563  0.0231  0.1785  0.2480
 1015MOL0     C36936   7.818   3.558   7.994 -0.8251  0.0420  0.9358
 1015MOL0     C36937   7.705   3.605   8.043  0.1180  0.1774  0.0364
 1015MOL0     O36938   7.320   3.418   8.023 -0.1476 -1.3219  0.5435
 1015MOL0     C36939   7.390   3.582   8.327  0.7623  0.2416  0.7482
 1015MOL0     C36940   7.362   3.580   8.457 -0.6070  0.2996  1.1397
 1015MOL0     N36941   6.913   3.200   8.801  0.4949  0.0137  0.0592
 1015MOL0     N36942   6.884   3.084   8.746 -0.2444  1.3791 -0.4632
 1015MOL0     C36943   5.901   2.663   8.867 -0.4166  0.5842 -0.6501
 1015MOL0     C36944   5.814   2.548   8.856  1.0595 -0.0500  0.0613
 1015MOL0     C36945   5.539   2.214   8.744  0.4751  0.6790  1.1133
 1015MOL0     C36946   5.594   2.086   8.751  0.7825  0.0940  0.2413
 1015MOL0     C36947   5.525   1.969   8.741  0.0500 -0.0937 -0.0538
 1015MOL0     C36948   5.382   1.976   8.729 -0.5776  0.0689 -0.2594
 1015MOL0     O36949   5.320   1.855   8.723 -0.0891  0.3372  0.0809
 1015MOL0     C36950   5.181   1.850   8.696 -0.2902  0.0053  0.9355
 1015MOL0     C36951   5.142   1.702   8.701  0.4408 -0.2348  0.1777
 1015MOL0     C36952   5.223   1.626   8.592  0.1395 -0.5807  0.3650
 1015MOL0     C36953   5.181   1.483   8.583 -0.8621 -0.4253 -0.2831
 1015MOL0     C36954   5.065   1.462   8.501  0.7432 -0.1402  0.0546
 1015MOL0     C36955   4.966   1.431   8.435 -0.7071 -1.6333 -0.1125
 1015MOL0     C36956   5.320   2.103   8.728  0.1819 -1.1976 -0.1889
 1015MOL0     C36957   5.401   2.217   8.719 -0.0164  0.3212 -0.0802
 1015MOL0     H36958   5.986   2.374   8.626  0.2945  1.8028 -0.8014
 1015MOL0     H36959   6.105   2.576   8.615 -1.8567  0.4631 -2.4501
 1015MOL0     H36960   6.271   2.664   8.782 -2.0189  0.2138 -2.0024
 1015MOL0     H36961   6.276   2.829   8.730 -0.0908 -1.7497 -2.2395
 1015MOL0     H36962   6.197   2.896   8.971  1.6669 -0.6690  2.0148
 1015MOL0     H36963   6.257   2.738   9.016 -0.2794  0.6890 -0.2519
 1015MOL0     H36964   6.390   2.973   8.875 -0.2054  2.0801  2.6387
 1015MOL0     H36965   6.392   2.940   9.041 -2.4017  1.4271 -0.2195
 1015MOL0     H36966   6.524   2.753   9.012 -2.0933  1.9578  1.8487
 1015MOL0     H36967   6.508   2.737   8.833  0.9265 -0.0425 -0.9222
 1015MOL0     H36968   6.655   2.907   8.790 -2.2939  1.9331 -0.7661
 1015MOL0     H36969   6.599   3.011   8.906  1.0312  0.1361  0.3048
 1015MOL0     H36970   6.785   2.993   9.024  3.7165 -1.0064  0.0354
 1015MOL0     H36971   6.696   2.848   9.088  1.1125 -5.6236 -3.1700
 1015MOL0     H36972   6.935   2.809   9.031 -1.0345  0.3330  1.1906
 1015MOL0     H36973   6.816   2.696   8.950  1.0296 -1.1123  3.0961
 1015MOL0     H36974   6.845   2.815   8.741 -0.1951 -3.1458  0.7972
 1015MOL0     H36975   7.004   2.787   8.811  0.0900 -1.3144 -0.5874
 1015MOL0     H36976   7.110   3.018   8.981  0.7162  3.9403  0.9168
 1015MOL0     H36977   6.986   3.350   9.029 -2.8605 -2.8230 -1.2936
 1015MOL0     H36978   7.120   3.249   9.071  1.4522  0.9394 -0.9411
 1015MOL0     H36979   7.239   3.342   8.845 -1.0344 -0.2627 -0.8312
 1015MOL0     H36980   7.231   3.433   8.988  1.7658 -3.5083 -0.1354
 1015MOL0     H36981   7.139   3.595   8.867  0.7576 -0.8143  0.6088
 1015MOL0     H36982   6.989   3.503   8.884  0.5762  0.4963  2.4879
 1015MOL0     H36983   7.026   3.579   8.637 -4.9670 -1.8547  1.6577
 1015MOL0     H36984   7.053   3.401   8.664  0.2867  0.1189  1.3781
 1015MOL0     H36985   7.087   3.392   8.451  1.1651  0.2338  0.1896
 1015MOL0     H36986   7.040   3.452   8.119  0.4093 -1.2952 -2.0603
 1015MOL0     H36987   7.139   3.310   8.125  1.0330  1.2377 -0.4737
 1015MOL0     H36988   7.005   3.336   8.244 -1.0136  0.0933 -0.9152
 1015MOL0     H36989   7.491   3.432   7.854 -0.1811  1.7716 -1.2770
 1015MOL0     H36990   7.689   3.328   7.778 -2.4496 -0.1959 -0.8596
 1015MOL0     H36991   7.972   3.271   8.016  1.2275 -2.3199  0.3322
 1015MOL0     H36992   7.896   3.204   7.873  2.9982 -1.7751 -0.4608
 1015MOL0     H36993   8.183   3.297   7.909 -0.0285 -1.8672 -0.9174
 1015MOL0     H36994   8.113   3.132   7.914 -3.1093 -0.0754  1.6160
 1015MOL0     H36995   8.059   3.288   7.668 -2.0279 -1.2673  0.3410
 1015MOL0     H36996   8.048   3.113   7.695 -0.3909 -0.0108  2.5330
 1015MOL0     H36997   8.311   3.113   7.722 -1.0516  0.6693  0.5268
 1015MOL0     H36998   8.247   3.141   7.558  2.5389  1.5896 -2.0570
 1015MOL0     H36999   8.355   3.350   7.742 -1.9024 -1.0390  0.0970
 1015MOL0     H37000   8.264   3.399   7.610  0.6386  2.1082  0.7353
 1015MOL0     H37001   8.524   3.241   7.596 -0.7355 -1.0949 -0.1575
 1015MOL0     H37002   8.433   3.266   7.453  2.3110  0.9876 -1.1857
 1015MOL0     H37003   8.507   3.502   7.644 -1.5027  1.1413 -0.4198
 1015MOL0     H37004   8.430   3.508   7.481 -0.6846 -0.0955  0.8458
 1015MOL0     H37005   8.677   3.582   7.499  0.5135 -0.3546  1.1103
 1015MOL0     H37006   8.648   3.452   7.380 -0.3082  0.1859  0.2232
 1015MOL0     H37007   7.918   3.596   8.015  0.0673 -0.6519 -1.6970
 1015MOL0     H37008   7.708   3.682   8.120  1.2230  1.0370 -0.8453
 1015MOL0     H37009   7.477   3.636   8.293  0.1930  0.4033 -0.5144
 1015MOL0     H37010   7.424   3.646   8.517  0.8767 -1.8147  2.0100
 1015MOL0     H37011   5.883   2.746   8.933 -1.5180  2.5359 -3.2208
 1015MOL0     H37012   5.729   2.534   8.922 -1.8283  1.8867 -2.9384
 1015MOL0     H37013   5.702   2.094   8.757  0.8897 -1.4451  0.7193
 1015MOL0     H37014   5.585   1.880   8.727  2.1439  1.2477  0.0148
 1015MOL0     H37015   5.117   1.904   8.767 -0.5186 -3.4272  3.6658
 1015MOL0     H37016   5.164   1.886   8.595  2.3258 -0.7233  0.1658
 1015MOL0     H37017   5.034   1.695   8.681  0.6431  1.3476 -1.7358
 1015MOL0     H37018   5.158   1.660   8.801 -1.2632  1.4900  1.2470
 1015MOL0     H37019   5.330   1.624   8.615  0.2052 -0.2433  0.0955
 1015MOL0     H37020   5.193   1.679   8.502 -1.8998 -1.6856  0.3273
 1015MOL0     H37021   5.150   1.441   8.679 -2.2532  0.8425 -0.1339
 1015MOL0     H37022   5.260   1.424   8.536 -0.7751  0.2435 -0.9952
 1015MOL0     H37023   4.890   1.405   8.363 -3.3770 -0.2449  1.9966
 1015MOL0     H37024   5.212   2.114   8.718  0.3917  4.0292  0.6264
 1015MOL0     H37025   5.353   2.314   8.709 -0.5422 -0.0712 -1.7755
 1016MOL0     O37026  10.771   1.607   3.857  0.3249 -0.6296 -0.2834
 1016MOL0     C37027  10.892   1.650   3.848 -0.1500 -0.2438 -0.3632
 1016MOL0     O37028  10.994   1.581   3.796 -0.0983  1.1493  0.3296
 1016MOL0     C37029  10.987   1.441   3.789  1.0550 -0.5608 -0.4516
 1016MOL0     C37030  11.058   1.379   3.677 -0.6002  0.7120  0.3219
 1016MOL0     C37031  11.069   1.239   3.681 -0.4678  1.2460  0.1590
 1016MOL0     C37032  11.039   1.162   3.792  0.0843  0.3865 -0.2980
 1016MOL0     O37033  11.084   1.032   3.804  0.2417 -0.3379 -0.7464
 1016MOL0     C37034  11.082   0.967   3.938  0.5020  0.3388  0.2092
 1016MOL0     C37035  11.183   0.852   3.931  0.3828 -0.3761 -0.5594
 1016MOL0     C37036  11.333   0.904   3.949  0.8935 -0.4111  0.1656
 1016MOL0     C37037  11.421   0.778   3.979  0.3972 -0.2041  0.7904
 1016MOL0     C37038  11.578   0.808   3.986  1.1393  0.2144  0.0837
 1016MOL0     C37039  11.649   0.677   4.008 -0.0726 -0.4055 -0.3012
 1016MOL0     C37040  11.656   0.587   3.885  0.5336 -0.1655  0.3178
 1016MOL0     C37041  11.586   0.452   3.918 -0.3067 -0.3431  0.8552
 1016MOL0     N37042  11.444   0.461   3.946 -0.5114  0.2761 -0.8563
 1016MOL0     C37043  11.347   0.456   3.846  0.3425 -0.6814 -0.3708
 1016MOL0     C37044  11.225   0.447   3.906  0.5293 -0.4964  0.2837
 1016MOL0     C37045  11.098   0.423   3.841  0.4592  0.0497  0.0934
 1016MOL0     C37046  11.074   0.276   3.790 -0.2603 -1.3898 -0.1905
 1016MOL0     C37047  10.936   0.271   3.717 -0.4711 -0.3070 -0.8762
 1016MOL0     C37048  10.939   0.285   3.571  0.1776  0.2502  0.2689
 1016MOL0     O37049  11.053   0.224   3.500 -0.0521  0.4266 -0.0782
 1016MOL0     C37050  11.076   0.241   3.365  0.5335 -0.4791 -0.1531
 1016MOL0     C37051  10.979   0.305   3.274 -0.4758 -0.2599  0.6877
 1016MOL0     C37052  10.994   0.296   3.133 -0.7148 -0.2999  1.2788
 1016MOL0     C37053  10.891   0.360   3.042 -0.0512 -0.2499  0.8510
 1016MOL0     C37054  11.108   0.236   3.076  0.5293 -0.2559  0.8372
 1016MOL0     C37055  11.126   0.223   2.934  0.5371  0.2523  0.8937
 1016MOL0     O37056  11.249   0.251   2.892  0.1920  0.6987 -0.1360
 1016MOL0     C37057  11.264   0.216   2.767  0.7041  0.6288 -0.6682
 1016MOL0     C37058  11.277   0.315   2.668  0.0902  0.0282 -0.1696
 1016MOL0     C37059  11.292   0.274   2.531  0.6123 -0.0776 -0.4855
 1016MOL0     C37060  11.295   0.142   2.493 -0.3009 -0.9498  0.0215
 1016MOL0     O37061  11.287   0.106   2.357 -0.2089 -0.1503  0.1242
 1016MOL0     C37062  11.180   0.165   2.284 -0.5243 -0.4041  0.1712
 1016MOL0     C37063  11.038   0.136   2.327 -1.4728  0.2687 -1.3239
 1016MOL0     C37064  10.950   0.210   2.225  0.8862  0.8524 -0.0128
 1016MOL0     C37065  10.806   0.208   2.279 -1.3240 -0.0983  0.2714
 1016MOL0     C37066  10.693   0.255   2.179 -0.2956  0.5950 -0.0561
 1016MOL0     C37067  10.551   0.231   2.231 -0.7955 -0.5461 -0.0159
 1016MOL0     C37068  10.470   0.286   2.112 -0.1653  0.3099  0.3262
 1016MOL0     C37069  10.328   0.263   2.134  0.6821  1.0109 -0.0383
 1016MOL0    Cl37070  10.277   0.094   2.146 -0.1527  0.0846  0.0305
 1016MOL0     C37071  11.284   0.047   2.586 -1.0765  0.4568 -0.2299
 1016MOL0     C37072  11.281   0.089   2.723  0.2078  0.4698  0.1930
 1016MOL0     O37073  11.028   0.178   2.872 -0.9286 -0.7002  0.3500
 1016MOL0     C37074  11.200   0.170   3.161  0.2203 -1.0036  0.1388
 1016MOL0     C37075  11.184   0.171   3.295  0.0243  0.8316  0.2954
 1016MOL0     N37076  11.249   0.474   4.042  0.0746  0.5550  0.4128
 1016MOL0     N37077  11.373   0.469   4.064 -0.0077  0.6044  0.5548
 1016MOL0     C37078  10.957   1.226   3.886 -0.7729  0.8949 -0.6464
 1016MOL0     C37079  10.926   1.364   3.885  0.4726  0.5941 -0.4240
 1016MOL0     C37080  10.922   1.790   3.909 -0.8310  0.3086  0.2466
 1016MOL0     C37081  11.054   1.842   3.908 -0.1421 -1.1781 -0.6158
 1016MOL0     C37082  11.085   1.960   3.979 -1.1460 -0.3972  0.1666
 1016MOL0     C37083  10.984   2.049   4.016 -0.3603  0.4036  0.0711
 1016MOL0     O37084  11.015   2.175   4.068 -0.1515 -0.3234  0.0458
 1016MOL0     C37085  10.923   2.277   4.054 -0.4255 -0.7120  0.2035
 1016MOL0     C37086  10.907   2.298   3.908  0.0201 -0.1189 -0.8691
 1016MOL0     C37087  10.845   2.436   3.882 -0.1595  0.5226 -0.7085
 1016MOL0     C37088  10.709   2.454   3.948 -0.9427  0.0588 -0.6933
 1016MOL0     C37089  10.641   2.562   3.879  0.0438 -0.7449 -0.3676
 1016MOL0     C37090  10.588   2.650   3.812  0.8495 -0.7497  0.4732
 1016MOL0     C37091  10.851   2.008   3.998  0.1285  0.0400  0.2845
 1016MOL0     C37092  10.822   1.876   3.953 -0.3751 -0.5967 -0.6610
 1016MOL0     H37093  11.105   1.443   3.603 -0.0041 -1.3311 -1.1282
 1016MOL0     H37094  11.123   1.191   3.600  0.3798  1.4126  0.6104
 1016MOL0     H37095  11.108   1.038   4.017  0.7925  1.5820 -0.9673
 1016MOL0     H37096  10.984   0.922   3.953  0.6742 -1.4260 -3.0348
 1016MOL0     H37097  11.162   0.799   4.024  1.2701  1.5200  0.7909
 1016MOL0     H37098  11.161   0.781   3.850  0.3682  0.5514 -1.3978
 1016MOL0     H37099  11.362   0.944   3.851  2.7761 -0.2640  0.7345
 1016MOL0     H37100  11.336   0.977   4.031 -2.0045 -0.7530  0.6834
 1016MOL0     H37101  11.387   0.736   4.074 -1.9411 -2.9951 -1.1060
 1016MOL0     H37102  11.392   0.703   3.905  3.9579  0.5765 -1.6960
 1016MOL0     H37103  11.611   0.842   3.888  0.6801 -3.0601 -1.3405
 1016MOL0     H37104  11.594   0.885   4.063 -0.2903 -1.1560  1.8630
 1016MOL0     H37105  11.752   0.697   4.036 -0.0299 -0.1863 -0.6128
 1016MOL0     H37106  11.611   0.614   4.089 -0.9165  0.2360 -0.1837
 1016MOL0     H37107  11.619   0.626   3.790  1.5163  2.4583  0.9302
 1016MOL0     H37108  11.760   0.561   3.866  0.2442 -1.9359  0.9597
 1016MOL0     H37109  11.639   0.406   4.002 -1.2478  1.1213  2.2971
 1016MOL0     H37110  11.601   0.389   3.830 -3.0727 -0.1883  0.1661
 1016MOL0     H37111  11.361   0.449   3.739 -2.4213 -2.8669 -0.6869
 1016MOL0     H37112  11.016   0.447   3.911  0.0967 -1.3518  0.1770
 1016MOL0     H37113  11.094   0.499   3.762  2.6971 -0.3788 -0.4770
 1016MOL0     H37114  11.069   0.205   3.873  3.0947  0.6469  2.0440
 1016MOL0     H37115  11.152   0.249   3.719  0.2195  0.0969 -0.2693
 1016MOL0     H37116  10.877   0.351   3.764  1.5045 -1.0941  3.4055
 1016MOL0     H37117  10.885   0.180   3.747  2.0396 -2.1486 -1.8614
 1016MOL0     H37118  10.948   0.393   3.550 -0.3604  0.3238  0.4167
 1016MOL0     H37119  10.849   0.242   3.527  1.4123 -1.3076 -0.8302
 1016MOL0     H37120  10.898   0.359   3.321  0.4515  1.1050  0.7804
 1016MOL0     H37121  10.928   0.425   2.961 -3.6425  2.1872  0.9275
 1016MOL0     H37122  10.815   0.289   3.007 -0.0537  1.2657 -2.6558
 1016MOL0     H37123  10.832   0.427   3.105 -0.6341  1.9740 -1.8475
 1016MOL0     H37124  11.308   0.412   2.703  3.1531 -0.8187 -0.2184
 1016MOL0     H37125  11.308   0.352   2.458  0.5492  0.4150  0.0227
 1016MOL0     H37126  11.188   0.274   2.278 -1.5166 -0.2477  1.2508
 1016MOL0     H37127  11.195   0.134   2.181 -0.6331  1.2308 -0.3746
 1016MOL0     H37128  11.010   0.030   2.334  1.7890 -0.6429  4.3094
 1016MOL0     H37129  11.016   0.180   2.425  0.1686 -3.1663  0.8144
 1016MOL0     H37130  10.938   0.148   2.136 -0.3804 -2.7679  2.4193
 1016MOL0     H37131  10.976   0.316   2.217  3.2184  0.5465  2.2064
 1016MOL0     H37132  10.780   0.114   2.328  3.1875 -0.1742  3.0768
 1016MOL0     H37133  10.808   0.270   2.368  0.3619 -1.3311  1.1426
 1016MOL0     H37134  10.703   0.190   2.092 -1.3890  1.5666 -0.9454
 1016MOL0     H37135  10.715   0.360   2.155 -0.3044  1.0202  1.6704
 1016MOL0     H37136  10.531   0.128   2.262 -0.4369 -0.8074 -0.6199
 1016MOL0     H37137  10.538   0.302   2.313 -0.3930 -0.0863 -0.3462
 1016MOL0     H37138  10.493   0.247   2.012 -0.9883  2.8554 -0.9526
 1016MOL0     H37139  10.483   0.394   2.103  0.5280  0.5194  2.9878
 1016MOL0     H37140  10.284   0.307   2.044  0.1608 -2.6289 -1.7413
 1016MOL0     H37141  10.296   0.312   2.226 -3.8470  1.6387 -1.6745
 1016MOL0     H37142  11.285  -0.058   2.559 -1.7535 -0.2209  2.1501
 1016MOL0     H37143  11.263   0.014   2.799 -0.2886 -1.0863 -1.3810
 1016MOL0     H37144  11.289   0.118   3.129  0.1842 -1.0248  0.0727
 1016MOL0     H37145  11.266   0.130   3.353 -1.1831  0.4307  1.8057
 1016MOL0     H37146  10.911   1.158   3.958 -3.1063  0.7085 -2.1929
 1016MOL0     H37147  10.869   1.411   3.964  1.0780  0.8119 -0.1079
 1016MOL0     H37148  11.121   1.773   3.859 -3.0776 -4.3262 -0.6250
 1016MOL0     H37149  11.184   2.005   3.977 -0.7871 -1.0673  1.6074
 1016MOL0     H37150  10.828   2.264   4.106 -1.9082  2.6965 -1.3249
 1016MOL0     H37151  10.969   2.361   4.108  1.9425 -0.1724 -2.4096
 1016MOL0     H37152  10.835   2.231   3.861 -1.4425  0.3900  0.5566
 1016MOL0     H37153  11.006   2.290   3.861  0.4590 -0.5879  0.0905
 1016MOL0     H37154  10.814   2.452   3.778 -0.5674  4.5106 -0.1217
 1016MOL0     H37155  10.914   2.514   3.914  0.9215 -1.6306  2.7140
 1016MOL0     H37156  10.722   2.491   4.051 -1.6057  0.6041 -0.7981
 1016MOL0     H37157  10.643   2.368   3.960  1.1846 -1.4947  0.5331
 1016MOL0     H37158  10.552   2.721   3.739 -0.8722 -2.1520 -0.1030
 1016MOL0     H37159  10.768   2.074   4.022  0.0231  0.4760 -1.1864
 1016MOL0     H37160  10.723   1.833   3.964 -1.0528  0.4283 -2.2986
 1017MOL0     O37161   4.222  10.848   9.262  0.7948 -0.1369 -0.2510
 1017MOL0     C37162   4.112  10.903   9.280 -0.6111 -0.5994 -0.2441
 1017MOL0     O37163   4.102  11.030   9.312  1.0373  0.0784  0.2703
 1017MOL0     C37164   4.214  11.107   9.338 -0.6305  0.7178 -0.5937
 1017MOL0     C37165   4.308  11.127   9.236 -1.2361 -0.2419 -0.3176
 1017MOL0     C37166   4.415  11.219   9.254  0.0358  0.2683  0.3432
 1017MOL0     C37167   4.436  11.277   9.379  1.1867 -0.3305 -0.0412
 1017MOL0     O37168   4.548  11.348   9.410 -1.4011  1.0748  1.1361
 1017MOL0     C37169   4.636  11.361   9.299 -0.1804 -0.6013 -0.2328
 1017MOL0     C37170   4.766  11.430   9.336  0.0712 -1.0524 -0.1970
 1017MOL0     C37171   4.848  11.470   9.214 -0.4893 -0.1002 -0.0150
 1017MOL0     C37172   4.863  11.362   9.099  0.5597 -1.2506  0.3579
 1017MOL0     C37173   4.919  11.230   9.143 -0.5253  0.0452  0.4116
 1017MOL0     C37174   4.861  11.112   9.064  0.7832  0.3486 -0.5913
 1017MOL0     C37175   4.934  10.981   9.090  0.1535  0.3743 -0.0709
 1017MOL0     C37176   5.079  10.966   9.058 -0.3909  0.2565  0.4297
 1017MOL0     N37177   5.101  11.014   8.912  0.1555 -0.3095 -0.0184
 1017MOL0     C37178   5.142  11.139   8.866  0.0007  0.1620 -0.4123
 1017MOL0     C37179   5.158  11.127   8.734 -1.1295 -0.4424 -0.2250
 1017MOL0     C37180   5.178  11.239   8.637  0.1675 -0.2016  0.9848
 1017MOL0     C37181   5.043  11.294   8.582 -0.4765  0.2647  0.2979
 1017MOL0     C37182   4.998  11.396   8.677 -0.1514  0.3498  0.6523
 1017MOL0     C37183   4.896  11.492   8.610 -0.3651  0.3754 -0.3394
 1017MOL0     O37184   4.778  11.421   8.602  0.6526  0.1059  0.4845
 1017MOL0     C37185   4.709  11.389   8.479  0.6700  0.3523 -0.8679
 1017MOL0     C37186   4.769  11.396   8.350  0.1541  0.3759  0.3890
 1017MOL0     C37187   4.694  11.369   8.235 -0.5092 -0.0309 -0.1438
 1017MOL0     C37188   4.774  11.391   8.102 -0.5271  0.4744  0.0021
 1017MOL0     C37189   4.560  11.336   8.251  0.2697 -0.7652  0.9712
 1017MOL0     C37190   4.463  11.319   8.133  0.0838  1.3798 -0.6321
 1017MOL0     O37191   4.519  11.321   8.002 -0.1699 -0.1017  0.4932
 1017MOL0     C37192   4.432  11.295   7.890 -0.1178  0.0123 -0.0758
 1017MOL0     C37193   4.354  11.396   7.852  0.5023 -1.1659 -0.1621
 1017MOL0     C37194   4.271  11.382   7.744  0.3654 -0.2179 -0.0157
 1017MOL0     C37195   4.280  11.265   7.660 -0.6618  0.5602  0.1623
 1017MOL0     O37196   4.217  11.236   7.543  0.2054  0.6311 -0.3671
 1017MOL0     C37197   4.124  11.327   7.501 -0.0515 -0.2862 -0.7032
 1017MOL0     C37198   4.038  11.259   7.397 -0.5024 -0.5783  0.0027
 1017MOL0     C37199   3.952  11.150   7.456  0.1419  0.7061 -0.3784
 1017MOL0     C37200   3.860  11.092   7.357  0.6865  0.2075  0.8375
 1017MOL0     C37201   3.778  10.976   7.424 -0.7549  0.6896  0.0557
 1017MOL0     C37202   3.686  11.023   7.538  1.1850  0.3168  0.1343
 1017MOL0     C37203   3.592  10.923   7.597  0.1766 -0.3701  0.3237
 1017MOL0     C37204   3.493  10.997   7.689 -0.3719  0.3073  0.5494
 1017MOL0    Cl37205   3.364  11.086   7.593  0.1644  0.3138  0.3954
 1017MOL0     C37206   4.371  11.165   7.693 -0.1415 -0.1400  0.7219
 1017MOL0     C37207   4.452  11.187   7.806  0.8667  0.0739 -0.6326
 1017MOL0     O37208   4.348  11.302   8.159  0.2150 -0.2568 -0.0204
 1017MOL0     C37209   4.503  11.340   8.383  0.6663 -0.2441 -0.0640
 1017MOL0     C37210   4.568  11.372   8.495 -0.5180 -0.1122  0.4096
 1017MOL0     N37211   5.148  10.985   8.709 -0.0038 -0.4689  0.2171
 1017MOL0     N37212   5.112  10.920   8.808 -0.2266 -0.3804 -0.9800
 1017MOL0     C37213   4.349  11.255   9.488  0.3367  1.2655  0.0438
 1017MOL0     C37214   4.238  11.170   9.463  0.9628 -0.9586  0.7836
 1017MOL0     C37215   3.989  10.817   9.285  0.5641  0.3946 -0.4902
 1017MOL0     C37216   3.993  10.686   9.224  1.3484  0.3656 -0.0529
 1017MOL0     C37217   3.886  10.596   9.230  0.6210  0.6958  0.5398
 1017MOL0     C37218   3.765  10.636   9.275 -0.7778  0.1813  0.0628
 1017MOL0     O37219   3.662  10.543   9.251  0.0403  0.9901 -0.5338
 1017MOL0     C37220   3.524  10.583   9.248 -0.8068 -1.0561  0.2055
 1017MOL0     C37221   3.471  10.569   9.391  0.0751  0.5223 -0.3825
 1017MOL0     C37222   3.493  10.433   9.450 -1.3795 -0.2669  0.2372
 1017MOL0     C37223   3.395  10.388   9.561  0.0660 -0.6676  0.8474
 1017MOL0     C37224   3.396  10.242   9.594  0.2875 -0.9596 -0.1828
 1017MOL0     C37225   3.390  10.134   9.641  0.2309 -0.4857 -0.2384
 1017MOL0     C37226   3.757  10.768   9.336 -0.6708  0.8143 -0.1447
 1017MOL0     C37227   3.866  10.864   9.344  0.3266  0.6556  0.8158
 1017MOL0     H37228   4.298  11.073   9.143  3.6845 -4.0410  0.9702
 1017MOL0     H37229   4.470  11.225   9.161 -2.2170 -1.8873 -1.2760
 1017MOL0     H37230   4.663  11.264   9.256  3.3485  0.4074 -0.5612
 1017MOL0     H37231   4.594  11.425   9.220  1.4233  1.9068  0.8144
 1017MOL0     H37232   4.741  11.519   9.394 -3.2745 -1.3849 -0.9456
 1017MOL0     H37233   4.815  11.359   9.403 -2.3332 -2.7630 -0.1293
 1017MOL0     H37234   4.829  11.569   9.174 -3.6416 -1.1384 -1.3822
 1017MOL0     H37235   4.947  11.480   9.259 -0.8249  0.5415  0.6034
 1017MOL0     H37236   4.763  11.365   9.054  1.1719 -0.6693 -1.0445
 1017MOL0     H37237   4.924  11.396   9.014 -1.8460  0.1752 -0.9253
 1017MOL0     H37238   5.028  11.233   9.139 -0.5302  1.0655  0.8419
 1017MOL0     H37239   4.890  11.217   9.247  1.3554 -3.0592  0.6677
 1017MOL0     H37240   4.758  11.090   9.095  1.1156 -3.4502 -1.6839
 1017MOL0     H37241   4.864  11.146   8.960  3.5179  3.6213  0.3480
 1017MOL0     H37242   4.920  10.960   9.197  0.4150  0.9587  0.0834
 1017MOL0     H37243   4.881  10.902   9.037 -0.8590  1.0654 -0.1194
 1017MOL0     H37244   5.117  10.865   9.069  0.9090  0.5814 -0.7762
 1017MOL0     H37245   5.135  11.024   9.132  0.6744 -1.8147  1.3263
 1017MOL0     H37246   5.139  11.231   8.923 -5.3203 -0.6885  1.2455
 1017MOL0     H37247   5.238  11.318   8.684 -0.9968  1.5012 -0.2396
 1017MOL0     H37248   5.227  11.201   8.547 -0.5240  3.2676 -1.0530
 1017MOL0     H37249   4.969  11.215   8.569 -0.9995  1.1052 -2.4651
 1017MOL0     H37250   5.063  11.337   8.483 -2.8385  2.0546  0.5100
 1017MOL0     H37251   5.082  11.461   8.703 -1.5495  1.9229  1.3250
 1017MOL0     H37252   4.949  11.344   8.760 -1.3580  1.1836  0.4841
 1017MOL0     H37253   4.929  11.535   8.515  1.7613  0.8529  0.5624
 1017MOL0     H37254   4.875  11.576   8.677 -2.9561 -0.2460 -0.2684
 1017MOL0     H37255   4.876  11.401   8.331 -0.2234 -2.3305 -3.6844
 1017MOL0     H37256   4.871  11.440   8.116  1.3479 -2.7438 -0.6989
 1017MOL0     H37257   4.784  11.293   8.055 -2.1468  0.5225 -0.5079
 1017MOL0     H37258   4.724  11.468   8.043 -4.1048  0.4756  2.6637
 1017MOL0     H37259   4.338  11.493   7.899  1.7259 -0.4136 -1.2130
 1017MOL0     H37260   4.200  11.458   7.715  0.7362 -0.5334 -1.8467
 1017MOL0     H37261   4.061  11.367   7.581 -0.8686 -2.2756 -0.2807
 1017MOL0     H37262   4.169  11.413   7.450 -0.1443  1.0835  1.4087
 1017MOL0     H37263   3.970  11.334   7.355 -0.5764  1.4625  3.3829
 1017MOL0     H37264   4.104  11.219   7.319 -0.7602  1.4931 -1.3569
 1017MOL0     H37265   3.883  11.190   7.531  0.2802 -2.4734  1.6273
 1017MOL0     H37266   4.021  11.079   7.501 -0.1748 -0.4217 -1.6191
 1017MOL0     H37267   3.792  11.171   7.325  0.2709 -0.5389 -0.2013
 1017MOL0     H37268   3.919  11.061   7.270 -1.7490 -2.2242 -0.1255
 1017MOL0     H37269   3.842  10.899   7.466 -3.6440 -0.7752  2.1460
 1017MOL0     H37270   3.723  10.928   7.342 -0.0174  0.5208 -0.3449
 1017MOL0     H37271   3.747  11.056   7.623 -1.4632  0.9630  1.9406
 1017MOL0     H37272   3.620  11.105   7.507  0.5126  0.1285  1.0326
 1017MOL0     H37273   3.647  10.851   7.658  0.2208 -1.6118 -1.1054
 1017MOL0     H37274   3.548  10.864   7.516  2.0448  0.1121 -1.1264
 1017MOL0     H37275   3.534  11.076   7.752 -2.5890  0.9659  1.2583
 1017MOL0     H37276   3.451  10.921   7.756 -0.9419 -2.6514 -2.8687
 1017MOL0     H37277   4.414  11.078   7.645 -0.4069 -0.9279  1.8725
 1017MOL0     H37278   4.542  11.129   7.824  0.4621  0.0751  1.7129
 1017MOL0     H37279   4.398  11.317   8.398 -0.1145  2.7664 -0.3845
 1017MOL0     H37280   4.523  11.392   8.591 -1.1188 -1.5789  0.4628
 1017MOL0     H37281   4.359  11.297   9.587  1.8476 -0.6899  0.7851
 1017MOL0     H37282   4.165  11.150   9.541 -1.6243 -2.0891 -1.7992
 1017MOL0     H37283   4.070  10.657   9.153  2.4186  0.4675  1.0322
 1017MOL0     H37284   3.889  10.496   9.187  1.8884  0.6792  0.6305
 1017MOL0     H37285   3.508  10.683   9.207 -0.4928 -1.4501 -0.9032
 1017MOL0     H37286   3.478  10.514   9.177 -2.1291 -0.5163  0.5028
 1017MOL0     H37287   3.364  10.584   9.379 -0.2637  1.1719  2.6963
 1017MOL0     H37288   3.520  10.637   9.461  2.0856 -1.2195  0.0046
 1017MOL0     H37289   3.597  10.417   9.480 -0.8968  2.6213  0.3571
 1017MOL0     H37290   3.469  10.368   9.365  0.4193  0.5081 -0.9034
 1017MOL0     H37291   3.293  10.418   9.537  0.3958 -1.1769 -1.4152
 1017MOL0     H37292   3.422  10.450   9.647 -0.6956  0.8177  0.0512
 1017MOL0     H37293   3.378  10.032   9.672 -0.7487 -0.4907 -0.5954
 1017MOL0     H37294   3.662  10.781   9.386  0.0182 -0.2644  1.5281
 1017MOL0     H37295   3.848  10.955   9.400 -1.2269  0.0623  1.3438
 1018MOL0     O37296   8.850   0.726   4.852 -0.1987  1.6637 -0.4927
 1018MOL0     C37297   8.853   0.770   4.739 -0.5952 -0.1213 -0.2916
 1018MOL0     O37298   8.820   0.699   4.627 -0.6909  0.3247  0.4899
 1018MOL0     C37299   8.804   0.564   4.623  0.0541 -0.2000 -0.0960
 1018MOL0     C37300   8.840   0.491   4.508 -0.7407 -0.2440  0.3540
 1018MOL0     C37301   8.803   0.361   4.491 -0.3748 -0.2420  0.2765
 1018MOL0     C37302   8.722   0.295   4.586  1.1011 -0.4761 -0.6293
 1018MOL0     O37303   8.700   0.153   4.584 -1.2811 -0.1448  0.2001
 1018MOL0     C37304   8.580   0.097   4.631 -0.1341 -0.3135 -0.5038
 1018MOL0     C37305   8.597  -0.059   4.636  0.6401 -0.4564  0.1858
 1018MOL0     C37306   8.478  -0.128   4.703 -0.0554  0.1330  0.4777
 1018MOL0     C37307   8.518  -0.254   4.770 -0.8911 -0.7682  0.7034
 1018MOL0     C37308   8.392  -0.343   4.799  0.9727 -0.4310  0.1642
 1018MOL0     C37309   8.404  -0.465   4.877 -0.0626 -0.8488 -0.4495
 1018MOL0     C37310   8.506  -0.548   4.806  0.2939 -1.2631  0.8521
 1018MOL0     C37311   8.517  -0.691   4.872 -0.0383  0.5865  0.8686
 1018MOL0     N37312   8.580  -0.789   4.784 -0.7303 -0.7851  1.0700
 1018MOL0     C37313   8.511  -0.879   4.712  0.1022  0.1904 -0.7845
 1018MOL0     C37314   8.600  -0.976   4.677 -1.0592  0.1542  0.2681
 1018MOL0     C37315   8.569  -1.076   4.573 -0.6668  0.4568 -1.5346
 1018MOL0     C37316   8.608  -1.015   4.442 -0.4329  0.0015  0.4839
 1018MOL0     C37317   8.547  -1.083   4.321  0.6226 -0.0786 -0.0534
 1018MOL0     C37318   8.568  -1.015   4.184 -0.0449  0.5596 -0.3585
 1018MOL0     O37319   8.669  -1.092   4.116 -0.5149  0.1167 -0.2734
 1018MOL0     C37320   8.643  -1.223   4.077  0.1439  0.5161 -0.2663
 1018MOL0     C37321   8.755  -1.316   4.059  1.0465 -0.6854  0.4777
 1018MOL0     C37322   8.737  -1.457   4.051 -1.1645 -0.0906  0.0113
 1018MOL0     C37323   8.857  -1.544   4.023 -0.5913 -0.2270 -0.5682
 1018MOL0     C37324   8.607  -1.504   4.029 -0.6719 -0.6478  0.9166
 1018MOL0     C37325   8.573  -1.643   3.994  1.0949 -0.3288 -0.7674
 1018MOL0     O37326   8.437  -1.668   3.976 -1.0976  0.4878  0.2156
 1018MOL0     C37327   8.393  -1.778   3.909 -0.0115 -0.1535  1.4940
 1018MOL0     C37328   8.296  -1.852   3.970  0.3832 -0.4566  0.4929
 1018MOL0     C37329   8.236  -1.960   3.911 -1.1696  0.5002  0.5667
 1018MOL0     C37330   8.286  -2.004   3.790 -0.0122  0.7450 -0.9216
 1018MOL0     O37331   8.227  -2.110   3.723  0.0209 -0.0924 -0.6250
 1018MOL0     C37332   8.119  -2.174   3.790 -0.4654 -0.7258 -0.4779
 1018MOL0     C37333   8.098  -2.301   3.707  1.0200 -0.1028 -0.6998
 1018MOL0     C37334   8.069  -2.276   3.557  0.5020  0.1905 -0.3442
 1018MOL0     C37335   7.939  -2.184   3.528  0.0554 -0.6603  0.4091
 1018MOL0     C37336   7.940  -2.127   3.382  0.8547  0.0066 -0.6502
 1018MOL0     C37337   7.974  -2.235   3.275 -0.1995  0.3672  0.2087
 1018MOL0     C37338   7.975  -2.186   3.130 -0.6671 -0.4423  0.2486
 1018MOL0     C37339   8.092  -2.099   3.099 -0.3733 -0.6800  1.0674
 1018MOL0    Cl37340   8.074  -2.050   2.917 -0.0626 -0.5115 -0.6484
 1018MOL0     C37341   8.386  -1.931   3.724  0.1548  0.5115  0.5854
 1018MOL0     C37342   8.446  -1.818   3.783  0.8267 -0.6060  0.5166
 1018MOL0     O37343   8.658  -1.722   3.965  0.6961  0.9151 -0.1075
 1018MOL0     C37344   8.502  -1.419   4.040  0.2399 -0.2852  0.1621
 1018MOL0     C37345   8.519  -1.283   4.061  0.1992 -0.2525  0.0603
 1018MOL0     N37346   8.720  -0.945   4.732 -0.4559 -0.0199 -1.2638
 1018MOL0     N37347   8.702  -0.833   4.796 -1.0031 -0.2429 -0.0311
 1018MOL0     C37348   8.680   0.367   4.701 -0.6475  0.5620  1.1934
 1018MOL0     C37349   8.722   0.498   4.710 -0.2353 -0.7275  0.0162
 1018MOL0     C37350   8.879   0.919   4.722  0.0280  0.4023 -0.1282
 1018MOL0     C37351   8.914   0.977   4.603 -1.1600 -1.0294 -0.0926
 1018MOL0     C37352   8.992   1.093   4.590  0.2457  0.6584  0.1346
 1018MOL0     C37353   8.998   1.173   4.704 -0.4444 -0.3062  0.0257
 1018MOL0     O37354   9.065   1.286   4.695  0.0389  0.0759  0.0920
 1018MOL0     C37355   9.023   1.382   4.601 -0.3602 -0.5584  0.8139
 1018MOL0     C37356   8.915   1.477   4.665 -0.5688  0.2279 -0.1851
 1018MOL0     C37357   8.870   1.598   4.580 -1.4975 -0.5720 -0.9852
 1018MOL0     C37358   8.724   1.593   4.551  0.3749  0.5122 -0.4838
 1018MOL0     C37359   8.666   1.718   4.481  0.5368  0.3254  0.9314
 1018MOL0     C37360   8.633   1.822   4.423 -0.5117  0.3438 -0.2107
 1018MOL0     C37361   8.941   1.127   4.815  0.4931  0.9112  0.1663
 1018MOL0     C37362   8.886   1.000   4.831  0.1164  0.4600  0.3579
 1018MOL0     H37363   8.900   0.552   4.441 -2.9148  0.7216 -0.8574
 1018MOL0     H37364   8.840   0.301   4.409  1.2756  0.7340  0.2594
 1018MOL0     H37365   8.547   0.134   4.729  3.0095  0.7065  0.2993
 1018MOL0     H37366   8.509   0.124   4.553 -0.1870 -1.0561 -0.7153
 1018MOL0     H37367   8.588  -0.080   4.529 -2.5932 -0.3667  0.3391
 1018MOL0     H37368   8.691  -0.091   4.683  0.3297  0.5534  1.5536
 1018MOL0     H37369   8.437  -0.066   4.783 -0.3219 -1.3254  1.5012
 1018MOL0     H37370   8.393  -0.158   4.641  0.5305 -0.2537 -0.1515
 1018MOL0     H37371   8.587  -0.308   4.704 -0.3580  1.7108 -0.9236
 1018MOL0     H37372   8.580  -0.237   4.858  0.4313  0.5105 -0.4060
 1018MOL0     H37373   8.321  -0.281   4.855  0.6278 -1.4545  0.8918
 1018MOL0     H37374   8.351  -0.368   4.701  1.6188  3.6633 -1.3606
 1018MOL0     H37375   8.452  -0.445   4.973  0.4509 -0.9115 -0.6894
 1018MOL0     H37376   8.303  -0.502   4.895 -0.6300  0.9387  0.2695
 1018MOL0     H37377   8.483  -0.550   4.699  1.0596 -0.4672  0.6576
 1018MOL0     H37378   8.607  -0.507   4.811 -0.9344  2.4935 -0.8904
 1018MOL0     H37379   8.413  -0.722   4.888 -0.5360  1.1855 -0.9599
 1018MOL0     H37380   8.572  -0.685   4.966  0.2284 -0.3396  0.7869
 1018MOL0     H37381   8.409  -0.869   4.678 -0.5121 -4.6501 -1.0923
 1018MOL0     H37382   8.633  -1.163   4.592 -0.8962  0.6716  0.4759
 1018MOL0     H37383   8.464  -1.108   4.573 -0.4271 -0.5215  0.3027
 1018MOL0     H37384   8.716  -1.030   4.430 -0.7642 -1.4599 -1.0359
 1018MOL0     H37385   8.584  -0.908   4.447 -3.0504 -0.5825  2.5829
 1018MOL0     H37386   8.439  -1.084   4.342  0.7291  2.1151  0.8969
 1018MOL0     H37387   8.574  -1.189   4.326 -4.7296 -1.7570 -0.5842
 1018MOL0     H37388   8.610  -0.915   4.198  1.0289  0.1011 -0.1834
 1018MOL0     H37389   8.483  -1.004   4.117  0.2383  2.3301 -0.4731
 1018MOL0     H37390   8.858  -1.282   4.068  0.3293  1.4763  1.1833
 1018MOL0     H37391   8.844  -1.600   3.930 -3.2129  1.9236 -1.6456
 1018MOL0     H37392   8.947  -1.483   4.033 -1.5081  0.9031  1.4874
 1018MOL0     H37393   8.864  -1.613   4.107  2.3710  0.5650 -0.0604
 1018MOL0     H37394   8.270  -1.815   4.069  4.5132 -2.4981  2.6209
 1018MOL0     H37395   8.156  -1.999   3.972 -0.8877  0.1026  0.6899
 1018MOL0     H37396   8.157  -2.207   3.887 -1.1908 -1.6969 -0.5107
 1018MOL0     H37397   8.028  -2.115   3.801 -1.1660 -2.0915  1.8056
 1018MOL0     H37398   8.192  -2.355   3.720  1.2423  0.7467  1.7845
 1018MOL0     H37399   8.020  -2.361   3.754  1.5048  0.1712  0.4970
 1018MOL0     H37400   8.063  -2.374   3.507  4.3861 -1.4905  1.9894
 1018MOL0     H37401   8.158  -2.226   3.517  0.9592 -0.6490 -0.4015
 1018MOL0     H37402   7.847  -2.240   3.549 -1.3396  1.8844  1.4936
 1018MOL0     H37403   7.951  -2.102   3.599  0.9180 -0.3395 -0.0969
 1018MOL0     H37404   8.016  -2.047   3.387  0.4124  0.3703  2.3806
 1018MOL0     H37405   7.848  -2.070   3.368  1.5149  0.8542 -1.6553
 1018MOL0     H37406   8.071  -2.282   3.296 -1.2658 -3.9965 -3.2283
 1018MOL0     H37407   7.907  -2.321   3.281 -0.2161  0.4649  1.8755
 1018MOL0     H37408   7.881  -2.132   3.114  0.3745  1.3899 -0.0249
 1018MOL0     H37409   7.985  -2.273   3.065 -1.0832 -2.6299  2.9457
 1018MOL0     H37410   8.187  -2.153   3.100  0.3374  0.3598 -1.8363
 1018MOL0     H37411   8.090  -2.009   3.160  0.8604  1.6624 -2.0367
 1018MOL0     H37412   8.401  -1.964   3.621 -2.5839 -2.4090  0.9621
 1018MOL0     H37413   8.524  -1.762   3.732  0.0220 -0.3785 -0.4925
 1018MOL0     H37414   8.400  -1.456   4.037  0.1788 -0.8359  3.9778
 1018MOL0     H37415   8.429  -1.224   4.069  0.0741 -0.3126 -0.8577
 1018MOL0     H37416   8.608   0.324   4.770 -1.0769 -1.6587 -0.5055
 1018MOL0     H37417   8.690   0.561   4.792  0.2439 -1.0103  0.4280
 1018MOL0     H37418   8.881   0.926   4.513  1.4808 -4.1607  0.4988
 1018MOL0     H37419   9.021   1.133   4.493  0.1772  2.8402  0.9403
 1018MOL0     H37420   9.105   1.448   4.571 -0.3871 -2.2836 -3.9465
 1018MOL0     H37421   8.981   1.337   4.510  2.5535 -0.3178 -0.7662
 1018MOL0     H37422   8.951   1.514   4.761 -1.2003  1.3994 -0.3831
 1018MOL0     H37423   8.833   1.405   4.671 -1.6147  1.1448 -2.4237
 1018MOL0     H37424   8.918   1.584   4.483  0.5433 -2.3049  0.1989
 1018MOL0     H37425   8.901   1.693   4.626 -2.1527 -0.2264 -1.2429
 1018MOL0     H37426   8.665   1.576   4.641 -2.6116  0.5040 -2.3066
 1018MOL0     H37427   8.702   1.510   4.483 -1.0895  0.9862 -0.6188
 1018MOL0     H37428   8.593   1.909   4.374 -2.0840 -0.7444 -0.9337
 1018MOL0     H37429   8.936   1.188   4.905 -0.7448 -0.6315  1.1977
 1018MOL0     H37430   8.849   0.963   4.926 -1.5760  0.2620 -0.3306
 1019MOL0     O37431   6.441   2.571   3.596  0.6827 -0.5678  0.3330
 1019MOL0     C37432   6.487   2.670   3.536 -0.5358 -0.5260  0.0073
 1019MOL0     O37433   6.429   2.736   3.426 -0.0760  0.4131  0.5650
 1019MOL0     C37434   6.301   2.701   3.401  0.6379 -0.1329 -0.4955
 1019MOL0     C37435   6.194   2.694   3.493  0.0824  0.4502 -0.9162
 1019MOL0     C37436   6.066   2.655   3.460 -0.0532 -0.4154  0.0231
 1019MOL0     C37437   6.043   2.607   3.327  0.6722 -0.5725  0.1669
 1019MOL0     O37438   5.911   2.576   3.294  0.5268  0.6887  0.3807
 1019MOL0     C37439   5.896   2.472   3.186 -0.2345 -0.3101 -0.1530
 1019MOL0     C37440   5.747   2.425   3.187  0.4483  0.1495 -0.4623
 1019MOL0     C37441   5.661   2.543   3.146  0.0274  0.3390 -0.4006
 1019MOL0     C37442   5.516   2.492   3.140 -0.0608  0.1776 -0.0597
 1019MOL0     C37443   5.411   2.602   3.110  0.2022  0.0385 -0.2009
 1019MOL0     C37444   5.270   2.544   3.080 -0.2601  0.0391  1.2119
 1019MOL0     C37445   5.145   2.620   3.132 -0.2586  0.6074  0.3812
 1019MOL0     C37446   5.068   2.700   3.018  0.3238  0.7894  0.0856
 1019MOL0     N37447   5.119   2.836   2.992 -0.7080  0.5935 -0.7861
 1019MOL0     C37448   5.147   2.930   3.094  1.0395 -0.5295  0.2171
 1019MOL0     C37449   5.176   3.044   3.031 -0.1719  0.2090  0.0486
 1019MOL0     C37450   5.189   3.188   3.071  0.8883  0.0415 -0.6785
 1019MOL0     C37451   5.111   3.266   2.973  0.1676  0.8729 -0.3345
 1019MOL0     C37452   5.120   3.406   3.022  0.3520  0.2784  0.1229
 1019MOL0     C37453   5.045   3.497   2.928 -0.0783 -0.9646 -0.2192
 1019MOL0     O37454   5.078   3.633   2.949 -0.5110 -0.4964  0.1056
 1019MOL0     C37455   4.991   3.733   2.903 -0.3447  0.3451  0.0215
 1019MOL0     C37456   4.998   3.858   2.962  0.1632 -0.1972 -0.4730
 1019MOL0     C37457   4.922   3.969   2.926  1.0103 -0.1080  0.2867
 1019MOL0     C37458   4.946   4.103   3.010  0.7339  0.4951 -0.3193
 1019MOL0     C37459   4.809   3.939   2.842 -0.7861  0.0715 -0.3248
 1019MOL0     C37460   4.699   4.033   2.800  0.4009 -1.3072 -0.4032
 1019MOL0     O37461   4.619   4.000   2.690 -0.1144 -0.4050  0.2118
 1019MOL0     C37462   4.538   4.096   2.642  0.0584 -0.7750  0.0240
 1019MOL0     C37463   4.419   4.147   2.706 -0.9297  0.5444  0.2998
 1019MOL0     C37464   4.340   4.241   2.650 -0.2747 -0.5584 -0.2095
 1019MOL0     C37465   4.381   4.288   2.520  1.2424  0.1219  0.5395
 1019MOL0     O37466   4.289   4.377   2.462  0.2894 -0.4174  0.4153
 1019MOL0     C37467   4.330   4.457   2.352 -0.6250  0.0375 -0.4451
 1019MOL0     C37468   4.224   4.575   2.342  0.3629  0.3130 -1.1922
 1019MOL0     C37469   4.281   4.706   2.283  0.6958  0.2056  0.7706
 1019MOL0     C37470   4.291   4.676   2.129 -1.3622  0.7492  0.2886
 1019MOL0     C37471   4.341   4.804   2.066  0.2447  0.1710 -0.3757
 1019MOL0     C37472   4.354   4.775   1.914  0.7682 -0.1767  0.1263
 1019MOL0     C37473   4.427   4.887   1.840 -0.4353  0.3729  0.3468
 1019MOL0     C37474   4.559   4.930   1.910 -0.3423 -0.5399  0.1219
 1019MOL0    Cl37475   4.670   4.796   1.959  0.9916 -0.5439  0.2813
 1019MOL0     C37476   4.505   4.245   2.456 -0.0280  0.4421  0.0469
 1019MOL0     C37477   4.581   4.160   2.525  0.2143  0.9332 -0.8308
 1019MOL0     O37478   4.683   4.137   2.870 -0.2388  0.0418  1.3373
 1019MOL0     C37479   4.815   3.817   2.761  0.2635 -0.0475 -0.3528
 1019MOL0     C37480   4.900   3.709   2.801  0.0342 -0.5643  0.7649
 1019MOL0     N37481   5.162   3.025   2.890 -1.0468 -0.5784 -0.5502
 1019MOL0     N37482   5.130   2.902   2.870  0.7648  0.1896 -0.6302
 1019MOL0     C37483   6.150   2.622   3.228  0.5224 -0.7888  0.3375
 1019MOL0     C37484   6.268   2.678   3.264 -0.3892  0.8708  0.1265
 1019MOL0     C37485   6.629   2.703   3.583  0.0485 -0.8538 -0.6787
 1019MOL0     C37486   6.685   2.819   3.527  1.1809 -0.4521 -0.0689
 1019MOL0     C37487   6.812   2.855   3.565  0.7137 -0.7584 -0.6392
 1019MOL0     C37488   6.891   2.785   3.657  0.3788 -0.5465  0.4774
 1019MOL0     O37489   7.014   2.825   3.686  0.0553 -0.2696  0.0828
 1019MOL0     C37490   7.104   2.717   3.692  0.1380 -0.7323  0.2497
 1019MOL0     C37491   7.201   2.721   3.564  0.9215 -0.0172  0.5087
 1019MOL0     C37492   7.182   2.626   3.443  0.4522 -0.0396 -1.0174
 1019MOL0     C37493   7.046   2.632   3.376  0.1920  0.5015  0.2830
 1019MOL0     C37494   7.034   2.755   3.289  0.1310 -0.2569 -0.4532
 1019MOL0     C37495   7.021   2.860   3.218 -0.0244 -0.2169 -0.2531
 1019MOL0     C37496   6.824   2.676   3.723 -0.6444 -1.0316 -0.7731
 1019MOL0     C37497   6.703   2.631   3.670 -0.2332 -0.3708  0.1180
 1019MOL0     H37498   6.218   2.729   3.593  1.0908  0.6991 -1.2374
 1019MOL0     H37499   5.987   2.657   3.534  0.0817 -2.8260  0.3197
 1019MOL0     H37500   5.910   2.510   3.085 -1.6848  0.5486 -0.0630
 1019MOL0     H37501   5.962   2.390   3.215  1.8643  0.5676 -2.1046
 1019MOL0     H37502   5.735   2.346   3.112 -0.1240 -0.7128  0.5122
 1019MOL0     H37503   5.707   2.400   3.286 -1.1869 -3.2955 -1.8117
 1019MOL0     H37504   5.686   2.627   3.210  5.0047 -1.1736  0.0880
 1019MOL0     H37505   5.686   2.569   3.043 -2.2996 -4.0251 -2.3481
 1019MOL0     H37506   5.513   2.413   3.064 -0.4236  1.7704 -1.7448
 1019MOL0     H37507   5.503   2.453   3.242  0.7765  0.4506  0.1652
 1019MOL0     H37508   5.409   2.671   3.194  0.3770 -0.5615  0.2986
 1019MOL0     H37509   5.444   2.665   3.027  2.9173 -0.4472  0.4334
 1019MOL0     H37510   5.268   2.527   2.972  0.3203 -0.5518  1.2869
 1019MOL0     H37511   5.251   2.443   3.117  2.1508 -1.7902 -2.0629
 1019MOL0     H37512   5.070   2.553   3.174 -1.9821  0.1586 -3.0721
 1019MOL0     H37513   5.174   2.683   3.216  0.2095 -0.1716  0.8139
 1019MOL0     H37514   4.965   2.705   3.053  0.2685 -2.4235  0.6898
 1019MOL0     H37515   5.063   2.651   2.920  3.5915 -1.1514  0.7412
 1019MOL0     H37516   5.158   2.898   3.196  0.2471 -1.8462 -0.0848
 1019MOL0     H37517   5.140   3.200   3.168  0.3215  2.0188 -1.1706
 1019MOL0     H37518   5.294   3.212   3.089  0.5932 -0.9301  3.2473
 1019MOL0     H37519   5.004   3.245   2.977 -0.2934  3.1642  0.7051
 1019MOL0     H37520   5.155   3.262   2.873 -1.9759 -1.6462 -1.2840
 1019MOL0     H37521   5.223   3.442   3.032  0.1052  0.7033  1.2912
 1019MOL0     H37522   5.080   3.411   3.123  4.9067  2.5770  2.1029
 1019MOL0     H37523   4.937   3.486   2.939 -0.4531  1.6404 -0.5812
 1019MOL0     H37524   5.071   3.477   2.824 -1.8732 -0.4187 -0.8045
 1019MOL0     H37525   5.071   3.872   3.041  0.0166  0.8082 -0.5132
 1019MOL0     H37526   4.980   4.186   2.946 -5.4748  2.9762 -1.1485
 1019MOL0     H37527   4.856   4.136   3.064  1.0844  1.9665 -0.5749
 1019MOL0     H37528   5.022   4.104   3.088 -0.9742  1.0700  1.4475
 1019MOL0     H37529   4.388   4.087   2.791 -1.9852 -0.9948 -1.1156
 1019MOL0     H37530   4.256   4.273   2.711  0.2695  1.3661 -0.3999
 1019MOL0     H37531   4.426   4.502   2.379 -1.7869  0.1550  4.6014
 1019MOL0     H37532   4.328   4.407   2.255 -0.4865 -0.6073 -0.1214
 1019MOL0     H37533   4.130   4.537   2.302 -0.4805 -2.1558  2.5853
 1019MOL0     H37534   4.198   4.605   2.444  1.6184 -3.7197  0.5104
 1019MOL0     H37535   4.375   4.729   2.336 -1.0110  4.2074  2.4942
 1019MOL0     H37536   4.206   4.784   2.299 -1.2095 -1.5554  0.8795
 1019MOL0     H37537   4.355   4.592   2.103 -4.1358 -2.6763  3.2983
 1019MOL0     H37538   4.191   4.667   2.086 -2.0372  0.2189  1.8842
 1019MOL0     H37539   4.438   4.830   2.110  1.2966  0.4213 -2.7389
 1019MOL0     H37540   4.271   4.884   2.091  3.3226  2.0444  3.3103
 1019MOL0     H37541   4.412   4.685   1.893 -0.1563 -0.7798  0.1047
 1019MOL0     H37542   4.253   4.755   1.877  1.0860 -2.8602  0.4587
 1019MOL0     H37543   4.364   4.975   1.829 -2.6796 -1.0607  1.0000
 1019MOL0     H37544   4.443   4.852   1.738 -1.7000 -1.4563  0.7229
 1019MOL0     H37545   4.527   4.982   2.001  2.0259  0.3827  0.4913
 1019MOL0     H37546   4.602   5.006   1.845 -3.3910  1.2385  0.0084
 1019MOL0     H37547   4.543   4.278   2.360  0.0910 -2.0658 -0.8409
 1019MOL0     H37548   4.680   4.134   2.487  0.7011 -0.8312  1.4134
 1019MOL0     H37549   4.765   3.795   2.667  1.3549 -2.8479 -0.3763
 1019MOL0     H37550   4.895   3.619   2.741  2.7281  1.9615 -3.8443
 1019MOL0     H37551   6.139   2.592   3.124 -0.4218 -3.1570  1.0647
 1019MOL0     H37552   6.345   2.685   3.189  2.0770  1.2481  2.5200
 1019MOL0     H37553   6.639   2.890   3.460  0.8656  1.6973  2.2712
 1019MOL0     H37554   6.861   2.938   3.517  0.5886 -0.4538 -0.2498
 1019MOL0     H37555   7.158   2.744   3.783 -1.4606 -0.4094  1.1231
 1019MOL0     H37556   7.071   2.613   3.701  1.3851 -1.4230 -2.2584
 1019MOL0     H37557   7.303   2.704   3.601  2.4660  0.4114 -3.1117
 1019MOL0     H37558   7.209   2.823   3.526  2.1037  1.2609  3.8262
 1019MOL0     H37559   7.205   2.525   3.479  0.1392  0.1947 -0.1287
 1019MOL0     H37560   7.245   2.650   3.357 -1.6970  0.5252 -2.5121
 1019MOL0     H37561   6.964   2.623   3.448 -0.2254  0.8921 -0.1320
 1019MOL0     H37562   7.037   2.546   3.309  1.4338  1.2922 -0.9579
 1019MOL0     H37563   7.019   2.945   3.153 -0.6577 -1.5914 -2.1363
 1019MOL0     H37564   6.874   2.634   3.810 -0.5533  0.3454 -0.1324
 1019MOL0     H37565   6.652   2.539   3.698 -1.6600  0.7788  1.5307
 1020MOL0     O37566   4.848   2.481   2.134  0.1020  1.1909 -0.6235
 1020MOL0     C37567   4.751   2.429   2.081  0.0218  0.0471 -0.2544
 1020MOL0     O37568   4.723   2.432   1.947  0.3573  0.4512 -0.5906
 1020MOL0     C37569   4.780   2.506   1.853  0.3293 -0.3937  0.5177
 1020MOL0     C37570   4.751   2.484   1.724 -0.8479  0.1631 -0.2844
 1020MOL0     C37571   4.804   2.564   1.619  0.4149  0.1050 -0.1984
 1020MOL0     C37572   4.882   2.678   1.642  0.4634  0.5667 -0.7940
 1020MOL0     O37573   4.912   2.768   1.542  0.1631  0.2887  0.3628
 1020MOL0     C37574   5.033   2.731   1.474  0.5043  0.4662  0.2998
 1020MOL0     C37575   5.132   2.848   1.484  0.8698  1.1513 -0.2969
 1020MOL0     C37576   5.191   2.867   1.619  0.5618 -0.6999 -1.2036
 1020MOL0     C37577   5.325   2.931   1.607  0.3278  0.4842 -0.1806
 1020MOL0     C37578   5.328   3.063   1.537 -0.9202 -0.3733 -0.3884
 1020MOL0     C37579   5.451   3.156   1.576 -0.0651  0.7280 -0.0721
 1020MOL0     C37580   5.469   3.179   1.725  0.0057 -0.1475  0.2562
 1020MOL0     C37581   5.343   3.237   1.789 -0.5365 -0.1309 -0.4272
 1020MOL0     N37582   5.362   3.250   1.935  0.0642 -0.2538 -0.7027
 1020MOL0     C37583   5.269   3.223   2.043  0.0577 -0.0322 -0.5374
 1020MOL0     C37584   5.315   3.279   2.156 -0.4478  0.2308 -0.4927
 1020MOL0     C37585   5.241   3.267   2.282 -1.0624 -0.8112 -0.5183
 1020MOL0     C37586   5.304   3.157   2.376 -0.8729 -0.1288  0.2147
 1020MOL0     C37587   5.265   3.182   2.522  0.0553  0.0489 -0.4313
 1020MOL0     C37588   5.116   3.171   2.556 -0.3144  0.1977  1.4758
 1020MOL0     O37589   5.065   3.300   2.599 -0.6241  0.2285  0.2977
 1020MOL0     C37590   5.011   3.392   2.516 -0.1855 -0.2789  0.8837
 1020MOL0     C37591   4.888   3.359   2.452 -0.3997  0.2602  0.8387
 1020MOL0     C37592   4.828   3.456   2.370  0.6792  0.5186 -0.0463
 1020MOL0     C37593   4.681   3.421   2.326  0.3165  0.5085 -0.0376
 1020MOL0     C37594   4.895   3.575   2.340 -0.4394 -0.4912 -0.3388
 1020MOL0     C37595   4.838   3.682   2.250  0.2123  0.3256  0.0118
 1020MOL0     O37596   4.872   3.809   2.290 -1.3168 -0.7452 -0.4616
 1020MOL0     C37597   4.814   3.912   2.222 -0.2275  0.9669 -0.0234
 1020MOL0     C37598   4.899   4.014   2.171  0.1724 -0.8181 -0.2835
 1020MOL0     C37599   4.843   4.132   2.117  0.4964  0.7501  0.0330
 1020MOL0     C37600   4.702   4.156   2.108  0.1336 -0.9647 -0.3206
 1020MOL0     O37601   4.637   4.277   2.078 -0.2227 -0.6402  0.2982
 1020MOL0     C37602   4.724   4.390   2.075 -0.2648  0.5391 -1.3910
 1020MOL0     C37603   4.802   4.428   2.207 -0.2870  0.6511 -0.3933
 1020MOL0     C37604   4.784   4.567   2.264  0.3033 -0.0327 -0.2744
 1020MOL0     C37605   4.848   4.589   2.397 -0.0187  0.7705 -0.3598
 1020MOL0     C37606   4.761   4.512   2.508 -0.7979 -0.1796 -0.1870
 1020MOL0     C37607   4.792   4.551   2.648  0.6170  0.2619 -0.0402
 1020MOL0     C37608   4.771   4.425   2.731 -0.4102  0.5385  0.5093
 1020MOL0     C37609   4.755   4.461   2.879 -0.6368  0.1211  0.5302
 1020MOL0    Cl37610   4.908   4.532   2.956  0.0562 -0.2780 -0.3050
 1020MOL0     C37611   4.615   4.050   2.161 -0.2085  1.0778  1.1486
 1020MOL0     C37612   4.675   3.931   2.221  0.2986  0.0348  0.6246
 1020MOL0     O37613   4.769   3.653   2.151 -0.4649 -0.2327  0.4883
 1020MOL0     C37614   5.011   3.602   2.401  0.7773 -0.6769 -0.0091
 1020MOL0     C37615   5.069   3.517   2.491 -0.1233 -0.5914 -0.2846
 1020MOL0     N37616   5.446   3.326   2.127  0.3983  0.5831 -0.1129
 1020MOL0     N37617   5.457   3.321   1.996 -0.4247  0.5903 -0.1619
 1020MOL0     C37618   4.910   2.709   1.772  0.0137 -0.1830  0.7265
 1020MOL0     C37619   4.864   2.618   1.873 -0.3463  0.1276 -0.4704
 1020MOL0     C37620   4.667   2.359   2.176  0.2157  0.8156  0.2716
 1020MOL0     C37621   4.557   2.280   2.120  0.4289 -1.1459  0.3590
 1020MOL0     C37622   4.483   2.195   2.207 -0.4653  0.5556 -0.1926
 1020MOL0     C37623   4.514   2.187   2.344 -0.7501  0.1948  0.8026
 1020MOL0     O37624   4.431   2.113   2.423  0.0479  0.1633 -0.7542
 1020MOL0     C37625   4.478   2.064   2.548 -0.4471 -0.7968 -0.6244
 1020MOL0     C37626   4.418   1.928   2.576 -0.9109  1.1942  0.0620
 1020MOL0     C37627   4.442   1.900   2.736  0.6139 -0.3797  0.1262
 1020MOL0     C37628   4.348   1.777   2.784 -0.0479  0.1204  0.3276
 1020MOL0     C37629   4.400   1.652   2.722  0.4403  0.0303 -0.8371
 1020MOL0     C37630   4.448   1.548   2.676 -0.3082 -0.2652  0.3289
 1020MOL0     C37631   4.623   2.259   2.394 -0.8734  0.0332  0.7175
 1020MOL0     C37632   4.695   2.351   2.311  0.0909 -0.4289 -0.7721
 1020MOL0     H37633   4.686   2.401   1.696 -1.0066  0.5247 -1.0085
 1020MOL0     H37634   4.780   2.521   1.522  0.6028 -2.3568  0.7819
 1020MOL0     H37635   5.077   2.643   1.522 -0.6964  0.4631  1.4594
 1020MOL0     H37636   5.016   2.718   1.367 -0.4285  1.0230  0.3650
 1020MOL0     H37637   5.207   2.832   1.406 -0.4504 -0.1316 -1.3556
 1020MOL0     H37638   5.079   2.941   1.464  0.6826  1.2150  0.4816
 1020MOL0     H37639   5.119   2.928   1.675  1.1974 -1.5954  0.6845
 1020MOL0     H37640   5.209   2.771   1.668 -0.3178  1.0340  2.9207
 1020MOL0     H37641   5.357   2.946   1.710  0.5182 -1.8558  0.1480
 1020MOL0     H37642   5.396   2.866   1.555 -3.3493 -1.0599 -3.7971
 1020MOL0     H37643   5.332   3.046   1.429  1.5732  1.4681 -0.6618
 1020MOL0     H37644   5.232   3.114   1.547  0.6960  3.1255 -1.3265
 1020MOL0     H37645   5.539   3.113   1.526 -0.7850 -0.0554 -0.7122
 1020MOL0     H37646   5.446   3.254   1.528  1.3637  0.5742 -0.5939
 1020MOL0     H37647   5.501   3.097   1.790  0.0689  0.3298  0.8332
 1020MOL0     H37648   5.535   3.266   1.733 -0.7323  0.3201  1.5606
 1020MOL0     H37649   5.258   3.170   1.771  0.8545 -1.7478 -1.2496
 1020MOL0     H37650   5.305   3.332   1.752 -1.6746 -0.5846 -0.4714
 1020MOL0     H37651   5.172   3.173   2.043  0.2952 -0.5040 -1.1877
 1020MOL0     H37652   5.258   3.364   2.329  2.1756 -0.2832 -2.4583
 1020MOL0     H37653   5.134   3.247   2.277 -1.2539 -0.3624  1.2019
 1020MOL0     H37654   5.413   3.169   2.373 -0.8983  0.3154  0.8173
 1020MOL0     H37655   5.278   3.054   2.349 -3.1251  1.0222 -2.5434
 1020MOL0     H37656   5.313   3.274   2.557 -1.1757  1.1978 -1.6674
 1020MOL0     H37657   5.311   3.101   2.580  1.9280  0.4742 -1.2777
 1020MOL0     H37658   5.099   3.094   2.631 -0.8644 -2.4495 -1.1810
 1020MOL0     H37659   5.060   3.134   2.469 -2.4277  1.2254  2.3132
 1020MOL0     H37660   4.847   3.261   2.473 -1.3560  0.1535 -1.2900
 1020MOL0     H37661   4.643   3.335   2.381  0.6536  1.1301  1.2256
 1020MOL0     H37662   4.617   3.508   2.345 -3.0966 -1.6270 -0.9293
 1020MOL0     H37663   4.673   3.407   2.218  3.0334 -0.1550 -0.2078
 1020MOL0     H37664   5.006   4.001   2.168  0.2551 -0.5246  0.7849
 1020MOL0     H37665   4.917   4.190   2.063  0.3567 -1.1102 -2.2954
 1020MOL0     H37666   4.797   4.388   1.994  5.2443  2.5926  2.8698
 1020MOL0     H37667   4.654   4.471   2.049 -1.4171 -0.9702 -3.3012
 1020MOL0     H37668   4.774   4.359   2.287  0.0283  0.1865 -0.6765
 1020MOL0     H37669   4.909   4.410   2.188 -0.1628  2.0596 -1.2494
 1020MOL0     H37670   4.675   4.583   2.266  0.1958 -0.8126  1.6698
 1020MOL0     H37671   4.824   4.635   2.188  0.6115  0.1700  0.0674
 1020MOL0     H37672   4.948   4.546   2.405 -1.7036 -3.6622  0.0766
 1020MOL0     H37673   4.856   4.696   2.420  0.2750  0.6771 -0.0140
 1020MOL0     H37674   4.777   4.405   2.491  0.9957 -0.2635  1.7000
 1020MOL0     H37675   4.656   4.535   2.488 -0.7372 -0.6426 -1.1260
 1020MOL0     H37676   4.894   4.590   2.655 -0.0322  1.8856  0.8460
 1020MOL0     H37677   4.728   4.633   2.679  1.4887  1.3099 -0.9091
 1020MOL0     H37678   4.865   4.370   2.737  0.5303  1.6214 -2.6538
 1020MOL0     H37679   4.683   4.367   2.702  0.9874 -1.5615  0.2913
 1020MOL0     H37680   4.744   4.365   2.931 -3.0941 -2.4578 -4.1110
 1020MOL0     H37681   4.670   4.525   2.903  0.4372  1.5050  0.7470
 1020MOL0     H37682   4.510   4.079   2.163 -0.8265 -0.8403 -0.2298
 1020MOL0     H37683   4.610   3.850   2.252 -1.2622  0.1921 -1.9130
 1020MOL0     H37684   5.067   3.694   2.392  1.1893 -0.8038  1.1514
 1020MOL0     H37685   5.163   3.535   2.543 -1.6885  1.3441  2.0832
 1020MOL0     H37686   4.966   2.800   1.786 -1.0451  0.3819  1.4136
 1020MOL0     H37687   4.895   2.639   1.975 -3.8041 -0.4769  0.8501
 1020MOL0     H37688   4.528   2.300   2.017  1.7424 -0.0855  0.1615
 1020MOL0     H37689   4.397   2.146   2.162 -0.8276  0.8964  0.1204
 1020MOL0     H37690   4.586   2.047   2.543 -0.4220 -1.3806  1.0774
 1020MOL0     H37691   4.450   2.126   2.634  0.3239 -1.8036  0.3914
 1020MOL0     H37692   4.472   1.851   2.521  0.1704  0.6149  1.8420
 1020MOL0     H37693   4.313   1.915   2.549 -1.0280 -0.0810  1.0290
 1020MOL0     H37694   4.420   1.989   2.797 -0.7011  0.0807 -0.9657
 1020MOL0     H37695   4.548   1.889   2.761  0.7804  1.5796  0.4564
 1020MOL0     H37696   4.252   1.775   2.731  0.3829 -4.1230 -0.6254
 1020MOL0     H37697   4.316   1.768   2.888 -2.1116  2.6287  0.0467
 1020MOL0     H37698   4.486   1.455   2.640 -2.0588  0.2402 -3.2745
 1020MOL0     H37699   4.654   2.253   2.497  0.2560 -1.0255  0.3307
 1020MOL0     H37700   4.762   2.420   2.360 -1.5325  1.6072 -1.2645
 1021MOL0     O37701   9.319   8.907   0.896  0.2641 -0.6419  0.1014
 1021MOL0     C37702   9.289   9.008   0.967  0.1412 -0.3750  0.7818
 1021MOL0     O37703   9.287   9.136   0.939 -0.5225 -1.1215 -0.5706
 1021MOL0     C37704   9.280   9.192   0.812 -0.2395  0.0894 -0.0053
 1021MOL0     C37705   9.298   9.330   0.808 -0.5070 -0.0473  0.2878
 1021MOL0     C37706   9.300   9.386   0.680 -0.1963  0.5398 -0.0832
 1021MOL0     C37707   9.278   9.315   0.564 -0.1573  0.5308 -0.1941
 1021MOL0     O37708   9.288   9.376   0.449 -0.4060  0.4485  0.7683
 1021MOL0     C37709   9.283   9.295   0.328 -0.7127 -0.3989  0.8218
 1021MOL0     C37710   9.287   9.381   0.204  0.6948  0.6513  0.0309
 1021MOL0     C37711   9.243   9.289   0.090  0.3344 -0.3013 -0.2934
 1021MOL0     C37712   9.314   9.158   0.078  0.4367 -1.0445 -0.4350
 1021MOL0     C37713   9.246   9.051  -0.013  0.9469  0.7611 -0.5013
 1021MOL0     C37714   9.111   9.002   0.046  0.3125 -0.2486 -0.5855
 1021MOL0     C37715   9.123   8.946   0.193 -0.0888  0.4026 -0.3354
 1021MOL0     C37716   9.022   8.842   0.231  0.0949 -1.3703  0.4337
 1021MOL0     N37717   9.077   8.778   0.356  0.2130  0.5425  1.1048
 1021MOL0     C37718   9.176   8.684   0.370  0.0819  0.1165 -0.8839
 1021MOL0     C37719   9.165   8.644   0.500 -0.4212  0.4371 -0.6208
 1021MOL0     C37720   9.241   8.556   0.592  0.9754 -0.2393 -1.1828
 1021MOL0     C37721   9.372   8.606   0.633  0.1802  0.9198  0.6875
 1021MOL0     C37722   9.431   8.514   0.744 -0.1649 -1.0298  0.2182
 1021MOL0     C37723   9.557   8.584   0.809  0.0414 -0.4242 -0.1423
 1021MOL0     O37724   9.634   8.683   0.732 -0.6693 -0.3082 -0.1084
 1021MOL0     C37725   9.734   8.647   0.639  0.1458  0.9380 -0.0490
 1021MOL0     C37726   9.768   8.511   0.621 -0.0450  0.8805 -0.4986
 1021MOL0     C37727   9.865   8.476   0.524 -0.4576  0.9507  0.8858
 1021MOL0     C37728   9.875   8.329   0.500  0.2425 -0.4393 -0.4401
 1021MOL0     C37729   9.931   8.578   0.451  0.0015  0.7806  0.0057
 1021MOL0     C37730  10.021   8.548   0.339  0.8068 -0.1389 -0.6019
 1021MOL0     O37731  10.143   8.603   0.345 -0.9439  0.1079  0.1595
 1021MOL0     C37732  10.231   8.609   0.241  0.6342  0.1224  0.5932
 1021MOL0     C37733  10.242   8.524   0.128 -0.2666  0.2962  0.1583
 1021MOL0     C37734  10.344   8.541   0.031 -0.4973  0.6500 -0.6242
 1021MOL0     C37735  10.449   8.629   0.060 -1.2855 -0.0968  0.3968
 1021MOL0     O37736  10.538   8.654  -0.048  0.1443  0.8337 -0.7419
 1021MOL0     C37737  10.669   8.676  -0.008 -0.4065 -0.5588  0.0471
 1021MOL0     C37738  10.755   8.730  -0.132  0.1588  0.1580  0.0529
 1021MOL0     C37739  10.717   8.868  -0.190 -0.1507  0.4418 -1.3083
 1021MOL0     C37740  10.794   8.893  -0.330 -0.7414 -0.0925  0.0932
 1021MOL0     C37741  10.739   8.808  -0.447 -0.1519  0.6573  0.3102
 1021MOL0     C37742  10.824   8.819  -0.573 -0.3509  0.0535 -0.7122
 1021MOL0     C37743  10.788   8.941  -0.662  0.2082 -0.2250  0.2166
 1021MOL0     C37744  10.756   8.914  -0.807  0.1632  1.4911 -0.0219
 1021MOL0    Cl37745  10.910   8.867  -0.891  0.0532 -0.9933  0.5526
 1021MOL0     C37746  10.449   8.701   0.176  0.1351 -0.8862  0.1039
 1021MOL0     C37747  10.344   8.683   0.276 -0.6190  0.5369 -0.1342
 1021MOL0     O37748   9.983   8.464   0.260 -0.2824 -0.1971  0.7669
 1021MOL0     C37749   9.897   8.715   0.473  0.1853  0.0081  0.1996
 1021MOL0     C37750   9.804   8.749   0.568  0.0680  0.0176 -0.8818
 1021MOL0     N37751   9.071   8.727   0.560  0.1427 -0.7892  0.2215
 1021MOL0     N37752   9.019   8.802   0.472 -0.0965 -0.1868 -0.7697
 1021MOL0     C37753   9.256   9.181   0.581 -0.1048 -0.4711 -0.2508
 1021MOL0     C37754   9.256   9.116   0.702  0.8940  0.5578  0.4006
 1021MOL0     C37755   9.261   8.979   1.100  0.5908 -0.5763 -0.7996
 1021MOL0     C37756   9.317   8.877   1.172 -0.3944  0.1347  0.1705
 1021MOL0     C37757   9.306   8.874   1.312  0.5259 -1.0973 -0.0006
 1021MOL0     C37758   9.213   8.951   1.387 -0.7572  0.1266 -0.1045
 1021MOL0     O37759   9.196   8.953   1.521 -0.0072 -0.6227  0.1083
 1021MOL0     C37760   9.280   8.873   1.606 -0.2187  0.2418  0.0244
 1021MOL0     C37761   9.415   8.948   1.615 -0.1516 -0.1467 -0.4472
 1021MOL0     C37762   9.517   8.852   1.665 -0.4869 -0.0578  0.3620
 1021MOL0     C37763   9.654   8.923   1.699  0.1033  0.0090 -0.7560
 1021MOL0     C37764   9.717   8.992   1.589  0.1610  0.6355 -0.4445
 1021MOL0     C37765   9.758   9.050   1.491 -0.3096  0.2732  0.3142
 1021MOL0     C37766   9.149   9.045   1.304 -0.2552 -0.2805 -0.7183
 1021MOL0     C37767   9.173   9.062   1.174  1.0650 -0.3443  0.1129
 1021MOL0     H37768   9.317   9.392   0.895 -0.8634  1.3045 -0.5662
 1021MOL0     H37769   9.301   9.492   0.659  1.3861  0.5339 -0.1566
 1021MOL0     H37770   9.368   9.228   0.343 -0.8570 -0.0258  4.0582
 1021MOL0     H37771   9.194   9.232   0.321  0.2600 -1.6610 -0.7617
 1021MOL0     H37772   9.226   9.470   0.217  1.0077  0.8055  0.4758
 1021MOL0     H37773   9.387   9.414   0.175  1.0557 -0.0070  0.5069
 1021MOL0     H37774   9.136   9.277   0.111 -0.0684  0.0639 -2.0214
 1021MOL0     H37775   9.244   9.354   0.003 -0.6480 -0.3269 -0.3350
 1021MOL0     H37776   9.414   9.190   0.046  0.0232 -0.6851 -1.4433
 1021MOL0     H37777   9.338   9.107   0.171 -0.2748 -0.8840 -0.1593
 1021MOL0     H37778   9.237   9.086  -0.116 -1.8816  1.7729  0.0187
 1021MOL0     H37779   9.307   8.960  -0.006  0.3665  0.4910  2.6008
 1021MOL0     H37780   9.031   9.077   0.038 -0.8391 -1.5956 -2.9075
 1021MOL0     H37781   9.080   8.926  -0.026 -1.1729  0.4977 -0.7726
 1021MOL0     H37782   9.225   8.908   0.199  0.2881  0.5057 -3.9429
 1021MOL0     H37783   9.104   9.024   0.267  2.6449  2.4822 -1.6493
 1021MOL0     H37784   9.007   8.754   0.168 -1.5388  0.4472 -1.8868
 1021MOL0     H37785   8.921   8.882   0.246 -1.8023 -5.4957  0.1981
 1021MOL0     H37786   9.235   8.642   0.289 -0.9282 -2.2164 -0.4803
 1021MOL0     H37787   9.174   8.530   0.675  2.4206 -0.4009 -0.0377
 1021MOL0     H37788   9.250   8.464   0.533 -2.0549  0.1606 -2.4448
 1021MOL0     H37789   9.357   8.707   0.672  0.1893  1.1549  0.1035
 1021MOL0     H37790   9.445   8.618   0.552 -0.7904  0.9577 -0.2018
 1021MOL0     H37791   9.462   8.423   0.693  1.2189  0.3791 -1.5745
 1021MOL0     H37792   9.355   8.495   0.820 -0.9323  1.0704  0.0393
 1021MOL0     H37793   9.627   8.507   0.844  0.5873 -1.5863 -3.4618
 1021MOL0     H37794   9.520   8.622   0.905  2.0820 -0.3831  0.6730
 1021MOL0     H37795   9.712   8.444   0.685 -0.2471  1.3645 -0.1675
 1021MOL0     H37796   9.976   8.298   0.469  1.7914  1.9800  1.7964
 1021MOL0     H37797   9.854   8.281   0.596  0.4138  2.1827  0.9753
 1021MOL0     H37798   9.803   8.302   0.422  0.6100 -0.6976 -0.6980
 1021MOL0     H37799  10.177   8.437   0.123  2.3906 -1.8707  0.9729
 1021MOL0     H37800  10.337   8.478  -0.057 -1.4578  0.2068 -0.2419
 1021MOL0     H37801  10.680   8.747   0.074 -3.5845 -1.1521  1.1007
 1021MOL0     H37802  10.712   8.583   0.030  0.8195 -0.1289 -0.2245
 1021MOL0     H37803  10.851   8.745  -0.081 -0.7882  0.5307  1.7566
 1021MOL0     H37804  10.762   8.654  -0.211 -0.2564 -0.8903  1.0095
 1021MOL0     H37805  10.730   8.938  -0.108  0.1912  0.2886 -1.2312
 1021MOL0     H37806  10.608   8.872  -0.206 -0.3576 -2.3323 -1.2500
 1021MOL0     H37807  10.779   8.997  -0.361  0.2927  0.5439  1.6376
 1021MOL0     H37808  10.901   8.880  -0.313 -0.2929 -0.8121 -2.6849
 1021MOL0     H37809  10.635   8.837  -0.466 -0.0805  1.0813  0.5490
 1021MOL0     H37810  10.751   8.707  -0.406 -1.3097 -0.4323 -1.9053
 1021MOL0     H37811  10.930   8.822  -0.547 -1.1343  4.5031  3.3722
 1021MOL0     H37812  10.810   8.731  -0.637 -0.7514  0.0423 -0.6153
 1021MOL0     H37813  10.855   9.026  -0.645  2.6757 -2.1748  0.7493
 1021MOL0     H37814  10.693   8.983  -0.626  1.5729  1.9929  1.4794
 1021MOL0     H37815  10.705   9.002  -0.847  0.2995  1.5157 -0.1441
 1021MOL0     H37816  10.696   8.824  -0.826 -0.9881  1.8253  1.8164
 1021MOL0     H37817  10.535   8.760   0.206 -1.4486  1.0097  1.1223
 1021MOL0     H37818  10.335   8.716   0.379 -2.0610  1.0802 -0.4082
 1021MOL0     H37819   9.938   8.788   0.404 -0.7636 -0.5140 -0.9449
 1021MOL0     H37820   9.785   8.850   0.602  0.2959 -1.2258  3.6724
 1021MOL0     H37821   9.211   9.124   0.500 -0.2632  0.3165 -0.7321
 1021MOL0     H37822   9.215   9.015   0.707 -0.4384  1.0713  0.2167
 1021MOL0     H37823   9.387   8.807   1.127 -1.4539 -1.9365  1.5450
 1021MOL0     H37824   9.355   8.798   1.372 -0.7358 -1.2855  0.8530
 1021MOL0     H37825   9.250   8.862   1.711  2.3519  1.1143  0.9450
 1021MOL0     H37826   9.301   8.773   1.567 -0.6484  0.1116  0.1206
 1021MOL0     H37827   9.413   9.015   1.702  4.6530  0.2731 -0.3886
 1021MOL0     H37828   9.443   8.996   1.521  1.9134  2.3058  1.2421
 1021MOL0     H37829   9.545   8.764   1.606 -1.7061 -2.1877  2.7837
 1021MOL0     H37830   9.471   8.808   1.753 -1.4062 -3.6721 -1.7140
 1021MOL0     H37831   9.724   8.858   1.752  1.4895  1.1671 -1.0939
 1021MOL0     H37832   9.646   9.000   1.777 -1.2357 -1.4385  0.5911
 1021MOL0     H37833   9.773   9.098   1.396 -4.0571 -0.9311 -1.0779
 1021MOL0     H37834   9.075   9.102   1.360 -1.5904 -1.5729 -1.1067
 1021MOL0     H37835   9.135   9.145   1.115  1.6807 -0.3877 -0.3495
 1022MOL0     O37836   0.013   1.067  11.079 -0.0184  0.5738 -0.2640
 1022MOL0     C37837  -0.057   1.072  10.983  0.0573 -0.8364  0.3125
 1022MOL0     O37838  -0.065   1.188  10.895  0.8604  0.3472  0.2334
 1022MOL0     C37839   0.026   1.292  10.920  0.1601 -0.0204  0.3856
 1022MOL0     C37840   0.130   1.298  10.837  0.6312  0.2170 -0.3915
 1022MOL0     C37841   0.239   1.383  10.859 -0.0812 -0.7682 -0.4057
 1022MOL0     C37842   0.229   1.479  10.957 -0.0788  0.5460 -1.0590
 1022MOL0     O37843   0.347   1.552  10.974  0.3966 -0.1484  0.2284
 1022MOL0     C37844   0.351   1.656  11.070 -0.1415 -0.1431 -0.2042
 1022MOL0     C37845   0.475   1.742  11.050 -0.2378 -0.1987 -0.4055
 1022MOL0     C37846   0.439   1.851  10.957  0.5151  0.0878  0.8704
 1022MOL0     C37847   0.540   1.953  10.975  0.2596 -0.7495  0.6040
 1022MOL0     C37848   0.506   2.094  10.915 -0.1345  0.3461 -0.9705
 1022MOL0     C37849   0.609   2.200  10.957 -0.3932 -0.4591  0.0887
 1022MOL0     C37850   0.567   2.333  10.901  0.3311  0.0385  1.0518
 1022MOL0     C37851   0.679   2.440  10.913  1.3446  0.0883  0.2857
 1022MOL0     N37852   0.632   2.565  10.852  0.2128  0.1009  0.1033
 1022MOL0     C37853   0.505   2.635  10.876 -0.2910  0.3277  0.4079
 1022MOL0     C37854   0.524   2.758  10.825  0.1400 -0.8480 -0.1128
 1022MOL0     C37855   0.432   2.865  10.859 -0.7002 -0.2922 -0.0951
 1022MOL0     C37856   0.293   2.847  10.798 -0.4305 -0.3579 -0.5003
 1022MOL0     C37857   0.296   2.913  10.665  0.1928  0.8626 -0.0970
 1022MOL0     C37858   0.216   2.832  10.564  0.0910  0.5637  0.5808
 1022MOL0     O37859   0.079   2.830  10.592  0.2371 -0.0784 -0.2862
 1022MOL0     C37860  -0.011   2.784  10.500 -0.4398 -0.3845  0.7648
 1022MOL0     C37861  -0.008   2.815  10.364 -1.2274 -0.7406 -0.0174
 1022MOL0     C37862  -0.083   2.747  10.270  0.4166 -0.2460 -0.2539
 1022MOL0     C37863  -0.045   2.751  10.129  0.1458 -0.5502  0.7479
 1022MOL0     C37864  -0.175   2.646  10.312 -0.4272  0.0852  0.7969
 1022MOL0     C37865  -0.247   2.553  10.214 -0.2989 -0.4057 -0.3324
 1022MOL0     O37866  -0.268   2.431  10.276  0.6626 -0.6398 -0.1890
 1022MOL0     C37867  -0.325   2.333  10.195 -0.8798  0.0119  0.3106
 1022MOL0     C37868  -0.440   2.269  10.236  1.1630 -0.1907 -0.4462
 1022MOL0     C37869  -0.491   2.163  10.160  0.1305 -0.2070 -0.5494
 1022MOL0     C37870  -0.426   2.119  10.042 -0.0480 -0.7332  0.2822
 1022MOL0     O37871  -0.476   2.020   9.958 -0.1689  0.2926  0.8346
 1022MOL0     C37872  -0.565   1.915   9.998 -0.6760 -0.5305 -0.3736
 1022MOL0     C37873  -0.568   1.825   9.872  0.0436  0.3260  0.2413
 1022MOL0     C37874  -0.648   1.694   9.896 -0.5449 -1.0180 -0.0127
 1022MOL0     C37875  -0.625   1.612   9.764 -0.0536  0.3370 -0.7221
 1022MOL0     C37876  -0.692   1.474   9.762  0.3339  0.3250  0.4158
 1022MOL0     C37877  -0.834   1.462   9.711 -0.4474  0.0086 -1.2290
 1022MOL0     C37878  -0.907   1.335   9.751 -0.0831 -0.0069  0.9098
 1022MOL0     C37879  -0.844   1.211   9.699  0.4207  0.5038 -1.6189
 1022MOL0    Cl37880  -0.903   1.063   9.778 -0.4442  0.3212 -0.2924
 1022MOL0     C37881  -0.306   2.183  10.011 -0.3846  0.3952  1.6383
 1022MOL0     C37882  -0.262   2.288  10.082  0.6529 -0.1379  0.2605
 1022MOL0     O37883  -0.277   2.579  10.099 -0.6224  0.1810  0.1148
 1022MOL0     C37884  -0.183   2.620  10.449 -0.4518  1.3168 -0.7249
 1022MOL0     C37885  -0.100   2.682  10.536 -0.2822 -0.2286 -0.5581
 1022MOL0     N37886   0.643   2.762  10.758  0.2024  0.7151 -0.5949
 1022MOL0     N37887   0.711   2.651  10.787 -0.0074  0.3668 -0.0031
 1022MOL0     C37888   0.117   1.481  11.041  0.3720  0.1982 -0.4746
 1022MOL0     C37889   0.021   1.382  11.032  0.4876 -0.5099  0.1435
 1022MOL0     C37890  -0.124   0.942  10.948 -0.2101 -0.2318 -1.1845
 1022MOL0     C37891  -0.072   0.814  10.980  0.0874 -0.1594  0.1883
 1022MOL0     C37892  -0.155   0.708  10.947  0.4254  0.2758 -0.5231
 1022MOL0     C37893  -0.278   0.716  10.877  0.5071 -0.7434  0.1027
 1022MOL0     O37894  -0.352   0.615  10.841 -0.3404  0.6914  0.0383
 1022MOL0     C37895  -0.368   0.607  10.699  0.2382  0.1831 -0.9087
 1022MOL0     C37896  -0.241   0.562  10.613 -0.0814  0.6266  0.2865
 1022MOL0     C37897  -0.144   0.672  10.586 -0.0776 -0.0358  0.1615
 1022MOL0     C37898  -0.027   0.633  10.498  0.1485  0.5597  0.7819
 1022MOL0     C37899   0.043   0.506  10.526 -0.0561  0.4238 -0.5618
 1022MOL0     C37900   0.082   0.408  10.578 -0.8838  0.9027  0.3443
 1022MOL0     C37901  -0.321   0.847  10.845 -0.6875 -0.1320 -0.6825
 1022MOL0     C37902  -0.253   0.955  10.895 -0.4837 -0.8869  0.7638
 1022MOL0     H37903   0.135   1.228  10.754  2.7952 -0.8136  0.5482
 1022MOL0     H37904   0.328   1.389  10.797  0.1369  1.4903  0.0407
 1022MOL0     H37905   0.259   1.715  11.070  0.3398  0.6977 -2.6826
 1022MOL0     H37906   0.369   1.600  11.163 -0.2575  0.5667  0.2540
 1022MOL0     H37907   0.481   1.782  11.152 -1.6768 -0.0321 -0.3701
 1022MOL0     H37908   0.561   1.680  11.023 -0.6018 -0.6902 -0.4664
 1022MOL0     H37909   0.416   1.813  10.857 -0.2855  0.1834  1.0100
 1022MOL0     H37910   0.342   1.884  10.994  0.3739 -2.0506  2.6628
 1022MOL0     H37911   0.569   1.969  11.079  1.8152 -0.8270  0.2076
 1022MOL0     H37912   0.629   1.928  10.916  3.6638  2.4341  3.9397
 1022MOL0     H37913   0.474   2.079  10.812  0.3519 -3.1277 -0.7199
 1022MOL0     H37914   0.424   2.130  10.979  2.6948  4.1259  0.9757
 1022MOL0     H37915   0.612   2.196  11.067  1.0681 -1.3857  0.0331
 1022MOL0     H37916   0.703   2.163  10.916 -0.4489  0.2257 -0.6847
 1022MOL0     H37917   0.539   2.325  10.796 -0.6813  0.1528  1.3048
 1022MOL0     H37918   0.484   2.373  10.961  0.1672  0.9772  0.2218
 1022MOL0     H37919   0.771   2.412  10.861  1.9261 -1.5081  2.0710
 1022MOL0     H37920   0.698   2.451  11.020 -0.4530 -2.5766  0.9787
 1022MOL0     H37921   0.424   2.595  10.936 -0.9618  3.0289  1.4114
 1022MOL0     H37922   0.414   2.870  10.967 -3.6077 -2.1382 -0.3705
 1022MOL0     H37923   0.462   2.966  10.829  0.2127 -0.6581 -0.4507
 1022MOL0     H37924   0.219   2.896  10.862  0.6137 -2.3142  2.4278
 1022MOL0     H37925   0.282   2.738  10.796  3.1003 -0.8952  1.6245
 1022MOL0     H37926   0.397   2.908  10.623  0.3861 -0.4007  0.4708
 1022MOL0     H37927   0.255   3.013  10.682 -0.1127  0.8877 -0.9353
 1022MOL0     H37928   0.247   2.727  10.563  0.2386  0.5404 -2.5448
 1022MOL0     H37929   0.236   2.866  10.462 -1.7457  1.3897  0.4467
 1022MOL0     H37930   0.058   2.893  10.328 -2.7526 -0.7442 -3.0895
 1022MOL0     H37931  -0.129   2.779  10.064 -1.2142 -3.5903  1.0228
 1022MOL0     H37932   0.052   2.797  10.109 -0.7176  2.1630  2.1912
 1022MOL0     H37933  -0.026   2.648  10.097  0.8743  0.6590 -3.4266
 1022MOL0     H37934  -0.479   2.308  10.330  1.2822  1.5160 -1.0852
 1022MOL0     H37935  -0.583   2.115  10.191 -0.0750  1.1821  1.1916
 1022MOL0     H37936  -0.504   1.865  10.074 -0.0228  1.7506  0.6875
 1022MOL0     H37937  -0.664   1.947  10.031 -1.1622  0.5412 -2.6496
 1022MOL0     H37938  -0.603   1.890   9.791  1.6713  1.9120  0.7370
 1022MOL0     H37939  -0.466   1.794   9.850  0.8056  2.2350  0.8586
 1022MOL0     H37940  -0.751   1.721   9.919 -0.7315 -0.2946 -1.5406
 1022MOL0     H37941  -0.601   1.643   9.980 -0.1281 -4.1843 -2.0019
 1022MOL0     H37942  -0.665   1.670   9.679 -0.9721 -2.3406 -2.2273
 1022MOL0     H37943  -0.519   1.599   9.741 -0.3761  1.7514 -3.5389
 1022MOL0     H37944  -0.696   1.437   9.865  1.7897 -0.2010  0.3124
 1022MOL0     H37945  -0.633   1.399   9.708 -0.9705 -0.6313  0.2679
 1022MOL0     H37946  -0.887   1.551   9.746  2.1609  1.6835 -1.2613
 1022MOL0     H37947  -0.830   1.451   9.603 -1.7965 -0.1290 -1.2800
 1022MOL0     H37948  -1.013   1.336   9.724  0.5171 -1.6188 -1.8541
 1022MOL0     H37949  -0.904   1.337   9.861 -0.1495 -0.1313  0.9137
 1022MOL0     H37950  -0.738   1.231   9.717  0.2825  1.8226 -2.1511
 1022MOL0     H37951  -0.865   1.209   9.592  1.1559 -1.6329 -1.7697
 1022MOL0     H37952  -0.243   2.154   9.927  1.2706 -0.0291  2.9832
 1022MOL0     H37953  -0.181   2.340  10.031 -0.7924 -0.7441 -2.8532
 1022MOL0     H37954  -0.252   2.540  10.474  0.2364  0.7570 -0.5882
 1022MOL0     H37955  -0.091   2.653  10.640  1.1814  0.4101 -0.4818
 1022MOL0     H37956   0.106   1.563  11.112  1.8397  1.8177 -2.0216
 1022MOL0     H37957  -0.059   1.388  11.106  2.3806 -2.5448  2.5357
 1022MOL0     H37958   0.021   0.802  11.034 -1.0445 -0.0947  2.2942
 1022MOL0     H37959  -0.133   0.605  10.969 -2.8888 -0.1729  1.3502
 1022MOL0     H37960  -0.440   0.525  10.692  2.6284 -2.2331  0.7926
 1022MOL0     H37961  -0.423   0.688  10.651 -1.4734 -0.6776 -0.4459
 1022MOL0     H37962  -0.276   0.526  10.516 -3.6037 -1.2324  2.0563
 1022MOL0     H37963  -0.190   0.478  10.661 -0.4645  1.5087  2.3676
 1022MOL0     H37964  -0.085   0.693  10.676  2.0986 -1.4048 -0.8513
 1022MOL0     H37965  -0.183   0.768  10.550 -0.7350 -0.7348 -1.0330
 1022MOL0     H37966   0.039   0.720  10.492 -0.5421  1.0248 -0.5748
 1022MOL0     H37967  -0.081   0.624  10.403 -0.6745  0.8428  1.2176
 1022MOL0     H37968   0.132   0.326  10.624  2.3194  4.2282  3.4086
 1022MOL0     H37969  -0.406   0.870  10.782 -0.1883 -1.1676 -1.7860
 1022MOL0     H37970  -0.277   1.058  10.872 -1.3885 -0.5755  2.8638
 1023MOL0     O37971   9.411   1.729   7.426  0.4039 -0.1752  0.1180
 1023MOL0     C37972   9.341   1.817   7.376 -0.2615  0.9850 -1.3282
 1023MOL0     O37973   9.395   1.916   7.298 -0.0690  0.1879 -0.2466
 1023MOL0     C37974   9.532   1.924   7.289 -0.4150 -0.0533 -0.4048
 1023MOL0     C37975   9.575   1.963   7.162  0.3601 -0.2469 -0.6539
 1023MOL0     C37976   9.711   1.981   7.147  0.0589  0.8468 -0.4587
 1023MOL0     C37977   9.805   1.974   7.251 -0.3868  0.6711 -0.0476
 1023MOL0     O37978   9.938   1.985   7.231 -0.3843  0.4096 -0.2621
 1023MOL0     C37979  10.008   2.062   7.328  0.4660 -0.1851 -0.3307
 1023MOL0     C37980  10.130   2.155   7.285  0.0507  0.5394 -0.0190
 1023MOL0     C37981  10.130   2.294   7.337 -0.2445  0.1457 -0.3471
 1023MOL0     C37982  10.165   2.307   7.490  0.3375  0.4628  0.2670
 1023MOL0     C37983  10.189   2.450   7.544  0.0608  0.7453 -0.0623
 1023MOL0     C37984  10.064   2.546   7.552 -0.5713 -0.2613  0.0454
 1023MOL0     C37985  10.103   2.693   7.588 -0.4467 -0.4019  0.2295
 1023MOL0     C37986   9.973   2.772   7.618 -0.0247  1.0229  0.2590
 1023MOL0     N37987   9.951   2.790   7.762 -0.2926 -0.1743  0.3060
 1023MOL0     C37988   9.933   2.681   7.848 -0.3195 -0.3750  1.0209
 1023MOL0     C37989   9.947   2.736   7.963 -0.3722  0.5295 -1.6397
 1023MOL0     C37990   9.953   2.675   8.100 -0.1063 -0.0658 -0.3788
 1023MOL0     C37991  10.099   2.639   8.139  0.3908  0.4304  0.1167
 1023MOL0     C37992  10.152   2.511   8.066  0.1733 -0.1559  0.0881
 1023MOL0     C37993  10.300   2.484   8.112 -0.1491  1.0439  0.6050
 1023MOL0     O37994  10.312   2.476   8.250  0.2435  0.3394 -0.1135
 1023MOL0     C37995  10.348   2.352   8.303 -0.5257 -0.5753 -0.3640
 1023MOL0     C37996  10.265   2.291   8.395 -0.7495 -0.4015 -0.0157
 1023MOL0     C37997  10.307   2.181   8.472 -0.0190  0.2985 -0.7028
 1023MOL0     C37998  10.206   2.118   8.563  0.6778  0.3693 -0.8645
 1023MOL0     C37999  10.436   2.130   8.456 -0.2308 -0.2789  0.0354
 1023MOL0     C38000  10.503   2.026   8.544 -0.2281 -0.0581 -0.1725
 1023MOL0     O38001  10.607   1.957   8.497  0.1479  0.4359 -0.0648
 1023MOL0     C38002  10.646   1.850   8.562  0.2971  0.5834 -1.3584
 1023MOL0     C38003  10.580   1.726   8.541 -0.4144  0.2776 -0.1579
 1023MOL0     C38004  10.634   1.605   8.595  0.4981 -0.2579 -0.0792
 1023MOL0     C38005  10.752   1.617   8.672  0.7212 -0.3942 -0.4672
 1023MOL0     O38006  10.797   1.492   8.714 -0.0581  0.6404 -0.3611
 1023MOL0     C38007  10.879   1.491   8.826 -0.1421  0.7804  0.0357
 1023MOL0     C38008  10.910   1.353   8.867 -0.1228 -0.7938 -0.4152
 1023MOL0     C38009  10.781   1.265   8.893  0.3808  0.6051  0.9140
 1023MOL0     C38010  10.747   1.276   9.038  0.1634  0.4924 -0.3834
 1023MOL0     C38011  10.618   1.210   9.088  0.5930  0.2806  0.1892
 1023MOL0     C38012  10.619   1.050   9.105  0.3518  0.2542  0.5158
 1023MOL0     C38013  10.711   0.992   9.212  0.6347 -0.8571 -0.1207
 1023MOL0     C38014  10.681   0.851   9.272  0.3599 -0.3515 -0.2867
 1023MOL0    Cl38015  10.541   0.839   9.382  0.1295  0.1982 -0.4456
 1023MOL0     C38016  10.816   1.743   8.691 -0.0987  0.1683 -0.4874
 1023MOL0     C38017  10.756   1.859   8.637  0.2653 -0.5870 -0.1859
 1023MOL0     O38018  10.454   2.010   8.655 -0.2271  0.4262  0.0357
 1023MOL0     C38019  10.515   2.193   8.359  0.3033 -0.2452 -0.8926
 1023MOL0     C38020  10.475   2.298   8.282 -0.3063  0.5230  0.3903
 1023MOL0     N38021   9.968   2.872   7.946  0.5615  0.2888 -1.0061
 1023MOL0     N38022   9.964   2.912   7.820 -0.2526  0.1064 -0.4146
 1023MOL0     C38023   9.755   1.935   7.373 -0.5667 -0.4279 -0.3076
 1023MOL0     C38024   9.621   1.914   7.398 -1.1515 -0.0992 -0.3533
 1023MOL0     C38025   9.192   1.808   7.392 -0.2539  0.1394 -0.3834
 1023MOL0     C38026   9.123   1.689   7.435 -0.3201 -0.3439  1.0630
 1023MOL0     C38027   8.985   1.694   7.446  0.5765  0.0920 -0.3496
 1023MOL0     C38028   8.915   1.808   7.415  0.4244 -0.1434 -0.0650
 1023MOL0     O38029   8.779   1.802   7.433 -0.1179 -0.1949 -0.7517
 1023MOL0     C38030   8.686   1.889   7.357  0.7707  0.3717  0.0368
 1023MOL0     C38031   8.544   1.869   7.408 -0.4217 -0.1459  0.3072
 1023MOL0     C38032   8.535   1.867   7.562 -0.7085  0.0722  0.0767
 1023MOL0     C38033   8.563   2.007   7.626 -0.1998  0.6182 -0.1308
 1023MOL0     C38034   8.483   2.121   7.567  0.0481 -1.0000  0.8338
 1023MOL0     C38035   8.414   2.199   7.514  0.4082  0.2004  0.1804
 1023MOL0     C38036   8.974   1.924   7.359 -0.4875 -1.1282  0.5822
 1023MOL0     C38037   9.118   1.920   7.350  0.0156 -0.7198 -0.1918
 1023MOL0     H38038   9.503   1.999   7.089 -2.1691  2.2704  2.7385
 1023MOL0     H38039   9.750   1.996   7.047  1.4673  1.0828  0.1032
 1023MOL0     H38040   9.941   2.124   7.390 -0.8453 -0.8730 -1.0269
 1023MOL0     H38041  10.049   2.001   7.409 -0.4113  0.9439  1.0285
 1023MOL0     H38042  10.224   2.103   7.306 -0.3667 -0.0170  0.5066
 1023MOL0     H38043  10.114   2.162   7.177 -2.1051 -1.6393  0.0668
 1023MOL0     H38044  10.193   2.363   7.280 -2.3892  1.0967 -1.6496
 1023MOL0     H38045  10.028   2.326   7.318  0.2972  2.3579  0.1777
 1023MOL0     H38046  10.078   2.270   7.545 -2.1928  0.5912 -3.3258
 1023MOL0     H38047  10.250   2.243   7.518  1.2162  0.9862 -1.1101
 1023MOL0     H38048  10.236   2.462   7.642 -0.0212  1.5118 -0.1087
 1023MOL0     H38049  10.259   2.493   7.471 -1.1329  1.7999 -0.6310
 1023MOL0     H38050  10.030   2.532   7.450  0.1398 -4.4324  0.1969
 1023MOL0     H38051   9.993   2.504   7.624 -1.2449  0.3455 -0.2577
 1023MOL0     H38052  10.177   2.697   7.668  0.9844  1.5014 -1.0949
 1023MOL0     H38053  10.138   2.735   7.493 -0.3859 -1.1492 -0.0871
 1023MOL0     H38054   9.888   2.721   7.572  0.0275  2.0570 -1.0503
 1023MOL0     H38055   9.977   2.866   7.564  0.1255 -0.7648 -3.0845
 1023MOL0     H38056   9.928   2.574   7.826 -3.1197  0.1375 -1.6108
 1023MOL0     H38057   9.923   2.756   8.167 -1.6993  0.4767 -1.6804
 1023MOL0     H38058   9.883   2.595   8.126  0.2810 -0.4864 -0.6031
 1023MOL0     H38059  10.101   2.618   8.246  0.6951 -1.0252 -0.1644
 1023MOL0     H38060  10.165   2.726   8.127  1.0324 -0.0614  0.0907
 1023MOL0     H38061  10.141   2.507   7.957  1.1959  2.3589 -0.1666
 1023MOL0     H38062  10.084   2.432   8.100  0.6612 -0.5575  0.1413
 1023MOL0     H38063  10.379   2.557   8.090  2.0267 -2.2955 -4.9275
 1023MOL0     H38064  10.341   2.398   8.058 -0.2220  1.0116  0.6004
 1023MOL0     H38065  10.162   2.325   8.381 -0.1519  2.0774  1.1008
 1023MOL0     H38066  10.122   2.186   8.547  1.6543  2.1326  1.0119
 1023MOL0     H38067  10.181   2.014   8.537  1.5301 -0.4287  1.2690
 1023MOL0     H38068  10.241   2.118   8.666 -0.6950  1.6026 -0.3787
 1023MOL0     H38069  10.489   1.738   8.484 -0.2197 -0.7384 -0.7131
 1023MOL0     H38070  10.583   1.511   8.578  0.5756 -0.7159  1.9512
 1023MOL0     H38071  10.973   1.539   8.796 -0.0631  0.7501  0.2317
 1023MOL0     H38072  10.827   1.547   8.905  1.0095  0.5705  0.9801
 1023MOL0     H38073  10.965   1.293   8.794  0.9787 -1.3677  0.8258
 1023MOL0     H38074  10.970   1.369   8.958  0.1485 -0.1986 -0.6927
 1023MOL0     H38075  10.811   1.161   8.878 -0.5487 -0.3222  4.4143
 1023MOL0     H38076  10.694   1.288   8.831 -0.0484 -0.3109  1.1567
 1023MOL0     H38077  10.834   1.234   9.090  0.7772 -0.1433 -1.8499
 1023MOL0     H38078  10.752   1.383   9.057  2.8720  0.3845 -0.1215
 1023MOL0     H38079  10.535   1.239   9.023 -0.0982  1.7349  1.6671
 1023MOL0     H38080  10.597   1.242   9.190 -0.2076  2.7236 -0.6801
 1023MOL0     H38081  10.519   1.030   9.145 -0.1909  0.2878 -0.7904
 1023MOL0     H38082  10.628   1.008   9.005  0.5977  0.3110  0.5132
 1023MOL0     H38083  10.708   1.062   9.297  0.7845 -0.0018 -0.8061
 1023MOL0     H38084  10.809   0.993   9.163  1.1813  4.6690  0.3686
 1023MOL0     H38085  10.766   0.813   9.329 -1.6499  0.3174  3.5329
 1023MOL0     H38086  10.674   0.785   9.185  2.1136  1.0219 -1.5337
 1023MOL0     H38087  10.910   1.758   8.743 -1.8024  3.2969  2.0842
 1023MOL0     H38088  10.799   1.956   8.658  1.3245 -1.4819  2.1901
 1023MOL0     H38089  10.617   2.156   8.353  0.6315  0.3078  0.8734
 1023MOL0     H38090  10.535   2.334   8.199  0.2598 -0.0094  0.5569
 1023MOL0     H38091   9.816   1.921   7.461 -2.1006 -0.0208  0.8674
 1023MOL0     H38092   9.571   1.910   7.494 -0.8524  0.9994 -0.1341
 1023MOL0     H38093   9.161   1.593   7.466 -2.2492 -1.1788  0.9707
 1023MOL0     H38094   8.933   1.602   7.469  1.2156 -0.3542 -0.6754
 1023MOL0     H38095   8.708   1.996   7.368 -0.6907  0.6789  0.1983
 1023MOL0     H38096   8.682   1.881   7.248 -1.1834 -2.6485  0.2336
 1023MOL0     H38097   8.506   1.773   7.375 -0.0362 -0.3939  0.5799
 1023MOL0     H38098   8.473   1.937   7.359 -1.2975  0.0482  1.7715
 1023MOL0     H38099   8.603   1.791   7.602 -1.1015  0.6797  2.0113
 1023MOL0     H38100   8.439   1.834   7.601 -1.2510 -1.1678 -2.1466
 1023MOL0     H38101   8.671   2.026   7.620  1.0170 -4.9155 -1.5898
 1023MOL0     H38102   8.549   1.988   7.733  2.3391 -0.2134  0.1307
 1023MOL0     H38103   8.361   2.279   7.466 -0.3325  1.8829  3.4600
 1023MOL0     H38104   8.908   2.004   7.326  2.3380  1.1149 -0.1395
 1023MOL0     H38105   9.168   2.009   7.312 -1.4641 -0.1075 -0.7681
 1024MOL0     O38106   4.427   0.740  10.530 -0.1242  0.3037 -0.0307
 1024MOL0     C38107   4.405   0.641  10.603  0.1223  0.2023 -0.0863
 1024MOL0     O38108   4.501   0.573  10.670 -0.6248 -1.2872 -0.1555
 1024MOL0     C38109   4.618   0.632  10.667 -0.1608  0.8936  0.0627
 1024MOL0     C38110   4.669   0.681  10.790 -0.0818  0.2830 -0.0584
 1024MOL0     C38111   4.796   0.739  10.791  0.1696  0.6333 -0.0476
 1024MOL0     C38112   4.881   0.743  10.678  0.4058  0.2285  0.1334
 1024MOL0     O38113   4.995   0.815  10.684 -0.6190  0.4904  0.2365
 1024MOL0     C38114   5.093   0.803  10.570  1.2337  0.2975 -0.3774
 1024MOL0     C38115   5.239   0.820  10.602 -0.1014  0.1418  0.5465
 1024MOL0     C38116   5.268   0.954  10.656 -0.7718  0.8053  0.5756
 1024MOL0     C38117   5.247   1.063  10.552  0.1932  0.2380  0.8033
 1024MOL0     C38118   5.302   1.193  10.605 -0.0530 -0.5823 -0.4030
 1024MOL0     C38119   5.235   1.250  10.731  0.4165  0.3480  0.0058
 1024MOL0     C38120   5.287   1.374  10.783  0.0628 -0.7911 -0.6550
 1024MOL0     C38121   5.188   1.433  10.885  0.2169  0.0618 -0.4124
 1024MOL0     N38122   5.259   1.516  10.976 -0.2174  0.2130  0.2935
 1024MOL0     C38123   5.221   1.515  11.105 -0.8770  0.0394 -0.2218
 1024MOL0     C38124   5.330   1.564  11.175  0.1480  0.2566  0.1490
 1024MOL0     C38125   5.345   1.595  11.319 -0.5686  0.3288 -0.4998
 1024MOL0     C38126   5.311   1.742  11.335 -0.2970  0.0444  0.6686
 1024MOL0     C38127   5.163   1.773  11.350 -0.3863 -0.7417 -0.2581
 1024MOL0     C38128   5.137   1.873  11.462  0.6151  0.5613 -0.6975
 1024MOL0     O38129   4.999   1.877  11.505 -0.3890  0.7239 -0.3889
 1024MOL0     C38130   4.946   1.997  11.549 -0.2390 -0.2530 -0.1591
 1024MOL0     C38131   4.890   1.997  11.687  1.1899  0.4254 -0.2750
 1024MOL0     C38132   4.820   2.104  11.730  0.2123  0.3108 -0.6604
 1024MOL0     C38133   4.764   2.097  11.869 -0.8248  0.5486  0.2627
 1024MOL0     C38134   4.799   2.213  11.642 -0.3981 -0.1503 -0.1437
 1024MOL0     C38135   4.699   2.319  11.660  0.1002  0.0511  0.9358
 1024MOL0     O38136   4.665   2.403  11.544  0.4607 -0.1823  0.8589
 1024MOL0     C38137   4.581   2.505  11.582 -0.0781  1.0567  0.3603
 1024MOL0     C38138   4.448   2.486  11.628 -0.7202 -0.7133  0.2917
 1024MOL0     C38139   4.387   2.606  11.673  0.3057 -0.4313  0.8312
 1024MOL0     C38140   4.455   2.733  11.678  0.1035  0.3886 -0.0513
 1024MOL0     O38141   4.378   2.830  11.745 -0.2153  0.8354  0.7102
 1024MOL0     C38142   4.434   2.960  11.776 -1.3151 -0.0392 -0.2640
 1024MOL0     C38143   4.427   3.069  11.671 -0.4159  0.0391 -0.1147
 1024MOL0     C38144   4.283   3.060  11.606 -0.5570 -0.4073 -0.3160
 1024MOL0     C38145   4.274   3.152  11.489 -0.3824  0.1873 -0.2167
 1024MOL0     C38146   4.135   3.143  11.429  0.1104 -0.5650 -0.4679
 1024MOL0     C38147   4.081   3.247  11.326 -0.0533 -0.5837 -0.2073
 1024MOL0     C38148   4.196   3.307  11.243 -0.5887  0.9192 -0.0297
 1024MOL0     C38149   4.121   3.400  11.142  0.1914  0.5034  0.9175
 1024MOL0    Cl38150   4.242   3.389  11.007 -0.2517 -0.0622  0.3983
 1024MOL0     C38151   4.587   2.740  11.642 -0.2099 -0.6318 -0.4199
 1024MOL0     C38152   4.641   2.628  11.588 -0.1062  0.2366  0.0779
 1024MOL0     O38153   4.662   2.347  11.776 -1.2337  0.2140 -0.7217
 1024MOL0     C38154   4.857   2.203  11.515  0.0695  0.7072 -0.1006
 1024MOL0     C38155   4.927   2.095  11.463 -0.6789  0.0328 -0.5846
 1024MOL0     N38156   5.425   1.591  11.076 -0.3685 -0.1143 -0.0407
 1024MOL0     N38157   5.383   1.552  10.961 -0.6245 -0.2310 -0.0563
 1024MOL0     C38158   4.825   0.680  10.564  0.0669 -0.4850 -0.8307
 1024MOL0     C38159   4.699   0.621  10.565  0.5104  0.1719  0.4554
 1024MOL0     C38160   4.263   0.593  10.593  1.1322  0.3363  0.5107
 1024MOL0     C38161   4.215   0.494  10.681  0.5675  0.3809 -0.2910
 1024MOL0     C38162   4.081   0.457  10.683  1.5226  0.2675 -0.7151
 1024MOL0     C38163   3.987   0.506  10.592  0.2804 -0.2105  0.4649
 1024MOL0     O38164   3.849   0.467  10.581 -0.1450 -0.1229  0.0155
 1024MOL0     C38165   3.789   0.430  10.711 -1.0630  0.4260  0.7796
 1024MOL0     C38166   3.646   0.381  10.711  0.9332  0.2544  0.1418
 1024MOL0     C38167   3.550   0.381  10.835 -0.4906 -0.2418  0.1283
 1024MOL0     C38168   3.405   0.352  10.804  0.6363  0.1386  0.2174
 1024MOL0     C38169   3.384   0.210  10.776 -0.3732 -0.6877  0.8500
 1024MOL0     C38170   3.335   0.094  10.756  0.0145  0.4666  0.0323
 1024MOL0     C38171   4.028   0.601  10.500  0.0305  0.8823  0.6053
 1024MOL0     C38172   4.165   0.641  10.500  0.1261  0.8299  0.1814
 1024MOL0     H38173   4.594   0.693  10.868 -1.0938  1.3014 -1.1375
 1024MOL0     H38174   4.839   0.777  10.884  1.2925 -2.9578  1.0766
 1024MOL0     H38175   5.081   0.711  10.512  2.7776  0.0848 -0.4029
 1024MOL0     H38176   5.062   0.890  10.512 -1.1534  0.5293  1.1029
 1024MOL0     H38177   5.272   0.740  10.668 -1.1483 -1.6615 -1.0196
 1024MOL0     H38178   5.295   0.809  10.509  0.0708  0.6986  0.5781
 1024MOL0     H38179   5.207   0.963  10.747  1.7695  1.0450  2.3561
 1024MOL0     H38180   5.372   0.958  10.690 -0.0749  1.4327 -1.5233
 1024MOL0     H38181   5.316   1.036  10.472  2.2456  0.7396  2.3052
 1024MOL0     H38182   5.143   1.084  10.525  0.1976  1.3320  1.5250
 1024MOL0     H38183   5.408   1.177  10.626  0.0013  0.1149 -0.1088
 1024MOL0     H38184   5.311   1.265  10.523  4.2092  2.1585  2.1047
 1024MOL0     H38185   5.128   1.260  10.707  0.7554  2.6715 -0.7743
 1024MOL0     H38186   5.235   1.171  10.807 -1.3074  1.3264  1.0950
 1024MOL0     H38187   5.367   1.338  10.850 -1.8573 -1.4776  1.3836
 1024MOL0     H38188   5.317   1.440  10.701 -0.6143 -2.5396 -2.4002
 1024MOL0     H38189   5.147   1.347  10.939 -0.5708  0.7967  0.1917
 1024MOL0     H38190   5.101   1.486  10.845  2.2174  1.3874 -3.4296
 1024MOL0     H38191   5.126   1.497  11.154 -0.8241 -2.2318 -0.8570
 1024MOL0     H38192   5.300   1.518  11.381  3.1472 -0.6690  1.2889
 1024MOL0     H38193   5.451   1.580  11.342 -0.3339  1.7999 -0.5186
 1024MOL0     H38194   5.350   1.805  11.255  0.6883 -1.9266 -0.4526
 1024MOL0     H38195   5.363   1.776  11.425 -0.2527 -0.3271  0.7858
 1024MOL0     H38196   5.098   1.687  11.367 -0.4428 -0.0676  4.0713
 1024MOL0     H38197   5.132   1.818  11.255 -3.0259 -0.7321  0.5225
 1024MOL0     H38198   5.175   1.970  11.430  3.0597 -1.1545 -3.5484
 1024MOL0     H38199   5.194   1.850  11.553 -0.9474 -1.0445 -0.0278
 1024MOL0     H38200   4.907   1.912  11.752  0.5341  0.2227 -0.3644
 1024MOL0     H38201   4.794   2.192  11.914  1.8905 -0.3460  0.4664
 1024MOL0     H38202   4.656   2.079  11.857 -0.4324 -0.6180 -2.2643
 1024MOL0     H38203   4.803   2.009  11.920  0.5173 -0.4019 -2.2617
 1024MOL0     H38204   4.398   2.392  11.648 -3.7140 -0.0922 -3.0702
 1024MOL0     H38205   4.295   2.604  11.731  0.5781 -1.0325  1.2610
 1024MOL0     H38206   4.380   3.001  11.862  0.5054  3.4026 -0.5711
 1024MOL0     H38207   4.533   2.951  11.821 -0.4593 -2.4120 -2.4215
 1024MOL0     H38208   4.444   3.172  11.704  0.3063 -0.0881 -0.0598
 1024MOL0     H38209   4.500   3.050  11.591 -1.8163 -0.5405 -1.2951
 1024MOL0     H38210   4.225   3.100  11.690  2.7805 -0.1383  2.0945
 1024MOL0     H38211   4.255   2.956  11.587  0.4319 -0.7422 -0.0010
 1024MOL0     H38212   4.278   3.255  11.527 -1.3980 -0.6895  2.4861
 1024MOL0     H38213   4.353   3.138  11.414 -0.1102 -0.3122  0.1628
 1024MOL0     H38214   4.066   3.147  11.514  0.9692  1.0853  0.1853
 1024MOL0     H38215   4.122   3.050  11.373 -0.6672 -0.1384 -1.0102
 1024MOL0     H38216   3.997   3.209  11.266 -0.8813 -0.8345  1.0802
 1024MOL0     H38217   4.036   3.333  11.376  2.5476  0.3834  0.6128
 1024MOL0     H38218   4.237   3.224  11.184  1.2829  2.3364 -0.8099
 1024MOL0     H38219   4.274   3.365  11.292  0.2310  1.1187 -1.5122
 1024MOL0     H38220   4.123   3.502  11.180 -1.0965  1.0527 -0.3813
 1024MOL0     H38221   4.016   3.370  11.132  0.6726 -1.2822  0.8859
 1024MOL0     H38222   4.649   2.829  11.650 -0.4873 -0.0636 -3.4572
 1024MOL0     H38223   4.742   2.648  11.552 -1.1782 -0.2838 -3.6123
 1024MOL0     H38224   4.853   2.294  11.455  2.6538  0.2161 -1.1625
 1024MOL0     H38225   4.974   2.115  11.367 -0.0824 -1.4350 -0.6214
 1024MOL0     H38226   4.892   0.681  10.479  0.4071  1.3042 -0.5714
 1024MOL0     H38227   4.663   0.556  10.486 -1.4024 -0.7550  1.9941
 1024MOL0     H38228   4.285   0.437  10.741  1.0900 -0.3285 -1.5321
 1024MOL0     H38229   4.054   0.386  10.760  1.3853  2.9072  1.8931
 1024MOL0     H38230   3.853   0.356  10.759  1.5231  1.7296 -0.4604
 1024MOL0     H38231   3.792   0.518  10.775  0.9577  1.4451 -0.6374
 1024MOL0     H38232   3.658   0.278  10.676  1.8762  0.4746 -0.2212
 1024MOL0     H38233   3.596   0.441  10.634  1.9548 -1.4854 -1.9980
 1024MOL0     H38234   3.548   0.479  10.884 -2.9031 -0.9185  1.5402
 1024MOL0     H38235   3.588   0.305  10.903  4.1985  0.2106 -1.5719
 1024MOL0     H38236   3.363   0.422  10.731  0.2614 -1.3711 -1.0772
 1024MOL0     H38237   3.350   0.369  10.897 -1.6750  0.2789 -1.0822
 1024MOL0     H38238   3.303  -0.008  10.757 -0.4267  0.5577 -1.4651
 1024MOL0     H38239   3.969   0.630  10.414  2.9516  4.0060 -0.5556
 1024MOL0     H38240   4.204   0.722  10.439  2.8685 -0.6290 -0.1407
  11.50764  11.50764  11.50764
